FOO
138240
    1MOL0     O    1   7.422   2.049   2.454 -0.0941 -0.7139  0.1225
    1MOL0     C    2   7.539   2.047   2.448 -0.7597 -0.4964  0.2867
    1MOL0     O    3   7.618   2.145   2.395 -0.7257  0.9765 -0.4307
    1MOL0     C    4   7.569   2.271   2.355 -1.0789  0.5434 -0.1067
    1MOL0     C    5   7.643   2.339   2.257 -0.0047 -0.6368  0.3723
    1MOL0     C    6   7.607   2.475   2.225  0.5313 -0.0710 -0.4188
    1MOL0     C    7   7.506   2.548   2.292 -0.9180  0.5400  0.1578
    1MOL0     O    8   7.488   2.679   2.258  0.6248 -0.4859 -0.9808
    1MOL0     C    9   7.361   2.738   2.270  0.6516  0.3875 -0.5515
    1MOL0     C   10   7.271   2.711   2.141  0.0434 -0.9719 -0.6040
    1MOL0     C   11   7.234   2.560   2.125 -0.2257 -0.5970 -0.0853
    1MOL0     C   12   7.136   2.541   2.014  0.2723  0.0458  0.7075
    1MOL0     C   13   7.206   2.508   1.873  0.0504 -0.1846 -0.2282
    1MOL0     C   14   7.266   2.366   1.884 -0.1697 -0.6977 -0.2977
    1MOL0     C   15   7.278   2.313   1.744 -0.7215  1.3284 -0.2730
    1MOL0     C   16   7.363   2.188   1.765  0.5157  0.7405  0.0425
    1MOL0     N   17   7.397   2.127   1.635 -0.5597 -0.1510 -0.4060
    1MOL0     C   18   7.305   2.055   1.555 -0.9058  0.1593  0.5839
    1MOL0     C   19   7.381   2.002   1.459  1.1644 -0.4115 -0.2342
    1MOL0     C   20   7.362   1.882   1.367 -0.3417  0.2990  0.0991
    1MOL0     C   21   7.415   1.746   1.422  0.3355  0.2974  0.6253
    1MOL0     C   22   7.395   1.637   1.321 -0.4445 -0.6184  0.1223
    1MOL0     C   23   7.433   1.502   1.373 -0.0327 -0.4001  0.1264
    1MOL0     O   24   7.454   1.418   1.260  0.2791  0.5925  0.5403
    1MOL0     C   25   7.486   1.286   1.270  0.0350  0.3993  0.3641
    1MOL0     C   26   7.476   1.215   1.151  0.7786 -0.0018  0.0261
    1MOL0     C   27   7.494   1.078   1.143 -1.1131  0.0129 -0.0097
    1MOL0     C   28   7.520   1.001   1.267  0.1471  1.2204  0.1266
    1MOL0     C   29   7.545   0.855   1.263  0.5719  0.2835 -0.2854
    1MOL0     O   30   7.556   0.800   1.143 -0.8045  0.1666 -0.2767
    1MOL0     C   31   7.565   0.662   1.134  0.7877  0.6970 -0.8147
    1MOL0     C   32   7.496   0.602   1.031 -0.6248 -0.7256  0.5949
    1MOL0     C   33   7.505   0.471   0.998  0.4729  0.0698 -0.5963
    1MOL0     C   34   7.583   0.391   1.081 -0.5603  1.3583  1.2192
    1MOL0     O   35   7.603   0.256   1.054 -0.1065  0.5680  0.7552
    1MOL0     C   36   7.497   0.161   1.075  0.8959 -1.0033  0.0727
    1MOL0     C   37   7.547   0.026   1.034 -0.2147 -0.4824 -0.3567
    1MOL0     C   38   7.603   0.009   0.890  1.0115 -0.5735 -0.7555
    1MOL0     C   39   7.665  -0.137   0.891 -0.0802  0.5335  0.3617
    1MOL0     C   40   7.720  -0.173   0.759 -0.2633  0.7543 -1.0515
    1MOL0     C   41   7.853  -0.105   0.714  0.1986  0.1392  0.5648
    1MOL0     C   42   7.914  -0.162   0.585  0.8927 -0.5232  0.5454
    1MOL0     C   43   8.055  -0.111   0.552 -0.4037 -0.5761 -0.2026
    1MOL0    Cl   44   8.091   0.063   0.596 -0.0156  0.2098  0.0773
    1MOL0     C   45   7.665   0.451   1.171  0.2288 -0.5043  0.2438
    1MOL0     C   46   7.663   0.585   1.205  0.1581 -0.1015 -1.5229
    1MOL0     O   47   7.548   0.791   1.373  0.1401 -0.2926  0.3853
    1MOL0     C   48   7.521   1.074   1.387 -0.6079 -0.3194 -0.3045
    1MOL0     C   49   7.503   1.208   1.388  0.8551 -0.3169  0.6712
    1MOL0     N   50   7.509   2.036   1.480 -0.6165 -0.4717 -0.1091
    1MOL0     N   51   7.518   2.110   1.592 -0.3258  0.4638  0.1606
    1MOL0     C   52   7.442   2.478   2.394  0.0351  0.5991  0.8048
    1MOL0     C   53   7.469   2.343   2.415  0.4101 -0.1944 -0.2913
    1MOL0     C   54   7.606   1.915   2.496  0.9031 -0.7362 -0.0858
    1MOL0     C   55   7.748   1.905   2.484 -0.8637  1.0913  1.2934
    1MOL0     C   56   7.814   1.792   2.529  0.2725 -0.1809 -0.0854
    1MOL0     C   57   7.742   1.692   2.589 -0.1606 -0.1040  0.0634
    1MOL0     O   58   7.797   1.576   2.639  0.2803  0.1253 -0.0775
    1MOL0     C   59   7.922   1.529   2.576  0.5558  0.9062 -0.3275
    1MOL0     C   60   7.930   1.376   2.600 -0.3879  0.3483 -0.5843
    1MOL0     C   61   7.995   1.343   2.740 -0.3026 -0.5725  0.4556
    1MOL0     C   62   8.009   1.190   2.767 -0.0065  0.5331  0.9125
    1MOL0     C   63   8.104   1.167   2.876 -0.5210  0.0988 -0.0038
    1MOL0     C   64   8.193   1.130   2.950  0.2438  0.8673 -0.3543
    1MOL0     C   65   7.607   1.700   2.608 -0.5812 -0.4794 -0.0475
    1MOL0     C   66   7.537   1.807   2.555  0.7348  0.9009 -0.0751
    1MOL0     C   67   7.388   1.786   2.561  0.2881 -0.2262  0.0296
    1MOL0     H   68   7.715   2.289   2.193 -3.7550 -1.4059 -3.7170
    1MOL0     H   69   7.657   2.518   2.139 -0.4323  0.4520 -0.7243
    1MOL0     H   70   7.310   2.705   2.361  1.5374  0.1156 -0.1429
    1MOL0     H   71   7.382   2.844   2.287  1.4015  0.1419  0.1212
    1MOL0     H   72   7.331   2.758   2.064 -0.6393  1.8897  0.5016
    1MOL0     H   73   7.180   2.771   2.147  0.4913 -0.2092 -1.2733
    1MOL0     H   74   7.189   2.529   2.219 -0.2298 -0.5023 -0.0556
    1MOL0     H   75   7.319   2.494   2.109  0.4903 -0.7457  3.5723
    1MOL0     H   76   7.076   2.453   2.039  0.9629 -0.0819  2.0270
    1MOL0     H   77   7.066   2.624   2.008 -0.5568 -0.6901 -0.3576
    1MOL0     H   78   7.132   2.515   1.793  1.2600  1.4542 -1.2739
    1MOL0     H   79   7.278   2.588   1.854 -0.9524  0.6603 -0.5830
    1MOL0     H   80   7.367   2.370   1.927  0.5812 -3.2417 -1.6074
    1MOL0     H   81   7.204   2.300   1.944  2.1490 -2.2439  0.5439
    1MOL0     H   82   7.327   2.382   1.674  0.5936  0.8550  0.1599
    1MOL0     H   83   7.184   2.272   1.706 -1.6501  3.4033 -0.3288
    1MOL0     H   84   7.453   2.210   1.822  0.5227 -3.0290  1.7774
    1MOL0     H   85   7.309   2.115   1.826  0.5812  0.3337 -0.3790
    1MOL0     H   86   7.202   2.025   1.568 -1.6536  2.2403 -0.1320
    1MOL0     H   87   7.256   1.871   1.344 -1.1662  2.1490  2.6411
    1MOL0     H   88   7.421   1.898   1.275 -0.5808 -1.5422 -0.4324
    1MOL0     H   89   7.522   1.755   1.442  0.4504  2.5407 -0.6253
    1MOL0     H   90   7.358   1.711   1.508 -0.4315  0.5881  0.2468
    1MOL0     H   91   7.459   1.652   1.234  1.2319 -1.5842  1.1289
    1MOL0     H   92   7.293   1.640   1.282  0.3651 -1.2280 -2.1832
    1MOL0     H   93   7.363   1.466   1.449 -0.4925  0.1509 -0.0258
    1MOL0     H   94   7.527   1.500   1.429  0.3404 -0.8231 -0.4897
    1MOL0     H   95   7.465   1.277   1.062  1.4300  1.6311  1.0365
    1MOL0     H   96   7.501   1.030   1.046  1.8847  1.2346 -0.5150
    1MOL0     H   97   7.423   0.657   0.973 -0.5157 -0.3556  0.8117
    1MOL0     H   98   7.451   0.428   0.914  1.3514  0.0972 -1.1964
    1MOL0     H   99   7.475   0.153   1.182  0.5605 -6.3452 -0.1239
    1MOL0     H  100   7.403   0.172   1.020  1.7279 -4.2249 -2.3235
    1MOL0     H  101   7.626  -0.000   1.104  1.4202 -0.6895 -2.1989
    1MOL0     H  102   7.464  -0.044   1.041 -1.6795  1.2858  1.1836
    1MOL0     H  103   7.523   0.021   0.816 -2.6543 -2.8550  2.4464
    1MOL0     H  104   7.677   0.086   0.864 -0.5062  0.3387 -2.6854
    1MOL0     H  105   7.582  -0.198   0.927  0.4371  0.2512  1.1167
    1MOL0     H  106   7.747  -0.136   0.964 -0.8159  3.5424  1.3106
    1MOL0     H  107   7.645  -0.161   0.681  1.1973 -4.2549 -3.6365
    1MOL0     H  108   7.742  -0.280   0.762  0.6632  0.9005 -2.1533
    1MOL0     H  109   7.812  -0.009   0.681  3.5673  1.8614  1.0171
    1MOL0     H  110   7.928  -0.089   0.791  1.4340 -0.9586 -0.3521
    1MOL0     H  111   7.842  -0.147   0.504  3.0965 -0.4345 -1.5118
    1MOL0     H  112   7.917  -0.271   0.598  0.7527 -0.7265 -1.0106
    1MOL0     H  113   8.113  -0.176   0.618 -2.8192 -2.5981  0.0739
    1MOL0     H  114   8.092  -0.127   0.450 -0.1788  2.6278 -0.7355
    1MOL0     H  115   7.724   0.380   1.228  3.5885  0.8289 -1.3344
    1MOL0     H  116   7.736   0.629   1.272  0.3113 -2.6511  0.1436
    1MOL0     H  117   7.548   1.033   1.484 -1.6441  2.2006  1.1474
    1MOL0     H  118   7.494   1.260   1.483 -2.2608  1.5722 -0.4989
    1MOL0     H  119   7.360   2.514   2.455 -1.8264  5.6837 -3.8713
    1MOL0     H  120   7.400   2.303   2.489  1.9986 -2.1951  0.1698
    1MOL0     H  121   7.814   1.982   2.445  0.0090  0.7168  1.9706
    1MOL0     H  122   7.922   1.788   2.535  0.4370 -0.0841 -2.2421
    1MOL0     H  123   8.012   1.579   2.615 -0.8732  0.8468  3.5193
    1MOL0     H  124   7.924   1.547   2.468  0.5105 -0.6900 -0.6195
    1MOL0     H  125   7.988   1.346   2.513 -1.4700 -0.5956 -1.0040
    1MOL0     H  126   7.830   1.332   2.600 -1.3421  2.3549  1.0405
    1MOL0     H  127   7.969   1.414   2.820  2.0996  1.5504 -0.5043
    1MOL0     H  128   8.096   1.373   2.713 -0.7272 -0.7380 -1.4345
    1MOL0     H  129   7.916   1.140   2.797  2.0152 -3.5239  1.1128
    1MOL0     H  130   8.045   1.141   2.676 -1.4783  1.0253  0.0271
    1MOL0     H  131   8.259   1.087   3.022 -1.7666 -2.9058 -0.5466
    1MOL0     H  132   7.565   1.610   2.652 -1.2898 -0.3422 -0.4166
    1MOL0     H  133   7.321   1.872   2.561 -0.5379 -0.8296 -1.4833
    1MOL0     H  134   7.368   1.734   2.467 -5.6615 -0.5417  1.0574
    1MOL0     H  135   7.362   1.723   2.647 -2.4516 -2.3233 -2.1203
    2MOL0     O  136   5.382   3.178   2.784  0.0347  0.6493 -0.5024
    2MOL0     C  137   5.378   3.285   2.846  0.2867 -0.1407  0.8271
    2MOL0     O  138   5.366   3.306   2.978 -0.7789 -0.5153 -0.3556
    2MOL0     C  139   5.352   3.189   3.049  0.2173 -0.2672  0.8806
    2MOL0     C  140   5.461   3.162   3.135  0.8628  0.5491 -0.0650
    2MOL0     C  141   5.451   3.052   3.222 -1.2803 -0.6751  0.4146
    2MOL0     C  142   5.339   2.972   3.227  0.2949 -0.5499  0.5683
    2MOL0     O  143   5.355   2.868   3.311 -0.1256 -0.5460 -0.1305
    2MOL0     C  144   5.255   2.756   3.301  0.1559 -0.1627 -0.5915
    2MOL0     C  145   5.328   2.629   3.241 -0.6559 -0.0334 -0.2480
    2MOL0     C  146   5.223   2.525   3.205  0.2929 -0.4341 -0.0165
    2MOL0     C  147   5.293   2.396   3.168  0.3521  0.1391  0.7455
    2MOL0     C  148   5.198   2.306   3.075  0.0936 -0.7509 -0.6567
    2MOL0     C  149   5.257   2.197   3.007 -0.5456  0.2245  0.8315
    2MOL0     C  150   5.166   2.093   2.937 -0.0020 -0.3211 -0.0608
    2MOL0     C  151   5.237   2.005   2.824 -0.5901  0.9884 -0.6155
    2MOL0     N  152   5.209   2.056   2.695 -0.2448  0.0925  0.2452
    2MOL0     C  153   5.248   2.179   2.641 -0.1785  0.0080  0.9640
    2MOL0     C  154   5.221   2.176   2.501  0.0458 -0.3603 -0.3795
    2MOL0     C  155   5.254   2.281   2.391  0.4987 -0.7439  0.1816
    2MOL0     C  156   5.215   2.419   2.443  0.8269 -0.5743 -1.0627
    2MOL0     C  157   5.057   2.437   2.458  0.5231  0.4645 -0.7707
    2MOL0     C  158   5.004   2.401   2.607  0.5762 -0.1303 -1.0387
    2MOL0     O  159   4.856   2.422   2.614 -0.1399  0.1317  0.3336
    2MOL0     C  160   4.770   2.334   2.569  0.6118  1.0736 -0.0732
    2MOL0     C  161   4.797   2.233   2.490 -0.0487 -0.6056 -0.2954
    2MOL0     C  162   4.701   2.137   2.458 -0.0603  0.4669 -0.1645
    2MOL0     C  163   4.572   2.145   2.520 -0.2133  1.1441 -0.7825
    2MOL0     C  164   4.474   2.039   2.476 -0.1548  0.2473  0.0848
    2MOL0     O  165   4.506   1.969   2.353 -0.6148 -0.1141 -0.5041
    2MOL0     C  166   4.426   1.863   2.320 -0.5489  1.3122  0.9129
    2MOL0     C  167   4.493   1.735   2.323  0.0005 -0.8726 -0.6466
    2MOL0     C  168   4.430   1.634   2.255  0.0254  1.0065 -0.8499
    2MOL0     C  169   4.304   1.656   2.201  0.6186  0.6311  0.8723
    2MOL0     O  170   4.257   1.543   2.151  0.5213  0.3406 -0.2290
    2MOL0     C  171   4.259   1.509   2.009 -0.5844 -0.2940 -0.1393
    2MOL0     C  172   4.166   1.588   1.933 -0.0323 -0.3990  0.8912
    2MOL0     C  173   4.180   1.565   1.786 -0.5973  0.7221 -0.7248
    2MOL0     C  174   4.074   1.634   1.702  0.4915 -0.1552 -0.3405
    2MOL0     C  175   4.109   1.600   1.560 -0.3433  0.7418  0.4808
    2MOL0     C  176   4.012   1.653   1.450  0.2743  0.1024  0.0948
    2MOL0     C  177   4.054   1.619   1.315 -0.9367 -0.0575  0.8486
    2MOL0     C  178   3.941   1.654   1.206 -0.0294 -0.2266 -0.1740
    2MOL0    Cl  179   3.790   1.575   1.226 -0.4235  0.5085  0.1709
    2MOL0     C  180   4.233   1.776   2.213  0.1559  0.2174  0.5985
    2MOL0     C  181   4.308   1.882   2.264  1.5788  0.2499  0.3789
    2MOL0     O  182   4.381   2.013   2.548 -0.0158 -0.0570 -0.8572
    2MOL0     C  183   4.538   2.258   2.593  0.0440 -0.0052  0.2997
    2MOL0     C  184   4.637   2.356   2.611  0.5116 -0.5718 -0.4154
    2MOL0     N  185   5.144   2.060   2.480 -0.4313  0.4965 -1.3104
    2MOL0     N  186   5.140   1.995   2.599 -0.0570 -0.2089 -0.3282
    2MOL0     C  187   5.231   3.002   3.141  0.4432 -0.4248  0.0856
    2MOL0     C  188   5.241   3.113   3.052  0.6796  0.5934  0.1165
    2MOL0     C  189   5.376   3.410   2.765  0.8565 -0.5419 -0.5908
    2MOL0     C  190   5.260   3.488   2.781  0.6736 -0.1279 -1.0847
    2MOL0     C  191   5.237   3.607   2.714 -0.3069  0.5620  1.2748
    2MOL0     C  192   5.332   3.643   2.614  0.1720  0.7269  0.2036
    2MOL0     O  193   5.324   3.756   2.550  0.0191 -0.0978 -0.1604
    2MOL0     C  194   5.282   3.743   2.414  0.6027  0.3682 -0.3819
    2MOL0     C  195   5.124   3.728   2.395 -0.6828 -0.2726  0.3393
    2MOL0     C  196   5.058   3.847   2.464  0.2966  0.4908  0.1216
    2MOL0     C  197   4.929   3.894   2.398  0.1013 -0.1351 -0.1803
    2MOL0     C  198   4.947   3.913   2.249  0.5191  0.0984 -0.1369
    2MOL0     C  199   4.937   3.931   2.128 -0.1804 -0.1619  0.4266
    2MOL0     C  200   5.447   3.567   2.608  0.2242  0.6959 -0.4484
    2MOL0     C  201   5.472   3.453   2.677  0.7262  0.0682 -0.5433
    2MOL0     C  202   5.595   3.380   2.654 -0.3205 -0.7318 -1.1103
    2MOL0     H  203   5.555   3.211   3.108  1.5277 -1.8317 -2.4593
    2MOL0     H  204   5.539   3.029   3.281 -0.5828  5.1299  2.2437
    2MOL0     H  205   5.202   2.722   3.390 -2.0057  0.9584 -1.3636
    2MOL0     H  206   5.163   2.789   3.251 -1.3742 -2.6072  0.4421
    2MOL0     H  207   5.405   2.593   3.310 -2.6131 -2.6284  0.7299
    2MOL0     H  208   5.376   2.659   3.147  0.9623 -3.0744 -0.5144
    2MOL0     H  209   5.178   2.562   3.112  1.3723 -0.9687 -0.7771
    2MOL0     H  210   5.154   2.513   3.289 -2.5425  1.9438 -1.8026
    2MOL0     H  211   5.387   2.419   3.117  0.2782  2.5663  1.5738
    2MOL0     H  212   5.339   2.356   3.259 -0.1517 -1.0847  0.4879
    2MOL0     H  213   5.114   2.270   3.136 -0.6358 -0.4599 -1.4667
    2MOL0     H  214   5.153   2.372   3.001 -0.1376 -0.1102  0.0409
    2MOL0     H  215   5.320   2.249   2.933 -0.6890 -0.6608  0.0666
    2MOL0     H  216   5.312   2.135   3.077 -1.2325 -1.6792 -0.2476
    2MOL0     H  217   5.086   2.143   2.882  0.0872 -0.8543 -0.6868
    2MOL0     H  218   5.125   2.036   3.022  1.5597  0.2708  1.1470
    2MOL0     H  219   5.343   2.012   2.852 -0.6646 -2.5364  1.0777
    2MOL0     H  220   5.196   1.904   2.828 -1.4889  1.2318 -2.5727
    2MOL0     H  221   5.302   2.254   2.698  2.1604 -0.5658 -0.3388
    2MOL0     H  222   5.361   2.276   2.366  0.6522  0.4048  0.5694
    2MOL0     H  223   5.218   2.264   2.289  3.7593  2.9537 -1.8576
    2MOL0     H  224   5.259   2.439   2.542 -1.4488 -0.8167  0.0748
    2MOL0     H  225   5.257   2.486   2.368  2.6474 -1.2497 -0.7156
    2MOL0     H  226   5.007   2.374   2.384 -0.0561 -1.4261  1.1449
    2MOL0     H  227   5.025   2.540   2.434 -2.0904 -0.5587 -2.1753
    2MOL0     H  228   5.053   2.474   2.672 -2.0770  2.0368 -1.3054
    2MOL0     H  229   5.029   2.301   2.643 -0.3145 -0.5140 -1.4530
    2MOL0     H  230   4.898   2.218   2.453  0.3027  1.8874 -0.4976
    2MOL0     H  231   4.743   2.053   2.404  2.1740  0.7872  0.9491
    2MOL0     H  232   4.591   1.717   2.367  0.2119  0.6628 -0.4415
    2MOL0     H  233   4.467   1.532   2.260  0.8804  1.3575  2.4912
    2MOL0     H  234   4.358   1.538   1.973 -0.8134 -0.0277 -0.5749
    2MOL0     H  235   4.237   1.404   1.990 -0.7162 -0.3619  0.3705
    2MOL0     H  236   4.061   1.567   1.953 -0.1770  0.1752  0.7524
    2MOL0     H  237   4.190   1.695   1.945  0.3171  0.0128 -2.6008
    2MOL0     H  238   4.276   1.594   1.743  2.2353 -3.5890  1.9979
    2MOL0     H  239   4.161   1.457   1.784  1.0450  0.4142 -1.3198
    2MOL0     H  240   4.078   1.741   1.723  0.7861 -0.5401  1.8277
    2MOL0     H  241   3.973   1.599   1.724  0.1423  0.4460 -0.9844
    2MOL0     H  242   4.105   1.491   1.553 -3.6901  0.8216 -0.6225
    2MOL0     H  243   4.210   1.631   1.531 -0.3953 -0.8620 -1.6710
    2MOL0     H  244   3.908   1.627   1.470  0.8935 -1.6099  1.3250
    2MOL0     H  245   4.024   1.762   1.444  1.5946  0.0215  0.9555
    2MOL0     H  246   4.063   1.510   1.308  0.1970  0.1310 -3.1016
    2MOL0     H  247   4.158   1.652   1.300 -1.3642  1.2265  0.5388
    2MOL0     H  248   3.914   1.760   1.216  2.1446  0.2002  2.1397
    2MOL0     H  249   3.978   1.629   1.106  2.2641 -0.1477  0.5790
    2MOL0     H  250   4.128   1.779   2.184 -0.0808  3.5807  1.4248
    2MOL0     H  251   4.263   1.980   2.254 -2.5185 -1.4114  0.7336
    2MOL0     H  252   4.433   2.277   2.614  0.3049 -0.8886  2.6569
    2MOL0     H  253   4.612   2.442   2.673 -1.2054 -1.5678  0.3512
    2MOL0     H  254   5.132   2.962   3.162 -0.2438  1.8167  1.6013
    2MOL0     H  255   5.152   3.152   3.004 -1.4783 -0.4129  3.0240
    2MOL0     H  256   5.192   3.449   2.856  2.5923  0.6380  1.1688
    2MOL0     H  257   5.148   3.670   2.715 -1.8602 -1.4920  1.0495
    2MOL0     H  258   5.328   3.654   2.369 -1.5188 -1.5234  0.9502
    2MOL0     H  259   5.316   3.832   2.360  4.2343 -2.2314 -2.8889
    2MOL0     H  260   5.084   3.633   2.431 -1.9536 -1.8306 -4.5012
    2MOL0     H  261   5.100   3.719   2.288  0.5296 -0.7983  0.1036
    2MOL0     H  262   5.133   3.925   2.476  1.3048 -0.2106 -1.2980
    2MOL0     H  263   5.032   3.830   2.569  2.0361  1.7399  0.7940
    2MOL0     H  264   4.851   3.819   2.418  0.8830 -0.7624  0.6040
    2MOL0     H  265   4.891   3.988   2.438 -0.4117  0.5495 -2.1577
    2MOL0     H  266   4.921   3.934   2.022 -0.2101 -0.8504  0.4097
    2MOL0     H  267   5.518   3.594   2.531 -0.8931  0.5951 -1.5369
    2MOL0     H  268   5.661   3.428   2.727 -1.7469  0.2913 -0.4450
    2MOL0     H  269   5.593   3.275   2.681 -0.1668 -0.4304  0.1272
    2MOL0     H  270   5.631   3.389   2.551  0.0917  1.2970 -0.8437
    3MOL0     O  271   3.810   5.225  11.289  0.0177 -0.8964 -0.4914
    3MOL0     C  272   3.794   5.192  11.404  0.0766  0.8877 -1.0618
    3MOL0     O  273   3.810   5.277  11.511 -0.4136 -0.1477 -0.0432
    3MOL0     C  274   3.822   5.412  11.484  0.9740  1.3947 -0.2094
    3MOL0     C  275   3.722   5.483  11.418 -0.0315  0.3680  0.0069
    3MOL0     C  276   3.747   5.618  11.389 -0.2265  1.5519 -0.5855
    3MOL0     C  277   3.873   5.678  11.428  0.0718  0.2290 -0.1799
    3MOL0     O  278   3.914   5.809  11.419  0.5275  0.6279 -0.6001
    3MOL0     C  279   3.819   5.903  11.367 -0.3228 -0.5043  0.5881
    3MOL0     C  280   3.873   6.044  11.386 -0.0846 -0.3319 -0.2895
    3MOL0     C  281   3.928   6.062  11.535  0.7109 -0.1645 -0.3262
    3MOL0     C  282   3.805   6.085  11.625  0.2259 -0.5477  0.0534
    3MOL0     C  283   3.842   6.127  11.762  0.3375  0.0644 -0.9836
    3MOL0     C  284   3.720   6.172  11.837 -0.4496 -0.1216 -1.0786
    3MOL0     C  285   3.602   6.073  11.828 -0.9017  0.2733  1.7101
    3MOL0     C  286   3.510   6.080  11.949 -0.4260  0.0642 -0.0462
    3MOL0     N  287   3.378   6.015  11.935 -0.6337 -0.0190  0.6361
    3MOL0     C  288   3.264   6.089  11.952  0.8314 -0.2119  0.8353
    3MOL0     C  289   3.170   5.994  11.957  0.2067 -0.7420  0.9215
    3MOL0     C  290   3.027   6.002  11.985 -0.5195  0.2493 -0.4006
    3MOL0     C  291   2.941   6.009  11.855  0.1367 -0.3338 -0.6617
    3MOL0     C  292   2.924   6.146  11.796 -0.0688 -0.6452  0.4243
    3MOL0     C  293   3.043   6.221  11.734 -0.2792  0.2813 -0.1099
    3MOL0     O  294   3.005   6.319  11.644 -0.4237  0.3191 -0.0858
    3MOL0     C  295   3.110   6.399  11.586  0.0161  1.6660 -1.2304
    3MOL0     C  296   3.248   6.368  11.596  0.6245 -1.0279  0.5385
    3MOL0     C  297   3.344   6.441  11.535 -0.7743  0.3604  0.5666
    3MOL0     C  298   3.306   6.544  11.444  0.6166 -0.5792  0.5873
    3MOL0     C  299   3.401   6.606  11.359  0.0682 -0.4673 -0.7044
    3MOL0     O  300   3.362   6.726  11.308  0.1072 -0.2427 -0.7935
    3MOL0     C  301   3.439   6.806  11.229 -0.1292  0.1700  0.3795
    3MOL0     C  302   3.577   6.795  11.213  0.0406 -0.4889 -0.4634
    3MOL0     C  303   3.656   6.901  11.155  0.0884  0.1213 -0.2155
    3MOL0     C  304   3.584   6.998  11.088 -0.4707 -0.8521 -0.7989
    3MOL0     O  305   3.663   7.097  11.029 -0.1686  0.2602  0.2686
    3MOL0     C  306   3.611   7.194  10.938 -0.0513  0.1348 -0.0436
    3MOL0     C  307   3.541   7.302  11.037  0.6880 -0.2240 -0.6020
    3MOL0     C  308   3.450   7.402  10.967  0.2016 -0.4063 -0.3815
    3MOL0     C  309   3.364   7.503  11.049  1.4633 -0.9422 -0.1874
    3MOL0     C  310   3.206   7.518  11.010 -0.4875 -0.4484  0.5240
    3MOL0     C  311   3.113   7.411  11.072  0.2256  0.2701 -0.5390
    3MOL0     C  312   3.115   7.274  11.002  0.1680 -0.2300 -0.5587
    3MOL0     C  313   3.066   7.159  11.097  0.2298 -0.4460 -0.6996
    3MOL0    Cl  314   3.040   6.994  11.014 -0.0925 -0.4866  0.1742
    3MOL0     C  315   3.442   6.995  11.082  0.1238  1.0542 -0.2182
    3MOL0     C  316   3.366   6.894  11.157 -0.8183 -0.2634  0.2609
    3MOL0     O  317   3.493   6.541  11.309 -0.4213 -1.2083  0.1729
    3MOL0     C  318   3.164   6.581  11.441 -0.2238  0.2281 -0.0205
    3MOL0     C  319   3.071   6.505  11.511 -0.1455  0.6972 -0.1219
    3MOL0     N  320   3.223   5.866  11.946 -0.1118  0.2541  0.4558
    3MOL0     N  321   3.357   5.878  11.933  0.4573 -0.7412 -0.2145
    3MOL0     C  322   3.972   5.599  11.486  0.0288 -0.7087 -0.1928
    3MOL0     C  323   3.941   5.474  11.511  0.7515 -0.2841 -0.4620
    3MOL0     C  324   3.763   5.056  11.444 -0.5344  0.0102 -0.4699
    3MOL0     C  325   3.675   5.048  11.552  0.5111  0.3901  0.3228
    3MOL0     C  326   3.641   4.923  11.606  0.5898  0.2769 -0.8876
    3MOL0     C  327   3.706   4.807  11.558 -0.0156  0.2806 -1.5180
    3MOL0     O  328   3.696   4.676  11.619  0.1098 -0.0705 -0.6260
    3MOL0     C  329   3.563   4.634  11.635  0.3157 -0.4608  1.6429
    3MOL0     C  330   3.523   4.495  11.566 -0.4197 -0.3608  0.5845
    3MOL0     C  331   3.565   4.480  11.409  0.2111  0.1261 -0.0227
    3MOL0     C  332   3.480   4.558  11.310 -1.4568 -0.3372  1.2298
    3MOL0     C  333   3.338   4.512  11.302  0.2114  0.3043 -0.2940
    3MOL0     C  334   3.216   4.490  11.306 -0.1171  0.9881 -1.0494
    3MOL0     C  335   3.789   4.821  11.446 -0.7805 -0.2257  0.0717
    3MOL0     C  336   3.815   4.944  11.389 -1.1419  0.0343  0.1902
    3MOL0     C  337   3.915   4.937  11.268 -0.0376  0.0143  0.0411
    3MOL0     H  338   3.635   5.426  11.389  0.7496 -1.1778  0.5787
    3MOL0     H  339   3.672   5.669  11.329 -2.2389 -0.8405 -0.2792
    3MOL0     H  340   3.791   5.888  11.262  1.5971  0.5103 -0.1136
    3MOL0     H  341   3.722   5.898  11.416 -0.7577  0.6146 -0.1319
    3MOL0     H  342   3.801   6.123  11.366 -3.6815 -3.4800 -0.8359
    3MOL0     H  343   3.963   6.063  11.326  1.7844  0.1873  2.4400
    3MOL0     H  344   3.999   6.146  11.533  1.5510 -0.8142  0.9370
    3MOL0     H  345   3.973   5.973  11.579  0.4591 -0.5247 -0.7989
    3MOL0     H  346   3.745   6.160  11.574 -1.5378 -2.4023 -0.7267
    3MOL0     H  347   3.744   5.995  11.613  2.4657 -1.8208 -3.3892
    3MOL0     H  348   3.879   6.037  11.811  0.8602  2.4791  3.6393
    3MOL0     H  349   3.915   6.205  11.783 -0.0323 -0.6606  4.8477
    3MOL0     H  350   3.739   6.189  11.944 -2.8290  1.4078 -0.8262
    3MOL0     H  351   3.682   6.268  11.800 -1.3795  0.8228  2.0205
    3MOL0     H  352   3.630   5.968  11.819  0.8460  0.8515 -1.9873
    3MOL0     H  353   3.542   6.100  11.740 -1.7123  0.2718  2.2543
    3MOL0     H  354   3.562   6.036  12.034 -2.1915  0.2101  1.1850
    3MOL0     H  355   3.484   6.183  11.976 -0.6967 -0.0677  0.1974
    3MOL0     H  356   3.262   6.193  11.983  1.4952  0.3300 -0.8652
    3MOL0     H  357   3.001   5.913  12.042  2.1371  1.3529  2.8587
    3MOL0     H  358   3.009   6.078  12.061  0.5063 -0.8647  1.0149
    3MOL0     H  359   2.989   5.941  11.784 -1.9399 -1.0575 -1.4582
    3MOL0     H  360   2.843   5.961  11.870  1.3244 -2.3407  1.3545
    3MOL0     H  361   2.863   6.208  11.861 -2.8123 -1.2378 -1.4272
    3MOL0     H  362   2.856   6.135  11.711  1.0768  0.3690 -0.6756
    3MOL0     H  363   3.100   6.150  11.673 -0.9640  0.1163 -0.5623
    3MOL0     H  364   3.113   6.264  11.807  1.2517 -1.0878 -0.6878
    3MOL0     H  365   3.292   6.297  11.666  1.9568 -0.3370  0.4452
    3MOL0     H  366   3.446   6.406  11.550  0.1638  2.8390  0.3000
    3MOL0     H  367   3.634   6.711  11.251 -0.3620 -1.0475 -1.0793
    3MOL0     H  368   3.764   6.903  11.170  0.0520 -1.1521  0.3339
    3MOL0     H  369   3.698   7.237  10.888 -0.3940  0.7551 -0.1158
    3MOL0     H  370   3.536   7.147  10.874 -3.3249  1.2776  2.6392
    3MOL0     H  371   3.485   7.254  11.118 -0.3574 -0.8267 -1.6402
    3MOL0     H  372   3.619   7.361  11.084 -0.4982 -0.8008  2.2949
    3MOL0     H  373   3.517   7.452  10.897  1.4141  0.0761  1.0581
    3MOL0     H  374   3.374   7.348  10.910 -3.5021  1.3032  2.4499
    3MOL0     H  375   3.415   7.599  11.063  0.5336 -0.5258  0.4829
    3MOL0     H  376   3.352   7.451  11.144  2.4291  0.1204  0.5433
    3MOL0     H  377   3.178   7.519  10.904  0.4360  0.9335  0.2706
    3MOL0     H  378   3.165   7.618  11.028  0.3896 -0.2204  1.3115
    3MOL0     H  379   3.130   7.404  11.180 -0.7141  0.2619 -0.3777
    3MOL0     H  380   3.009   7.445  11.069 -1.0821 -3.1240  0.4304
    3MOL0     H  381   3.207   7.233  10.960  0.1647  0.5991 -1.4059
    3MOL0     H  382   3.038   7.281  10.925  2.7390  4.3198 -3.1524
    3MOL0     H  383   3.133   7.144  11.182 -4.0602 -0.5745  3.0762
    3MOL0     H  384   2.968   7.181  11.140 -1.4956 -1.7139 -3.6484
    3MOL0     H  385   3.390   7.068  11.021 -3.3720  0.3732  1.7310
    3MOL0     H  386   3.258   6.900  11.150 -0.6947  0.3718 -3.8713
    3MOL0     H  387   3.133   6.663  11.377 -2.9474 -1.0018 -0.3856
    3MOL0     H  388   2.965   6.527  11.504 -1.2685 -0.7836  6.3452
    3MOL0     H  389   4.066   5.652  11.499 -0.1424  0.0068 -1.6189
    3MOL0     H  390   4.017   5.422  11.568  2.8516  2.1151 -0.9159
    3MOL0     H  391   3.630   5.132  11.604  2.1648  1.9626 -0.6559
    3MOL0     H  392   3.572   4.927  11.690  0.4190  0.5113 -1.0383
    3MOL0     H  393   3.504   4.711  11.586  0.4836 -1.5627 -0.4258
    3MOL0     H  394   3.535   4.634  11.741 -0.4798  0.6373  1.4415
    3MOL0     H  395   3.414   4.495  11.565 -0.6564  4.6078 -0.7875
    3MOL0     H  396   3.554   4.409  11.626 -2.3374 -0.2827  1.7627
    3MOL0     H  397   3.535   4.377  11.388 -0.4880  0.6399 -1.7066
    3MOL0     H  398   3.671   4.504  11.394 -0.3149  2.1514 -0.7333
    3MOL0     H  399   3.474   4.664  11.338  3.6800  0.5921 -0.1866
    3MOL0     H  400   3.524   4.561  11.210  1.2840 -1.4045  2.2903
    3MOL0     H  401   3.111   4.480  11.288 -0.0245  0.2179 -1.1776
    3MOL0     H  402   3.840   4.730  11.413 -1.3845  0.3056 -2.5391
    3MOL0     H  403   3.975   5.028  11.260  0.2394 -0.1791 -0.1229
    3MOL0     H  404   3.986   4.853  11.272  1.1715  0.9903 -0.1698
    3MOL0     H  405   3.856   4.925  11.177  0.7094 -0.0047 -0.4515
    4MOL0     O  406   5.651  11.515   3.467 -0.2156 -0.6600  0.5491
    4MOL0     C  407   5.682  11.553   3.351  0.6580 -0.4554 -1.4320
    4MOL0     O  408   5.674  11.477   3.243 -0.2504  0.1923  0.0351
    4MOL0     C  409   5.580  11.371   3.236  0.0526 -0.0907  0.0432
    4MOL0     C  410   5.599  11.255   3.164  0.4258 -0.3523  0.2179
    4MOL0     C  411   5.495  11.164   3.143  0.0824 -0.1563  0.3043
    4MOL0     C  412   5.373  11.183   3.204  0.6433 -0.1626 -0.3247
    4MOL0     O  413   5.264  11.100   3.173 -0.5185  0.0406  0.0629
    4MOL0     C  414   5.285  10.961   3.208 -0.5199  0.4629  0.7016
    4MOL0     C  415   5.241  10.933   3.352  0.2116 -0.3530  1.1626
    4MOL0     C  416   5.106  10.980   3.400  0.7625 -0.8133  0.1246
    4MOL0     C  417   4.990  10.903   3.334 -0.6930 -0.2090  0.2241
    4MOL0     C  418   4.853  10.953   3.378  0.0641 -0.3682 -0.4484
    4MOL0     C  419   4.718  10.900   3.311 -0.7243 -0.5549 -0.1409
    4MOL0     C  420   4.725  10.745   3.298  0.2011 -0.2250 -0.3675
    4MOL0     C  421   4.594  10.682   3.262  1.3397 -0.3134  0.0495
    4MOL0     N  422   4.602  10.543   3.232 -0.1252  0.7175  0.8697
    4MOL0     C  423   4.510  10.447   3.284 -0.6995  0.4037  0.8570
    4MOL0     C  424   4.558  10.326   3.240  0.8891  0.1675  0.4798
    4MOL0     C  425   4.475  10.202   3.276  0.2886  0.3735 -1.2069
    4MOL0     C  426   4.400  10.141   3.163  0.9441 -0.3377  0.2369
    4MOL0     C  427   4.360   9.999   3.193 -1.0392  0.5843  0.2306
    4MOL0     C  428   4.287   9.971   3.334 -0.7485 -1.0498  0.0802
    4MOL0     O  429   4.158  10.025   3.332  0.4545  0.6184  0.6141
    4MOL0     C  430   4.064   9.982   3.427  0.2726 -0.3915  0.2261
    4MOL0     C  431   3.941   9.949   3.382 -0.7290  0.1332  0.5629
    4MOL0     C  432   3.838   9.909   3.467 -0.7183  0.1440 -0.2574
    4MOL0     C  433   3.864   9.879   3.610  0.2035 -0.4776  0.4452
    4MOL0     C  434   3.765   9.820   3.702  0.2549 -0.0083  0.3007
    4MOL0     O  435   3.663   9.750   3.642 -0.0747 -0.0655 -0.3105
    4MOL0     C  436   3.569   9.675   3.699  0.4583 -1.0653 -0.4517
    4MOL0     C  437   3.546   9.664   3.842  0.1782 -0.1220  0.5407
    4MOL0     C  438   3.459   9.570   3.889 -0.9061  0.3744  0.4617
    4MOL0     C  439   3.396   9.481   3.798  0.4279  0.2849 -0.7757
    4MOL0     O  440   3.286   9.414   3.855  0.1801  0.2188 -0.4856
    4MOL0     C  441   3.196   9.329   3.776  0.8861  0.1499 -0.8486
    4MOL0     C  442   3.114   9.262   3.882 -0.2868  0.0249  0.5971
    4MOL0     C  443   3.003   9.351   3.942  0.0002  0.1585  0.2528
    4MOL0     C  444   2.908   9.280   4.045 -0.6169  0.1203  0.3890
    4MOL0     C  445   2.841   9.381   4.127  1.0456 -0.0252 -0.1302
    4MOL0     C  446   2.715   9.439   4.069 -0.0978 -0.5891  0.3948
    4MOL0     C  447   2.642   9.528   4.168 -0.0668 -0.7848  1.1467
    4MOL0     C  448   2.510   9.571   4.130 -0.8268 -0.4570  0.1043
    4MOL0    Cl  449   2.457   9.706   4.242 -0.3383  0.0828 -0.3671
    4MOL0     C  450   3.424   9.475   3.668 -0.5446  0.7899 -0.0611
    4MOL0     C  451   3.513   9.574   3.617 -0.2686  0.2388  0.1655
    4MOL0     O  452   3.774   9.851   3.823 -0.9662  0.1199 -0.4242
    4MOL0     C  453   3.994   9.912   3.655  0.4828  0.1342 -0.8410
    4MOL0     C  454   4.097   9.944   3.557  0.4160  1.1336 -0.1625
    4MOL0     N  455   4.665  10.349   3.151  0.9422 -0.2430  1.0001
    4MOL0     N  456   4.685  10.476   3.144 -0.4705 -0.1480  0.2645
    4MOL0     C  457   5.357  11.299   3.272 -0.5902  0.2676 -0.5220
    4MOL0     C  458   5.458  11.383   3.304 -0.4139 -0.0616 -0.7867
    4MOL0     C  459   5.739  11.692   3.318  0.0578 -0.4846 -0.8146
    4MOL0     C  460   5.846  11.691   3.230  0.7815 -1.0790  1.0080
    4MOL0     C  461   5.904  11.811   3.197 -0.8173 -0.1008 -0.5751
    4MOL0     C  462   5.862  11.936   3.253 -0.2765  0.3158 -0.0052
    4MOL0     O  463   5.919  12.051   3.212 -0.2772  0.2809 -0.5190
    4MOL0     C  464   5.990  12.131   3.309 -0.5526  0.3026  0.3355
    4MOL0     C  465   6.082  12.227   3.227  0.2334  0.1783 -0.6529
    4MOL0     C  466   5.996  12.350   3.200 -0.1399  0.6754 -1.2544
    4MOL0     C  467   6.033  12.417   3.062 -0.6214  0.1271 -0.2778
    4MOL0     C  468   6.180  12.433   3.045 -0.1571  0.4790 -0.6583
    4MOL0     C  469   6.298  12.452   3.022  0.2946 -0.5635  0.0232
    4MOL0     C  470   5.750  11.937   3.336  0.3845 -0.2958 -0.5403
    4MOL0     C  471   5.690  11.812   3.375 -0.1425  0.8219 -0.4816
    4MOL0     C  472   5.588  11.815   3.486 -0.3101 -0.6232  0.0622
    4MOL0     H  473   5.694  11.227   3.120  0.2715 -2.4513  1.1102
    4MOL0     H  474   5.504  11.078   3.077  0.4256  1.0616 -1.2810
    4MOL0     H  475   5.223  10.903   3.139  0.0943 -0.1792  0.6785
    4MOL0     H  476   5.384  10.918   3.193 -1.6916 -1.6469 -1.9497
    4MOL0     H  477   5.318  10.970   3.421 -0.4766  2.8716  0.3622
    4MOL0     H  478   5.264  10.827   3.365  0.0191 -0.2002  3.0956
    4MOL0     H  479   5.102  11.087   3.378  0.2857 -1.0484 -1.0411
    4MOL0     H  480   5.093  10.967   3.508 -0.4307  1.9229  0.3993
    4MOL0     H  481   4.994  10.921   3.226 -0.1683  1.1048  0.4386
    4MOL0     H  482   5.004  10.798   3.362  1.5531  0.0778  0.3245
    4MOL0     H  483   4.848  10.945   3.487 -0.7330  1.0172 -0.3692
    4MOL0     H  484   4.871  11.059   3.361  0.3551 -0.1704  0.9770
    4MOL0     H  485   4.639  10.921   3.384  0.0020 -2.1531  1.1828
    4MOL0     H  486   4.709  10.950   3.215 -0.1031 -0.2968 -0.0683
    4MOL0     H  487   4.761  10.714   3.397  1.4409  1.2174 -0.3352
    4MOL0     H  488   4.803  10.736   3.222  1.6510  0.4748  0.9901
    4MOL0     H  489   4.519  10.712   3.336  3.4923  0.5113  2.0105
    4MOL0     H  490   4.551  10.738   3.179 -1.2568  0.4784  1.7929
    4MOL0     H  491   4.419  10.456   3.342 -0.3959 -1.8611  1.7544
    4MOL0     H  492   4.546  10.138   3.329  1.1886  1.0944 -1.5161
    4MOL0     H  493   4.399  10.219   3.354  0.5122  0.9869 -1.1129
    4MOL0     H  494   4.303  10.182   3.132  1.1103 -2.6375 -4.1739
    4MOL0     H  495   4.458  10.136   3.070 -0.5855  1.5773 -0.9149
    4MOL0     H  496   4.454   9.946   3.211  0.5350  2.3849 -2.0647
    4MOL0     H  497   4.317   9.941   3.111  1.4431  0.2330 -0.9153
    4MOL0     H  498   4.330  10.027   3.417 -1.4654 -0.1904 -0.1104
    4MOL0     H  499   4.298   9.865   3.356  1.8737 -1.3370 -2.1378
    4MOL0     H  500   3.914   9.980   3.281 -0.4246  3.2923  1.3448
    4MOL0     H  501   3.737   9.896   3.430 -1.7357 -0.5901  2.5205
    4MOL0     H  502   3.592   9.730   3.915 -1.2689 -1.1408  2.4561
    4MOL0     H  503   3.430   9.546   3.991 -1.9302 -1.9428 -0.2972
    4MOL0     H  504   3.133   9.385   3.706 -0.4026 -0.5038 -0.2585
    4MOL0     H  505   3.243   9.253   3.714 -1.1561 -0.2400 -2.0312
    4MOL0     H  506   3.055   9.191   3.823  1.5739  2.5083 -4.9770
    4MOL0     H  507   3.175   9.205   3.952  1.3492 -0.9775 -1.5211
    4MOL0     H  508   3.044   9.441   3.989 -1.1162  2.5702 -3.0130
    4MOL0     H  509   2.945   9.401   3.864  1.1649 -0.7694 -1.2707
    4MOL0     H  510   2.966   9.213   4.110  2.1580  2.0002  0.0410
    4MOL0     H  511   2.846   9.220   3.978 -0.4417 -0.1672  0.4839
    4MOL0     H  512   2.910   9.463   4.147  1.7303  0.2130 -2.9994
    4MOL0     H  513   2.821   9.336   4.225 -0.1992 -2.8773 -1.5702
    4MOL0     H  514   2.724   9.491   3.973 -2.7461  0.6950  0.7524
    4MOL0     H  515   2.648   9.359   4.038 -3.8581  3.3142 -2.7445
    4MOL0     H  516   2.699   9.621   4.172 -0.3391 -0.4785 -0.8212
    4MOL0     H  517   2.628   9.481   4.266  0.6460 -1.1018  1.0995
    4MOL0     H  518   2.516   9.605   4.026 -1.6362  0.7233  0.4128
    4MOL0     H  519   2.434   9.493   4.143 -2.2052  0.7821 -0.2178
    4MOL0     H  520   3.372   9.417   3.593  1.1788  0.8123 -1.3359
    4MOL0     H  521   3.526   9.580   3.510 -1.9318  1.3537 -0.0174
    4MOL0     H  522   4.011   9.883   3.758  3.6214  1.2981 -0.9386
    4MOL0     H  523   4.194   9.967   3.600 -0.0363 -1.5696  2.7440
    4MOL0     H  524   5.255  11.320   3.303  0.0107  2.4786  0.1369
    4MOL0     H  525   5.429  11.464   3.370 -2.1327  0.8747 -2.5914
    4MOL0     H  526   5.886  11.602   3.184  0.7077 -0.3276 -0.5855
    4MOL0     H  527   5.985  11.795   3.126  1.2005 -1.5626  1.8735
    4MOL0     H  528   6.060  12.088   3.382  4.0575  2.1421 -2.5382
    4MOL0     H  529   5.916  12.189   3.365  0.6274  3.2041 -0.9176
    4MOL0     H  530   6.125  12.184   3.136  3.0670 -0.2284  0.7582
    4MOL0     H  531   6.164  12.252   3.295  0.5494 -1.4394 -0.3902
    4MOL0     H  532   6.003  12.419   3.284  2.2382 -0.8696 -0.0865
    4MOL0     H  533   5.893  12.312   3.198  0.2054 -0.4633  0.4914
    4MOL0     H  534   5.988  12.349   2.989 -0.7169  2.3180 -2.3532
    4MOL0     H  535   5.990  12.516   3.048 -0.2680  0.6943  2.1866
    4MOL0     H  536   6.403  12.472   3.020  0.1851  0.0804  0.5899
    4MOL0     H  537   5.731  12.033   3.384  1.7746  0.2601 -1.0331
    4MOL0     H  538   5.484  11.812   3.452 -0.4350 -1.8915  0.5248
    4MOL0     H  539   5.620  11.750   3.567  4.6378  2.2105  0.7977
    4MOL0     H  540   5.579  11.919   3.520 -1.0526 -0.2170 -1.2834
    5MOL0     O  541   9.261   1.503   3.431 -0.5517 -0.0978 -0.3635
    5MOL0     C  542   9.296   1.553   3.544 -0.0503  0.6550 -1.0968
    5MOL0     O  543   9.421   1.553   3.602  0.5166  0.1387  0.5913
    5MOL0     C  544   9.497   1.453   3.542  1.3951  0.2067  0.2558
    5MOL0     C  545   9.508   1.326   3.601 -0.1355  0.6104 -0.6915
    5MOL0     C  546   9.600   1.236   3.551  0.6314 -0.2060  0.6032
    5MOL0     C  547   9.679   1.271   3.440 -0.1899 -0.5192  0.4845
    5MOL0     O  548   9.751   1.171   3.374 -1.1827  0.8337  0.5052
    5MOL0     C  549   9.734   1.163   3.231  0.0488 -0.0564 -0.1971
    5MOL0     C  550   9.829   1.067   3.182 -0.3476 -0.3204 -0.9177
    5MOL0     C  551   9.843   1.062   3.033  0.5232 -0.5494  0.1931
    5MOL0     C  552   9.884   1.190   2.966  0.3261 -0.2074  0.6912
    5MOL0     C  553   9.979   1.161   2.849 -0.2463  0.5861  1.5337
    5MOL0     C  554  10.046   1.286   2.782 -0.2296  0.1216  0.3698
    5MOL0     C  555  10.141   1.359   2.877 -0.4086  0.0907 -0.3649
    5MOL0     C  556  10.255   1.444   2.809  0.4702  0.5556  0.6009
    5MOL0     N  557  10.316   1.527   2.915  1.1014 -0.2162  0.6655
    5MOL0     C  558  10.249   1.643   2.967  0.0863 -0.1489  0.1737
    5MOL0     C  559  10.334   1.673   3.077  0.5522 -0.5212  0.1553
    5MOL0     C  560  10.308   1.789   3.173 -0.5416 -0.2193  0.5159
    5MOL0     C  561  10.403   1.914   3.150  0.0907 -0.6164  0.3641
    5MOL0     C  562  10.380   1.996   3.025 -0.0368 -0.3865 -0.0287
    5MOL0     C  563  10.228   2.036   3.016 -0.8032  0.2301 -0.5678
    5MOL0     O  564  10.154   2.069   3.135  1.1843  0.3923  0.3891
    5MOL0     C  565  10.023   2.122   3.113 -0.4312 -0.0486  0.1553
    5MOL0     C  566   9.960   2.110   2.985 -0.6019  0.4000  0.1993
    5MOL0     C  567   9.826   2.139   2.967  0.0265  0.2841 -0.4727
    5MOL0     C  568   9.764   2.216   3.067  1.3046  0.0008  0.3016
    5MOL0     C  569   9.612   2.260   3.037 -0.0584 -0.4586 -0.2693
    5MOL0     O  570   9.533   2.288   3.137  0.1579  0.2722 -0.3951
    5MOL0     C  571   9.399   2.307   3.109 -0.8473  0.8771  0.0163
    5MOL0     C  572   9.306   2.201   3.141 -1.3122  0.0612 -0.3322
    5MOL0     C  573   9.168   2.227   3.132  0.1143 -0.1248 -0.5610
    5MOL0     C  574   9.121   2.353   3.098 -1.2304 -0.0788 -0.3667
    5MOL0     O  575   8.990   2.395   3.123  0.4442 -0.1139 -0.2722
    5MOL0     C  576   8.927   2.486   3.021 -0.4233  1.3483 -0.1074
    5MOL0     C  577   8.785   2.466   3.023  0.3798  0.0748 -0.8635
    5MOL0     C  578   8.736   2.321   2.995  0.2546  0.2355  0.2049
    5MOL0     C  579   8.578   2.309   2.982 -0.5024 -0.9890 -0.2633
    5MOL0     C  580   8.531   2.174   2.929 -0.8936  0.0311  0.2625
    5MOL0     C  581   8.377   2.156   2.917  0.1289 -1.2410  1.5984
    5MOL0     C  582   8.307   2.159   3.050  0.3628 -0.2934  0.0881
    5MOL0     C  583   8.171   2.092   3.072  0.2164  0.6334  0.6256
    5MOL0    Cl  584   8.164   1.966   3.197 -0.6924 -0.0111  0.4207
    5MOL0     C  585   9.213   2.452   3.049 -0.2311  0.6528 -0.8947
    5MOL0     C  586   9.349   2.424   3.070 -0.1049 -0.2465 -0.0079
    5MOL0     O  587   9.582   2.254   2.918 -0.6202 -0.1480 -0.9544
    5MOL0     C  588   9.832   2.244   3.185  0.5334 -0.8233 -0.5111
    5MOL0     C  589   9.961   2.191   3.210 -0.7989 -0.9593  0.0123
    5MOL0     N  590  10.441   1.587   3.078  0.4248  1.1231 -1.1909
    5MOL0     N  591  10.418   1.495   2.987 -0.2414  0.0214 -0.6316
    5MOL0     C  592   9.659   1.398   3.384 -0.7076  0.2982 -0.7806
    5MOL0     C  593   9.559   1.483   3.425 -0.3969 -0.6858 -0.0394
    5MOL0     C  594   9.193   1.622   3.617 -0.7344 -0.3346  0.2841
    5MOL0     C  595   9.234   1.723   3.700  0.5936  0.2605  0.5861
    5MOL0     C  596   9.145   1.823   3.743  0.1695 -0.1628 -0.6980
    5MOL0     C  597   9.005   1.810   3.718  0.4416 -0.6080  0.1929
    5MOL0     O  598   8.899   1.901   3.749 -0.3647  0.8460 -0.2676
    5MOL0     C  599   8.920   2.042   3.768 -0.2661  0.1676  0.1469
    5MOL0     C  600   8.794   2.096   3.819 -0.1538 -0.3971  0.0551
    5MOL0     C  601   8.680   2.071   3.720  0.6377 -0.9346 -0.4868
    5MOL0     C  602   8.549   2.070   3.789 -1.4763 -0.4606 -0.8971
    5MOL0     C  603   8.523   2.201   3.862 -0.1036 -0.5597 -0.1679
    5MOL0     C  604   8.489   2.312   3.907  0.0719 -0.3148 -0.3676
    5MOL0     C  605   8.967   1.698   3.653 -0.8272  0.4276 -0.5194
    5MOL0     C  606   9.058   1.601   3.604 -0.2692  0.1223 -0.0308
    5MOL0     C  607   9.005   1.479   3.536  0.3624  0.1722 -0.2599
    5MOL0     H  608   9.440   1.279   3.672  1.7286  3.6166  3.4961
    5MOL0     H  609   9.612   1.137   3.595 -0.4839 -0.4313  0.4252
    5MOL0     H  610   9.634   1.121   3.217  1.7239 -4.3717 -0.7302
    5MOL0     H  611   9.728   1.254   3.171 -0.4620 -1.6993 -2.7474
    5MOL0     H  612   9.804   0.973   3.232  2.1048  0.7127  2.5841
    5MOL0     H  613   9.931   1.079   3.218  0.5648  2.2563 -3.8648
    5MOL0     H  614   9.757   1.027   2.975 -0.3918  2.5549 -0.4925
    5MOL0     H  615   9.907   0.979   3.000 -1.3199 -1.4004 -1.4714
    5MOL0     H  616   9.806   1.260   2.935  1.6026  0.4580 -1.2519
    5MOL0     H  617   9.938   1.258   3.033  3.3872 -0.0282 -1.7094
    5MOL0     H  618  10.059   1.092   2.879 -0.8892  0.5223  3.1974
    5MOL0     H  619   9.927   1.099   2.775  4.2474 -3.8325  1.4827
    5MOL0     H  620  10.088   1.250   2.688  0.0169  1.5590 -0.0859
    5MOL0     H  621   9.959   1.344   2.751  0.7352 -0.2835 -3.6757
    5MOL0     H  622  10.188   1.294   2.951 -3.0685 -0.6130  0.7996
    5MOL0     H  623  10.092   1.426   2.948 -2.5193 -0.4315 -1.2635
    5MOL0     H  624  10.319   1.372   2.758 -1.5387 -1.0710  0.2399
    5MOL0     H  625  10.203   1.505   2.734 -0.4102  0.5917  1.2329
    5MOL0     H  626  10.161   1.688   2.922 -0.6227 -3.3340 -1.9469
    5MOL0     H  627  10.207   1.826   3.155  0.2707  1.8030 -0.2223
    5MOL0     H  628  10.313   1.761   3.279 -1.9465  1.3436  1.0528
    5MOL0     H  629  10.394   1.986   3.231  4.7675  1.3525 -0.5309
    5MOL0     H  630  10.508   1.882   3.144 -0.2211 -1.7931  0.8740
    5MOL0     H  631  10.407   1.940   2.935 -1.2463  0.6505 -1.0801
    5MOL0     H  632  10.438   2.089   3.022 -1.1207  0.4660  3.0327
    5MOL0     H  633  10.180   1.947   2.975 -2.0392  0.4727  0.2925
    5MOL0     H  634  10.224   2.109   2.934 -2.3837 -0.5627 -1.2382
    5MOL0     H  635  10.002   2.054   2.902 -0.4409 -1.1203  1.2688
    5MOL0     H  636   9.773   2.122   2.874  1.0462  0.5367 -1.1063
    5MOL0     H  637   9.348   2.112   3.187 -1.9045  0.5104  1.1296
    5MOL0     H  638   9.103   2.153   3.178 -0.5389  1.1196  0.5886
    5MOL0     H  639   8.957   2.589   3.040  0.4912  1.0625  0.0699
    5MOL0     H  640   8.951   2.467   2.916  1.3245  2.9770 -0.0640
    5MOL0     H  641   8.757   2.489   3.126 -1.8478 -0.8814 -1.1891
    5MOL0     H  642   8.728   2.539   2.965 -5.2383 -0.5834  2.9639
    5MOL0     H  643   8.781   2.284   2.903 -1.1947 -0.2837 -0.3344
    5MOL0     H  644   8.778   2.257   3.073  0.4925 -0.0625 -0.1660
    5MOL0     H  645   8.549   2.387   2.910  1.2161  1.6009  1.6479
    5MOL0     H  646   8.512   2.342   3.062  0.0052  2.7324 -1.1751
    5MOL0     H  647   8.584   2.095   2.982  2.2620 -0.9099 -3.7315
    5MOL0     H  648   8.574   2.162   2.829 -0.2218  0.9112  0.4303
    5MOL0     H  649   8.336   2.230   2.848  1.6716 -0.6102  1.3147
    5MOL0     H  650   8.356   2.059   2.871 -1.9693 -0.4861  0.8729
    5MOL0     H  651   8.292   2.267   3.066 -2.7960 -0.5300 -0.6911
    5MOL0     H  652   8.379   2.120   3.123 -3.0107  1.8045  5.0328
    5MOL0     H  653   8.090   2.165   3.074 -2.1417 -1.4245 -4.1454
    5MOL0     H  654   8.145   2.040   2.979 -0.6674  0.1153  1.1573
    5MOL0     H  655   9.174   2.542   3.003 -2.4437 -0.6064 -1.7009
    5MOL0     H  656   9.412   2.511   3.052 -0.9220  0.1121 -1.2660
    5MOL0     H  657   9.788   2.319   3.250  0.8905  1.5334 -2.8310
    5MOL0     H  658  10.014   2.220   3.300 -0.1411  3.0498 -1.4679
    5MOL0     H  659   9.718   1.427   3.297  0.9063 -2.1656 -0.5995
    5MOL0     H  660   9.552   1.575   3.368  2.8087 -0.8032 -0.8041
    5MOL0     H  661   9.339   1.730   3.730  1.5165  5.7665 -2.5137
    5MOL0     H  662   9.182   1.900   3.811 -0.8987 -0.9600  0.8438
    5MOL0     H  663   8.948   2.076   3.668  0.5152  0.0734  0.3248
    5MOL0     H  664   8.995   2.070   3.843  2.1057  0.1680 -2.0776
    5MOL0     H  665   8.796   2.204   3.837  0.5164 -0.5033  0.6479
    5MOL0     H  666   8.774   2.032   3.906  0.4729  1.7328  1.8788
    5MOL0     H  667   8.692   1.974   3.670  0.6351 -1.3858  0.3593
    5MOL0     H  668   8.693   2.140   3.636 -2.5036 -1.1174 -1.2485
    5MOL0     H  669   8.472   2.046   3.715  1.2770  0.2362 -4.2364
    5MOL0     H  670   8.564   1.994   3.866  2.0966 -0.4825 -1.4375
    5MOL0     H  671   8.454   2.408   3.939  1.9137  0.8804 -1.7652
    5MOL0     H  672   8.861   1.686   3.630 -1.1242  1.9892 -0.0622
    5MOL0     H  673   8.998   1.483   3.427 -1.2713 -4.6470 -0.5754
    5MOL0     H  674   9.069   1.392   3.557  0.7726 -0.7406 -4.3540
    5MOL0     H  675   8.904   1.455   3.570  0.8243  2.0279  2.8006
    6MOL0     O  676  11.375   9.370   2.489  0.0785 -0.4678 -0.1998
    6MOL0     C  677  11.467   9.401   2.415  0.5779  0.3221  0.4168
    6MOL0     O  678  11.546   9.311   2.336 -0.1352 -0.4738 -0.8591
    6MOL0     C  679  11.512   9.177   2.330  0.0562 -0.2513  0.6048
    6MOL0     C  680  11.611   9.087   2.325  0.1163 -0.5020 -0.9660
    6MOL0     C  681  11.584   8.952   2.298 -0.1524 -0.3661 -0.0246
    6MOL0     C  682  11.462   8.909   2.254 -0.4151 -0.0894 -0.3319
    6MOL0     O  683  11.429   8.780   2.234 -0.3494  0.1105  0.1430
    6MOL0     C  684  11.519   8.684   2.175  0.3222  0.3114 -0.9042
    6MOL0     C  685  11.478   8.669   2.031  0.6431  0.6071  0.6101
    6MOL0     C  686  11.340   8.580   2.028 -1.1305 -0.0690 -0.4049
    6MOL0     C  687  11.296   8.538   1.889  0.2508 -0.7195  0.6748
    6MOL0     C  688  11.161   8.462   1.885 -0.6251  0.1649  0.4244
    6MOL0     C  689  11.164   8.339   1.982  0.3541  0.9505 -0.4622
    6MOL0     C  690  11.077   8.227   1.936 -0.1618 -0.7782 -0.0252
    6MOL0     C  691  10.929   8.251   1.953  0.3032  0.5580 -0.7504
    6MOL0     N  692  10.844   8.136   1.916 -0.3503  0.5817 -0.1180
    6MOL0     C  693  10.880   7.998   1.899 -0.5016 -1.2598 -1.1499
    6MOL0     C  694  10.774   7.944   1.839  0.6798  0.0939 -0.0768
    6MOL0     C  695  10.756   7.804   1.783 -0.1609 -0.3251 -0.2087
    6MOL0     C  696  10.666   7.719   1.872 -0.0485 -0.2942 -0.6536
    6MOL0     C  697  10.654   7.573   1.818  0.0648  0.4379 -0.7589
    6MOL0     C  698  10.775   7.487   1.850  0.3065  0.3048  0.6516
    6MOL0     O  699  10.786   7.373   1.763  0.7084 -0.3393 -0.1318
    6MOL0     C  700  10.781   7.252   1.837 -0.3872 -1.2510  1.3565
    6MOL0     C  701  10.894   7.205   1.891 -0.8817 -1.0186 -0.2136
    6MOL0     C  702  10.919   7.075   1.940  1.6374  0.3500  0.6445
    6MOL0     C  703  10.808   6.990   1.944  0.5688  0.1313  0.1110
    6MOL0     C  704  10.828   6.853   2.010  0.2581 -0.0879 -0.4000
    6MOL0     O  705  10.713   6.763   2.015 -0.1017  0.0991 -0.0746
    6MOL0     C  706  10.725   6.641   2.081 -0.4808 -0.2317 -0.4640
    6MOL0     C  707  10.668   6.639   2.208  0.0035 -0.2173  0.6510
    6MOL0     C  708  10.698   6.531   2.295 -0.0335 -0.2889 -0.2268
    6MOL0     C  709  10.759   6.414   2.248  0.6519 -0.6475 -0.8930
    6MOL0     O  710  10.765   6.303   2.331  0.5758  0.2943  0.4588
    6MOL0     C  711  10.875   6.205   2.322 -0.0525 -0.9202  0.8534
    6MOL0     C  712  10.870   6.136   2.456 -0.3107  0.6989 -0.5674
    6MOL0     C  713  10.946   6.209   2.565  0.5056  0.5346 -0.1784
    6MOL0     C  714  10.894   6.165   2.702 -0.7563 -0.1265 -1.1494
    6MOL0     C  715  10.920   6.020   2.751  0.6680  0.5946  0.4435
    6MOL0     C  716  10.840   5.991   2.887 -0.1240  0.6970 -0.8282
    6MOL0     C  717  10.918   5.979   3.009  0.1621  0.2623 -0.2472
    6MOL0     C  718  10.930   6.118   3.073 -0.8853 -0.2540  0.8049
    6MOL0    Cl  719  11.077   6.137   3.182  0.0118  0.0012  0.2691
    6MOL0     C  720  10.819   6.421   2.119  0.6162  0.2267 -0.1698
    6MOL0     C  721  10.807   6.531   2.033 -0.4140  0.1152 -0.5395
    6MOL0     O  722  10.945   6.819   2.030  0.2734  0.3371 -0.1890
    6MOL0     C  723  10.686   7.043   1.888  0.6172 -0.1832 -0.0048
    6MOL0     C  724  10.671   7.173   1.826 -0.3184 -0.0667 -0.1579
    6MOL0     N  725  10.671   8.047   1.826  0.0279  0.0994  0.6685
    6MOL0     N  726  10.714   8.158   1.877  0.7042  0.5329  0.0346
    6MOL0     C  727  11.353   9.000   2.259 -0.1733 -1.0927 -0.1666
    6MOL0     C  728  11.383   9.132   2.291 -1.1771 -0.9013  0.0580
    6MOL0     C  729  11.498   9.548   2.385 -1.0815  1.6909 -0.5175
    6MOL0     C  730  11.540   9.579   2.252  0.5074  0.2230 -0.9467
    6MOL0     C  731  11.576   9.714   2.227 -0.0518 -0.9182 -0.9716
    6MOL0     C  732  11.577   9.813   2.331  0.8828 -0.3250 -0.1372
    6MOL0     O  733  11.602   9.951   2.322 -0.1566  0.4489 -0.6486
    6MOL0     C  734  11.628  10.006   2.192 -0.5282  0.0941  0.2794
    6MOL0     C  735  11.657  10.154   2.196  0.3754  0.3596 -0.1693
    6MOL0     C  736  11.765  10.198   2.098 -0.3836 -0.4858  0.4344
    6MOL0     C  737  11.748  10.339   2.039 -0.4426 -1.0600 -0.3634
    6MOL0     C  738  11.877  10.415   2.019  0.4629  1.0100  0.8569
    6MOL0     C  739  11.975  10.484   2.028 -0.0227  0.0972  0.8013
    6MOL0     C  740  11.544   9.768   2.457  0.9046  0.6181  0.2043
    6MOL0     C  741  11.504   9.641   2.494 -0.1454 -0.1181 -0.3965
    6MOL0     C  742  11.485   9.594   2.636  0.2651  1.5692  0.4864
    6MOL0     H  743  11.718   9.105   2.323  0.2926 -1.4739 -2.8171
    6MOL0     H  744  11.660   8.875   2.294 -0.0251 -0.3219  1.3060
    6MOL0     H  745  11.619   8.727   2.164  0.3892  1.2189  2.2077
    6MOL0     H  746  11.510   8.591   2.232 -1.5612  1.1323  0.2186
    6MOL0     H  747  11.557   8.628   1.968 -1.5729 -0.3009 -1.7759
    6MOL0     H  748  11.441   8.759   1.981 -1.0937 -1.2472 -1.6998
    6MOL0     H  749  11.264   8.631   2.089 -0.2622 -0.9063  1.4551
    6MOL0     H  750  11.348   8.489   2.087  0.0132  2.0924  3.1033
    6MOL0     H  751  11.303   8.620   1.818  0.2903 -1.3810 -0.0985
    6MOL0     H  752  11.374   8.465   1.864  0.1493  0.4920 -3.9059
    6MOL0     H  753  11.080   8.535   1.892 -1.8997 -1.3432  2.6761
    6MOL0     H  754  11.150   8.422   1.784 -0.9090 -0.5734  0.7384
    6MOL0     H  755  11.258   8.284   1.976  0.0102 -0.2902  3.0026
    6MOL0     H  756  11.143   8.372   2.084 -0.7801  2.5502 -1.1782
    6MOL0     H  757  11.102   8.148   2.008 -0.0126  0.0089  0.8075
    6MOL0     H  758  11.106   8.193   1.836  0.0780 -2.2260  0.5016
    6MOL0     H  759  10.909   8.266   2.059 -0.2368  0.0904 -0.7759
    6MOL0     H  760  10.886   8.339   1.905  0.7636  0.4601 -1.3579
    6MOL0     H  761  10.972   7.950   1.930 -0.9748 -1.6066 -0.2376
    6MOL0     H  762  10.723   7.811   1.679  1.8615 -1.4561 -0.9929
    6MOL0     H  763  10.844   7.739   1.781 -0.7930 -1.3606  2.2481
    6MOL0     H  764  10.709   7.714   1.973  0.5543 -4.3734 -0.9288
    6MOL0     H  765  10.567   7.761   1.891  1.0535  1.4788  1.8071
    6MOL0     H  766  10.640   7.560   1.711 -2.2106 -0.8057 -0.3807
    6MOL0     H  767  10.561   7.533   1.860 -0.5238  3.4732  1.1726
    6MOL0     H  768  10.773   7.457   1.955  1.4010  0.6148  0.7660
    6MOL0     H  769  10.862   7.553   1.849  1.1055 -0.7114  0.3544
    6MOL0     H  770  10.986   7.263   1.899 -0.8543 -1.1482  0.4549
    6MOL0     H  771  11.010   7.042   1.990  0.3577 -1.6750  1.8053
    6MOL0     H  772  10.604   6.720   2.242  0.8680  0.6999  0.1513
    6MOL0     H  773  10.657   6.548   2.394 -0.1633  1.2625 -0.5172
    6MOL0     H  774  10.859   6.132   2.243 -0.0369 -1.5704  1.4394
    6MOL0     H  775  10.971   6.255   2.304 -0.3259 -0.3634  0.9340
    6MOL0     H  776  10.767   6.105   2.476  0.5186 -1.0536  1.2408
    6MOL0     H  777  10.914   6.038   2.439 -3.0473 -0.3554 -2.2723
    6MOL0     H  778  11.047   6.170   2.547 -0.1388 -1.0599 -0.4504
    6MOL0     H  779  10.945   6.316   2.543  3.9161  0.6560 -0.3059
    6MOL0     H  780  10.785   6.172   2.696 -1.0187 -1.0568  1.3297
    6MOL0     H  781  10.916   6.239   2.780 -0.9523 -0.4849 -0.7490
    6MOL0     H  782  11.026   6.001   2.766  0.3584 -0.2592  1.7357
    6MOL0     H  783  10.894   5.954   2.668  0.6946  3.2391 -1.8049
    6MOL0     H  784  10.768   6.071   2.909  1.5182  1.8564  0.5706
    6MOL0     H  785  10.795   5.892   2.876  0.7455  0.2002 -0.0448
    6MOL0     H  786  11.019   5.939   3.000  1.4125  3.0749  0.4089
    6MOL0     H  787  10.856   5.910   3.067  0.0984 -2.8992 -3.6846
    6MOL0     H  788  10.945   6.192   2.994 -0.8582 -0.4199  0.6546
    6MOL0     H  789  10.840   6.144   3.129 -0.4835  2.5952  0.2649
    6MOL0     H  790  10.882   6.336   2.095 -1.3709 -0.8063 -2.1746
    6MOL0     H  791  10.855   6.530   1.936  0.0357 -0.0735 -0.3224
    6MOL0     H  792  10.599   6.979   1.890  0.5549 -0.1041 -0.1210
    6MOL0     H  793  10.584   7.216   1.776 -0.0446  2.1022  1.1347
    6MOL0     H  794  11.257   8.970   2.219  0.8009 -1.1718 -2.5917
    6MOL0     H  795  11.301   9.204   2.284  0.0116  0.8270  2.5066
    6MOL0     H  796  11.541   9.502   2.176  2.5219  0.9873 -1.7745
    6MOL0     H  797  11.613   9.741   2.129  1.5225  1.4331  0.1660
    6MOL0     H  798  11.554   9.973   2.119  0.8009 -3.1939  0.2318
    6MOL0     H  799  11.710   9.944   2.155 -1.2356  0.8941 -3.0061
    6MOL0     H  800  11.680  10.199   2.293  0.2039  0.1115 -0.0101
    6MOL0     H  801  11.568  10.189   2.145 -0.8383 -2.6887 -0.3743
    6MOL0     H  802  11.772  10.125   2.017  2.5964  0.5113 -0.3472
    6MOL0     H  803  11.862  10.185   2.148 -1.3991  1.4081  3.1634
    6MOL0     H  804  11.681  10.351   1.953 -0.9948  2.2207  0.3708
    6MOL0     H  805  11.700  10.397   2.119 -2.8837 -1.5986 -1.3487
    6MOL0     H  806  12.053  10.551   2.059 -2.5213  2.5386  2.3109
    6MOL0     H  807  11.557   9.838   2.539 -0.2703 -0.0319  0.9715
    6MOL0     H  808  11.550   9.507   2.649 -0.5935  0.6434 -1.1137
    6MOL0     H  809  11.505   9.667   2.715 -0.3735  0.1097  2.0487
    6MOL0     H  810  11.383   9.564   2.664 -0.1199  4.8518  3.2917
    7MOL0     O  811   1.993   1.684  10.055  0.4727 -0.0708 -0.4474
    7MOL0     C  812   1.915   1.688  10.149 -0.5579  0.2430  0.1214
    7MOL0     O  813   1.850   1.581  10.199 -0.5504 -0.8806  0.5654
    7MOL0     C  814   1.814   1.473  10.123 -0.0448  0.1579 -0.5977
    7MOL0     C  815   1.858   1.348  10.178  0.3443 -0.4541  0.3977
    7MOL0     C  816   1.842   1.231  10.108 -0.1624 -0.3912 -0.6282
    7MOL0     C  817   1.798   1.235   9.976  0.2445  0.0496 -0.7444
    7MOL0     O  818   1.775   1.130   9.891 -0.8467  0.5810 -0.5455
    7MOL0     C  819   1.868   1.012   9.896  0.0091 -0.3260 -1.3271
    7MOL0     C  820   1.866   0.947   9.760 -0.6030 -0.2677 -0.9075
    7MOL0     C  821   1.952   0.834   9.763  0.4196  0.4320 -0.1164
    7MOL0     C  822   2.099   0.863   9.771 -1.2152  0.0328 -0.6002
    7MOL0     C  823   2.178   0.750   9.678 -0.5166  0.9020  0.5262
    7MOL0     C  824   2.231   0.792   9.539  0.2702  0.3283  0.7858
    7MOL0     C  825   2.118   0.838   9.445 -0.6071  0.2815  0.2883
    7MOL0     C  826   2.167   0.822   9.302 -0.7502 -1.5422  0.2915
    7MOL0     N  827   2.071   0.880   9.208  0.4938  0.3063  0.0462
    7MOL0     C  828   2.076   1.003   9.136  0.1191  0.9162 -0.5623
    7MOL0     C  829   1.981   0.999   9.046  0.1360  0.0429  0.5018
    7MOL0     C  830   1.931   1.110   8.952 -0.0653  0.2102 -0.1224
    7MOL0     C  831   1.797   1.091   8.882  0.4934 -0.0451 -0.0984
    7MOL0     C  832   1.778   1.204   8.784  0.0191 -0.3909  0.7932
    7MOL0     C  833   1.821   1.167   8.641  0.3317  0.2654  0.8616
    7MOL0     O  834   1.797   1.281   8.553  0.4373  0.9120  0.1617
    7MOL0     C  835   1.675   1.302   8.500  0.4970 -0.9788  0.0201
    7MOL0     C  836   1.553   1.252   8.534  0.3121  0.4783  0.0799
    7MOL0     C  837   1.427   1.290   8.468  0.7703  0.1376  0.5937
    7MOL0     C  838   1.434   1.377   8.361 -0.9619  0.1280  0.2685
    7MOL0     C  839   1.309   1.416   8.291  0.4342 -1.5405 -0.1821
    7MOL0     O  840   1.197   1.354   8.342 -0.0416 -0.2428 -0.2681
    7MOL0     C  841   1.065   1.396   8.312 -0.2743  0.4730  0.7267
    7MOL0     C  842   0.983   1.372   8.421 -0.1747 -0.4470  0.2861
    7MOL0     C  843   0.847   1.396   8.404  0.5007  0.9214  0.3289
    7MOL0     C  844   0.791   1.430   8.281  0.7874 -1.1120  0.0021
    7MOL0     O  845   0.660   1.470   8.275  0.0587  0.5160 -0.0412
    7MOL0     C  846   0.564   1.365   8.273  0.7151  0.6569 -0.5262
    7MOL0     C  847   0.431   1.404   8.215  0.9980 -0.3228 -0.5966
    7MOL0     C  848   0.363   1.522   8.296 -0.0745  0.9181  0.2131
    7MOL0     C  849   0.294   1.470   8.423  0.5224  1.6481  0.8113
    7MOL0     C  850   0.248   1.591   8.496  0.7093 -0.7382  0.0649
    7MOL0     C  851   0.190   1.525   8.628 -0.0386  0.6530  0.6935
    7MOL0     C  852   0.140   1.635   8.714  0.3322 -0.1775  0.4806
    7MOL0     C  853   0.063   1.582   8.834  0.2756  0.2769 -0.3560
    7MOL0    Cl  854  -0.016   1.706   8.925  0.2552  0.4472  0.0098
    7MOL0     C  855   0.877   1.451   8.171 -0.1028  0.2621  0.6154
    7MOL0     C  856   1.015   1.433   8.181 -0.2965 -0.5010  0.3492
    7MOL0     O  857   1.307   1.509   8.208 -0.4148  0.9653  0.1163
    7MOL0     C  858   1.564   1.412   8.320  0.1617  0.7558 -0.1043
    7MOL0     C  859   1.674   1.373   8.383  0.7680  0.4728  0.2161
    7MOL0     N  860   1.912   0.883   9.072 -0.6479 -1.5240  0.3341
    7MOL0     N  861   1.968   0.816   9.165  0.0835  1.1756  0.1724
    7MOL0     C  862   1.748   1.360   9.925 -0.8355  0.6265  0.7286
    7MOL0     C  863   1.761   1.474  10.000  0.8558 -0.8536  0.1199
    7MOL0     C  864   1.909   1.820  10.231 -0.3797  1.0832  0.6805
    7MOL0     C  865   1.873   1.818  10.365 -0.4822  0.2093 -0.2605
    7MOL0     C  866   1.878   1.936  10.430 -0.1358  0.5152 -0.5461
    7MOL0     C  867   1.899   2.059  10.370 -0.8490  1.0440 -0.9325
    7MOL0     O  868   1.896   2.174  10.449  0.2842 -0.3876 -0.3542
    7MOL0     C  869   1.819   2.284  10.405  0.1413 -0.1823  0.8233
    7MOL0     C  870   1.683   2.286  10.480  0.8907  0.5921 -0.3986
    7MOL0     C  871   1.595   2.405  10.438 -0.1275 -0.6343 -0.6653
    7MOL0     C  872   1.494   2.471  10.534  0.2870 -0.2056 -0.3975
    7MOL0     C  873   1.424   2.587  10.462  0.6759  0.5981 -0.5581
    7MOL0     C  874   1.360   2.662  10.390 -0.1978 -0.9842 -0.3974
    7MOL0     C  875   1.925   2.061  10.238 -0.5358 -0.0397  0.3898
    7MOL0     C  876   1.934   1.944  10.164  0.1154 -0.3618  0.5788
    7MOL0     C  877   1.960   1.949  10.017 -0.8967  0.3990  0.1951
    7MOL0     H  878   1.879   1.341  10.285  2.2706 -2.3386 -0.0079
    7MOL0     H  879   1.878   1.145  10.165  0.3751  0.1369 -0.1524
    7MOL0     H  880   1.972   1.035   9.916  1.0123 -3.5437 -2.1922
    7MOL0     H  881   1.835   0.941   9.973 -1.7808 -1.1300 -2.7549
    7MOL0     H  882   1.900   1.016   9.682  0.3254  0.9583  0.5162
    7MOL0     H  883   1.763   0.912   9.748 -0.6174 -1.5732  2.0984
    7MOL0     H  884   1.923   0.766   9.683 -0.4374 -0.2134  0.7163
    7MOL0     H  885   1.933   0.782   9.858 -1.9749  0.4344 -0.5212
    7MOL0     H  886   2.114   0.967   9.742 -1.0145 -0.2814 -1.6943
    7MOL0     H  887   2.130   0.843   9.874 -0.1195  0.9995 -0.7184
    7MOL0     H  888   2.272   0.724   9.729 -1.0008 -0.9176  0.5366
    7MOL0     H  889   2.113   0.664   9.665  0.4731 -0.1510  2.1678
    7MOL0     H  890   2.310   0.866   9.550  1.1921 -0.3360 -0.9858
    7MOL0     H  891   2.290   0.708   9.499 -0.4020 -0.9688  2.3945
    7MOL0     H  892   2.100   0.944   9.462  0.6981  0.7481 -1.0057
    7MOL0     H  893   2.025   0.782   9.462 -1.4697  0.0236 -4.0458
    7MOL0     H  894   2.257   0.884   9.300 -1.6963 -0.1099  0.3083
    7MOL0     H  895   2.188   0.716   9.286  0.6256 -1.5695  1.9589
    7MOL0     H  896   2.139   1.089   9.158  0.4656  0.2611  1.1870
    7MOL0     H  897   1.921   1.202   9.009 -1.5119  0.1084 -0.1709
    7MOL0     H  898   2.011   1.136   8.882  0.2223  2.6010  0.9921
    7MOL0     H  899   1.797   0.992   8.836  3.3847 -0.3767  0.4403
    7MOL0     H  900   1.736   1.093   8.973  2.9092  1.9606  1.6374
    7MOL0     H  901   1.823   1.298   8.819 -4.1962  1.3063  2.2137
    7MOL0     H  902   1.676   1.241   8.780  0.7962  1.8887  0.3240
    7MOL0     H  903   1.772   1.072   8.616  1.9588 -0.1277 -1.0838
    7MOL0     H  904   1.926   1.135   8.641 -0.8150 -4.5933 -1.9098
    7MOL0     H  905   1.524   1.188   8.617 -2.6739  4.9670  2.9106
    7MOL0     H  906   1.340   1.231   8.492  1.6188 -2.1718 -1.5132
    7MOL0     H  907   0.998   1.328   8.519 -5.8881 -5.5481 -0.4951
    7MOL0     H  908   0.774   1.389   8.485 -1.5803 -0.5625 -1.5660
    7MOL0     H  909   0.602   1.282   8.213  4.4329  0.7792  1.3755
    7MOL0     H  910   0.549   1.334   8.377 -2.9813  0.4419 -0.9662
    7MOL0     H  911   0.452   1.431   8.111  1.0080  2.0968 -0.0452
    7MOL0     H  912   0.360   1.322   8.209 -0.3878  0.8883 -1.4402
    7MOL0     H  913   0.429   1.599   8.337 -0.8173  0.5320  2.2308
    7MOL0     H  914   0.286   1.567   8.232 -3.6719 -1.7078  2.3923
    7MOL0     H  915   0.370   1.419   8.484  1.2554  2.8999  0.9890
    7MOL0     H  916   0.218   1.394   8.402  1.9420  0.3934 -0.0226
    7MOL0     H  917   0.173   1.640   8.433  0.7535 -1.2539 -0.3978
    7MOL0     H  918   0.326   1.667   8.504 -0.4480  0.7470 -1.8892
    7MOL0     H  919   0.106   1.459   8.606 -0.7502  2.3966 -2.4046
    7MOL0     H  920   0.266   1.467   8.681 -1.5783  0.2320  2.5646
    7MOL0     H  921   0.069   1.699   8.660 -1.2802 -2.0128  0.3206
    7MOL0     H  922   0.221   1.690   8.761 -1.4424 -0.1987  3.8906
    7MOL0     H  923  -0.009   1.516   8.784  1.0357 -1.4039  0.6537
    7MOL0     H  924   0.122   1.520   8.902 -0.3567 -0.7205 -0.6815
    7MOL0     H  925   0.818   1.488   8.088 -1.9675 -2.6977  0.5084
    7MOL0     H  926   1.080   1.440   8.094 -0.8074 -0.8287 -0.0663
    7MOL0     H  927   1.570   1.476   8.233  1.5395 -1.0954 -1.4473
    7MOL0     H  928   1.763   1.413   8.336  1.1916  2.2474  2.3369
    7MOL0     H  929   1.723   1.366   9.820  2.2961 -0.3671 -0.1902
    7MOL0     H  930   1.721   1.564   9.955 -0.1373 -0.6982  1.2789
    7MOL0     H  931   1.855   1.734  10.431  0.4895  0.9929  1.0604
    7MOL0     H  932   1.889   1.936  10.538  0.8934  1.9801 -0.6314
    7MOL0     H  933   1.801   2.290  10.297 -0.4353 -1.4340  0.8420
    7MOL0     H  934   1.877   2.369  10.442  1.1453 -1.9777  3.7580
    7MOL0     H  935   1.694   2.298  10.588  2.0129 -2.8450 -0.0137
    7MOL0     H  936   1.623   2.200  10.450 -0.6921  1.6285 -0.2992
    7MOL0     H  937   1.543   2.353  10.357 -0.2878 -2.5211  0.5873
    7MOL0     H  938   1.655   2.482  10.390 -0.5629 -0.3217 -0.7175
    7MOL0     H  939   1.426   2.396  10.574 -0.9992  1.7002  1.1909
    7MOL0     H  940   1.555   2.512  10.616 -0.1984 -1.0923  0.4199
    7MOL0     H  941   1.326   2.732  10.316 -0.3791 -0.2800  0.3307
    7MOL0     H  942   1.950   2.150  10.182 -0.2335 -1.7603 -2.3990
    7MOL0     H  943   2.064   1.919   9.999 -1.0428  0.5362 -0.9352
    7MOL0     H  944   1.889   1.879   9.971  0.6025 -1.3438  0.3877
    7MOL0     H  945   1.940   2.051   9.984 -0.2133  1.3693  2.5416
    8MOL0     O  946   7.638   7.534  11.019  0.5243 -0.7186  1.0472
    8MOL0     C  947   7.642   7.551  10.899  1.4626  0.0025 -0.4362
    8MOL0     O  948   7.728   7.499  10.815  0.1152  0.6633  0.1558
    8MOL0     C  949   7.804   7.397  10.866 -0.1990 -0.0281 -0.2012
    8MOL0     C  950   7.760   7.263  10.856 -0.2074 -0.2522 -0.1692
    8MOL0     C  951   7.829   7.162  10.924  0.1589 -0.8141  0.6190
    8MOL0     C  952   7.950   7.186  10.989  0.4644 -0.2115 -0.5814
    8MOL0     O  953   8.010   7.079  11.048 -0.4321  0.1270  0.2941
    8MOL0     C  954   8.130   7.088  11.123  0.3559 -0.7978 -0.3250
    8MOL0     C  955   8.110   7.124  11.272  0.4770  0.9928  0.0161
    8MOL0     C  956   8.025   7.005  11.331 -0.0537 -1.1365  0.2001
    8MOL0     C  957   8.067   6.859  11.309 -0.4036  0.3261  0.2166
    8MOL0     C  958   7.978   6.750  11.389  0.5031 -0.6328 -0.6089
    8MOL0     C  959   7.827   6.773  11.375  0.3328 -1.0402 -0.3120
    8MOL0     C  960   7.778   6.796  11.230 -0.2454  0.1861 -0.2496
    8MOL0     C  961   7.640   6.868  11.223  1.0305  0.2251 -0.3443
    8MOL0     N  962   7.529   6.815  11.303 -1.0021  1.3681 -0.8859
    8MOL0     C  963   7.448   6.708  11.265  0.0575 -0.6283 -0.3518
    8MOL0     C  964   7.351   6.702  11.362  0.9856  0.6376  0.8163
    8MOL0     C  965   7.222   6.616  11.350  0.5447 -0.5115  0.1476
    8MOL0     C  966   7.251   6.482  11.409 -0.7090  0.8982  0.4614
    8MOL0     C  967   7.137   6.388  11.451 -0.8436 -0.2164  0.8091
    8MOL0     C  968   7.068   6.328  11.329 -0.9623 -0.1551 -1.1523
    8MOL0     O  969   6.954   6.256  11.371  0.0377  0.0807  0.5995
    8MOL0     C  970   6.881   6.202  11.263 -0.3790  0.4349 -0.9316
    8MOL0     C  971   6.874   6.064  11.255 -0.6947 -0.4430  0.4453
    8MOL0     C  972   6.799   6.011  11.150 -0.5228  0.4785 -0.5683
    8MOL0     C  973   6.732   6.086  11.058  0.1265 -0.3142  0.8134
    8MOL0     C  974   6.645   6.026  10.956  1.7937 -0.8804  0.7360
    8MOL0     O  975   6.581   6.103  10.860 -0.3820  0.7556 -0.1516
    8MOL0     C  976   6.546   6.050  10.739  0.1380  0.7301  0.7252
    8MOL0     C  977   6.634   5.999  10.644 -0.5150  0.1099  0.3951
    8MOL0     C  978   6.586   5.940  10.522 -0.1345 -0.8591 -0.6413
    8MOL0     C  979   6.451   5.950  10.487 -0.2209  0.3670 -0.8663
    8MOL0     O  980   6.407   5.871  10.390  0.2994  0.1467  0.7992
    8MOL0     C  981   6.273   5.825  10.400 -0.1885  0.0491  0.1875
    8MOL0     C  982   6.237   5.785  10.259  0.0174  0.0558 -0.2942
    8MOL0     C  983   6.110   5.697  10.289  0.0332  0.4420 -0.3618
    8MOL0     C  984   6.076   5.623  10.154 -0.7104  0.2657 -0.2732
    8MOL0     C  985   5.959   5.520  10.163  0.0820  1.5282  1.1541
    8MOL0     C  986   5.925   5.463  10.017  0.6653  0.1612 -0.4483
    8MOL0     C  987   5.812   5.363  10.022 -1.1725  0.3788  0.4538
    8MOL0     C  988   5.791   5.321   9.873 -0.5744  0.2431  0.1795
    8MOL0    Cl  989   5.913   5.199   9.834  0.4101  0.1670  0.4080
    8MOL0     C  990   6.361   6.023  10.573 -0.6457 -0.4075  0.7369
    8MOL0     C  991   6.410   6.071  10.698  0.1604  0.1122 -0.0797
    8MOL0     O  992   6.633   5.906  10.960 -0.4287 -0.4909  0.1984
    8MOL0     C  993   6.730   6.228  11.076 -0.4453  0.0987  0.1242
    8MOL0     C  994   6.807   6.284  11.173 -0.3454  0.3560 -0.3960
    8MOL0     N  995   7.370   6.797  11.455 -0.8650 -0.5754 -0.3831
    8MOL0     N  996   7.483   6.863  11.423  0.3480  0.6287 -0.2290
    8MOL0     C  997   7.989   7.316  11.002 -0.1214 -0.8786 -0.2269
    8MOL0     C  998   7.922   7.420  10.946  0.2630  0.0526  1.2385
    8MOL0     C  999   7.530   7.636  10.837 -0.2709 -0.2097  1.0758
    8MOL0     C 1000   7.538   7.656  10.695 -0.4932 -0.4133  0.3087
    8MOL0     C 1001   7.439   7.726  10.631  0.0336  0.3123  0.0337
    8MOL0     C 1002   7.341   7.798  10.703 -0.0378 -1.6551 -0.3399
    8MOL0     O 1003   7.250   7.860  10.628  0.1529  0.4045  0.1255
    8MOL0     C 1004   7.114   7.846  10.662 -0.6646  0.1608  0.6236
    8MOL0     C 1005   7.054   7.720  10.721  0.1235  0.1227  1.2947
    8MOL0     C 1006   6.902   7.718  10.696 -0.7163 -0.0967  0.3642
    8MOL0     C 1007   6.842   7.582  10.744 -0.5275 -0.6463 -0.6034
    8MOL0     C 1008   6.892   7.450  10.699  0.1195  0.1014  0.2972
    8MOL0     C 1009   6.918   7.339  10.665  0.3292  0.0770 -0.3219
    8MOL0     C 1010   7.333   7.788  10.839 -0.1462 -0.5528  0.4489
    8MOL0     C 1011   7.423   7.701  10.911  0.7884  1.1456  0.2167
    8MOL0     C 1012   7.436   7.735  11.062  0.2204  1.0795 -0.5463
    8MOL0     H 1013   7.662   7.250  10.811  0.0687 -2.6553 -0.1834
    8MOL0     H 1014   7.781   7.064  10.921  2.1239 -1.8450 -2.3947
    8MOL0     H 1015   8.180   6.991  11.126  0.1205 -0.9198 -0.3677
    8MOL0     H 1016   8.200   7.164  11.085  0.7899  0.3977  2.5766
    8MOL0     H 1017   8.057   7.219  11.285 -1.2730  0.1570 -0.6208
    8MOL0     H 1018   8.208   7.137  11.318 -0.1551 -4.1038  3.6752
    8MOL0     H 1019   7.924   7.013  11.290  1.2222 -2.4684 -3.6687
    8MOL0     H 1020   8.025   7.034  11.436  0.1752  1.4526 -0.4399
    8MOL0     H 1021   8.057   6.838  11.202 -0.9187  1.0912  0.1045
    8MOL0     H 1022   8.170   6.856  11.346 -1.1583 -2.0133  2.4102
    8MOL0     H 1023   8.009   6.649  11.359  0.7223 -1.2816  1.6480
    8MOL0     H 1024   7.996   6.750  11.496 -1.4473 -2.8980 -0.2036
    8MOL0     H 1025   7.772   6.696  11.429 -0.4601  1.2254  2.3605
    8MOL0     H 1026   7.796   6.868  11.420 -2.8558 -2.1583  0.1314
    8MOL0     H 1027   7.751   6.702  11.181 -1.6325  1.8695 -2.9543
    8MOL0     H 1028   7.837   6.866  11.170 -0.9106 -0.1147 -1.2701
    8MOL0     H 1029   7.650   6.973  11.249  1.6203 -0.0127  0.4087
    8MOL0     H 1030   7.608   6.869  11.118  0.2114 -1.8386 -0.1597
    8MOL0     H 1031   7.444   6.652  11.173  0.1971 -0.9593 -0.1599
    8MOL0     H 1032   7.152   6.675  11.410  1.6437  0.8443  0.1579
    8MOL0     H 1033   7.196   6.618  11.244 -2.5862  0.3408  0.8358
    8MOL0     H 1034   7.299   6.421  11.331  1.5864  4.0451 -0.8284
    8MOL0     H 1035   7.324   6.491  11.490  1.5164  1.4520 -1.4731
    8MOL0     H 1036   7.066   6.443  11.513 -1.4947 -1.8898  1.6357
    8MOL0     H 1037   7.176   6.304  11.509  0.1987  0.2656  0.8413
    8MOL0     H 1038   7.142   6.265  11.278 -2.6926 -1.9353 -1.6211
    8MOL0     H 1039   7.036   6.396  11.250 -1.8410 -0.5824 -1.1806
    8MOL0     H 1040   6.926   6.003  11.328 -0.7161  0.2333  1.0358
    8MOL0     H 1041   6.788   5.903  11.151 -0.1949  0.2616  4.3504
    8MOL0     H 1042   6.738   5.979  10.670  0.0299  0.9788 -1.0267
    8MOL0     H 1043   6.655   5.890  10.455 -0.2208 -2.1804  0.2213
    8MOL0     H 1044   6.252   5.753  10.480  1.1218  0.5766  1.0490
    8MOL0     H 1045   6.215   5.918  10.408  2.9527  2.2782 -0.7978
    8MOL0     H 1046   6.205   5.868  10.196 -3.1784 -0.1098  0.9286
    8MOL0     H 1047   6.323   5.731  10.217 -1.3510 -1.5735 -1.1026
    8MOL0     H 1048   6.135   5.612  10.354 -3.0510  1.2036  2.0707
    8MOL0     H 1049   6.034   5.765  10.329  1.3074  1.3767  0.5174
    8MOL0     H 1050   6.170   5.579  10.119 -0.2004 -1.7080  3.1597
    8MOL0     H 1051   6.043   5.700  10.083 -2.4207 -0.7754 -0.6652
    8MOL0     H 1052   5.872   5.576  10.199 -0.6318  0.9880  0.3147
    8MOL0     H 1053   5.980   5.442  10.236  0.1776  2.3495  2.0267
    8MOL0     H 1054   5.883   5.545   9.958  1.0779 -1.4836 -3.1951
    8MOL0     H 1055   6.012   5.414   9.972 -1.6384 -3.0644 -1.7482
    8MOL0     H 1056   5.716   5.397  10.062 -1.4946  0.8277 -0.6510
    8MOL0     H 1057   5.851   5.286  10.090 -3.5112  1.4114  3.1412
    8MOL0     H 1058   5.692   5.280   9.852 -1.5123  3.7377 -3.5432
    8MOL0     H 1059   5.809   5.403   9.803  0.6169  0.3935  0.6485
    8MOL0     H 1060   6.255   6.040  10.557 -1.2162 -3.2518  0.9372
    8MOL0     H 1061   6.350   6.147  10.747  1.3948  0.6647  0.6447
    8MOL0     H 1062   6.680   6.289  11.001 -1.2970 -1.0806 -0.3128
    8MOL0     H 1063   6.831   6.389  11.160  1.4893  0.0547  0.1650
    8MOL0     H 1064   8.075   7.330  11.067  0.9617 -0.5901 -1.6587
    8MOL0     H 1065   7.941   7.520  10.981 -1.6925  0.3431  1.5917
    8MOL0     H 1066   7.627   7.617  10.647 -0.3324  0.1646  0.1360
    8MOL0     H 1067   7.454   7.748  10.526  1.0273 -0.2355  0.0559
    8MOL0     H 1068   7.060   7.863  10.569  0.6799  0.0776 -0.1936
    8MOL0     H 1069   7.090   7.929  10.729 -1.5133 -0.8399  1.6033
    8MOL0     H 1070   7.065   7.698  10.827  0.3016 -1.9513  0.8861
    8MOL0     H 1071   7.095   7.631  10.673 -2.7904 -0.3148 -0.6521
    8MOL0     H 1072   6.878   7.724  10.590  0.8646  0.2610  0.0017
    8MOL0     H 1073   6.851   7.805  10.739 -0.4049 -0.1495  0.8509
    8MOL0     H 1074   6.863   7.602  10.850  1.6687 -1.1879 -0.8901
    8MOL0     H 1075   6.735   7.596  10.727 -1.2371 -3.1475  1.1919
    8MOL0     H 1076   6.920   7.238  10.627  2.7618  0.0142 -0.1871
    8MOL0     H 1077   7.258   7.850  10.886  1.7564  3.2146 -1.0273
    8MOL0     H 1078   7.343   7.783  11.095  1.0533  1.5323  1.2690
    8MOL0     H 1079   7.436   7.643  11.121 -2.5732 -0.5270 -2.8050
    8MOL0     H 1080   7.526   7.793  11.083  1.9367 -1.8953  0.9793
    9MOL0     O 1081   0.692  10.843   8.700  0.8991 -0.5051  0.1774
    9MOL0     C 1082   0.618  10.836   8.803 -0.1278 -0.0311  0.1291
    9MOL0     O 1083   0.484  10.873   8.807  0.1629 -0.2168  0.2429
    9MOL0     C 1084   0.436  10.940   8.700  0.8639  0.2479 -0.6275
    9MOL0     C 1085   0.363  10.882   8.596 -0.5275  0.4731 -0.1715
    9MOL0     C 1086   0.321  10.965   8.488  0.4298 -0.1432  0.7391
    9MOL0     C 1087   0.346  11.101   8.490  0.6099 -0.0273  0.2082
    9MOL0     O 1088   0.298  11.179   8.386  0.3109  0.7669 -0.2692
    9MOL0     C 1089   0.253  11.307   8.420 -0.2837  0.0103 -0.0970
    9MOL0     C 1090   0.143  11.343   8.322  0.0811  0.1413  0.1733
    9MOL0     C 1091   0.017  11.260   8.332  0.4372  0.4236  0.5187
    9MOL0     C 1092  -0.044  11.227   8.468 -0.2908 -0.2220 -0.7314
    9MOL0     C 1093  -0.192  11.198   8.455 -0.6023 -0.0302 -0.3565
    9MOL0     C 1094  -0.266  11.234   8.580 -0.1309 -0.2693 -0.2934
    9MOL0     C 1095  -0.393  11.154   8.582  0.4575  0.4156 -0.8373
    9MOL0     C 1096  -0.397  11.047   8.689 -0.2742  0.5540 -0.3304
    9MOL0     N 1097  -0.329  10.920   8.655  0.0097 -0.5121  0.6146
    9MOL0     C 1098  -0.194  10.877   8.680  1.3867 -1.3042  0.8902
    9MOL0     C 1099  -0.190  10.762   8.612 -0.3066  0.0769 -0.8075
    9MOL0     C 1100  -0.063  10.695   8.565 -0.1210  0.1197 -0.5488
    9MOL0     C 1101  -0.079  10.540   8.556 -0.2688 -0.5077  0.7427
    9MOL0     C 1102   0.052  10.481   8.484  0.9788  0.0893  0.1602
    9MOL0     C 1103   0.181  10.482   8.555 -0.6250  0.4036 -0.2923
    9MOL0     O 1104   0.169  10.411   8.677  0.3055 -0.3260 -0.2873
    9MOL0     C 1105   0.282  10.384   8.757  0.3578  0.1015  0.0552
    9MOL0     C 1106   0.277  10.281   8.854  0.0803 -0.6640  0.6020
    9MOL0     C 1107   0.381  10.248   8.933  0.7312  0.0637  0.5049
    9MOL0     C 1108   0.500  10.331   8.936 -0.1778  0.4864  0.1046
    9MOL0     C 1109   0.622  10.301   9.010  0.4773 -0.0243 -0.1910
    9MOL0     O 1110   0.629  10.173   9.056 -0.6482  0.4740 -0.4625
    9MOL0     C 1111   0.748  10.145   9.140  0.2660  0.6836  0.6348
    9MOL0     C 1112   0.876  10.207   9.144 -0.1049  1.2128  0.7666
    9MOL0     C 1113   0.983  10.163   9.213 -0.3454 -0.6329  0.2411
    9MOL0     C 1114   0.975  10.052   9.297  0.4349  0.9575 -0.1651
    9MOL0     O 1115   1.072   9.996   9.375 -0.1917 -0.2942 -0.0087
    9MOL0     C 1116   1.168  10.084   9.447 -0.6739 -0.3493  1.1193
    9MOL0     C 1117   1.223  10.026   9.559  0.2973  0.1499 -0.0206
    9MOL0     C 1118   1.359   9.957   9.536  0.0377 -0.7812 -0.1128
    9MOL0     C 1119   1.356   9.843   9.442  0.3925  0.8180 -0.7819
    9MOL0     C 1120   1.493   9.780   9.434 -0.3570 -0.7451 -0.4460
    9MOL0     C 1121   1.491   9.689   9.311  1.3558 -0.3180  0.1431
    9MOL0     C 1122   1.606   9.594   9.306 -0.0613  0.3278 -0.1907
    9MOL0     C 1123   1.567   9.448   9.353 -0.4911 -0.5923 -0.1702
    9MOL0    Cl 1124   1.719   9.361   9.386  0.4417  0.1950 -0.1852
    9MOL0     C 1125   0.861   9.976   9.289 -1.0278 -1.0185 -1.4360
    9MOL0     C 1126   0.749  10.023   9.215 -0.0400  0.1108  0.1824
    9MOL0     O 1127   0.702  10.395   9.026 -0.0410  0.4881 -1.3865
    9MOL0     C 1128   0.504  10.437   8.841  0.9824  0.9080 -0.0373
    9MOL0     C 1129   0.397  10.462   8.757 -0.0781  0.8614 -0.1602
    9MOL0     N 1130  -0.317  10.733   8.551 -0.9538  0.3107  0.1163
    9MOL0     N 1131  -0.395  10.832   8.575  0.2816 -0.6209  0.4080
    9MOL0     C 1132   0.408  11.159   8.604 -0.0194  0.0011 -0.8221
    9MOL0     C 1133   0.451  11.075   8.708  0.2637 -1.0322 -0.1152
    9MOL0     C 1134   0.676  10.786   8.942  1.1805 -1.0819 -1.1305
    9MOL0     C 1135   0.604  10.815   9.060  0.2776 -0.2229 -0.3172
    9MOL0     C 1136   0.656  10.779   9.184 -0.8985 -0.3181  0.0057
    9MOL0     C 1137   0.772  10.702   9.197 -0.5862 -0.4183 -0.7833
    9MOL0     O 1138   0.826  10.657   9.318 -0.1952 -0.2118 -0.4860
    9MOL0     C 1139   0.753  10.570   9.401  0.2124 -0.1418 -0.5617
    9MOL0     C 1140   0.847  10.456   9.446  0.3246  0.5827 -0.6126
    9MOL0     C 1141   0.797  10.382   9.579 -0.2852 -0.1759 -0.3928
    9MOL0     C 1142   0.888  10.256   9.628 -0.3654 -0.3334  0.1377
    9MOL0     C 1143   0.840  10.223   9.763 -0.6426  0.1204 -0.7375
    9MOL0     C 1144   0.814  10.190   9.880  0.6027  0.0592  0.6232
    9MOL0     C 1145   0.842  10.680   9.080  0.1113 -0.0089 -0.5598
    9MOL0     C 1146   0.797  10.715   8.948  0.5299 -0.4512 -0.5279
    9MOL0     C 1147   0.871  10.658   8.835  0.0115  0.0079  0.3089
    9MOL0     H 1148   0.347  10.775   8.607  1.7230  0.2494  1.7548
    9MOL0     H 1149   0.269  10.912   8.409 -2.1837  0.8037  1.6880
    9MOL0     H 1150   0.212  11.312   8.521  0.3039 -0.0722  0.1494
    9MOL0     H 1151   0.341  11.373   8.423  0.7582 -1.2565 -1.4375
    9MOL0     H 1152   0.183  11.330   8.221 -1.0820 -1.8642 -0.0772
    9MOL0     H 1153   0.115  11.448   8.333  0.5494  0.3643 -0.6645
    9MOL0     H 1154   0.025  11.161   8.286 -0.5767 -0.2165  1.6661
    9MOL0     H 1155  -0.050  11.314   8.264  1.4985 -1.1617 -1.9410
    9MOL0     H 1156   0.018  11.144   8.505 -0.2947  1.1095  2.6987
    9MOL0     H 1157  -0.034  11.309   8.539 -0.6791  0.1777 -1.1354
    9MOL0     H 1158  -0.247  11.245   8.374 -2.3785  0.6231  1.1665
    9MOL0     H 1159  -0.207  11.090   8.441 -1.9570 -0.2522  2.1267
    9MOL0     H 1160  -0.218  11.211   8.676  1.2777  0.3724 -0.8027
    9MOL0     H 1161  -0.272  11.343   8.592  2.5447 -0.2267  1.9877
    9MOL0     H 1162  -0.425  11.115   8.485 -0.0041 -1.4509  0.0238
    9MOL0     H 1163  -0.465  11.222   8.630  0.9061 -0.3991  1.0983
    9MOL0     H 1164  -0.354  11.088   8.782  0.5493 -1.4751  0.2284
    9MOL0     H 1165  -0.496  11.017   8.725  0.7568 -0.0003  2.2516
    9MOL0     H 1166  -0.112  10.940   8.714  1.2665 -0.1881 -0.7488
    9MOL0     H 1167  -0.050  10.736   8.464  0.4248 -0.1167 -0.5798
    9MOL0     H 1168   0.018  10.715   8.636  0.7917 -2.8746 -0.5982
    9MOL0     H 1169  -0.081  10.498   8.657 -3.0845 -0.8957  0.6046
    9MOL0     H 1170  -0.166  10.513   8.495  2.4932 -3.2967 -2.3684
    9MOL0     H 1171   0.077  10.530   8.390  1.7125 -0.4990  0.0336
    9MOL0     H 1172   0.024  10.378   8.460  0.8028  1.0214 -4.4624
    9MOL0     H 1173   0.207  10.587   8.574  0.8028  0.2723 -1.3223
    9MOL0     H 1174   0.258  10.441   8.489 -1.3173 -0.9052 -0.3293
    9MOL0     H 1175   0.185  10.222   8.856  0.3189 -1.0660 -0.0471
    9MOL0     H 1176   0.382  10.165   9.003  2.0021  0.3703  0.8682
    9MOL0     H 1177   0.896  10.294   9.081  0.2472  1.0434  0.6387
    9MOL0     H 1178   1.070  10.222   9.186 -0.6056 -0.9480 -1.3661
    9MOL0     H 1179   1.251  10.108   9.380 -3.7019  0.2837 -2.8406
    9MOL0     H 1180   1.127  10.185   9.458 -1.9816 -0.4193 -1.9988
    9MOL0     H 1181   1.240  10.109   9.629  0.9363 -0.5707  0.7048
    9MOL0     H 1182   1.155   9.955   9.608  1.9084 -1.2180  0.3319
    9MOL0     H 1183   1.436  10.032   9.514  0.0808 -0.8783 -0.2959
    9MOL0     H 1184   1.372   9.917   9.637 -4.4726  2.6907  2.2390
    9MOL0     H 1185   1.318   9.879   9.346 -0.4756  2.1557  0.0294
    9MOL0     H 1186   1.281   9.771   9.476 -0.9283  2.9956  1.2307
    9MOL0     H 1187   1.526   9.734   9.527 -3.8340  1.6191  2.2414
    9MOL0     H 1188   1.558   9.866   9.414 -1.1034 -0.7486 -3.4246
    9MOL0     H 1189   1.390   9.648   9.309 -0.2279  3.2047 -0.2487
    9MOL0     H 1190   1.486   9.755   9.224  1.2462 -0.2693  0.1855
    9MOL0     H 1191   1.698   9.627   9.356  1.2608 -0.0061 -2.2660
    9MOL0     H 1192   1.639   9.588   9.201 -1.0436  0.1529 -0.5020
    9MOL0     H 1193   1.494   9.460   9.433  0.6849  1.0659  0.6971
    9MOL0     H 1194   1.514   9.409   9.265 -2.6997  0.6558  0.5150
    9MOL0     H 1195   0.851   9.881   9.342  1.5677 -0.1251  0.9616
    9MOL0     H 1196   0.652   9.974   9.211 -0.3265  0.4790  2.0181
    9MOL0     H 1197   0.592  10.498   8.825  0.2325  1.9251 -0.3921
    9MOL0     H 1198   0.405  10.556   8.703  0.0246  1.1634  0.3718
    9MOL0     H 1199   0.418  11.265   8.628 -1.6464  0.0579 -0.2559
    9MOL0     H 1200   0.495  11.099   8.804 -0.4050  0.7827 -0.2263
    9MOL0     H 1201   0.508  10.863   9.038  0.0014 -2.1350 -4.0146
    9MOL0     H 1202   0.602  10.798   9.276 -0.1709 -1.4009  0.6845
    9MOL0     H 1203   0.669  10.536   9.340  0.1103  1.0030 -1.0801
    9MOL0     H 1204   0.714  10.620   9.490  2.9069 -1.8748  1.7493
    9MOL0     H 1205   0.948  10.495   9.466  0.9289  0.0582 -2.4576
    9MOL0     H 1206   0.862  10.388   9.362 -1.8413 -1.1202  0.3044
    9MOL0     H 1207   0.691  10.359   9.573 -0.1741 -0.3670 -2.2597
    9MOL0     H 1208   0.794  10.460   9.656 -0.7942 -0.8329  0.2681
    9MOL0     H 1209   0.873  10.175   9.556  1.9053 -1.7183  1.1346
    9MOL0     H 1210   0.994  10.280   9.634 -0.0400 -0.7078 -2.7520
    9MOL0     H 1211   0.787  10.158   9.979 -1.0769 -1.0729 -0.1618
    9MOL0     H 1212   0.928  10.619   9.106 -1.1997 -0.8727  2.1722
    9MOL0     H 1213   0.791  10.623   8.770 -0.1620 -3.0272  2.0070
    9MOL0     H 1214   0.936  10.728   8.781 -0.6899  0.7966  0.4637
    9MOL0     H 1215   0.929  10.572   8.867  0.9478  0.5651  0.1494
   10MOL0     O 1216   1.880   8.989   7.720  0.0763  0.2185 -0.4517
   10MOL0     C 1217   1.762   8.953   7.727 -0.0556  0.1377  0.0902
   10MOL0     O 1218   1.712   8.860   7.817  0.9936 -0.7151  0.0176
   10MOL0     C 1219   1.789   8.786   7.896  0.2395  0.1086 -0.3552
   10MOL0     C 1220   1.735   8.765   8.020 -0.9776  0.2044 -0.0715
   10MOL0     C 1221   1.795   8.695   8.121 -0.2532 -0.2735  0.1256
   10MOL0     C 1222   1.904   8.630   8.088 -0.5037  0.3767 -0.0115
   10MOL0     O 1223   1.952   8.542   8.187 -0.3613 -0.0871  0.1281
   10MOL0     C 1224   2.082   8.481   8.164  0.7468 -0.0637 -0.4290
   10MOL0     C 1225   2.112   8.396   8.289 -0.2373  0.5869 -0.2760
   10MOL0     C 1226   2.249   8.324   8.281  0.6881 -0.0222  0.6548
   10MOL0     C 1227   2.356   8.430   8.335 -0.7186  0.0035  0.4612
   10MOL0     C 1228   2.479   8.355   8.374 -0.5339 -1.0380 -0.0261
   10MOL0     C 1229   2.601   8.448   8.406  0.6058  0.7368 -0.0222
   10MOL0     C 1230   2.584   8.525   8.545 -0.0316 -0.5857 -0.1004
   10MOL0     C 1231   2.693   8.639   8.559 -0.8505  0.4254  0.7626
   10MOL0     N 1232   2.839   8.587   8.577  0.1327 -0.1791 -0.2363
   10MOL0     C 1233   2.921   8.644   8.663 -0.2553  0.5569 -0.4562
   10MOL0     C 1234   3.023   8.555   8.673 -0.1545 -0.3068  0.2261
   10MOL0     C 1235   3.125   8.564   8.785  0.0289  0.5528 -0.1677
   10MOL0     C 1236   3.155   8.419   8.825 -0.3637  0.2011  0.1921
   10MOL0     C 1237   3.215   8.397   8.965  0.3566 -1.2647  0.0847
   10MOL0     C 1238   3.126   8.290   9.046 -0.8745 -0.6191 -0.8515
   10MOL0     O 1239   3.162   8.259   9.182  0.2090  0.0170 -0.1125
   10MOL0     C 1240   3.284   8.209   9.215 -0.3769  0.2363  0.1079
   10MOL0     C 1241   3.384   8.161   9.130  0.1005  0.1984 -0.4350
   10MOL0     C 1242   3.510   8.130   9.184  0.1651  0.3762  0.3116
   10MOL0     C 1243   3.527   8.144   9.327  0.3567 -0.1953  0.1655
   10MOL0     C 1244   3.664   8.126   9.387  0.7414  0.1862 -1.3620
   10MOL0     O 1245   3.676   8.159   9.516 -0.5211 -0.3257  0.0936
   10MOL0     C 1246   3.780   8.100   9.586  0.0736 -0.2730  0.0050
   10MOL0     C 1247   3.919   8.117   9.552  0.5838 -0.6417 -0.3553
   10MOL0     C 1248   4.022   8.059   9.644  0.1290 -0.3195 -0.0577
   10MOL0     C 1249   3.988   7.996   9.761 -0.2748 -0.0322 -0.3724
   10MOL0     O 1250   4.095   7.951   9.828 -0.2273 -0.4479  0.3569
   10MOL0     C 1251   4.086   7.852   9.934  0.3377 -0.2823  0.6450
   10MOL0     C 1252   4.203   7.760   9.927  0.0247 -0.0409  0.0269
   10MOL0     C 1253   4.212   7.679   9.794  0.0837  0.7735 -0.3742
   10MOL0     C 1254   4.339   7.603   9.775 -0.2739 -0.3996 -1.0551
   10MOL0     C 1255   4.333   7.526   9.636  0.3545  0.2800  0.1190
   10MOL0     C 1256   4.468   7.451   9.611  0.5426 -0.0948 -1.1307
   10MOL0     C 1257   4.459   7.365   9.484 -0.8143  0.2576 -0.5009
   10MOL0     C 1258   4.602   7.297   9.467  0.6694 -0.3626 -0.5649
   10MOL0    Cl 1259   4.629   7.178   9.608  0.2011 -0.3831 -0.4582
   10MOL0     C 1260   3.848   7.984   9.798  0.1234 -0.6162  0.7952
   10MOL0     C 1261   3.743   8.039   9.717 -0.2476 -0.1327 -0.0572
   10MOL0     O 1262   3.757   8.084   9.311  0.0608 -0.7001 -0.1813
   10MOL0     C 1263   3.417   8.160   9.411 -0.7550 -0.8208  0.3145
   10MOL0     C 1264   3.300   8.202   9.355  1.3894  0.4431  0.5800
   10MOL0     N 1265   3.002   8.461   8.582 -1.3744 -0.0511  0.6480
   10MOL0     N 1266   2.895   8.485   8.510  0.0289 -0.4584 -1.0400
   10MOL0     C 1267   1.965   8.644   7.960 -1.1410  0.7258 -0.6973
   10MOL0     C 1268   1.914   8.717   7.856 -1.0699 -1.2002 -0.2651
   10MOL0     C 1269   1.666   9.016   7.625 -0.0240 -0.6565 -0.0875
   10MOL0     C 1270   1.715   9.125   7.552  0.3880 -0.6400 -0.1794
   10MOL0     C 1271   1.641   9.195   7.455  0.4577 -0.0064  0.0702
   10MOL0     C 1272   1.518   9.138   7.416 -0.3576 -0.0080  1.5689
   10MOL0     O 1273   1.443   9.212   7.321 -1.2731  0.3182 -0.4941
   10MOL0     C 1274   1.367   9.144   7.224  0.1587 -0.8254 -0.1929
   10MOL0     C 1275   1.287   9.239   7.150 -0.4404 -0.5128  0.0322
   10MOL0     C 1276   1.226   9.165   7.030  0.4611 -1.7745 -0.0123
   10MOL0     C 1277   1.096   9.108   7.071 -0.0754  0.0774  0.9262
   10MOL0     C 1278   1.006   9.084   6.959  0.2199  0.3109 -0.4934
   10MOL0     C 1279   0.935   9.063   6.861 -0.0964  0.4409 -0.1617
   10MOL0     C 1280   1.469   9.020   7.473 -0.1103 -0.8256  0.0320
   10MOL0     C 1281   1.535   8.961   7.585 -0.6118 -0.3838  0.3861
   10MOL0     C 1282   1.458   8.860   7.667  0.8847  0.5426 -0.2051
   10MOL0     H 1283   1.642   8.813   8.047 -1.4029 -0.3771 -0.4741
   10MOL0     H 1284   1.751   8.677   8.219 -0.4718 -1.6287 -0.1931
   10MOL0     H 1285   2.072   8.408   8.083  2.0044  0.6092 -1.2165
   10MOL0     H 1286   2.165   8.546   8.138 -0.1858  0.8521 -1.2018
   10MOL0     H 1287   2.036   8.320   8.309  1.8757 -2.1391 -1.7660
   10MOL0     H 1288   2.116   8.463   8.375  2.7874  1.6380 -1.1126
   10MOL0     H 1289   2.276   8.299   8.178 -0.7059  1.4739 -0.1188
   10MOL0     H 1290   2.251   8.228   8.333  0.8053 -0.2727  0.1942
   10MOL0     H 1291   2.376   8.507   8.260 -1.5257 -0.3885 -0.1750
   10MOL0     H 1292   2.322   8.488   8.421 -0.9955 -0.1679  0.4697
   10MOL0     H 1293   2.458   8.274   8.445 -0.5733 -2.2035 -1.3150
   10MOL0     H 1294   2.503   8.298   8.284  0.5826  0.8366 -0.9813
   10MOL0     H 1295   2.682   8.376   8.417  0.9192  0.8652 -1.3314
   10MOL0     H 1296   2.627   8.515   8.323  2.8430  1.4664  1.1846
   10MOL0     H 1297   2.580   8.457   8.630 -0.8411 -0.2192  0.1652
   10MOL0     H 1298   2.487   8.575   8.543 -0.3471 -1.1450  0.8215
   10MOL0     H 1299   2.692   8.698   8.467  0.1318  0.6981  0.9107
   10MOL0     H 1300   2.662   8.718   8.628 -3.4727  0.4796 -0.3600
   10MOL0     H 1301   2.883   8.710   8.741 -0.7411 -0.8369  0.5445
   10MOL0     H 1302   3.214   8.623   8.761  0.2349  0.6424  0.7853
   10MOL0     H 1303   3.071   8.623   8.859 -1.1133 -0.4562 -0.1761
   10MOL0     H 1304   3.077   8.342   8.819  2.3579 -2.6843 -1.4060
   10MOL0     H 1305   3.218   8.378   8.746  0.3151  0.9167  0.3602
   10MOL0     H 1306   3.203   8.491   9.020 -0.3327 -1.5457  0.4195
   10MOL0     H 1307   3.323   8.381   8.958  0.9995  2.5389 -1.0969
   10MOL0     H 1308   3.137   8.192   8.999 -1.9740 -1.7148  1.0693
   10MOL0     H 1309   3.022   8.318   9.030 -1.3146 -2.1613 -0.8690
   10MOL0     H 1310   3.369   8.168   9.022 -0.6925 -1.2880 -0.4546
   10MOL0     H 1311   3.589   8.096   9.118  0.1690  0.2278  0.3924
   10MOL0     H 1312   3.966   8.161   9.465 -0.8819 -1.4673 -1.6068
   10MOL0     H 1313   4.122   8.046   9.604  1.0528  3.9270  0.3063
   10MOL0     H 1314   4.098   7.906  10.029  3.2985  1.4774 -0.6117
   10MOL0     H 1315   3.997   7.790   9.924  0.4122 -0.5078  1.2880
   10MOL0     H 1316   4.287   7.827   9.949  0.8974 -1.3100  0.7193
   10MOL0     H 1317   4.185   7.697  10.015 -0.4760  1.4539  1.0211
   10MOL0     H 1318   4.125   7.613   9.799 -0.5038  1.5369 -0.3115
   10MOL0     H 1319   4.196   7.748   9.711  3.6809 -1.0474 -2.8265
   10MOL0     H 1320   4.355   7.535   9.859  0.0813 -0.3743 -1.1018
   10MOL0     H 1321   4.423   7.672   9.780 -1.5444  1.1748 -0.2758
   10MOL0     H 1322   4.322   7.602   9.558  0.5383 -0.1721 -0.3503
   10MOL0     H 1323   4.243   7.464   9.643 -0.2268  0.8579 -1.6240
   10MOL0     H 1324   4.548   7.523   9.594 -2.3312  4.8737  3.1427
   10MOL0     H 1325   4.494   7.391   9.699 -1.3757 -2.2782 -1.9612
   10MOL0     H 1326   4.443   7.425   9.394  4.5379  3.8855  0.4739
   10MOL0     H 1327   4.389   7.283   9.503  1.7414 -1.8941  0.2259
   10MOL0     H 1328   4.601   7.237   9.375 -2.1848  1.0009 -1.5393
   10MOL0     H 1329   4.679   7.371   9.445  0.2989  0.3596  0.5163
   10MOL0     H 1330   3.820   7.925   9.885  0.4180 -0.5073  0.9657
   10MOL0     H 1331   3.639   8.030   9.747 -0.5043  1.1085 -0.5404
   10MOL0     H 1332   3.438   8.166   9.518 -0.9566  1.6542  0.2751
   10MOL0     H 1333   3.224   8.238   9.423  1.9722  0.6098  1.1510
   10MOL0     H 1334   2.039   8.570   7.933 -2.6505 -1.4501  0.7372
   10MOL0     H 1335   1.950   8.738   7.756 -0.0015  1.5094  0.5878
   10MOL0     H 1336   1.810   9.173   7.573  0.6380 -0.1775 -2.1983
   10MOL0     H 1337   1.682   9.273   7.391  2.4689 -2.8369 -2.3532
   10MOL0     H 1338   1.306   9.062   7.262 -2.0200  0.7032 -0.2438
   10MOL0     H 1339   1.435   9.104   7.148  0.8994  2.2993 -1.2876
   10MOL0     H 1340   1.347   9.324   7.116 -1.8527  0.8353  0.7553
   10MOL0     H 1341   1.211   9.286   7.213 -0.1901  1.6749 -1.1761
   10MOL0     H 1342   1.299   9.098   6.983 -0.6195 -2.3308 -0.9360
   10MOL0     H 1343   1.210   9.239   6.952 -2.1989 -3.1534 -0.9157
   10MOL0     H 1344   1.111   9.014   7.124 -0.2688 -0.9331 -0.7414
   10MOL0     H 1345   1.034   9.174   7.133 -0.3693 -0.3144  1.0538
   10MOL0     H 1346   0.885   9.040   6.769  0.1661  0.6783 -0.3657
   10MOL0     H 1347   1.374   8.984   7.435  0.4498 -1.1653 -1.1066
   10MOL0     H 1348   1.362   8.830   7.624 -0.5625  1.6174  2.0920
   10MOL0     H 1349   1.516   8.768   7.680 -0.5187 -0.4354 -0.5944
   10MOL0     H 1350   1.427   8.903   7.763 -0.1090 -1.0792  0.2366
   11MOL0     O 1351  10.435  10.568   4.143 -0.0245 -0.0789 -0.2723
   11MOL0     C 1352  10.352  10.653   4.175  0.8852  0.4559 -0.1224
   11MOL0     O 1353  10.246  10.634   4.266  0.2790 -0.2158 -0.4377
   11MOL0     C 1354  10.219  10.500   4.311  0.2549 -0.5812 -0.0557
   11MOL0     C 1355  10.183  10.392   4.232 -0.1062  1.0581 -0.4057
   11MOL0     C 1356  10.166  10.263   4.290  0.6539  1.0822  0.2759
   11MOL0     C 1357  10.162  10.250   4.423  0.6332 -0.1456  0.5393
   11MOL0     O 1358  10.131  10.130   4.486 -0.5145  0.6396  1.2400
   11MOL0     C 1359  10.075  10.023   4.413  0.2295 -0.2689  0.3705
   11MOL0     C 1360   9.937  10.065   4.367 -0.4385 -0.6179 -0.9324
   11MOL0     C 1361   9.870   9.958   4.292 -0.4160  0.2911  0.1168
   11MOL0     C 1362   9.923   9.946   4.145  0.3877 -0.1801  0.2031
   11MOL0     C 1363   9.844   9.828   4.080  0.5156 -0.6547  0.0113
   11MOL0     C 1364   9.902   9.696   4.117 -0.0342  0.4180  0.3863
   11MOL0     C 1365  10.025   9.647   4.036 -0.0341  0.8926  0.2925
   11MOL0     C 1366  10.067   9.515   4.101 -0.3692 -0.0259 -0.0206
   11MOL0     N 1367  10.183   9.526   4.180 -0.2529  0.0710  0.4468
   11MOL0     C 1368  10.210   9.627   4.275  0.1221 -0.1041 -0.1571
   11MOL0     C 1369  10.333   9.609   4.319  0.1157  0.1786 -0.0868
   11MOL0     C 1370  10.394   9.685   4.430 -0.0169 -0.4527 -0.3354
   11MOL0     C 1371  10.546   9.686   4.427 -0.5079 -0.4725 -0.0166
   11MOL0     C 1372  10.599   9.753   4.550  0.2156 -0.7401 -0.7482
   11MOL0     C 1373  10.693   9.863   4.502  1.2971 -0.2372 -0.0127
   11MOL0     O 1374  10.738   9.956   4.599  0.3006  0.2366  0.5062
   11MOL0     C 1375  10.657  10.045   4.659  1.0613 -0.4536 -0.9586
   11MOL0     C 1376  10.524  10.078   4.623  0.4133  0.4515  0.1842
   11MOL0     C 1377  10.460  10.184   4.681  1.2318  0.7737 -0.0233
   11MOL0     C 1378  10.517  10.259   4.789 -0.9235 -0.3649  0.2854
   11MOL0     C 1379  10.463  10.385   4.849 -0.1865 -0.5301 -0.8931
   11MOL0     O 1380  10.534  10.452   4.947 -0.1878 -0.3164  0.4251
   11MOL0     C 1381  10.478  10.557   5.024  0.0524  0.2763 -0.3105
   11MOL0     C 1382  10.413  10.535   5.137 -0.3595 -0.9181 -0.2386
   11MOL0     C 1383  10.401  10.639   5.229 -0.0694 -0.6258  0.4446
   11MOL0     C 1384  10.444  10.768   5.200  1.0836 -0.0717  1.0936
   11MOL0     O 1385  10.450  10.859   5.302  0.4668  0.3579 -0.6932
   11MOL0     C 1386  10.573  10.940   5.303 -0.9297  0.9666 -0.2464
   11MOL0     C 1387  10.565  11.027   5.433 -0.3835 -0.4233  0.1745
   11MOL0     C 1388  10.664  11.143   5.449 -0.4832 -0.1984 -0.0565
   11MOL0     C 1389  10.635  11.201   5.594  0.1941 -0.3142  0.1780
   11MOL0     C 1390  10.696  11.332   5.627  1.2353  0.2254  1.1445
   11MOL0     C 1391  10.846  11.331   5.627 -0.2954 -0.1329  0.0482
   11MOL0     C 1392  10.895  11.302   5.765 -0.2633 -0.2631  0.0387
   11MOL0     C 1393  11.042  11.259   5.774  0.3284 -0.4634 -0.7157
   11MOL0    Cl 1394  11.049  11.114   5.674 -0.3741  0.2005  0.4914
   11MOL0     C 1395  10.488  10.792   5.069 -0.6988  0.1272  1.4897
   11MOL0     C 1396  10.508  10.683   4.982 -1.1868  0.1797 -0.2387
   11MOL0     O 1397  10.356  10.428   4.799  0.7338  0.1785 -0.6167
   11MOL0     C 1398  10.641  10.212   4.833  0.4878 -0.1583  0.4448
   11MOL0     C 1399  10.708  10.113   4.767  0.4839 -0.2688 -0.6517
   11MOL0     N 1400  10.385   9.498   4.257 -0.4897 -0.2013  0.5433
   11MOL0     N 1401  10.297   9.445   4.183  0.1653 -0.3523 -0.2290
   11MOL0     C 1402  10.190  10.357   4.504  0.6952 -0.2318 -0.0263
   11MOL0     C 1403  10.228  10.481   4.461 -0.2813 -0.4459  0.0037
   11MOL0     C 1404  10.374  10.794   4.127  0.8590  0.7536  0.4203
   11MOL0     C 1405  10.375  10.795   3.983  0.8606  0.5215 -0.4805
   11MOL0     C 1406  10.420  10.906   3.915 -0.0809  0.6395  0.5994
   11MOL0     C 1407  10.446  11.024   3.985  0.6329 -0.2980 -0.1369
   11MOL0     O 1408  10.475  11.141   3.930 -0.3586 -0.2474  0.7757
   11MOL0     C 1409  10.452  11.169   3.794  0.7048  0.2893 -0.1996
   11MOL0     C 1410  10.454  11.320   3.784  0.4361 -0.1725 -0.3386
   11MOL0     C 1411  10.348  11.393   3.866  0.0586 -0.2391  0.1002
   11MOL0     C 1412  10.209  11.410   3.803  0.3123  0.0338 -0.9277
   11MOL0     C 1413  10.113  11.484   3.885 -0.4963  0.5661 -0.6641
   11MOL0     C 1414  10.044  11.541   3.963  0.7557 -0.1276 -1.0692
   11MOL0     C 1415  10.422  11.021   4.129  0.7331 -0.1855  0.2774
   11MOL0     C 1416  10.384  10.911   4.195  0.1563 -0.4209 -0.1392
   11MOL0     C 1417  10.351  10.923   4.341 -0.7405 -0.1826 -0.2021
   11MOL0     H 1418  10.172  10.409   4.126  1.1013  1.9109 -0.4251
   11MOL0     H 1419  10.155  10.178   4.224  0.9067 -0.2377  1.8634
   11MOL0     H 1420  10.141   9.994   4.330  1.3079 -1.4339  1.5814
   11MOL0     H 1421  10.067   9.937   4.480  0.4304 -0.5031  0.0972
   11MOL0     H 1422   9.947  10.146   4.294  1.7426 -0.2740 -0.3354
   11MOL0     H 1423   9.877  10.091   4.455 -1.7590 -2.2593 -1.3094
   11MOL0     H 1424   9.763   9.980   4.291 -0.1922  1.4336  0.6756
   11MOL0     H 1425   9.869   9.861   4.343 -0.6037  0.0326 -0.3607
   11MOL0     H 1426   9.894  10.034   4.087  2.6773  1.0651  0.8180
   11MOL0     H 1427  10.032   9.936   4.139  0.5014  1.9199 -2.8678
   11MOL0     H 1428   9.743   9.835   4.121 -0.1908  0.9987 -1.8401
   11MOL0     H 1429   9.833   9.853   3.974  0.3773  3.2010  0.7701
   11MOL0     H 1430   9.922   9.686   4.224  0.7238 -2.1671  0.0641
   11MOL0     H 1431   9.822   9.626   4.090  0.0676 -0.7950  2.9146
   11MOL0     H 1432  10.104   9.722   4.031 -0.5586  1.4707  0.4772
   11MOL0     H 1433   9.992   9.623   3.935  0.8255 -4.7541  1.0570
   11MOL0     H 1434   9.991   9.472   4.167  0.7003 -1.5741  0.2577
   11MOL0     H 1435  10.082   9.448   4.015  0.6834  2.9882 -2.3790
   11MOL0     H 1436  10.135   9.694   4.317 -1.6536 -1.7198 -0.5613
   11MOL0     H 1437  10.368   9.791   4.423  2.2420  0.0628 -2.2665
   11MOL0     H 1438  10.354   9.653   4.526 -0.8341  1.5134  0.0195
   11MOL0     H 1439  10.593   9.587   4.430 -0.0984 -0.3582 -1.6407
   11MOL0     H 1440  10.595   9.736   4.343  2.5321 -0.2602  1.7381
   11MOL0     H 1441  10.668   9.682   4.597  0.4813 -1.6562 -2.4354
   11MOL0     H 1442  10.518   9.792   4.611 -1.4074 -2.8202 -1.4513
   11MOL0     H 1443  10.647   9.923   4.423 -0.3358  0.8384  1.6545
   11MOL0     H 1444  10.776   9.809   4.456  2.4055 -0.4855  2.1488
   11MOL0     H 1445  10.482  10.023   4.538 -2.8743  0.3312  1.7263
   11MOL0     H 1446  10.365  10.210   4.633 -0.4292 -1.1525  2.0155
   11MOL0     H 1447  10.385  10.432   5.154 -0.1690 -0.7141  1.5007
   11MOL0     H 1448  10.345  10.631   5.321  0.0761  1.8267  0.8050
   11MOL0     H 1449  10.662  10.876   5.301 -2.4536 -1.2420 -1.3315
   11MOL0     H 1450  10.587  11.014   5.224  1.6568  0.8578  0.0095
   11MOL0     H 1451  10.467  11.076   5.446  0.2728  1.0268 -0.1286
   11MOL0     H 1452  10.563  10.947   5.507  1.6231 -0.9210 -0.2643
   11MOL0     H 1453  10.769  11.125   5.427 -0.9340  0.8274 -3.6296
   11MOL0     H 1454  10.624  11.212   5.374 -1.8750  0.3548  1.1475
   11MOL0     H 1455  10.683  11.130   5.662  4.5179 -0.1292 -2.3131
   11MOL0     H 1456  10.528  11.214   5.615  0.6230  2.4298  1.0584
   11MOL0     H 1457  10.660  11.368   5.724 -3.9835  0.7344 -0.6434
   11MOL0     H 1458  10.657  11.395   5.547 -3.0700 -2.4627  0.8541
   11MOL0     H 1459  10.874  11.255   5.553  2.1584 -0.5589  1.3273
   11MOL0     H 1460  10.869  11.431   5.589  0.3490 -1.8731 -4.8572
   11MOL0     H 1461  10.833  11.221   5.805 -1.0190  0.9554  1.4197
   11MOL0     H 1462  10.886  11.393   5.825  1.9083 -0.8391  1.3634
   11MOL0     H 1463  11.103  11.339   5.730 -1.6541  1.0498 -0.8894
   11MOL0     H 1464  11.069  11.244   5.878 -3.3914  0.3352  0.5351
   11MOL0     H 1465  10.525  10.891   5.043 -1.8278  0.0789 -0.4168
   11MOL0     H 1466  10.542  10.685   4.879  2.2290 -0.4704  0.7509
   11MOL0     H 1467  10.691  10.255   4.920 -1.0602  1.4310  0.5845
   11MOL0     H 1468  10.813  10.086   4.780 -0.2614 -2.2867  2.0125
   11MOL0     H 1469  10.201  10.337   4.610 -1.3943  0.1261  0.2949
   11MOL0     H 1470  10.250  10.566   4.524  0.6218 -0.5460 -0.1626
   11MOL0     H 1471  10.358  10.700   3.933 -4.6215  0.5114  0.8084
   11MOL0     H 1472  10.434  10.911   3.807  2.3564  0.1760  0.8246
   11MOL0     H 1473  10.356  11.125   3.767  0.8126  0.7811 -1.4542
   11MOL0     H 1474  10.528  11.119   3.733  0.6799 -2.6920  1.9925
   11MOL0     H 1475  10.433  11.353   3.682  0.5223 -0.3893 -0.4281
   11MOL0     H 1476  10.553  11.357   3.811  0.3900 -1.0247  1.1015
   11MOL0     H 1477  10.383  11.496   3.879 -0.3117 -0.3304  2.1821
   11MOL0     H 1478  10.348  11.343   3.963  0.6760 -0.2767  0.0841
   11MOL0     H 1479  10.215  11.470   3.712  2.0352  3.0460  0.9990
   11MOL0     H 1480  10.171  11.311   3.776 -0.3061  0.1730 -0.5826
   11MOL0     H 1481   9.990  11.602   4.032 -0.9161 -0.8052 -1.7289
   11MOL0     H 1482  10.439  11.118   4.175 -0.6014 -0.0523  0.5286
   11MOL0     H 1483  10.340  10.820   4.377  1.5665 -1.3248 -2.4934
   11MOL0     H 1484  10.423  10.974   4.406 -1.1338 -0.6605  0.6385
   11MOL0     H 1485  10.249  10.958   4.357 -1.3213 -1.2613 -1.3113
   12MOL0     O 1486   3.573  10.035   5.182  0.6132 -0.3181 -0.8590
   12MOL0     C 1487   3.671  10.047   5.264  0.6393  0.4553  0.0183
   12MOL0     O 1488   3.783   9.972   5.264  0.0502  0.1714 -0.1155
   12MOL0     C 1489   3.821   9.884   5.167  0.4142 -0.0764 -0.0189
   12MOL0     C 1490   3.801   9.898   5.035  0.8408  0.1979 -0.4767
   12MOL0     C 1491   3.837   9.812   4.938  0.9636 -0.0588 -0.4966
   12MOL0     C 1492   3.906   9.698   4.972 -0.1762 -0.9078  0.2810
   12MOL0     O 1493   3.949   9.601   4.885  0.4888 -0.0542  0.5831
   12MOL0     C 1494   3.921   9.583   4.743 -0.1865 -0.7592 -0.1603
   12MOL0     C 1495   3.820   9.478   4.718 -0.7296  0.2016  0.4471
   12MOL0     C 1496   3.813   9.443   4.566  1.6837 -0.6353 -0.6419
   12MOL0     C 1497   3.669   9.432   4.512 -0.2339  0.1985 -0.5268
   12MOL0     C 1498   3.591   9.563   4.489 -0.5309  1.1653  0.6982
   12MOL0     C 1499   3.468   9.527   4.399  0.9206 -0.1549 -0.3994
   12MOL0     C 1500   3.337   9.596   4.458  0.0885 -0.2375 -0.8357
   12MOL0     C 1501   3.351   9.749   4.459 -0.6467 -0.2472 -0.3704
   12MOL0     N 1502   3.414   9.803   4.581 -0.6485  0.1241  0.3342
   12MOL0     C 1503   3.357   9.782   4.706 -0.6248  0.3459 -0.5117
   12MOL0     C 1504   3.446   9.837   4.800  0.0768  0.2478  0.8666
   12MOL0     C 1505   3.428   9.825   4.946 -0.6593 -0.2512 -0.3329
   12MOL0     C 1506   3.497   9.706   5.007 -0.2921 -0.0027 -0.1644
   12MOL0     C 1507   3.427   9.653   5.127 -0.3231  0.2880 -0.1162
   12MOL0     C 1508   3.501   9.709   5.253 -0.1978 -0.4166 -0.6249
   12MOL0     O 1509   3.469   9.624   5.359 -0.3732  0.5896 -0.5666
   12MOL0     C 1510   3.553   9.586   5.464 -0.7055 -0.2866  0.9513
   12MOL0     C 1511   3.670   9.657   5.489 -0.2967  0.8351 -0.2503
   12MOL0     C 1512   3.756   9.599   5.593  0.2434 -0.0260  0.6221
   12MOL0     C 1513   3.743   9.474   5.649 -0.0868  0.3560 -0.6745
   12MOL0     C 1514   3.836   9.412   5.751  0.6931 -0.4377  0.5065
   12MOL0     O 1515   3.804   9.286   5.797  0.9191  1.0651 -0.4353
   12MOL0     C 1516   3.835   9.244   5.929 -0.8681 -0.2506  0.0035
   12MOL0     C 1517   3.925   9.306   6.025  0.0428 -0.1780  0.2650
   12MOL0     C 1518   3.943   9.262   6.157  0.1239 -0.1213  0.5280
   12MOL0     C 1519   3.882   9.138   6.189  0.3393 -0.2285 -0.2950
   12MOL0     O 1520   3.895   9.074   6.311  0.1382 -0.1212 -0.6695
   12MOL0     C 1521   3.901   9.141   6.435  0.5001 -0.0985  0.6118
   12MOL0     C 1522   4.015   9.102   6.523  0.5450 -0.1291 -1.2692
   12MOL0     C 1523   4.157   9.096   6.467  0.1693  0.0537  0.1534
   12MOL0     C 1524   4.189   8.963   6.388  0.1055 -0.4721 -0.4536
   12MOL0     C 1525   4.340   8.945   6.359 -0.8225 -0.0165 -0.0451
   12MOL0     C 1526   4.385   8.805   6.297 -0.2539  1.3154  0.5510
   12MOL0     C 1527   4.545   8.803   6.286 -0.2267  0.0994 -0.1472
   12MOL0     C 1528   4.594   8.660   6.282 -0.3931  0.6837 -0.0631
   12MOL0    Cl 1529   4.775   8.676   6.311  0.2105  0.0712 -0.4595
   12MOL0     C 1530   3.810   9.069   6.097 -0.3732  0.7527  0.1286
   12MOL0     C 1531   3.771   9.125   5.970 -0.4936  0.2729 -0.7241
   12MOL0     O 1532   3.926   9.483   5.789 -0.1867 -0.4354 -0.7253
   12MOL0     C 1533   3.622   9.402   5.605 -0.2470  0.5448  0.0391
   12MOL0     C 1534   3.538   9.461   5.515  0.3087 -0.7196  0.0534
   12MOL0     N 1535   3.553   9.886   4.734  0.1685  0.0636 -0.2927
   12MOL0     N 1536   3.541   9.860   4.610  0.5343  0.4288  0.3567
   12MOL0     C 1537   3.942   9.675   5.104 -0.9693 -1.0472 -1.0546
   12MOL0     C 1538   3.900   9.769   5.198 -0.0161  0.6010  0.2364
   12MOL0     C 1539   3.655  10.142   5.378  0.2643 -0.6264 -0.0361
   12MOL0     C 1540   3.715  10.095   5.496  0.0708 -0.0015  0.3227
   12MOL0     C 1541   3.698  10.165   5.611 -0.2842  1.1463  0.1385
   12MOL0     C 1542   3.644  10.294   5.600 -0.4656  0.1917 -0.4295
   12MOL0     O 1543   3.639  10.381   5.710  0.0583 -0.5259 -0.2939
   12MOL0     C 1544   3.701  10.354   5.844  0.1066 -0.2140 -0.6798
   12MOL0     C 1545   3.610  10.409   5.955  0.9023  0.7752 -0.4971
   12MOL0     C 1546   3.615  10.568   5.952 -0.2004 -0.0440  0.0935
   12MOL0     C 1547   3.509  10.625   5.854  0.5255  0.0216  0.1156
   12MOL0     C 1548   3.499  10.772   5.872  0.1364  0.1997  1.2952
   12MOL0     C 1549   3.503  10.886   5.890  0.5857  0.0416  0.1451
   12MOL0     C 1550   3.592  10.349   5.480 -0.5827 -0.2096  0.6287
   12MOL0     C 1551   3.600  10.265   5.364  0.5775  0.3999  0.1248
   12MOL0     C 1552   3.541  10.327   5.237 -0.2525  0.5389 -0.0362
   12MOL0     H 1553   3.738   9.984   5.013 -0.7301 -0.1646  2.1419
   12MOL0     H 1554   3.794   9.820   4.838  1.2244 -3.7437 -1.0468
   12MOL0     H 1555   3.888   9.677   4.697  0.3468 -0.9795 -0.9981
   12MOL0     H 1556   4.016   9.552   4.699 -0.8037 -5.2490  1.2038
   12MOL0     H 1557   3.720   9.512   4.746 -1.5094  0.4850 -2.3873
   12MOL0     H 1558   3.851   9.397   4.784 -0.1038 -1.5398 -1.8429
   12MOL0     H 1559   3.864   9.347   4.554  2.6143 -0.5681  2.0112
   12MOL0     H 1560   3.874   9.511   4.506 -0.0090  0.5004 -1.1521
   12MOL0     H 1561   3.687   9.383   4.416 -0.5223 -2.7592  0.8108
   12MOL0     H 1562   3.613   9.370   4.583  1.5097  0.0122  0.7694
   12MOL0     H 1563   3.562   9.591   4.591  0.8722 -2.1448  2.1571
   12MOL0     H 1564   3.673   9.628   4.457 -0.6686  1.8723  1.7154
   12MOL0     H 1565   3.486   9.552   4.294  1.7410 -0.8723 -0.4415
   12MOL0     H 1566   3.446   9.420   4.413 -1.5456  0.6680  4.4664
   12MOL0     H 1567   3.309   9.556   4.556  0.3723 -1.2046 -1.1394
   12MOL0     H 1568   3.249   9.563   4.402 -1.7719 -0.5476  2.1005
   12MOL0     H 1569   3.395   9.778   4.364 -2.3632 -1.3692 -1.5660
   12MOL0     H 1570   3.260   9.810   4.458 -0.7320 -0.3786 -0.5998
   12MOL0     H 1571   3.269   9.723   4.730 -0.2511 -0.9522 -2.2118
   12MOL0     H 1572   3.454   9.924   4.983  1.8328 -0.9338 -0.0998
   12MOL0     H 1573   3.321   9.802   4.959 -0.2776 -1.1684  1.5208
   12MOL0     H 1574   3.507   9.626   4.933  1.6351 -0.0208  0.0743
   12MOL0     H 1575   3.601   9.729   5.033  1.4343 -3.1494 -3.3501
   12MOL0     H 1576   3.454   9.547   5.129  1.9177  0.7319  4.1013
   12MOL0     H 1577   3.319   9.670   5.137 -1.1061 -4.4037  1.5479
   12MOL0     H 1578   3.467   9.811   5.273  0.8718  0.1381 -1.5781
   12MOL0     H 1579   3.608   9.710   5.232 -0.1472  4.3142 -1.2157
   12MOL0     H 1580   3.688   9.751   5.439  0.5773  1.7079  1.6159
   12MOL0     H 1581   3.844   9.660   5.609  0.8333  0.6795 -3.9456
   12MOL0     H 1582   3.978   9.399   6.009  0.7282 -0.6053  0.0042
   12MOL0     H 1583   3.995   9.312   6.238 -0.7401  1.1520  0.3297
   12MOL0     H 1584   3.899   9.249   6.418  4.5553 -0.5131 -5.4790
   12MOL0     H 1585   3.803   9.124   6.480 -0.4527  1.7425 -0.6142
   12MOL0     H 1586   4.016   9.178   6.601 -2.5084 -1.3544  0.1641
   12MOL0     H 1587   3.982   9.007   6.568 -0.5620  0.3824 -0.9676
   12MOL0     H 1588   4.186   9.173   6.394  2.0287 -2.5831 -2.0764
   12MOL0     H 1589   4.220   9.103   6.556  0.3263  1.9520 -0.0440
   12MOL0     H 1590   4.140   8.953   6.290 -3.0700 -2.2904  1.1673
   12MOL0     H 1591   4.148   8.879   6.445  1.8501  0.5173  2.4762
   12MOL0     H 1592   4.392   8.971   6.452 -2.5650  2.6656  0.3122
   12MOL0     H 1593   4.362   9.023   6.286  0.6084 -0.3547  0.0026
   12MOL0     H 1594   4.346   8.725   6.360 -2.3769  0.0906 -2.1168
   12MOL0     H 1595   4.347   8.795   6.195  0.6826  1.2364  0.2059
   12MOL0     H 1596   4.572   8.836   6.387 -0.0397 -0.2575 -0.0783
   12MOL0     H 1597   4.589   8.866   6.208  2.5891 -2.3520 -0.7256
   12MOL0     H 1598   4.551   8.602   6.365  0.5307  3.2099  2.3356
   12MOL0     H 1599   4.575   8.627   6.180 -0.8517  1.5408 -0.2656
   12MOL0     H 1600   3.763   8.977   6.130 -2.4405  1.3803 -0.9365
   12MOL0     H 1601   3.710   9.065   5.904  0.0565 -0.5046 -0.5401
   12MOL0     H 1602   3.596   9.305   5.646  5.3983 -1.9211 -1.2724
   12MOL0     H 1603   3.451   9.402   5.488  0.6017 -1.0084 -0.2663
   12MOL0     H 1604   3.995   9.586   5.135  1.5918  0.5864 -0.4724
   12MOL0     H 1605   3.932   9.765   5.302  0.8276 -0.2837 -0.0404
   12MOL0     H 1606   3.765   9.999   5.491 -0.2616 -0.1486 -0.3495
   12MOL0     H 1607   3.735  10.119   5.702 -1.3594  2.1713  1.1142
   12MOL0     H 1608   3.800  10.400   5.849 -0.1883  0.5151 -1.3032
   12MOL0     H 1609   3.714  10.247   5.861  2.8384  0.4744  2.4705
   12MOL0     H 1610   3.654  10.372   6.048  3.4366  2.3312 -0.9807
   12MOL0     H 1611   3.504  10.380   5.955  0.5809  1.5835  2.9475
   12MOL0     H 1612   3.705  10.612   5.909 -1.5796  1.1087 -1.7474
   12MOL0     H 1613   3.589  10.610   6.050  0.6285  1.2039 -0.1961
   12MOL0     H 1614   3.538  10.602   5.751 -1.3725 -0.3031 -0.3859
   12MOL0     H 1615   3.407  10.588   5.869 -0.0821  1.6426  0.1539
   12MOL0     H 1616   3.514  10.991   5.911 -1.6634  0.5003 -0.6765
   12MOL0     H 1617   3.556  10.451   5.479 -2.7481 -0.8273 -3.4505
   12MOL0     H 1618   3.446  10.277   5.219  0.3644 -1.2317  1.2668
   12MOL0     H 1619   3.524  10.432   5.260 -3.2194  0.3611 -0.9625
   12MOL0     H 1620   3.609  10.308   5.154  0.8647  1.0126  0.7458
   13MOL0     O 1621   0.134   5.298   9.808 -0.1092  0.9113 -0.9111
   13MOL0     C 1622   0.201   5.198   9.789  0.6530 -0.9850  0.1960
   13MOL0     O 1623   0.201   5.091   9.869  0.4843  0.9256 -0.0004
   13MOL0     C 1624   0.084   5.071   9.948  0.2557 -0.0561  0.3219
   13MOL0     C 1625   0.076   5.141  10.077 -0.5189  1.2669 -0.5660
   13MOL0     C 1626  -0.025   5.104  10.170 -0.8343  0.0979  0.7541
   13MOL0     C 1627  -0.117   5.009  10.132  0.1249 -0.4226  1.1074
   13MOL0     O 1628  -0.222   4.995  10.216 -0.1167 -0.0484  0.4664
   13MOL0     C 1629  -0.298   4.867  10.231 -1.0921  0.5850 -0.0309
   13MOL0     C 1630  -0.214   4.738  10.253 -0.8087  1.0164 -0.0405
   13MOL0     C 1631  -0.143   4.751  10.389  1.4490 -0.3677 -0.1962
   13MOL0     C 1632  -0.085   4.613  10.429  0.7117 -0.0136 -0.6732
   13MOL0     C 1633   0.043   4.636  10.513  1.5141 -0.2800 -0.4606
   13MOL0     C 1634   0.111   4.508  10.571 -0.1357  0.5630 -0.0216
   13MOL0     C 1635   0.020   4.442  10.670  0.2200 -0.0892  0.4890
   13MOL0     C 1636   0.088   4.343  10.759  0.2005  0.4987  0.1868
   13MOL0     N 1637   0.134   4.226  10.688 -0.3158  0.2748 -0.4305
   13MOL0     C 1638   0.096   4.102  10.731 -0.3131  0.1408 -0.4849
   13MOL0     C 1639   0.175   4.006  10.678 -0.1402 -0.4952  0.5574
   13MOL0     C 1640   0.189   3.861  10.698 -0.4432 -0.3345 -1.0688
   13MOL0     C 1641   0.056   3.792  10.653 -0.1177 -0.4111 -1.2681
   13MOL0     C 1642   0.021   3.835  10.513 -0.1433 -1.1241 -0.8558
   13MOL0     C 1643  -0.086   3.740  10.445 -0.1809 -0.0534 -0.3470
   13MOL0     O 1644  -0.183   3.823  10.386  0.1395  0.4085  0.4220
   13MOL0     C 1645  -0.186   3.885  10.263 -0.0725 -0.2388  0.0380
   13MOL0     C 1646  -0.301   3.955  10.222 -0.2718 -1.0537 -1.1310
   13MOL0     C 1647  -0.301   4.009  10.099  0.3646 -0.2648  0.1832
   13MOL0     C 1648  -0.191   4.007  10.004 -0.0538 -0.1245  0.2520
   13MOL0     C 1649  -0.181   4.079   9.881  0.4452  0.2481  0.6752
   13MOL0     O 1650  -0.088   4.038   9.799  0.5523 -0.2091  0.2318
   13MOL0     C 1651  -0.073   4.085   9.672  0.6132  0.0701  0.3432
   13MOL0     C 1652  -0.127   4.206   9.614  0.5103  1.0104 -0.6134
   13MOL0     C 1653  -0.086   4.243   9.485  0.4154  0.2717  0.4907
   13MOL0     C 1654  -0.009   4.159   9.403  0.5564  0.0138 -0.3450
   13MOL0     O 1655   0.019   4.212   9.279 -0.4562  1.1849  0.0996
   13MOL0     C 1656   0.153   4.184   9.220 -0.7503  0.3023 -0.9698
   13MOL0     C 1657   0.164   4.246   9.084 -0.4949  0.3108  0.3798
   13MOL0     C 1658   0.064   4.196   8.981  0.3049 -0.6631  0.5396
   13MOL0     C 1659  -0.077   4.248   9.000  1.1250 -0.2594  0.1834
   13MOL0     C 1660  -0.145   4.260   8.861  0.3259  0.4760 -0.4615
   13MOL0     C 1661  -0.093   4.387   8.790  0.1594 -0.0574  0.9810
   13MOL0     C 1662  -0.143   4.416   8.644  0.6528 -0.4267  0.9052
   13MOL0     C 1663  -0.295   4.413   8.636 -0.1065 -1.1280 -0.8099
   13MOL0    Cl 1664  -0.361   4.254   8.623 -0.7903 -0.0088  0.2033
   13MOL0     C 1665   0.026   4.040   9.456  0.8831  0.5827  0.0839
   13MOL0     C 1666   0.006   4.003   9.591 -0.3838 -0.3509  0.2766
   13MOL0     O 1667  -0.264   4.169   9.872  0.6264  0.8699 -0.1393
   13MOL0     C 1668  -0.079   3.940  10.046 -0.5207 -0.0722 -0.1264
   13MOL0     C 1669  -0.073   3.881  10.172  0.7579  0.5590 -0.8324
   13MOL0     N 1670   0.268   4.073  10.598 -1.1657 -0.5491 -0.2292
   13MOL0     N 1671   0.248   4.203  10.609 -0.3287  0.1101 -0.2554
   13MOL0     C 1672  -0.117   4.946  10.000 -0.4271 -0.2671 -1.0106
   13MOL0     C 1673  -0.019   4.975   9.908 -0.7125  0.3320  0.3899
   13MOL0     C 1674   0.291   5.208   9.675  1.2398  0.3530  0.0794
   13MOL0     C 1675   0.409   5.121   9.675  0.7661 -0.7339  0.1850
   13MOL0     C 1676   0.493   5.114   9.566  0.4572 -0.3832 -0.9076
   13MOL0     C 1677   0.465   5.188   9.455 -0.0444 -0.1155  0.1336
   13MOL0     O 1678   0.525   5.170   9.334 -1.3780 -0.6606 -0.1810
   13MOL0     C 1679   0.629   5.068   9.319  0.1180  0.1351  0.9672
   13MOL0     C 1680   0.557   4.929   9.311 -0.5609  1.0132  0.5984
   13MOL0     C 1681   0.654   4.805   9.276  0.0163  1.1020 -1.1322
   13MOL0     C 1682   0.700   4.811   9.132  0.6192 -0.4428  0.6182
   13MOL0     C 1683   0.756   4.686   9.097 -0.1233  0.0062  0.2232
   13MOL0     C 1684   0.809   4.588   9.048  1.1251 -0.1548  0.6055
   13MOL0     C 1685   0.358   5.276   9.458  0.0890  0.5471 -0.9329
   13MOL0     C 1686   0.269   5.286   9.568  0.9254 -0.1097  0.3965
   13MOL0     C 1687   0.151   5.375   9.529  0.2531 -0.3185 -0.2624
   13MOL0     H 1688   0.154   5.205  10.115  0.6234 -0.6311  0.4690
   13MOL0     H 1689  -0.038   5.157  10.264  3.6380  2.7786  0.1507
   13MOL0     H 1690  -0.358   4.878  10.322 -1.3047  0.5895 -0.1729
   13MOL0     H 1691  -0.358   4.850  10.141 -0.9759  4.0265 -0.8807
   13MOL0     H 1692  -0.145   4.717  10.170 -0.1879 -1.4093  1.0010
   13MOL0     H 1693  -0.282   4.654  10.271  2.1811 -1.7702 -0.6195
   13MOL0     H 1694  -0.204   4.790  10.472 -0.2663  1.4598 -2.1883
   13MOL0     H 1695  -0.069   4.830  10.375 -1.1042  1.7995 -2.8216
   13MOL0     H 1696  -0.154   4.555  10.491  0.0028  3.0188  1.6568
   13MOL0     H 1697  -0.060   4.557  10.338  3.8278  1.1592 -0.6663
   13MOL0     H 1698   0.114   4.691  10.449  0.4256 -0.7251 -2.1077
   13MOL0     H 1699   0.017   4.706  10.593  1.9692 -2.6654  1.8714
   13MOL0     H 1700   0.138   4.440  10.489  2.3265 -1.8847  2.5735
   13MOL0     H 1701   0.202   4.526  10.630 -1.5447 -0.0290  2.4375
   13MOL0     H 1702  -0.062   4.392  10.617  0.1772  0.3077  0.1799
   13MOL0     H 1703  -0.017   4.515  10.742 -2.5218 -2.3030  1.4894
   13MOL0     H 1704   0.166   4.393  10.817  1.0609 -1.8055  1.1300
   13MOL0     H 1705   0.014   4.310  10.832 -2.2301  0.8422 -1.9618
   13MOL0     H 1706   0.021   4.077  10.806  0.6595 -0.3015  0.3653
   13MOL0     H 1707   0.271   3.807  10.649 -0.2437 -0.6779 -0.3654
   13MOL0     H 1708   0.218   3.844  10.802  1.6190  1.6655 -1.2333
   13MOL0     H 1709   0.075   3.685  10.648  0.0205 -0.5075  0.5774
   13MOL0     H 1710  -0.021   3.821  10.725  0.1302  2.0751 -1.8942
   13MOL0     H 1711   0.111   3.848  10.453 -0.1722 -1.9008 -1.0761
   13MOL0     H 1712  -0.016   3.938  10.522  0.3892 -1.0753  1.6110
   13MOL0     H 1713  -0.124   3.677  10.526  5.4413 -2.8742  0.6355
   13MOL0     H 1714  -0.041   3.675  10.370  1.1783 -1.2175  1.3995
   13MOL0     H 1715  -0.382   3.968  10.293  1.1872  1.7135  0.1830
   13MOL0     H 1716  -0.383   4.076  10.072  0.7836 -0.2186 -1.0221
   13MOL0     H 1717  -0.180   4.277   9.677  0.4995  1.9008 -1.5970
   13MOL0     H 1718  -0.117   4.335   9.437  0.0342 -0.2759 -0.3356
   13MOL0     H 1719   0.217   4.245   9.285 -2.2314  0.3712  0.4925
   13MOL0     H 1720   0.184   4.079   9.219  1.7190  0.8747  1.5092
   13MOL0     H 1721   0.151   4.353   9.102 -2.3472 -0.0014  1.0394
   13MOL0     H 1722   0.266   4.234   9.047 -1.2420 -0.9501 -1.3820
   13MOL0     H 1723   0.100   4.226   8.882  0.8171  0.9377  1.1690
   13MOL0     H 1724   0.067   4.087   8.984  3.7119 -0.7412 -1.1066
   13MOL0     H 1725  -0.078   4.349   9.043 -0.9149 -0.0642 -0.1981
   13MOL0     H 1726  -0.127   4.183   9.072 -1.2491 -0.0302 -1.1160
   13MOL0     H 1727  -0.253   4.263   8.879  0.3610 -0.2166 -0.1092
   13MOL0     H 1728  -0.129   4.174   8.796 -1.9414 -3.6332  3.7890
   13MOL0     H 1729  -0.111   4.483   8.838 -0.9956  0.0082  0.4455
   13MOL0     H 1730   0.016   4.393   8.792  0.1621  2.4969 -1.3994
   13MOL0     H 1731  -0.105   4.351   8.564  1.9399  2.4718 -1.0138
   13MOL0     H 1732  -0.115   4.518   8.617 -1.2326  0.2029  1.2051
   13MOL0     H 1733  -0.337   4.464   8.723  0.9334  0.5602 -1.2571
   13MOL0     H 1734  -0.326   4.470   8.549  3.8366  2.1852 -0.3576
   13MOL0     H 1735   0.082   3.967   9.397 -2.7393 -4.8309  2.5880
   13MOL0     H 1736   0.057   3.917   9.633  0.0369 -0.0331  0.4236
   13MOL0     H 1737   0.007   3.940   9.979  0.2103  2.8141  0.6543
   13MOL0     H 1738   0.022   3.838  10.202 -0.3938 -1.3110  0.2616
   13MOL0     H 1739  -0.178   4.857   9.989  0.2597 -1.7873  4.4782
   13MOL0     H 1740  -0.001   4.910   9.823  0.6501  1.6535 -0.3923
   13MOL0     H 1741   0.442   5.055   9.755  2.0148  1.5663  1.6959
   13MOL0     H 1742   0.576   5.047   9.583 -1.3326 -2.0099  2.6495
   13MOL0     H 1743   0.707   5.085   9.394  4.5723  1.4841 -3.3748
   13MOL0     H 1744   0.660   5.092   9.216 -2.8124  0.2466  0.0100
   13MOL0     H 1745   0.482   4.940   9.233 -1.8709  0.7224  1.7756
   13MOL0     H 1746   0.517   4.905   9.409  0.1544  1.0717  0.9150
   13MOL0     H 1747   0.600   4.713   9.300 -1.2062  1.8447 -0.9534
   13MOL0     H 1748   0.740   4.814   9.342 -1.6233 -0.9183  1.4969
   13MOL0     H 1749   0.619   4.830   9.061  1.4733 -1.6595 -0.7430
   13MOL0     H 1750   0.770   4.894   9.125 -1.3660  1.1743 -1.3032
   13MOL0     H 1751   0.837   4.492   9.009 -3.9635 -1.0341 -1.6594
   13MOL0     H 1752   0.342   5.329   9.365 -1.8427  0.4123 -0.7089
   13MOL0     H 1753   0.194   5.474   9.506  2.9249 -1.8130 -2.2981
   13MOL0     H 1754   0.106   5.333   9.439 -0.9934  1.9606 -0.7913
   13MOL0     H 1755   0.074   5.384   9.605  0.4838  0.4675 -0.1100
   14MOL0     O 1756   3.532   9.279   7.474  0.0253 -0.1767 -0.1252
   14MOL0     C 1757   3.544   9.280   7.353  0.3379  0.4105 -1.2844
   14MOL0     O 1758   3.536   9.387   7.270  0.1313  0.6432  0.1391
   14MOL0     C 1759   3.503   9.510   7.322 -0.7217  0.1595  0.1786
   14MOL0     C 1760   3.495   9.607   7.215  0.2520  0.7339 -0.6243
   14MOL0     C 1761   3.484   9.742   7.242  0.6271 -0.1235  0.1644
   14MOL0     C 1762   3.493   9.794   7.375 -0.1295 -0.1256  0.1352
   14MOL0     O 1763   3.514   9.930   7.409  0.6260  0.3683 -1.1179
   14MOL0     C 1764   3.447  10.019   7.317 -0.5132  0.3859 -0.0177
   14MOL0     C 1765   3.423  10.151   7.388 -0.6477 -0.2268 -0.5546
   14MOL0     C 1766   3.328  10.155   7.509 -1.1623  0.3832  0.9237
   14MOL0     C 1767   3.192  10.221   7.480  0.6702 -0.1774 -0.8895
   14MOL0     C 1768   3.184  10.377   7.478 -0.4445  0.8187  0.7238
   14MOL0     C 1769   3.228  10.437   7.615 -0.5101  0.2161  1.2320
   14MOL0     C 1770   3.217  10.593   7.595  0.3161  0.7039  0.3554
   14MOL0     C 1771   3.312  10.659   7.696  0.3515  0.5410 -0.0374
   14MOL0     N 1772   3.326  10.800   7.675  0.2176  0.4880  0.1982
   14MOL0     C 1773   3.421  10.861   7.590  0.5633 -0.3264  1.1182
   14MOL0     C 1774   3.380  10.984   7.569 -0.0645 -0.7575  0.3342
   14MOL0     C 1775   3.448  11.071   7.467  0.3127 -0.8949 -0.0544
   14MOL0     C 1776   3.583  11.107   7.518 -0.5311  0.0631  0.2377
   14MOL0     C 1777   3.644  11.210   7.422 -0.4301  0.2380  0.0159
   14MOL0     C 1778   3.752  11.150   7.324 -0.6099 -0.3931 -0.0569
   14MOL0     O 1779   3.780  11.233   7.209  0.0966 -0.9444 -0.2295
   14MOL0     C 1780   3.857  11.347   7.205 -0.9397 -0.8385 -0.9362
   14MOL0     C 1781   3.922  11.364   7.087  0.7668 -0.5617 -0.4791
   14MOL0     C 1782   3.996  11.475   7.062  0.7334  0.0615 -0.0851
   14MOL0     C 1783   4.017  11.568   7.166 -0.0313  0.2190  0.9109
   14MOL0     C 1784   4.112  11.684   7.143 -0.3037 -0.4008 -0.4589
   14MOL0     O 1785   4.146  11.771   7.253  0.2200  0.2226 -0.0848
   14MOL0     C 1786   4.238  11.871   7.223  0.8070 -0.2026  0.3447
   14MOL0     C 1787   4.365  11.851   7.164  0.1071  0.6187 -0.3157
   14MOL0     C 1788   4.442  11.960   7.124 -0.2731  0.0028  0.6695
   14MOL0     C 1789   4.391  12.089   7.125  0.5839 -0.7602  0.0324
   14MOL0     O 1790   4.448  12.195   7.057  0.0457  0.5863  0.4604
   14MOL0     C 1791   4.494  12.163   6.917 -0.2170 -0.8983 -0.8360
   14MOL0     C 1792   4.498  12.289   6.829  0.8801  0.0686  0.5468
   14MOL0     C 1793   4.587  12.411   6.866  0.3669  0.2413  0.0425
   14MOL0     C 1794   4.714  12.368   6.931 -1.2129  0.6121  0.7760
   14MOL0     C 1795   4.801  12.502   6.949 -0.4398 -0.2239  0.2030
   14MOL0     C 1796   4.867  12.539   6.821  0.5858  0.0715  0.6993
   14MOL0     C 1797   4.990  12.628   6.849 -0.6707  0.5541  0.9363
   14MOL0     C 1798   5.049  12.696   6.716  0.2384 -0.0685 -0.7069
   14MOL0    Cl 1799   4.924  12.787   6.629  0.0058 -0.1896 -0.1640
   14MOL0     C 1800   4.257  12.103   7.176  0.1604  0.2834 -0.6770
   14MOL0     C 1801   4.183  12.004   7.231 -0.0827  1.7291 -0.2928
   14MOL0     O 1802   4.164  11.685   7.038 -0.3037  0.4406  1.2929
   14MOL0     C 1803   3.945  11.553   7.284  0.0826 -0.6555  0.7347
   14MOL0     C 1804   3.863  11.444   7.304  1.1868  0.2372  0.2535
   14MOL0     N 1805   3.281  11.003   7.656  0.7133  0.9230 -0.0959
   14MOL0     N 1806   3.244  10.898   7.727  0.3153  0.1454  0.5192
   14MOL0     C 1807   3.510   9.698   7.474 -0.0906  0.1664  0.1906
   14MOL0     C 1808   3.509   9.562   7.452  0.6709  0.2188 -0.5532
   14MOL0     C 1809   3.589   9.160   7.281 -0.0463  0.6635 -0.7524
   14MOL0     C 1810   3.640   9.175   7.147  0.6606 -0.5270  0.9373
   14MOL0     C 1811   3.697   9.077   7.067  0.1700 -0.1126  0.4508
   14MOL0     C 1812   3.716   8.967   7.127  0.3423  0.4730  0.7269
   14MOL0     O 1813   3.781   8.858   7.067  0.3019  0.8342 -0.5449
   14MOL0     C 1814   3.783   8.838   6.924  0.2449  0.5935 -0.3982
   14MOL0     C 1815   3.794   8.691   6.896  0.2152  0.0937 -0.0076
   14MOL0     C 1816   3.764   8.650   6.748  0.2132 -0.3796  0.9879
   14MOL0     C 1817   3.801   8.757   6.648  0.0266  0.2449 -0.1112
   14MOL0     C 1818   3.756   8.713   6.516  0.4954 -0.7095  0.8143
   14MOL0     C 1819   3.707   8.697   6.401 -0.4308  0.2156 -0.6342
   14MOL0     C 1820   3.671   8.938   7.252 -0.2657  0.0307  0.3229
   14MOL0     C 1821   3.608   9.026   7.337  0.1266 -0.6684  0.5358
   14MOL0     C 1822   3.564   8.976   7.473  0.1877 -0.5097 -0.3025
   14MOL0     H 1823   3.496   9.573   7.111  1.6733 -1.9243  0.1563
   14MOL0     H 1824   3.470   9.818   7.166  0.5620 -1.0555 -0.7759
   14MOL0     H 1825   3.505  10.031   7.225 -3.1864  2.5582 -1.5673
   14MOL0     H 1826   3.352   9.976   7.285 -1.4895  1.3180  1.4723
   14MOL0     H 1827   3.390  10.213   7.304  0.8993 -0.6983 -1.5517
   14MOL0     H 1828   3.518  10.197   7.416 -1.3552  0.7812  0.2892
   14MOL0     H 1829   3.378  10.189   7.600 -0.4404  0.6181  0.4481
   14MOL0     H 1830   3.304  10.051   7.535 -1.6317 -0.2517 -1.7591
   14MOL0     H 1831   3.142  10.191   7.388  1.8934 -0.0182 -1.6242
   14MOL0     H 1832   3.127  10.196   7.564  2.7045  0.8058  1.0930
   14MOL0     H 1833   3.232  10.417   7.388 -1.4030  0.7503  0.1659
   14MOL0     H 1834   3.077  10.396   7.466 -0.6125 -0.7189 -0.4007
   14MOL0     H 1835   3.152  10.406   7.687 -1.2285  2.9052  1.7487
   14MOL0     H 1836   3.330  10.403   7.636 -1.0821 -1.0607  2.0458
   14MOL0     H 1837   3.119  10.638   7.613  0.4330  2.5316 -2.8212
   14MOL0     H 1838   3.246  10.628   7.495  0.7613 -1.5255 -0.3569
   14MOL0     H 1839   3.258  10.651   7.791  0.1996  0.1465 -0.1569
   14MOL0     H 1840   3.403  10.598   7.697 -1.5125 -2.4073  0.4228
   14MOL0     H 1841   3.484  10.823   7.511  1.6159  2.0431  0.7193
   14MOL0     H 1842   3.451  11.025   7.367  1.8096 -0.6724 -0.1270
   14MOL0     H 1843   3.383  11.159   7.456 -0.1936 -1.2013  0.4293
   14MOL0     H 1844   3.578  11.152   7.618  3.0441  1.9140 -0.2868
   14MOL0     H 1845   3.641  11.014   7.524 -1.2875 -0.3963  0.6631
   14MOL0     H 1846   3.682  11.291   7.485  2.3664 -0.9868  0.0496
   14MOL0     H 1847   3.577  11.259   7.351  0.3101  0.4856 -0.5201
   14MOL0     H 1848   3.719  11.051   7.290 -1.5576 -0.5716  1.3136
   14MOL0     H 1849   3.842  11.116   7.376  0.1228 -0.2863 -1.2140
   14MOL0     H 1850   3.915  11.293   7.005 -0.7950 -1.0688  0.0627
   14MOL0     H 1851   4.050  11.475   6.968 -0.2572  1.5687 -0.6809
   14MOL0     H 1852   4.406  11.751   7.154 -1.4344 -0.0886  0.2220
   14MOL0     H 1853   4.547  11.935   7.113 -0.0499 -1.1758  4.2327
   14MOL0     H 1854   4.595  12.122   6.924 -0.0690 -0.3213  1.2558
   14MOL0     H 1855   4.420  12.095   6.873 -2.6197 -0.2159  1.8353
   14MOL0     H 1856   4.524  12.254   6.729 -1.0715 -0.0718  0.0626
   14MOL0     H 1857   4.397  12.329   6.819  1.3190  1.1091  0.1442
   14MOL0     H 1858   4.596  12.458   6.768  1.5814 -1.7058 -0.8447
   14MOL0     H 1859   4.534  12.485   6.927  0.4062 -1.3851  2.1909
   14MOL0     H 1860   4.765  12.284   6.882  0.4750  1.0007  1.7869
   14MOL0     H 1861   4.675  12.325   7.024  0.6544  0.2430  1.4419
   14MOL0     H 1862   4.884  12.481   7.018 -0.7252 -0.6734  0.4140
   14MOL0     H 1863   4.740  12.585   6.985 -1.7888  0.3701 -3.1404
   14MOL0     H 1864   4.909  12.456   6.763 -0.7672  0.6033 -1.1269
   14MOL0     H 1865   4.793  12.592   6.760  1.4265  0.6974  0.1984
   14MOL0     H 1866   5.071  12.572   6.896  2.0243  3.0027 -0.4219
   14MOL0     H 1867   4.965  12.713   6.914  2.3162  0.6815  2.0576
   14MOL0     H 1868   5.133  12.756   6.753 -0.9568 -0.9814  4.1798
   14MOL0     H 1869   5.091  12.624   6.644 -1.1901 -1.3691 -0.2893
   14MOL0     H 1870   4.207  12.199   7.169 -0.7517  0.0306  1.5832
   14MOL0     H 1871   4.083  12.017   7.270  1.4055  0.9442  4.4687
   14MOL0     H 1872   3.935  11.630   7.359 -0.1573  1.4767 -1.3696
   14MOL0     H 1873   3.806  11.425   7.394 -0.8962 -1.7966 -1.3727
   14MOL0     H 1874   3.515   9.738   7.575  0.1322 -0.4425  0.4217
   14MOL0     H 1875   3.502   9.502   7.542  3.8697 -0.3677 -0.5684
   14MOL0     H 1876   3.640   9.273   7.099  1.2710  0.2568  2.4554
   14MOL0     H 1877   3.734   9.092   6.966  3.9215 -0.2169  1.6687
   14MOL0     H 1878   3.860   8.890   6.867 -0.4020 -0.7395 -2.5908
   14MOL0     H 1879   3.687   8.850   6.874  0.3898 -0.7196 -1.0483
   14MOL0     H 1880   3.735   8.630   6.966  3.9298 -1.4272  2.0583
   14MOL0     H 1881   3.894   8.650   6.909  0.0586 -1.5256 -3.0104
   14MOL0     H 1882   3.662   8.616   6.726 -0.8008  2.0243  1.5419
   14MOL0     H 1883   3.827   8.563   6.729 -1.4829 -1.5385  0.4454
   14MOL0     H 1884   3.749   8.848   6.677  0.9709  0.0378  2.4902
   14MOL0     H 1885   3.910   8.771   6.650 -0.1197  1.5089 -0.3735
   14MOL0     H 1886   3.667   8.680   6.303 -1.5757  1.4712 -0.4186
   14MOL0     H 1887   3.711   8.844   7.287  1.4307 -0.1076 -1.7916
   14MOL0     H 1888   3.640   8.983   7.551 -0.7114  1.4485  0.4512
   14MOL0     H 1889   3.484   9.037   7.516 -0.0907 -2.2505  1.8147
   14MOL0     H 1890   3.516   8.877   7.470 -0.7711 -0.0323 -1.3213
   15MOL0     O 1891   1.245   3.204   0.358  0.0589 -0.3148 -0.6813
   15MOL0     C 1892   1.157   3.187   0.448 -0.1323  0.1853  0.6263
   15MOL0     O 1893   1.112   3.061   0.487  0.3177  0.4335 -0.5998
   15MOL0     C 1894   1.168   2.946   0.423  0.0987  0.5177  0.1690
   15MOL0     C 1895   1.087   2.837   0.395  0.3590 -0.1362  0.2225
   15MOL0     C 1896   1.143   2.716   0.344  1.0322 -0.8450  1.1821
   15MOL0     C 1897   1.286   2.710   0.327  0.5016  0.0853 -0.5075
   15MOL0     O 1898   1.322   2.598   0.265  0.0632  0.3092 -0.8294
   15MOL0     C 1899   1.416   2.514   0.344  0.2964 -0.2472  0.2575
   15MOL0     C 1900   1.389   2.367   0.325  0.1836  0.1711  0.0915
   15MOL0     C 1901   1.464   2.314   0.207  0.2656  0.7346  0.3426
   15MOL0     C 1902   1.463   2.157   0.199  0.2840 -1.0240  0.4660
   15MOL0     C 1903   1.319   2.109   0.194  0.8187  0.5647 -0.8088
   15MOL0     C 1904   1.313   1.951   0.181  0.2398  0.2177 -0.7361
   15MOL0     C 1905   1.168   1.894   0.221 -0.3397 -0.4834 -0.2432
   15MOL0     C 1906   1.193   1.743   0.226  0.0588  0.2036  0.2584
   15MOL0     N 1907   1.096   1.665   0.296 -0.5668  0.2091 -0.1237
   15MOL0     C 1908   1.111   1.643   0.430  0.5074  0.2916  0.0241
   15MOL0     C 1909   0.997   1.580   0.468 -0.1637  0.3810 -0.7866
   15MOL0     C 1910   0.974   1.538   0.612  0.2413  0.3899  0.6768
   15MOL0     C 1911   0.982   1.380   0.630 -0.2318 -0.9236  0.2797
   15MOL0     C 1912   0.996   1.347   0.783 -0.3057  0.1343 -0.3924
   15MOL0     C 1913   0.995   1.190   0.806  0.4467  0.1697  0.6793
   15MOL0     O 1914   1.012   1.156   0.942  0.1547 -0.3303  1.2415
   15MOL0     C 1915   0.998   1.022   0.968  0.4976 -0.6623 -0.3064
   15MOL0     C 1916   1.042   0.982   1.090  0.8381  0.5264 -0.1518
   15MOL0     C 1917   1.052   0.848   1.131 -0.6026 -0.5897 -0.1809
   15MOL0     C 1918   1.017   0.740   1.043 -0.1718 -0.4209 -0.1190
   15MOL0     C 1919   1.047   0.598   1.072  0.3201 -0.1014 -0.3564
   15MOL0     O 1920   0.995   0.507   0.988 -0.4570  0.5793  0.2775
   15MOL0     C 1921   1.025   0.372   0.999 -0.0078 -0.0807  0.1159
   15MOL0     C 1922   1.155   0.327   1.002  0.0737  1.1198  0.0991
   15MOL0     C 1923   1.187   0.190   1.001  0.3229 -0.1798  0.4506
   15MOL0     C 1924   1.083   0.093   0.985 -0.9274 -0.1711 -0.2059
   15MOL0     O 1925   1.104  -0.041   0.989 -0.5391 -0.4342  0.6644
   15MOL0     C 1926   1.198  -0.103   0.900 -0.2973  0.0919  0.2872
   15MOL0     C 1927   1.249  -0.238   0.970 -0.0436 -0.1035 -1.3590
   15MOL0     C 1928   1.319  -0.326   0.869  0.9757 -0.5391  0.3181
   15MOL0     C 1929   1.352  -0.468   0.938  0.4598  0.0583  0.5192
   15MOL0     C 1930   1.499  -0.488   1.000  0.5293 -0.3582  0.2159
   15MOL0     C 1931   1.533  -0.625   1.063  0.4033  0.5528  0.2388
   15MOL0     C 1932   1.463  -0.645   1.197 -0.3356  0.9884 -0.6881
   15MOL0     C 1933   1.509  -0.783   1.229  0.9465 -0.2723  0.3935
   15MOL0    Cl 1934   1.450  -0.832   1.388 -0.1800 -0.0501 -0.0927
   15MOL0     C 1935   0.947   0.137   0.993 -0.3560  0.0139  0.4155
   15MOL0     C 1936   0.925   0.268   0.992  0.4956  0.4729 -0.2570
   15MOL0     O 1937   1.111   0.581   1.173 -0.1442  0.5206  0.6858
   15MOL0     C 1938   0.956   0.782   0.920  0.1268 -0.6227 -0.3963
   15MOL0     C 1939   0.955   0.922   0.881  0.2810  0.1180  0.1005
   15MOL0     N 1940   0.926   1.560   0.355 -0.8534 -0.4999  0.8954
   15MOL0     N 1941   0.981   1.611   0.249  0.5421 -0.6165  1.2755
   15MOL0     C 1942   1.372   2.813   0.365 -0.2703  0.0155 -0.5769
   15MOL0     C 1943   1.307   2.933   0.409 -0.2957 -0.5774 -0.7521
   15MOL0     C 1944   1.092   3.307   0.521  0.2907  0.4748 -0.5009
   15MOL0     C 1945   0.993   3.272   0.623 -0.0980 -0.2205  1.3022
   15MOL0     C 1946   0.920   3.369   0.680 -0.3986 -0.3689 -0.0436
   15MOL0     C 1947   0.957   3.501   0.665  0.3913 -0.1582 -0.8319
   15MOL0     O 1948   0.893   3.598   0.742 -1.0445 -0.1548 -0.3458
   15MOL0     C 1949   0.834   3.706   0.667 -0.1790 -0.0835 -1.7014
   15MOL0     C 1950   0.781   3.812   0.772 -0.0817  0.8117 -0.1844
   15MOL0     C 1951   0.889   3.861   0.873 -0.6025 -0.5506 -0.0125
   15MOL0     C 1952   0.860   4.006   0.921  0.2684  1.3775  1.3766
   15MOL0     C 1953   0.967   4.062   1.007  0.1954 -0.8764 -0.2374
   15MOL0     C 1954   1.046   4.130   1.082  0.7989 -0.3040  0.7819
   15MOL0     C 1955   1.057   3.537   0.581  0.5196  0.2261 -0.6081
   15MOL0     C 1956   1.129   3.445   0.508  0.8705 -0.0057 -0.8001
   15MOL0     C 1957   1.237   3.489   0.424  0.3345  0.0336  0.4348
   15MOL0     H 1958   0.981   2.829   0.417  0.2141  0.2222 -0.3176
   15MOL0     H 1959   1.086   2.625   0.327 -0.0739 -0.3702  2.1526
   15MOL0     H 1960   1.515   2.542   0.306 -1.3542  4.4769 -1.3341
   15MOL0     H 1961   1.402   2.531   0.452 -0.8924  0.6695 -0.0187
   15MOL0     H 1962   1.282   2.345   0.325  0.0175  0.8872  1.7448
   15MOL0     H 1963   1.431   2.316   0.412  1.5918  0.2190 -0.5271
   15MOL0     H 1964   1.565   2.355   0.209 -0.2788  2.1035  0.9478
   15MOL0     H 1965   1.416   2.351   0.116 -0.1541  0.7143  0.5517
   15MOL0     H 1966   1.508   2.128   0.104  2.7446  1.0593  0.8858
   15MOL0     H 1967   1.525   2.114   0.279  1.4328 -2.6189 -1.2084
   15MOL0     H 1968   1.270   2.138   0.287 -0.1218 -0.0637 -1.0964
   15MOL0     H 1969   1.257   2.166   0.124  0.7611 -0.9990 -2.0970
   15MOL0     H 1970   1.347   1.902   0.090  1.8016  1.4790 -0.8758
   15MOL0     H 1971   1.390   1.915   0.250  3.0591  0.0195 -3.7599
   15MOL0     H 1972   1.100   1.914   0.138  0.0086 -0.6233 -0.5657
   15MOL0     H 1973   1.143   1.927   0.322  3.1227  0.3270  0.4815
   15MOL0     H 1974   1.215   1.708   0.125 -1.1830 -1.2503  0.4654
   15MOL0     H 1975   1.291   1.735   0.275  0.0597  1.2244  0.4536
   15MOL0     H 1976   1.187   1.679   0.497  0.1326  1.0993  0.0300
   15MOL0     H 1977   1.048   1.595   0.669  1.7668  2.9759 -3.4444
   15MOL0     H 1978   0.875   1.568   0.647 -0.2941 -2.5151  1.9379
   15MOL0     H 1979   0.898   1.332   0.580  1.8769 -1.1992 -3.3300
   15MOL0     H 1980   1.060   1.354   0.559  0.2424  2.1459 -0.4990
   15MOL0     H 1981   0.923   1.393   0.850  1.0168  1.1943  0.3873
   15MOL0     H 1982   1.091   1.378   0.828 -0.4205 -0.8754  0.5900
   15MOL0     H 1983   1.082   1.152   0.752 -0.5852  2.3313 -2.8850
   15MOL0     H 1984   0.901   1.145   0.772  1.6686 -1.0991 -1.2461
   15MOL0     H 1985   1.075   1.063   1.154  1.0150 -0.0803  0.5395
   15MOL0     H 1986   1.096   0.832   1.229 -1.1129  0.7784  0.2896
   15MOL0     H 1987   1.240   0.393   1.011  1.9761 -1.3237  0.9088
   15MOL0     H 1988   1.287   0.155   1.025  1.1802  2.7113  1.5303
   15MOL0     H 1989   1.156  -0.120   0.800  0.7486 -1.2780  0.0425
   15MOL0     H 1990   1.286  -0.040   0.887 -0.1727  0.2511  1.7947
   15MOL0     H 1991   1.327  -0.215   1.042 -0.6951 -2.3483  0.1784
   15MOL0     H 1992   1.159  -0.280   1.016  0.6636  0.5055  0.6782
   15MOL0     H 1993   1.244  -0.343   0.791  0.6294 -2.2689  0.9908
   15MOL0     H 1994   1.406  -0.281   0.820  0.3759  1.6440  1.1460
   15MOL0     H 1995   1.331  -0.552   0.872 -1.7763  2.1935 -1.6976
   15MOL0     H 1996   1.276  -0.475   1.016 -1.9905 -1.9233 -1.8770
   15MOL0     H 1997   1.514  -0.408   1.073  0.8562 -1.3784  1.2882
   15MOL0     H 1998   1.568  -0.468   0.918 -0.0027 -0.7356 -0.3309
   15MOL0     H 1999   1.492  -0.693   0.988 -3.4710  1.8569  0.9410
   15MOL0     H 2000   1.639  -0.649   1.071  0.6004 -0.0988 -3.0544
   15MOL0     H 2001   1.353  -0.648   1.194 -0.4228  1.3006  0.8652
   15MOL0     H 2002   1.496  -0.576   1.276  1.5944 -0.3770 -0.2500
   15MOL0     H 2003   1.471  -0.855   1.155 -0.1762  0.1049  0.5845
   15MOL0     H 2004   1.617  -0.800   1.224  0.5690 -2.8261 -1.0037
   15MOL0     H 2005   0.868   0.064   0.982 -1.7393  1.7053 -1.5986
   15MOL0     H 2006   0.822   0.303   0.983  1.1757  2.0285 -3.8324
   15MOL0     H 2007   0.918   0.699   0.861  1.3834 -1.6786  0.2375
   15MOL0     H 2008   0.916   0.941   0.781  2.4208  4.9970 -0.1105
   15MOL0     H 2009   1.478   2.808   0.344  0.5916 -0.5228  3.2262
   15MOL0     H 2010   1.378   3.010   0.434 -0.5133 -0.9298  1.0987
   15MOL0     H 2011   0.963   3.172   0.656  2.1853 -1.0491  1.0400
   15MOL0     H 2012   0.842   3.350   0.754 -0.9576 -0.3253 -0.6151
   15MOL0     H 2013   0.746   3.685   0.606  0.1095  1.7940 -2.8771
   15MOL0     H 2014   0.908   3.769   0.618 -1.6204  2.4307 -0.8519
   15MOL0     H 2015   0.703   3.766   0.833  1.4338 -2.4869 -0.5482
   15MOL0     H 2016   0.734   3.903   0.733 -2.0137  0.7720  1.8772
   15MOL0     H 2017   0.981   3.870   0.816 -2.7105  1.7318 -3.3773
   15MOL0     H 2018   0.902   3.799   0.963  1.2662 -1.5042 -0.8812
   15MOL0     H 2019   0.844   4.069   0.833 -0.8711 -3.8808 -2.6856
   15MOL0     H 2020   0.770   4.008   0.983 -0.6405  1.5305  0.0932
   15MOL0     H 2021   1.119   4.170   1.149 -0.6319  5.3640 -0.5423
   15MOL0     H 2022   1.090   3.638   0.557  2.1390 -0.7314 -2.7910
   15MOL0     H 2023   1.290   3.577   0.460  0.0045  0.7081 -0.6769
   15MOL0     H 2024   1.314   3.420   0.387  0.2397 -0.9699  1.9977
   15MOL0     H 2025   1.189   3.516   0.329  3.8254  1.5948 -1.0324
   16MOL0     O 2026   3.772   2.399   8.673  0.5962 -0.2475  0.3707
   16MOL0     C 2027   3.677   2.466   8.685  0.0876 -1.1249  0.2568
   16MOL0     O 2028   3.552   2.428   8.738  0.3108 -0.7979 -0.1718
   16MOL0     C 2029   3.540   2.304   8.797 -0.7085  0.0012 -0.0993
   16MOL0     C 2030   3.596   2.301   8.920  0.1263  0.2661  0.3078
   16MOL0     C 2031   3.596   2.185   8.996  0.2068  0.8085 -0.3094
   16MOL0     C 2032   3.541   2.071   8.948  0.0773 -0.2131 -0.6919
   16MOL0     O 2033   3.548   1.963   9.033 -0.4969  0.3576 -0.4291
   16MOL0     C 2034   3.450   1.870   9.020  0.3943  0.3187  0.3764
   16MOL0     C 2035   3.441   1.768   9.144 -0.0639 -0.4124  0.1484
   16MOL0     C 2036   3.391   1.630   9.111 -0.3211 -0.0233 -0.0337
   16MOL0     C 2037   3.410   1.536   9.232 -0.3311  0.9503  0.0616
   16MOL0     C 2038   3.562   1.486   9.262  0.2508  0.4888  0.1448
   16MOL0     C 2039   3.569   1.378   9.371  0.1819  0.3046  0.3970
   16MOL0     C 2040   3.562   1.438   9.515 -0.0507 -0.4429 -0.0275
   16MOL0     C 2041   3.415   1.437   9.551  0.2172 -0.1999  0.3914
   16MOL0     N 2042   3.385   1.408   9.694  1.3508  0.5716 -0.0745
   16MOL0     C 2043   3.272   1.451   9.759  0.4287 -0.3862 -0.4194
   16MOL0     C 2044   3.255   1.382   9.876 -0.6711 -0.2377 -0.5234
   16MOL0     C 2045   3.160   1.404   9.979  0.5091  0.2436 -0.3950
   16MOL0     C 2046   3.215   1.388  10.127 -0.2644  0.3981 -0.2431
   16MOL0     C 2047   3.090   1.317  10.209 -0.1618  0.6083  0.4212
   16MOL0     C 2048   2.986   1.420  10.245  0.6398 -0.4563  0.1063
   16MOL0     O 2049   3.053   1.521  10.326 -0.2588 -0.1084 -0.6730
   16MOL0     C 2050   3.074   1.505  10.468 -0.7218  0.7852  0.3787
   16MOL0     C 2051   2.982   1.434  10.548  0.5525  0.3355 -0.1463
   16MOL0     C 2052   3.003   1.408  10.687 -0.8904  0.1714  0.8304
   16MOL0     C 2053   3.125   1.450  10.744  0.2935  0.1626 -0.1429
   16MOL0     C 2054   3.156   1.405  10.882 -0.2167  1.1529  0.6505
   16MOL0     O 2055   3.279   1.433  10.938 -0.8314 -0.3360  0.4573
   16MOL0     C 2056   3.327   1.356  11.043  0.2800  0.4435  0.7230
   16MOL0     C 2057   3.375   1.238  11.001  0.2016 -0.9802 -0.7210
   16MOL0     C 2058   3.442   1.158  11.096 -0.2939 -0.3090 -0.3878
   16MOL0     C 2059   3.465   1.201  11.228  0.3190 -0.0535 -0.5106
   16MOL0     O 2060   3.544   1.116  11.296 -0.6557 -0.7194  0.7238
   16MOL0     C 2061   3.522   1.114  11.435 -0.8150  0.5376 -0.9161
   16MOL0     C 2062   3.638   1.156  11.517 -0.1790  0.4169 -0.5571
   16MOL0     C 2063   3.669   1.309  11.527  0.3026 -0.0525  0.5838
   16MOL0     C 2064   3.810   1.324  11.602  0.3260 -0.7620  0.5851
   16MOL0     C 2065   3.802   1.307  11.762  0.2903 -0.3711  0.3669
   16MOL0     C 2066   3.703   1.395  11.833  0.4685 -0.0182  0.6768
   16MOL0     C 2067   3.682   1.413  11.981 -0.0166  0.5667 -0.4895
   16MOL0     C 2068   3.804   1.463  12.041  0.1879  0.2544 -0.3003
   16MOL0    Cl 2069   3.777   1.461  12.212  0.1208 -0.8914 -0.2386
   16MOL0     C 2070   3.396   1.321  11.264  0.3462 -0.3339 -0.2699
   16MOL0     C 2071   3.332   1.394  11.166 -0.7074  0.0410 -0.2006
   16MOL0     O 2072   3.073   1.336  10.940  0.0873 -0.0044 -0.0996
   16MOL0     C 2073   3.224   1.523  10.669  1.3659  0.5378 -1.0454
   16MOL0     C 2074   3.191   1.548  10.532 -0.5379 -1.0616 -0.1796
   16MOL0     N 2075   3.346   1.279   9.873  0.5822 -0.3856 -0.1586
   16MOL0     N 2076   3.419   1.292   9.767 -0.3904  0.4120  0.4062
   16MOL0     C 2077   3.491   2.076   8.811 -1.1340 -0.3872 -0.6192
   16MOL0     C 2078   3.509   2.188   8.732  0.5906 -0.4175 -0.7419
   16MOL0     C 2079   3.709   2.610   8.651 -1.3214  0.7872 -1.1752
   16MOL0     C 2080   3.598   2.682   8.632  0.6752 -0.2746 -0.0777
   16MOL0     C 2081   3.614   2.818   8.588  0.1264  0.7644 -0.7078
   16MOL0     C 2082   3.735   2.868   8.562 -0.3571 -0.3475 -0.7681
   16MOL0     O 2083   3.744   2.983   8.494  0.3934 -0.1106  0.8826
   16MOL0     C 2084   3.851   3.002   8.395  0.2203 -0.2576 -0.1925
   16MOL0     C 2085   3.813   3.113   8.294  0.2516 -0.5579 -0.7094
   16MOL0     C 2086   3.905   3.126   8.171 -0.6887 -0.1057 -0.3097
   16MOL0     C 2087   3.915   3.270   8.127 -0.1082 -0.5306 -0.2447
   16MOL0     C 2088   3.999   3.291   8.003 -0.1827 -0.0900  0.0875
   16MOL0     C 2089   4.052   3.336   7.905  0.0862 -0.2294  0.0051
   16MOL0     C 2090   3.848   2.794   8.596  0.3170  0.7283  0.5331
   16MOL0     C 2091   3.839   2.662   8.645 -1.0722  0.0235 -0.4714
   16MOL0     C 2092   3.963   2.591   8.679  0.4126  0.9089 -0.0244
   16MOL0     H 2093   3.641   2.390   8.963  0.5940  0.9309 -1.4628
   16MOL0     H 2094   3.643   2.195   9.094  0.7750 -0.0632 -0.4825
   16MOL0     H 2095   3.355   1.914   8.988  0.2881 -0.1498  0.0419
   16MOL0     H 2096   3.476   1.806   8.935 -1.8080  0.4217 -0.4471
   16MOL0     H 2097   3.383   1.811   9.226 -0.0790  0.8082 -0.4719
   16MOL0     H 2098   3.541   1.760   9.188  0.4697  2.5439 -0.2744
   16MOL0     H 2099   3.447   1.594   9.023  1.9181  2.0054  0.4480
   16MOL0     H 2100   3.286   1.643   9.083  0.5850  0.6367 -3.7530
   16MOL0     H 2101   3.376   1.589   9.322 -3.2625 -0.2134 -0.2250
   16MOL0     H 2102   3.341   1.456   9.202  0.4580  0.9881 -1.9979
   16MOL0     H 2103   3.609   1.434   9.178 -1.1835  0.6844 -0.8182
   16MOL0     H 2104   3.635   1.559   9.296  1.0508 -1.4478  2.9711
   16MOL0     H 2105   3.494   1.302   9.348 -0.2256  1.1381 -1.1468
   16MOL0     H 2106   3.663   1.323   9.358 -2.1110 -3.4112 -2.6258
   16MOL0     H 2107   3.605   1.537   9.532 -0.8976 -0.2275  0.9016
   16MOL0     H 2108   3.609   1.371   9.588  2.0819 -0.2288 -1.1018
   16MOL0     H 2109   3.365   1.532   9.533  0.5359  0.2187  1.5903
   16MOL0     H 2110   3.361   1.361   9.493  0.9741 -0.6651  0.2907
   16MOL0     H 2111   3.208   1.536   9.739 -0.1136  1.0712  5.4868
   16MOL0     H 2112   3.112   1.503   9.977  0.1875  0.0788 -1.6547
   16MOL0     H 2113   3.075   1.341   9.951 -0.3054  1.4936 -0.8353
   16MOL0     H 2114   3.311   1.336  10.130 -1.1785 -1.3086  2.0650
   16MOL0     H 2115   3.236   1.487  10.169  0.7309  0.6258 -1.2121
   16MOL0     H 2116   3.139   1.263  10.290 -0.4714 -2.3284 -1.1901
   16MOL0     H 2117   3.036   1.247  10.144 -1.5144  0.3606  1.7506
   16MOL0     H 2118   2.905   1.373  10.302 -0.1515  0.2693 -0.3763
   16MOL0     H 2119   2.941   1.469  10.157  0.9652 -0.1108  0.1304
   16MOL0     H 2120   2.894   1.394  10.498 -0.8701  0.7516  1.9165
   16MOL0     H 2121   2.929   1.350  10.742 -0.9532  1.3031  1.9839
   16MOL0     H 2122   3.369   1.200  10.899  1.1277 -1.6813 -0.5224
   16MOL0     H 2123   3.493   1.066  11.070  0.7802 -0.7121  2.7626
   16MOL0     H 2124   3.442   1.173  11.482  1.7687  2.2819  1.6667
   16MOL0     H 2125   3.501   1.012  11.466 -1.3615  1.4565  2.0470
   16MOL0     H 2126   3.626   1.117  11.618 -0.0433  2.6480  0.3792
   16MOL0     H 2127   3.726   1.114  11.468  2.0460  1.9858  1.8404
   16MOL0     H 2128   3.668   1.353  11.427  1.1836 -1.0264  0.1340
   16MOL0     H 2129   3.584   1.364  11.570  1.0415  1.9937 -0.4313
   16MOL0     H 2130   3.850   1.423  11.579  0.9142 -1.6533 -2.8492
   16MOL0     H 2131   3.886   1.257  11.559 -1.5699 -2.4267 -0.3760
   16MOL0     H 2132   3.896   1.350  11.799  1.6843  0.4970 -3.6812
   16MOL0     H 2133   3.803   1.204  11.799  2.2417 -0.1461  1.0671
   16MOL0     H 2134   3.733   1.493  11.795  0.4460 -0.0912  0.4680
   16MOL0     H 2135   3.602   1.371  11.797 -0.3248  2.8499  0.7437
   16MOL0     H 2136   3.671   1.317  12.032  0.8950  1.9092  2.4873
   16MOL0     H 2137   3.604   1.486  12.005  0.2251  0.2001  1.6666
   16MOL0     H 2138   3.890   1.398  12.020 -0.6022 -0.8247 -0.3138
   16MOL0     H 2139   3.817   1.563  12.000 -1.0505  0.3664 -0.4646
   16MOL0     H 2140   3.394   1.348  11.369  3.1922 -0.5297 -0.1050
   16MOL0     H 2141   3.280   1.486  11.192 -0.3029  0.3751 -0.5576
   16MOL0     H 2142   3.319   1.545  10.717  1.8747  1.6871 -2.4947
   16MOL0     H 2143   3.272   1.590  10.475  0.8038 -0.5027  2.0102
   16MOL0     H 2144   3.451   1.981   8.775 -0.3696  0.0248 -2.6884
   16MOL0     H 2145   3.472   2.194   8.631 -1.1204 -2.1667 -0.2775
   16MOL0     H 2146   3.494   2.652   8.646  0.3861  0.6283 -0.2020
   16MOL0     H 2147   3.522   2.876   8.578  0.4161  1.6722  1.3507
   16MOL0     H 2148   3.863   2.918   8.326  0.2851 -0.3032 -0.1250
   16MOL0     H 2149   3.946   3.020   8.446  0.8480  2.0521 -2.0121
   16MOL0     H 2150   3.800   3.207   8.349 -1.7246 -2.0965  1.6558
   16MOL0     H 2151   3.711   3.091   8.264 -0.9643 -0.3764  2.8739
   16MOL0     H 2152   3.865   3.072   8.085 -3.4068  1.2844 -0.0346
   16MOL0     H 2153   4.008   3.099   8.196 -1.8582 -3.4628  1.6257
   16MOL0     H 2154   3.823   3.308   8.083 -1.3438 -3.1691 -0.1275
   16MOL0     H 2155   3.942   3.342   8.204  3.3158  0.9468 -2.5742
   16MOL0     H 2156   4.078   3.391   7.816 -0.0719  2.4929  1.5517
   16MOL0     H 2157   3.943   2.830   8.560 -1.3202  0.8739 -4.4333
   16MOL0     H 2158   3.991   2.519   8.601  5.0657  1.6390  0.7350
   16MOL0     H 2159   4.050   2.657   8.679  0.5289  0.8285  2.3906
   16MOL0     H 2160   3.955   2.540   8.775 -0.7508  1.1372  0.0146
   17MOL0     O 2161   1.637   2.650   1.378  0.1554 -0.3894 -0.1479
   17MOL0     C 2162   1.676   2.728   1.292 -0.7546  0.4441 -1.5169
   17MOL0     O 2163   1.811   2.728   1.239  0.4855  0.7456 -0.2012
   17MOL0     C 2164   1.899   2.631   1.270  0.4837  0.1183  0.6711
   17MOL0     C 2165   1.865   2.501   1.301 -0.4378  0.2079  0.0664
   17MOL0     C 2166   1.967   2.417   1.333 -0.5371 -0.5851 -1.3856
   17MOL0     C 2167   2.107   2.448   1.323  1.1141  0.2813 -0.4139
   17MOL0     O 2168   2.192   2.350   1.342  0.0275  0.3726 -0.7207
   17MOL0     C 2169   2.319   2.366   1.291  1.1988  0.2051  0.6050
   17MOL0     C 2170   2.418   2.390   1.391  0.9030  0.6142 -0.4743
   17MOL0     C 2171   2.432   2.285   1.499 -0.3690 -0.3332  0.0245
   17MOL0     C 2172   2.560   2.319   1.579  0.1868 -0.7653 -0.2722
   17MOL0     C 2173   2.623   2.210   1.671 -0.8699 -0.7612  0.1595
   17MOL0     C 2174   2.709   2.287   1.775  1.3542  0.0063 -0.0314
   17MOL0     C 2175   2.815   2.397   1.732 -0.5681  0.5789  0.4265
   17MOL0     C 2176   2.900   2.358   1.612 -1.2333  0.6813  0.4601
   17MOL0     N 2177   2.991   2.467   1.554 -0.1306  1.2083  0.1911
   17MOL0     C 2178   3.126   2.461   1.561  0.7570 -0.0824  0.1362
   17MOL0     C 2179   3.168   2.561   1.479  0.5589 -0.1022  0.3082
   17MOL0     C 2180   3.312   2.595   1.464 -0.8823  0.2547  0.5105
   17MOL0     C 2181   3.325   2.740   1.426  1.0130  1.0975  0.9303
   17MOL0     C 2182   3.459   2.763   1.364 -0.1551  0.4893 -1.0393
   17MOL0     C 2183   3.463   2.886   1.281 -0.6295  0.8509 -0.3299
   17MOL0     O 2184   3.594   2.903   1.231 -0.0106  0.6759 -1.0070
   17MOL0     C 2185   3.627   3.021   1.168  0.4646  0.1239 -0.2267
   17MOL0     C 2186   3.758   3.054   1.173  0.6642 -0.3297  0.7669
   17MOL0     C 2187   3.798   3.172   1.124 -0.3459  0.9307 -0.0630
   17MOL0     C 2188   3.712   3.264   1.078 -0.2195 -0.5536 -0.1232
   17MOL0     C 2189   3.756   3.397   1.055 -1.0399  0.7167  0.0547
   17MOL0     O 2190   3.878   3.430   1.102 -0.0960 -0.2824 -0.6697
   17MOL0     C 2191   3.935   3.535   1.061  0.1933 -0.3891 -0.5024
   17MOL0     C 2192   3.909   3.658   1.115 -0.8531 -0.3132 -0.4428
   17MOL0     C 2193   3.994   3.767   1.094 -0.4909 -0.0343  0.6055
   17MOL0     C 2194   4.107   3.759   1.015 -0.6475 -0.4890  0.5387
   17MOL0     O 2195   4.195   3.858   0.973  0.9802 -0.3045 -1.0573
   17MOL0     C 2196   4.169   3.990   1.025  0.2335  0.8765 -0.0792
   17MOL0     C 2197   4.257   4.083   0.957 -0.1926 -0.2107 -0.6742
   17MOL0     C 2198   4.400   4.078   1.009  0.4232  0.5341 -1.1190
   17MOL0     C 2199   4.491   4.171   0.929 -0.1561 -0.5643 -1.2728
   17MOL0     C 2200   4.626   4.175   0.988  0.1180 -0.2759 -0.5126
   17MOL0     C 2201   4.634   4.283   1.089 -0.7350 -0.4555  0.3692
   17MOL0     C 2202   4.632   4.424   1.019 -0.2782 -0.4385 -0.1533
   17MOL0     C 2203   4.701   4.531   1.103  0.1912  0.2022  0.2638
   17MOL0    Cl 2204   4.882   4.503   1.116  0.1362  0.3554  0.1659
   17MOL0     C 2205   4.144   3.633   0.985 -0.5807  0.0732  0.1856
   17MOL0     C 2206   4.062   3.519   0.996  0.9102 -0.3513 -0.0741
   17MOL0     O 2207   3.692   3.459   0.968  0.3520 -0.0047  0.0159
   17MOL0     C 2208   3.577   3.231   1.071 -0.0220  0.5536  0.8185
   17MOL0     C 2209   3.532   3.103   1.112 -0.2274  0.0513  0.5441
   17MOL0     N 2210   3.057   2.629   1.427  0.5073 -0.2244  0.5294
   17MOL0     N 2211   2.947   2.559   1.465 -0.2018  0.1308  0.3975
   17MOL0     C 2212   2.137   2.578   1.297 -0.1109  0.6008  0.4805
   17MOL0     C 2213   2.034   2.669   1.268  0.1538 -0.7375 -0.1622
   17MOL0     C 2214   1.580   2.833   1.238 -0.6957  0.7203 -0.1846
   17MOL0     C 2215   1.612   2.901   1.120 -0.3401 -0.1382 -0.4306
   17MOL0     C 2216   1.536   3.003   1.066  0.2079 -0.5685 -0.4227
   17MOL0     C 2217   1.419   3.045   1.133 -0.0260 -0.5231 -0.1096
   17MOL0     O 2218   1.341   3.149   1.095 -0.1860  0.4130 -0.4313
   17MOL0     C 2219   1.358   3.211   0.967 -1.1686  0.0241  0.4299
   17MOL0     C 2220   1.243   3.324   0.938  0.0010 -0.2678 -0.2572
   17MOL0     C 2221   1.210   3.431   1.050 -1.8586  0.2078  0.8306
   17MOL0     C 2222   1.099   3.522   1.001 -0.1112 -1.2559 -0.4327
   17MOL0     C 2223   1.054   3.597   1.115  0.5463 -0.5365 -0.0888
   17MOL0     C 2224   1.008   3.660   1.205 -1.1119  0.1579 -0.0519
   17MOL0     C 2225   1.392   2.983   1.260 -0.4789 -0.0643 -0.5896
   17MOL0     C 2226   1.465   2.872   1.312 -0.1797 -0.3996 -0.3918
   17MOL0     C 2227   1.427   2.824   1.455  0.1887  0.5452  0.0832
   17MOL0     H 2228   1.762   2.466   1.299 -1.0681  2.0141 -0.7747
   17MOL0     H 2229   1.946   2.313   1.358 -1.3747 -0.9161 -3.2824
   17MOL0     H 2230   2.359   2.272   1.253  1.8636  0.7497 -0.0583
   17MOL0     H 2231   2.323   2.444   1.215  0.9614  1.2513  1.6413
   17MOL0     H 2232   2.399   2.490   1.431  0.2938  1.0105 -1.7087
   17MOL0     H 2233   2.512   2.390   1.335  1.1065 -0.4573 -0.1433
   17MOL0     H 2234   2.442   2.186   1.454  2.4472  0.4704 -1.3651
   17MOL0     H 2235   2.351   2.289   1.572  2.1584  1.0298  2.9589
   17MOL0     H 2236   2.631   2.354   1.504 -1.2086 -0.9240 -1.7377
   17MOL0     H 2237   2.531   2.405   1.639  0.6159 -0.8646  0.0812
   17MOL0     H 2238   2.547   2.151   1.723 -1.0143 -1.4961 -0.8455
   17MOL0     H 2239   2.679   2.135   1.614  0.2411 -1.6054  2.2666
   17MOL0     H 2240   2.642   2.327   1.853 -0.9111  0.8505 -2.2683
   17MOL0     H 2241   2.763   2.201   1.817  0.5499 -0.3955  0.2127
   17MOL0     H 2242   2.872   2.420   1.822 -1.0642  2.3558  0.3293
   17MOL0     H 2243   2.757   2.484   1.700  0.5325  0.9138 -0.7573
   17MOL0     H 2244   2.966   2.283   1.655 -0.9021  0.6006 -0.1651
   17MOL0     H 2245   2.836   2.313   1.536 -0.6275 -0.9949  0.9124
   17MOL0     H 2246   3.188   2.410   1.635 -0.1776 -0.1225  0.9192
   17MOL0     H 2247   3.370   2.569   1.553 -4.9426 -0.5902  3.2335
   17MOL0     H 2248   3.349   2.528   1.386 -0.2374  0.2325  0.8283
   17MOL0     H 2249   3.256   2.771   1.347  1.4236  0.1573  0.1908
   17MOL0     H 2250   3.307   2.809   1.509 -1.9322  0.0010  1.3429
   17MOL0     H 2251   3.493   2.676   1.305 -0.8563 -1.0602  0.7454
   17MOL0     H 2252   3.522   2.774   1.453 -1.2492  0.1200 -0.1994
   17MOL0     H 2253   3.430   2.973   1.338 -0.4955  0.3649  0.5101
   17MOL0     H 2254   3.395   2.859   1.199 -1.4592  1.0881  0.2680
   17MOL0     H 2255   3.825   2.974   1.200 -0.8524 -3.5717 -3.7906
   17MOL0     H 2256   3.904   3.192   1.139 -0.8185  3.0179  0.9054
   17MOL0     H 2257   3.817   3.667   1.171  0.0503 -3.7390  1.8883
   17MOL0     H 2258   3.955   3.858   1.138 -4.8403 -1.0933 -0.5794
   17MOL0     H 2259   4.068   4.030   1.007  0.7095  2.3072  0.3686
   17MOL0     H 2260   4.195   3.995   1.131  3.2219  1.4579 -0.7710
   17MOL0     H 2261   4.254   4.059   0.850 -2.3843 -2.3881 -0.2046
   17MOL0     H 2262   4.222   4.187   0.967  0.2720 -0.0834 -0.3463
   17MOL0     H 2263   4.400   4.101   1.116  3.9172  1.4567 -1.2079
   17MOL0     H 2264   4.438   3.977   0.993 -1.1229 -0.1938 -0.4473
   17MOL0     H 2265   4.443   4.268   0.910 -0.3405 -0.4556 -0.3157
   17MOL0     H 2266   4.512   4.136   0.827 -0.3926  0.2572 -1.6188
   17MOL0     H 2267   4.709   4.194   0.919  1.7865  0.7052  1.6064
   17MOL0     H 2268   4.648   4.077   1.031  1.4239  1.4065  3.1218
   17MOL0     H 2269   4.564   4.265   1.171  0.5492  0.7305  1.7835
   17MOL0     H 2270   4.729   4.274   1.143  0.6480 -3.4253 -2.2183
   17MOL0     H 2271   4.528   4.450   0.998 -0.6639 -1.2587  0.6346
   17MOL0     H 2272   4.670   4.425   0.917  0.6697  2.7168  0.1515
   17MOL0     H 2273   4.684   4.625   1.050 -3.9975  1.8026  3.7901
   17MOL0     H 2274   4.654   4.533   1.202 -1.2606 -2.1941 -0.3192
   17MOL0     H 2275   4.244   3.631   0.943 -1.3296 -1.0783 -1.6675
   17MOL0     H 2276   4.088   3.422   0.956  0.0099 -0.6126 -0.0557
   17MOL0     H 2277   3.502   3.298   1.031 -0.6029  1.3934  3.1370
   17MOL0     H 2278   3.429   3.077   1.092  0.3361 -0.2959 -2.4071
   17MOL0     H 2279   2.242   2.604   1.301  0.1169 -0.0836 -0.6010
   17MOL0     H 2280   2.055   2.773   1.246  1.4637 -0.6557  1.2944
   17MOL0     H 2281   1.707   2.878   1.071  2.6617  0.8609  4.2784
   17MOL0     H 2282   1.589   3.048   0.982 -1.5752 -0.8968 -1.7794
   17MOL0     H 2283   1.344   3.130   0.895 -4.0773  0.2211  0.6855
   17MOL0     H 2284   1.457   3.256   0.953 -1.1891 -0.6149 -2.3159
   17MOL0     H 2285   1.152   3.267   0.918  0.5668 -1.3392  0.1237
   17MOL0     H 2286   1.266   3.374   0.844 -0.3599  0.5468  0.0798
   17MOL0     H 2287   1.303   3.484   1.073 -2.5234  1.4140  0.7775
   17MOL0     H 2288   1.177   3.388   1.145 -2.7926  2.9287  1.8029
   17MOL0     H 2289   1.128   3.587   0.918 -3.0659 -2.5756 -2.6921
   17MOL0     H 2290   1.010   3.464   0.972  0.1642 -2.1726  0.5029
   17MOL0     H 2291   0.968   3.730   1.275 -2.4927 -0.6077 -0.0438
   17MOL0     H 2292   1.300   3.018   1.306 -0.3823  1.4733 -1.5058
   17MOL0     H 2293   1.511   2.825   1.525  0.8603  3.0606 -0.6472
   17MOL0     H 2294   1.338   2.874   1.495 -1.6849 -1.1399 -1.7107
   17MOL0     H 2295   1.394   2.722   1.432  0.6942  0.9172 -2.6876
   18MOL0     O 2296   7.237   4.008   0.746 -0.4303  0.3098  0.2682
   18MOL0     C 2297   7.182   4.080   0.824 -0.4236  0.0508  0.2545
   18MOL0     O 2298   7.065   4.150   0.801 -0.3854  0.6122  0.7078
   18MOL0     C 2299   6.968   4.080   0.729  0.7914 -0.2962  0.0137
   18MOL0     C 2300   6.883   4.153   0.645  0.5359 -0.3755 -0.7910
   18MOL0     C 2301   6.792   4.089   0.557  0.5262  0.3535  0.2166
   18MOL0     C 2302   6.791   3.952   0.553 -0.8839  0.4405  0.0253
   18MOL0     O 2303   6.702   3.884   0.475  0.2486  0.2501  0.6859
   18MOL0     C 2304   6.624   3.940   0.364  0.0721 -0.2078  0.2925
   18MOL0     C 2305   6.477   3.950   0.396 -0.1949  0.9435 -0.0682
   18MOL0     C 2306   6.438   4.021   0.529  0.5866  0.5744 -0.1930
   18MOL0     C 2307   6.325   3.959   0.613  0.2741 -0.1108 -0.4064
   18MOL0     C 2308   6.190   3.925   0.541 -0.1583 -0.2114  0.3769
   18MOL0     C 2309   6.098   3.842   0.630 -0.8294 -0.5258  0.3190
   18MOL0     C 2310   5.974   3.818   0.560 -0.1900  0.4922 -0.2606
   18MOL0     C 2311   5.876   3.740   0.667  0.2406 -0.2171  0.1260
   18MOL0     N 2312   5.761   3.675   0.594 -0.8917  0.2203  0.0476
   18MOL0     C 2313   5.687   3.731   0.486 -0.4676 -0.2864  0.1756
   18MOL0     C 2314   5.592   3.635   0.466  0.4945 -0.7192 -0.1214
   18MOL0     C 2315   5.498   3.647   0.352  0.0392  0.9582 -1.1699
   18MOL0     C 2316   5.480   3.776   0.278  1.3480 -0.1896  0.3140
   18MOL0     C 2317   5.391   3.880   0.359 -0.2553  0.9522  0.4865
   18MOL0     C 2318   5.355   4.005   0.283  0.8144  0.3928  0.1074
   18MOL0     O 2319   5.468   4.089   0.279  0.0381 -0.8985 -0.4069
   18MOL0     C 2320   5.466   4.204   0.197 -0.1837 -0.1130  0.8920
   18MOL0     C 2321   5.579   4.292   0.201  0.8815  0.2910 -0.0816
   18MOL0     C 2322   5.596   4.386   0.104 -0.3106 -0.9854  0.7872
   18MOL0     C 2323   5.488   4.431   0.020  0.3581 -0.2749 -0.5158
   18MOL0     C 2324   5.485   4.558  -0.066 -0.5163  0.0388 -0.2741
   18MOL0     O 2325   5.387   4.564  -0.160 -0.0077  0.1579 -0.4236
   18MOL0     C 2326   5.360   4.690  -0.207 -0.5060  0.5253  0.4470
   18MOL0     C 2327   5.321   4.800  -0.131  0.7289  0.4212  0.3209
   18MOL0     C 2328   5.277   4.918  -0.200 -0.5030  0.3884 -0.7587
   18MOL0     C 2329   5.288   4.920  -0.345 -0.3211  0.4854  0.9256
   18MOL0     O 2330   5.258   5.031  -0.422 -0.3329 -0.7349 -0.1759
   18MOL0     C 2331   5.126   5.074  -0.398 -0.6405  0.3123  0.3013
   18MOL0     C 2332   5.106   5.206  -0.453  0.3585 -0.6222  0.2728
   18MOL0     C 2333   5.177   5.324  -0.383  0.9860  1.2254 -0.0317
   18MOL0     C 2334   5.216   5.441  -0.463 -0.2705 -0.4316  0.0441
   18MOL0     C 2335   5.298   5.537  -0.378 -1.0380 -0.2486 -0.6788
   18MOL0     C 2336   5.371   5.646  -0.455  0.1083  1.2333 -0.7149
   18MOL0     C 2337   5.497   5.599  -0.520 -0.1198  0.4206 -0.0282
   18MOL0     C 2338   5.534   5.717  -0.604  0.1279 -0.4713 -0.3519
   18MOL0    Cl 2339   5.551   5.876  -0.520  0.2520 -0.0113  0.1879
   18MOL0     C 2340   5.325   4.808  -0.419 -0.3498  0.4405  0.2470
   18MOL0     C 2341   5.378   4.700  -0.353  0.4869 -0.2385 -0.3965
   18MOL0     O 2342   5.578   4.634  -0.040  0.2309 -0.3980 -0.1756
   18MOL0     C 2343   5.372   4.355   0.022 -0.4969 -0.3457 -0.5162
   18MOL0     C 2344   5.370   4.240   0.100  0.2318 -0.0108  0.1806
   18MOL0     N 2345   5.634   3.522   0.536 -0.4089 -0.1170 -0.1880
   18MOL0     N 2346   5.725   3.547   0.621  0.0508 -0.2393  0.2498
   18MOL0     C 2347   6.865   3.878   0.645 -0.6026 -1.0302 -0.4519
   18MOL0     C 2348   6.962   3.940   0.727  0.2736 -1.0205  0.5410
   18MOL0     C 2349   7.269   4.139   0.927 -0.1521  0.8179  0.9332
   18MOL0     C 2350   7.363   4.047   0.980  0.5631 -0.2672  0.0837
   18MOL0     C 2351   7.464   4.078   1.065 -0.1720 -0.0424  0.0187
   18MOL0     C 2352   7.486   4.209   1.105 -0.3355  0.0293  0.0505
   18MOL0     O 2353   7.597   4.254   1.168  0.4325  0.1512  0.0924
   18MOL0     C 2354   7.721   4.180   1.186  0.6581  1.5707  0.0476
   18MOL0     C 2355   7.844   4.269   1.217 -0.0010 -0.2616  0.3321
   18MOL0     C 2356   7.976   4.234   1.144  0.8075  0.0495 -0.1566
   18MOL0     C 2357   8.013   4.085   1.180  0.0865  0.7660 -0.1737
   18MOL0     C 2358   8.087   4.026   1.063  0.4539  0.2011  1.1722
   18MOL0     C 2359   8.132   3.976   0.960 -0.1852  0.0897  0.2073
   18MOL0     C 2360   7.385   4.296   1.061 -0.3124  0.2935 -0.7594
   18MOL0     C 2361   7.274   4.268   0.984 -0.5859 -1.0467  0.3597
   18MOL0     C 2362   7.180   4.382   0.957  0.2125  0.9863 -0.1430
   18MOL0     H 2363   6.887   4.260   0.662 -3.1290 -0.3531  1.0111
   18MOL0     H 2364   6.718   4.144   0.500  0.7844  0.3738 -0.1074
   18MOL0     H 2365   6.666   4.038   0.338 -5.1849  2.7047  1.2839
   18MOL0     H 2366   6.645   3.877   0.277  0.1704  2.9229 -2.1372
   18MOL0     H 2367   6.450   3.844   0.391  1.4243  0.5382 -1.1722
   18MOL0     H 2368   6.428   3.992   0.308 -0.0587  0.1708 -0.5224
   18MOL0     H 2369   6.402   4.121   0.504  1.0668  1.1266  1.2615
   18MOL0     H 2370   6.530   4.034   0.586  0.5667  1.6106 -0.3903
   18MOL0     H 2371   6.370   3.865   0.647  1.3648  1.7400  3.8302
   18MOL0     H 2372   6.304   4.021   0.700  0.4881 -0.5654 -0.0268
   18MOL0     H 2373   6.132   4.013   0.513  0.5260 -0.6480 -2.7440
   18MOL0     H 2374   6.209   3.865   0.452 -0.1366 -3.6476  2.4954
   18MOL0     H 2375   6.145   3.748   0.661  0.4641  0.6533  2.1862
   18MOL0     H 2376   6.091   3.897   0.724  1.3721  0.1216  0.1686
   18MOL0     H 2377   5.996   3.753   0.475  0.7455  3.3982 -2.3930
   18MOL0     H 2378   5.913   3.902   0.525 -1.5999 -0.7339 -0.8871
   18MOL0     H 2379   5.933   3.654   0.701  1.3160 -0.2904 -1.7368
   18MOL0     H 2380   5.839   3.811   0.742 -0.9052 -0.4709 -0.1683
   18MOL0     H 2381   5.690   3.830   0.442 -1.9996 -2.3351 -5.2681
   18MOL0     H 2382   5.524   3.570   0.278 -1.8467 -2.1749  1.1705
   18MOL0     H 2383   5.398   3.616   0.384  1.8034  0.2767  4.7605
   18MOL0     H 2384   5.580   3.815   0.259 -0.6882  5.4783 -0.8156
   18MOL0     H 2385   5.423   3.757   0.186  0.0331 -0.4476  1.1492
   18MOL0     H 2386   5.419   3.899   0.463 -5.5897  3.5338  1.8478
   18MOL0     H 2387   5.293   3.834   0.374  0.3763 -0.1009  1.5503
   18MOL0     H 2388   5.269   4.058   0.323  0.2407 -0.2312 -0.2611
   18MOL0     H 2389   5.328   3.971   0.182 -0.2775  1.5792 -0.0161
   18MOL0     H 2390   5.655   4.266   0.274 -2.1072 -1.4149  2.7116
   18MOL0     H 2391   5.678   4.455   0.088  0.6372 -2.2634 -0.1341
   18MOL0     H 2392   5.307   4.802  -0.023 -4.4604 -1.6793 -0.0506
   18MOL0     H 2393   5.242   5.002  -0.140  2.0895  1.5516 -0.7141
   18MOL0     H 2394   5.052   5.010  -0.447 -2.4585  2.4201  0.1395
   18MOL0     H 2395   5.104   5.078  -0.291 -1.4754  0.0084  0.1405
   18MOL0     H 2396   5.127   5.206  -0.560 -3.7559 -0.0186 -0.7352
   18MOL0     H 2397   4.999   5.226  -0.439  0.6926  1.5245  0.1511
   18MOL0     H 2398   5.124   5.351  -0.291  3.3310 -1.5618  2.3227
   18MOL0     H 2399   5.264   5.291  -0.326  0.4988  3.5119  2.2476
   18MOL0     H 2400   5.135   5.496  -0.512 -0.9418  0.0982  1.6681
   18MOL0     H 2401   5.285   5.410  -0.541 -1.6938 -0.4040 -1.2682
   18MOL0     H 2402   5.367   5.479  -0.317 -1.6227  2.0190  2.4047
   18MOL0     H 2403   5.227   5.591  -0.313 -0.3310  0.3589 -0.3955
   18MOL0     H 2404   5.299   5.687  -0.526 -0.3176 -0.9521 -1.6298
   18MOL0     H 2405   5.400   5.719  -0.378  1.1192 -0.4536  0.5703
   18MOL0     H 2406   5.480   5.511  -0.583  1.9486  0.2681 -0.4327
   18MOL0     H 2407   5.576   5.585  -0.446 -0.0114  2.9042  0.4056
   18MOL0     H 2408   5.630   5.696  -0.653 -0.0474 -0.0108 -0.9033
   18MOL0     H 2409   5.460   5.729  -0.684 -2.6481 -0.4021  2.0736
   18MOL0     H 2410   5.338   4.809  -0.527 -0.6127  1.9393  0.2142
   18MOL0     H 2411   5.435   4.622  -0.403 -1.0481 -0.2102 -2.3101
   18MOL0     H 2412   5.292   4.385  -0.045 -0.7324  3.9506  1.3673
   18MOL0     H 2413   5.284   4.175   0.091 -0.5945  1.2377 -1.4763
   18MOL0     H 2414   6.839   3.774   0.654 -2.8974 -0.5116 -0.3995
   18MOL0     H 2415   7.022   3.884   0.798 -1.4428 -0.7518  2.2766
   18MOL0     H 2416   7.370   3.944   0.948 -2.2135  0.0029 -1.7423
   18MOL0     H 2417   7.527   3.994   1.093 -1.6615 -1.7206 -1.3751
   18MOL0     H 2418   7.753   4.153   1.085 -1.0868  0.0400 -0.1567
   18MOL0     H 2419   7.718   4.095   1.255  1.1319 -0.1859 -2.0050
   18MOL0     H 2420   7.864   4.267   1.324  1.1347 -1.8138  0.1262
   18MOL0     H 2421   7.803   4.367   1.193  0.7795  0.2367  1.0046
   18MOL0     H 2422   8.053   4.300   1.185 -0.4252 -1.0127  4.5577
   18MOL0     H 2423   7.978   4.260   1.038  2.3246  1.3286  0.1546
   18MOL0     H 2424   8.048   4.082   1.283 -2.6074 -0.7223  0.8068
   18MOL0     H 2425   7.917   4.034   1.189  0.0497  0.8068 -0.3275
   18MOL0     H 2426   8.172   3.937   0.869  0.3087  3.8836 -1.3860
   18MOL0     H 2427   7.393   4.390   1.114 -1.4259 -1.9138  3.9081
   18MOL0     H 2428   7.078   4.344   0.954  0.3996 -0.2260  3.5485
   18MOL0     H 2429   7.173   4.468   1.025 -0.0502  1.0502 -0.2480
   18MOL0     H 2430   7.205   4.415   0.855  2.5012 -1.8134 -0.6229
   19MOL0     O 2431   9.174   1.562   1.135  0.8688 -0.3775  0.2003
   19MOL0     C 2432   9.161   1.459   1.205  0.2204  0.4050 -0.6411
   19MOL0     O 2433   9.130   1.332   1.161  0.0593 -0.5937 -0.1219
   19MOL0     C 2434   9.130   1.328   1.028 -0.0243  0.0217 -0.5210
   19MOL0     C 2435   9.245   1.307   0.957  0.3992 -0.1625  1.0035
   19MOL0     C 2436   9.247   1.296   0.819  0.3225 -0.6452 -0.5843
   19MOL0     C 2437   9.128   1.331   0.750  0.4065 -0.3809  0.6046
   19MOL0     O 2438   9.128   1.354   0.613  0.9587  0.0737  1.1223
   19MOL0     C 2439   9.246   1.316   0.534 -0.8350 -0.6163 -0.8057
   19MOL0     C 2440   9.247   1.158   0.509  0.1916  0.4875 -0.0430
   19MOL0     C 2441   9.175   1.103   0.382 -0.7244 -1.0158 -0.1418
   19MOL0     C 2442   9.019   1.128   0.366 -0.2833 -0.4801 -0.5003
   19MOL0     C 2443   8.970   1.076   0.230  0.8395  0.6188 -1.2352
   19MOL0     C 2444   9.014   1.164   0.118 -0.4791 -0.4853 -0.7658
   19MOL0     C 2445   8.962   1.109  -0.019  0.7900 -0.9823 -0.2360
   19MOL0     C 2446   9.012   0.973  -0.067 -1.0074  0.6867 -0.0107
   19MOL0     N 2447   9.156   0.966  -0.054 -0.6783 -0.6470  0.0572
   19MOL0     C 2448   9.220   0.902   0.048 -0.5826  0.3075  0.5561
   19MOL0     C 2449   9.350   0.922   0.028  1.1915  0.1612  0.2785
   19MOL0     C 2450   9.468   0.875   0.112  0.8930  0.2442  0.2323
   19MOL0     C 2451   9.505   1.001   0.192  0.3021 -0.5602  0.5873
   19MOL0     C 2452   9.642   0.985   0.251 -0.5622 -0.5087  0.1213
   19MOL0     C 2453   9.674   1.089   0.360 -0.8190 -0.2733 -0.1779
   19MOL0     O 2454   9.619   1.041   0.479  1.1056  0.1805 -0.5189
   19MOL0     C 2455   9.632   1.125   0.596  0.6060  0.3592  1.0280
   19MOL0     C 2456   9.561   1.079   0.714  0.3925  0.5620 -0.7291
   19MOL0     C 2457   9.564   1.146   0.833  0.9210 -0.0191 -0.2001
   19MOL0     C 2458   9.627   1.268   0.843  1.3037  0.7575  0.3173
   19MOL0     C 2459   9.624   1.361   0.961  0.9370  0.1206  0.0391
   19MOL0     O 2460   9.630   1.495   0.936 -0.7774 -0.0885 -0.2124
   19MOL0     C 2461   9.607   1.576   1.050  0.0369  0.4213  1.1377
   19MOL0     C 2462   9.702   1.582   1.145 -0.4154  1.0717  0.7765
   19MOL0     C 2463   9.687   1.652   1.266 -0.6114  0.0542  1.3764
   19MOL0     C 2464   9.564   1.715   1.292 -0.4531 -0.0322 -1.0309
   19MOL0     O 2465   9.540   1.746   1.423  0.0335  0.0820  0.0453
   19MOL0     C 2466   9.431   1.821   1.459 -0.2631 -0.7559 -0.0334
   19MOL0     C 2467   9.448   1.894   1.599 -0.3596 -0.4970 -0.2982
   19MOL0     C 2468   9.588   1.973   1.607  0.3867 -0.8715 -0.3238
   19MOL0     C 2469   9.619   2.043   1.740  0.1658 -0.8869 -0.1501
   19MOL0     C 2470   9.730   2.148   1.743  0.0566  0.5515  0.4070
   19MOL0     C 2471   9.868   2.076   1.767  0.5130 -0.2703 -0.0140
   19MOL0     C 2472   9.970   2.190   1.778 -0.6417  0.5318 -0.1768
   19MOL0     C 2473   9.968   2.282   1.899  0.1369  0.0507  0.0780
   19MOL0    Cl 2474   9.890   2.201   2.042  0.4180  0.2477 -0.4825
   19MOL0     C 2475   9.473   1.715   1.187  0.6479 -0.6134 -0.3759
   19MOL0     C 2476   9.486   1.645   1.071 -0.0874 -0.2928 -0.1307
   19MOL0     O 2477   9.592   1.310   1.065  0.3527  0.6271  0.0107
   19MOL0     C 2478   9.689   1.322   0.734  0.0477 -0.3228  0.0668
   19MOL0     C 2479   9.698   1.250   0.607 -0.2973 -0.3128  0.5775
   19MOL0     N 2480   9.368   0.973  -0.103 -0.3877 -0.3799  0.0382
   19MOL0     N 2481   9.251   1.000  -0.150  0.5602  0.5076 -0.1488
   19MOL0     C 2482   9.009   1.365   0.822 -0.9316  0.0228  0.4651
   19MOL0     C 2483   9.006   1.345   0.961 -0.4919 -0.2520  0.6569
   19MOL0     C 2484   9.208   1.462   1.343  0.5971  0.2939  0.4383
   19MOL0     C 2485   9.318   1.387   1.372  1.3251  0.5538 -0.3700
   19MOL0     C 2486   9.393   1.410   1.490 -0.7264  0.4989  0.0684
   19MOL0     C 2487   9.353   1.501   1.582 -0.0939 -0.8497 -0.4268
   19MOL0     O 2488   9.433   1.524   1.690 -0.4377 -0.3145 -0.3836
   19MOL0     C 2489   9.385   1.477   1.817  0.3825  0.3996 -0.2597
   19MOL0     C 2490   9.341   1.584   1.919  0.0770 -0.3006  0.4364
   19MOL0     C 2491   9.463   1.678   1.956  0.5703  0.8032 -0.3489
   19MOL0     C 2492   9.423   1.803   2.037 -0.3039  0.6132  0.6952
   19MOL0     C 2493   9.359   1.901   1.945  0.0696  0.4338  0.1601
   19MOL0     C 2494   9.283   1.970   1.881 -0.6549 -0.4745  0.8267
   19MOL0     C 2495   9.227   1.567   1.562  0.5668 -0.4557  0.4334
   19MOL0     C 2496   9.156   1.551   1.446  0.7324 -0.7565  0.3416
   19MOL0     C 2497   9.026   1.624   1.430 -0.6108 -0.5508  0.4316
   19MOL0     H 2498   9.335   1.293   1.017  0.7185 -2.6302  0.0979
   19MOL0     H 2499   9.340   1.262   0.775 -0.8025 -4.0157 -0.6897
   19MOL0     H 2500   9.243   1.364   0.436 -1.1109 -0.6901 -0.8360
   19MOL0     H 2501   9.344   1.345   0.573 -1.7594 -0.4945  1.6149
   19MOL0     H 2502   9.197   1.125   0.601  0.2642  0.5992  0.0376
   19MOL0     H 2503   9.350   1.122   0.504  0.1142  0.4219 -1.3090
   19MOL0     H 2504   9.194   0.996   0.388 -1.1262 -1.0083  1.6128
   19MOL0     H 2505   9.230   1.140   0.294 -2.7180  2.2035 -0.2151
   19MOL0     H 2506   8.980   1.073   0.452 -2.7035  1.8818  0.0577
   19MOL0     H 2507   8.984   1.229   0.391 -0.1407 -0.7791  1.0211
   19MOL0     H 2508   8.998   0.973   0.204 -1.7710  0.3732 -3.4928
   19MOL0     H 2509   8.862   1.061   0.241  1.1212  0.6202  3.5048
   19MOL0     H 2510   8.972   1.263   0.135  0.0021 -0.5307  0.8514
   19MOL0     H 2511   9.124   1.163   0.122 -0.4902  0.5942  0.5511
   19MOL0     H 2512   8.996   1.187  -0.088 -3.3619 -0.3233 -1.8665
   19MOL0     H 2513   8.854   1.124  -0.011  1.1332  1.1203  1.2391
   19MOL0     H 2514   8.963   0.888  -0.020  1.6385 -1.2356 -0.5059
   19MOL0     H 2515   9.002   0.967  -0.176  0.9441  0.7543 -0.2313
   19MOL0     H 2516   9.181   0.850   0.135 -2.2734  2.7632  1.3920
   19MOL0     H 2517   9.431   0.800   0.182 -0.3540 -0.6254 -1.2727
   19MOL0     H 2518   9.549   0.846   0.044 -0.0025  1.6096 -1.4821
   19MOL0     H 2519   9.483   1.099   0.149 -0.3478 -0.2655  1.5424
   19MOL0     H 2520   9.447   0.994   0.285  0.3399  0.1488  0.6692
   19MOL0     H 2521   9.712   0.994   0.167  0.5818 -0.5970  1.0512
   19MOL0     H 2522   9.656   0.883   0.287 -0.9748  0.6225  3.8326
   19MOL0     H 2523   9.625   1.186   0.345  0.8615  0.8875  1.3916
   19MOL0     H 2524   9.772   1.137   0.364 -1.3433  1.6350 -4.5096
   19MOL0     H 2525   9.517   0.984   0.684  0.5873  1.0675 -2.7679
   19MOL0     H 2526   9.515   1.092   0.913 -0.9032 -1.3483 -2.0932
   19MOL0     H 2527   9.789   1.524   1.115 -0.8695 -0.0637  1.5936
   19MOL0     H 2528   9.758   1.673   1.345  1.9942  1.4202 -1.1640
   19MOL0     H 2529   9.422   1.901   1.385  1.2027 -1.8160 -1.4252
   19MOL0     H 2530   9.346   1.752   1.465 -0.8292 -0.0376  0.3338
   19MOL0     H 2531   9.369   1.969   1.601  0.6591  0.7047 -2.3040
   19MOL0     H 2532   9.438   1.822   1.681  0.5469 -1.8758 -1.3485
   19MOL0     H 2533   9.676   1.911   1.588 -0.6149 -1.9588 -1.6119
   19MOL0     H 2534   9.593   2.057   1.536 -1.6619  0.7061  1.2817
   19MOL0     H 2535   9.648   1.970   1.816 -0.2243 -0.2792  0.5942
   19MOL0     H 2536   9.532   2.094   1.783 -0.3381  0.4991 -2.6065
   19MOL0     H 2537   9.714   2.226   1.818 -0.2644  0.8860 -0.0044
   19MOL0     H 2538   9.726   2.207   1.651  1.5106  0.7517  0.4578
   19MOL0     H 2539   9.870   2.007   1.852  0.7740 -0.9332 -0.5543
   19MOL0     H 2540   9.897   2.012   1.684  1.0104 -2.0992  1.4849
   19MOL0     H 2541   9.963   2.253   1.689  1.2499  0.5125 -0.3994
   19MOL0     H 2542  10.070   2.146   1.782 -1.3811 -1.1524  0.4589
   19MOL0     H 2543  10.061   2.335   1.921 -0.3060  1.4239 -1.2217
   19MOL0     H 2544   9.896   2.361   1.877 -1.3311 -0.3818  2.7606
   19MOL0     H 2545   9.371   1.742   1.211  0.4317 -0.3167 -1.5593
   19MOL0     H 2546   9.403   1.633   1.001  0.7294  2.4480 -1.7123
   19MOL0     H 2547   9.734   1.421   0.729 -1.4519  0.3286 -1.8944
   19MOL0     H 2548   9.742   1.312   0.530  0.4146 -0.0794  1.1664
   19MOL0     H 2549   8.927   1.423   0.779  1.4950  2.5611 -1.0774
   19MOL0     H 2550   8.921   1.373   1.023  0.9554  2.1056  1.7057
   19MOL0     H 2551   9.345   1.306   1.304  1.3903 -0.0064  0.3065
   19MOL0     H 2552   9.473   1.338   1.506 -0.6019 -0.9827 -5.3484
   19MOL0     H 2553   9.471   1.424   1.860 -0.4042  0.2899  1.2554
   19MOL0     H 2554   9.312   1.396   1.808  1.6372 -0.6316 -1.8106
   19MOL0     H 2555   9.313   1.531   2.010 -1.6988  2.2180  1.4904
   19MOL0     H 2556   9.254   1.642   1.888  1.0137  1.3315  0.7251
   19MOL0     H 2557   9.517   1.709   1.866  1.6970 -1.8294 -0.6756
   19MOL0     H 2558   9.525   1.614   2.018 -1.9630  0.9651  2.5729
   19MOL0     H 2559   9.350   1.779   2.114 -0.9234  1.8844  0.5289
   19MOL0     H 2560   9.513   1.848   2.081  0.8177  0.1525 -1.0215
   19MOL0     H 2561   9.228   2.012   1.799 -1.1545 -0.0984  1.3446
   19MOL0     H 2562   9.206   1.644   1.636  0.0713  1.8224 -1.9460
   19MOL0     H 2563   8.986   1.675   1.518 -1.4870  0.3521 -0.4639
   19MOL0     H 2564   9.040   1.703   1.355 -3.7999  0.9242  1.2078
   19MOL0     H 2565   8.947   1.569   1.377 -0.2370  0.3843 -1.1512
   20MOL0     O 2566   8.628   7.546   8.060 -0.2688 -0.0145  0.0253
   20MOL0     C 2567   8.550   7.470   8.002 -0.2183 -0.2657 -1.1874
   20MOL0     O 2568   8.521   7.337   8.046 -0.9723 -0.5070  0.1667
   20MOL0     C 2569   8.573   7.276   8.160  0.2363  0.4830 -0.3187
   20MOL0     C 2570   8.486   7.192   8.236  0.1445 -0.4142  0.3724
   20MOL0     C 2571   8.528   7.118   8.351  0.1872 -0.6535  0.3981
   20MOL0     C 2572   8.659   7.128   8.396  0.4558 -0.3419  0.0038
   20MOL0     O 2573   8.688   7.065   8.514  0.5564  0.2943  0.0881
   20MOL0     C 2574   8.694   7.145   8.626 -0.2367  0.2337  0.0711
   20MOL0     C 2575   8.705   7.055   8.751 -0.0948 -0.2775 -0.3364
   20MOL0     C 2576   8.584   6.967   8.777  0.3674  0.3887  0.7054
   20MOL0     C 2577   8.602   6.838   8.858 -0.6317 -0.1498  0.0367
   20MOL0     C 2578   8.473   6.748   8.842 -0.9435  0.7513  0.0897
   20MOL0     C 2579   8.458   6.663   8.968 -0.0135 -0.5403  0.4853
   20MOL0     C 2580   8.419   6.737   9.095 -0.2880  0.0197  0.0157
   20MOL0     C 2581   8.365   6.652   9.208  0.1013  0.2222 -1.6558
   20MOL0     N 2582   8.486   6.581   9.265  0.7329  0.1370 -0.5408
   20MOL0     C 2583   8.548   6.468   9.228  0.4265  0.4251  0.4226
   20MOL0     C 2584   8.661   6.471   9.286  0.1274 -0.2105 -1.8900
   20MOL0     C 2585   8.766   6.363   9.280  0.3233  0.8782 -0.2164
   20MOL0     C 2586   8.858   6.347   9.406 -0.1752 -0.5332  0.1718
   20MOL0     C 2587   8.979   6.256   9.380 -0.0402 -0.6819  0.2256
   20MOL0     C 2588   9.033   6.205   9.499 -0.4122  0.0401  0.1340
   20MOL0     O 2589   9.142   6.114   9.463 -1.0194 -0.8738 -0.7509
   20MOL0     C 2590   9.193   6.044   9.569  0.6510 -0.4905  0.1923
   20MOL0     C 2591   9.256   5.927   9.536 -0.8167  0.7027 -0.3250
   20MOL0     C 2592   9.290   5.842   9.640 -1.7017  0.1196  0.5969
   20MOL0     C 2593   9.272   5.884   9.775  1.3067 -1.0441  0.2159
   20MOL0     C 2594   9.316   5.789   9.884  0.0398  0.1750  0.3368
   20MOL0     O 2595   9.321   5.835  10.020  0.1790 -0.2653  0.5806
   20MOL0     C 2596   9.374   5.751  10.110 -0.3270  0.0231 -0.8556
   20MOL0     C 2597   9.390   5.610  10.104  0.2559  0.1572 -0.7766
   20MOL0     C 2598   9.474   5.540  10.194  0.2185 -0.6130 -0.2953
   20MOL0     C 2599   9.550   5.618  10.287  0.6071  1.1733 -0.0331
   20MOL0     O 2600   9.637   5.562  10.374 -0.0342  0.3114  0.6998
   20MOL0     C 2601   9.641   5.429  10.409 -0.6178 -0.0478 -0.2493
   20MOL0     C 2602   9.781   5.372  10.382  0.2122 -0.6331 -0.1958
   20MOL0     C 2603   9.777   5.218  10.414 -0.0779  0.8494  0.0914
   20MOL0     C 2604   9.815   5.202  10.564  0.1903  0.1042 -0.7404
   20MOL0     C 2605   9.854   5.063  10.614 -0.7205 -0.0923 -1.0164
   20MOL0     C 2606   9.834   5.057  10.773  0.0581  0.1839  0.6807
   20MOL0     C 2607   9.690   5.007  10.793  0.0272 -0.7461  0.0829
   20MOL0     C 2608   9.640   5.047  10.929 -0.1903  0.9643  0.0238
   20MOL0    Cl 2609   9.707   4.938  11.067 -0.1470  0.2223 -0.5350
   20MOL0     C 2610   9.532   5.753  10.298  0.1165  0.3118 -0.2501
   20MOL0     C 2611   9.439   5.811  10.209  0.0891 -0.3796  0.1650
   20MOL0     O 2612   9.307   5.672   9.841 -0.1981 -0.5042  0.4052
   20MOL0     C 2613   9.216   6.016   9.810  1.2701  0.6571 -0.3779
   20MOL0     C 2614   9.177   6.091   9.701  0.1972 -0.8355  0.3172
   20MOL0     N 2615   8.678   6.582   9.354 -1.0452 -0.8559  0.1966
   20MOL0     N 2616   8.568   6.648   9.348  0.5452 -0.4400  0.4716
   20MOL0     C 2617   8.736   7.222   8.335 -0.3492 -0.2199  0.2382
   20MOL0     C 2618   8.702   7.294   8.213  0.0072 -0.2311  0.0435
   20MOL0     C 2619   8.471   7.527   7.891 -0.0480  0.8687 -0.3951
   20MOL0     C 2620   8.364   7.448   7.852 -0.4610 -0.2335  0.0581
   20MOL0     C 2621   8.280   7.487   7.742 -0.7310 -1.0381  0.3286
   20MOL0     C 2622   8.315   7.601   7.668 -0.0052  0.1105  1.1003
   20MOL0     O 2623   8.236   7.637   7.563  0.7179  0.3681 -1.0749
   20MOL0     C 2624   8.295   7.689   7.443  0.0208 -0.2175  1.1460
   20MOL0     C 2625   8.228   7.622   7.316  1.1402  0.6076  1.0728
   20MOL0     C 2626   8.320   7.538   7.227  0.5796  0.1070  0.9030
   20MOL0     C 2627   8.341   7.387   7.285 -0.3659 -0.1650 -0.3452
   20MOL0     C 2628   8.462   7.334   7.225  0.6507  0.4598  1.6439
   20MOL0     C 2629   8.569   7.305   7.180 -0.0036  0.1792  0.1967
   20MOL0     C 2630   8.414   7.680   7.714  0.2394 -0.4934  0.2562
   20MOL0     C 2631   8.495   7.649   7.827 -0.0631 -0.5801  0.7406
   20MOL0     C 2632   8.620   7.738   7.854 -0.7254  0.2835 -0.9440
   20MOL0     H 2633   8.391   7.174   8.186  0.7574 -2.5764 -0.1335
   20MOL0     H 2634   8.459   7.057   8.408 -1.3342 -0.4840 -1.1953
   20MOL0     H 2635   8.784   7.206   8.623  0.6494 -1.0144  0.3721
   20MOL0     H 2636   8.597   7.196   8.631  0.6729  2.1214 -0.9201
   20MOL0     H 2637   8.717   7.112   8.843 -1.1823  0.1951 -0.4698
   20MOL0     H 2638   8.794   6.995   8.732 -0.9556 -1.2567 -1.4596
   20MOL0     H 2639   8.543   6.926   8.684  0.8525 -1.3134  1.2025
   20MOL0     H 2640   8.499   7.020   8.820 -1.8439 -2.4250  0.1202
   20MOL0     H 2641   8.694   6.792   8.824  0.2731  3.1769 -2.5632
   20MOL0     H 2642   8.625   6.874   8.959  1.5989 -1.0851 -0.0866
   20MOL0     H 2643   8.387   6.814   8.828 -2.1849 -0.7263  0.5715
   20MOL0     H 2644   8.485   6.688   8.751 -0.7538  3.1341 -1.5758
   20MOL0     H 2645   8.390   6.581   8.945  0.3021 -0.3095 -1.4915
   20MOL0     H 2646   8.562   6.634   8.982  0.9307  1.7942 -0.9922
   20MOL0     H 2647   8.348   6.810   9.055 -0.0510  1.5366  2.1869
   20MOL0     H 2648   8.509   6.789   9.127  0.9278 -0.4451 -2.3954
   20MOL0     H 2649   8.328   6.711   9.293  0.0211  1.2467 -2.3837
   20MOL0     H 2650   8.282   6.589   9.175 -1.9041  1.3168  0.9442
   20MOL0     H 2651   8.521   6.393   9.155  0.3308  2.4644 -1.7545
   20MOL0     H 2652   8.719   6.266   9.267 -1.6636  1.3701  2.4061
   20MOL0     H 2653   8.825   6.388   9.192 -0.4809  0.2945 -0.9364
   20MOL0     H 2654   8.879   6.451   9.432  0.3844 -0.4999 -0.3715
   20MOL0     H 2655   8.803   6.310   9.493  2.7545 -0.7406  2.0858
   20MOL0     H 2656   9.052   6.297   9.310 -1.3598  0.5493 -0.4819
   20MOL0     H 2657   8.943   6.166   9.329  0.1027 -1.0453  0.7655
   20MOL0     H 2658   8.958   6.167   9.569  0.2108  0.9381  1.3083
   20MOL0     H 2659   9.077   6.292   9.547  1.7342 -0.3848 -0.9349
   20MOL0     H 2660   9.294   5.910   9.436 -0.8488 -1.3808 -0.0326
   20MOL0     H 2661   9.343   5.751   9.611  2.0757  1.7635  1.6752
   20MOL0     H 2662   9.321   5.564  10.034 -2.5806  1.9201  0.6559
   20MOL0     H 2663   9.487   5.437  10.165  0.1955 -0.6483 -0.1806
   20MOL0     H 2664   9.627   5.429  10.518  0.6872  3.8351  0.0714
   20MOL0     H 2665   9.564   5.365  10.365 -1.6395 -1.5010  3.2877
   20MOL0     H 2666   9.807   5.382  10.276  0.7027 -0.4118 -0.0575
   20MOL0     H 2667   9.863   5.422  10.434  1.0431 -0.5782 -1.5065
   20MOL0     H 2668   9.679   5.172  10.398 -0.1132 -0.2223  2.9080
   20MOL0     H 2669   9.847   5.175  10.343 -0.9409 -1.2840  0.4629
   20MOL0     H 2670   9.726   5.225  10.624  0.0532  1.5999 -1.4698
   20MOL0     H 2671   9.887   5.280  10.591 -0.1643  0.4228 -0.7079
   20MOL0     H 2672   9.963   5.066  10.613 -0.6486 -1.4227 -0.1961
   20MOL0     H 2673   9.819   4.980  10.553  1.1347 -0.0752 -2.1782
   20MOL0     H 2674   9.898   4.991  10.832 -0.2791  1.3280  2.4231
   20MOL0     H 2675   9.858   5.155  10.815 -1.4333  0.9625 -0.1787
   20MOL0     H 2676   9.693   4.897  10.793  0.1156 -0.7640  1.2519
   20MOL0     H 2677   9.623   5.044  10.716 -1.7319 -0.9956  1.4162
   20MOL0     H 2678   9.662   5.152  10.951  0.2098  0.8316  0.2791
   20MOL0     H 2679   9.534   5.023  10.919  0.3051 -0.5119 -2.5423
   20MOL0     H 2680   9.589   5.813  10.368  1.0047  1.5738 -1.9989
   20MOL0     H 2681   9.436   5.919  10.223  2.1555 -0.0017 -1.7689
   20MOL0     H 2682   9.197   6.036   9.915 -1.2231  0.1768 -0.6746
   20MOL0     H 2683   9.132   6.186   9.727 -0.0677 -0.3359 -1.7815
   20MOL0     H 2684   8.834   7.244   8.374  0.0242  1.1332 -1.3441
   20MOL0     H 2685   8.763   7.364   8.157 -1.4257  1.7657  0.8165
   20MOL0     H 2686   8.349   7.349   7.894 -2.8145 -0.1788 -0.4807
   20MOL0     H 2687   8.194   7.440   7.697 -3.2688 -0.6968  4.2998
   20MOL0     H 2688   8.400   7.658   7.442 -0.5814 -3.1492 -3.3699
   20MOL0     H 2689   8.282   7.796   7.456  3.1742  0.6544 -1.4767
   20MOL0     H 2690   8.194   7.698   7.245 -2.0938 -0.5337  1.2141
   20MOL0     H 2691   8.138   7.563   7.337  1.2058 -0.1914 -0.7013
   20MOL0     H 2692   8.415   7.591   7.217  0.4160  0.3052  0.3356
   20MOL0     H 2693   8.291   7.523   7.122  1.5491  3.3234  0.0802
   20MOL0     H 2694   8.355   7.385   7.393  0.4638 -1.7713 -0.4480
   20MOL0     H 2695   8.253   7.326   7.262 -0.2915 -0.0501 -0.9552
   20MOL0     H 2696   8.665   7.289   7.135 -1.4173 -1.8787 -2.3309
   20MOL0     H 2697   8.432   7.774   7.662  2.2385 -1.8007 -1.6083
   20MOL0     H 2698   8.601   7.796   7.945 -1.9460  0.3056 -1.1930
   20MOL0     H 2699   8.702   7.667   7.860 -2.1565 -1.5003 -1.3714
   20MOL0     H 2700   8.643   7.808   7.773  1.3766 -1.0604 -1.5761
   21MOL0     O 2701   5.520   1.846   3.623 -0.4210 -0.4072  0.0697
   21MOL0     C 2702   5.517   1.925   3.713 -0.1585 -1.0542  0.8570
   21MOL0     O 2703   5.428   1.934   3.821  0.0545  0.3612  0.2776
   21MOL0     C 2704   5.313   1.853   3.809 -0.4367  0.8651 -0.1488
   21MOL0     C 2705   5.240   1.845   3.929 -0.8442  0.2945  0.1050
   21MOL0     C 2706   5.118   1.781   3.935  0.1493 -0.7640 -0.3954
   21MOL0     C 2707   5.062   1.718   3.815 -0.7208  0.7499  0.8077
   21MOL0     O 2708   4.951   1.638   3.817  0.1244  0.3509 -0.7945
   21MOL0     C 2709   4.904   1.575   3.935  0.3064 -0.2894  0.7595
   21MOL0     C 2710   4.781   1.627   3.996  0.9575 -1.1106  0.6610
   21MOL0     C 2711   4.698   1.720   3.895 -0.4444 -0.1473  0.3574
   21MOL0     C 2712   4.608   1.805   3.978 -0.1816  0.0351  0.3938
   21MOL0     C 2713   4.530   1.916   3.905  0.1417 -0.0312 -0.4078
   21MOL0     C 2714   4.446   1.984   4.014 -0.5376  0.3956 -0.3786
   21MOL0     C 2715   4.383   2.113   3.964  0.2786  0.4419  0.2287
   21MOL0     C 2716   4.297   2.176   4.073 -0.0562 -0.1349  1.0165
   21MOL0     N 2717   4.209   2.265   3.997  0.9889  0.2525 -0.0766
   21MOL0     C 2718   4.084   2.234   3.945  0.3504  0.7886 -0.4424
   21MOL0     C 2719   4.057   2.340   3.866  0.4811  0.1844 -0.5864
   21MOL0     C 2720   3.921   2.369   3.803  0.4574 -0.6290  0.7224
   21MOL0     C 2721   3.897   2.256   3.698 -0.2220  0.6114  0.6820
   21MOL0     C 2722   3.766   2.292   3.609 -0.4160 -0.3676  0.0370
   21MOL0     C 2723   3.795   2.360   3.476 -0.4702  0.2866 -0.8470
   21MOL0     O 2724   3.876   2.286   3.394 -0.6170  0.1503 -0.0042
   21MOL0     C 2725   3.825   2.216   3.280  0.8662 -1.1268  0.2283
   21MOL0     C 2726   3.915   2.200   3.180  0.1475 -0.0706 -0.0263
   21MOL0     C 2727   3.880   2.133   3.060  0.8682 -0.0639  0.3665
   21MOL0     C 2728   3.745   2.084   3.047  0.0646 -0.5223 -0.0220
   21MOL0     C 2729   3.692   2.028   2.919 -0.8791  0.1403 -0.5107
   21MOL0     O 2730   3.562   1.996   2.897 -0.0206 -0.2683  0.8764
   21MOL0     C 2731   3.534   1.972   2.768  0.2248  1.0080 -0.0929
   21MOL0     C 2732   3.489   1.844   2.735  0.9479 -0.0460  0.2616
   21MOL0     C 2733   3.455   1.816   2.600  0.3114 -0.5063 -0.0780
   21MOL0     C 2734   3.463   1.919   2.497  0.5987 -0.0367  0.9333
   21MOL0     O 2735   3.426   1.889   2.367  0.3362 -0.0598  1.0751
   21MOL0     C 2736   3.428   1.996   2.263 -0.4782 -0.4261  0.3767
   21MOL0     C 2737   3.381   1.939   2.134 -0.5934 -0.1723  0.1175
   21MOL0     C 2738   3.260   1.840   2.136 -0.4571  0.9982  0.2756
   21MOL0     C 2739   3.303   1.688   2.103  0.3007 -0.0749  1.2407
   21MOL0     C 2740   3.198   1.577   2.114  1.0521  0.4940 -0.3638
   21MOL0     C 2741   3.123   1.576   2.251 -0.0536  0.6036 -0.4337
   21MOL0     C 2742   3.015   1.460   2.232 -0.2010  0.0611  1.0239
   21MOL0     C 2743   2.933   1.426   2.348  0.1795 -0.3878 -0.7456
   21MOL0    Cl 2744   3.034   1.349   2.468 -0.1011 -0.3339 -0.3031
   21MOL0     C 2745   3.520   2.044   2.534 -0.1064 -0.6465 -0.1162
   21MOL0     C 2746   3.546   2.074   2.666  0.1022  0.3807  0.2151
   21MOL0     O 2747   3.786   2.006   2.843  0.0222 -0.5482 -0.2453
   21MOL0     C 2748   3.656   2.093   3.150 -0.4722  0.8041 -0.7348
   21MOL0     C 2749   3.699   2.157   3.265  0.2213 -0.3429  0.6524
   21MOL0     N 2750   4.146   2.435   3.862 -0.5354 -0.4234 -0.2345
   21MOL0     N 2751   4.240   2.391   3.940 -0.5526 -0.1169 -0.6328
   21MOL0     C 2752   5.129   1.730   3.694  0.5314  0.5661 -0.5533
   21MOL0     C 2753   5.244   1.804   3.688 -0.3883  0.1737 -0.7747
   21MOL0     C 2754   5.640   2.011   3.719  0.4730 -0.8107  0.4676
   21MOL0     C 2755   5.760   1.972   3.653  0.0343  0.0245 -0.7807
   21MOL0     C 2756   5.866   2.057   3.626  0.6854  0.5906 -0.3378
   21MOL0     C 2757   5.869   2.181   3.697 -0.0997 -0.0388  0.9786
   21MOL0     O 2758   5.989   2.253   3.715  0.4469  0.0007  0.1361
   21MOL0     C 2759   6.041   2.249   3.847  0.8682 -0.2805 -0.6361
   21MOL0     C 2760   6.181   2.311   3.829 -0.0436 -0.8988  0.0834
   21MOL0     C 2761   6.269   2.306   3.955 -0.2879 -0.2669  0.6643
   21MOL0     C 2762   6.382   2.403   3.931 -1.1775  0.5796 -0.1801
   21MOL0     C 2763   6.354   2.529   4.002  0.7419 -0.4738 -0.0566
   21MOL0     C 2764   6.326   2.625   4.072  0.8691  0.2520  0.1043
   21MOL0     C 2765   5.765   2.221   3.773  0.8026 -0.7815 -0.1557
   21MOL0     C 2766   5.645   2.137   3.781 -0.0518 -0.5371 -1.0219
   21MOL0     C 2767   5.534   2.198   3.862  0.2560  0.0076  0.2107
   21MOL0     H 2768   5.291   1.885   4.016 -2.4505  0.0781  1.1786
   21MOL0     H 2769   5.068   1.777   4.031  1.2905  1.6609  0.3869
   21MOL0     H 2770   4.880   1.474   3.900 -2.1118  0.8175 -1.0220
   21MOL0     H 2771   4.984   1.557   4.008  2.6726  0.1871 -1.5699
   21MOL0     H 2772   4.813   1.689   4.081 -0.4626 -1.3629  1.4102
   21MOL0     H 2773   4.705   1.561   4.038  0.1889  0.0154  1.1128
   21MOL0     H 2774   4.636   1.649   3.839  0.5378 -2.3993  1.9560
   21MOL0     H 2775   4.758   1.791   3.837 -1.6490 -0.3932 -1.2541
   21MOL0     H 2776   4.534   1.745   4.031  0.8539  0.7676  2.8310
   21MOL0     H 2777   4.671   1.856   4.053  1.7147  0.5266 -1.4160
   21MOL0     H 2778   4.606   1.982   3.862  1.2408 -2.2796 -2.1076
   21MOL0     H 2779   4.469   1.865   3.829 -3.6529  2.5288  0.6055
   21MOL0     H 2780   4.378   1.916   4.066 -1.9560  2.1166  0.1189
   21MOL0     H 2781   4.516   2.002   4.097 -1.3013 -1.8854  0.8292
   21MOL0     H 2782   4.336   2.098   3.866  0.6031  4.0710 -0.6193
   21MOL0     H 2783   4.453   2.194   3.942 -1.2362  0.6489 -5.3244
   21MOL0     H 2784   4.222   2.113   4.123  0.5644 -2.3646 -0.6531
   21MOL0     H 2785   4.365   2.227   4.141  3.2698  0.2131 -2.2623
   21MOL0     H 2786   4.010   2.156   3.958  0.7954  0.5207  0.5313
   21MOL0     H 2787   3.846   2.374   3.883  0.4497 -0.4620  0.7055
   21MOL0     H 2788   3.936   2.470   3.764 -0.8166 -0.3161  1.0054
   21MOL0     H 2789   3.988   2.236   3.641  2.1019  0.7449  4.0632
   21MOL0     H 2790   3.873   2.163   3.751 -0.2157 -0.6182 -1.3557
   21MOL0     H 2791   3.701   2.359   3.666 -3.8318 -2.0819 -1.5062
   21MOL0     H 2792   3.706   2.202   3.593  0.4107 -0.8669 -0.2786
   21MOL0     H 2793   3.856   2.448   3.499  1.9331 -1.4733 -0.1364
   21MOL0     H 2794   3.697   2.387   3.435 -1.6902 -1.0281  1.0582
   21MOL0     H 2795   4.012   2.241   3.205 -1.3909  2.4305  2.3588
   21MOL0     H 2796   3.946   2.117   2.975  0.8426 -3.5483  0.8582
   21MOL0     H 2797   3.463   1.778   2.817 -1.7710  0.1662 -0.3470
   21MOL0     H 2798   3.419   1.719   2.567  1.1151 -1.9117  2.9003
   21MOL0     H 2799   3.370   2.080   2.301  1.0847  1.4592 -1.1467
   21MOL0     H 2800   3.534   2.020   2.248 -0.3157 -1.2540  0.1546
   21MOL0     H 2801   3.339   2.023   2.077  1.2237  1.7005  1.3815
   21MOL0     H 2802   3.469   1.888   2.095 -0.1762  1.9436 -1.9378
   21MOL0     H 2803   3.224   1.823   2.238  2.4055 -0.1559  1.2065
   21MOL0     H 2804   3.176   1.875   2.076  0.4624 -2.4394 -3.4809
   21MOL0     H 2805   3.386   1.665   2.170  1.8066  0.1339 -0.4489
   21MOL0     H 2806   3.339   1.687   1.999 -0.2286  0.3081  1.0558
   21MOL0     H 2807   3.240   1.477   2.098 -3.4380 -1.6569 -0.2408
   21MOL0     H 2808   3.129   1.585   2.030  1.2953 -3.3634 -1.1275
   21MOL0     H 2809   3.195   1.555   2.330  2.4307  1.1219 -2.4383
   21MOL0     H 2810   3.068   1.668   2.274  0.8915  1.2809 -0.8141
   21MOL0     H 2811   3.063   1.370   2.194  1.3157  1.3338 -0.2247
   21MOL0     H 2812   2.938   1.480   2.156  1.3976 -3.1845 -1.6849
   21MOL0     H 2813   2.872   1.506   2.391  0.4733  0.1709 -1.3520
   21MOL0     H 2814   2.853   1.355   2.325 -2.0879  2.5855 -2.8271
   21MOL0     H 2815   3.534   2.131   2.470 -0.8841 -1.2247 -1.1177
   21MOL0     H 2816   3.591   2.170   2.688 -2.2249  1.7393 -0.6018
   21MOL0     H 2817   3.561   2.042   3.152 -0.5949  0.9906 -1.5645
   21MOL0     H 2818   3.623   2.158   3.342 -2.5814 -1.0423 -1.8990
   21MOL0     H 2819   5.080   1.698   3.603  0.6872 -0.0467 -0.4243
   21MOL0     H 2820   5.297   1.812   3.594 -1.9275  2.2868 -1.5421
   21MOL0     H 2821   5.762   1.872   3.612 -1.5581 -1.3259  2.1537
   21MOL0     H 2822   5.959   2.041   3.573  1.3800  6.3578 -1.4822
   21MOL0     H 2823   6.054   2.147   3.884  1.1611  0.4760  1.4938
   21MOL0     H 2824   5.983   2.310   3.917 -0.8100  0.1019 -2.2672
   21MOL0     H 2825   6.155   2.413   3.799  2.6664  0.7559  2.7900
   21MOL0     H 2826   6.239   2.262   3.751  0.1399 -0.6204  0.0427
   21MOL0     H 2827   6.308   2.207   3.979  0.0174 -0.7320 -1.5564
   21MOL0     H 2828   6.212   2.334   4.045 -0.1253 -3.4918  1.9090
   21MOL0     H 2829   6.469   2.356   3.977 -2.5484 -1.2970  0.5922
   21MOL0     H 2830   6.397   2.419   3.824  1.7722 -4.0342 -0.6881
   21MOL0     H 2831   6.307   2.708   4.136  1.0508  1.7699 -1.7159
   21MOL0     H 2832   5.761   2.314   3.829 -2.7082 -1.2700  0.6973
   21MOL0     H 2833   5.439   2.170   3.815  0.5412  0.3478 -0.5805
   21MOL0     H 2834   5.543   2.164   3.965  1.1415  0.2068  0.2049
   21MOL0     H 2835   5.546   2.306   3.856  1.5732 -0.1025  0.4340
   22MOL0     O 2836   8.594   7.543   3.415  0.3602  0.0245 -0.2602
   22MOL0     C 2837   8.675   7.639   3.386  0.0226  0.7991  0.3208
   22MOL0     O 2838   8.649   7.719   3.271  0.0011  0.1328 -0.5297
   22MOL0     C 2839   8.553   7.691   3.176  0.3774  0.2876  0.7084
   22MOL0     C 2840   8.422   7.686   3.220 -0.0083 -0.3875 -0.4407
   22MOL0     C 2841   8.321   7.660   3.129  0.2703  0.5829  0.5115
   22MOL0     C 2842   8.350   7.642   2.992  0.6103  0.4163  0.2541
   22MOL0     O 2843   8.242   7.630   2.907 -0.1425  0.3112 -0.5568
   22MOL0     C 2844   8.208   7.733   2.813  1.1360  0.8233 -0.1509
   22MOL0     C 2845   8.164   7.871   2.871  1.1345 -1.2587  0.8460
   22MOL0     C 2846   8.281   7.958   2.915  0.5864  0.3832  0.6525
   22MOL0     C 2847   8.391   7.973   2.810  0.7402  0.5285 -0.0334
   22MOL0     C 2848   8.504   8.079   2.821  0.2701 -0.2474 -0.2312
   22MOL0     C 2849   8.454   8.223   2.812  0.1550 -1.1776  0.6934
   22MOL0     C 2850   8.584   8.304   2.829  0.8379  1.0595  0.2625
   22MOL0     C 2851   8.596   8.351   2.969  0.1333  0.2251 -0.6879
   22MOL0     N 2852   8.708   8.440   2.986 -0.1879 -1.0235 -0.0895
   22MOL0     C 2853   8.838   8.401   2.970  0.1891  0.9399  0.9860
   22MOL0     C 2854   8.917   8.513   2.999  0.6121  0.6846 -0.0866
   22MOL0     C 2855   9.062   8.507   3.035  0.3392  0.5433  0.3729
   22MOL0     C 2856   9.110   8.589   3.158  0.8484  0.6528  0.2618
   22MOL0     C 2857   9.123   8.743   3.139  0.3547  0.2713 -0.1012
   22MOL0     C 2858   9.159   8.814   3.271 -0.9970 -1.0795 -0.0042
   22MOL0     O 2859   9.282   8.786   3.349  0.5516 -0.1987 -0.4250
   22MOL0     C 2860   9.286   8.874   3.450  0.1642  0.7307 -0.3629
   22MOL0     C 2861   9.248   8.825   3.576  0.4761  0.3923 -0.1377
   22MOL0     C 2862   9.263   8.901   3.684 -0.0271  0.5876 -0.1425
   22MOL0     C 2863   9.304   9.038   3.672  0.4492  0.1005 -0.1566
   22MOL0     C 2864   9.277   9.142   3.773  0.5112 -0.0356 -0.3970
   22MOL0     O 2865   9.164   9.128   3.850 -0.2395  0.0405  0.1659
   22MOL0     C 2866   9.111   9.215   3.948 -0.4286 -0.4632  0.0887
   22MOL0     C 2867   8.981   9.188   3.990 -0.3497  0.0992  0.8937
   22MOL0     C 2868   8.921   9.254   4.099  0.0885  0.0855 -0.3790
   22MOL0     C 2869   8.972   9.374   4.134  0.4282 -0.4544 -1.1854
   22MOL0     O 2870   8.922   9.458   4.230 -1.1135  0.5406  0.6258
   22MOL0     C 2871   8.918   9.417   4.363  0.4882  1.1828 -0.1069
   22MOL0     C 2872   8.802   9.486   4.419 -0.1419 -0.2590 -0.0093
   22MOL0     C 2873   8.810   9.462   4.574  0.3748 -0.1793 -0.7714
   22MOL0     C 2874   8.729   9.571   4.648  0.0393  0.5463  0.0947
   22MOL0     C 2875   8.740   9.564   4.798 -0.6796 -0.6364  0.0574
   22MOL0     C 2876   8.666   9.690   4.872  0.0730  0.4460 -0.8576
   22MOL0     C 2877   8.640   9.664   5.026 -0.0889 -0.2144 -0.0059
   22MOL0     C 2878   8.773   9.641   5.093 -0.3455 -0.0710 -0.1757
   22MOL0    Cl 2879   8.745   9.602   5.264 -0.0922  0.3564 -0.3484
   22MOL0     C 2880   9.094   9.414   4.087 -0.3025  0.0326 -0.5470
   22MOL0     C 2881   9.166   9.334   3.997 -0.1153 -0.6780  0.3788
   22MOL0     O 2882   9.358   9.231   3.777 -0.1991  0.2981  0.2034
   22MOL0     C 2883   9.348   9.083   3.546  0.7876 -0.0218 -0.0983
   22MOL0     C 2884   9.331   8.999   3.432 -0.2373 -0.7334  0.6421
   22MOL0     N 2885   8.830   8.613   3.028 -0.2065  0.0109 -0.8238
   22MOL0     N 2886   8.707   8.574   3.024  0.5103 -0.5541  0.0295
   22MOL0     C 2887   8.486   7.649   2.946  0.1370 -0.0378 -0.2739
   22MOL0     C 2888   8.592   7.675   3.040 -1.7662  0.1473  0.6565
   22MOL0     C 2889   8.801   7.667   3.461 -0.0834 -0.3783  0.5792
   22MOL0     C 2890   8.890   7.756   3.407  0.2368 -0.1799  0.7947
   22MOL0     C 2891   9.013   7.782   3.467 -0.1248 -0.4068 -0.1307
   22MOL0     C 2892   9.055   7.734   3.598  0.3588 -0.9220  0.2320
   22MOL0     O 2893   9.165   7.773   3.672  0.3359  0.4001  0.2621
   22MOL0     C 2894   9.297   7.813   3.608 -0.9804 -0.6054 -0.1882
   22MOL0     C 2895   9.339   7.716   3.503 -0.3774  0.0922 -0.0539
   22MOL0     C 2896   9.483   7.731   3.465 -1.3030  0.3355 -0.7777
   22MOL0     C 2897   9.568   7.608   3.500 -0.4830  1.0356  0.2678
   22MOL0     C 2898   9.595   7.612   3.646 -0.2554  0.2473  0.3682
   22MOL0     C 2899   9.639   7.615   3.758 -1.3604  0.2877  0.7970
   22MOL0     C 2900   8.958   7.645   3.649 -0.3989 -0.3983  0.7222
   22MOL0     C 2901   8.832   7.620   3.590 -0.4850  0.0566 -0.1636
   22MOL0     C 2902   8.748   7.513   3.659 -1.5680 -0.0062 -0.9472
   22MOL0     H 2903   8.411   7.711   3.325  0.7681 -0.0247 -0.4376
   22MOL0     H 2904   8.220   7.663   3.167  0.0071  0.5120 -0.1600
   22MOL0     H 2905   8.278   7.744   2.730  0.2561  2.9775 -0.6813
   22MOL0     H 2906   8.129   7.685   2.754  0.2538  0.6553  1.1201
   22MOL0     H 2907   8.094   7.862   2.955 -0.7212 -0.6612 -0.5669
   22MOL0     H 2908   8.116   7.931   2.793 -2.4431 -1.5485  2.5982
   22MOL0     H 2909   8.316   7.927   3.014  1.9791 -5.1077 -1.1828
   22MOL0     H 2910   8.242   8.059   2.929  2.8951  2.1778 -3.8108
   22MOL0     H 2911   8.439   7.874   2.807 -2.1654 -1.0609  1.6398
   22MOL0     H 2912   8.341   7.979   2.713 -0.5113  4.3868  0.7124
   22MOL0     H 2913   8.562   8.067   2.914  0.1184  1.7880  0.1686
   22MOL0     H 2914   8.571   8.062   2.736 -1.2907 -1.6344 -1.2344
   22MOL0     H 2915   8.422   8.238   2.708  3.9588  0.1160 -0.4561
   22MOL0     H 2916   8.373   8.248   2.881 -0.2955 -0.6025 -0.0151
   22MOL0     H 2917   8.583   8.394   2.767 -3.4239  0.8576 -0.2720
   22MOL0     H 2918   8.667   8.239   2.799  2.3227  2.2285  1.6266
   22MOL0     H 2919   8.503   8.405   2.988 -0.6139 -1.6440  1.4046
   22MOL0     H 2920   8.596   8.271   3.043 -4.1384  0.0634 -0.6246
   22MOL0     H 2921   8.869   8.297   2.966  1.9176  1.3521  2.2279
   22MOL0     H 2922   9.088   8.404   3.059  0.6174  0.7353  0.9160
   22MOL0     H 2923   9.111   8.527   2.939 -2.6757  1.7739 -1.0507
   22MOL0     H 2924   9.049   8.560   3.244  0.4127 -2.6249 -1.0009
   22MOL0     H 2925   9.207   8.548   3.187 -0.9569 -1.8535  3.3066
   22MOL0     H 2926   9.027   8.773   3.096  0.1190  2.2474  1.6386
   22MOL0     H 2927   9.194   8.788   3.070  1.5593  1.5242  1.8555
   22MOL0     H 2928   9.080   8.787   3.341 -0.8732  0.6560  0.8482
   22MOL0     H 2929   9.146   8.921   3.254 -4.0237 -1.4621 -0.7205
   22MOL0     H 2930   9.203   8.726   3.574  5.5958 -2.3046  0.6751
   22MOL0     H 2931   9.219   8.862   3.775  2.9302 -3.1753 -0.0720
   22MOL0     H 2932   8.939   9.096   3.950  0.5943 -0.1554  0.4445
   22MOL0     H 2933   8.830   9.223   4.148  2.2255 -1.5581  2.9318
   22MOL0     H 2934   8.898   9.309   4.364 -0.3795  1.2954 -1.7088
   22MOL0     H 2935   9.005   9.448   4.422 -1.2102  3.8899  1.1919
   22MOL0     H 2936   8.813   9.591   4.391  2.4669 -0.2687  0.7187
   22MOL0     H 2937   8.707   9.456   4.373 -0.7803  2.6968 -0.8324
   22MOL0     H 2938   8.778   9.363   4.608 -0.7019  0.8246  1.3490
   22MOL0     H 2939   8.914   9.465   4.606 -0.0244 -3.0764  1.1501
   22MOL0     H 2940   8.627   9.546   4.619  1.2727 -5.3760 -0.4378
   22MOL0     H 2941   8.766   9.666   4.607  0.1176 -0.7486 -3.1576
   22MOL0     H 2942   8.844   9.574   4.830 -0.3781  1.6847 -1.3699
   22MOL0     H 2943   8.709   9.471   4.845  0.5273 -1.0739  0.0104
   22MOL0     H 2944   8.726   9.780   4.853  0.7766  0.3741  0.8342
   22MOL0     H 2945   8.575   9.696   4.812 -0.4920 -1.3355 -0.2176
   22MOL0     H 2946   8.574   9.580   5.046 -2.4103  1.6709  0.7629
   22MOL0     H 2947   8.587   9.754   5.060 -3.4373 -1.8679 -0.3972
   22MOL0     H 2948   8.833   9.558   5.053  0.8191  0.0068  1.3172
   22MOL0     H 2949   8.828   9.735   5.089  2.6001 -1.6249  0.6102
   22MOL0     H 2950   9.123   9.515   4.116 -1.3113  0.4720 -1.0170
   22MOL0     H 2951   9.268   9.355   3.969 -0.0069  0.5612  1.5888
   22MOL0     H 2952   9.412   9.171   3.536  1.6589  0.0290  4.0144
   22MOL0     H 2953   9.372   9.031   3.337 -1.5872  0.9229  0.5661
   22MOL0     H 2954   8.512   7.620   2.845 -0.1209 -2.7147  0.3439
   22MOL0     H 2955   8.697   7.674   3.014 -0.6696 -3.0219  4.2274
   22MOL0     H 2956   8.861   7.812   3.319 -1.2193  1.0627  1.9998
   22MOL0     H 2957   9.075   7.854   3.413 -0.7480 -1.7485 -2.8008
   22MOL0     H 2958   9.363   7.824   3.694 -1.0866  0.8187 -0.2717
   22MOL0     H 2959   9.309   7.915   3.569  2.7205 -0.4936  0.9325
   22MOL0     H 2960   9.279   7.739   3.414  0.3028  1.1008 -0.2623
   22MOL0     H 2961   9.312   7.614   3.533 -0.3056  0.0771 -0.0425
   22MOL0     H 2962   9.517   7.833   3.486 -3.4115  1.1608 -1.1774
   22MOL0     H 2963   9.476   7.735   3.356 -4.5973  4.2807 -0.6521
   22MOL0     H 2964   9.516   7.518   3.466  0.5555  0.2493  0.7075
   22MOL0     H 2965   9.663   7.595   3.448 -1.4675 -1.0573 -1.1853
   22MOL0     H 2966   9.643   7.612   3.865 -0.7438 -2.6124  0.7722
   22MOL0     H 2967   8.971   7.599   3.747  2.2330  3.7010  2.5381
   22MOL0     H 2968   8.786   7.495   3.760 -2.2623 -1.6110 -0.9476
   22MOL0     H 2969   8.640   7.513   3.671 -1.2911 -2.5012  3.2957
   22MOL0     H 2970   8.773   7.416   3.615  1.5962 -0.9295  2.3811
   23MOL0     O 2971   8.855   7.864   1.312 -0.4307  0.5188 -0.4661
   23MOL0     C 2972   8.790   7.757   1.289 -0.2085 -0.2174  0.4499
   23MOL0     O 2973   8.765   7.709   1.165  0.4168  0.6931  0.0280
   23MOL0     C 2974   8.786   7.775   1.041 -0.2800 -0.5897 -0.4691
   23MOL0     C 2975   8.707   7.740   0.922 -0.6968 -0.3204  1.4698
   23MOL0     C 2976   8.758   7.796   0.798  1.1350 -0.2991 -0.0691
   23MOL0     C 2977   8.838   7.909   0.791  0.2099 -0.0618  0.2828
   23MOL0     O 2978   8.867   7.965   0.667 -0.1098 -0.8406 -0.4968
   23MOL0     C 2979   8.903   8.103   0.662  0.9183 -1.1992 -0.4483
   23MOL0     C 2980   8.798   8.165   0.561 -1.0962 -0.4985  0.3740
   23MOL0     C 2981   8.659   8.198   0.620 -0.3650 -0.3489 -0.4596
   23MOL0     C 2982   8.591   8.070   0.675  0.4299 -0.1029 -0.8003
   23MOL0     C 2983   8.440   8.110   0.688  0.0744  0.0594 -0.9205
   23MOL0     C 2984   8.351   7.984   0.699 -0.1589  0.4714  0.4193
   23MOL0     C 2985   8.345   7.901   0.571  0.2924 -0.2057 -0.4754
   23MOL0     C 2986   8.237   7.792   0.585 -0.0393  1.2229  0.3681
   23MOL0     N 2987   8.243   7.716   0.709 -1.6911 -0.8336  0.3591
   23MOL0     C 2988   8.364   7.657   0.765  0.4079 -0.1836 -0.0090
   23MOL0     C 2989   8.310   7.573   0.850 -0.4727 -0.1656 -0.7913
   23MOL0     C 2990   8.379   7.477   0.947  0.1687  0.5873 -1.7478
   23MOL0     C 2991   8.398   7.542   1.083 -0.4932  0.8837  0.0787
   23MOL0     C 2992   8.265   7.552   1.155  1.0760 -0.5014 -0.2286
   23MOL0     C 2993   8.189   7.422   1.176 -0.5987  0.7525  0.7560
   23MOL0     O 2994   8.273   7.320   1.237  0.1918 -0.1227 -0.4290
   23MOL0     C 2995   8.213   7.272   1.348  0.5864  0.7522  0.0394
   23MOL0     C 2996   8.269   7.316   1.470  1.1353  0.1283 -0.3887
   23MOL0     C 2997   8.193   7.289   1.591  0.6612 -0.4007  1.2586
   23MOL0     C 2998   8.087   7.198   1.584  0.2430  0.3257  0.6081
   23MOL0     C 2999   8.016   7.156   1.710 -0.3517 -0.7042  0.4893
   23MOL0     O 3000   8.050   7.237   1.814  0.2052 -0.6488 -0.2914
   23MOL0     C 3001   7.969   7.239   1.922  0.9278 -0.6080 -1.5704
   23MOL0     C 3002   8.022   7.187   2.038 -0.6100 -0.7484 -0.0224
   23MOL0     C 3003   7.948   7.170   2.154 -1.0812 -0.1685  0.8938
   23MOL0     C 3004   7.816   7.198   2.152  0.1197 -0.0682 -0.2187
   23MOL0     O 3005   7.747   7.154   2.263 -1.2667  0.0347 -0.3070
   23MOL0     C 3006   7.634   7.228   2.307 -0.0732  0.1140  0.1663
   23MOL0     C 3007   7.545   7.149   2.405  0.4096 -0.1342 -0.1858
   23MOL0     C 3008   7.458   7.031   2.352 -0.6855 -0.1162  0.4535
   23MOL0     C 3009   7.344   6.989   2.453  0.5580 -0.2879 -0.8739
   23MOL0     C 3010   7.356   6.861   2.537 -0.1995  0.0866  1.1952
   23MOL0     C 3011   7.457   6.870   2.657  0.3176 -0.9024 -0.1626
   23MOL0     C 3012   7.462   6.743   2.745 -0.4184  0.1457  0.2837
   23MOL0     C 3013   7.531   6.753   2.882 -1.0537  0.7263 -0.7020
   23MOL0    Cl 3014   7.639   6.618   2.930  0.0069 -0.5246  0.4607
   23MOL0     C 3015   7.754   7.261   2.038 -0.6311  0.7495  0.2201
   23MOL0     C 3016   7.831   7.278   1.923  0.1165  0.7001 -0.5767
   23MOL0     O 3017   7.929   7.075   1.695 -0.2797  0.0019 -0.3819
   23MOL0     C 3018   8.060   7.130   1.463 -0.5548 -0.4111 -0.0238
   23MOL0     C 3019   8.110   7.171   1.341 -0.3578  0.0448  0.4043
   23MOL0     N 3020   8.172   7.584   0.850  0.4194  0.9002 -0.3612
   23MOL0     N 3021   8.137   7.672   0.772 -0.4227  0.3265  0.3782
   23MOL0     C 3022   8.898   7.946   0.903 -0.6770 -0.5241 -0.3089
   23MOL0     C 3023   8.881   7.878   1.026  0.1133  0.3578  0.9792
   23MOL0     C 3024   8.743   7.674   1.403  0.0843  0.1122  0.2597
   23MOL0     C 3025   8.674   7.552   1.375 -0.4021 -0.4454  0.3242
   23MOL0     C 3026   8.618   7.474   1.474  0.4739 -0.3469 -0.5991
   23MOL0     C 3027   8.633   7.516   1.602 -0.1420  1.1080  0.4408
   23MOL0     O 3028   8.560   7.431   1.690 -0.2090 -0.4921  0.0782
   23MOL0     C 3029   8.557   7.462   1.833 -0.7234 -0.6934 -0.0356
   23MOL0     C 3030   8.477   7.350   1.905 -1.5684 -0.4521  0.1018
   23MOL0     C 3031   8.503   7.350   2.054 -0.4285  0.9016 -1.1054
   23MOL0     C 3032   8.434   7.230   2.127 -0.8288 -0.1031  0.7466
   23MOL0     C 3033   8.489   7.234   2.263  0.3315 -0.1516  0.9658
   23MOL0     C 3034   8.541   7.228   2.376  0.3381 -1.4383  0.0696
   23MOL0     C 3035   8.704   7.628   1.637 -0.4165 -0.3132 -0.8555
   23MOL0     C 3036   8.755   7.710   1.538 -0.4818 -1.4211 -1.5044
   23MOL0     C 3037   8.807   7.846   1.588  1.7318  1.0716  0.5123
   23MOL0     H 3038   8.630   7.664   0.928 -1.0512 -0.3349 -1.6230
   23MOL0     H 3039   8.709   7.766   0.706 -2.3876  0.1962  1.4810
   23MOL0     H 3040   8.898   8.161   0.754  0.3886 -3.5256  1.0788
   23MOL0     H 3041   9.008   8.110   0.630  0.5295 -2.7408 -2.2770
   23MOL0     H 3042   8.797   8.104   0.470 -2.5178  1.1003 -0.7545
   23MOL0     H 3043   8.835   8.259   0.519 -2.1590  0.8869  2.4002
   23MOL0     H 3044   8.605   8.246   0.537  0.0153  0.9015 -0.0172
   23MOL0     H 3045   8.675   8.276   0.695 -0.8043 -1.7167  1.1138
   23MOL0     H 3046   8.616   7.981   0.616  1.0299 -1.4202  1.3305
   23MOL0     H 3047   8.617   8.049   0.779 -0.9745  2.6437  0.2041
   23MOL0     H 3048   8.426   8.158   0.785 -1.1175 -0.4764 -0.8104
   23MOL0     H 3049   8.413   8.182   0.611 -1.8016 -1.6330 -1.9417
   23MOL0     H 3050   8.393   7.924   0.780  2.4107 -1.3738 -2.0715
   23MOL0     H 3051   8.245   8.012   0.706 -0.5004  0.9779 -3.8455
   23MOL0     H 3052   8.444   7.862   0.547  0.6029 -0.9423  1.7669
   23MOL0     H 3053   8.311   7.956   0.483 -0.2944  2.0507  1.0770
   23MOL0     H 3054   8.133   7.826   0.577 -1.6604 -3.1116  0.0931
   23MOL0     H 3055   8.239   7.713   0.509 -1.9534  0.1608  1.3378
   23MOL0     H 3056   8.468   7.678   0.745 -0.2640 -0.7559 -5.9737
   23MOL0     H 3057   8.328   7.381   0.947 -2.4676  1.7937  1.9960
   23MOL0     H 3058   8.482   7.464   0.910  0.5421 -1.9898  0.0137
   23MOL0     H 3059   8.475   7.486   1.137 -3.3354 -0.8576  2.6272
   23MOL0     H 3060   8.444   7.639   1.066  1.9839 -0.0834  0.7970
   23MOL0     H 3061   8.208   7.627   1.099 -0.5891 -0.5378  1.3089
   23MOL0     H 3062   8.299   7.590   1.251 -0.4780  1.3894 -0.3576
   23MOL0     H 3063   8.146   7.367   1.091  2.3812 -4.0355  1.9362
   23MOL0     H 3064   8.109   7.448   1.246 -0.3849  3.5656  0.0588
   23MOL0     H 3065   8.357   7.379   1.467  0.5274  0.9687 -3.0979
   23MOL0     H 3066   8.226   7.325   1.688 -1.2155 -0.7209  2.0644
   23MOL0     H 3067   8.127   7.161   2.025 -0.0086  1.9127 -1.1896
   23MOL0     H 3068   7.996   7.125   2.241 -0.2289  1.6596  1.4082
   23MOL0     H 3069   7.667   7.321   2.354  2.1828 -0.6847  0.2791
   23MOL0     H 3070   7.573   7.262   2.223  1.9508 -0.9354 -1.8240
   23MOL0     H 3071   7.601   7.105   2.487  1.0214  0.3386 -0.3374
   23MOL0     H 3072   7.479   7.221   2.453  0.5278  0.1198 -0.3991
   23MOL0     H 3073   7.404   7.065   2.263 -1.2288  0.8274  1.1428
   23MOL0     H 3074   7.521   6.943   2.335 -0.5407 -0.0907  0.8430
   23MOL0     H 3075   7.250   6.968   2.401 -0.1776 -0.4411  0.4574
   23MOL0     H 3076   7.316   7.072   2.519  1.5445  0.6215 -1.5728
   23MOL0     H 3077   7.384   6.780   2.468 -0.8887  0.3544  0.5852
   23MOL0     H 3078   7.265   6.849   2.597 -1.0633  1.6624  0.2785
   23MOL0     H 3079   7.560   6.886   2.623  1.3881 -1.7356  2.4795
   23MOL0     H 3080   7.421   6.953   2.718 -0.4460 -0.9524 -0.5329
   23MOL0     H 3081   7.496   6.656   2.687  2.4841 -0.5668  2.8169
   23MOL0     H 3082   7.357   6.717   2.761  0.0072 -1.3314  0.8547
   23MOL0     H 3083   7.599   6.838   2.871  3.1224 -1.9776  1.5440
   23MOL0     H 3084   7.451   6.774   2.954 -3.3734  1.1669 -3.2223
   23MOL0     H 3085   7.648   7.285   2.033 -0.2820  3.0040  1.8501
   23MOL0     H 3086   7.773   7.317   1.840 -1.5081 -4.4459 -2.2099
   23MOL0     H 3087   7.986   7.050   1.456 -0.8840 -0.1059 -0.0472
   23MOL0     H 3088   8.061   7.133   1.252  0.1785  0.7073 -0.1975
   23MOL0     H 3089   8.977   8.021   0.909 -0.4650 -0.7081 -0.7416
   23MOL0     H 3090   8.947   7.901   1.109  0.9088 -0.2639  0.5341
   23MOL0     H 3091   8.660   7.517   1.273  0.8664 -2.0009  0.6388
   23MOL0     H 3092   8.559   7.385   1.456 -1.0960  0.2551  1.2573
   23MOL0     H 3093   8.509   7.560   1.828 -1.6268 -1.0840 -6.0101
   23MOL0     H 3094   8.659   7.467   1.873 -0.3376 -0.7660 -0.9823
   23MOL0     H 3095   8.510   7.254   1.865  2.2876  0.8619 -0.3012
   23MOL0     H 3096   8.372   7.364   1.879 -1.5764  2.9808  1.4361
   23MOL0     H 3097   8.475   7.443   2.103  2.0505  0.0400  2.2734
   23MOL0     H 3098   8.612   7.340   2.058 -0.6316 -1.5645  1.0721
   23MOL0     H 3099   8.327   7.251   2.122 -1.3696 -2.3385  1.6990
   23MOL0     H 3100   8.450   7.131   2.083 -2.4116  0.6578 -1.7759
   23MOL0     H 3101   8.580   7.234   2.476 -1.3813 -0.1661  0.7242
   23MOL0     H 3102   8.699   7.658   1.741  1.4492 -1.2119 -0.4613
   23MOL0     H 3103   8.815   7.845   1.697  2.8695  1.7311  0.4481
   23MOL0     H 3104   8.903   7.872   1.543  2.0655  4.3100  2.7532
   23MOL0     H 3105   8.734   7.916   1.546 -1.7253 -2.5371 -0.1640
   24MOL0     O 3106   3.817  10.378   3.577 -1.1901  0.1402 -0.3584
   24MOL0     C 3107   3.779  10.335   3.687  0.0316 -0.3766 -0.1292
   24MOL0     O 3108   3.650  10.336   3.734  0.2702  0.1888 -0.0990
   24MOL0     C 3109   3.549  10.351   3.635 -0.4462 -1.2663 -0.6341
   24MOL0     C 3110   3.550  10.272   3.526 -0.7590 -0.5017 -0.5487
   24MOL0     C 3111   3.439  10.277   3.443 -0.3103 -0.1368  0.9056
   24MOL0     C 3112   3.329  10.363   3.468 -0.6008 -0.1286 -1.0691
   24MOL0     O 3113   3.230  10.360   3.373  0.1241  0.3436  0.6129
   24MOL0     C 3114   3.129  10.459   3.374  0.2388  0.0328  0.0852
   24MOL0     C 3115   3.022  10.436   3.267 -0.5597  0.2374 -0.5126
   24MOL0     C 3116   2.945  10.319   3.306  0.4075  0.1945  0.1592
   24MOL0     C 3117   2.793  10.330   3.263  0.2978 -0.6431 -0.2709
   24MOL0     C 3118   2.713  10.243   3.352  1.1725 -0.4371  1.1262
   24MOL0     C 3119   2.561  10.267   3.342 -0.7199  0.1345  0.5368
   24MOL0     C 3120   2.492  10.256   3.209  0.1776 -0.2898 -0.6877
   24MOL0     C 3121   2.543  10.140   3.132 -0.0204  1.0295 -0.1713
   24MOL0     N 3122   2.472  10.120   3.001  0.6312  0.1051 -0.5722
   24MOL0     C 3123   2.328  10.122   2.988 -0.1014 -0.7473  0.1035
   24MOL0     C 3124   2.316  10.120   2.855 -0.1844  0.2824  0.1623
   24MOL0     C 3125   2.180  10.128   2.797  0.6287  0.0839  1.0341
   24MOL0     C 3126   2.171  10.052   2.654  0.2777 -0.6428 -0.8153
   24MOL0     C 3127   2.213   9.902   2.678 -0.0517 -1.5454  0.2875
   24MOL0     C 3128   2.192   9.824   2.559 -0.3853 -0.4735 -0.4558
   24MOL0     O 3129   2.061   9.782   2.551  0.1381 -0.4748 -0.3247
   24MOL0     C 3130   2.015   9.737   2.431  0.0350 -0.1660  0.1649
   24MOL0     C 3131   2.022   9.807   2.308  1.2530 -0.4984 -0.0107
   24MOL0     C 3132   1.962   9.768   2.193  0.6314 -0.0598  0.5164
   24MOL0     C 3133   1.891   9.646   2.202 -0.7522  0.9665 -0.1008
   24MOL0     C 3134   1.825   9.597   2.069 -0.1805  0.9609  0.8862
   24MOL0     O 3135   1.814   9.466   2.053  0.3335 -0.8653 -0.1359
   24MOL0     C 3136   1.749   9.406   1.947 -0.3530  0.2747  0.1281
   24MOL0     C 3137   1.736   9.454   1.822  0.1008 -1.1132  0.4036
   24MOL0     C 3138   1.659   9.395   1.722 -0.8501  0.8404 -0.3360
   24MOL0     C 3139   1.602   9.265   1.741  0.5695  0.2433 -0.1497
   24MOL0     O 3140   1.532   9.188   1.651  0.0938 -0.1130 -0.5446
   24MOL0     C 3141   1.544   9.217   1.513  0.4205 -0.3145  0.6203
   24MOL0     C 3142   1.412   9.154   1.442  0.2817 -0.4059  0.0504
   24MOL0     C 3143   1.396   8.990   1.453  0.4639  0.8063 -0.0470
   24MOL0     C 3144   1.483   8.942   1.341 -0.0065 -0.1460  0.3487
   24MOL0     C 3145   1.494   8.782   1.348  0.4864 -0.1640  0.3444
   24MOL0     C 3146   1.566   8.730   1.224  0.3736 -0.4919 -0.5563
   24MOL0     C 3147   1.516   8.583   1.199 -0.2918  0.0428 -0.0036
   24MOL0     C 3148   1.544   8.483   1.309  0.7930  1.2099  0.2114
   24MOL0    Cl 3149   1.416   8.459   1.427 -0.2501 -0.6953  0.1872
   24MOL0     C 3150   1.611   9.212   1.867  0.4458 -0.7954 -0.2382
   24MOL0     C 3151   1.693   9.279   1.966  0.0146 -0.3753 -0.7696
   24MOL0     O 3152   1.784   9.690   1.992 -0.9693  0.2699  0.4550
   24MOL0     C 3153   1.893   9.562   2.321  0.1969  0.3596 -0.0208
   24MOL0     C 3154   1.945   9.617   2.436 -0.8423 -0.2158  0.9251
   24MOL0     N 3155   2.439  10.119   2.790  0.6416  0.9080 -0.1028
   24MOL0     N 3156   2.529  10.104   2.877 -0.8532 -0.2313  0.0352
   24MOL0     C 3157   3.337  10.451   3.581  0.3787 -0.0144  0.9402
   24MOL0     C 3158   3.441  10.438   3.664 -0.2940  0.3240  0.3160
   24MOL0     C 3159   3.896  10.284   3.767  0.4690  1.9382 -0.9401
   24MOL0     C 3160   3.870  10.256   3.906  0.7367  0.7675  0.3547
   24MOL0     C 3161   3.960  10.193   3.994 -0.1200 -0.4362  0.3607
   24MOL0     C 3162   4.090  10.170   3.952  0.2625 -0.2096 -0.1342
   24MOL0     O 3163   4.181  10.103   4.035  0.1963 -0.3769  0.2864
   24MOL0     C 3164   4.155  10.006   4.133 -0.1476 -0.0657 -0.7214
   24MOL0     C 3165   4.274   9.934   4.183 -0.3097  0.4367  0.2754
   24MOL0     C 3166   4.376   9.891   4.073  0.3264  0.7296  0.2292
   24MOL0     C 3167   4.527   9.905   4.075  0.4839  1.8643  1.0408
   24MOL0     C 3168   4.574  10.037   4.088  1.4316 -0.3880 -0.6556
   24MOL0     C 3169   4.615  10.150   4.096  0.5532 -1.1520 -0.5576
   24MOL0     C 3170   4.124  10.210   3.821 -0.0974  0.6027  0.2097
   24MOL0     C 3171   4.030  10.258   3.728  0.4012  0.1288 -0.3378
   24MOL0     C 3172   4.085  10.293   3.592 -0.1476  0.2410  0.0072
   24MOL0     H 3173   3.636  10.208   3.509  0.7167  1.2813 -0.2218
   24MOL0     H 3174   3.451  10.203   3.365  2.7268  2.7567 -1.7249
   24MOL0     H 3175   3.081  10.480   3.470  0.9972  2.8575 -0.0603
   24MOL0     H 3176   3.166  10.559   3.349  0.1181  0.6465  2.2145
   24MOL0     H 3177   3.070  10.424   3.170 -0.8073  2.2959 -0.9288
   24MOL0     H 3178   2.962  10.527   3.264 -2.8024 -0.9734  2.4607
   24MOL0     H 3179   2.945  10.314   3.415  0.5153  0.9182  0.1992
   24MOL0     H 3180   2.991  10.227   3.270  2.8348  1.0389  0.9523
   24MOL0     H 3181   2.762  10.434   3.280  4.4870  0.8361 -0.4724
   24MOL0     H 3182   2.770  10.308   3.158 -0.3021  2.7760 -1.0016
   24MOL0     H 3183   2.747  10.145   3.316  1.2201 -0.0813  0.1750
   24MOL0     H 3184   2.740  10.258   3.457  3.2498  1.7604  0.3552
   24MOL0     H 3185   2.524  10.196   3.417 -2.9903 -1.7148 -2.1032
   24MOL0     H 3186   2.528  10.362   3.383 -2.5880  0.1631 -0.9167
   24MOL0     H 3187   2.523  10.344   3.152  2.2011 -0.9361 -0.6796
   24MOL0     H 3188   2.385  10.239   3.221  0.5325 -2.0938  0.3406
   24MOL0     H 3189   2.651  10.144   3.122  0.3116 -1.7152  1.2672
   24MOL0     H 3190   2.522  10.048   3.187  0.3361  1.1735  0.2149
   24MOL0     H 3191   2.247  10.128   3.061 -0.3098  0.8622 -0.2275
   24MOL0     H 3192   2.116  10.066   2.861 -1.1148 -0.1339 -0.8191
   24MOL0     H 3193   2.142  10.230   2.790 -3.9024 -1.4938 -1.2102
   24MOL0     H 3194   2.066  10.054   2.623 -2.1184 -3.4341  5.3115
   24MOL0     H 3195   2.235  10.100   2.580  0.3188  0.7803  0.1049
   24MOL0     H 3196   2.167   9.845   2.759 -0.0014 -0.6598  0.9525
   24MOL0     H 3197   2.321   9.898   2.697 -0.2521 -1.2238  1.6505
   24MOL0     H 3198   2.254   9.736   2.581  1.2454 -0.0478 -2.9229
   24MOL0     H 3199   2.227   9.872   2.468 -1.4013  0.4865 -0.3557
   24MOL0     H 3200   2.070   9.905   2.308 -2.2088  1.3866 -2.3664
   24MOL0     H 3201   1.970   9.823   2.100  1.3987 -0.3857  0.3892
   24MOL0     H 3202   1.786   9.547   1.798  0.8780 -2.1612 -2.4430
   24MOL0     H 3203   1.664   9.442   1.624  0.7402 -0.0336 -0.6954
   24MOL0     H 3204   1.517   9.323   1.505 -1.5734 -0.8733 -1.1129
   24MOL0     H 3205   1.644   9.204   1.472  1.1237  4.5549  0.1649
   24MOL0     H 3206   1.325   9.192   1.495 -0.2374  0.0478 -1.0943
   24MOL0     H 3207   1.412   9.180   1.336  1.4596 -1.0552 -0.1314
   24MOL0     H 3208   1.435   8.935   1.540  3.9707  0.6194 -1.5545
   24MOL0     H 3209   1.291   8.964   1.440  0.7914 -0.7251  0.1349
   24MOL0     H 3210   1.588   8.970   1.356  0.5864 -1.0754 -1.7058
   24MOL0     H 3211   1.445   8.974   1.244  1.8694 -4.9022 -2.2641
   24MOL0     H 3212   1.394   8.737   1.352  0.8521 -1.0960 -0.5280
   24MOL0     H 3213   1.543   8.756   1.443  2.2373 -0.6345 -0.6467
   24MOL0     H 3214   1.546   8.790   1.135 -0.2403 -2.9443 -2.2070
   24MOL0     H 3215   1.675   8.733   1.235  0.7084 -0.3741 -3.2661
   24MOL0     H 3216   1.563   8.544   1.108 -1.2895 -1.7733  0.2093
   24MOL0     H 3217   1.407   8.588   1.187 -0.5780  1.2965  2.5211
   24MOL0     H 3218   1.565   8.378   1.289  1.4894  0.9547  2.0024
   24MOL0     H 3219   1.628   8.533   1.359  1.9603  0.3128 -0.7896
   24MOL0     H 3220   1.564   9.116   1.884  1.5252 -1.2623  0.2043
   24MOL0     H 3221   1.697   9.229   2.063  3.5262 -2.0193 -1.5710
   24MOL0     H 3222   1.837   9.470   2.325  1.1972 -0.2998  4.1339
   24MOL0     H 3223   1.933   9.546   2.517  0.5282 -0.9835  0.4945
   24MOL0     H 3224   3.265  10.531   3.594  0.7543  0.4655  0.1382
   24MOL0     H 3225   3.439  10.472   3.767  0.3836 -1.2650  0.8891
   24MOL0     H 3226   3.770  10.272   3.946 -0.5080 -5.1902  0.5352
   24MOL0     H 3227   3.938  10.154   4.093  2.9327 -1.3268  0.7943
   24MOL0     H 3228   4.088   9.931   4.091  0.2355 -1.9728  1.8479
   24MOL0     H 3229   4.109  10.065   4.214  1.3313  0.6525 -0.3748
   24MOL0     H 3230   4.244   9.850   4.246  0.6103  2.1669  3.2104
   24MOL0     H 3231   4.336   9.988   4.255  2.3383 -1.1676 -0.6649
   24MOL0     H 3232   4.350   9.955   3.988 -0.0222  0.5674  0.2100
   24MOL0     H 3233   4.356   9.791   4.033 -0.2311  1.9451 -2.7961
   24MOL0     H 3234   4.580   9.844   4.149  1.4303  0.1759 -0.9479
   24MOL0     H 3235   4.561   9.876   3.975  1.1163  1.0480  1.4725
   24MOL0     H 3236   4.650  10.247   4.127  2.6982 -2.1557  0.4052
   24MOL0     H 3237   4.229  10.199   3.795  0.3275  1.1220  1.5830
   24MOL0     H 3238   4.015  10.245   3.523 -0.8535 -1.3242  1.7251
   24MOL0     H 3239   4.095  10.400   3.570  0.4629  0.7641  2.4983
   24MOL0     H 3240   4.183  10.251   3.571  1.1053  4.0026 -2.9818
   25MOL0     O 3241   2.301   4.110   8.736  0.5889 -0.0937  0.4765
   25MOL0     C 3242   2.260   4.224   8.711 -1.1140  0.0045  0.3217
   25MOL0     O 3243   2.289   4.297   8.603  0.5343  0.9271  0.0339
   25MOL0     C 3244   2.317   4.217   8.488  0.6567 -0.1836  0.4381
   25MOL0     C 3245   2.437   4.215   8.421 -1.1692 -0.2365  0.4040
   25MOL0     C 3246   2.459   4.125   8.325  0.5433  0.2763 -0.2869
   25MOL0     C 3247   2.359   4.041   8.275 -0.6780 -0.0805 -0.2827
   25MOL0     O 3248   2.374   3.963   8.162 -0.2848  0.2500 -0.1856
   25MOL0     C 3249   2.492   3.889   8.158 -0.0334  0.5432 -0.7159
   25MOL0     C 3250   2.469   3.770   8.075  0.4229  0.3726 -0.0320
   25MOL0     C 3251   2.370   3.677   8.135  0.7727  0.4265  0.1433
   25MOL0     C 3252   2.393   3.531   8.088  0.5343  0.3851 -0.2206
   25MOL0     C 3253   2.265   3.457   8.052  0.1071  0.9941 -0.5185
   25MOL0     C 3254   2.161   3.442   8.169 -0.7970  0.4487  0.6073
   25MOL0     C 3255   2.059   3.324   8.140 -0.8132  0.4100 -0.4934
   25MOL0     C 3256   1.935   3.360   8.048  0.5276  0.5821  1.1703
   25MOL0     N 3257   1.877   3.488   8.071 -0.3745 -0.1852 -0.6232
   25MOL0     C 3258   1.771   3.514   8.145  0.3288  0.1702 -1.0973
   25MOL0     C 3259   1.742   3.646   8.114 -0.5758 -0.1627 -0.3944
   25MOL0     C 3260   1.618   3.708   8.167  0.1998 -0.1504  0.7036
   25MOL0     C 3261   1.626   3.730   8.323 -0.4282 -0.1669  0.0884
   25MOL0     C 3262   1.757   3.811   8.366 -0.9891 -0.4606  0.0369
   25MOL0     C 3263   1.748   3.874   8.509 -0.2452  0.2437  0.6044
   25MOL0     O 3264   1.830   3.992   8.540  0.1826  0.2844  0.2760
   25MOL0     C 3265   1.755   4.099   8.565 -0.9526  0.2007 -0.4127
   25MOL0     C 3266   1.765   4.205   8.470  0.9957  0.1255  0.1049
   25MOL0     C 3267   1.698   4.331   8.479  0.3886  0.3126  0.1370
   25MOL0     C 3268   1.620   4.356   8.589  0.9195 -0.1369 -1.0398
   25MOL0     C 3269   1.565   4.486   8.623 -0.1816 -0.3707  0.7232
   25MOL0     O 3270   1.532   4.571   8.519  0.2354  0.2853 -0.3420
   25MOL0     C 3271   1.480   4.694   8.553 -0.1107  0.6857  1.1439
   25MOL0     C 3272   1.357   4.725   8.509  0.5337 -0.1479  0.0306
   25MOL0     C 3273   1.311   4.850   8.532 -0.5905  0.2163  0.0934
   25MOL0     C 3274   1.375   4.935   8.623 -0.0859  0.2665  0.7664
   25MOL0     O 3275   1.309   5.041   8.664  0.7100 -0.6862 -0.1786
   25MOL0     C 3276   1.306   5.055   8.813  0.0932  0.0344  0.8950
   25MOL0     C 3277   1.161   5.068   8.861  0.2148 -0.1808  0.5761
   25MOL0     C 3278   1.101   5.208   8.849  0.6539 -0.6764 -0.3197
   25MOL0     C 3279   1.167   5.301   8.947 -0.3226 -1.0017  0.3507
   25MOL0     C 3280   1.078   5.421   8.957 -0.6333 -0.5257 -0.5548
   25MOL0     C 3281   1.133   5.530   9.065 -0.6945  0.7501 -0.0515
   25MOL0     C 3282   1.199   5.646   8.986 -0.0875 -0.9836  0.9770
   25MOL0     C 3283   1.323   5.621   8.901 -0.0132 -0.1533  0.3584
   25MOL0    Cl 3284   1.457   5.553   9.012  0.0678 -0.4595  0.4573
   25MOL0     C 3285   1.496   4.900   8.677  0.0655  0.3739  0.7191
   25MOL0     C 3286   1.551   4.774   8.641 -0.1888 -0.4246  0.3119
   25MOL0     O 3287   1.538   4.507   8.740 -0.1155  0.5148 -0.0880
   25MOL0     C 3288   1.592   4.250   8.680 -0.7703  1.1324  0.6092
   25MOL0     C 3289   1.659   4.123   8.663 -0.1341 -0.4086 -0.2681
   25MOL0     N 3290   1.826   3.699   8.012  0.0563  0.2902 -0.8919
   25MOL0     N 3291   1.906   3.606   7.995  0.2912  0.6936 -0.9212
   25MOL0     C 3292   2.229   4.070   8.326  0.2750  0.5781 -0.1911
   25MOL0     C 3293   2.201   4.158   8.433  0.2366  0.1663  1.0301
   25MOL0     C 3294   2.202   4.292   8.838  0.1901 -1.4501  0.0840
   25MOL0     C 3295   2.288   4.384   8.905  0.3390  0.4143  0.0522
   25MOL0     C 3296   2.250   4.428   9.034 -0.4723 -0.2384 -0.0176
   25MOL0     C 3297   2.117   4.407   9.083 -0.4384 -0.8793 -0.0259
   25MOL0     O 3298   2.078   4.456   9.209 -0.3719 -0.3172 -0.7787
   25MOL0     C 3299   1.937   4.480   9.225 -0.2718 -0.5236 -0.9717
   25MOL0     C 3300   1.873   4.361   9.292  0.2848  0.7279  0.0099
   25MOL0     C 3301   1.722   4.352   9.254 -0.3872  1.1183 -0.5667
   25MOL0     C 3302   1.667   4.216   9.305 -0.0968  0.0479 -0.2211
   25MOL0     C 3303   1.533   4.193   9.242 -0.0790  0.7485 -0.2020
   25MOL0     C 3304   1.438   4.153   9.185 -0.5655 -0.5164  0.0930
   25MOL0     C 3305   2.028   4.340   8.991  0.0669  0.0573  0.6307
   25MOL0     C 3306   2.070   4.274   8.878 -0.3380  0.2431  0.0190
   25MOL0     C 3307   1.977   4.193   8.792 -1.0886 -0.1861 -0.0252
   25MOL0     H 3308   2.523   4.273   8.451 -0.6480 -1.2991  1.0233
   25MOL0     H 3309   2.560   4.113   8.287 -1.0775 -3.8548 -4.2085
   25MOL0     H 3310   2.570   3.953   8.114 -1.6623  3.1902 -0.0378
   25MOL0     H 3311   2.518   3.861   8.261  0.1890  4.5974  0.5141
   25MOL0     H 3312   2.565   3.718   8.070 -1.7936 -4.1954 -0.6089
   25MOL0     H 3313   2.449   3.791   7.970 -0.4582 -1.1458 -0.1885
   25MOL0     H 3314   2.279   3.709   8.082  2.4290  0.0415 -3.2388
   25MOL0     H 3315   2.369   3.697   8.242 -1.3643  0.6016  0.1396
   25MOL0     H 3316   2.452   3.540   7.996  0.4846  1.4746 -0.1558
   25MOL0     H 3317   2.457   3.473   8.155 -0.1670 -0.1246  0.0180
   25MOL0     H 3318   2.210   3.508   7.971 -1.6457  0.6010  0.3759
   25MOL0     H 3319   2.299   3.356   8.028  1.3313  0.8196  1.7204
   25MOL0     H 3320   2.210   3.404   8.259 -3.1388 -3.4005  0.4785
   25MOL0     H 3321   2.119   3.541   8.189  2.3728  2.4270 -1.5069
   25MOL0     H 3322   2.012   3.288   8.232 -1.6990  0.6210 -0.8447
   25MOL0     H 3323   2.106   3.236   8.097  0.4207  1.3254 -1.0747
   25MOL0     H 3324   1.966   3.355   7.943 -1.6793  0.1406  0.4881
   25MOL0     H 3325   1.869   3.274   8.061  3.6749 -2.4598 -1.1628
   25MOL0     H 3326   1.724   3.452   8.222 -0.8066  1.3011 -0.8270
   25MOL0     H 3327   1.621   3.803   8.112 -0.4281 -1.3071 -1.4189
   25MOL0     H 3328   1.528   3.662   8.126  1.0093 -1.4155  0.2861
   25MOL0     H 3329   1.551   3.803   8.355 -0.4097 -0.0391 -0.1583
   25MOL0     H 3330   1.610   3.628   8.361 -0.9573 -0.6623 -1.4015
   25MOL0     H 3331   1.765   3.897   8.300  0.2037  0.2618  1.0684
   25MOL0     H 3332   1.847   3.749   8.355  1.1192  2.2942  0.5837
   25MOL0     H 3333   1.772   3.791   8.577 -2.8080 -2.3550 -1.4008
   25MOL0     H 3334   1.641   3.892   8.517 -0.6240 -0.8731 -1.2206
   25MOL0     H 3335   1.837   4.190   8.390  0.7469  0.8812 -0.2746
   25MOL0     H 3336   1.706   4.414   8.410 -2.1962  0.3062 -0.2669
   25MOL0     H 3337   1.297   4.648   8.462 -0.0884  1.0908 -1.2662
   25MOL0     H 3338   1.216   4.890   8.497 -0.4342  2.2159  1.7837
   25MOL0     H 3339   1.353   4.972   8.866 -0.1008 -0.9016 -0.3544
   25MOL0     H 3340   1.366   5.141   8.842  2.7114 -0.9372 -1.2584
   25MOL0     H 3341   1.116   4.992   8.796  1.0412  0.4483 -0.7794
   25MOL0     H 3342   1.155   5.048   8.968  0.4467  0.0654  0.6367
   25MOL0     H 3343   1.115   5.246   8.747  0.9470 -0.0738 -0.0565
   25MOL0     H 3344   0.993   5.201   8.861  0.1010  0.6411 -3.4303
   25MOL0     H 3345   1.269   5.326   8.918 -1.1515  1.8784 -0.4583
   25MOL0     H 3346   1.166   5.259   9.048 -2.9130 -0.0227  0.8353
   25MOL0     H 3347   0.983   5.388   9.001 -0.8172  2.1729  1.3436
   25MOL0     H 3348   1.052   5.462   8.859 -0.3097  1.1073  0.0036
   25MOL0     H 3349   1.055   5.563   9.135 -0.1920  0.6662  0.5533
   25MOL0     H 3350   1.203   5.485   9.135 -0.5060 -2.8586 -2.2867
   25MOL0     H 3351   1.223   5.726   9.057  0.8795  0.0610 -0.4709
   25MOL0     H 3352   1.117   5.687   8.927  1.8171  1.2970 -0.2547
   25MOL0     H 3353   1.306   5.563   8.810 -4.6945  2.2782 -0.6097
   25MOL0     H 3354   1.355   5.715   8.853 -0.8016  0.6570  1.3819
   25MOL0     H 3355   1.553   4.967   8.740  3.5939 -0.9709 -0.7854
   25MOL0     H 3356   1.646   4.753   8.689  1.5894  1.8430 -1.9927
   25MOL0     H 3357   1.535   4.257   8.772  1.1773  0.5705  1.9232
   25MOL0     H 3358   1.645   4.041   8.732 -2.3624 -0.7510 -1.0321
   25MOL0     H 3359   2.148   4.008   8.290  1.5871 -0.2498 -1.8793
   25MOL0     H 3360   2.109   4.162   8.489 -0.1736  0.0703  0.3723
   25MOL0     H 3361   2.389   4.411   8.876  1.4173 -0.9425  2.2838
   25MOL0     H 3362   2.320   4.495   9.082 -0.4174  2.8108 -3.8272
   25MOL0     H 3363   1.887   4.498   9.129 -0.3271  0.6950 -0.7280
   25MOL0     H 3364   1.922   4.568   9.288 -2.2549 -0.0872 -1.9586
   25MOL0     H 3365   1.885   4.348   9.400 -1.5295 -1.4052  0.0443
   25MOL0     H 3366   1.929   4.277   9.248  2.4307  2.4917 -0.8303
   25MOL0     H 3367   1.721   4.341   9.145 -1.8940  4.4139 -1.0020
   25MOL0     H 3368   1.669   4.442   9.283 -0.2950  1.1187 -0.3932
   25MOL0     H 3369   1.714   4.121   9.278  0.1825 -0.5268  2.0402
   25MOL0     H 3370   1.656   4.220   9.414  1.2779  1.4098 -0.0894
   25MOL0     H 3371   1.353   4.143   9.121  1.0081  1.2470 -2.4235
   25MOL0     H 3372   1.923   4.324   9.012  0.4526 -1.5963  1.5137
   25MOL0     H 3373   1.938   4.246   8.704  1.0579  1.2365 -0.1781
   25MOL0     H 3374   2.042   4.119   8.743  1.9017  2.5401 -0.5122
   25MOL0     H 3375   1.902   4.145   8.855  1.0088 -2.7404  0.7254
   26MOL0     O 3376  11.200   4.804   1.098  0.7638  0.0984 -0.0423
   26MOL0     C 3377  11.189   4.759   1.211  0.3486 -0.5500 -0.7459
   26MOL0     O 3378  11.092   4.793   1.303 -0.2723  0.1022  0.1093
   26MOL0     C 3379  10.978   4.859   1.257  0.1912  0.8170 -0.8540
   26MOL0     C 3380  10.905   4.781   1.164 -0.3568  0.3792  0.7465
   26MOL0     C 3381  10.791   4.838   1.093 -0.3726  0.4285  0.0136
   26MOL0     C 3382  10.743   4.964   1.138  0.2948  0.5307  0.3165
   26MOL0     O 3383  10.622   5.013   1.087 -0.1032 -0.6410 -0.4139
   26MOL0     C 3384  10.631   5.051   0.948 -0.1954  0.5266 -0.5709
   26MOL0     C 3385  10.514   5.130   0.916 -0.0317 -0.5486 -0.2146
   26MOL0     C 3386  10.477   5.129   0.772 -1.0356  0.0809  0.5873
   26MOL0     C 3387  10.394   5.250   0.732 -0.5869 -0.9378  0.4341
   26MOL0     C 3388  10.339   5.231   0.580 -0.0617  0.1647 -0.0207
   26MOL0     C 3389  10.459   5.200   0.480 -0.2079  0.0687  0.3186
   26MOL0     C 3390  10.415   5.204   0.332 -0.6470  0.0911 -0.4105
   26MOL0     C 3391  10.499   5.146   0.220  0.6902 -0.6395 -0.0976
   26MOL0     N 3392  10.626   5.210   0.192  0.3879 -0.2967 -0.2629
   26MOL0     C 3393  10.741   5.179   0.258  1.3104 -0.1666 -0.2591
   26MOL0     C 3394  10.840   5.238   0.196  0.6785  0.0923  0.1407
   26MOL0     C 3395  10.989   5.222   0.235  0.1500 -0.7597 -0.0014
   26MOL0     C 3396  11.038   5.258   0.374  0.3716 -0.3198  1.9019
   26MOL0     C 3397  11.188   5.258   0.391  0.6616 -0.1343 -0.1073
   26MOL0     C 3398  11.252   5.377   0.332 -0.1006  0.5407  0.2286
   26MOL0     O 3399  11.387   5.352   0.369  0.1108 -0.7679  0.5787
   26MOL0     C 3400  11.429   5.386   0.494  0.2927  0.1620 -0.8117
   26MOL0     C 3401  11.565   5.376   0.510 -0.4731  0.0378  0.0058
   26MOL0     C 3402  11.622   5.397   0.631 -0.6511 -0.7346 -0.6397
   26MOL0     C 3403  11.555   5.438   0.746  0.1757 -0.9726  0.9515
   26MOL0     C 3404  11.624   5.469   0.876 -0.8245  0.3676 -0.8390
   26MOL0     O 3405  11.760   5.495   0.872  0.2958 -0.2336  0.0138
   26MOL0     C 3406  11.827   5.503   0.995  0.1530  0.6034  0.5676
   26MOL0     C 3407  11.920   5.401   1.032 -0.6090 -0.6070 -0.8705
   26MOL0     C 3408  11.964   5.410   1.165 -1.2214  0.3595 -0.3454
   26MOL0     C 3409  11.937   5.515   1.250  0.2362  0.4686 -0.4910
   26MOL0     O 3410  11.994   5.499   1.374  0.2297 -0.1339  0.2467
   26MOL0     C 3411  11.936   5.564   1.491  1.0851  0.7211 -0.3284
   26MOL0     C 3412  12.041   5.558   1.599  1.0031 -0.0288 -0.9835
   26MOL0     C 3413  12.108   5.425   1.643  0.5653 -1.0516  0.0238
   26MOL0     C 3414  12.215   5.443   1.748 -0.3548  1.0365 -0.8381
   26MOL0     C 3415  12.262   5.300   1.784 -0.2639 -0.2050 -0.1287
   26MOL0     C 3416  12.411   5.287   1.842 -0.9684  0.7834 -0.0086
   26MOL0     C 3417  12.518   5.358   1.750  1.3066  0.1438  0.3410
   26MOL0     C 3418  12.537   5.311   1.612 -0.0298 -0.4979 -0.3632
   26MOL0    Cl 3419  12.688   5.387   1.545  0.0842 -0.0862  0.1943
   26MOL0     C 3420  11.854   5.613   1.212  0.5567  0.1344 -0.1324
   26MOL0     C 3421  11.808   5.608   1.079  1.0168 -0.4619 -0.9917
   26MOL0     O 3422  11.557   5.472   0.980  0.5014 -0.1081 -0.2763
   26MOL0     C 3423  11.417   5.455   0.735 -0.4817  0.0145 -0.0495
   26MOL0     C 3424  11.351   5.424   0.611  0.2928 -0.5303  0.7932
   26MOL0     N 3425  10.789   5.305   0.080  0.0602  0.2995 -0.7781
   26MOL0     N 3426  10.664   5.291   0.083  0.0497  0.4234 -0.1050
   26MOL0     C 3427  10.816   5.033   1.234  0.2361  0.3968 -1.1556
   26MOL0     C 3428  10.941   4.986   1.280 -0.0494 -0.5951  0.8915
   26MOL0     C 3429  11.289   4.673   1.267 -1.0386  0.1118 -0.0088
   26MOL0     C 3430  11.268   4.615   1.390  1.8178  0.3798  0.6984
   26MOL0     C 3431  11.359   4.532   1.453  0.6908 -0.2723 -0.4777
   26MOL0     C 3432  11.487   4.521   1.413  0.0717  0.1012  0.7906
   26MOL0     O 3433  11.576   4.448   1.485 -0.1390 -0.4095  0.4360
   26MOL0     C 3434  11.712   4.475   1.461  0.1268  0.0557  0.5487
   26MOL0     C 3435  11.812   4.399   1.561  0.4577 -0.4493  0.4031
   26MOL0     C 3436  11.958   4.402   1.533 -0.2392 -1.0368  0.6558
   26MOL0     C 3437  12.008   4.547   1.526 -0.0459  0.2521 -0.3237
   26MOL0     C 3438  12.153   4.543   1.550  1.0846 -0.5413  0.5047
   26MOL0     C 3439  12.272   4.560   1.585 -0.0106 -0.8148 -0.3428
   26MOL0     C 3440  11.516   4.595   1.298 -0.1447 -0.1614 -0.4653
   26MOL0     C 3441  11.423   4.663   1.213  0.6259  0.7184 -0.4923
   26MOL0     C 3442  11.476   4.709   1.077  0.1796  0.0210  0.0390
   26MOL0     H 3443  10.930   4.676   1.149 -0.5932  0.4409 -0.1394
   26MOL0     H 3444  10.739   4.789   1.011 -2.3696  2.7747 -0.2311
   26MOL0     H 3445  10.725   5.105   0.937  2.5374 -3.7750 -0.4527
   26MOL0     H 3446  10.626   4.966   0.879  2.3274  0.7577 -1.1025
   26MOL0     H 3447  10.519   5.226   0.970  0.4267 -1.4088  1.3393
   26MOL0     H 3448  10.430   5.083   0.968  1.2068 -3.6368 -0.8022
   26MOL0     H 3449  10.409   5.045   0.758 -2.0027  1.0789 -1.0319
   26MOL0     H 3450  10.566   5.125   0.709 -1.3258 -1.1450  0.2224
   26MOL0     H 3451  10.314   5.260   0.806 -0.4151 -2.4407  0.8487
   26MOL0     H 3452  10.459   5.338   0.729  1.7240 -2.3440  3.6348
   26MOL0     H 3453  10.272   5.145   0.568 -1.6866  1.5848 -1.6682
   26MOL0     H 3454  10.269   5.311   0.558  1.5116  1.2753 -1.2347
   26MOL0     H 3455  10.532   5.280   0.495 -0.9625  0.9314 -0.4977
   26MOL0     H 3456  10.486   5.100   0.515 -1.7452  0.2239  2.0977
   26MOL0     H 3457  10.411   5.309   0.302  2.3018  0.0863 -1.1531
   26MOL0     H 3458  10.314   5.162   0.335  0.0253 -1.5708 -0.0871
   26MOL0     H 3459  10.518   5.042   0.248  1.4727 -0.6999 -0.8337
   26MOL0     H 3460  10.437   5.150   0.130  1.2127  0.5323 -0.4209
   26MOL0     H 3461  10.746   5.111   0.343 -0.8786  0.3265  0.3288
   26MOL0     H 3462  11.000   5.114   0.239  1.0033 -0.7612 -1.6150
   26MOL0     H 3463  11.052   5.263   0.155  0.6889  1.6609  1.5514
   26MOL0     H 3464  11.012   5.362   0.396 -3.4483 -0.4478 -0.9595
   26MOL0     H 3465  10.999   5.182   0.442  0.7021 -3.1035 -0.7914
   26MOL0     H 3466  11.228   5.161   0.360 -0.0209 -0.1694 -0.9389
   26MOL0     H 3467  11.203   5.275   0.498 -0.1680  0.6889 -0.1088
   26MOL0     H 3468  11.208   5.472   0.365  0.1958 -0.3633  3.6733
   26MOL0     H 3469  11.230   5.379   0.225 -3.7717 -0.3214  0.8449
   26MOL0     H 3470  11.632   5.336   0.435 -0.7149 -1.3128  0.4784
   26MOL0     H 3471  11.728   5.372   0.639 -0.1154  0.4953 -3.0586
   26MOL0     H 3472  11.941   5.313   0.972 -1.4055 -2.0498  0.8638
   26MOL0     H 3473  12.028   5.330   1.199  2.0688  3.2268  0.8398
   26MOL0     H 3474  11.899   5.666   1.477  0.7368  0.7882  0.9414
   26MOL0     H 3475  11.853   5.504   1.531  1.2597  1.2920  0.9363
   26MOL0     H 3476  12.122   5.627   1.576  0.7133  1.6394  2.4313
   26MOL0     H 3477  11.992   5.599   1.687 -0.8063 -0.0401 -1.9286
   26MOL0     H 3478  12.028   5.356   1.671 -0.0296 -1.4412 -2.4130
   26MOL0     H 3479  12.148   5.394   1.547 -1.1741  2.4600 -2.0546
   26MOL0     H 3480  12.177   5.503   1.831  2.1395  1.0142  0.4425
   26MOL0     H 3481  12.307   5.498   1.725  0.7305  1.1646  2.9533
   26MOL0     H 3482  12.268   5.243   1.691  3.1899  0.2330 -0.2819
   26MOL0     H 3483  12.185   5.257   1.849 -1.9239  0.8258 -1.3378
   26MOL0     H 3484  12.423   5.311   1.948  2.0674 -2.5289  0.6219
   26MOL0     H 3485  12.429   5.180   1.826  1.2058  0.8110  1.7451
   26MOL0     H 3486  12.612   5.339   1.804  0.2453 -1.6932  1.6262
   26MOL0     H 3487  12.497   5.465   1.759  1.3797  0.1963 -0.0873
   26MOL0     H 3488  12.528   5.202   1.606 -1.9850 -0.3971 -0.1019
   26MOL0     H 3489  12.454   5.341   1.547 -0.2994  0.8756  0.5767
   26MOL0     H 3490  11.826   5.699   1.273  0.0956  2.7192 -3.6951
   26MOL0     H 3491  11.747   5.686   1.034  0.8593  0.4435  0.7317
   26MOL0     H 3492  11.363   5.484   0.824  0.7797 -2.3156  1.5684
   26MOL0     H 3493  11.245   5.439   0.596  0.5948  0.8023 -0.1874
   26MOL0     H 3494  10.782   5.133   1.262  1.2417  0.0061  1.8540
   26MOL0     H 3495  11.000   5.054   1.340 -0.2423 -0.3864  0.8462
   26MOL0     H 3496  11.170   4.615   1.438  2.0179 -0.2158  1.1241
   26MOL0     H 3497  11.330   4.490   1.549 -1.7310  0.5825 -0.7634
   26MOL0     H 3498  11.731   4.582   1.471 -1.9029  0.3826  1.2073
   26MOL0     H 3499  11.725   4.434   1.360  0.5468  1.2063  0.1181
   26MOL0     H 3500  11.786   4.294   1.542 -1.1432  0.2602 -1.5630
   26MOL0     H 3501  11.791   4.413   1.667 -6.3123 -0.3515 -0.5259
   26MOL0     H 3502  11.982   4.356   1.437 -0.5013  0.6078 -0.2439
   26MOL0     H 3503  11.999   4.346   1.617 -0.9847 -0.8531  1.1605
   26MOL0     H 3504  11.995   4.594   1.428 -0.8797  0.5608 -0.0707
   26MOL0     H 3505  11.958   4.619   1.592  0.2241  3.8694 -3.6498
   26MOL0     H 3506  12.361   4.599   1.629  0.2321 -1.0743 -0.6015
   26MOL0     H 3507  11.619   4.590   1.265  1.3307 -1.9131  3.6981
   26MOL0     H 3508  11.585   4.704   1.079  0.3218  1.1235 -2.1548
   26MOL0     H 3509  11.443   4.648   0.993 -1.2490 -0.5011  0.9436
   26MOL0     H 3510  11.454   4.815   1.058  2.0629  0.3382 -0.5134
   27MOL0     O 3511   7.471  10.853   7.480  0.0202 -0.2859  0.2103
   27MOL0     C 3512   7.505  10.737   7.490  0.4054  0.0417 -0.2244
   27MOL0     O 3513   7.465  10.636   7.403  0.2971 -0.1712  0.0980
   27MOL0     C 3514   7.365  10.661   7.301  0.7272 -0.3137 -0.6613
   27MOL0     C 3515   7.406  10.716   7.174 -0.0507 -0.1810  0.0651
   27MOL0     C 3516   7.311  10.721   7.067 -0.1646  0.3487 -0.1960
   27MOL0     C 3517   7.180  10.677   7.077  0.2745  0.5045 -0.5122
   27MOL0     O 3518   7.091  10.685   6.973 -0.8402  0.1323  0.0715
   27MOL0     C 3519   7.140  10.630   6.846  0.7026  0.1073  0.4684
   27MOL0     C 3520   7.021  10.664   6.755 -1.2025 -0.2019  1.5730
   27MOL0     C 3521   7.022  10.796   6.684 -0.7602 -1.5370 -0.9933
   27MOL0     C 3522   6.985  10.902   6.784  0.4239 -0.8763  0.5248
   27MOL0     C 3523   6.936  11.038   6.724 -0.0621  0.6253  0.1773
   27MOL0     C 3524   7.029  11.120   6.628  0.1729  0.2454  0.0929
   27MOL0     C 3525   7.133  11.206   6.700  0.4471 -0.3215 -0.2980
   27MOL0     C 3526   7.225  11.302   6.609 -0.5435 -0.6708 -0.1034
   27MOL0     N 3527   7.337  11.360   6.671 -0.0705  0.5136  0.2708
   27MOL0     C 3528   7.353  11.409   6.806  0.8977 -0.2651  0.3148
   27MOL0     C 3529   7.473  11.457   6.814 -0.2095  0.0201 -0.5164
   27MOL0     C 3530   7.526  11.513   6.940 -0.1522 -0.5331  0.2227
   27MOL0     C 3531   7.675  11.483   6.968 -0.0980 -0.3636 -0.2275
   27MOL0     C 3532   7.762  11.591   6.908  0.7556  0.1815  0.2603
   27MOL0     C 3533   7.904  11.574   6.960  0.3259 -0.5069  0.0952
   27MOL0     O 3534   7.970  11.693   6.907  0.3368  0.5095 -0.3140
   27MOL0     C 3535   8.079  11.725   6.985 -0.2489 -0.4357 -0.3694
   27MOL0     C 3536   8.149  11.641   7.068 -0.5818  1.1259 -0.6528
   27MOL0     C 3537   8.266  11.686   7.139  0.3153 -0.7041 -0.0355
   27MOL0     C 3538   8.310  11.820   7.133 -0.7049 -0.0089  1.0288
   27MOL0     C 3539   8.411  11.886   7.224 -0.0755 -0.2888 -0.3506
   27MOL0     O 3540   8.416  12.027   7.244  0.3332 -0.1540 -0.2840
   27MOL0     C 3541   8.489  12.070   7.355  0.5430 -0.9474  0.2062
   27MOL0     C 3542   8.469  12.032   7.480 -0.4905  0.0795 -0.4097
   27MOL0     C 3543   8.551  12.088   7.580  0.7622 -0.0024  0.0100
   27MOL0     C 3544   8.665  12.169   7.558  0.0153 -0.6658 -0.0723
   27MOL0     O 3545   8.754  12.209   7.659  0.0631 -0.7139 -0.4880
   27MOL0     C 3546   8.837  12.327   7.643 -0.4167  0.6401 -0.2609
   27MOL0     C 3547   8.889  12.382   7.780 -0.0342  0.3765  0.4778
   27MOL0     C 3548   9.029  12.453   7.763  1.3827  0.0624 -0.0661
   27MOL0     C 3549   9.068  12.504   7.900  0.0580 -0.3478 -0.3964
   27MOL0     C 3550   9.198  12.576   7.898 -0.7152  0.6473 -0.3573
   27MOL0     C 3551   9.228  12.639   8.029 -0.6711 -0.1343 -0.5339
   27MOL0     C 3552   9.376  12.669   8.055  0.7182  0.0903  0.7308
   27MOL0     C 3553   9.397  12.742   8.188  0.0197  0.3070 -0.5270
   27MOL0    Cl 3554   9.560  12.783   8.207  0.4330 -0.1438 -0.5257
   27MOL0     C 3555   8.689  12.187   7.429 -0.5633 -0.3391 -0.3545
   27MOL0     C 3556   8.605  12.146   7.329  0.5680  1.0690 -0.4791
   27MOL0     O 3557   8.489  11.810   7.281  0.1870  0.3709  1.0989
   27MOL0     C 3558   8.236  11.902   7.047 -0.2881 -0.4087 -0.2783
   27MOL0     C 3559   8.127  11.857   6.974 -0.1923  0.0691  1.6448
   27MOL0     N 3560   7.539  11.438   6.697 -0.4653 -0.5967 -0.3912
   27MOL0     N 3561   7.456  11.387   6.608  0.1001  0.4733  0.1836
   27MOL0     C 3562   7.139  10.636   7.205  0.5977 -0.1255 -0.1421
   27MOL0     C 3563   7.237  10.622   7.317  0.0137  0.4108  0.1840
   27MOL0     C 3564   7.583  10.694   7.603 -0.4923  0.3350 -0.3050
   27MOL0     C 3565   7.549  10.560   7.656 -0.3068 -0.2798 -0.1986
   27MOL0     C 3566   7.605  10.506   7.769 -0.0680  0.7331 -0.3813
   27MOL0     C 3567   7.703  10.572   7.846 -0.7056 -1.3079  0.3932
   27MOL0     O 3568   7.761  10.525   7.954  0.0047 -0.3399  0.2505
   27MOL0     C 3569   7.778  10.383   7.963  0.2270  0.4336 -0.2301
   27MOL0     C 3570   7.867  10.342   8.073 -0.6715 -0.2099  0.6753
   27MOL0     C 3571   7.978  10.445   8.098  0.8493 -0.8078  0.4193
   27MOL0     C 3572   8.065  10.376   8.194 -0.3728  0.4429 -0.3405
   27MOL0     C 3573   8.174  10.468   8.228  0.3168  0.2333 -1.0863
   27MOL0     C 3574   8.267  10.535   8.265 -0.0796  0.4455 -0.0063
   27MOL0     C 3575   7.745  10.703   7.796 -1.0298 -0.4433 -0.5797
   27MOL0     C 3576   7.694  10.761   7.673  0.0917 -0.0992 -0.8114
   27MOL0     C 3577   7.737  10.902   7.641 -0.8132  0.5736 -0.3584
   27MOL0     H 3578   7.500  10.770   7.168  0.9978 -1.9148  0.3837
   27MOL0     H 3579   7.345  10.766   6.974 -2.4829  5.3230  1.0640
   27MOL0     H 3580   7.225  10.689   6.812  1.6499  0.5739  3.3128
   27MOL0     H 3581   7.162  10.524   6.838 -2.0785 -0.4495 -1.4651
   27MOL0     H 3582   6.917  10.648   6.787 -2.3209  1.1269 -1.0669
   27MOL0     H 3583   7.035  10.592   6.673 -0.2357 -1.2828  2.6539
   27MOL0     H 3584   6.944  10.788   6.607 -0.7213  2.9104 -1.7004
   27MOL0     H 3585   7.117  10.827   6.641 -0.7519  1.9392  1.1192
   27MOL0     H 3586   6.901  10.871   6.847 -2.8278  3.4955 -1.1580
   27MOL0     H 3587   7.068  10.937   6.845 -1.4660  3.3962  1.0208
   27MOL0     H 3588   6.846  11.021   6.664  2.3849  0.8512 -4.0194
   27MOL0     H 3589   6.915  11.103   6.809 -0.4272  2.0307 -0.9446
   27MOL0     H 3590   7.068  11.049   6.555 -0.2571 -0.0216  0.1222
   27MOL0     H 3591   6.966  11.189   6.571 -0.5281  0.8154  1.4997
   27MOL0     H 3592   7.204  11.142   6.753 -0.3181 -1.1900 -0.3053
   27MOL0     H 3593   7.091  11.268   6.781  0.0181  1.1977 -1.6379
   27MOL0     H 3594   7.265  11.250   6.522  0.2934 -0.6263  0.2470
   27MOL0     H 3595   7.159  11.385   6.584 -1.0709 -0.9136  0.4565
   27MOL0     H 3596   7.277  11.417   6.883  2.8674 -1.5828  2.5318
   27MOL0     H 3597   7.506  11.620   6.954  0.1136 -0.5838  1.0754
   27MOL0     H 3598   7.475  11.463   7.023  0.1511  3.4597  3.1539
   27MOL0     H 3599   7.680  11.478   7.077  1.0592 -1.2282 -0.3048
   27MOL0     H 3600   7.704  11.386   6.928 -2.4859  0.3639 -4.2487
   27MOL0     H 3601   7.727  11.692   6.932  2.6995  1.4623 -1.8843
   27MOL0     H 3602   7.777  11.582   6.800 -2.1888  1.4811 -0.3864
   27MOL0     H 3603   7.943  11.475   6.934 -1.8766 -1.2133 -0.7441
   27MOL0     H 3604   7.908  11.564   7.069  0.4705 -1.7847 -0.0056
   27MOL0     H 3605   8.120  11.539   7.092  0.6711  0.4994 -1.6769
   27MOL0     H 3606   8.338  11.646   7.209  0.1278  1.4115  1.4929
   27MOL0     H 3607   8.384  11.971   7.508  0.4714 -0.0048  2.6352
   27MOL0     H 3608   8.524  12.059   7.681  0.6901  1.2822  0.3674
   27MOL0     H 3609   8.924  12.285   7.592  3.9897  3.3907  4.0248
   27MOL0     H 3610   8.798  12.415   7.591  0.2144  1.6348  0.8864
   27MOL0     H 3611   8.818  12.456   7.815 -1.9335 -1.5421  0.8939
   27MOL0     H 3612   8.909  12.303   7.852  0.0785  0.0826  0.1301
   27MOL0     H 3613   9.103  12.377   7.736 -0.6907 -2.2760  0.4587
   27MOL0     H 3614   9.014  12.534   7.691  1.1168  1.2761  1.3136
   27MOL0     H 3615   9.068  12.417   7.966  2.1217 -1.5510 -1.8648
   27MOL0     H 3616   8.988  12.571   7.932 -0.9194 -0.9643 -1.4457
   27MOL0     H 3617   9.211  12.646   7.815  3.7371 -0.2006 -0.6218
   27MOL0     H 3618   9.279  12.503   7.881 -1.7379 -0.3329 -1.2022
   27MOL0     H 3619   9.169  12.729   8.044 -0.8962  0.0412 -2.3182
   27MOL0     H 3620   9.209  12.563   8.106 -1.2455  1.3674  0.8516
   27MOL0     H 3621   9.416  12.732   7.974 -0.0972 -1.9032 -1.3406
   27MOL0     H 3622   9.436  12.578   8.050 -1.5714 -1.5956  2.3248
   27MOL0     H 3623   9.338  12.834   8.193  4.4670  3.5135 -1.2288
   27MOL0     H 3624   9.362  12.675   8.267 -0.4316 -1.4347 -2.1521
   27MOL0     H 3625   8.784  12.229   7.398 -1.3787  1.6065 -0.3417
   27MOL0     H 3626   8.649  12.162   7.231 -0.5492  1.4212 -0.9343
   27MOL0     H 3627   8.276  12.003   7.037 -2.1716  0.3627 -0.4499
   27MOL0     H 3628   8.066  11.920   6.910  0.6658 -0.1963  0.5299
   27MOL0     H 3629   7.036  10.603   7.215  0.0782  1.9342  2.6691
   27MOL0     H 3630   7.215  10.581   7.416 -2.5644 -0.3022 -0.6134
   27MOL0     H 3631   7.471  10.504   7.607  0.1970 -0.1864 -1.1371
   27MOL0     H 3632   7.575  10.406   7.798 -2.3868  1.4713 -0.0804
   27MOL0     H 3633   7.807  10.348   7.864 -1.7200 -1.9252 -0.0545
   27MOL0     H 3634   7.682  10.334   7.982  1.6172 -2.5690 -0.4247
   27MOL0     H 3635   7.908  10.244   8.046 -1.6432 -0.3131 -0.5033
   27MOL0     H 3636   7.807  10.331   8.164 -0.2610  2.4715  1.3358
   27MOL0     H 3637   7.932  10.531   8.148 -1.2238 -0.9241 -1.1527
   27MOL0     H 3638   8.035  10.473   8.009  2.0818 -2.1507  0.7509
   27MOL0     H 3639   8.022  10.338   8.287 -1.9296 -0.6996 -1.4881
   27MOL0     H 3640   8.107  10.288   8.143  1.3653 -0.1366  1.9340
   27MOL0     H 3641   8.361  10.583   8.285  0.0259  0.4199 -0.4319
   27MOL0     H 3642   7.824  10.747   7.857 -0.3274 -4.1529  1.4846
   27MOL0     H 3643   7.788  10.905   7.544 -0.3506 -2.9522 -0.3622
   27MOL0     H 3644   7.645  10.961   7.637 -3.0170 -2.5218 -5.0940
   27MOL0     H 3645   7.819  10.919   7.711 -0.0908 -0.2696 -0.9887
   28MOL0     O 3646   2.352  10.714   8.569  0.1230  0.3502  0.6489
   28MOL0     C 3647   2.342  10.810   8.497 -0.2976 -0.6725 -0.2900
   28MOL0     O 3648   2.389  10.934   8.530  0.4959  0.1038 -0.0301
   28MOL0     C 3649   2.456  10.958   8.651  0.6698  0.1997 -0.5438
   28MOL0     C 3650   2.393  10.992   8.774 -0.2143 -0.2166  0.3805
   28MOL0     C 3651   2.463  11.018   8.889 -0.6315 -1.1140 -0.2056
   28MOL0     C 3652   2.608  11.039   8.881  0.2155  0.6703 -0.0794
   28MOL0     O 3653   2.689  11.063   8.984 -0.2863 -0.1714  0.1372
   28MOL0     C 3654   2.622  11.121   9.101 -0.6019  0.4776  0.3309
   28MOL0     C 3655   2.590  11.264   9.052 -0.4772 -0.3021 -0.8795
   28MOL0     C 3656   2.532  11.346   9.167 -0.4170 -0.5798  0.3379
   28MOL0     C 3657   2.625  11.385   9.288  0.3393 -1.2272  0.1941
   28MOL0     C 3658   2.555  11.479   9.386 -0.1805  0.7671 -0.6333
   28MOL0     C 3659   2.444  11.419   9.488  0.1107  0.6959  0.5116
   28MOL0     C 3660   2.504  11.378   9.622 -0.2969 -0.5222  0.5489
   28MOL0     C 3661   2.396  11.328   9.701  0.0454 -0.4816  0.4381
   28MOL0     N 3662   2.451  11.260   9.819  0.5062 -0.1014 -1.2929
   28MOL0     C 3663   2.498  11.317   9.934  0.0879 -0.2443 -0.7808
   28MOL0     C 3664   2.523  11.213  10.022 -0.4241  0.1427 -0.2763
   28MOL0     C 3665   2.561  11.225  10.169  1.1395 -0.5531  0.9666
   28MOL0     C 3666   2.522  11.115  10.263 -0.0011  0.0799 -0.3701
   28MOL0     C 3667   2.374  11.112  10.292 -0.3430 -0.3800  0.5465
   28MOL0     C 3668   2.325  11.231  10.382  0.2505  0.4704 -0.2660
   28MOL0     O 3669   2.412  11.245  10.497 -0.8304 -0.4751 -0.6052
   28MOL0     C 3670   2.349  11.318  10.600  1.6085  0.0696 -0.0806
   28MOL0     C 3671   2.362  11.273  10.733 -0.7528  0.5235 -1.1018
   28MOL0     C 3672   2.309  11.342  10.843  0.4937 -0.7212 -0.1823
   28MOL0     C 3673   2.227  11.454  10.812 -0.9457  0.4492 -0.8803
   28MOL0     C 3674   2.185  11.540  10.924 -1.2765 -0.6346 -0.2126
   28MOL0     O 3675   2.249  11.513  11.046  0.3023  0.3780 -0.0606
   28MOL0     C 3676   2.190  11.564  11.157 -0.6876  0.8666 -0.6482
   28MOL0     C 3677   2.252  11.674  11.220 -0.7693 -0.3758  0.2658
   28MOL0     C 3678   2.213  11.725  11.353 -0.4664 -0.1738  0.0031
   28MOL0     C 3679   2.106  11.661  11.422 -0.9343 -0.3037 -0.3701
   28MOL0     O 3680   2.084  11.723  11.538 -0.1183  0.0110  0.1240
   28MOL0     C 3681   1.985  11.662  11.621 -0.9706 -0.2399  0.0950
   28MOL0     C 3682   1.979  11.747  11.743 -0.7054 -0.2613 -0.4318
   28MOL0     C 3683   1.844  11.724  11.817  0.5362  0.0440  0.2299
   28MOL0     C 3684   1.860  11.681  11.964  0.0718  0.8037 -0.6875
   28MOL0     C 3685   1.727  11.641  12.038  0.2390  0.8969 -0.4205
   28MOL0     C 3686   1.740  11.575  12.170 -0.7343 -0.3710 -1.0180
   28MOL0     C 3687   1.622  11.573  12.262 -0.9129  0.1720  0.8754
   28MOL0     C 3688   1.649  11.486  12.380  0.2657  0.7218  1.0269
   28MOL0    Cl 3689   1.516  11.493  12.489  0.4415  0.1950 -0.0133
   28MOL0     C 3690   2.045  11.551  11.359  0.0482  0.3218 -0.2813
   28MOL0     C 3691   2.088  11.493  11.229 -0.5969  1.2249 -1.4291
   28MOL0     O 3692   2.110  11.641  10.904  0.6127 -0.0322 -0.6740
   28MOL0     C 3693   2.213  11.498  10.677  1.3465  0.3623  0.0822
   28MOL0     C 3694   2.273  11.430  10.576 -0.5494 -0.4285 -0.2631
   28MOL0     N 3695   2.501  11.099   9.950 -0.2144  0.6975 -0.2916
   28MOL0     N 3696   2.451  11.126   9.833 -0.5306 -0.7113  0.2648
   28MOL0     C 3697   2.667  11.011   8.758 -0.0201  0.0604  0.6324
   28MOL0     C 3698   2.594  10.976   8.645  0.2906  0.9147 -0.2884
   28MOL0     C 3699   2.266  10.797   8.373 -0.9781 -0.0893  0.5869
   28MOL0     C 3700   2.213  10.911   8.316 -0.6569 -0.3257  0.4544
   28MOL0     C 3701   2.141  10.919   8.193 -0.4017 -0.0189 -0.0122
   28MOL0     C 3702   2.138  10.801   8.114 -0.0347 -0.0163 -0.1355
   28MOL0     O 3703   2.072  10.786   7.998  0.5920 -0.0434 -0.5045
   28MOL0     C 3704   2.007  10.899   7.928 -0.3791 -0.2012  0.1890
   28MOL0     C 3705   1.945  10.868   7.794 -0.5695  0.0848  0.1550
   28MOL0     C 3706   1.815  10.788   7.812 -0.2830  0.2057 -0.1670
   28MOL0     C 3707   1.759  10.734   7.680  0.1335 -0.7388  0.5339
   28MOL0     C 3708   1.766  10.828   7.566  0.9183  0.0729  0.2200
   28MOL0     C 3709   1.768  10.918   7.483 -0.3183 -0.0266 -0.0748
   28MOL0     C 3710   2.209  10.688   8.167 -0.2413 -0.0379 -0.1212
   28MOL0     C 3711   2.274  10.684   8.291  0.4090  0.5356  0.4467
   28MOL0     C 3712   2.347  10.563   8.330  0.2212  0.0386 -0.4406
   28MOL0     H 3713   2.286  10.978   8.779 -0.0179 -1.7170  0.8416
   28MOL0     H 3714   2.411  11.006   8.984 -2.4905 -2.5667 -1.3375
   28MOL0     H 3715   2.536  11.059   9.127 -0.4889  0.0555 -0.2853
   28MOL0     H 3716   2.694  11.126   9.183  0.0725  1.9071 -0.3197
   28MOL0     H 3717   2.527  11.268   8.963 -1.5606  2.4904 -0.1036
   28MOL0     H 3718   2.687  11.308   9.027 -1.1516  2.3327  0.7168
   28MOL0     H 3719   2.449  11.288   9.210 -0.3595 -0.3348  0.7820
   28MOL0     H 3720   2.482  11.428   9.115  0.5570 -2.0412 -3.1991
   28MOL0     H 3721   2.659  11.301   9.350  1.0709 -1.3380 -0.3402
   28MOL0     H 3722   2.717  11.424   9.245 -1.9180  2.5826 -1.6918
   28MOL0     H 3723   2.617  11.536   9.456 -0.3867  1.3622 -0.9286
   28MOL0     H 3724   2.493  11.549   9.329 -0.2519 -1.2099 -3.1614
   28MOL0     H 3725   2.378  11.504   9.507  2.3621  2.6014  0.2997
   28MOL0     H 3726   2.387  11.345   9.431  0.1776  1.1748 -0.1891
   28MOL0     H 3727   2.551  11.469   9.662  0.7176 -0.9894  0.4470
   28MOL0     H 3728   2.588  11.310   9.609  1.0713  1.2244 -0.1798
   28MOL0     H 3729   2.326  11.404   9.736  1.3612 -0.1868  2.5593
   28MOL0     H 3730   2.354  11.244   9.644  1.6804 -2.0053  1.3826
   28MOL0     H 3731   2.518  11.422   9.956  1.9582 -0.5246 -0.9672
   28MOL0     H 3732   2.669  11.230  10.180  0.8685 -0.2735  4.7374
   28MOL0     H 3733   2.514  11.320  10.195  3.0412  1.3385 -1.8652
   28MOL0     H 3734   2.541  11.018  10.216 -2.2598 -1.2415  1.2601
   28MOL0     H 3735   2.575  11.106  10.358  0.4529 -0.5412 -0.6760
   28MOL0     H 3736   2.361  11.019  10.348 -3.7143 -1.0223 -1.0934
   28MOL0     H 3737   2.311  11.117  10.203 -0.1553  2.0119  0.4664
   28MOL0     H 3738   2.225  11.218  10.423 -0.0713  3.0599 -0.0671
   28MOL0     H 3739   2.315  11.324  10.325 -2.7888  0.1629 -0.3617
   28MOL0     H 3740   2.416  11.181  10.753 -0.6118  0.7422 -0.4514
   28MOL0     H 3741   2.326  11.314  10.947 -0.4961 -0.7219 -0.0109
   28MOL0     H 3742   2.327  11.717  11.155  0.7220 -1.9676  0.8434
   28MOL0     H 3743   2.266  11.809  11.397  0.4819 -0.9664  0.4138
   28MOL0     H 3744   1.885  11.665  11.577 -0.2170 -0.8322 -1.7771
   28MOL0     H 3745   2.019  11.561  11.648 -1.0644 -0.1381  0.6002
   28MOL0     H 3746   2.072  11.733  11.799 -0.7894  0.5471 -0.0734
   28MOL0     H 3747   1.977  11.848  11.700  0.6885 -0.1025 -0.1605
   28MOL0     H 3748   1.797  11.823  11.819  1.4888  0.5061  0.1891
   28MOL0     H 3749   1.779  11.661  11.756 -0.2140  0.5659  0.4789
   28MOL0     H 3750   1.895  11.768  12.021  0.0346 -0.8312  2.0278
   28MOL0     H 3751   1.931  11.598  11.972 -0.3634  0.5465  0.9417
   28MOL0     H 3752   1.680  11.572  11.966 -0.2761  0.8514 -0.0502
   28MOL0     H 3753   1.663  11.729  12.042  1.1189  1.5359 -0.3009
   28MOL0     H 3754   1.783  11.475  12.170 -0.7879 -0.6395  3.7361
   28MOL0     H 3755   1.809  11.640  12.225 -0.5643 -3.6888  3.2523
   28MOL0     H 3756   1.534  11.535  12.210  0.5005 -0.0336 -1.5574
   28MOL0     H 3757   1.609  11.670  12.310 -0.0756  1.0617 -0.6129
   28MOL0     H 3758   1.662  11.383  12.343  4.3525  0.5342  2.4340
   28MOL0     H 3759   1.735  11.499  12.446 -0.9306  1.3347  2.5081
   28MOL0     H 3760   1.970  11.496  11.414 -0.5472  0.7070 -0.6970
   28MOL0     H 3761   2.033  11.408  11.190 -0.8147  1.3942 -1.4963
   28MOL0     H 3762   2.155  11.587  10.653 -1.3159 -1.3209 -0.1193
   28MOL0     H 3763   2.274  11.470  10.475 -0.6814  1.5577  0.4725
   28MOL0     H 3764   2.775  11.012   8.763  0.0496 -2.8506  2.0679
   28MOL0     H 3765   2.646  10.950   8.554  2.4808  0.0310  1.1187
   28MOL0     H 3766   2.226  11.010   8.358 -2.5275  0.6961 -1.2031
   28MOL0     H 3767   2.096  11.008   8.149 -1.5079 -1.0556 -1.0348
   28MOL0     H 3768   2.088  10.973   7.920 -1.4889  0.9422 -0.8722
   28MOL0     H 3769   1.930  10.946   7.991  0.8500  0.4463  1.2692
   28MOL0     H 3770   2.025  10.822   7.736 -0.5508 -2.8580  2.2607
   28MOL0     H 3771   1.920  10.958   7.739  0.8995  1.8025  2.1158
   28MOL0     H 3772   1.749  10.840   7.882  0.7194 -0.5442  1.4041
   28MOL0     H 3773   1.850  10.697   7.863 -2.1799 -0.7081 -0.4142
   28MOL0     H 3774   1.801  10.637   7.654  0.6403 -1.0113  2.2397
   28MOL0     H 3775   1.654  10.713   7.703 -0.2394 -1.0999 -1.3875
   28MOL0     H 3776   1.758  10.991   7.405  1.4927 -0.4447 -0.7561
   28MOL0     H 3777   2.192  10.595   8.114  0.9986 -1.6596  2.1656
   28MOL0     H 3778   2.293  10.504   8.404 -1.0355  0.0883 -1.2835
   28MOL0     H 3779   2.370  10.496   8.246 -3.2058  0.8528 -2.2283
   28MOL0     H 3780   2.448  10.586   8.364  0.8839 -1.6227 -1.1854
   29MOL0     O 3781   3.581   4.245   4.204 -0.3733 -0.6369 -0.3793
   29MOL0     C 3782   3.666   4.263   4.106 -0.0824  0.2473 -0.1317
   29MOL0     O 3783   3.774   4.340   4.118  0.9612  0.0633 -0.0176
   29MOL0     C 3784   3.773   4.454   4.196  0.5102 -0.3065  0.3278
   29MOL0     C 3785   3.765   4.564   4.125 -0.1241 -0.0932  0.7632
   29MOL0     C 3786   3.761   4.690   4.186  0.3859  0.3572 -0.0528
   29MOL0     C 3787   3.777   4.696   4.323  0.2173 -0.7007 -0.5678
   29MOL0     O 3788   3.787   4.816   4.391  0.2163 -0.2176 -0.5645
   29MOL0     C 3789   3.666   4.860   4.444  0.3190 -0.4286 -0.2381
   29MOL0     C 3790   3.688   5.012   4.426  0.2301 -0.4050 -0.4260
   29MOL0     C 3791   3.568   5.094   4.484  0.0223  0.1141  0.7106
   29MOL0     C 3792   3.422   5.067   4.434 -0.3272 -0.2362  0.7037
   29MOL0     C 3793   3.309   5.127   4.523 -0.7242 -0.0251  0.7517
   29MOL0     C 3794   3.170   5.078   4.475 -0.2602 -0.1002 -0.1393
   29MOL0     C 3795   3.058   5.175   4.519 -0.4989  0.3976  0.4081
   29MOL0     C 3796   2.917   5.128   4.492 -0.4256  0.3088  0.3841
   29MOL0     N 3797   2.887   5.082   4.353  0.4259 -1.3547  0.3503
   29MOL0     C 3798   2.892   4.965   4.295 -0.1044 -0.7996  0.9792
   29MOL0     C 3799   2.802   4.974   4.190 -1.7049  0.5506  0.1590
   29MOL0     C 3800   2.760   4.851   4.111  0.2561  0.4159 -0.8772
   29MOL0     C 3801   2.609   4.847   4.076  0.5547  0.2280 -0.8197
   29MOL0     C 3802   2.571   4.715   4.009  0.4526  0.2297  0.3415
   29MOL0     C 3803   2.423   4.708   3.983  0.2570 -0.1857  0.4051
   29MOL0     O 3804   2.372   4.816   3.902  0.0323  0.5112 -0.2952
   29MOL0     C 3805   2.345   4.801   3.767 -0.1683  0.8604 -0.3938
   29MOL0     C 3806   2.259   4.894   3.710 -0.6416 -0.5766 -0.0850
   29MOL0     C 3807   2.205   4.873   3.589  0.2962 -0.3143  0.6191
   29MOL0     C 3808   2.241   4.758   3.515  0.8032  1.0584  0.0005
   29MOL0     C 3809   2.180   4.730   3.381  0.9334  0.6162  0.4810
   29MOL0     O 3810   2.245   4.643   3.305 -0.0511 -0.6398  0.3182
   29MOL0     C 3811   2.171   4.560   3.224  0.2286  0.7729  0.3243
   29MOL0     C 3812   2.181   4.577   3.089 -0.2620  0.5806 -0.1981
   29MOL0     C 3813   2.128   4.485   3.007  0.0154 -0.5808  0.0395
   29MOL0     C 3814   2.074   4.364   3.045  1.2459 -0.0126 -0.6567
   29MOL0     O 3815   2.014   4.280   2.945 -1.0228 -0.4685  0.5772
   29MOL0     C 3816   1.946   4.161   2.970 -0.5037  0.0736  0.0144
   29MOL0     C 3817   1.889   4.121   2.838  1.1192  0.1164 -0.1990
   29MOL0     C 3818   1.800   3.992   2.845  0.3047  0.1657  0.6470
   29MOL0     C 3819   1.705   3.967   2.729  0.0627 -0.4207  0.6223
   29MOL0     C 3820   1.579   3.901   2.767 -0.2582  0.2627 -0.2009
   29MOL0     C 3821   1.476   3.900   2.643 -0.9176 -0.3989  0.1591
   29MOL0     C 3822   1.527   3.834   2.513  0.6305 -0.7152  0.3205
   29MOL0     C 3823   1.426   3.756   2.440 -0.0418  0.1436 -0.1240
   29MOL0    Cl 3824   1.275   3.859   2.442 -0.5210  0.1672  0.1777
   29MOL0     C 3825   2.074   4.342   3.184 -0.2690  0.5468 -0.0555
   29MOL0     C 3826   2.125   4.441   3.279 -0.3465  0.0634  0.3325
   29MOL0     O 3827   2.067   4.771   3.356 -0.3858  0.9320 -0.1224
   29MOL0     C 3828   2.328   4.670   3.566 -0.2319  1.3246 -1.1811
   29MOL0     C 3829   2.387   4.690   3.696 -0.5681  0.2477 -0.3463
   29MOL0     N 3830   2.743   5.099   4.182 -0.6500  1.0865 -0.3227
   29MOL0     N 3831   2.794   5.149   4.277  0.0055 -0.0723  0.7664
   29MOL0     C 3832   3.788   4.577   4.400 -0.4584  0.3645 -0.2670
   29MOL0     C 3833   3.788   4.447   4.331  0.0685  0.2958  0.9138
   29MOL0     C 3834   3.645   4.198   3.971  0.5112 -0.8222  0.1301
   29MOL0     C 3835   3.728   4.237   3.850 -0.1805 -0.4260  0.2636
   29MOL0     C 3836   3.682   4.194   3.726 -0.5834 -0.3223 -0.4548
   29MOL0     C 3837   3.575   4.101   3.711  0.2052  0.8455  0.1147
   29MOL0     O 3838   3.551   4.032   3.597 -0.7107 -0.9709  0.5955
   29MOL0     C 3839   3.574   4.100   3.469 -0.4754 -0.3980 -0.5663
   29MOL0     C 3840   3.486   4.024   3.365  0.6194  0.3245 -0.6158
   29MOL0     C 3841   3.498   4.083   3.227  1.0141 -0.3462  0.6291
   29MOL0     C 3842   3.401   4.022   3.120  0.3092  0.0788  0.5413
   29MOL0     C 3843   3.438   4.076   2.997 -0.0891  0.2121  0.1075
   29MOL0     C 3844   3.488   4.113   2.894 -0.4068 -0.6830  0.4546
   29MOL0     C 3845   3.502   4.066   3.818  0.0855 -0.0867  0.1685
   29MOL0     C 3846   3.524   4.121   3.948 -0.1118 -0.0283  0.1543
   29MOL0     C 3847   3.442   4.043   4.049  0.9119 -0.2420 -0.1777
   29MOL0     H 3848   3.760   4.573   4.017  1.2622  0.4845  0.7205
   29MOL0     H 3849   3.771   4.778   4.123 -1.1703 -0.4397 -1.4729
   29MOL0     H 3850   3.586   4.832   4.374  1.2133 -0.6569 -1.1919
   29MOL0     H 3851   3.635   4.820   4.541 -2.0196 -0.8201 -1.0599
   29MOL0     H 3852   3.707   5.035   4.321 -0.8314 -0.1175 -0.5733
   29MOL0     H 3853   3.774   5.035   4.489 -0.1583 -1.5835  0.5872
   29MOL0     H 3854   3.587   5.200   4.465  1.2929  0.3243  2.8864
   29MOL0     H 3855   3.568   5.078   4.592 -2.3904 -1.5027  0.5668
   29MOL0     H 3856   3.420   5.103   4.331 -0.4898  1.1641  1.1757
   29MOL0     H 3857   3.394   4.961   4.426 -1.4541  0.1572 -1.0864
   29MOL0     H 3858   3.313   5.102   4.629 -1.8869 -1.3498  0.5038
   29MOL0     H 3859   3.329   5.235   4.517  2.4169 -0.5655 -3.1518
   29MOL0     H 3860   3.172   5.073   4.366 -3.3300 -3.7900 -0.2478
   29MOL0     H 3861   3.150   4.973   4.499 -0.8539  0.5600  2.5792
   29MOL0     H 3862   3.078   5.268   4.465  4.5959 -0.9960 -0.5838
   29MOL0     H 3863   3.076   5.181   4.627 -0.6486 -2.9417  0.7123
   29MOL0     H 3864   2.894   5.039   4.551  0.0730 -1.3404 -1.7605
   29MOL0     H 3865   2.855   5.215   4.514  1.8000  1.9804  0.3039
   29MOL0     H 3866   2.937   4.878   4.342 -2.9237 -0.8290  3.9340
   29MOL0     H 3867   2.820   4.840   4.020  0.5493  1.6550 -0.8487
   29MOL0     H 3868   2.762   4.763   4.176  0.5911  0.6432 -0.5720
   29MOL0     H 3869   2.545   4.861   4.164  0.8600 -0.6815 -0.4473
   29MOL0     H 3870   2.588   4.933   4.012  0.5608  1.1601  0.3872
   29MOL0     H 3871   2.587   4.621   4.063  0.6143 -0.3138 -0.6270
   29MOL0     H 3872   2.631   4.700   3.918  0.9907 -5.0348  1.2052
   29MOL0     H 3873   2.371   4.727   4.077 -0.3836 -1.4792  0.3348
   29MOL0     H 3874   2.396   4.611   3.939 -0.5157 -1.8481  4.1468
   29MOL0     H 3875   2.232   4.976   3.775 -0.0693 -0.3912 -0.0702
   29MOL0     H 3876   2.139   4.947   3.544  1.2604  0.0778 -0.2016
   29MOL0     H 3877   2.228   4.671   3.062  2.1662 -0.8334 -1.2083
   29MOL0     H 3878   2.126   4.510   2.901 -0.8828  0.0397  0.1896
   29MOL0     H 3879   2.021   4.086   2.997  1.3158  0.9444 -2.2790
   29MOL0     H 3880   1.873   4.169   3.051 -2.1030  1.1031 -1.4533
   29MOL0     H 3881   1.816   4.195   2.805 -0.6960 -1.0457  1.0427
   29MOL0     H 3882   1.968   4.119   2.762  2.9130 -0.1517  1.5668
   29MOL0     H 3883   1.866   3.906   2.856  0.3082  0.1592  0.5804
   29MOL0     H 3884   1.738   4.000   2.934  0.3082  0.9827  0.5878
   29MOL0     H 3885   1.765   3.906   2.661  0.5146 -0.3188  0.9246
   29MOL0     H 3886   1.674   4.065   2.691 -0.0399 -0.3159  0.9746
   29MOL0     H 3887   1.534   3.967   2.841  1.7241 -1.1319  2.4182
   29MOL0     H 3888   1.592   3.809   2.825 -3.4475  1.4681  2.7532
   29MOL0     H 3889   1.393   3.850   2.693  1.6653 -4.2160  1.0420
   29MOL0     H 3890   1.442   4.003   2.626 -1.6615 -0.7517 -0.5018
   29MOL0     H 3891   1.617   3.772   2.526  2.4925  1.7734  0.0004
   29MOL0     H 3892   1.563   3.912   2.446  3.7744 -1.7794  0.6188
   29MOL0     H 3893   1.455   3.728   2.338  0.5042  0.7138 -0.1374
   29MOL0     H 3894   1.412   3.662   2.493  1.5163 -0.5059 -0.8040
   29MOL0     H 3895   2.014   4.260   3.223 -2.4556  2.4934  0.9247
   29MOL0     H 3896   2.152   4.404   3.377  1.0134 -3.1864 -1.1204
   29MOL0     H 3897   2.350   4.578   3.514 -5.5838  0.0451 -1.7485
   29MOL0     H 3898   2.462   4.617   3.724  2.0017  1.6652 -3.0258
   29MOL0     H 3899   3.810   4.580   4.507 -1.0691  0.6466 -0.1429
   29MOL0     H 3900   3.787   4.358   4.393 -3.4281  1.2393  2.4684
   29MOL0     H 3901   3.809   4.308   3.868 -1.1735  0.7213  0.3925
   29MOL0     H 3902   3.745   4.209   3.638  0.0837 -0.1460  0.0444
   29MOL0     H 3903   3.680   4.098   3.443  0.2342  0.7528  1.9552
   29MOL0     H 3904   3.542   4.202   3.493  2.6461  0.3944  0.7087
   29MOL0     H 3905   3.380   4.020   3.394  1.0524  4.5839  2.4055
   29MOL0     H 3906   3.524   3.921   3.361 -0.0564  0.1003 -1.9632
   29MOL0     H 3907   3.602   4.072   3.195  0.3573 -2.6182 -0.9826
   29MOL0     H 3908   3.469   4.187   3.248  1.0674 -0.2596  0.2697
   29MOL0     H 3909   3.400   3.912   3.122  2.3024 -0.0505 -1.4974
   29MOL0     H 3910   3.301   4.059   3.143 -0.0303 -0.2542 -0.3807
   29MOL0     H 3911   3.550   4.137   2.810 -2.5937 -0.2028 -1.0790
   29MOL0     H 3912   3.413   4.005   3.805 -0.9211  1.7126 -2.1483
   29MOL0     H 3913   3.403   4.111   4.125 -0.0677 -1.8735  0.8705
   29MOL0     H 3914   3.351   3.999   4.006 -0.0150 -0.7605  2.1606
   29MOL0     H 3915   3.496   3.960   4.096 -0.6719  0.1396  2.5201
   30MOL0     O 3916   2.816   7.045   8.202  0.0123 -0.6757  1.2820
   30MOL0     C 3917   2.732   6.960   8.176  1.3908  0.1722  0.3262
   30MOL0     O 3918   2.640   6.958   8.070 -0.1948  0.2347 -0.1523
   30MOL0     C 3919   2.684   7.034   7.969  0.4257  0.2363  0.0163
   30MOL0     C 3920   2.671   7.181   7.975  0.1133 -0.7030  0.1864
   30MOL0     C 3921   2.720   7.252   7.868  0.6982  0.3263  0.5884
   30MOL0     C 3922   2.758   7.198   7.740  0.3441  0.9918 -0.8947
   30MOL0     O 3923   2.812   7.279   7.644 -0.3559  0.5509 -0.1320
   30MOL0     C 3924   2.818   7.231   7.505 -0.2701  0.1747 -0.3734
   30MOL0     C 3925   2.956   7.170   7.475 -0.2442  0.2490  0.0380
   30MOL0     C 3926   3.065   7.283   7.482  0.9438  0.1381 -0.0329
   30MOL0     C 3927   3.203   7.239   7.439 -0.1477  0.5001 -0.2953
   30MOL0     C 3928   3.305   7.349   7.466  0.9794 -0.0125 -0.2827
   30MOL0     C 3929   3.451   7.330   7.416  0.4681 -0.5695 -1.1536
   30MOL0     C 3930   3.508   7.213   7.494  0.9687  0.3414  0.1091
   30MOL0     C 3931   3.663   7.220   7.501  0.4739 -0.3310 -0.4444
   30MOL0     N 3932   3.719   7.216   7.371  0.3320 -0.3344 -0.2284
   30MOL0     C 3933   3.710   7.122   7.269  0.0507  0.1120  0.7082
   30MOL0     C 3934   3.793   7.171   7.174 -0.1722 -0.1885  0.0639
   30MOL0     C 3935   3.817   7.097   7.049  0.1239  0.2457  0.4634
   30MOL0     C 3936   3.948   7.142   6.984 -0.6960  0.8597  0.2280
   30MOL0     C 3937   3.951   7.272   6.911 -1.2303 -0.3236  0.6492
   30MOL0     C 3938   4.091   7.323   6.873  0.9927 -0.1265 -0.3007
   30MOL0     O 3939   4.098   7.408   6.763  0.4226 -0.0036 -0.7418
   30MOL0     C 3940   4.215   7.467   6.735 -0.4195  0.1827  0.0678
   30MOL0     C 3941   4.222   7.519   6.611  0.4519 -0.6019 -0.6111
   30MOL0     C 3942   4.342   7.583   6.554 -0.2048  0.2513 -0.1908
   30MOL0     C 3943   4.453   7.576   6.634 -0.3718  0.2653  0.0575
   30MOL0     C 3944   4.584   7.635   6.587  0.6921  0.3360 -0.3643
   30MOL0     O 3945   4.614   7.670   6.458 -0.0061 -0.2070 -0.0932
   30MOL0     C 3946   4.721   7.751   6.441 -0.1294  0.5052 -1.6370
   30MOL0     C 3947   4.851   7.712   6.488  0.0994  0.7925  0.3223
   30MOL0     C 3948   4.956   7.807   6.482 -0.9124 -0.0370 -0.2120
   30MOL0     C 3949   4.935   7.931   6.427 -0.7680  1.2618 -0.6390
   30MOL0     O 3950   5.040   8.017   6.400 -0.7141  0.2436  0.9098
   30MOL0     C 3951   5.165   7.988   6.455 -0.0217 -0.0884 -0.4114
   30MOL0     C 3952   5.245   8.102   6.397 -0.0515  0.0823 -0.1283
   30MOL0     C 3953   5.383   8.095   6.456  0.7147  0.1411  0.4873
   30MOL0     C 3954   5.478   8.202   6.411  0.4133 -0.3878 -0.5357
   30MOL0     C 3955   5.619   8.150   6.442 -0.3079 -0.2537 -0.1526
   30MOL0     C 3956   5.718   8.258   6.429 -0.8017 -0.3259  0.0596
   30MOL0     C 3957   5.854   8.216   6.486  0.0806  1.1579 -0.9133
   30MOL0     C 3958   5.974   8.241   6.396 -0.0036 -0.3683  0.3708
   30MOL0    Cl 3959   6.033   8.095   6.325 -0.1165 -0.1954 -0.3047
   30MOL0     C 3960   4.808   7.970   6.382  0.0247  0.2452 -0.0525
   30MOL0     C 3961   4.705   7.884   6.393  0.5285 -0.0039 -0.5633
   30MOL0     O 3962   4.663   7.654   6.686 -0.0163 -0.4950  0.6719
   30MOL0     C 3963   4.445   7.515   6.763  0.9987 -0.1035 -0.5493
   30MOL0     C 3964   4.331   7.459   6.815  0.3807 -0.1699  0.1518
   30MOL0     N 3965   3.854   7.285   7.209  0.5692 -0.4032 -0.1945
   30MOL0     N 3966   3.808   7.313   7.329  0.1652  1.4027  0.2204
   30MOL0     C 3967   2.767   7.054   7.735  0.4880  0.2364  0.5421
   30MOL0     C 3968   2.721   6.977   7.838  0.0698 -0.4693 -1.4380
   30MOL0     C 3969   2.748   6.836   8.254  0.5203 -0.7471 -0.3956
   30MOL0     C 3970   2.695   6.710   8.200 -0.0039 -1.1256 -0.4803
   30MOL0     C 3971   2.714   6.587   8.269 -0.3063 -0.3027 -0.0087
   30MOL0     C 3972   2.766   6.588   8.395 -0.8110  0.2913 -0.5697
   30MOL0     O 3973   2.766   6.464   8.452  0.3113  1.3348 -0.6703
   30MOL0     C 3974   2.751   6.461   8.594 -0.0605 -0.0702 -0.5525
   30MOL0     C 3975   2.739   6.318   8.640 -0.8725 -0.2881  0.2390
   30MOL0     C 3976   2.722   6.308   8.793 -0.4659  0.1547 -0.2224
   30MOL0     C 3977   2.836   6.235   8.869 -0.4856 -0.2411  0.0754
   30MOL0     C 3978   2.812   6.087   8.871  0.1811 -0.0287  0.0686
   30MOL0     C 3979   2.796   5.971   8.896  0.4762 -0.6092  0.0517
   30MOL0     C 3980   2.793   6.711   8.461  0.2490  0.1478  0.6439
   30MOL0     C 3981   2.799   6.833   8.386 -0.4674  0.5502 -0.3606
   30MOL0     C 3982   2.843   6.952   8.459 -0.9509 -0.1110 -0.5917
   30MOL0     H 3983   2.638   7.229   8.067  3.8452  2.7635  0.0115
   30MOL0     H 3984   2.735   7.357   7.888  0.9009  0.1084  1.6547
   30MOL0     H 3985   2.747   7.150   7.489  1.2947 -1.1188 -1.1008
   30MOL0     H 3986   2.807   7.309   7.429  2.9677 -0.5438 -1.7833
   30MOL0     H 3987   2.949   7.134   7.372  5.3402  1.3716 -1.0570
   30MOL0     H 3988   2.984   7.090   7.544  0.4654  2.6833  2.7659
   30MOL0     H 3989   3.075   7.322   7.584  1.1724 -0.9777  0.3844
   30MOL0     H 3990   3.039   7.375   7.429  2.9330  0.8600  0.1672
   30MOL0     H 3991   3.228   7.152   7.500  4.7214  2.4134  0.8122
   30MOL0     H 3992   3.198   7.207   7.334 -4.2234 -0.0991 -0.1074
   30MOL0     H 3993   3.266   7.437   7.415 -1.2650  1.2740  3.2528
   30MOL0     H 3994   3.308   7.373   7.573 -2.1556  2.9523 -0.6997
   30MOL0     H 3995   3.441   7.292   7.314  1.4200 -1.6136 -0.8820
   30MOL0     H 3996   3.520   7.415   7.415 -0.7567  0.4830  0.3114
   30MOL0     H 3997   3.468   7.123   7.445  0.6623 -0.2021  1.3256
   30MOL0     H 3998   3.483   7.210   7.600  4.4008 -0.0850  1.0502
   30MOL0     H 3999   3.697   7.315   7.542  1.2822  0.4435 -2.8117
   30MOL0     H 4000   3.707   7.149   7.572 -1.9015 -2.8435 -1.2865
   30MOL0     H 4001   3.663   7.025   7.264 -1.0359  0.6715 -0.5528
   30MOL0     H 4002   3.831   6.990   7.071 -0.4360 -0.5683 -2.6354
   30MOL0     H 4003   3.733   7.100   6.980  0.6045  1.9876 -0.0848
   30MOL0     H 4004   4.019   7.144   7.067 -1.3195 -0.8140  0.8374
   30MOL0     H 4005   3.972   7.064   6.911 -0.0319  1.0486  0.2338
   30MOL0     H 4006   3.892   7.344   6.969 -1.1470 -0.5352  0.9974
   30MOL0     H 4007   3.903   7.249   6.816 -0.2401 -2.2565  0.5618
   30MOL0     H 4008   4.145   7.233   6.844 -1.8069 -1.6035 -1.2169
   30MOL0     H 4009   4.131   7.366   6.966 -0.1093  2.1413 -0.7948
   30MOL0     H 4010   4.133   7.527   6.549  0.3337  0.4771 -0.3089
   30MOL0     H 4011   4.358   7.613   6.452  3.0195  0.2475  0.2063
   30MOL0     H 4012   4.863   7.615   6.535 -0.9992  0.5791  0.1847
   30MOL0     H 4013   5.046   7.755   6.512 -2.5485 -2.3825  0.9981
   30MOL0     H 4014   5.170   7.981   6.564  1.9635 -4.0923 -0.5777
   30MOL0     H 4015   5.194   7.890   6.416 -1.8093 -2.3294  3.3327
   30MOL0     H 4016   5.251   8.089   6.288  2.2187  0.8811 -0.1556
   30MOL0     H 4017   5.199   8.198   6.424 -1.7304 -0.6181 -0.3756
   30MOL0     H 4018   5.374   8.090   6.565 -1.0786 -1.5752  0.3169
   30MOL0     H 4019   5.423   7.999   6.419 -0.2852 -0.9847  2.1756
   30MOL0     H 4020   5.457   8.297   6.460 -2.5227 -1.7717  1.1143
   30MOL0     H 4021   5.474   8.216   6.303 -0.2291 -0.4905 -0.5252
   30MOL0     H 4022   5.647   8.060   6.387 -3.6071 -0.4438 -1.7489
   30MOL0     H 4023   5.606   8.126   6.548  1.6638 -0.7227  0.0305
   30MOL0     H 4024   5.726   8.297   6.328  3.7151 -2.1286 -0.5199
   30MOL0     H 4025   5.687   8.345   6.487 -0.3680  0.1093 -0.3592
   30MOL0     H 4026   5.849   8.110   6.510  0.8099  0.5813 -3.0757
   30MOL0     H 4027   5.876   8.276   6.574  1.6575  0.6671 -0.9477
   30MOL0     H 4028   5.945   8.317   6.323  1.0724 -0.3585 -0.0746
   30MOL0     H 4029   6.054   8.300   6.443 -0.8460  2.0167 -1.0239
   30MOL0     H 4030   4.798   8.071   6.345  0.5567  0.4396  0.3220
   30MOL0     H 4031   4.610   7.916   6.351  0.6095 -0.5903 -1.2338
   30MOL0     H 4032   4.543   7.510   6.809  0.8868 -0.0755 -0.3066
   30MOL0     H 4033   4.324   7.417   6.915  2.1460 -0.1871  0.3019
   30MOL0     H 4034   2.819   6.999   7.657  2.1687  0.0757  1.7174
   30MOL0     H 4035   2.741   6.870   7.841  2.4173 -0.1115  2.4230
   30MOL0     H 4036   2.648   6.713   8.103  0.2532  1.1040 -0.5754
   30MOL0     H 4037   2.687   6.495   8.218  1.4511 -1.6862  1.4364
   30MOL0     H 4038   2.656   6.514   8.609 -1.2587 -1.7102 -1.9707
   30MOL0     H 4039   2.834   6.506   8.650  1.3154 -0.9052 -1.8609
   30MOL0     H 4040   2.819   6.250   8.611 -3.6475 -2.5927 -2.8617
   30MOL0     H 4041   2.658   6.266   8.587 -2.1007  0.8756  0.9080
   30MOL0     H 4042   2.631   6.253   8.820 -1.1778  0.9916 -0.8805
   30MOL0     H 4043   2.724   6.406   8.841  2.8973  0.3294 -0.4486
   30MOL0     H 4044   2.921   6.264   8.806 -0.7121  0.0562 -0.0924
   30MOL0     H 4045   2.861   6.263   8.971 -1.5655  1.9848 -0.2305
   30MOL0     H 4046   2.780   5.872   8.934  1.6818 -0.3526  1.2907
   30MOL0     H 4047   2.827   6.712   8.564  1.1208  1.2917  0.3685
   30MOL0     H 4048   2.857   6.928   8.565 -0.9037  3.6113  0.4090
   30MOL0     H 4049   2.934   6.992   8.411 -2.6788  1.6276 -2.6287
   30MOL0     H 4050   2.770   7.034   8.456  1.4995  2.2959  0.4775
   31MOL0     O 4051   6.569   2.259   1.872 -0.4177  0.4208 -0.4882
   31MOL0     C 4052   6.615   2.345   1.803  0.2505 -0.0875 -0.1905
   31MOL0     O 4053   6.571   2.470   1.806  0.0709 -0.9773  0.5840
   31MOL0     C 4054   6.536   2.521   1.924 -0.6187  0.3422  0.3389
   31MOL0     C 4055   6.603   2.522   2.047 -0.5004  0.9862 -0.2597
   31MOL0     C 4056   6.563   2.594   2.157  0.3261 -0.1194 -0.5454
   31MOL0     C 4057   6.453   2.684   2.159 -0.0472 -0.2120  1.0016
   31MOL0     O 4058   6.430   2.758   2.270 -0.0037 -0.1926  0.5834
   31MOL0     C 4059   6.319   2.850   2.266  0.0702 -0.5851 -0.1889
   31MOL0     C 4060   6.195   2.784   2.300  0.7788  0.6996 -0.5806
   31MOL0     C 4061   6.068   2.823   2.229  0.5205 -1.0194  0.8118
   31MOL0     C 4062   6.034   2.975   2.256  0.4819 -1.0423  0.0967
   31MOL0     C 4063   5.883   3.005   2.275 -0.1088  0.4426  0.1960
   31MOL0     C 4064   5.829   2.972   2.421  0.3571 -0.1501 -0.4717
   31MOL0     C 4065   5.697   3.041   2.457  0.0297 -0.6924  0.6548
   31MOL0     C 4066   5.578   2.985   2.373  0.4129  0.6037 -0.2370
   31MOL0     N 4067   5.499   2.875   2.444 -0.7494 -1.1748  0.5978
   31MOL0     C 4068   5.444   2.894   2.575 -0.0935 -0.0377  0.6282
   31MOL0     C 4069   5.419   2.771   2.612  0.0502  0.9479  0.6143
   31MOL0     C 4070   5.358   2.732   2.736  0.3904  0.8167  0.1942
   31MOL0     C 4071   5.236   2.817   2.777  0.2370  0.1383  0.3720
   31MOL0     C 4072   5.146   2.746   2.881 -0.1437 -0.6094 -0.4923
   31MOL0     C 4073   5.019   2.831   2.912 -0.0386 -0.4659 -0.5805
   31MOL0     O 4074   4.955   2.766   3.030 -0.8568 -0.8831 -0.4175
   31MOL0     C 4075   4.918   2.636   3.034  0.1585 -0.2407 -0.1724
   31MOL0     C 4076   4.904   2.554   2.924  0.9662 -0.0517 -1.2028
   31MOL0     C 4077   4.889   2.417   2.945 -0.2098  0.5160  0.2685
   31MOL0     C 4078   4.871   2.360   3.073  0.4811  0.0883  0.2278
   31MOL0     C 4079   4.836   2.216   3.084  0.6272  0.6063  0.8229
   31MOL0     O 4080   4.815   2.152   2.965 -0.7859 -0.9159  0.6340
   31MOL0     C 4081   4.791   2.022   2.943  0.4865 -0.6985  0.0541
   31MOL0     C 4082   4.850   1.914   3.009  0.4510  0.2464 -0.4761
   31MOL0     C 4083   4.797   1.786   2.974 -0.9562 -0.5420 -0.9897
   31MOL0     C 4084   4.710   1.762   2.867  0.2078 -0.5351  0.5702
   31MOL0     O 4085   4.676   1.632   2.840 -0.2354  0.2232 -0.3410
   31MOL0     C 4086   4.618   1.619   2.705  0.0930 -1.0453  0.1829
   31MOL0     C 4087   4.610   1.470   2.665 -0.4246  0.4734  0.5972
   31MOL0     C 4088   4.537   1.440   2.524  0.9163 -1.0839 -0.1080
   31MOL0     C 4089   4.528   1.291   2.486 -1.1596  0.4412 -0.1796
   31MOL0     C 4090   4.399   1.229   2.539 -0.2395 -0.0785  0.2148
   31MOL0     C 4091   4.276   1.248   2.447  0.2993 -0.4986  0.6260
   31MOL0     C 4092   4.273   1.139   2.340 -0.0126 -0.2431  0.0822
   31MOL0     C 4093   4.169   1.177   2.230 -0.1040 -0.1702  0.2261
   31MOL0    Cl 4094   4.175   1.043   2.112  0.0707 -0.1552  0.4940
   31MOL0     C 4095   4.656   1.875   2.806 -0.3511  0.8048  0.2849
   31MOL0     C 4096   4.699   2.007   2.841 -0.1722  0.7730 -0.8896
   31MOL0     O 4097   4.817   2.154   3.192  0.7699  0.2521 -0.2347
   31MOL0     C 4098   4.881   2.437   3.189 -0.3985 -0.3658  0.2869
   31MOL0     C 4099   4.904   2.574   3.165  0.0716 -1.0959  0.4626
   31MOL0     N 4100   5.448   2.676   2.518  0.0192 -0.1286  1.3735
   31MOL0     N 4101   5.498   2.746   2.416 -0.5357 -0.4936 -0.4554
   31MOL0     C 4102   6.381   2.689   2.030 -0.4372  1.3553 -0.4546
   31MOL0     C 4103   6.424   2.610   1.923 -0.4052  0.0032  0.1668
   31MOL0     C 4104   6.710   2.321   1.706 -0.4312 -0.9034  0.6116
   31MOL0     C 4105   6.822   2.410   1.688  0.2985  1.0898  1.1080
   31MOL0     C 4106   6.920   2.385   1.599  0.0036  0.3070 -0.4496
   31MOL0     C 4107   6.910   2.272   1.515  0.3166  0.2099 -0.6679
   31MOL0     O 4108   7.009   2.250   1.431 -0.2539 -0.3329  0.8031
   31MOL0     C 4109   6.999   2.203   1.294  0.4469  0.4893  0.4373
   31MOL0     C 4110   7.045   2.313   1.188 -0.3566  0.4679 -0.9168
   31MOL0     C 4111   7.193   2.337   1.181 -1.1669  0.0531 -0.5189
   31MOL0     C 4112   7.284   2.204   1.147  0.2381  0.1777  0.9347
   31MOL0     C 4113   7.387   2.237   1.048  0.3278 -0.5802 -0.4999
   31MOL0     C 4114   7.486   2.266   0.984 -0.1960 -0.5393 -1.2031
   31MOL0     C 4115   6.794   2.189   1.523  0.2454  0.1123  0.0063
   31MOL0     C 4116   6.698   2.220   1.612  0.8972 -0.4968 -0.1847
   31MOL0     C 4117   6.564   2.141   1.607 -0.1457  0.1148  0.5829
   31MOL0     H 4118   6.697   2.467   2.053 -1.9769 -1.6183  0.8881
   31MOL0     H 4119   6.629   2.574   2.241 -1.6820 -1.8169  0.7250
   31MOL0     H 4120   6.339   2.932   2.336  1.3572  0.6946 -1.9679
   31MOL0     H 4121   6.318   2.908   2.173  2.6215  1.1028  0.7138
   31MOL0     H 4122   6.178   2.812   2.405 -2.6030  1.7601 -1.2813
   31MOL0     H 4123   6.204   2.675   2.301 -0.4955  0.4994 -2.9175
   31MOL0     H 4124   5.986   2.767   2.274 -1.5266  1.9002  1.0289
   31MOL0     H 4125   6.080   2.793   2.125 -0.1506  5.5641 -1.6792
   31MOL0     H 4126   6.083   3.005   2.349 -0.7909 -1.4900  0.9259
   31MOL0     H 4127   6.067   3.033   2.169 -0.1024  0.3157  0.7673
   31MOL0     H 4128   5.861   3.103   2.230 -1.7228 -1.1841 -2.8910
   31MOL0     H 4129   5.833   2.947   2.197  1.7137  1.6415 -2.0206
   31MOL0     H 4130   5.825   2.867   2.452  2.7069 -0.0720  0.2504
   31MOL0     H 4131   5.907   3.019   2.482  1.2689  0.6128 -2.1342
   31MOL0     H 4132   5.718   3.140   2.416  3.2474 -3.7075 -6.6790
   31MOL0     H 4133   5.674   3.042   2.564  0.0395 -0.7049  0.6576
   31MOL0     H 4134   5.503   3.062   2.348 -2.0345 -1.3281  0.7417
   31MOL0     H 4135   5.610   2.948   2.275  1.2281  1.3633 -0.2773
   31MOL0     H 4136   5.404   2.978   2.631  2.2393 -0.9416  3.9042
   31MOL0     H 4137   5.345   2.624   2.728  2.4455  0.5735 -0.4797
   31MOL0     H 4138   5.439   2.747   2.808 -0.3470  0.5799  1.0775
   31MOL0     H 4139   5.276   2.913   2.810  0.6859  0.2260 -0.3924
   31MOL0     H 4140   5.179   2.833   2.685 -1.1638 -0.6730  1.0791
   31MOL0     H 4141   5.199   2.730   2.976 -1.2649  0.1921  0.3064
   31MOL0     H 4142   5.114   2.648   2.844 -1.4458 -0.5593  0.4221
   31MOL0     H 4143   4.953   2.825   2.825 -1.1222 -2.9734  0.3121
   31MOL0     H 4144   5.043   2.936   2.931  2.1342 -1.0262  0.0364
   31MOL0     H 4145   4.889   2.588   2.822 -2.1134 -1.0156 -1.1840
   31MOL0     H 4146   4.871   2.357   2.857  0.1769 -0.4396  0.8271
   31MOL0     H 4147   4.927   1.941   3.081 -1.9113 -1.7305  3.0874
   31MOL0     H 4148   4.834   1.701   3.031  0.4511 -0.2201 -1.3933
   31MOL0     H 4149   4.520   1.666   2.695  0.5088 -0.5859 -2.4773
   31MOL0     H 4150   4.673   1.674   2.628 -0.6610 -0.2897  0.1772
   31MOL0     H 4151   4.708   1.424   2.653 -1.1074 -0.7008 -0.8587
   31MOL0     H 4152   4.558   1.422   2.748 -1.2408  1.1728  0.5060
   31MOL0     H 4153   4.433   1.475   2.531  1.3148 -0.2354  2.5469
   31MOL0     H 4154   4.585   1.496   2.443 -0.7417 -0.6925 -0.8714
   31MOL0     H 4155   4.611   1.239   2.533  0.3047  2.3020 -0.5908
   31MOL0     H 4156   4.531   1.286   2.377  1.7087  1.5278 -0.2216
   31MOL0     H 4157   4.383   1.274   2.638 -1.0287  0.3704 -0.1065
   31MOL0     H 4158   4.407   1.122   2.558 -3.0556 -0.7424 -1.6027
   31MOL0     H 4159   4.186   1.230   2.506  0.9377 -3.9459  0.7820
   31MOL0     H 4160   4.263   1.350   2.410  0.2097 -0.9180 -0.5455
   31MOL0     H 4161   4.248   1.043   2.386  0.1706 -0.4360 -0.2216
   31MOL0     H 4162   4.368   1.122   2.291 -0.7796 -1.6476 -0.9815
   31MOL0     H 4163   4.070   1.193   2.273 -0.4032  1.2243 -0.8958
   31MOL0     H 4164   4.194   1.276   2.189 -3.5099  2.2844  3.4333
   31MOL0     H 4165   4.590   1.856   2.723 -0.4374 -0.6210  0.6461
   31MOL0     H 4166   4.662   2.089   2.779 -1.9389  0.6688 -0.0530
   31MOL0     H 4167   4.851   2.407   3.289 -0.6884 -1.3263 -0.0785
   31MOL0     H 4168   4.900   2.642   3.250  1.6730 -0.2188 -0.1164
   31MOL0     H 4169   6.284   2.735   2.018 -1.4793 -0.7172 -0.3066
   31MOL0     H 4170   6.366   2.605   1.831  1.9861  4.2514 -1.8621
   31MOL0     H 4171   6.835   2.493   1.757  2.7901  2.4754 -0.8471
   31MOL0     H 4172   6.997   2.461   1.588 -1.7511  1.8926 -2.6556
   31MOL0     H 4173   6.896   2.187   1.261  0.4952  1.4650 -0.2442
   31MOL0     H 4174   7.062   2.114   1.287 -1.3185 -0.8200  0.5614
   31MOL0     H 4175   6.988   2.405   1.202 -0.1811  0.6526 -1.3846
   31MOL0     H 4176   7.019   2.261   1.095 -2.6801 -1.2633  0.6069
   31MOL0     H 4177   7.235   2.382   1.271 -0.7670  0.9575 -1.1445
   31MOL0     H 4178   7.209   2.413   1.104  0.0537 -1.4785 -1.8397
   31MOL0     H 4179   7.316   2.161   1.242 -1.2607 -1.0270  0.9362
   31MOL0     H 4180   7.224   2.122   1.106  1.6661  0.4465 -1.9260
   31MOL0     H 4181   7.573   2.305   0.937  1.3908 -1.3194  0.8995
   31MOL0     H 4182   6.765   2.103   1.464 -3.7880  0.3113  1.4310
   31MOL0     H 4183   6.486   2.204   1.649 -1.2007 -0.5601 -0.3001
   31MOL0     H 4184   6.534   2.125   1.503  0.5812 -0.1744  0.4058
   31MOL0     H 4185   6.548   2.045   1.657  1.7734  0.8952  2.8999
   32MOL0     O 4186  10.865   5.421   0.606 -0.3695  0.5714 -0.3086
   32MOL0     C 4187  10.858   5.419   0.730 -0.0577  0.4124  0.5008
   32MOL0     O 4188  10.881   5.302   0.813  0.4615  0.2485  1.0921
   32MOL0     C 4189  10.917   5.187   0.748  0.5733 -0.5063 -1.1235
   32MOL0     C 4190  11.001   5.106   0.827 -0.6838  0.6588 -0.4651
   32MOL0     C 4191  11.020   4.975   0.796 -0.4293 -0.6665  0.6831
   32MOL0     C 4192  10.975   4.920   0.669 -0.1992  1.4024 -0.2297
   32MOL0     O 4193  11.005   4.795   0.639  0.3319  0.8896  0.5740
   32MOL0     C 4194  11.048   4.778   0.494  0.7439  0.5087  0.6038
   32MOL0     C 4195  11.161   4.672   0.490  0.5025  0.0091 -0.7475
   32MOL0     C 4196  11.281   4.706   0.583  0.4872 -0.5267  0.8608
   32MOL0     C 4197  11.350   4.832   0.519 -0.7804  1.3630 -0.9885
   32MOL0     C 4198  11.476   4.859   0.596 -0.9229 -1.4839  0.6346
   32MOL0     C 4199  11.466   4.868   0.747  0.5872  0.9256 -0.6560
   32MOL0     C 4200  11.368   4.980   0.805 -0.1112  0.7611  0.2550
   32MOL0     C 4201  11.441   5.116   0.811  0.4042  0.1702 -0.1076
   32MOL0     N 4202  11.541   5.117   0.925  0.4770  1.0344  0.4137
   32MOL0     C 4203  11.515   5.155   1.050  0.7574  0.4894 -0.7971
   32MOL0     C 4204  11.636   5.150   1.116  0.3880  0.6374  0.3137
   32MOL0     C 4205  11.677   5.159   1.262  0.5334  0.0185  0.4439
   32MOL0     C 4206  11.665   5.295   1.329 -0.0580 -0.7255  0.3202
   32MOL0     C 4207  11.536   5.309   1.406  0.4744 -0.5695  0.1128
   32MOL0     C 4208  11.522   5.449   1.465 -0.0543  0.3460 -0.7251
   32MOL0     O 4209  11.603   5.473   1.577  0.3595 -0.0652 -0.6598
   32MOL0     C 4210  11.589   5.382   1.687 -0.1337  0.0782  0.9529
   32MOL0     C 4211  11.476   5.374   1.767 -0.0708  0.1617  0.5039
   32MOL0     C 4212  11.476   5.294   1.874 -0.1691  0.3430 -0.0488
   32MOL0     C 4213  11.585   5.206   1.899 -0.2184  0.2608 -1.2121
   32MOL0     C 4214  11.569   5.105   2.009  0.3320 -0.3677 -0.1425
   32MOL0     O 4215  11.689   5.067   2.065 -0.1454  0.7179  0.5126
   32MOL0     C 4216  11.694   4.953   2.147  0.4805  0.8192 -0.4420
   32MOL0     C 4217  11.768   4.975   2.263 -0.7496  0.8132  0.5254
   32MOL0     C 4218  11.762   4.885   2.364 -0.0318  1.0496  0.1511
   32MOL0     C 4219  11.694   4.764   2.351 -0.4587  0.7647  0.2747
   32MOL0     O 4220  11.714   4.682   2.462  0.5134  0.7622 -0.1529
   32MOL0     C 4221  11.613   4.584   2.481  0.7212  0.5841  0.3610
   32MOL0     C 4222  11.632   4.543   2.632 -0.9334  0.4191 -0.0025
   32MOL0     C 4223  11.563   4.413   2.675  0.0422  0.3526  0.7735
   32MOL0     C 4224  11.550   4.380   2.813  0.2208  0.1279 -0.5530
   32MOL0     C 4225  11.685   4.335   2.869  0.4121  0.2075  0.5345
   32MOL0     C 4226  11.685   4.301   3.017 -0.4576  0.0962  0.3238
   32MOL0     C 4227  11.671   4.417   3.111  0.1228 -0.4876 -0.2059
   32MOL0     C 4228  11.617   4.372   3.241 -0.6652  0.4348 -0.4664
   32MOL0    Cl 4229  11.461   4.299   3.242 -0.0917 -0.2409  0.2583
   32MOL0     C 4230  11.622   4.738   2.234  0.3161  0.2816 -0.2677
   32MOL0     C 4231  11.627   4.834   2.132  0.5915  0.3244 -0.1399
   32MOL0     O 4232  11.460   5.051   2.026  0.1041  0.2742 -0.3861
   32MOL0     C 4233  11.698   5.206   1.820  0.2344 -0.1813  0.1563
   32MOL0     C 4234  11.701   5.301   1.718 -0.6209 -0.9425 -0.4651
   32MOL0     N 4235  11.734   5.127   1.023 -0.0119 -0.4509 -0.2182
   32MOL0     N 4236  11.674   5.121   0.911 -0.5247  1.3746 -0.2991
   32MOL0     C 4237  10.889   5.004   0.586  0.1375 -0.6394 -0.5711
   32MOL0     C 4238  10.858   5.138   0.634  0.4100 -0.3018 -0.4295
   32MOL0     C 4239  10.852   5.548   0.809  0.6020  0.0113  0.4659
   32MOL0     C 4240  10.912   5.667   0.760 -0.0867 -0.1307 -0.0532
   32MOL0     C 4241  10.901   5.782   0.831 -1.0636 -0.6650 -1.5976
   32MOL0     C 4242  10.853   5.794   0.958 -0.7854  0.9015  0.9984
   32MOL0     O 4243  10.845   5.906   1.032  0.3911  0.7915 -0.2534
   32MOL0     C 4244  10.943   6.008   1.013 -0.3103  0.2574  0.2043
   32MOL0     C 4245  10.901   6.140   1.077  0.3917 -0.2161 -0.6340
   32MOL0     C 4246  10.876   6.143   1.228 -0.8579 -0.4299  0.3106
   32MOL0     C 4247  10.839   6.280   1.274  0.2231  0.1875  0.3685
   32MOL0     C 4248  10.856   6.291   1.418 -0.2365 -0.1890  0.5622
   32MOL0     C 4249  10.880   6.283   1.537  0.0420  0.1499 -1.2021
   32MOL0     C 4250  10.804   5.675   1.013  0.4625  1.3284 -0.1614
   32MOL0     C 4251  10.804   5.554   0.944  0.7097  0.7217  0.3459
   32MOL0     C 4252  10.765   5.440   1.034  0.0700  0.9154 -0.2299
   32MOL0     H 4253  11.034   5.129   0.928 -0.2099 -0.3736 -0.3612
   32MOL0     H 4254  11.083   4.910   0.856  1.7614 -3.6500 -4.2562
   32MOL0     H 4255  10.965   4.745   0.431  1.4247 -0.3923  0.1587
   32MOL0     H 4256  11.079   4.873   0.448  0.9102 -0.1469 -0.6751
   32MOL0     H 4257  11.194   4.657   0.387  3.3100  0.4942 -0.0033
   32MOL0     H 4258  11.117   4.573   0.508  0.2310 -0.3266 -3.0463
   32MOL0     H 4259  11.353   4.624   0.582 -0.2170 -1.1465  0.0174
   32MOL0     H 4260  11.249   4.723   0.686  1.2847  3.9850  0.5815
   32MOL0     H 4261  11.391   4.793   0.425 -0.5928 -0.0318 -0.3635
   32MOL0     H 4262  11.288   4.919   0.498  0.6567  2.0735 -2.5440
   32MOL0     H 4263  11.555   4.788   0.571  1.0594  1.1686 -1.3196
   32MOL0     H 4264  11.510   4.955   0.555 -0.8404 -2.3582 -1.4724
   32MOL0     H 4265  11.440   4.766   0.779  1.8828 -0.1354 -2.7433
   32MOL0     H 4266  11.562   4.890   0.794 -0.0521  0.2939  1.0274
   32MOL0     H 4267  11.342   4.950   0.907  1.7742 -0.1463  0.5197
   32MOL0     H 4268  11.280   4.990   0.741  1.7452  0.3083 -2.5455
   32MOL0     H 4269  11.490   5.129   0.714 -0.7775  0.0927 -0.7345
   32MOL0     H 4270  11.371   5.200   0.807 -0.8147 -0.6792  1.8306
   32MOL0     H 4271  11.422   5.191   1.092  0.0747 -3.3714  1.4856
   32MOL0     H 4272  11.623   5.083   1.319 -1.0580  1.6543  1.2282
   32MOL0     H 4273  11.784   5.137   1.252  0.8670  0.7240  2.1400
   32MOL0     H 4274  11.748   5.318   1.396  1.1752  0.2521 -1.4387
   32MOL0     H 4275  11.671   5.371   1.251 -1.2726 -0.9611 -0.0255
   32MOL0     H 4276  11.534   5.230   1.482 -0.4379 -0.3484  0.3278
   32MOL0     H 4277  11.464   5.284   1.328  3.1597 -2.2882 -2.0319
   32MOL0     H 4278  11.420   5.457   1.502 -0.4698 -2.3918 -1.0965
   32MOL0     H 4279  11.543   5.526   1.390 -0.3270  2.6327  1.4144
   32MOL0     H 4280  11.390   5.441   1.759 -0.4599 -0.5650 -2.8699
   32MOL0     H 4281  11.392   5.324   1.935  1.4217  3.6613  0.7571
   32MOL0     H 4282  11.839   5.057   2.270 -0.4901  0.9821 -2.5303
   32MOL0     H 4283  11.815   4.899   2.457  1.4468 -0.1231 -0.4709
   32MOL0     H 4284  11.521   4.636   2.454  0.5775 -1.1553 -3.0463
   32MOL0     H 4285  11.631   4.498   2.415  0.7365  0.6751  0.2476
   32MOL0     H 4286  11.739   4.538   2.652 -0.5229  2.4228 -1.3619
   32MOL0     H 4287  11.592   4.612   2.707 -1.8617 -0.9390  0.7924
   32MOL0     H 4288  11.465   4.429   2.630  0.2880 -0.2291  0.0073
   32MOL0     H 4289  11.613   4.333   2.619  0.4164  0.2865  1.1953
   32MOL0     H 4290  11.478   4.301   2.836 -1.7030  2.2278  1.1065
   32MOL0     H 4291  11.507   4.466   2.865 -1.6502 -0.7896 -0.5029
   32MOL0     H 4292  11.754   4.419   2.858  0.3946  0.4162  1.8372
   32MOL0     H 4293  11.720   4.248   2.814 -1.5207 -0.0307 -0.3884
   32MOL0     H 4294  11.597   4.236   3.026  1.2221 -2.0448  2.7729
   32MOL0     H 4295  11.767   4.239   3.053  1.6591  2.3882 -0.3095
   32MOL0     H 4296  11.594   4.481   3.067 -2.6992 -2.5791  1.3023
   32MOL0     H 4297  11.753   4.486   3.131 -1.5179  1.0060  1.7892
   32MOL0     H 4298  11.693   4.315   3.295 -0.9233 -0.3957 -0.9648
   32MOL0     H 4299  11.616   4.455   3.313 -1.8178 -2.4332  3.1682
   32MOL0     H 4300  11.566   4.646   2.220 -2.3484  1.1210  3.3654
   32MOL0     H 4301  11.565   4.813   2.045  1.6465 -0.5524 -0.7096
   32MOL0     H 4302  11.778   5.133   1.824  3.2201  2.8913  0.9282
   32MOL0     H 4303  11.784   5.301   1.649 -0.7322 -0.0951 -0.6034
   32MOL0     H 4304  10.847   4.978   0.490 -3.4019  4.8368 -0.9627
   32MOL0     H 4305  10.781   5.194   0.583  1.8070  0.6860 -1.5458
   32MOL0     H 4306  10.960   5.668   0.663  0.3986 -0.5390  0.1737
   32MOL0     H 4307  10.924   5.871   0.773  3.1806 -0.1825  0.4749
   32MOL0     H 4308  10.961   6.031   0.908  0.3819  0.3347  0.3351
   32MOL0     H 4309  11.033   5.968   1.062 -0.6914 -0.6682  0.1787
   32MOL0     H 4310  10.812   6.180   1.028 -0.5490 -1.5907 -0.1348
   32MOL0     H 4311  10.980   6.212   1.056 -1.5357  2.1837 -0.0815
   32MOL0     H 4312  10.968   6.114   1.280  0.4509  1.6096 -0.6958
   32MOL0     H 4313  10.792   6.079   1.253 -0.8061 -0.1568  1.1947
   32MOL0     H 4314  10.905   6.350   1.221 -3.0591 -0.4829 -5.4739
   32MOL0     H 4315  10.742   6.315   1.239 -0.6110 -1.3479  1.0697
   32MOL0     H 4316  10.882   6.282   1.644 -3.0506 -0.8230 -1.0631
   32MOL0     H 4317  10.774   5.677   1.117 -1.9264  0.3099 -0.7787
   32MOL0     H 4318  10.695   5.378   0.978 -0.6609  0.7439  0.8524
   32MOL0     H 4319  10.855   5.387   1.066  1.1097  2.4775 -0.4108
   32MOL0     H 4320  10.724   5.465   1.132  2.1618 -2.8145  1.7980
   33MOL0     O 4321   4.546   9.102   1.985 -0.3153  0.3938  0.0052
   33MOL0     C 4322   4.601   9.189   2.054  0.4253 -0.6050  1.4491
   33MOL0     O 4323   4.544   9.275   2.140  0.0115  0.8104  0.4088
   33MOL0     C 4324   4.413   9.279   2.173 -0.3874 -0.2310 -0.7100
   33MOL0     C 4325   4.344   9.160   2.197  0.4730 -0.3171  0.4163
   33MOL0     C 4326   4.205   9.171   2.221 -0.0622  0.1485  0.4487
   33MOL0     C 4327   4.130   9.288   2.223  1.0972  0.4778 -0.5000
   33MOL0     O 4328   3.997   9.299   2.245 -0.2805  0.4729 -0.1978
   33MOL0     C 4329   3.919   9.231   2.141 -0.2515  0.4545  0.2459
   33MOL0     C 4330   3.770   9.257   2.170  0.7605  0.3404  0.2954
   33MOL0     C 4331   3.666   9.176   2.096 -1.0633  0.1170  0.6880
   33MOL0     C 4332   3.715   9.048   2.014 -0.6657  0.4978 -0.2273
   33MOL0     C 4333   3.736   8.924   2.115 -0.7163 -0.2051 -0.9706
   33MOL0     C 4334   3.727   8.779   2.059  0.2047 -0.3628  0.3070
   33MOL0     C 4335   3.731   8.668   2.161  0.7357 -0.0941  0.4247
   33MOL0     C 4336   3.731   8.532   2.087  0.1343  0.4041 -0.3114
   33MOL0     N 4337   3.786   8.429   2.174 -0.6391  0.3453  0.5739
   33MOL0     C 4338   3.736   8.388   2.291 -0.4622  0.3325  0.1693
   33MOL0     C 4339   3.830   8.322   2.361  0.2280  0.3906  0.6423
   33MOL0     C 4340   3.810   8.244   2.483  0.1695 -0.3796 -0.5920
   33MOL0     C 4341   3.761   8.102   2.455 -0.5713 -0.7804 -0.5982
   33MOL0     C 4342   3.743   8.010   2.581 -0.5451  0.3481 -0.0678
   33MOL0     C 4343   3.870   8.010   2.676  0.0695  0.1822  0.7560
   33MOL0     O 4344   3.970   7.928   2.602  0.0835 -0.5372 -0.4108
   33MOL0     C 4345   4.097   7.916   2.657  0.6128 -0.1246 -0.4010
   33MOL0     C 4346   4.179   7.817   2.617  0.6541 -0.6564 -0.1879
   33MOL0     C 4347   4.301   7.800   2.662 -0.8103  0.8746 -1.0893
   33MOL0     C 4348   4.358   7.886   2.764  0.7462  1.1890  1.0098
   33MOL0     C 4349   4.484   7.863   2.833 -0.2069  0.6038 -0.4106
   33MOL0     O 4350   4.531   7.965   2.918 -0.0361 -0.4916 -0.8747
   33MOL0     C 4351   4.638   7.948   3.007  0.0551 -0.8231 -0.2289
   33MOL0     C 4352   4.712   8.068   3.046 -0.6379  0.1655 -0.1154
   33MOL0     C 4353   4.815   8.059   3.126  0.4326 -0.3254 -0.0143
   33MOL0     C 4354   4.854   7.933   3.178  0.1976  0.1714  0.3693
   33MOL0     O 4355   4.948   7.932   3.276 -0.4085  0.4437  0.0229
   33MOL0     C 4356   5.080   7.900   3.225 -0.9529 -1.0896 -0.1180
   33MOL0     C 4357   5.169   8.011   3.169  0.1742 -0.3240 -0.7602
   33MOL0     C 4358   5.293   7.965   3.107  0.5695 -0.7309  0.2720
   33MOL0     C 4359   5.391   8.074   3.116  0.1503  0.1726 -0.0650
   33MOL0     C 4360   5.513   8.052   3.022  0.0043  0.5812 -0.5280
   33MOL0     C 4361   5.586   7.913   3.036 -0.3387 -0.2407  0.1428
   33MOL0     C 4362   5.736   7.918   2.991  0.4996 -0.1431  0.3287
   33MOL0     C 4363   5.798   7.779   3.001 -0.6687 -0.0039 -0.0999
   33MOL0    Cl 4364   5.964   7.801   2.955 -0.1519  0.5299  0.0129
   33MOL0     C 4365   4.789   7.821   3.151  0.5356 -0.4239 -0.1350
   33MOL0     C 4366   4.691   7.827   3.056 -1.6640  0.7402  1.1037
   33MOL0     O 4367   4.535   7.751   2.814  0.3744  0.6945  0.3948
   33MOL0     C 4368   4.284   8.004   2.808  0.7826 -0.3338  0.8087
   33MOL0     C 4369   4.153   8.016   2.746  0.4291  0.1256  0.6413
   33MOL0     N 4370   3.946   8.332   2.284  0.6016  0.2122 -0.2036
   33MOL0     N 4371   3.921   8.402   2.185  0.4634  0.2143  1.0023
   33MOL0     C 4372   4.203   9.404   2.205 -0.4533  0.1953 -0.4812
   33MOL0     C 4373   4.343   9.403   2.182 -0.2733 -0.5166 -0.0574
   33MOL0     C 4374   4.746   9.221   2.016  0.1432 -0.2503 -0.2206
   33MOL0     C 4375   4.825   9.116   1.965  0.4264 -0.8253 -0.4464
   33MOL0     C 4376   4.956   9.140   1.937 -0.2247  0.2072 -0.5308
   33MOL0     C 4377   5.013   9.260   1.957 -0.2761  0.1224 -0.4375
   33MOL0     O 4378   5.144   9.271   1.925 -0.2347 -0.1549  0.4702
   33MOL0     C 4379   5.217   9.389   1.954  0.0586 -0.7912 -0.5332
   33MOL0     C 4380   5.270   9.391   2.095  0.9648  0.7495 -0.0634
   33MOL0     C 4381   5.351   9.522   2.124 -0.7572  0.5463 -0.1440
   33MOL0     C 4382   5.275   9.650   2.132 -0.1815  0.4436  0.4202
   33MOL0     C 4383   5.152   9.638   2.217  0.1176 -0.0698 -0.9165
   33MOL0     C 4384   5.049   9.632   2.281 -0.1524 -0.3840  0.0220
   33MOL0     C 4385   4.941   9.368   2.014  0.0910 -0.0196 -0.7448
   33MOL0     C 4386   4.811   9.350   2.048  0.8237  0.1623  0.4887
   33MOL0     C 4387   4.745   9.467   2.102 -0.3222 -0.6405  0.2047
   33MOL0     H 4388   4.391   9.063   2.186  1.4963  0.1108  0.8898
   33MOL0     H 4389   4.151   9.081   2.249  0.8457 -0.9760 -1.2402
   33MOL0     H 4390   3.953   9.261   2.041 -0.7393  2.0121  0.5090
   33MOL0     H 4391   3.944   9.125   2.144  0.5857  0.6717  1.6736
   33MOL0     H 4392   3.749   9.362   2.144 -2.5004 -0.2905 -0.0523
   33MOL0     H 4393   3.748   9.249   2.277  0.4845  1.4365  0.3366
   33MOL0     H 4394   3.626   9.249   2.025  0.5272 -0.9779 -1.4724
   33MOL0     H 4395   3.587   9.134   2.158  0.5629 -0.6524  2.3359
   33MOL0     H 4396   3.642   9.027   1.935  2.4467  1.9860 -3.7781
   33MOL0     H 4397   3.810   9.065   1.963 -1.3365 -1.8937 -2.4501
   33MOL0     H 4398   3.841   8.936   2.143 -0.4080 -4.1380  0.0077
   33MOL0     H 4399   3.670   8.946   2.199  0.2656 -0.0103 -0.2263
   33MOL0     H 4400   3.627   8.771   2.016  0.1784 -1.5738  0.5514
   33MOL0     H 4401   3.815   8.762   1.996  0.6597  0.2280  0.7697
   33MOL0     H 4402   3.640   8.671   2.221  0.9843 -2.0696  0.9664
   33MOL0     H 4403   3.821   8.677   2.223  0.0307 -0.5224  1.5291
   33MOL0     H 4404   3.630   8.508   2.052 -0.1593 -2.8417  2.2038
   33MOL0     H 4405   3.797   8.532   2.000 -0.6014 -2.0870 -0.9567
   33MOL0     H 4406   3.639   8.421   2.328 -1.2776 -0.0062 -1.5721
   33MOL0     H 4407   3.908   8.244   2.532  0.1312  1.1457 -0.4889
   33MOL0     H 4408   3.731   8.286   2.545 -2.5245 -4.9439 -0.4321
   33MOL0     H 4409   3.664   8.105   2.405 -2.3062 -2.5644  2.3839
   33MOL0     H 4410   3.838   8.060   2.389 -0.7854 -4.4759  1.2303
   33MOL0     H 4411   3.716   7.909   2.548 -1.3227 -0.0745  1.7651
   33MOL0     H 4412   3.663   8.047   2.645 -0.9147  2.2758 -1.5413
   33MOL0     H 4413   3.840   7.960   2.768 -2.7965  0.4786  0.0938
   33MOL0     H 4414   3.906   8.112   2.691  3.0015 -0.1648 -2.5906
   33MOL0     H 4415   4.131   7.747   2.549 -0.0181 -0.7814  0.4095
   33MOL0     H 4416   4.356   7.711   2.632 -1.0464  0.9694 -1.8278
   33MOL0     H 4417   4.685   8.166   3.010  0.6213  1.3633  2.0105
   33MOL0     H 4418   4.871   8.145   3.160  3.6057 -2.1284 -0.2361
   33MOL0     H 4419   5.132   7.854   3.310  0.0691 -2.2418 -1.3174
   33MOL0     H 4420   5.073   7.826   3.145  0.4628 -2.7687  1.2377
   33MOL0     H 4421   5.094   8.063   3.110 -2.3006 -0.0658  2.3209
   33MOL0     H 4422   5.191   8.078   3.253 -3.6685 -1.5266  1.5099
   33MOL0     H 4423   5.328   7.869   3.146  1.2494 -1.0082 -0.9669
   33MOL0     H 4424   5.278   7.947   3.000 -0.0298  1.0125  0.0399
   33MOL0     H 4425   5.420   8.082   3.221  0.8436 -0.6720 -0.1866
   33MOL0     H 4426   5.348   8.171   3.089 -5.1360 -1.5418  1.1072
   33MOL0     H 4427   5.589   8.130   3.037  0.9109  0.0488 -2.1313
   33MOL0     H 4428   5.475   8.059   2.920 -2.0475 -0.9358  0.0757
   33MOL0     H 4429   5.570   7.884   3.141  0.2573 -2.4574 -0.3123
   33MOL0     H 4430   5.544   7.840   2.965 -1.5353 -0.8702  1.4375
   33MOL0     H 4431   5.795   7.987   3.052  1.9088  0.5004 -1.6659
   33MOL0     H 4432   5.748   7.956   2.889 -2.4046  2.7540  0.8982
   33MOL0     H 4433   5.788   7.752   3.107 -0.8178 -0.9947 -0.3557
   33MOL0     H 4434   5.757   7.703   2.934 -1.4022 -1.6415  2.0706
   33MOL0     H 4435   4.826   7.726   3.189 -1.9063 -1.8698 -1.1575
   33MOL0     H 4436   4.634   7.740   3.024 -1.7530  1.1829  0.0029
   33MOL0     H 4437   4.319   8.071   2.886  3.8171  1.2853 -1.7283
   33MOL0     H 4438   4.090   8.099   2.776  0.1758  0.2235 -0.1582
   33MOL0     H 4439   4.152   9.500   2.209  0.5891  0.7728 -0.5648
   33MOL0     H 4440   4.403   9.493   2.169  0.9617 -1.1310  1.1503
   33MOL0     H 4441   4.772   9.021   1.963 -0.6071 -0.3253  1.1143
   33MOL0     H 4442   5.018   9.066   1.887  0.1815 -1.2404  1.9475
   33MOL0     H 4443   5.167   9.486   1.942  1.8327 -0.0107 -2.3695
   33MOL0     H 4444   5.304   9.398   1.889  0.4607  2.0877  0.2707
   33MOL0     H 4445   5.330   9.299   2.097 -2.0889 -1.3805  2.7701
   33MOL0     H 4446   5.204   9.383   2.181  1.2957  1.0748  0.2204
   33MOL0     H 4447   5.431   9.524   2.050 -0.5215 -0.5732  0.0565
   33MOL0     H 4448   5.400   9.507   2.221 -0.5378 -1.0330 -0.4651
   33MOL0     H 4449   5.348   9.726   2.161 -1.4990  1.4555  1.1749
   33MOL0     H 4450   5.247   9.673   2.029 -1.8521 -1.9013  0.2563
   33MOL0     H 4451   4.951   9.622   2.323 -0.4757 -1.8349 -0.9912
   33MOL0     H 4452   4.987   9.459   2.050 -1.0194  0.9066 -1.5891
   33MOL0     H 4453   4.645   9.481   2.058 -1.0933  2.3452  2.5121
   33MOL0     H 4454   4.734   9.445   2.209  1.8551 -2.1131  0.1706
   33MOL0     H 4455   4.801   9.561   2.091 -1.0047 -0.1921  0.4432
   34MOL0     O 4456   0.489   7.781  11.161  0.1528 -0.0931 -0.1429
   34MOL0     C 4457   0.472   7.823  11.275 -0.6611  0.1787 -0.4886
   34MOL0     O 4458   0.389   7.772  11.358 -0.2572  1.1183  0.1259
   34MOL0     C 4459   0.347   7.645  11.351 -0.5878  0.1780  0.0624
   34MOL0     C 4460   0.397   7.533  11.284  1.0523  0.1676  0.5471
   34MOL0     C 4461   0.333   7.401  11.300 -0.2410 -0.5451 -0.1106
   34MOL0     C 4462   0.220   7.389  11.382 -0.5069  0.2158 -0.1069
   34MOL0     O 4463   0.160   7.268  11.389  0.0970 -0.1411  0.0486
   34MOL0     C 4464   0.109   7.220  11.523 -0.1771 -0.5027  0.2162
   34MOL0     C 4465   0.078   7.071  11.517  1.0201 -0.6584  0.9574
   34MOL0     C 4466  -0.027   7.029  11.625 -0.4418 -0.4549  0.3767
   34MOL0     C 4467  -0.087   6.882  11.615 -0.3980 -0.6132 -0.4648
   34MOL0     C 4468  -0.215   6.884  11.704 -0.2351  0.1624 -1.1074
   34MOL0     C 4469  -0.272   6.738  11.727 -0.1691 -0.1607 -0.4331
   34MOL0     C 4470  -0.323   6.693  11.591 -0.8011  0.8348  0.7512
   34MOL0     C 4471  -0.425   6.571  11.601 -0.5221 -0.2013 -0.8860
   34MOL0     N 4472  -0.449   6.504  11.472  0.0797 -0.0569 -1.6739
   34MOL0     C 4473  -0.367   6.397  11.430 -0.4408 -0.3565 -0.5307
   34MOL0     C 4474  -0.436   6.348  11.323  0.8741 -0.4980 -0.6573
   34MOL0     C 4475  -0.398   6.219  11.254  0.1297  0.1306 -0.9219
   34MOL0     C 4476  -0.524   6.146  11.182 -0.3774  0.1035 -0.4809
   34MOL0     C 4477  -0.587   6.044  11.271  0.2155  0.4277 -0.0744
   34MOL0     C 4478  -0.687   5.965  11.187  0.4155 -0.2065 -0.3214
   34MOL0     O 4479  -0.715   5.841  11.248 -0.0179 -0.6356 -0.2013
   34MOL0     C 4480  -0.787   5.832  11.358  0.9729 -0.5460  0.3462
   34MOL0     C 4481  -0.778   5.727  11.443  0.2526 -0.7502 -0.3490
   34MOL0     C 4482  -0.860   5.715  11.566  0.6056 -0.9901  0.4495
   34MOL0     C 4483  -0.957   5.814  11.588  0.6394  0.3234 -0.6136
   34MOL0     C 4484  -1.051   5.799  11.707 -0.1293 -0.5023 -0.7724
   34MOL0     O 4485  -1.050   5.674  11.768  0.0254 -0.3481  0.0890
   34MOL0     C 4486  -1.099   5.656  11.896 -0.0479 -0.1650 -0.3432
   34MOL0     C 4487  -1.018   5.585  11.988 -0.9449  0.6304 -0.0383
   34MOL0     C 4488  -1.061   5.562  12.116 -0.2773 -0.4982  0.9431
   34MOL0     C 4489  -1.183   5.609  12.167  0.2159  0.1597 -0.0771
   34MOL0     O 4490  -1.232   5.570  12.292 -0.3005 -0.3778  0.6325
   34MOL0     C 4491  -1.303   5.659  12.370 -0.1172 -0.5695 -0.3937
   34MOL0     C 4492  -1.280   5.631  12.520 -0.6735 -0.5482 -0.1284
   34MOL0     C 4493  -1.353   5.736  12.603 -0.0519  0.5116  0.2617
   34MOL0     C 4494  -1.332   5.695  12.753  0.2160  1.2863  1.1380
   34MOL0     C 4495  -1.413   5.775  12.860 -0.4514 -0.4111  0.9071
   34MOL0     C 4496  -1.362   5.737  12.994 -0.5551  0.0042 -0.0030
   34MOL0     C 4497  -1.442   5.823  13.100  0.4135  0.4736  0.1927
   34MOL0     C 4498  -1.417   5.787  13.237  0.2681 -0.1773 -0.4942
   34MOL0    Cl 4499  -1.555   5.818  13.336 -0.4025  0.1600  0.2794
   34MOL0     C 4500  -1.262   5.676  12.081  1.0215  0.6387  0.2916
   34MOL0     C 4501  -1.224   5.699  11.948 -1.0490 -0.2318  0.2576
   34MOL0     O 4502  -1.101   5.900  11.757  0.0365  0.6978 -0.3972
   34MOL0     C 4503  -0.970   5.924  11.507  0.6423  0.4765 -0.4441
   34MOL0     C 4504  -0.876   5.928  11.405  0.0550 -0.7345  0.0743
   34MOL0     N 4505  -0.546   6.431  11.300 -0.3869 -0.3165  0.1278
   34MOL0     N 4506  -0.561   6.513  11.392  0.1900 -0.2311 -0.1744
   34MOL0     C 4507   0.183   7.501  11.459 -0.9690  0.1554  0.6722
   34MOL0     C 4508   0.238   7.626  11.434  0.2403 -0.3521  0.2619
   34MOL0     C 4509   0.570   7.916  11.327 -0.2090 -0.1270 -0.0463
   34MOL0     C 4510   0.617   7.889  11.461  0.1019  1.0959 -0.2020
   34MOL0     C 4511   0.718   7.974  11.515  0.6310  0.3781  0.1135
   34MOL0     C 4512   0.764   8.087  11.451  0.1869 -0.1307  0.2231
   34MOL0     O 4513   0.835   8.172  11.527  1.0340 -0.6096  0.1420
   34MOL0     C 4514   0.780   8.298  11.540 -0.6229  0.0856 -0.4165
   34MOL0     C 4515   0.910   8.381  11.524 -0.1636  0.0257  0.1400
   34MOL0     C 4516   0.968   8.393  11.386 -0.1463  0.1545  1.2211
   34MOL0     C 4517   1.093   8.482  11.376  0.0250 -0.8409 -0.3215
   34MOL0     C 4518   1.137   8.503  11.239 -0.2970 -0.6937  1.8083
   34MOL0     C 4519   1.196   8.503  11.129  0.0521 -0.5728 -0.6125
   34MOL0     C 4520   0.730   8.103  11.320 -0.0903  0.1447 -0.6528
   34MOL0     C 4521   0.632   8.030  11.256  0.6274  0.1716  0.2770
   34MOL0     C 4522   0.590   8.056  11.120 -0.2324 -0.1744  0.0036
   34MOL0     H 4523   0.489   7.529  11.228  1.7099 -3.8822  1.5757
   34MOL0     H 4524   0.368   7.313  11.246 -0.0151  0.1774 -1.1694
   34MOL0     H 4525   0.186   7.224  11.601 -0.5921 -3.7398  0.9423
   34MOL0     H 4526   0.020   7.281  11.542 -0.6503 -0.5824 -1.5793
   34MOL0     H 4527   0.167   7.007  11.523  1.2483 -0.2324  2.3564
   34MOL0     H 4528   0.022   7.049  11.425 -1.6148 -1.7242  2.7178
   34MOL0     H 4529  -0.107   7.103  11.629  0.4648  0.6325 -0.9774
   34MOL0     H 4530   0.018   7.035  11.725 -3.0506 -1.0002  1.6803
   34MOL0     H 4531  -0.103   6.861  11.509 -2.3472  0.2220 -0.3876
   34MOL0     H 4532  -0.015   6.806  11.648 -0.6684  0.2917  2.5502
   34MOL0     H 4533  -0.181   6.918  11.802  0.0856 -0.1898 -1.0921
   34MOL0     H 4534  -0.292   6.952  11.667 -0.2572 -0.0657 -1.4819
   34MOL0     H 4535  -0.200   6.664  11.764  0.7785  1.4056  1.0229
   34MOL0     H 4536  -0.353   6.760  11.797 -0.2568  1.4776 -1.0047
   34MOL0     H 4537  -0.231   6.660  11.542  0.3743 -0.3554  3.5044
   34MOL0     H 4538  -0.368   6.773  11.532 -0.2240  1.0878  0.6391
   34MOL0     H 4539  -0.386   6.496  11.670  0.2351  2.6888  2.0982
   34MOL0     H 4540  -0.519   6.616  11.633 -2.3245 -1.6868 -3.6680
   34MOL0     H 4541  -0.263   6.380  11.455 -0.8591 -0.8165  0.9750
   34MOL0     H 4542  -0.329   6.246  11.174 -0.9917 -0.8327 -2.2547
   34MOL0     H 4543  -0.350   6.152  11.326  1.7569  3.7858  1.6843
   34MOL0     H 4544  -0.598   6.214  11.139  0.2692  2.3739  1.7641
   34MOL0     H 4545  -0.469   6.100  11.099  3.6766  1.7893  1.0098
   34MOL0     H 4546  -0.632   6.091  11.359  2.4950 -0.4991  1.7132
   34MOL0     H 4547  -0.513   5.971  11.305 -0.4741  0.7638  2.3098
   34MOL0     H 4548  -0.640   5.929  11.095 -2.5034 -1.2766 -1.4822
   34MOL0     H 4549  -0.776   6.022  11.160 -0.5134 -2.7100 -3.1522
   34MOL0     H 4550  -0.712   5.647  11.412  4.6570  2.1425  0.7062
   34MOL0     H 4551  -0.868   5.615  11.608  0.8855 -0.9386  0.6298
   34MOL0     H 4552  -0.921   5.546  11.958 -0.4158  2.2494 -0.5214
   34MOL0     H 4553  -1.002   5.502  12.185  1.1584 -1.9882 -1.4435
   34MOL0     H 4554  -1.269   5.762  12.353 -1.1210 -0.3964 -1.5229
   34MOL0     H 4555  -1.409   5.640  12.350 -0.9595 -0.2659  3.1970
   34MOL0     H 4556  -1.314   5.529  12.540  2.9217 -1.2487  3.8922
   34MOL0     H 4557  -1.176   5.653  12.544 -1.1420  1.2397  0.3593
   34MOL0     H 4558  -1.303   5.833  12.593 -0.0226  0.4021 -0.7389
   34MOL0     H 4559  -1.459   5.757  12.585 -0.4165  0.8574  2.5171
   34MOL0     H 4560  -1.226   5.711  12.772  1.4912 -3.2849 -0.7991
   34MOL0     H 4561  -1.346   5.588  12.771  3.8014  0.6685  0.9073
   34MOL0     H 4562  -1.520   5.759  12.843 -0.0510  0.2204 -3.2996
   34MOL0     H 4563  -1.388   5.882  12.858  1.0244 -0.7376  0.4066
   34MOL0     H 4564  -1.382   5.630  12.990 -2.1405  0.3045 -2.7758
   34MOL0     H 4565  -1.254   5.754  13.001 -0.4206 -1.1387  1.0474
   34MOL0     H 4566  -1.550   5.806  13.094  0.4019  0.3303  0.7301
   34MOL0     H 4567  -1.438   5.930  13.078 -0.0897 -0.1338 -3.4756
   34MOL0     H 4568  -1.398   5.681  13.256  0.5235  0.2145  1.7492
   34MOL0     H 4569  -1.330   5.841  13.277  0.9285 -2.3362  1.1976
   34MOL0     H 4570  -1.362   5.706  12.110 -0.0793 -0.6662 -1.9304
   34MOL0     H 4571  -1.287   5.756  11.881 -0.0051  0.5481 -0.0857
   34MOL0     H 4572  -1.052   5.995  11.500  1.6200  1.7493  0.4257
   34MOL0     H 4573  -0.891   6.016  11.343 -1.4276 -2.2986 -1.9022
   34MOL0     H 4574   0.102   7.498  11.531  1.5315  0.5259  3.7267
   34MOL0     H 4575   0.203   7.695  11.510  0.1600  0.9922 -0.9605
   34MOL0     H 4576   0.574   7.798  11.503 -2.7583  1.3429 -2.2961
   34MOL0     H 4577   0.771   7.964  11.609  0.9872  3.4817  0.3540
   34MOL0     H 4578   0.740   8.319  11.639  1.0955  0.2220  0.2782
   34MOL0     H 4579   0.698   8.328  11.473 -0.0061  1.9578 -0.3745
   34MOL0     H 4580   0.978   8.348  11.603 -1.0926  3.1425  2.4292
   34MOL0     H 4581   0.880   8.477  11.566 -0.4054 -0.8619  2.0996
   34MOL0     H 4582   0.896   8.444  11.321 -0.5862  0.1685  1.7088
   34MOL0     H 4583   0.986   8.298  11.336 -1.0298  1.1937 -1.2305
   34MOL0     H 4584   1.080   8.587  11.405 -1.3583 -0.3789 -2.3755
   34MOL0     H 4585   1.168   8.435  11.440  0.0130  0.5682  0.7552
   34MOL0     H 4586   1.260   8.510  11.043 -1.1360 -3.0460 -1.7941
   34MOL0     H 4587   0.772   8.187  11.265 -0.1826 -0.8692 -2.3541
   34MOL0     H 4588   0.587   7.973  11.048  0.8911  1.1126 -1.5836
   34MOL0     H 4589   0.494   8.108  11.122 -0.4650 -0.4785  4.0879
   34MOL0     H 4590   0.655   8.128  11.071 -1.6739  0.8643 -0.4726
   35MOL0     O 4591   5.642   4.343   8.016  0.7488  0.2739 -0.2674
   35MOL0     C 4592   5.767   4.334   8.002 -1.2220 -0.6668 -0.3502
   35MOL0     O 4593   5.852   4.431   7.951  0.1186 -0.4844 -0.3579
   35MOL0     C 4594   5.817   4.572   7.943  0.4186 -0.0288  0.3488
   35MOL0     C 4595   5.934   4.656   7.941 -0.0361 -1.3872  0.4357
   35MOL0     C 4596   5.920   4.796   7.925  0.1007  0.6079 -0.1258
   35MOL0     C 4597   5.798   4.852   7.913  0.2068 -0.2563 -0.0364
   35MOL0     O 4598   5.790   4.983   7.923 -0.2377 -0.3796 -0.7871
   35MOL0     C 4599   5.679   5.051   7.855 -0.5293  0.0570  0.0494
   35MOL0     C 4600   5.741   5.132   7.742 -0.6859 -0.5010  0.4661
   35MOL0     C 4601   5.841   5.054   7.652  0.0409  0.5957 -0.7349
   35MOL0     C 4602   5.761   4.946   7.579 -0.8117  0.9642 -0.6354
   35MOL0     C 4603   5.840   4.858   7.496 -0.5202 -0.4745  1.0850
   35MOL0     C 4604   5.936   4.762   7.570  0.5155  0.0115  0.1544
   35MOL0     C 4605   6.024   4.680   7.480  0.4592 -0.1898  0.8026
   35MOL0     C 4606   6.161   4.638   7.539 -0.1672 -0.6728 -0.0716
   35MOL0     N 4607   6.252   4.755   7.572 -0.1646  0.3936 -0.7022
   35MOL0     C 4608   6.294   4.838   7.473 -0.1938  0.0840 -0.1791
   35MOL0     C 4609   6.357   4.942   7.539 -0.3693  0.0445  0.5143
   35MOL0     C 4610   6.444   5.052   7.471  0.4907  0.1527  0.2192
   35MOL0     C 4611   6.354   5.175   7.456 -0.5599  0.2274  0.6963
   35MOL0     C 4612   6.232   5.152   7.375 -0.8550  0.0504 -0.7830
   35MOL0     C 4613   6.251   5.100   7.219 -0.0811  0.1689 -0.7670
   35MOL0     O 4614   6.372   5.158   7.177 -0.1966 -0.3531  0.3011
   35MOL0     C 4615   6.450   5.096   7.088 -0.2612 -0.0555  0.1414
   35MOL0     C 4616   6.408   4.989   7.010  0.3422 -0.6535 -0.4584
   35MOL0     C 4617   6.480   4.915   6.919  0.0522 -1.0737 -0.5313
   35MOL0     C 4618   6.617   4.964   6.907  0.6586  0.0464 -0.3839
   35MOL0     C 4619   6.698   4.918   6.792  0.1959  0.3624 -0.2199
   35MOL0     O 4620   6.802   4.987   6.762 -0.7408 -0.6238 -0.6298
   35MOL0     C 4621   6.883   4.965   6.648 -0.6479 -0.6697 -0.2245
   35MOL0     C 4622   6.908   5.078   6.564  0.0920  0.1454 -0.2260
   35MOL0     C 4623   6.965   5.064   6.441 -0.1780  0.7487  0.6997
   35MOL0     C 4624   7.014   4.944   6.393 -0.8449 -0.0878 -0.3672
   35MOL0     O 4625   7.072   4.939   6.270 -0.0906 -0.1080 -0.2562
   35MOL0     C 4626   7.091   4.818   6.199 -0.5507 -0.3347 -0.7432
   35MOL0     C 4627   7.104   4.835   6.045  0.1360 -0.1479 -0.0439
   35MOL0     C 4628   7.181   4.957   5.997 -0.1360 -0.5230  0.8861
   35MOL0     C 4629   7.327   4.962   6.052  0.0864  0.0714 -0.4456
   35MOL0     C 4630   7.416   5.075   6.010  1.1325  0.3682  0.3183
   35MOL0     C 4631   7.538   5.098   6.110  1.1034  0.0829  0.5479
   35MOL0     C 4632   7.502   5.195   6.228 -0.5112  0.0973 -0.3875
   35MOL0     C 4633   7.632   5.235   6.302  0.2783 -0.4718  0.0314
   35MOL0    Cl 4634   7.728   5.105   6.367  0.1469 -0.0368 -0.0136
   35MOL0     C 4635   6.993   4.835   6.471 -0.2664  0.5567 -0.3592
   35MOL0     C 4636   6.935   4.844   6.598 -0.2492  0.7540 -0.4660
   35MOL0     O 4637   6.663   4.811   6.741 -0.2162 -0.3033  0.4356
   35MOL0     C 4638   6.663   5.074   6.980 -0.1996  0.3837  0.3704
   35MOL0     C 4639   6.582   5.137   7.070 -0.0224  0.6504  0.3053
   35MOL0     N 4640   6.332   4.936   7.683  0.1959  0.5811 -0.2001
   35MOL0     N 4641   6.272   4.816   7.695  0.1888  0.3883 -0.3674
   35MOL0     C 4642   5.678   4.770   7.926 -0.7132 -0.7121 -0.7018
   35MOL0     C 4643   5.693   4.629   7.934  0.8322 -0.2365  0.0832
   35MOL0     C 4644   5.827   4.198   8.014 -0.3089 -0.0177 -1.0110
   35MOL0     C 4645   5.927   4.159   7.925 -0.1784 -0.3801  0.0926
   35MOL0     C 4646   5.991   4.034   7.948 -0.9010  0.1884  0.2025
   35MOL0     C 4647   5.937   3.926   8.025 -0.1855 -0.7148  0.0318
   35MOL0     O 4648   5.989   3.801   8.024  1.7349 -0.4840  0.8829
   35MOL0     C 4649   6.073   3.754   7.917 -0.6495 -0.0465  0.9530
   35MOL0     C 4650   6.021   3.765   7.776 -0.0623  0.1914 -0.7242
   35MOL0     C 4651   5.987   3.631   7.728 -0.0882  0.6424 -0.2251
   35MOL0     C 4652   5.907   3.634   7.593  0.1709 -1.0701  0.7677
   35MOL0     C 4653   5.989   3.702   7.493  0.0304 -0.0255 -0.7535
   35MOL0     C 4654   6.075   3.744   7.419  0.4536  0.1097 -0.5576
   35MOL0     C 4655   5.831   3.968   8.099 -0.2173  0.2687  0.4010
   35MOL0     C 4656   5.774   4.099   8.101 -0.2753 -0.2028  0.2189
   35MOL0     C 4657   5.662   4.117   8.199  0.2551  0.7214 -0.8057
   35MOL0     H 4658   6.031   4.612   7.921  0.4683  0.3254 -1.2486
   35MOL0     H 4659   6.004   4.863   7.914  0.3573 -0.0189 -2.3752
   35MOL0     H 4660   5.597   4.987   7.822  0.5853 -1.1390 -0.5098
   35MOL0     H 4661   5.642   5.139   7.909  0.4432  0.5533 -0.0589
   35MOL0     H 4662   5.801   5.212   7.785  1.0727 -0.1484 -2.3594
   35MOL0     H 4663   5.663   5.176   7.679 -2.3878  1.4053  3.6191
   35MOL0     H 4664   5.918   5.011   7.716 -3.1969  0.1700  3.3598
   35MOL0     H 4665   5.898   5.108   7.576  0.4187  0.7022 -0.3817
   35MOL0     H 4666   5.705   4.889   7.654  3.0348 -0.3420  1.5304
   35MOL0     H 4667   5.684   4.996   7.519 -1.1799  3.6345  1.8180
   35MOL0     H 4668   5.762   4.804   7.441 -2.7295  3.8351 -0.4590
   35MOL0     H 4669   5.901   4.914   7.425 -0.9489  2.2476  2.7304
   35MOL0     H 4670   6.000   4.827   7.631 -0.5224  0.2653  1.0093
   35MOL0     H 4671   5.890   4.689   7.637 -0.4396  1.2167  0.8499
   35MOL0     H 4672   6.029   4.731   7.384 -0.8059 -0.8941  0.3363
   35MOL0     H 4673   5.976   4.590   7.441  0.4678  0.1727 -0.0775
   35MOL0     H 4674   6.131   4.577   7.624 -2.8311 -2.0263 -1.8551
   35MOL0     H 4675   6.217   4.564   7.480 -1.8476  0.3698 -3.1817
   35MOL0     H 4676   6.294   4.809   7.369 -1.1051 -4.3891  0.8452
   35MOL0     H 4677   6.528   5.072   7.538 -2.2807  2.9680  3.1967
   35MOL0     H 4678   6.479   5.028   7.370 -1.3916 -0.5400 -0.3057
   35MOL0     H 4679   6.322   5.205   7.556 -1.9758  3.1123 -0.5038
   35MOL0     H 4680   6.416   5.261   7.429  1.4189 -1.1349  0.6853
   35MOL0     H 4681   6.177   5.247   7.373  1.2229  1.3012 -0.9190
   35MOL0     H 4682   6.165   5.085   7.430  0.0768  0.7602  1.2862
   35MOL0     H 4683   6.162   5.113   7.156 -0.5843 -0.5329 -0.2229
   35MOL0     H 4684   6.264   4.991   7.221  0.7715  0.2502 -1.6075
   35MOL0     H 4685   6.308   4.949   7.020 -0.9030  2.4723  0.8780
   35MOL0     H 4686   6.439   4.832   6.863 -0.0199  0.3642 -2.7150
   35MOL0     H 4687   6.883   5.179   6.596 -1.0454  0.3200 -1.5641
   35MOL0     H 4688   6.971   5.152   6.378  0.7787 -0.3443 -0.8149
   35MOL0     H 4689   7.183   4.765   6.226  0.7739  0.9992 -2.2870
   35MOL0     H 4690   6.998   4.766   6.220 -2.4880  3.5140  1.1624
   35MOL0     H 4691   7.146   4.740   6.011 -2.7827 -1.3739 -0.5075
   35MOL0     H 4692   7.000   4.840   6.010 -1.3657 -0.9838  3.7308
   35MOL0     H 4693   7.198   4.970   5.890 -1.6272 -1.1791  0.5497
   35MOL0     H 4694   7.128   5.038   6.048 -0.6038 -1.3479  1.7323
   35MOL0     H 4695   7.375   4.866   6.028  1.0497  1.1018 -2.9695
   35MOL0     H 4696   7.309   4.979   6.158 -0.6343  1.1958 -0.7293
   35MOL0     H 4697   7.352   5.163   6.015  3.7642  2.4683 -0.9793
   35MOL0     H 4698   7.456   5.061   5.909 -1.0953  0.8843 -0.6980
   35MOL0     H 4699   7.583   5.001   6.133 -0.3846 -0.7875 -0.0792
   35MOL0     H 4700   7.617   5.141   6.048 -0.0275 -2.9167 -3.3817
   35MOL0     H 4701   7.437   5.147   6.302 -0.3239 -0.3924 -0.5363
   35MOL0     H 4702   7.468   5.286   6.177  1.5750  2.1132  1.5870
   35MOL0     H 4703   7.691   5.295   6.232  0.3939 -1.5284 -0.8042
   35MOL0     H 4704   7.607   5.310   6.376  3.0302  2.5607 -1.8286
   35MOL0     H 4705   7.020   4.738   6.429 -2.3382  0.0811 -0.6951
   35MOL0     H 4706   6.920   4.755   6.658  2.3842 -2.0307 -3.5363
   35MOL0     H 4707   6.761   5.113   6.953 -0.5518 -0.4204 -2.3625
   35MOL0     H 4708   6.618   5.217   7.134 -1.6297  0.6393  1.2885
   35MOL0     H 4709   5.574   4.799   7.921 -0.8707 -1.4112 -1.9206
   35MOL0     H 4710   5.601   4.573   7.949 -0.5552  2.0197  0.4771
   35MOL0     H 4711   5.963   4.235   7.856  1.7305 -0.4185  0.9967
   35MOL0     H 4712   6.088   4.018   7.902 -1.4308  1.0476 -1.2860
   35MOL0     H 4713   6.080   3.646   7.937 -3.9283 -0.8347 -1.3211
   35MOL0     H 4714   6.169   3.804   7.926 -0.5609 -0.4564  2.6953
   35MOL0     H 4715   6.096   3.809   7.710  0.0364  1.4859  0.2024
   35MOL0     H 4716   5.937   3.834   7.774  1.4765  2.3263  1.5888
   35MOL0     H 4717   5.922   3.582   7.802  0.2167 -0.1978 -0.5123
   35MOL0     H 4718   6.070   3.561   7.735 -0.9629 -0.4694 -0.6694
   35MOL0     H 4719   5.881   3.531   7.567 -2.0406 -0.5710  0.7871
   35MOL0     H 4720   5.818   3.697   7.609  0.6325 -1.1027  4.2079
   35MOL0     H 4721   6.157   3.784   7.362  0.2987  1.8102  0.3438
   35MOL0     H 4722   5.773   3.895   8.155 -4.1713  1.0660 -2.2198
   35MOL0     H 4723   5.636   4.027   8.255  0.0273  1.7780  0.8600
   35MOL0     H 4724   5.693   4.200   8.263  0.6661  1.6913 -2.2179
   35MOL0     H 4725   5.570   4.147   8.150 -1.4296 -2.6450 -0.0202
   36MOL0     O 4726   5.104   5.060   3.895 -0.2404 -0.4765 -0.0053
   36MOL0     C 4727   5.151   4.965   3.951 -0.1166 -0.5433  1.0108
   36MOL0     O 4728   5.137   4.832   3.910 -0.1853 -0.7639  0.3062
   36MOL0     C 4729   5.055   4.793   3.809 -0.7164 -0.8256 -1.2626
   36MOL0     C 4730   4.966   4.695   3.836  0.4377  0.5621 -0.3281
   36MOL0     C 4731   4.890   4.632   3.735  0.5066  0.2295  0.9009
   36MOL0     C 4732   4.909   4.664   3.600  0.4106  0.6674  0.4331
   36MOL0     O 4733   4.853   4.590   3.499 -1.1341 -0.8630  0.2832
   36MOL0     C 4734   4.867   4.448   3.513  0.0356  0.2738  0.3602
   36MOL0     C 4735   4.911   4.396   3.378  0.2182  0.1854  0.3717
   36MOL0     C 4736   4.811   4.423   3.267 -0.2464 -0.0691 -0.2579
   36MOL0     C 4737   4.857   4.367   3.133  0.3488  0.0581  0.9458
   36MOL0     C 4738   4.769   4.372   3.013  0.7485  0.3121 -0.3175
   36MOL0     C 4739   4.654   4.271   3.050  0.1474  0.2713 -1.0619
   36MOL0     C 4740   4.540   4.288   2.946 -0.5426 -0.2924 -0.1042
   36MOL0     C 4741   4.475   4.429   2.947  0.3272  0.8216  0.0632
   36MOL0     N 4742   4.426   4.473   3.083  0.6219  0.0595  0.2117
   36MOL0     C 4743   4.479   4.563   3.170 -0.4222 -0.1021  0.4405
   36MOL0     C 4744   4.396   4.559   3.279 -0.4360 -0.3381  0.2865
   36MOL0     C 4745   4.421   4.635   3.404  1.2123 -0.2101 -0.2662
   36MOL0     C 4746   4.542   4.729   3.405 -0.1192 -0.1507 -0.9410
   36MOL0     C 4747   4.549   4.832   3.526 -0.0714  0.6246  0.3144
   36MOL0     C 4748   4.556   4.759   3.660 -0.2304 -0.3004  1.2942
   36MOL0     O 4749   4.618   4.841   3.756 -0.7451  0.3030 -0.8644
   36MOL0     C 4750   4.647   4.792   3.889 -0.2931  0.0082  0.2170
   36MOL0     C 4751   4.599   4.666   3.935  0.9278  0.2326  0.6927
   36MOL0     C 4752   4.629   4.625   4.068 -1.1055 -0.0085  0.8574
   36MOL0     C 4753   4.700   4.715   4.158 -0.1101 -0.8752  0.0516
   36MOL0     C 4754   4.707   4.680   4.300  0.0130  0.6388  1.1176
   36MOL0     O 4755   4.632   4.571   4.348 -0.4250  0.1638  0.0942
   36MOL0     C 4756   4.622   4.532   4.483  0.4207 -0.3703  0.6133
   36MOL0     C 4757   4.641   4.623   4.593 -0.2346  0.4933 -0.0052
   36MOL0     C 4758   4.623   4.574   4.716 -0.3494  0.0314 -0.0003
   36MOL0     C 4759   4.576   4.441   4.744 -0.4497 -0.4258 -0.0044
   36MOL0     O 4760   4.569   4.391   4.862 -0.1659  0.2226 -0.3327
   36MOL0     C 4761   4.605   4.472   4.983 -0.2101  0.1569  0.4935
   36MOL0     C 4762   4.571   4.381   5.100  0.1044 -0.0010  0.0485
   36MOL0     C 4763   4.436   4.307   5.093  0.2774  0.0709  0.1273
   36MOL0     C 4764   4.378   4.291   5.234  0.0532  0.4969 -0.4864
   36MOL0     C 4765   4.232   4.248   5.235 -0.9726 -0.4363  0.6084
   36MOL0     C 4766   4.169   4.291   5.365 -1.1307  0.3486 -0.8144
   36MOL0     C 4767   4.033   4.227   5.401 -0.8764 -0.4023  0.7783
   36MOL0     C 4768   3.982   4.286   5.524  1.1922 -0.6713  0.8089
   36MOL0    Cl 4769   3.792   4.256   5.533 -0.7514  0.1502  0.1392
   36MOL0     C 4770   4.531   4.364   4.637 -0.2123 -0.2429  0.4308
   36MOL0     C 4771   4.567   4.398   4.504  0.6999 -0.2860  0.1081
   36MOL0     O 4772   4.798   4.731   4.363  0.5943 -0.2909 -0.7923
   36MOL0     C 4773   4.732   4.841   4.110  0.7004  1.2499  0.0499
   36MOL0     C 4774   4.722   4.873   3.976  0.1905  0.2422 -0.2408
   36MOL0     N 4775   4.286   4.475   3.247 -0.3321 -0.1275 -0.0474
   36MOL0     N 4776   4.312   4.419   3.135 -1.0204  0.1714  0.1180
   36MOL0     C 4777   5.000   4.763   3.577 -1.1556 -0.8128 -0.7912
   36MOL0     C 4778   5.069   4.841   3.678  0.0598  0.3425 -0.2460
   36MOL0     C 4779   5.235   4.970   4.071 -0.3857  0.6254  0.4107
   36MOL0     C 4780   5.356   5.026   4.072 -0.9561 -0.8228  0.7097
   36MOL0     C 4781   5.439   5.023   4.186 -1.5320  0.5565  0.5634
   36MOL0     C 4782   5.418   4.945   4.301 -0.6026  0.2726  0.1089
   36MOL0     O 4783   5.491   4.924   4.417  0.0927 -0.4267 -0.3243
   36MOL0     C 4784   5.618   4.988   4.446 -0.4680  0.2617  0.1086
   36MOL0     C 4785   5.632   5.034   4.589 -0.7090  0.3350 -0.0920
   36MOL0     C 4786   5.536   5.145   4.626  0.6386 -0.4786 -0.2054
   36MOL0     C 4787   5.599   5.285   4.619  0.2226  0.6244  0.1564
   36MOL0     C 4788   5.510   5.395   4.651  0.1511 -0.2499 -0.9550
   36MOL0     C 4789   5.453   5.489   4.703  0.5701  0.9047  0.2884
   36MOL0     C 4790   5.294   4.880   4.305  0.4297 -0.1407  0.1070
   36MOL0     C 4791   5.209   4.889   4.187  0.2178 -1.2659 -0.6095
   36MOL0     C 4792   5.087   4.809   4.199 -0.8637 -0.3302  0.7797
   36MOL0     H 4793   4.945   4.652   3.933 -1.4712 -0.3993 -1.1215
   36MOL0     H 4794   4.818   4.553   3.750 -0.3275  0.4643 -1.4054
   36MOL0     H 4795   4.926   4.418   3.600  2.2708  1.4068 -0.6545
   36MOL0     H 4796   4.766   4.408   3.525  0.4653 -0.6888  0.8527
   36MOL0     H 4797   4.910   4.287   3.384 -2.2948  0.2100  1.9952
   36MOL0     H 4798   5.002   4.445   3.343  1.3912 -2.1897 -0.1265
   36MOL0     H 4799   4.801   4.531   3.256  1.1752  0.0680 -0.3924
   36MOL0     H 4800   4.710   4.395   3.297  0.0804  0.3426  1.3203
   36MOL0     H 4801   4.949   4.415   3.098  0.3512  0.2567  1.2153
   36MOL0     H 4802   4.886   4.264   3.153  1.0677  0.4500  2.0567
   36MOL0     H 4803   4.741   4.478   3.006  0.1612  0.1887  0.0242
   36MOL0     H 4804   4.825   4.350   2.922  2.4750  0.6358  0.6253
   36MOL0     H 4805   4.696   4.172   3.029  0.3224  0.1556 -0.2044
   36MOL0     H 4806   4.601   4.281   3.144 -3.6796 -0.9617 -2.8708
   36MOL0     H 4807   4.468   4.206   2.941 -1.7494  0.8163 -3.0677
   36MOL0     H 4808   4.583   4.272   2.847 -0.1525 -0.6133  0.1146
   36MOL0     H 4809   4.545   4.504   2.908  1.6326 -0.4664 -0.1525
   36MOL0     H 4810   4.381   4.425   2.891  0.0881  3.7808  0.1166
   36MOL0     H 4811   4.582   4.596   3.178 -0.1034 -1.1887  0.9224
   36MOL0     H 4812   4.328   4.682   3.435 -0.3486 -2.2014 -1.6835
   36MOL0     H 4813   4.445   4.566   3.485  1.1338 -2.8083 -2.3349
   36MOL0     H 4814   4.630   4.665   3.398 -1.4376 -1.8246 -4.4011
   36MOL0     H 4815   4.544   4.789   3.314 -4.2178  1.1742 -0.3705
   36MOL0     H 4816   4.469   4.907   3.532 -2.3345 -1.5492 -0.5080
   36MOL0     H 4817   4.644   4.882   3.507 -0.8710  0.6737 -5.7281
   36MOL0     H 4818   4.615   4.669   3.640 -1.8668 -1.0798 -0.4933
   36MOL0     H 4819   4.456   4.726   3.692 -1.7708  2.9300  0.2020
   36MOL0     H 4820   4.556   4.594   3.865 -0.9065  0.3718  1.6122
   36MOL0     H 4821   4.611   4.526   4.109  2.2100 -0.7343  0.8567
   36MOL0     H 4822   4.668   4.727   4.580 -1.9048  1.1267  1.1317
   36MOL0     H 4823   4.665   4.627   4.801  3.9063 -0.8283 -1.3195
   36MOL0     H 4824   4.713   4.493   4.977 -0.9318  4.1083 -1.8739
   36MOL0     H 4825   4.555   4.569   4.988  1.5542  1.0661  1.9966
   36MOL0     H 4826   4.656   4.312   5.109  0.1990 -0.5646 -3.5514
   36MOL0     H 4827   4.592   4.430   5.196  2.3432 -1.0376  0.1660
   36MOL0     H 4828   4.365   4.367   5.035 -0.4764  0.1753  1.1316
   36MOL0     H 4829   4.436   4.205   5.055 -2.0203 -0.2116  0.7538
   36MOL0     H 4830   4.395   4.382   5.293 -0.4246  0.4119 -0.2124
   36MOL0     H 4831   4.444   4.216   5.279 -1.3091 -0.6093 -0.2904
   36MOL0     H 4832   4.228   4.139   5.229 -1.2172 -0.3780 -0.6446
   36MOL0     H 4833   4.180   4.303   5.156 -2.4855  0.5902  2.2496
   36MOL0     H 4834   4.236   4.274   5.450 -2.2945  0.7972  0.2269
   36MOL0     H 4835   4.148   4.399   5.362  1.2245  0.8479 -1.6343
   36MOL0     H 4836   4.056   4.123   5.425  1.0978  0.3670  2.5246
   36MOL0     H 4837   3.961   4.235   5.318 -0.1693 -0.5124  0.1399
   36MOL0     H 4838   4.035   4.260   5.616  2.8075 -0.1992  0.0489
   36MOL0     H 4839   4.003   4.393   5.519 -2.0848  0.0469  0.4108
   36MOL0     H 4840   4.475   4.273   4.656 -1.8127 -0.3911 -3.9146
   36MOL0     H 4841   4.544   4.343   4.413  0.5607 -0.1926  0.0858
   36MOL0     H 4842   4.770   4.920   4.174  0.6399 -0.4901  2.3498
   36MOL0     H 4843   4.772   4.961   3.936  0.0426 -0.1269 -1.2698
   36MOL0     H 4844   5.021   4.793   3.475  0.4823  0.2971 -0.1654
   36MOL0     H 4845   5.128   4.931   3.671  1.0332 -0.4370 -4.2496
   36MOL0     H 4846   5.404   5.084   3.993  0.2892 -0.3277  1.7869
   36MOL0     H 4847   5.543   5.054   4.191 -0.2774 -3.3322  2.1818
   36MOL0     H 4848   5.627   5.074   4.379 -0.7110 -0.2066 -0.5348
   36MOL0     H 4849   5.702   4.929   4.406 -0.6144  0.1167  0.0137
   36MOL0     H 4850   5.736   5.065   4.603 -0.2921 -2.1108  3.8055
   36MOL0     H 4851   5.608   4.950   4.655 -1.9072  0.3250 -0.5205
   36MOL0     H 4852   5.509   5.133   4.732 -1.4634 -0.1427 -0.6567
   36MOL0     H 4853   5.444   5.141   4.567 -0.1299  1.1312  0.7937
   36MOL0     H 4854   5.692   5.283   4.676 -0.3847 -0.9557  1.1251
   36MOL0     H 4855   5.642   5.306   4.520 -2.7731 -1.1297 -1.6333
   36MOL0     H 4856   5.406   5.575   4.745  0.1493  0.2650  1.1673
   36MOL0     H 4857   5.242   4.832   4.387 -1.8653 -2.2879 -2.4267
   36MOL0     H 4858   5.003   4.866   4.160 -1.1050 -0.3542  1.2553
   36MOL0     H 4859   5.110   4.718   4.144 -0.9217  1.1493 -1.8356
   36MOL0     H 4860   5.060   4.797   4.305  1.4323  0.0145  1.4554
   37MOL0     O 4861   5.287  10.227   4.268  0.3988  0.8191  0.4002
   37MOL0     C 4862   5.241  10.339   4.287 -0.6408 -0.5857  0.3774
   37MOL0     O 4863   5.112  10.362   4.312  0.0262 -0.0111  0.4900
   37MOL0     C 4864   5.026  10.265   4.349  0.4104  1.4717  0.1210
   37MOL0     C 4865   4.964  10.196   4.243  0.9871 -0.0158  0.9391
   37MOL0     C 4866   4.878  10.085   4.274  0.6182 -0.7143 -1.6940
   37MOL0     C 4867   4.878  10.030   4.409 -0.0417 -0.6018  0.4585
   37MOL0     O 4868   4.815   9.906   4.416  0.1429  0.0340 -0.4223
   37MOL0     C 4869   4.859   9.820   4.530  0.4196 -0.6922 -0.7970
   37MOL0     C 4870   5.005   9.772   4.508  1.1947 -0.8737  0.4193
   37MOL0     C 4871   5.049   9.653   4.586  0.6749  0.5493 -0.2483
   37MOL0     C 4872   5.156   9.579   4.505 -0.6921  0.9790 -0.1617
   37MOL0     C 4873   5.148   9.430   4.529 -0.1334  1.5446  0.2901
   37MOL0     C 4874   5.158   9.382   4.680  0.2751  0.1354 -0.5575
   37MOL0     C 4875   5.141   9.239   4.713 -0.8523 -0.2428  0.7700
   37MOL0     C 4876   5.184   9.132   4.603  0.7745  0.1304 -0.1868
   37MOL0     N 4877   5.326   9.114   4.575  0.9022 -0.4043 -0.5684
   37MOL0     C 4878   5.387   9.003   4.617 -0.1951  0.3857  0.4933
   37MOL0     C 4879   5.513   9.029   4.577 -0.3127  0.4262 -0.1700
   37MOL0     C 4880   5.635   8.949   4.625  0.0899  0.6740 -0.0048
   37MOL0     C 4881   5.608   8.796   4.601 -0.2986 -0.8666  0.1117
   37MOL0     C 4882   5.731   8.714   4.633 -0.2895 -0.0282 -0.0746
   37MOL0     C 4883   5.714   8.571   4.601 -0.0631  0.2528 -0.1744
   37MOL0     O 4884   5.763   8.548   4.468  0.4520  0.6337  0.2669
   37MOL0     C 4885   5.764   8.421   4.417 -0.9590 -0.4026 -0.3441
   37MOL0     C 4886   5.688   8.325   4.469 -0.4854  0.0942  1.0908
   37MOL0     C 4887   5.700   8.195   4.418 -0.1065 -0.0983  1.1038
   37MOL0     C 4888   5.792   8.156   4.315  0.1370 -0.0029 -0.9359
   37MOL0     C 4889   5.794   8.027   4.262 -1.1140 -0.0491  0.2385
   37MOL0     O 4890   5.881   8.009   4.164  0.0673  0.0769  0.5464
   37MOL0     C 4891   5.882   7.891   4.102  0.1607  1.1718  0.0369
   37MOL0     C 4892   5.931   7.786   4.181  0.7163 -0.2573  0.1194
   37MOL0     C 4893   5.922   7.651   4.134 -0.0318  0.2593 -0.4334
   37MOL0     C 4894   5.853   7.623   4.016  0.6473  1.1162 -1.0449
   37MOL0     O 4895   5.848   7.485   3.989  0.2776 -0.1569 -0.4646
   37MOL0     C 4896   5.845   7.460   3.852 -0.8916  0.0030 -0.4616
   37MOL0     C 4897   5.844   7.307   3.826 -0.2599 -0.2567  0.2980
   37MOL0     C 4898   5.715   7.243   3.862 -0.5126 -0.0333 -1.3461
   37MOL0     C 4899   5.680   7.203   4.005 -0.3738 -0.3307  0.4219
   37MOL0     C 4900   5.540   7.141   4.020  0.8119  0.7295  0.1808
   37MOL0     C 4901   5.536   7.085   4.150 -0.3991  1.1291  0.4666
   37MOL0     C 4902   5.403   7.007   4.166  0.3967  0.5940  0.0981
   37MOL0     C 4903   5.412   6.918   4.291 -0.8579 -0.1435 -0.0417
   37MOL0    Cl 4904   5.459   7.016   4.442 -0.0451  0.4654 -0.2354
   37MOL0     C 4905   5.801   7.729   3.936  0.1562 -0.1091  0.0824
   37MOL0     C 4906   5.822   7.861   3.976  1.0810 -0.2206 -0.1128
   37MOL0     O 4907   5.713   7.950   4.301  0.1535  0.1496  0.4279
   37MOL0     C 4908   5.875   8.264   4.270  0.0245 -0.1054 -0.1161
   37MOL0     C 4909   5.860   8.395   4.321 -0.5021 -0.1421  0.1787
   37MOL0     N 4910   5.519   9.137   4.496  0.5339  0.3486 -0.1786
   37MOL0     N 4911   5.400   9.187   4.485  0.5962 -0.9884 -0.3672
   37MOL0     C 4912   4.917  10.117   4.518 -0.3648 -0.6510  0.7396
   37MOL0     C 4913   4.987  10.234   4.481 -0.1755  0.3213  0.4779
   37MOL0     C 4914   5.322  10.460   4.276  0.3045 -0.6764  1.0608
   37MOL0     C 4915   5.295  10.565   4.369 -0.0940  0.4055 -0.9405
   37MOL0     C 4916   5.363  10.683   4.376 -0.0648  0.2642 -0.3369
   37MOL0     C 4917   5.468  10.709   4.282  0.7438 -0.3106 -0.5658
   37MOL0     O 4918   5.527  10.827   4.300 -0.5166  0.0567 -0.2664
   37MOL0     C 4919   5.512  10.907   4.183  0.4186 -1.2478  1.0953
   37MOL0     C 4920   5.645  10.938   4.113 -0.0258 -0.2952  0.4849
   37MOL0     C 4921   5.750  10.978   4.221  0.4657 -0.2046  0.6951
   37MOL0     C 4922   5.895  11.022   4.164  1.4695 -0.6087  0.7321
   37MOL0     C 4923   5.982  11.064   4.260 -1.4605 -0.1876 -0.4282
   37MOL0     C 4924   6.063  11.096   4.348  0.3639  0.1402  1.0673
   37MOL0     C 4925   5.499  10.607   4.192 -0.2441 -0.0588 -0.3162
   37MOL0     C 4926   5.430  10.488   4.182 -0.8718  0.4591 -0.4185
   37MOL0     C 4927   5.471  10.389   4.071 -0.2740  0.0835 -0.0880
   37MOL0     H 4928   4.996  10.219   4.142  2.6775 -3.1882  0.6128
   37MOL0     H 4929   4.859  10.015   4.194  2.0009 -3.7770  0.4121
   37MOL0     H 4930   4.845   9.863   4.630 -3.3126 -0.0649 -1.4532
   37MOL0     H 4931   4.792   9.734   4.528 -1.1653  0.4940 -0.4385
   37MOL0     H 4932   5.066   9.855   4.545 -0.9725 -1.3829  6.2164
   37MOL0     H 4933   5.013   9.766   4.399 -0.1479 -0.8755  0.3043
   37MOL0     H 4934   4.965   9.599   4.630 -2.4395  3.2258 -2.4784
   37MOL0     H 4935   5.083   9.689   4.684 -1.3021 -0.3584  0.8273
   37MOL0     H 4936   5.141   9.591   4.397 -0.4044  1.0373 -0.1980
   37MOL0     H 4937   5.258   9.614   4.522 -0.6236  0.4327  0.6155
   37MOL0     H 4938   5.051   9.402   4.487 -0.6855 -1.3263  3.1080
   37MOL0     H 4939   5.211   9.379   4.456 -0.0808  1.5582  0.3261
   37MOL0     H 4940   5.258   9.413   4.713  0.3310  0.7328 -1.2551
   37MOL0     H 4941   5.090   9.439   4.744  0.7223  0.7728 -0.6344
   37MOL0     H 4942   5.033   9.225   4.716 -0.9402  0.1175 -0.2951
   37MOL0     H 4943   5.188   9.216   4.809  2.6901 -1.2261 -1.0210
   37MOL0     H 4944   5.145   9.035   4.638  3.0903 -0.8451 -0.1371
   37MOL0     H 4945   5.138   9.167   4.510  2.0634  3.6646  0.3605
   37MOL0     H 4946   5.342   8.928   4.682  0.1775  2.9037  3.9529
   37MOL0     H 4947   5.728   8.974   4.572 -0.3372  1.6271 -0.3225
   37MOL0     H 4948   5.658   8.960   4.731 -0.3228  0.7624  0.0773
   37MOL0     H 4949   5.530   8.767   4.672 -0.6232  0.3251  0.2673
   37MOL0     H 4950   5.585   8.774   4.496 -0.3557  3.1606 -0.9005
   37MOL0     H 4951   5.751   8.724   4.740  2.0154  1.9635 -0.5881
   37MOL0     H 4952   5.820   8.747   4.578  1.6394 -0.0944  2.7912
   37MOL0     H 4953   5.610   8.539   4.603 -0.4081  0.8699  4.9074
   37MOL0     H 4954   5.772   8.508   4.669 -0.4920  0.0662  0.0193
   37MOL0     H 4955   5.605   8.349   4.535 -0.5735  3.6859 -0.1034
   37MOL0     H 4956   5.641   8.111   4.452  2.1412 -2.7152 -0.9581
   37MOL0     H 4957   5.973   7.813   4.278 -0.1179  1.3165  0.0811
   37MOL0     H 4958   5.955   7.571   4.200 -3.0980  1.0210  2.3053
   37MOL0     H 4959   5.772   7.518   3.794  0.6919  3.1520  0.4841
   37MOL0     H 4960   5.945   7.492   3.823  0.3079 -2.2776  0.8614
   37MOL0     H 4961   5.862   7.285   3.721  1.3806 -3.0941  1.0720
   37MOL0     H 4962   5.916   7.251   3.886 -3.0134 -1.9753  2.2542
   37MOL0     H 4963   5.639   7.318   3.836  1.0040  1.6171 -1.2458
   37MOL0     H 4964   5.702   7.155   3.799 -1.6308  0.1508 -1.4080
   37MOL0     H 4965   5.697   7.286   4.074  0.1307 -0.6491  0.6863
   37MOL0     H 4966   5.755   7.126   4.030 -0.4284 -0.0065  1.6747
   37MOL0     H 4967   5.521   7.073   3.936  1.0666  0.3812  0.4038
   37MOL0     H 4968   5.460   7.216   4.020 -0.2624 -0.3736 -0.5151
   37MOL0     H 4969   5.619   7.016   4.168 -1.6392  0.3220  3.7073
   37MOL0     H 4970   5.556   7.156   4.231  3.1349  2.6317 -1.5144
   37MOL0     H 4971   5.385   6.941   4.080  1.2958 -1.8440  1.6728
   37MOL0     H 4972   5.322   7.075   4.192 -0.2124 -0.1811  0.2835
   37MOL0     H 4973   5.316   6.867   4.299 -1.3423  1.0954  4.3506
   37MOL0     H 4974   5.488   6.841   4.273  0.1649  0.8645 -0.1147
   37MOL0     H 4975   5.758   7.716   3.837  2.8354 -0.3785 -1.1364
   37MOL0     H 4976   5.781   7.940   3.914  1.3016 -1.9111 -2.6011
   37MOL0     H 4977   5.953   8.270   4.195  0.4764  4.8710  0.4126
   37MOL0     H 4978   5.916   8.479   4.282 -1.1554 -0.1628 -0.8562
   37MOL0     H 4979   4.905  10.093   4.623 -0.1900  1.7819  1.3925
   37MOL0     H 4980   5.038  10.283   4.563  0.8523 -0.1474  0.1357
   37MOL0     H 4981   5.230  10.544   4.454 -1.6379  1.2990 -1.8441
   37MOL0     H 4982   5.355  10.753   4.459 -1.5092 -1.9517  1.5020
   37MOL0     H 4983   5.470  11.006   4.203 -0.7500 -1.6728  0.8132
   37MOL0     H 4984   5.445  10.859   4.111 -0.7469 -2.0971  2.6865
   37MOL0     H 4985   5.625  11.017   4.039  2.4165 -0.0494  0.0225
   37MOL0     H 4986   5.677  10.847   4.062 -0.0521 -0.8284  1.4061
   37MOL0     H 4987   5.771  10.887   4.278  0.0367 -1.4673 -1.0820
   37MOL0     H 4988   5.702  11.051   4.286 -1.1415 -1.2199  0.6812
   37MOL0     H 4989   5.944  10.935   4.119  0.3551 -0.9051  0.0628
   37MOL0     H 4990   5.891  11.098   4.087  0.6732 -2.3074 -0.9790
   37MOL0     H 4991   6.122  11.122   4.433 -3.3783  1.0548  3.6583
   37MOL0     H 4992   5.596  10.614   4.143  1.1858 -4.0139  1.4650
   37MOL0     H 4993   5.388  10.321   4.054  0.4829 -0.7339 -0.5749
   37MOL0     H 4994   5.493  10.446   3.981  2.1096  0.7159  0.8003
   37MOL0     H 4995   5.555  10.326   4.102  0.1252  1.6304  2.2632
   38MOL0     O 4996   5.683   5.772   4.396  0.8184 -0.6879 -0.1343
   38MOL0     C 4997   5.631   5.685   4.334  0.2582  0.2662  1.3856
   38MOL0     O 4998   5.501   5.680   4.291 -0.3716  0.6527 -0.5015
   38MOL0     C 4999   5.408   5.777   4.313 -0.7409  0.4938  0.7069
   38MOL0     C 5000   5.281   5.725   4.314  1.1395 -0.8041 -1.1087
   38MOL0     C 5001   5.174   5.808   4.339  0.0840  0.0298  0.1355
   38MOL0     C 5002   5.193   5.952   4.358  0.4508 -0.3342  0.5491
   38MOL0     O 5003   5.092   6.042   4.391 -0.6246 -0.3255 -0.5409
   38MOL0     C 5004   4.965   5.997   4.429 -0.3767  0.7302 -0.1334
   38MOL0     C 5005   4.871   6.093   4.503 -1.1443 -0.0089  1.0618
   38MOL0     C 5006   4.844   6.220   4.423  0.6929  0.4517 -0.9371
   38MOL0     C 5007   4.761   6.297   4.522 -0.1355  0.7174 -0.4179
   38MOL0     C 5008   4.768   6.443   4.476  0.7513  0.4706  0.0237
   38MOL0     C 5009   4.675   6.468   4.356 -0.7913 -0.0136 -0.0060
   38MOL0     C 5010   4.695   6.598   4.281  0.4894 -0.9540  1.0275
   38MOL0     C 5011   4.611   6.592   4.158 -0.0454 -0.2446  0.3800
   38MOL0     N 5012   4.556   6.722   4.104  0.1279  0.4534  0.1890
   38MOL0     C 5013   4.621   6.844   4.099 -0.1045  0.2373  0.5450
   38MOL0     C 5014   4.539   6.918   4.022 -0.0887 -0.3719 -0.0009
   38MOL0     C 5015   4.560   7.047   3.974  0.2064  0.3068  0.2577
   38MOL0     C 5016   4.593   7.034   3.825  0.3879 -0.2350  0.0961
   38MOL0     C 5017   4.660   7.152   3.768  1.1289 -0.0050  0.1235
   38MOL0     C 5018   4.682   7.154   3.624 -0.8721  0.2645 -0.2431
   38MOL0     O 5019   4.731   7.289   3.593 -0.5479  0.5449 -0.0303
   38MOL0     C 5020   4.776   7.312   3.465  1.1543  0.5063  0.4135
   38MOL0     C 5021   4.854   7.427   3.445 -0.3834 -0.1296 -0.1450
   38MOL0     C 5022   4.893   7.455   3.319 -0.0604 -2.0437  0.3520
   38MOL0     C 5023   4.883   7.371   3.207 -0.3889  1.0253  0.6140
   38MOL0     C 5024   4.947   7.399   3.073  0.0231 -0.0059  0.2418
   38MOL0     O 5025   4.927   7.298   2.987 -0.3177 -0.1004 -0.6664
   38MOL0     C 5026   4.957   7.329   2.856  0.3159 -1.0597  0.4070
   38MOL0     C 5027   5.090   7.354   2.810 -1.1716  0.3151  0.4462
   38MOL0     C 5028   5.109   7.377   2.666 -0.3167 -0.3362  0.1790
   38MOL0     C 5029   5.002   7.396   2.590  0.5309 -0.1037 -0.9082
   38MOL0     O 5030   5.034   7.426   2.458 -0.3707  0.2275 -0.2166
   38MOL0     C 5031   4.937   7.379   2.360  0.0354  0.8026 -0.1697
   38MOL0     C 5032   4.993   7.376   2.218 -0.1050 -0.5045  0.1834
   38MOL0     C 5033   4.885   7.346   2.117 -0.7452  0.7440 -0.3338
   38MOL0     C 5034   4.946   7.338   1.976 -0.8678  0.2918 -0.0519
   38MOL0     C 5035   5.024   7.208   1.953  0.6643 -0.7658  0.4724
   38MOL0     C 5036   5.037   7.173   1.803  1.1155 -0.7598 -0.4385
   38MOL0     C 5037   5.084   7.038   1.777 -0.5009  0.4307 -0.9129
   38MOL0     C 5038   5.130   7.028   1.634  0.3140 -0.5426 -0.7567
   38MOL0    Cl 5039   5.189   6.872   1.598 -0.6081 -0.1429 -0.6780
   38MOL0     C 5040   4.870   7.376   2.640  0.3191 -1.1501 -0.4754
   38MOL0     C 5041   4.848   7.357   2.779 -0.3836 -0.9390  0.1352
   38MOL0     O 5042   5.013   7.500   3.055 -1.1124  0.0256 -0.2026
   38MOL0     C 5043   4.820   7.245   3.234 -0.3976  1.0813 -0.1119
   38MOL0     C 5044   4.768   7.227   3.360 -0.3561 -0.4930 -0.3338
   38MOL0     N 5045   4.436   6.842   3.967  0.4824 -0.4111  0.1306
   38MOL0     N 5046   4.437   6.730   4.039  0.0559  0.1216 -0.2567
   38MOL0     C 5047   5.323   5.993   4.345  0.6803 -0.0295  0.5753
   38MOL0     C 5048   5.428   5.912   4.324 -0.7972  0.2676  0.3434
   38MOL0     C 5049   5.715   5.563   4.301  0.5381  0.3513  0.4111
   38MOL0     C 5050   5.849   5.571   4.358  0.4130 -0.5447 -0.9971
   38MOL0     C 5051   5.931   5.461   4.345  0.1216 -0.8209 -0.6098
   38MOL0     C 5052   5.893   5.343   4.281 -0.3974  0.2681  1.1929
   38MOL0     O 5053   5.974   5.231   4.269  0.2207  0.4314  0.1850
   38MOL0     C 5054   6.099   5.206   4.347  0.3435 -0.2119 -0.6762
   38MOL0     C 5055   6.154   5.065   4.324 -0.1841  0.1566  0.1890
   38MOL0     C 5056   6.066   4.943   4.352  0.0163 -0.5014 -0.3827
   38MOL0     C 5057   6.035   4.903   4.499 -0.4720  0.5420  0.4473
   38MOL0     C 5058   5.935   4.802   4.506  0.9963 -0.3076  1.2451
   38MOL0     C 5059   5.849   4.715   4.519 -0.2959 -0.2970  0.3342
   38MOL0     C 5060   5.760   5.341   4.227 -0.3475  1.2491  0.2578
   38MOL0     C 5061   5.669   5.444   4.244  0.4672 -0.4469 -0.1490
   38MOL0     C 5062   5.526   5.424   4.190  0.0715  0.0569  0.5357
   38MOL0     H 5063   5.264   5.621   4.288 -1.5579 -0.1480 -2.2400
   38MOL0     H 5064   5.077   5.760   4.342  0.3153 -0.5480 -1.0007
   38MOL0     H 5065   4.909   5.976   4.338  0.5276  1.2587 -0.8316
   38MOL0     H 5066   4.982   5.904   4.485  0.0918  1.1625  0.4481
   38MOL0     H 5067   4.917   6.099   4.602  0.1513  1.8136  0.4011
   38MOL0     H 5068   4.777   6.038   4.496 -1.5124  0.7578 -0.4688
   38MOL0     H 5069   4.786   6.204   4.332  0.0580 -0.5778 -0.3699
   38MOL0     H 5070   4.941   6.264   4.398  0.9938 -0.5391 -1.5602
   38MOL0     H 5071   4.660   6.256   4.533  0.8384 -2.5035 -2.1155
   38MOL0     H 5072   4.791   6.304   4.627 -1.3460 -3.0752  0.3336
   38MOL0     H 5073   4.719   6.488   4.562  0.4346 -2.2306  1.3496
   38MOL0     H 5074   4.872   6.471   4.456  1.9334 -3.9553 -1.1284
   38MOL0     H 5075   4.687   6.382   4.288  0.7214  0.1395  0.0423
   38MOL0     H 5076   4.572   6.469   4.392 -1.5129  1.2133 -1.9887
   38MOL0     H 5077   4.799   6.607   4.247  0.2583 -1.7459  0.0706
   38MOL0     H 5078   4.672   6.683   4.345  0.9865  1.1422 -1.4293
   38MOL0     H 5079   4.680   6.561   4.080  1.8378  1.1037  1.4130
   38MOL0     H 5080   4.534   6.516   4.175 -0.1605 -1.3742 -4.0772
   38MOL0     H 5081   4.715   6.866   4.148 -0.3671  2.3786  0.1903
   38MOL0     H 5082   4.486   7.118   4.011  1.1438  1.5276 -0.1509
   38MOL0     H 5083   4.641   7.106   4.018  1.7210 -0.1109 -1.8159
   38MOL0     H 5084   4.664   6.953   3.806  0.5374 -0.5804  1.9241
   38MOL0     H 5085   4.510   6.988   3.771  0.1871  0.8716 -0.5679
   38MOL0     H 5086   4.754   7.176   3.820  0.5321  1.5912  0.5244
   38MOL0     H 5087   4.606   7.246   3.782  0.8614  0.2052 -2.0192
   38MOL0     H 5088   4.593   7.132   3.564 -3.2460  3.1379  1.9242
   38MOL0     H 5089   4.764   7.082   3.610  1.0597  1.8315  2.0896
   38MOL0     H 5090   4.889   7.506   3.511 -1.4521  0.1099  0.1528
   38MOL0     H 5091   4.938   7.552   3.304 -0.0224 -1.8418  1.7243
   38MOL0     H 5092   5.185   7.335   2.858 -1.7936 -2.5718  0.7238
   38MOL0     H 5093   5.203   7.379   2.611  0.5977 -1.1920  1.6371
   38MOL0     H 5094   4.919   7.271   2.372  1.1465  0.7391  1.2112
   38MOL0     H 5095   4.848   7.439   2.379  0.1494 -0.0290  4.1178
   38MOL0     H 5096   5.024   7.478   2.194 -2.6293  0.0618 -0.8928
   38MOL0     H 5097   5.083   7.313   2.211  2.0842  2.4760 -0.2787
   38MOL0     H 5098   4.843   7.250   2.150 -1.5110  2.2065  3.4719
   38MOL0     H 5099   4.803   7.419   2.112  0.0562  1.8569  1.7846
   38MOL0     H 5100   5.009   7.426   1.960  0.3177 -0.7419 -1.2830
   38MOL0     H 5101   4.859   7.341   1.911 -0.5129 -2.3909 -0.7827
   38MOL0     H 5102   4.976   7.120   1.997  3.4596 -2.7288 -0.1422
   38MOL0     H 5103   5.128   7.204   1.985  0.8504 -2.3423 -0.2486
   38MOL0     H 5104   4.937   7.169   1.758  0.1115 -4.7051  1.6203
   38MOL0     H 5105   5.099   7.239   1.743 -1.7418  2.3435 -0.2883
   38MOL0     H 5106   4.998   6.976   1.804 -0.4887 -0.5002 -2.8513
   38MOL0     H 5107   5.174   7.025   1.838 -1.0611  1.1415  0.0987
   38MOL0     H 5108   5.055   7.050   1.557 -0.3206 -0.6455 -0.1810
   38MOL0     H 5109   5.207   7.103   1.612 -0.5456  0.1186 -1.5900
   38MOL0     H 5110   4.782   7.396   2.579  0.1624 -0.7075 -0.1129
   38MOL0     H 5111   4.747   7.346   2.819 -0.7433  3.8693  1.1223
   38MOL0     H 5112   4.797   7.175   3.154 -1.9462  2.4721 -0.9459
   38MOL0     H 5113   4.720   7.131   3.376  1.3294 -1.2664  0.3653
   38MOL0     H 5114   5.354   6.098   4.341  0.2535  0.0793  0.0743
   38MOL0     H 5115   5.528   5.952   4.311 -0.3415  0.6446  3.9925
   38MOL0     H 5116   5.877   5.657   4.417  2.1631 -0.7749 -1.4358
   38MOL0     H 5117   6.025   5.476   4.396 -1.5444  0.9166  2.1674
   38MOL0     H 5118   6.082   5.224   4.454 -0.3154 -1.0959 -0.6173
   38MOL0     H 5119   6.162   5.289   4.314 -1.3919  2.0945  1.3814
   38MOL0     H 5120   6.244   5.047   4.383 -0.2492 -1.1097 -0.0770
   38MOL0     H 5121   6.170   5.066   4.216 -2.2792 -0.0480 -0.1682
   38MOL0     H 5122   6.116   4.858   4.304 -0.6228  0.4360 -2.9000
   38MOL0     H 5123   5.973   4.953   4.295  1.4973 -0.8362 -3.0271
   38MOL0     H 5124   6.125   4.878   4.557  0.3498  1.4140 -0.4232
   38MOL0     H 5125   5.993   4.985   4.558 -2.8124  0.8891 -1.5729
   38MOL0     H 5126   5.781   4.633   4.530 -2.8029  1.7465  1.1688
   38MOL0     H 5127   5.735   5.252   4.171 -0.0552  2.0363 -1.1896
   38MOL0     H 5128   5.457   5.395   4.271 -1.9552 -1.8434 -1.7001
   38MOL0     H 5129   5.488   5.510   4.134  0.6232  2.4870  3.6303
   38MOL0     H 5130   5.537   5.340   4.121 -0.0688 -0.1319  0.7421
   39MOL0     O 5131   6.781   0.075   4.022 -0.2976 -0.5108  0.5479
   39MOL0     C 5132   6.678   0.139   4.030  1.3637  1.5682  0.0998
   39MOL0     O 5133   6.558   0.116   3.960 -0.0384 -0.4750 -0.0282
   39MOL0     C 5134   6.547   0.075   3.826 -0.0467  0.2396  0.6274
   39MOL0     C 5135   6.632  -0.022   3.775  0.9457 -0.4194  0.7292
   39MOL0     C 5136   6.614  -0.075   3.649  0.6335 -0.2791  0.5921
   39MOL0     C 5137   6.515  -0.022   3.568 -0.1081 -0.3041 -0.4566
   39MOL0     O 5138   6.506  -0.041   3.435 -0.2283  0.2338 -0.2881
   39MOL0     C 5139   6.600   0.034   3.357  0.5768  0.4653  0.4188
   39MOL0     C 5140   6.656  -0.073   3.262  0.5670 -0.4807  0.6832
   39MOL0     C 5141   6.746  -0.169   3.338 -0.2931 -0.0403  0.2259
   39MOL0     C 5142   6.834  -0.231   3.233  0.7927  0.3248  0.3625
   39MOL0     C 5143   6.907  -0.344   3.315  0.2770 -0.3378  0.3215
   39MOL0     C 5144   7.018  -0.409   3.230  0.2343  0.1417  0.6926
   39MOL0     C 5145   7.095  -0.513   3.320  0.1477  0.2281 -0.5622
   39MOL0     C 5146   7.237  -0.540   3.251  0.2864 -1.0363 -1.2290
   39MOL0     N 5147   7.225  -0.614   3.128 -0.4325 -0.9691  0.2238
   39MOL0     C 5148   7.149  -0.726   3.107  0.3237 -0.6321  0.0096
   39MOL0     C 5149   7.201  -0.774   2.989  0.5264  0.4025 -1.1075
   39MOL0     C 5150   7.183  -0.918   2.938  0.1937 -0.1905 -0.3663
   39MOL0     C 5151   7.035  -0.955   2.899 -0.1975  0.1619  0.4035
   39MOL0     C 5152   6.964  -0.840   2.825 -0.3520 -0.2154  0.6972
   39MOL0     C 5153   7.057  -0.785   2.713 -0.1015 -0.3388 -0.4159
   39MOL0     O 5154   6.968  -0.714   2.618 -0.0748 -0.1245  0.3966
   39MOL0     C 5155   6.938  -0.777   2.497 -0.0008 -0.4397  0.0042
   39MOL0     C 5156   6.966  -0.916   2.464  0.4843  0.2130  0.4533
   39MOL0     C 5157   6.945  -0.971   2.340 -0.7834 -0.3093 -0.4159
   39MOL0     C 5158   6.872  -0.892   2.248  0.3296 -0.4565 -0.2314
   39MOL0     C 5159   6.836  -0.958   2.108  0.5459 -0.3262 -0.6473
   39MOL0     O 5160   6.904  -1.065   2.067  0.2768 -0.3593  1.0174
   39MOL0     C 5161   6.836  -1.134   1.966  0.4359  0.2763  0.3718
   39MOL0     C 5162   6.915  -1.160   1.856  0.4745 -0.7720 -0.1145
   39MOL0     C 5163   6.865  -1.235   1.743 -0.3063 -0.0934  0.3158
   39MOL0     C 5164   6.738  -1.287   1.741 -0.6145  0.0270 -0.6309
   39MOL0     O 5165   6.693  -1.352   1.624  0.2096  0.0217 -0.4793
   39MOL0     C 5166   6.607  -1.469   1.659 -0.0321 -0.1988 -0.5331
   39MOL0     C 5167   6.663  -1.593   1.592  0.1856 -0.2063  0.2143
   39MOL0     C 5168   6.797  -1.642   1.640 -0.4903 -0.7234 -0.1941
   39MOL0     C 5169   6.855  -1.747   1.543 -0.2333  0.2107 -0.5277
   39MOL0     C 5170   6.973  -1.823   1.602  0.9862 -0.1823  0.6157
   39MOL0     C 5171   7.037  -1.919   1.500  0.3039  0.2631 -1.2783
   39MOL0     C 5172   6.941  -2.019   1.436 -0.6375  0.4437  0.7763
   39MOL0     C 5173   7.025  -2.116   1.347  0.5583  0.1997 -0.6241
   39MOL0    Cl 5174   7.132  -2.030   1.232 -0.0749 -0.1856 -0.1678
   39MOL0     C 5175   6.659  -1.263   1.852 -1.0631  0.0460  0.2414
   39MOL0     C 5176   6.711  -1.182   1.962 -0.6662 -0.2058 -0.1725
   39MOL0     O 5177   6.733  -0.903   2.060 -0.1816 -0.2499  0.2727
   39MOL0     C 5178   6.842  -0.764   2.274 -0.1919 -1.0553 -0.0756
   39MOL0     C 5179   6.878  -0.703   2.392  0.5370  0.1400  0.0914
   39MOL0     N 5180   7.310  -0.701   2.952  0.6031  0.1996  0.5876
   39MOL0     N 5181   7.326  -0.605   3.033  0.1986 -0.3033  0.0688
   39MOL0     C 5182   6.430   0.071   3.614 -0.0454 -0.7021 -0.0109
   39MOL0     C 5183   6.436   0.111   3.751  0.5469  0.6921 -0.5489
   39MOL0     C 5184   6.682   0.247   4.136  0.3270 -0.1421  0.2403
   39MOL0     C 5185   6.563   0.299   4.197 -0.0397 -0.0807  0.5068
   39MOL0     C 5186   6.562   0.417   4.269  0.2489  0.0102 -0.0634
   39MOL0     C 5187   6.678   0.487   4.288 -0.6858  0.0076  0.4106
   39MOL0     O 5188   6.664   0.611   4.330  0.8429  0.5317  0.1190
   39MOL0     C 5189   6.679   0.613   4.467 -0.1349 -0.5942 -0.9542
   39MOL0     C 5190   6.816   0.660   4.504 -0.1500 -0.5149  0.4905
   39MOL0     C 5191   6.829   0.812   4.486 -0.1051 -0.8671  0.7302
   39MOL0     C 5192   6.976   0.852   4.500 -0.4837 -0.2360  0.3167
   39MOL0     C 5193   7.072   0.770   4.411 -0.3209 -0.5984  0.0546
   39MOL0     C 5194   7.141   0.705   4.335  0.4738 -0.0176  0.8858
   39MOL0     C 5195   6.794   0.448   4.229 -0.1765  0.3162 -0.0125
   39MOL0     C 5196   6.803   0.329   4.152  0.1043  0.3138 -0.0852
   39MOL0     C 5197   6.932   0.306   4.072  0.7537  0.2788 -0.7443
   39MOL0     H 5198   6.720  -0.060   3.827 -0.8087 -1.5257  3.0340
   39MOL0     H 5199   6.681  -0.152   3.612  0.9532  1.3195 -2.4630
   39MOL0     H 5200   6.547   0.110   3.300 -0.8254 -0.8140 -0.0461
   39MOL0     H 5201   6.675   0.077   3.423 -1.2974  0.1666  2.9084
   39MOL0     H 5202   6.712  -0.013   3.189 -2.2610  0.0843 -1.1792
   39MOL0     H 5203   6.576  -0.114   3.199  1.2195  3.9403 -3.6575
   39MOL0     H 5204   6.670  -0.239   3.375 -0.0806  0.1783  1.0968
   39MOL0     H 5205   6.800  -0.124   3.422 -0.0111 -0.7472  0.4284
   39MOL0     H 5206   6.772  -0.275   3.154  1.2453 -1.0526  0.7453
   39MOL0     H 5207   6.906  -0.153   3.205  2.0894 -0.7855  0.4768
   39MOL0     H 5208   6.944  -0.302   3.409 -1.3067 -2.0891  1.7937
   39MOL0     H 5209   6.843  -0.424   3.352  1.3275 -2.8062 -2.7490
   39MOL0     H 5210   6.974  -0.446   3.137  1.0212  3.0833 -1.0039
   39MOL0     H 5211   7.083  -0.329   3.193 -0.5448  0.5860  0.2569
   39MOL0     H 5212   7.036  -0.605   3.323 -1.9189  1.3900 -2.2737
   39MOL0     H 5213   7.089  -0.464   3.418 -0.2790  1.0252 -0.9707
   39MOL0     H 5214   7.279  -0.441   3.230 -1.0951 -0.2887 -0.6519
   39MOL0     H 5215   7.303  -0.596   3.317  0.3501 -0.8888 -1.1665
   39MOL0     H 5216   7.063  -0.765   3.160 -1.0335  2.0236 -0.0432
   39MOL0     H 5217   7.255  -0.925   2.856  1.6039  0.1803  0.7918
   39MOL0     H 5218   7.222  -0.973   3.025 -2.3470 -1.5927 -0.0280
   39MOL0     H 5219   7.055  -1.049   2.847  3.5664  0.3593  1.2606
   39MOL0     H 5220   6.965  -0.983   2.979 -2.4855  1.9645 -0.8599
   39MOL0     H 5221   6.940  -0.757   2.892  1.0836  0.8921 -0.1067
   39MOL0     H 5222   6.872  -0.883   2.783  0.7128  1.4224 -3.9645
   39MOL0     H 5223   7.109  -0.874   2.676  0.9946  0.9832 -2.2661
   39MOL0     H 5224   7.131  -0.722   2.765 -0.6272 -1.3281  1.6394
   39MOL0     H 5225   7.017  -0.984   2.532  3.2501  0.3005 -1.3643
   39MOL0     H 5226   6.973  -1.075   2.326  6.7006  1.0995 -0.0051
   39MOL0     H 5227   7.016  -1.119   1.855 -0.2335  1.0885  0.3292
   39MOL0     H 5228   6.924  -1.252   1.654  0.2020 -1.3128  0.8685
   39MOL0     H 5229   6.608  -1.490   1.766 -2.7511  3.8463  0.5230
   39MOL0     H 5230   6.503  -1.458   1.625 -0.1160  2.1322  0.2691
   39MOL0     H 5231   6.594  -1.676   1.610  4.3250 -4.2637 -0.7160
   39MOL0     H 5232   6.666  -1.573   1.484  1.9432  0.8623  0.4182
   39MOL0     H 5233   6.855  -1.551   1.624 -0.8092 -0.2440  1.2562
   39MOL0     H 5234   6.791  -1.667   1.746 -2.4362  1.1036  0.1974
   39MOL0     H 5235   6.891  -1.716   1.444 -1.0552 -0.7968 -1.1813
   39MOL0     H 5236   6.772  -1.817   1.529 -0.4627  0.6695 -1.5590
   39MOL0     H 5237   6.937  -1.873   1.692  0.3798 -1.9763 -0.5829
   39MOL0     H 5238   7.042  -1.741   1.625 -0.7057  1.3922  0.3594
   39MOL0     H 5239   7.083  -1.850   1.429  0.2018  0.4215 -1.1913
   39MOL0     H 5240   7.123  -1.967   1.547 -0.3858  2.0128  2.1155
   39MOL0     H 5241   6.869  -1.973   1.368  0.1129 -1.6841 -1.6210
   39MOL0     H 5242   6.889  -2.082   1.510 -2.1437  0.4290 -0.2583
   39MOL0     H 5243   7.086  -2.185   1.407  1.7395  0.3755 -1.5704
   39MOL0     H 5244   6.952  -2.175   1.292  0.8839 -0.6573 -0.1762
   39MOL0     H 5245   6.556  -1.297   1.855 -0.3859 -2.1818  3.3906
   39MOL0     H 5246   6.661  -1.165   2.056  2.1421  1.4305  1.1538
   39MOL0     H 5247   6.795  -0.698   2.201 -1.1914 -0.3539  1.1639
   39MOL0     H 5248   6.861  -0.598   2.409 -0.3915 -0.0688  0.5089
   39MOL0     H 5249   6.358   0.111   3.542  1.2685  1.0673 -0.4268
   39MOL0     H 5250   6.367   0.180   3.798 -0.3577 -1.1398  0.9919
   39MOL0     H 5251   6.476   0.233   4.196  0.4089 -0.6866  0.8078
   39MOL0     H 5252   6.476   0.457   4.322 -0.6263 -0.4452 -1.1177
   39MOL0     H 5253   6.670   0.521   4.526 -0.9487  1.3938  2.2715
   39MOL0     H 5254   6.610   0.687   4.508  2.7365  1.3516  0.6976
   39MOL0     H 5255   6.882   0.603   4.438 -0.7098 -1.5543  0.8044
   39MOL0     H 5256   6.836   0.634   4.608  1.1406  1.2902  0.7530
   39MOL0     H 5257   6.770   0.872   4.557 -1.9577 -0.0324 -1.3882
   39MOL0     H 5258   6.792   0.842   4.388 -4.2035 -2.0648  1.6973
   39MOL0     H 5259   6.996   0.958   4.483  0.6796 -0.8260 -2.5547
   39MOL0     H 5260   7.008   0.816   4.598 -1.8794 -0.6049  0.6595
   39MOL0     H 5261   7.194   0.633   4.276 -0.2988  0.3474 -0.2796
   39MOL0     H 5262   6.868   0.528   4.222 -0.4012  0.6309  1.0042
   39MOL0     H 5263   6.970   0.206   4.095  0.2256  0.2067 -0.1529
   39MOL0     H 5264   6.920   0.309   3.963 -0.8372  3.4970 -0.5883
   39MOL0     H 5265   7.005   0.381   4.102  1.8186 -0.7415 -0.7209
   40MOL0     O 5266   8.697   4.921   9.200  0.8507 -0.7468  0.5167
   40MOL0     C 5267   8.703   4.830   9.118  1.0106  0.3875  0.1453
   40MOL0     O 5268   8.599   4.737   9.095 -0.1392 -0.1115 -0.0641
   40MOL0     C 5269   8.479   4.797   9.118  0.3747 -0.1002  1.1885
   40MOL0     C 5270   8.431   4.804   9.246 -0.0608  0.0181 -0.1055
   40MOL0     C 5271   8.308   4.852   9.280 -0.3553 -0.2494 -0.2193
   40MOL0     C 5272   8.226   4.919   9.181 -0.1431 -0.2367 -0.5685
   40MOL0     O 5273   8.106   4.987   9.197 -0.4198  0.9113  0.0317
   40MOL0     C 5274   8.066   5.007   9.326 -0.7337 -0.0292  0.0364
   40MOL0     C 5275   7.948   5.103   9.332  0.2209 -0.1848 -0.2011
   40MOL0     C 5276   7.878   5.116   9.476  0.5361  0.8996  0.0409
   40MOL0     C 5277   7.990   5.166   9.591  0.0606  0.1206 -0.2473
   40MOL0     C 5278   7.936   5.152   9.734  0.1516  0.8138 -1.0751
   40MOL0     C 5279   7.852   5.282   9.782  0.0404 -0.5956 -0.3189
   40MOL0     C 5280   7.732   5.326   9.695 -0.5449  0.2526  0.3972
   40MOL0     C 5281   7.615   5.227   9.696 -0.0151 -0.3131  0.0117
   40MOL0     N 5282   7.510   5.269   9.596 -0.0406  0.3631 -0.4380
   40MOL0     C 5283   7.440   5.388   9.595 -0.5403  0.0808  0.3522
   40MOL0     C 5284   7.348   5.374   9.484  0.0178  0.2635 -0.4073
   40MOL0     C 5285   7.267   5.483   9.424 -0.0728 -0.3565  0.6724
   40MOL0     C 5286   7.360   5.602   9.370  0.3063 -0.0981  0.6430
   40MOL0     C 5287   7.274   5.719   9.309  0.2071 -0.6213  0.2534
   40MOL0     C 5288   7.209   5.677   9.174 -1.4562  0.3256  0.5386
   40MOL0     O 5289   7.117   5.772   9.143 -0.3924 -0.0014 -0.2589
   40MOL0     C 5290   7.159   5.897   9.112  0.7888 -0.4745 -1.2298
   40MOL0     C 5291   7.187   5.938   8.981  0.4331 -0.2861  1.5204
   40MOL0     C 5292   7.220   6.074   8.948  0.3269  0.7106 -0.2957
   40MOL0     C 5293   7.217   6.173   9.050  0.1835  1.4424 -0.3610
   40MOL0     C 5294   7.229   6.320   9.020 -0.2290 -0.9113  0.9622
   40MOL0     O 5295   7.181   6.366   8.895  0.4439  0.5760  0.2973
   40MOL0     C 5296   7.221   6.489   8.837 -0.4691  0.6544 -0.3152
   40MOL0     C 5297   7.171   6.510   8.708 -0.6119 -0.1131  0.2752
   40MOL0     C 5298   7.205   6.625   8.642  0.0816 -0.7278  1.0795
   40MOL0     C 5299   7.289   6.719   8.704 -0.3352  0.4633  0.8449
   40MOL0     O 5300   7.319   6.831   8.639  0.1878  0.9041 -0.5740
   40MOL0     C 5301   7.392   6.825   8.514 -0.0926 -0.2140 -0.0136
   40MOL0     C 5302   7.544   6.851   8.529  1.0247  0.3351  0.0446
   40MOL0     C 5303   7.573   6.978   8.615 -0.4029  0.0735  0.0542
   40MOL0     C 5304   7.716   6.951   8.689  0.1597  0.5290  0.0572
   40MOL0     C 5305   7.759   7.077   8.764 -0.5613 -0.4385  0.4439
   40MOL0     C 5306   7.860   7.023   8.875 -0.2111  0.1975  0.1253
   40MOL0     C 5307   7.897   7.136   8.974 -0.5000  0.6987  0.3483
   40MOL0     C 5308   7.998   7.098   9.077 -0.2702 -0.5184 -0.3176
   40MOL0    Cl 5309   8.135   7.014   9.001  0.1339  0.3116 -0.3402
   40MOL0     C 5310   7.343   6.704   8.823  0.4429  0.7348 -0.7665
   40MOL0     C 5311   7.308   6.589   8.895  0.0215  0.1946 -0.2968
   40MOL0     O 5312   7.270   6.394   9.109  0.5769  0.7096 -0.3752
   40MOL0     C 5313   7.190   6.131   9.182  1.1733  0.0558  0.6600
   40MOL0     C 5314   7.147   5.999   9.205 -0.7819 -0.3645 -0.4404
   40MOL0     N 5315   7.357   5.242   9.444  0.8439 -0.3001  0.2987
   40MOL0     N 5316   7.460   5.189   9.498  0.0944  0.7259  0.1141
   40MOL0     C 5317   8.277   4.920   9.047 -0.5010 -0.0780  0.2175
   40MOL0     C 5318   8.406   4.867   9.022  0.4357  0.1153  0.0280
   40MOL0     C 5319   8.832   4.806   9.045  0.1513  0.4193 -0.2161
   40MOL0     C 5320   8.855   4.670   9.016  0.0936 -0.7658  0.1209
   40MOL0     C 5321   8.975   4.635   8.957  0.0541  0.5014  0.2625
   40MOL0     C 5322   9.071   4.728   8.931  0.0991 -0.1980 -0.5095
   40MOL0     O 5323   9.191   4.698   8.875  0.1982 -0.6204  0.7123
   40MOL0     C 5324   9.241   4.570   8.912  0.5477  0.7821 -0.2226
   40MOL0     C 5325   9.377   4.567   8.849 -0.6037  0.8299 -0.1673
   40MOL0     C 5326   9.490   4.612   8.943  0.4228  0.5031 -0.1219
   40MOL0     C 5327   9.633   4.609   8.876  0.9967  0.6604  0.1034
   40MOL0     C 5328   9.646   4.724   8.775 -0.1999  0.0127 -0.7017
   40MOL0     C 5329   9.656   4.818   8.703  0.0379  0.0401  1.4576
   40MOL0     C 5330   9.044   4.864   8.949 -0.2779  0.0714 -0.1748
   40MOL0     C 5331   8.929   4.903   9.018  0.4714 -0.9099 -0.1522
   40MOL0     C 5332   8.921   5.051   9.058 -1.3612 -0.6564  0.5533
   40MOL0     H 5333   8.492   4.759   9.324 -0.5972 -1.5522 -0.5515
   40MOL0     H 5334   8.258   4.832   9.375 -1.4616  0.2809 -0.6727
   40MOL0     H 5335   8.039   4.911   9.370  1.7983 -2.2035 -2.7351
   40MOL0     H 5336   8.153   5.048   9.380  0.1256 -3.3637  1.4642
   40MOL0     H 5337   7.867   5.086   9.261 -0.6736  3.4309 -0.2228
   40MOL0     H 5338   7.996   5.197   9.302 -0.0712 -1.0722 -3.7872
   40MOL0     H 5339   7.848   5.017   9.510 -0.3182  0.7620 -1.0393
   40MOL0     H 5340   7.793   5.185   9.468  1.4118  1.8469 -1.7248
   40MOL0     H 5341   8.069   5.093   9.573  1.7376  1.7259  0.2960
   40MOL0     H 5342   8.019   5.271   9.579 -3.0452  1.3878  1.7981
   40MOL0     H 5343   7.889   5.057   9.760 -0.4398  1.2339 -0.5721
   40MOL0     H 5344   8.026   5.151   9.795 -1.5863  0.3489  1.6527
   40MOL0     H 5345   7.811   5.264   9.882  2.0389 -0.1174  0.6408
   40MOL0     H 5346   7.914   5.371   9.789 -1.8982  0.7161  3.9521
   40MOL0     H 5347   7.762   5.352   9.594  0.2179  3.3336  1.3345
   40MOL0     H 5348   7.695   5.417   9.744  1.2591  0.4864  1.4229
   40MOL0     H 5349   7.662   5.129   9.678 -4.0998 -2.7147  1.0061
   40MOL0     H 5350   7.582   5.228   9.801  2.2373 -1.7252  0.8162
   40MOL0     H 5351   7.449   5.468   9.668 -0.8850 -2.4245  3.3458
   40MOL0     H 5352   7.202   5.452   9.341  1.8727  0.2622 -1.1922
   40MOL0     H 5353   7.200   5.508   9.506  0.1000 -2.0897  1.3838
   40MOL0     H 5354   7.426   5.627   9.454 -1.2823 -0.3964  2.0352
   40MOL0     H 5355   7.420   5.565   9.286  0.5682 -1.4478  1.3910
   40MOL0     H 5356   7.340   5.804   9.291 -1.4856  1.0575  1.6053
   40MOL0     H 5357   7.192   5.756   9.371 -1.3707 -1.9547 -0.9308
   40MOL0     H 5358   7.170   5.575   9.178  1.4477 -0.8625  1.2611
   40MOL0     H 5359   7.289   5.684   9.099  1.4208 -3.1743  2.9482
   40MOL0     H 5360   7.165   5.863   8.905  1.3710  1.2051 -0.2968
   40MOL0     H 5361   7.223   6.097   8.841  0.4109 -0.0072 -0.4535
   40MOL0     H 5362   7.107   6.441   8.653 -0.9814  0.4633 -0.0205
   40MOL0     H 5363   7.173   6.654   8.542  3.1309 -0.4202  0.1075
   40MOL0     H 5364   7.378   6.727   8.467  1.0722 -0.2379 -0.3527
   40MOL0     H 5365   7.349   6.898   8.444  0.8636  1.1527  0.7764
   40MOL0     H 5366   7.578   6.765   8.588  1.5984  0.7518  0.3342
   40MOL0     H 5367   7.584   6.866   8.428 -2.7591  2.0850 -1.3998
   40MOL0     H 5368   7.575   7.057   8.540  1.3544  2.5508  2.4906
   40MOL0     H 5369   7.492   6.998   8.686  0.3900 -1.2541  1.3811
   40MOL0     H 5370   7.792   6.918   8.618  0.7976 -0.3972  1.1466
   40MOL0     H 5371   7.703   6.876   8.767 -0.5912 -1.1133 -1.5691
   40MOL0     H 5372   7.673   7.134   8.800  0.6478  0.3043  2.2844
   40MOL0     H 5373   7.812   7.136   8.688 -2.4012  1.7807  0.7683
   40MOL0     H 5374   7.824   6.941   8.938 -2.3339  1.0401  0.1125
   40MOL0     H 5375   7.945   6.994   8.813 -0.8072 -0.6149 -0.3378
   40MOL0     H 5376   7.809   7.167   9.032 -0.7319 -0.2523  0.5170
   40MOL0     H 5377   7.938   7.219   8.917  3.8170 -1.1645  0.3637
   40MOL0     H 5378   8.034   7.189   9.125  1.6483 -0.8944 -0.9604
   40MOL0     H 5379   7.947   7.034   9.150  0.8679 -1.9311 -0.7023
   40MOL0     H 5380   7.402   6.787   8.861 -0.0632  1.5939 -1.7750
   40MOL0     H 5381   7.371   6.566   8.981  0.7760 -1.1285 -1.1570
   40MOL0     H 5382   7.192   6.186   9.275  5.3485  0.3687  0.5785
   40MOL0     H 5383   7.104   5.977   9.302  1.8760 -0.1783  0.8610
   40MOL0     H 5384   8.225   4.983   8.975 -0.0637 -1.4714 -1.3823
   40MOL0     H 5385   8.459   4.887   8.929  2.9604 -2.1297  0.8552
   40MOL0     H 5386   8.789   4.587   9.038 -0.2110 -0.2687  1.1200
   40MOL0     H 5387   8.993   4.531   8.932 -1.1752  0.8183 -2.1566
   40MOL0     H 5388   9.174   4.496   8.868  0.4514  0.1308  0.9683
   40MOL0     H 5389   9.252   4.543   9.017  0.8098 -1.1321 -0.6991
   40MOL0     H 5390   9.368   4.627   8.758 -1.3021 -0.7530 -1.1683
   40MOL0     H 5391   9.402   4.464   8.824 -1.0355  0.3405  1.2891
   40MOL0     H 5392   9.493   4.535   9.020  0.4725 -1.2312 -1.7703
   40MOL0     H 5393   9.473   4.709   8.990  0.6936  1.2124 -1.4369
   40MOL0     H 5394   9.711   4.629   8.950  0.5063 -0.2048  0.8897
   40MOL0     H 5395   9.658   4.512   8.831  1.6356  0.5481  0.6768
   40MOL0     H 5396   9.660   4.900   8.634 -0.2712 -1.8109 -0.9283
   40MOL0     H 5397   9.117   4.941   8.927 -1.1411  1.4720  1.5571
   40MOL0     H 5398   8.818   5.082   9.037 -1.3387  0.7807  2.3526
   40MOL0     H 5399   8.928   5.059   9.166  0.6842 -2.6839  0.6527
   40MOL0     H 5400   8.998   5.116   9.016 -1.3719  0.3939  2.1240
   41MOL0     O 5401   2.317   8.456   8.835  0.4192 -0.1063 -0.6007
   41MOL0     C 5402   2.241   8.532   8.778 -0.1208  0.2123 -0.2395
   41MOL0     O 5403   2.240   8.666   8.783 -0.4292  0.6646 -0.0921
   41MOL0     C 5404   2.345   8.727   8.850  0.2793 -1.2203 -0.1840
   41MOL0     C 5405   2.391   8.700   8.984  0.0367 -0.7430 -0.9594
   41MOL0     C 5406   2.494   8.773   9.044  0.6089 -0.2715 -1.2535
   41MOL0     C 5407   2.546   8.889   8.974  0.1047  0.1519 -1.2647
   41MOL0     O 5408   2.658   8.969   9.004 -0.2604  0.4446  0.0593
   41MOL0     C 5409   2.752   8.932   9.099 -0.1431 -0.0208  0.1662
   41MOL0     C 5410   2.757   9.024   9.224  0.3104 -0.0804 -0.0483
   41MOL0     C 5411   2.665   8.963   9.332  0.3963  0.4613  0.4781
   41MOL0     C 5412   2.613   9.076   9.418  0.3423 -1.2206 -0.7282
   41MOL0     C 5413   2.532   9.018   9.534  0.0329  0.5022  0.2295
   41MOL0     C 5414   2.612   8.987   9.659 -0.7325 -0.5138  1.1175
   41MOL0     C 5415   2.520   8.944   9.777  0.3108 -0.1817 -0.3752
   41MOL0     C 5416   2.600   8.953   9.903  0.5820  0.4910 -0.0466
   41MOL0     N 5417   2.511   8.913  10.011  0.1451  0.2621 -0.2605
   41MOL0     C 5418   2.440   8.798  10.020 -0.1736  0.0027  0.1969
   41MOL0     C 5419   2.338   8.810  10.103  0.6107  0.2785 -0.7225
   41MOL0     C 5420   2.233   8.719  10.161 -0.4879  0.7461 -0.4827
   41MOL0     C 5421   2.223   8.576  10.109 -1.5582 -0.4769  0.1751
   41MOL0     C 5422   2.079   8.513  10.147 -0.5500  0.9344  1.3286
   41MOL0     C 5423   2.094   8.355  10.168  0.8576  0.0354  0.3881
   41MOL0     O 5424   2.119   8.278  10.048 -0.5006 -0.7631  0.6608
   41MOL0     C 5425   2.022   8.210   9.972  0.3726  0.4003 -0.0657
   41MOL0     C 5426   1.893   8.255   9.942 -0.2261 -0.7898  0.2477
   41MOL0     C 5427   1.809   8.177   9.872  0.3926  1.1367 -0.6168
   41MOL0     C 5428   1.848   8.052   9.829  0.6010 -1.0970  0.3413
   41MOL0     C 5429   1.753   7.975   9.756  0.6089 -0.4368  0.1395
   41MOL0     O 5430   1.776   7.843   9.761 -0.2429 -0.1919 -0.0178
   41MOL0     C 5431   1.700   7.765   9.679  1.4245 -0.3141 -0.4440
   41MOL0     C 5432   1.571   7.737   9.727 -0.7975  1.1744  0.4982
   41MOL0     C 5433   1.479   7.676   9.639 -0.2752 -0.0380  0.2760
   41MOL0     C 5434   1.511   7.644   9.500 -0.0389 -0.3781  1.2351
   41MOL0     O 5435   1.427   7.572   9.417 -0.9660 -0.6505 -0.0103
   41MOL0     C 5436   1.356   7.457   9.457  0.0311 -0.2079 -0.1480
   41MOL0     C 5437   1.209   7.469   9.473 -0.3604 -1.2704 -1.0460
   41MOL0     C 5438   1.146   7.336   9.499 -0.9249 -0.2561 -0.1111
   41MOL0     C 5439   0.995   7.336   9.487  0.9775 -0.4404  0.2959
   41MOL0     C 5440   0.928   7.233   9.565  0.7025 -0.2182 -0.4527
   41MOL0     C 5441   0.777   7.223   9.571 -0.5813 -0.7871  0.1340
   41MOL0     C 5442   0.730   7.203   9.428 -0.6833  0.7944 -0.0867
   41MOL0     C 5443   0.583   7.156   9.419  0.6405 -0.6177 -0.8602
   41MOL0    Cl 5444   0.486   7.307   9.443  0.0434  0.3448 -0.2978
   41MOL0     C 5445   1.635   7.690   9.451  0.1163 -0.5353  0.4957
   41MOL0     C 5446   1.721   7.758   9.542 -0.4444  0.4226  0.5826
   41MOL0     O 5447   1.666   8.028   9.700 -0.0553  0.1002  0.1542
   41MOL0     C 5448   1.977   8.005   9.861  0.5876 -0.9161 -0.4480
   41MOL0     C 5449   2.069   8.085   9.930  0.1394 -0.0340 -0.3329
   41MOL0     N 5450   2.341   8.941  10.134  0.4645 -0.2631  0.6577
   41MOL0     N 5451   2.442   9.005  10.085 -0.3060 -0.5874 -1.9158
   41MOL0     C 5452   2.480   8.933   8.864  0.0003 -1.3886 -0.4814
   41MOL0     C 5453   2.385   8.855   8.791 -0.1492  0.5026 -1.9792
   41MOL0     C 5454   2.109   8.469   8.731  0.2596  1.1494  1.2806
   41MOL0     C 5455   1.988   8.541   8.730 -0.1038 -0.4627  0.9178
   41MOL0     C 5456   1.872   8.497   8.664 -0.0516  0.0674 -0.6415
   41MOL0     C 5457   1.858   8.373   8.601 -0.0001 -0.0352 -0.5406
   41MOL0     O 5458   1.735   8.333   8.560  0.2016 -0.5602  0.2392
   41MOL0     C 5459   1.722   8.209   8.481 -0.0436 -0.3846  0.3774
   41MOL0     C 5460   1.572   8.188   8.481 -0.7919  0.4221  0.5438
   41MOL0     C 5461   1.502   8.085   8.381 -0.9809  0.1225 -0.1098
   41MOL0     C 5462   1.383   8.010   8.451  0.8489 -0.2349  0.7472
   41MOL0     C 5463   1.263   8.093   8.460  0.5922 -1.1703 -0.1542
   41MOL0     C 5464   1.154   8.146   8.456  0.7819  0.5020 -0.2350
   41MOL0     C 5465   1.972   8.294   8.608 -0.5292  0.2297 -0.5800
   41MOL0     C 5466   2.093   8.341   8.660 -0.0797 -0.2943 -0.3295
   41MOL0     C 5467   2.213   8.245   8.663  0.5650  0.3548 -0.8125
   41MOL0     H 5468   2.346   8.622   9.044 -1.9070  0.2163 -1.0882
   41MOL0     H 5469   2.542   8.735   9.134  1.1487  2.9802 -0.0222
   41MOL0     H 5470   2.752   8.824   9.115  0.1573 -0.3079 -1.4896
   41MOL0     H 5471   2.851   8.954   9.056 -0.2390  0.4303  0.1724
   41MOL0     H 5472   2.714   9.122   9.199  1.0041  0.1217 -0.4959
   41MOL0     H 5473   2.863   9.032   9.252  0.5336 -1.4245 -0.4522
   41MOL0     H 5474   2.706   8.881   9.392 -0.5731  0.9547  1.8519
   41MOL0     H 5475   2.573   8.923   9.288  0.2865 -1.0750  2.0029
   41MOL0     H 5476   2.704   9.119   9.459  0.4441 -1.0859 -1.0905
   41MOL0     H 5477   2.554   9.151   9.364  2.2960  0.5288 -0.5340
   41MOL0     H 5478   2.456   9.092   9.559 -1.4369 -1.1793  0.9681
   41MOL0     H 5479   2.473   8.936   9.493 -3.0911  3.1808 -1.0328
   41MOL0     H 5480   2.679   8.907   9.628 -2.4678 -2.2408  1.6333
   41MOL0     H 5481   2.673   9.075   9.683 -3.1828  1.1957  1.4201
   41MOL0     H 5482   2.478   8.844   9.765 -0.0531  0.0155 -0.7566
   41MOL0     H 5483   2.438   9.015   9.778  0.7494  0.5651 -3.8014
   41MOL0     H 5484   2.686   8.885   9.893  0.3937  0.1765  0.3995
   41MOL0     H 5485   2.634   9.056   9.913  0.3781  0.6986 -1.3937
   41MOL0     H 5486   2.461   8.705   9.968  1.1156 -0.2615  1.1457
   41MOL0     H 5487   2.249   8.718  10.269 -4.2655  0.9647  0.2352
   41MOL0     H 5488   2.136   8.765  10.139 -2.0505 -2.4866 -0.9636
   41MOL0     H 5489   2.248   8.586  10.003  3.7642 -0.4126  1.1621
   41MOL0     H 5490   2.306   8.514  10.142 -0.8143  0.8454  0.9007
   41MOL0     H 5491   2.010   8.542  10.067 -0.2944 -0.2450  0.6442
   41MOL0     H 5492   2.039   8.552  10.240  0.3260 -2.2775  3.2185
   41MOL0     H 5493   1.997   8.322  10.208 -0.0524 -0.6046 -2.1280
   41MOL0     H 5494   2.172   8.333  10.241  2.2600  0.5691 -0.8949
   41MOL0     H 5495   1.848   8.347   9.976 -1.0201 -1.7701  1.9838
   41MOL0     H 5496   1.702   8.196   9.868  0.3576  1.2137  0.4630
   41MOL0     H 5497   1.544   7.752   9.831 -1.0596 -3.5936  1.3583
   41MOL0     H 5498   1.380   7.645   9.670  0.1392 -1.3260  0.3674
   41MOL0     H 5499   1.378   7.371   9.392  1.5214  1.5479 -2.0812
   41MOL0     H 5500   1.404   7.433   9.552 -2.3373  0.8461  1.3988
   41MOL0     H 5501   1.187   7.540   9.554  1.8905  0.9322 -2.2385
   41MOL0     H 5502   1.168   7.502   9.377  3.9936  1.2187 -2.3224
   41MOL0     H 5503   1.176   7.271   9.416 -1.4011 -1.0991  0.3628
   41MOL0     H 5504   1.186   7.297   9.593 -2.5963 -0.3680  0.5830
   41MOL0     H 5505   0.971   7.326   9.381 -1.8905  2.8618  0.4627
   41MOL0     H 5506   0.946   7.428   9.519 -2.1531 -1.9725  0.2414
   41MOL0     H 5507   0.953   7.225   9.671 -2.0372  1.9044  0.4788
   41MOL0     H 5508   0.950   7.138   9.515 -0.7679  0.9903 -3.6890
   41MOL0     H 5509   0.754   7.135   9.631  2.3047  0.0229  2.7839
   41MOL0     H 5510   0.740   7.319   9.611 -2.6210 -2.0061  1.3338
   41MOL0     H 5511   0.780   7.121   9.375 -0.7525  1.2072 -0.8106
   41MOL0     H 5512   0.736   7.297   9.372  3.5288  1.6395  1.4287
   41MOL0     H 5513   0.546   7.100   9.332 -1.0315 -2.0593  0.7047
   41MOL0     H 5514   0.554   7.094   9.504 -1.7803 -1.3654 -2.1557
   41MOL0     H 5515   1.668   7.679   9.348  2.5811 -0.2170  1.1755
   41MOL0     H 5516   1.819   7.785   9.503  0.8485 -1.4491  2.3022
   41MOL0     H 5517   2.009   7.904   9.837  2.6587 -0.7809  1.4224
   41MOL0     H 5518   2.164   8.042   9.961 -0.6950 -4.4556 -3.0757
   41MOL0     H 5519   2.504   9.034   8.831 -0.0221 -0.5210  1.9796
   41MOL0     H 5520   2.333   8.896   8.705 -1.2422  1.7982 -0.7527
   41MOL0     H 5521   1.975   8.628   8.794 -1.7135  1.2913 -1.6080
   41MOL0     H 5522   1.776   8.547   8.670 -0.5059 -0.6594 -1.4770
   41MOL0     H 5523   1.767   8.123   8.533  0.5381  0.0396  0.5938
   41MOL0     H 5524   1.767   8.216   8.382 -3.1972  1.4195 -1.0608
   41MOL0     H 5525   1.529   8.284   8.452 -0.7655  0.0924 -0.6392
   41MOL0     H 5526   1.541   8.175   8.585 -0.7441  2.5940  0.8633
   41MOL0     H 5527   1.573   8.010   8.345  1.4429  1.0365  2.3388
   41MOL0     H 5528   1.448   8.130   8.297 -2.9214 -3.3988 -0.9766
   41MOL0     H 5529   1.358   7.923   8.390 -3.1176  2.0613 -1.3049
   41MOL0     H 5530   1.412   7.982   8.553  1.6257  0.2632  0.6682
   41MOL0     H 5531   1.058   8.193   8.451 -0.4947 -1.3992  2.8246
   41MOL0     H 5532   1.957   8.196   8.563 -0.7867 -0.2581  0.5309
   41MOL0     H 5533   2.303   8.308   8.659  0.5504  0.7988  2.5559
   41MOL0     H 5534   2.216   8.194   8.759 -2.9786 -1.1524 -1.3794
   41MOL0     H 5535   2.210   8.170   8.584 -1.7056 -1.1600  0.6019
   42MOL0     O 5536   3.700   4.711  11.032 -0.4064 -0.5697 -0.4202
   42MOL0     C 5537   3.713   4.806  10.953 -0.1475  0.0188 -0.6572
   42MOL0     O 5538   3.768   4.800  10.819  0.2249 -0.1698 -0.5614
   42MOL0     C 5539   3.842   4.695  10.788 -0.2977  0.3411  1.4961
   42MOL0     C 5540   3.812   4.616  10.664  0.4585 -0.1672 -0.2214
   42MOL0     C 5541   3.891   4.502  10.644 -0.7988 -0.0593 -0.8588
   42MOL0     C 5542   4.009   4.473  10.720  0.6212  0.7809  0.5240
   42MOL0     O 5543   4.076   4.360  10.694  0.5181 -0.4434 -0.0161
   42MOL0     C 5544   4.002   4.233  10.680 -0.0845 -0.0463  0.5600
   42MOL0     C 5545   4.087   4.114  10.658 -0.0925  0.3692  0.6189
   42MOL0     C 5546   4.183   4.089  10.770 -0.2778 -0.0407  0.2281
   42MOL0     C 5547   4.294   4.001  10.740 -0.1865  0.6193 -1.2747
   42MOL0     C 5548   4.275   3.861  10.670 -0.7182  0.8920 -0.2246
   42MOL0     C 5549   4.396   3.760  10.693 -0.5493 -0.8465 -0.2636
   42MOL0     C 5550   4.364   3.630  10.610  0.9370 -0.6452 -1.1024
   42MOL0     C 5551   4.378   3.645  10.466 -0.2710 -0.2763  1.1332
   42MOL0     N 5552   4.298   3.547  10.393 -0.0176  0.4320  0.7846
   42MOL0     C 5553   4.182   3.569  10.323  0.1072  1.3087 -0.4622
   42MOL0     C 5554   4.164   3.460  10.251  0.8586  0.0564  0.7043
   42MOL0     C 5555   4.051   3.434  10.144 -0.0523  0.1333 -0.1558
   42MOL0     C 5556   4.019   3.546  10.045  0.1503 -0.0473  0.8561
   42MOL0     C 5557   4.143   3.576   9.974  0.2685 -0.9635  0.8038
   42MOL0     C 5558   4.124   3.659   9.852  0.1532 -0.6639 -0.4780
   42MOL0     O 5559   4.042   3.578   9.764 -0.1511 -0.5952  0.1565
   42MOL0     C 5560   3.951   3.651   9.694 -0.2332 -0.0946  0.2752
   42MOL0     C 5561   3.947   3.622   9.554  1.3727  0.6059 -0.7341
   42MOL0     C 5562   3.871   3.696   9.459  0.3645  0.1513 -0.4521
   42MOL0     C 5563   3.765   3.780   9.505 -0.8216 -0.7047 -1.0498
   42MOL0     C 5564   3.679   3.848   9.406 -0.0731  0.0562  0.0971
   42MOL0     O 5565   3.576   3.930   9.447  0.9638  1.1428  0.5506
   42MOL0     C 5566   3.484   3.992   9.361 -0.5932  0.5656 -0.3190
   42MOL0     C 5567   3.516   4.080   9.259 -0.6557  0.6202 -0.0510
   42MOL0     C 5568   3.421   4.156   9.190 -0.6767 -0.1166 -0.6440
   42MOL0     C 5569   3.290   4.133   9.218 -0.7975 -0.2072 -0.1246
   42MOL0     O 5570   3.206   4.203   9.148 -0.0413 -0.3431  0.1892
   42MOL0     C 5571   3.119   4.276   9.238  0.2481 -0.1403 -0.5556
   42MOL0     C 5572   3.025   4.363   9.164  1.1249  0.1028  0.7785
   42MOL0     C 5573   2.921   4.272   9.103  0.9538  0.9885 -0.4714
   42MOL0     C 5574   2.800   4.248   9.194 -0.5070 -0.1069 -0.3412
   42MOL0     C 5575   2.671   4.243   9.116  0.8247 -0.1618  0.9806
   42MOL0     C 5576   2.561   4.199   9.209  0.2045  0.6173 -0.9588
   42MOL0     C 5577   2.459   4.089   9.166  1.0938 -0.3412  0.3016
   42MOL0     C 5578   2.326   4.092   9.230  0.6318 -0.4782  0.0998
   42MOL0    Cl 5579   2.356   4.045   9.393 -0.0143 -0.2918  0.2090
   42MOL0     C 5580   3.252   4.039   9.312 -0.2791 -0.0456  0.4343
   42MOL0     C 5581   3.346   3.974   9.389  1.4149  0.2760 -0.2662
   42MOL0     O 5582   3.705   3.830   9.289 -0.8035 -0.1304 -0.6127
   42MOL0     C 5583   3.768   3.808   9.641 -0.3843  0.0306  0.0512
   42MOL0     C 5584   3.849   3.743   9.736 -1.0293  1.2337 -0.2409
   42MOL0     N 5585   4.262   3.363  10.277 -0.0126 -1.0571  0.0414
   42MOL0     N 5586   4.349   3.421  10.362  0.6336  0.2698  0.1771
   42MOL0     C 5587   4.044   4.566  10.822  0.0937  0.1189 -0.5575
   42MOL0     C 5588   3.953   4.662  10.862 -1.2980  0.4146 -0.8191
   42MOL0     C 5589   3.642   4.930  10.969  0.5029 -0.4078  0.9664
   42MOL0     C 5590   3.718   5.054  10.967  0.4987  0.2709 -0.5859
   42MOL0     C 5591   3.661   5.176  11.002 -0.0071 -0.4962 -0.1836
   42MOL0     C 5592   3.518   5.192  11.021  0.9038  0.3737 -0.0587
   42MOL0     O 5593   3.452   5.316  11.049  0.4270  0.5490 -0.0067
   42MOL0     C 5594   3.523   5.438  11.021 -0.4464 -0.2376 -0.6951
   42MOL0     C 5595   3.525   5.482  10.873  0.1469  0.1861  0.0424
   42MOL0     C 5596   3.385   5.510  10.827  0.5284  1.0770 -0.9370
   42MOL0     C 5597   3.383   5.603  10.707 -0.4461 -0.3231 -0.5835
   42MOL0     C 5598   3.258   5.650  10.671  1.1335 -1.2632  0.4026
   42MOL0     C 5599   3.152   5.700  10.636  0.2927 -0.0655 -0.5645
   42MOL0     C 5600   3.441   5.076  11.011  0.7344 -0.0574  0.1431
   42MOL0     C 5601   3.507   4.948  11.012  0.5698 -0.7100 -0.5883
   42MOL0     C 5602   3.426   4.824  11.035  0.2579 -0.2922 -0.9647
   42MOL0     H 5603   3.725   4.624  10.599 -2.2250 -4.3375  2.3487
   42MOL0     H 5604   3.863   4.459  10.548  0.1894 -0.1625 -1.1151
   42MOL0     H 5605   3.945   4.217  10.771 -1.4627 -2.4470 -0.6161
   42MOL0     H 5606   3.928   4.239  10.600  0.3920 -2.5367 -0.1498
   42MOL0     H 5607   4.142   4.113  10.563 -3.8263 -4.8677 -2.0453
   42MOL0     H 5608   4.031   4.020  10.651  2.3126 -1.0684 -2.0012
   42MOL0     H 5609   4.128   4.048  10.855  1.2721 -2.0516  0.3431
   42MOL0     H 5610   4.222   4.183  10.808 -0.9957  0.4001 -0.1092
   42MOL0     H 5611   4.351   4.044  10.657  0.8416 -0.0298 -0.9133
   42MOL0     H 5612   4.352   3.989  10.831 -0.2606  0.8210 -1.2005
   42MOL0     H 5613   4.184   3.814  10.709  0.2845 -1.7531 -0.9025
   42MOL0     H 5614   4.263   3.880  10.563  3.2777  1.5494 -0.6931
   42MOL0     H 5615   4.484   3.808  10.649 -1.2501  1.1084  0.3677
   42MOL0     H 5616   4.421   3.744  10.798  0.7921  3.2067  0.2411
   42MOL0     H 5617   4.261   3.605  10.634  1.3299 -0.0501  1.5778
   42MOL0     H 5618   4.439   3.557  10.641  1.8559  0.5462 -0.4012
   42MOL0     H 5619   4.354   3.747  10.435 -3.2593  0.0716  4.0422
   42MOL0     H 5620   4.478   3.618  10.432  0.4395 -1.3237  3.8085
   42MOL0     H 5621   4.119   3.657  10.319 -1.7767 -0.0006 -4.2727
   42MOL0     H 5622   4.073   3.343  10.087  0.7436  0.9862 -1.2561
   42MOL0     H 5623   3.956   3.419  10.196 -0.9797 -0.9028 -2.0454
   42MOL0     H 5624   3.942   3.517   9.973  3.8112 -1.4539 -2.9129
   42MOL0     H 5625   3.989   3.634  10.103 -0.2715  0.1245  0.3835
   42MOL0     H 5626   4.195   3.491   9.929  1.0034 -0.1193  0.0106
   42MOL0     H 5627   4.209   3.624  10.048 -2.4384  1.6441  1.7341
   42MOL0     H 5628   4.221   3.670   9.803 -0.3330  0.4332 -1.2423
   42MOL0     H 5629   4.085   3.760   9.870  2.8826  0.3912 -0.0580
   42MOL0     H 5630   4.003   3.543   9.504  1.1330 -0.4770  0.6385
   42MOL0     H 5631   3.886   3.661   9.357  0.7585 -0.5679 -0.1563
   42MOL0     H 5632   3.619   4.095   9.225 -0.1689 -0.1724  1.0275
   42MOL0     H 5633   3.452   4.243   9.134  3.0486  0.3946  1.8550
   42MOL0     H 5634   3.051   4.216   9.299  1.0110 -3.9863 -3.1758
   42MOL0     H 5635   3.183   4.336   9.304 -0.7121  3.3059 -2.5020
   42MOL0     H 5636   2.979   4.432   9.236  0.3533 -0.3123  0.6916
   42MOL0     H 5637   3.066   4.418   9.079  1.1963  0.0130  0.7554
   42MOL0     H 5638   2.890   4.337   9.021 -0.5420  1.7474  0.6510
   42MOL0     H 5639   2.957   4.177   9.063 -1.9264  0.2651 -1.5888
   42MOL0     H 5640   2.790   4.333   9.264  0.6628  0.0990 -0.3974
   42MOL0     H 5641   2.817   4.164   9.262 -0.6393  0.0227 -0.1439
   42MOL0     H 5642   2.669   4.161   9.044  0.2488  0.3044  0.4635
   42MOL0     H 5643   2.649   4.337   9.065  0.4201 -2.6728 -4.1466
   42MOL0     H 5644   2.611   4.158   9.297  1.9228  0.3140 -2.0208
   42MOL0     H 5645   2.503   4.285   9.244 -0.1141  0.5363 -1.2830
   42MOL0     H 5646   2.495   3.987   9.183 -0.3017 -0.5794  2.1214
   42MOL0     H 5647   2.439   4.107   9.060  0.6524  0.3218  0.4890
   42MOL0     H 5648   2.294   4.195   9.208  2.6909 -0.1578 -1.6737
   42MOL0     H 5649   2.258   4.022   9.181  3.8087 -5.7906  2.4887
   42MOL0     H 5650   3.149   4.006   9.320  0.1659 -1.9056 -0.8107
   42MOL0     H 5651   3.322   3.912   9.474 -1.6197 -0.9773 -1.8519
   42MOL0     H 5652   3.694   3.882   9.667  0.2366  0.4723  0.5925
   42MOL0     H 5653   3.856   3.787   9.835  1.8643 -0.0540  0.2398
   42MOL0     H 5654   4.127   4.534  10.885 -1.1006 -3.9190 -0.7301
   42MOL0     H 5655   3.978   4.713  10.954 -2.7889  3.0863 -1.7736
   42MOL0     H 5656   3.823   5.055  10.938  0.5011 -2.6476 -0.9142
   42MOL0     H 5657   3.724   5.265  11.007 -2.5957  1.8762 -4.0592
   42MOL0     H 5658   3.621   5.435  11.069  0.0767  4.0374 -1.0670
   42MOL0     H 5659   3.470   5.522  11.067  0.2663  0.6818 -1.5054
   42MOL0     H 5660   3.578   5.407  10.813  3.4165  0.4240  2.3654
   42MOL0     H 5661   3.588   5.570  10.856  1.0240 -0.4121  0.1210
   42MOL0     H 5662   3.328   5.559  10.906  1.7215 -0.0370  0.6865
   42MOL0     H 5663   3.350   5.412  10.792  3.2744  0.3817 -2.0164
   42MOL0     H 5664   3.441   5.691  10.734 -0.3607 -0.7145  0.5445
   42MOL0     H 5665   3.436   5.574  10.615 -2.4805  2.6313 -2.8867
   42MOL0     H 5666   3.066   5.722  10.576 -1.0171 -1.1229  0.8330
   42MOL0     H 5667   3.333   5.080  11.024  0.5817 -0.4834 -0.9014
   42MOL0     H 5668   3.443   4.748  10.958  2.4404 -1.2300  0.3664
   42MOL0     H 5669   3.462   4.783  11.129 -2.6582 -3.3250 -0.9630
   42MOL0     H 5670   3.319   4.830  11.056  0.6289 -2.1951  2.0580
   43MOL0     O 5671   6.828  10.081   5.357 -0.9148 -1.4764 -0.1770
   43MOL0     C 5672   6.781  10.074   5.244 -0.4327  0.1356  0.1282
   43MOL0     O 5673   6.670  10.003   5.203 -1.2155 -0.0805 -0.0171
   43MOL0     C 5674   6.586   9.949   5.301 -1.0091 -0.3593 -0.4954
   43MOL0     C 5675   6.636   9.878   5.409  0.4487  0.8125  0.3553
   43MOL0     C 5676   6.548   9.813   5.499  0.4875 -0.0917  0.6917
   43MOL0     C 5677   6.408   9.826   5.476 -0.3161 -0.0936 -1.2478
   43MOL0     O 5678   6.334   9.770   5.582  0.7341  0.2486  0.1135
   43MOL0     C 5679   6.201   9.736   5.553  0.8624 -0.0280 -0.1362
   43MOL0     C 5680   6.180   9.603   5.493  0.4478  0.3092 -0.2062
   43MOL0     C 5681   6.285   9.490   5.524 -0.3952  0.1823 -0.1856
   43MOL0     C 5682   6.218   9.352   5.472 -0.1697  0.5879  0.1033
   43MOL0     C 5683   6.307   9.232   5.513  0.1585 -1.1794 -0.3815
   43MOL0     C 5684   6.252   9.090   5.492 -0.7329  0.1649 -0.1298
   43MOL0     C 5685   6.343   8.990   5.562  0.5267 -0.1427 -0.0313
   43MOL0     C 5686   6.469   8.931   5.492 -0.1488  0.7037  0.5181
   43MOL0     N 5687   6.523   8.808   5.556  0.0989  0.4491  0.3562
   43MOL0     C 5688   6.654   8.778   5.577  1.1278 -0.0055  0.3014
   43MOL0     C 5689   6.666   8.646   5.626 -1.0387 -0.8658 -0.5067
   43MOL0     C 5690   6.795   8.564   5.644  1.5526  0.0210 -0.1151
   43MOL0     C 5691   6.897   8.624   5.742 -0.4738 -0.2312  1.3204
   43MOL0     C 5692   6.975   8.527   5.838  0.3304  0.2709 -0.1942
   43MOL0     C 5693   7.029   8.415   5.754 -0.2430  0.7049  0.5245
   43MOL0     O 5694   7.108   8.320   5.833 -0.7504 -0.8332  0.4789
   43MOL0     C 5695   7.063   8.195   5.869  0.7039 -1.1870  0.1683
   43MOL0     C 5696   6.922   8.170   5.883  0.2352  0.1932 -0.0601
   43MOL0     C 5697   6.879   8.041   5.931  0.1000 -0.2800 -0.0530
   43MOL0     C 5698   6.974   7.944   5.947 -0.3678 -0.4312 -0.0404
   43MOL0     C 5699   6.941   7.805   5.984  1.0406  0.4631 -1.3638
   43MOL0     O 5700   7.036   7.714   6.015 -0.1609 -0.0872 -0.0042
   43MOL0     C 5701   7.002   7.585   6.030  0.9526 -0.0680  0.7563
   43MOL0     C 5702   7.074   7.527   6.133 -0.1331 -0.0316 -0.0638
   43MOL0     C 5703   7.090   7.387   6.133 -0.6518  0.2993  0.1338
   43MOL0     C 5704   7.030   7.303   6.038 -0.5068 -0.6291  0.3319
   43MOL0     O 5705   7.065   7.167   6.023 -0.3510 -0.4217  0.3121
   43MOL0     C 5706   7.098   7.085   6.133  0.8922  0.7082 -0.2917
   43MOL0     C 5707   7.002   6.960   6.140 -0.5265  0.1190 -0.3601
   43MOL0     C 5708   7.002   6.864   6.016  0.1596 -0.3975 -0.1017
   43MOL0     C 5709   6.972   6.725   6.078 -0.5350 -0.0546 -0.2583
   43MOL0     C 5710   6.916   6.630   5.967  0.0606  0.3774 -0.2226
   43MOL0     C 5711   7.016   6.566   5.864 -0.7129 -0.5725 -0.6546
   43MOL0     C 5712   6.952   6.477   5.764 -0.3361 -0.0520  0.5448
   43MOL0     C 5713   6.888   6.533   5.644 -0.0556 -0.5587 -0.2964
   43MOL0    Cl 5714   6.718   6.590   5.663  0.1018  0.2971  0.4290
   43MOL0     C 5715   6.944   7.375   5.946 -0.3588  1.0620 -0.5076
   43MOL0     C 5716   6.925   7.512   5.938  0.0673 -0.6177 -0.5528
   43MOL0     O 5717   6.820   7.779   5.981  0.7609 -0.7410 -0.9432
   43MOL0     C 5718   7.107   7.975   5.928 -0.8034  1.2004 -0.6279
   43MOL0     C 5719   7.151   8.095   5.895  0.3811 -0.9844 -0.1951
   43MOL0     N 5720   6.535   8.620   5.666 -0.2769 -0.6310  0.4333
   43MOL0     N 5721   6.455   8.710   5.626  0.2510 -0.1202 -0.4224
   43MOL0     C 5722   6.361   9.894   5.366  0.0401 -0.4866  0.6005
   43MOL0     C 5723   6.448   9.952   5.272  0.1246 -0.0628  0.7461
   43MOL0     C 5724   6.877  10.136   5.139 -1.1227 -0.2817 -1.5079
   43MOL0     C 5725   6.965  10.244   5.181 -1.0239  0.0780  0.6040
   43MOL0     C 5726   7.046  10.316   5.096  0.0498  1.5000  0.1368
   43MOL0     C 5727   7.037  10.291   4.962  0.3404 -0.6539 -0.3939
   43MOL0     O 5728   7.103  10.375   4.873 -0.0797  1.0447 -0.0823
   43MOL0     C 5729   7.085  10.366   4.727 -0.3469  0.1934  0.4141
   43MOL0     C 5730   7.169  10.476   4.662 -0.5548 -0.1715 -0.2312
   43MOL0     C 5731   7.174  10.463   4.511 -0.5075  0.0803  0.0766
   43MOL0     C 5732   7.265  10.575   4.452 -0.4310  0.3408 -0.2047
   43MOL0     C 5733   7.410  10.553   4.464  0.4387 -0.0086  0.0214
   43MOL0     C 5734   7.527  10.521   4.486  0.7236  0.0705 -0.3617
   43MOL0     C 5735   6.942  10.189   4.917 -0.2170 -0.4643  0.6626
   43MOL0     C 5736   6.871  10.112   5.002  0.9326  0.1621 -0.5735
   43MOL0     C 5737   6.775  10.017   4.935 -0.4104 -0.3497  0.9538
   43MOL0     H 5738   6.743   9.858   5.401  0.2627  0.4017 -1.6805
   43MOL0     H 5739   6.591   9.769   5.589  0.1293  0.3982  1.1015
   43MOL0     H 5740   6.162   9.720   5.654 -1.5212  0.0034 -0.9871
   43MOL0     H 5741   6.143   9.814   5.502  0.4842 -0.5457 -0.5028
   43MOL0     H 5742   6.164   9.608   5.384 -2.2072 -0.1467  0.0938
   43MOL0     H 5743   6.086   9.565   5.533  0.2157  0.2366 -0.8061
   43MOL0     H 5744   6.293   9.478   5.633 -3.4203  1.5963  0.3029
   43MOL0     H 5745   6.375   9.525   5.473 -0.9067  3.3073  0.8075
   43MOL0     H 5746   6.132   9.351   5.539  1.1008  1.5252  1.8229
   43MOL0     H 5747   6.208   9.356   5.363 -1.5273 -0.3962  0.1691
   43MOL0     H 5748   6.410   9.232   5.476  0.5907  0.1142  0.7165
   43MOL0     H 5749   6.318   9.243   5.622 -1.4472 -1.6020 -0.1429
   43MOL0     H 5750   6.149   9.080   5.526 -0.4806  0.9607  0.9149
   43MOL0     H 5751   6.239   9.057   5.388 -1.3532 -1.5090  0.4350
   43MOL0     H 5752   6.266   8.915   5.579 -0.5463  0.9105 -0.1318
   43MOL0     H 5753   6.376   9.021   5.662  1.9818  0.7349 -0.7384
   43MOL0     H 5754   6.438   8.909   5.390  2.3661 -1.6006  0.1447
   43MOL0     H 5755   6.550   9.004   5.501  0.5470  0.0816 -0.5827
   43MOL0     H 5756   6.735   8.830   5.527  1.0070 -0.8454 -0.8143
   43MOL0     H 5757   6.749   8.479   5.694  0.2000  1.0878  0.5270
   43MOL0     H 5758   6.840   8.532   5.550 -3.1176  1.5243 -3.2127
   43MOL0     H 5759   6.969   8.677   5.678 -3.2309 -1.0059 -2.8654
   43MOL0     H 5760   6.855   8.706   5.800 -3.5528  1.2469 -2.5327
   43MOL0     H 5761   6.916   8.485   5.920  0.8883 -0.6883 -0.2678
   43MOL0     H 5762   7.063   8.579   5.877  1.8104 -1.1799 -1.4378
   43MOL0     H 5763   7.104   8.453   5.683 -1.8104  0.7399 -1.1728
   43MOL0     H 5764   6.953   8.365   5.693  0.1074  0.7965  0.0073
   43MOL0     H 5765   6.857   8.256   5.873  1.1906  0.7639 -1.8568
   43MOL0     H 5766   6.772   8.026   5.942 -0.5523  4.4243  2.6176
   43MOL0     H 5767   7.130   7.586   6.206 -1.9390  0.5448  0.9264
   43MOL0     H 5768   7.163   7.357   6.208 -0.8727  1.0537  0.6577
   43MOL0     H 5769   7.196   7.043   6.108 -0.3480 -2.8794  0.4284
   43MOL0     H 5770   7.100   7.134   6.231 -0.0039  1.2311 -0.5225
   43MOL0     H 5771   7.028   6.891   6.221 -2.2051  2.2844  2.1945
   43MOL0     H 5772   6.897   6.992   6.149  1.1106  6.6302  0.5079
   43MOL0     H 5773   6.921   6.888   5.948 -0.2087  2.4731  1.1839
   43MOL0     H 5774   7.095   6.862   5.958 -0.1592  2.2993 -0.8109
   43MOL0     H 5775   6.892   6.742   6.151 -1.7103  0.0189 -1.5231
   43MOL0     H 5776   7.057   6.690   6.137  0.5453 -1.2929 -2.4326
   43MOL0     H 5777   6.842   6.685   5.907 -0.8473 -1.1523 -0.5483
   43MOL0     H 5778   6.859   6.547   6.009  3.1733 -2.0844 -0.5591
   43MOL0     H 5779   7.076   6.638   5.807  2.2960 -2.2608  0.1812
   43MOL0     H 5780   7.102   6.527   5.920 -1.1748  0.6886  1.0307
   43MOL0     H 5781   6.886   6.410   5.820 -2.8907  2.0771  0.2938
   43MOL0     H 5782   7.034   6.412   5.731  1.2099  0.3515  3.2638
   43MOL0     H 5783   6.950   6.615   5.605  1.2498 -0.3465  2.0680
   43MOL0     H 5784   6.879   6.459   5.563  1.3958 -2.0315  0.8385
   43MOL0     H 5785   6.899   7.316   5.866  2.8370 -1.5935 -0.6065
   43MOL0     H 5786   6.866   7.552   5.856 -0.7202 -1.7253 -0.5589
   43MOL0     H 5787   7.180   7.894   5.929  0.0875  1.9641  0.7390
   43MOL0     H 5788   7.258   8.110   5.879  0.1342  2.5333  0.6496
   43MOL0     H 5789   6.254   9.905   5.349 -0.1654 -0.8466  1.5883
   43MOL0     H 5790   6.417  10.004   5.182  2.7478 -1.0963 -0.8665
   43MOL0     H 5791   6.950  10.276   5.284  1.0830  0.2592  0.8914
   43MOL0     H 5792   7.117  10.394   5.124  1.4368  0.6583 -0.9339
   43MOL0     H 5793   6.977  10.369   4.713 -0.4851  0.9519  1.5661
   43MOL0     H 5794   7.117  10.270   4.684 -2.2580 -0.0624 -0.5558
   43MOL0     H 5795   7.274  10.473   4.694 -0.1058 -0.5893 -1.6712
   43MOL0     H 5796   7.128  10.576   4.678  0.0784  0.7202 -3.3518
   43MOL0     H 5797   7.075  10.493   4.475 -0.2990 -0.3727 -0.9107
   43MOL0     H 5798   7.200  10.366   4.468  0.4263 -0.0398  0.8655
   43MOL0     H 5799   7.263  10.580   4.343  1.9982  0.4860 -0.2907
   43MOL0     H 5800   7.231  10.673   4.485 -2.5432 -1.0135  2.0887
   43MOL0     H 5801   7.628  10.491   4.508  0.3569 -0.0967  1.2452
   43MOL0     H 5802   6.941  10.164   4.811  2.9433 -0.0949  0.4732
   43MOL0     H 5803   6.830   9.960   4.860 -0.3726 -1.7124  1.9969
   43MOL0     H 5804   6.737   9.941   5.004 -1.6830  1.0523  1.8680
   43MOL0     H 5805   6.704  10.076   4.876  3.7505  0.1397 -4.3726
   44MOL0     O 5806   9.329  11.486  11.226 -0.6891  0.5448  0.4008
   44MOL0     C 5807   9.248  11.534  11.300  2.0438 -0.5800  0.1709
   44MOL0     O 5808   9.154  11.621  11.258 -0.7402 -0.2910 -0.9552
   44MOL0     C 5809   9.137  11.649  11.126 -0.7139 -0.2536 -1.0552
   44MOL0     C 5810   9.032  11.592  11.057 -0.6875  0.4396  0.5630
   44MOL0     C 5811   9.002  11.645  10.933  0.8674  0.3958  0.3142
   44MOL0     C 5812   9.077  11.745  10.879  0.0787  0.5804 -0.8164
   44MOL0     O 5813   9.034  11.800  10.756  0.2210 -0.5174 -0.0573
   44MOL0     C 5814   9.052  11.943  10.718 -0.3867  1.0413  0.6268
   44MOL0     C 5815   8.929  12.020  10.771 -0.2420 -1.1654 -0.5263
   44MOL0     C 5816   8.908  12.149  10.696 -0.1382 -0.8143  0.1422
   44MOL0     C 5817   9.036  12.232  10.682  0.7466  0.2498 -0.0153
   44MOL0     C 5818   9.018  12.380  10.637  0.9647  1.3239  0.5830
   44MOL0     C 5819   8.927  12.426  10.528 -0.3270 -0.2767  0.2336
   44MOL0     C 5820   8.879  12.573  10.543  0.6662  0.3151  0.0723
   44MOL0     C 5821   9.004  12.665  10.549 -0.5432 -0.0005 -0.1206
   44MOL0     N 5822   8.982  12.810  10.560  0.3516  0.4334 -0.1003
   44MOL0     C 5823   8.922  12.864  10.662  0.3860 -0.7939 -0.4675
   44MOL0     C 5824   8.936  13.002  10.641  0.5887  0.6094  0.0142
   44MOL0     C 5825   8.905  13.100  10.737 -0.0928  0.6603 -0.4539
   44MOL0     C 5826   9.025  13.114  10.825 -0.0053 -0.5343  0.3148
   44MOL0     C 5827   8.978  13.174  10.966 -0.3573  0.6194  0.3209
   44MOL0     C 5828   8.925  13.056  11.046 -0.2121  0.0664 -0.5420
   44MOL0     O 5829   9.031  12.966  11.077  0.0928  0.0207  0.2447
   44MOL0     C 5830   9.103  12.984  11.191 -0.3860  0.5548 -1.3729
   44MOL0     C 5831   9.104  13.099  11.272 -0.5070 -0.5086  0.3751
   44MOL0     C 5832   9.169  13.103  11.396 -0.5760 -0.8901 -0.1328
   44MOL0     C 5833   9.255  13.004  11.439  0.6087  0.9677  0.5545
   44MOL0     C 5834   9.296  13.016  11.587  0.0105  0.7963 -0.1970
   44MOL0     O 5835   9.309  13.141  11.643 -0.1399 -0.1019  0.0753
   44MOL0     C 5836   9.338  13.156  11.772 -0.6689  1.0158 -0.1691
   44MOL0     C 5837   9.244  13.230  11.861 -0.6083  0.5214 -0.1997
   44MOL0     C 5838   9.275  13.253  11.992 -0.5473  0.2778 -0.7613
   44MOL0     C 5839   9.396  13.211  12.053 -0.2389  0.8272  0.0747
   44MOL0     O 5840   9.420  13.248  12.178  0.3557  0.0893 -0.4160
   44MOL0     C 5841   9.553  13.270  12.205 -0.0295  0.8656 -0.0948
   44MOL0     C 5842   9.563  13.378  12.319  0.5187 -0.7223  1.1349
   44MOL0     C 5843   9.704  13.428  12.337  0.1727  0.4238  0.0752
   44MOL0     C 5844   9.702  13.558  12.412  0.6254  0.3679  0.0014
   44MOL0     C 5845   9.752  13.560  12.554 -0.3843  0.2933  0.9566
   44MOL0     C 5846   9.906  13.536  12.575  1.1177  0.7124 -0.0881
   44MOL0     C 5847  10.003  13.629  12.492 -0.2925 -0.2946  0.0151
   44MOL0     C 5848  10.144  13.558  12.473  0.2496  0.5431 -0.1417
   44MOL0    Cl 5849  10.109  13.430  12.345  0.1423  0.4120  0.4410
   44MOL0     C 5850   9.489  13.128  11.974  0.0524  0.0817  0.1743
   44MOL0     C 5851   9.465  13.108  11.834  0.6807 -0.4470  0.8476
   44MOL0     O 5852   9.301  12.910  11.647  1.1204 -0.3141 -0.3374
   44MOL0     C 5853   9.253  12.885  11.367 -0.6282  1.0380  0.2620
   44MOL0     C 5854   9.181  12.877  11.243  0.0517  0.3035 -0.3540
   44MOL0     N 5855   8.991  13.013  10.511 -0.7293  0.5216 -0.2496
   44MOL0     N 5856   9.013  12.901  10.467 -0.4784  0.0136  0.4980
   44MOL0     C 5857   9.198  11.783  10.945  0.0979  0.5382  0.0346
   44MOL0     C 5858   9.229  11.739  11.075  0.9700  0.2982 -0.3168
   44MOL0     C 5859   9.246  11.493  11.444 -0.9661 -0.6243  0.6556
   44MOL0     C 5860   9.361  11.427  11.501  0.2441  0.7280  0.3289
   44MOL0     C 5861   9.373  11.396  11.632 -0.9127 -0.0464  0.6249
   44MOL0     C 5862   9.277  11.440  11.724  0.4185 -0.3586  0.4000
   44MOL0     O 5863   9.293  11.418  11.862  0.2951  0.3028 -0.4558
   44MOL0     C 5864   9.423  11.382  11.907 -0.0487 -0.5837  0.1196
   44MOL0     C 5865   9.412  11.331  12.052  0.3977  0.5320  0.4825
   44MOL0     C 5866   9.534  11.245  12.084 -0.0749 -0.1455 -0.0159
   44MOL0     C 5867   9.518  11.150  12.205 -0.6449 -0.0389  0.9270
   44MOL0     C 5868   9.473  11.209  12.330  0.4450  0.1974  0.5657
   44MOL0     C 5869   9.420  11.257  12.432  0.1721  0.6205 -0.2516
   44MOL0     C 5870   9.161  11.495  11.675  0.7475  0.7612  0.5789
   44MOL0     C 5871   9.135  11.518  11.534  0.1722 -0.2053  0.2015
   44MOL0     C 5872   8.991  11.578  11.487  0.6732  0.6698 -0.2047
   44MOL0     H 5873   8.985  11.514  11.116  3.0166  0.2017  3.6916
   44MOL0     H 5874   8.916  11.604  10.881  0.9849  0.9174 -0.3128
   44MOL0     H 5875   9.134  11.996  10.767 -0.5232  1.7057  0.1488
   44MOL0     H 5876   9.064  11.939  10.609 -2.8604 -1.1713  0.3317
   44MOL0     H 5877   8.947  12.036  10.878 -2.6947 -0.5368 -0.1541
   44MOL0     H 5878   8.842  11.959  10.747 -2.6006  1.4105  0.9424
   44MOL0     H 5879   8.825  12.207  10.736 -0.4597  1.0576 -2.8613
   44MOL0     H 5880   8.869  12.124  10.597  1.1459 -0.2042 -0.5460
   44MOL0     H 5881   9.076  12.230  10.784 -0.1586 -1.4443  0.3441
   44MOL0     H 5882   9.108  12.184  10.615  2.4358 -1.5799  2.8852
   44MOL0     H 5883   8.983  12.430  10.728  0.2141  0.2300  0.9133
   44MOL0     H 5884   9.119  12.419  10.621  0.6585  1.2117 -1.9986
   44MOL0     H 5885   8.983  12.420  10.435  0.4537 -0.6535  0.7192
   44MOL0     H 5886   8.839  12.360  10.534 -0.6874  0.2347  0.7138
   44MOL0     H 5887   8.826  12.577  10.638  2.3291  0.8777  1.0247
   44MOL0     H 5888   8.808  12.591  10.462  0.2560  0.6228  0.4989
   44MOL0     H 5889   9.052  12.633  10.642 -1.9119  1.3801  1.1123
   44MOL0     H 5890   9.066  12.643  10.462  0.5097 -3.2025  1.3026
   44MOL0     H 5891   8.872  12.825  10.750  1.5147 -0.2104  0.4642
   44MOL0     H 5892   8.886  13.200  10.695 -1.8605  1.4341  1.9392
   44MOL0     H 5893   8.814  13.062  10.785 -0.6507  0.8628 -1.3219
   44MOL0     H 5894   9.077  13.019  10.837 -1.7475 -1.5870 -0.1364
   44MOL0     H 5895   9.094  13.184  10.777 -3.6838  0.3826 -4.3819
   44MOL0     H 5896   8.909  13.257  10.949 -1.9077 -0.8521 -0.9326
   44MOL0     H 5897   9.065  13.214  11.019 -0.6998  0.3276  1.1140
   44MOL0     H 5898   8.839  13.006  11.002 -0.6688 -2.0307  2.4320
   44MOL0     H 5899   8.880  13.104  11.134 -0.1428  2.4112 -1.7173
   44MOL0     H 5900   9.056  13.194  11.253  3.5642  1.3355 -1.9213
   44MOL0     H 5901   9.169  13.192  11.458  3.2669 -0.2451 -0.8015
   44MOL0     H 5902   9.150  13.266  11.821 -1.0155 -1.7317 -1.4444
   44MOL0     H 5903   9.200  13.309  12.048 -0.7637 -2.0155  1.4029
   44MOL0     H 5904   9.602  13.177  12.236 -1.0168  0.5896  0.6868
   44MOL0     H 5905   9.616  13.305  12.123  1.1400 -1.1320 -0.1194
   44MOL0     H 5906   9.512  13.471  12.295  2.5100 -0.2091 -1.5448
   44MOL0     H 5907   9.495  13.355  12.401 -3.1460  0.1039 -1.4344
   44MOL0     H 5908   9.765  13.361  12.399  3.3360  1.8196 -1.3171
   44MOL0     H 5909   9.756  13.442  12.242 -1.4504  2.3306 -0.6087
   44MOL0     H 5910   9.600  13.598  12.416  0.9290  1.9791 -3.8844
   44MOL0     H 5911   9.756  13.631  12.352 -0.3709  0.7990 -0.4046
   44MOL0     H 5912   9.695  13.497  12.624  0.4158 -2.4698 -0.7130
   44MOL0     H 5913   9.756  13.665  12.584  2.7480  0.7349 -0.6417
   44MOL0     H 5914   9.932  13.546  12.681  0.2833 -0.6057  0.2527
   44MOL0     H 5915   9.933  13.437  12.538  1.4426  0.4090  0.9354
   44MOL0     H 5916  10.013  13.726  12.540  0.0778 -0.4307  0.2217
   44MOL0     H 5917   9.971  13.645  12.388  1.1947  1.3087 -0.2375
   44MOL0     H 5918  10.218  13.624  12.427  0.8406 -0.4018 -0.5752
   44MOL0     H 5919  10.186  13.520  12.566 -0.7050 -0.1564  0.0167
   44MOL0     H 5920   9.578  13.098  12.030 -1.0364 -1.7441  1.0158
   44MOL0     H 5921   9.531  13.036  11.787  2.3634  0.7042  1.3782
   44MOL0     H 5922   9.321  12.812  11.410 -1.4280 -0.4696 -0.9771
   44MOL0     H 5923   9.194  12.783  11.189  0.1676  1.6972 -2.8899
   44MOL0     H 5924   9.259  11.862  10.904  5.1188 -1.9545  1.8718
   44MOL0     H 5925   9.310  11.786  11.131 -0.5404  1.9103  0.6097
   44MOL0     H 5926   9.438  11.388  11.434  0.2886  1.8878 -0.3251
   44MOL0     H 5927   9.451  11.325  11.658 -0.8552 -0.4354 -0.5272
   44MOL0     H 5928   9.504  11.455  11.895  1.7209 -2.1274  1.9108
   44MOL0     H 5929   9.447  11.296  11.843 -1.8522  0.5680 -2.2704
   44MOL0     H 5930   9.326  11.267  12.034 -0.2612  1.4779  0.2196
   44MOL0     H 5931   9.390  11.403  12.131  0.8174  0.7582  0.3976
   44MOL0     H 5932   9.615  11.306  12.124  2.1079 -0.8430 -3.0110
   44MOL0     H 5933   9.574  11.187  12.001 -0.2573 -0.8482  0.3722
   44MOL0     H 5934   9.446  11.075  12.170  2.4390 -1.6768 -2.6005
   44MOL0     H 5935   9.605  11.088  12.225 -0.2730  0.3327  0.4904
   44MOL0     H 5936   9.392  11.313  12.519  3.4317  0.8730  0.7641
   44MOL0     H 5937   9.079  11.520  11.741 -0.8803 -0.7589 -0.7935
   44MOL0     H 5938   8.997  11.682  11.452 -2.2366  1.0364  0.1663
   44MOL0     H 5939   8.954  11.515  11.406 -0.4101 -0.1864  0.9358
   44MOL0     H 5940   8.919  11.570  11.569 -1.6029 -2.1565 -2.2903
   45MOL0     O 5941   4.270   9.461   1.235 -0.5783  0.4364  0.0174
   45MOL0     C 5942   4.309   9.469   1.118 -0.3871  0.0546  0.0911
   45MOL0     O 5943   4.370   9.586   1.070 -0.1305  0.8930 -0.2724
   45MOL0     C 5944   4.416   9.669   1.168 -0.3893  0.4242  0.4619
   45MOL0     C 5945   4.549   9.663   1.205  0.4553  0.5555 -0.2347
   45MOL0     C 5946   4.598   9.745   1.304  0.3935  0.0980 -0.1124
   45MOL0     C 5947   4.519   9.843   1.374 -0.9637 -0.7291  0.0472
   45MOL0     O 5948   4.578   9.935   1.461 -0.3555  0.9255 -0.6180
   45MOL0     C 5949   4.503  10.006   1.557  0.1825  0.2456  0.1602
   45MOL0     C 5950   4.586  10.076   1.669  0.2465  0.3404  0.7949
   45MOL0     C 5951   4.498  10.122   1.782 -0.0353 -0.6006 -1.2382
   45MOL0     C 5952   4.452  10.274   1.779 -1.0441  0.7144  0.5569
   45MOL0     C 5953   4.566  10.376   1.802 -0.1148  0.2095 -0.2112
   45MOL0     C 5954   4.521  10.524   1.830  0.1187 -0.3326 -1.4080
   45MOL0     C 5955   4.556  10.581   1.964  0.1123 -0.0911 -0.7707
   45MOL0     C 5956   4.489  10.720   1.996  0.4667 -0.1618 -0.7053
   45MOL0     N 5957   4.549  10.825   1.912 -0.3566 -0.1239  0.5239
   45MOL0     C 5958   4.643  10.910   1.957 -0.3382 -0.5573 -0.1497
   45MOL0     C 5959   4.626  11.026   1.878 -0.5550 -0.5096  0.5439
   45MOL0     C 5960   4.718  11.145   1.900 -0.3163  0.0730  0.4589
   45MOL0     C 5961   4.691  11.243   2.021  0.7655  0.4051 -0.5864
   45MOL0     C 5962   4.754  11.388   2.003  0.3405  0.0935  0.0844
   45MOL0     C 5963   4.728  11.475   2.128 -0.9318 -0.8853  0.1970
   45MOL0     O 5964   4.752  11.610   2.082  0.3229 -0.0765  0.4541
   45MOL0     C 5965   4.738  11.698   2.186  0.9043  0.6724  0.7581
   45MOL0     C 5966   4.657  11.675   2.294 -0.0179 -0.2569 -0.3894
   45MOL0     C 5967   4.630  11.773   2.391 -0.1180 -0.4019  0.0595
   45MOL0     C 5968   4.704  11.899   2.390  0.5731  0.6922  0.8478
   45MOL0     C 5969   4.663  12.006   2.487  0.2690  0.3988  0.4693
   45MOL0     O 5970   4.751  12.106   2.493 -0.1734  0.0380 -0.1187
   45MOL0     C 5971   4.723  12.202   2.583  0.2702 -0.4308  0.2154
   45MOL0     C 5972   4.751  12.175   2.719 -0.2410 -1.2219  0.8043
   45MOL0     C 5973   4.751  12.291   2.813  0.6684 -0.4465 -0.9093
   45MOL0     C 5974   4.718  12.420   2.762 -0.3985  0.6957 -0.4155
   45MOL0     O 5975   4.687  12.521   2.850 -0.7488  0.5657 -0.2879
   45MOL0     C 5976   4.786  12.545   2.947 -0.1421 -0.0684  0.6783
   45MOL0     C 5977   4.810  12.696   2.972  0.6460  0.1580 -0.0929
   45MOL0     C 5978   4.668  12.761   2.995 -0.2079  0.5683  0.0069
   45MOL0     C 5979   4.676  12.891   3.076 -1.1475 -0.1060 -0.3957
   45MOL0     C 5980   4.534  12.934   3.108  0.6731 -0.9538  0.7611
   45MOL0     C 5981   4.516  13.041   3.210 -0.1090  0.2813 -0.2804
   45MOL0     C 5982   4.377  13.014   3.277  0.5567 -0.4033  0.3708
   45MOL0     C 5983   4.328  13.110   3.379 -0.4075  0.3371  0.7925
   45MOL0    Cl 5984   4.439  13.178   3.484 -0.2059 -0.4926  0.3316
   45MOL0     C 5985   4.677  12.434   2.628  0.4440  0.8423 -1.2060
   45MOL0     C 5986   4.691  12.334   2.543 -0.0672  1.5754 -0.4656
   45MOL0     O 5987   4.555  11.993   2.561  0.2805  0.4503  1.0603
   45MOL0     C 5988   4.791  11.909   2.283 -1.3843 -0.1448 -1.1214
   45MOL0     C 5989   4.812  11.818   2.183 -0.0260 -0.4679 -0.5108
   45MOL0     N 5990   4.514  11.004   1.795  0.0347  0.2443  0.1934
   45MOL0     N 5991   4.468  10.888   1.822  0.1522 -0.5233  0.3559
   45MOL0     C 5992   4.391   9.856   1.330 -0.0031  0.3131  0.2844
   45MOL0     C 5993   4.339   9.770   1.227  0.2833 -0.1295  0.4380
   45MOL0     C 5994   4.286   9.359   1.021 -0.1914 -0.1490 -0.8001
   45MOL0     C 5995   4.360   9.351   0.907 -0.5063 -0.8295 -0.1185
   45MOL0     C 5996   4.326   9.263   0.808  0.3149 -0.1632  0.1290
   45MOL0     C 5997   4.241   9.161   0.831  0.3226 -0.2616  0.6436
   45MOL0     O 5998   4.221   9.066   0.731  0.6423 -0.7442 -0.0574
   45MOL0     C 5999   4.095   8.990   0.740  0.2458  0.5218 -0.8304
   45MOL0     C 6000   4.062   8.915   0.607  0.0630  0.2904 -0.5975
   45MOL0     C 6001   4.101   8.997   0.476 -0.2842 -0.5482 -0.4877
   45MOL0     C 6002   4.119   8.887   0.365 -0.2660 -0.0263  0.1090
   45MOL0     C 6003   3.999   8.820   0.324  0.2180 -0.1278 -0.2040
   45MOL0     C 6004   3.887   8.768   0.314 -0.4058  0.6392  1.0196
   45MOL0     C 6005   4.164   9.163   0.951 -0.4610 -0.2300  0.7719
   45MOL0     C 6006   4.187   9.261   1.046  0.8400 -1.0554  1.2097
   45MOL0     C 6007   4.107   9.248   1.183 -0.6532  0.4905  0.3387
   45MOL0     H 6008   4.614   9.589   1.158 -0.5512 -0.1080 -0.6215
   45MOL0     H 6009   4.705   9.729   1.318 -0.1142 -1.5918  2.4751
   45MOL0     H 6010   4.450  10.092   1.514  1.3463  0.6458 -0.5313
   45MOL0     H 6011   4.439   9.937   1.613  0.1424 -0.7165 -1.0306
   45MOL0     H 6012   4.634  10.157   1.612 -0.1621  0.1817  0.2175
   45MOL0     H 6013   4.672  10.016   1.702  0.2369 -0.5885 -0.7555
   45MOL0     H 6014   4.543  10.109   1.881 -2.8509  1.5715  0.4755
   45MOL0     H 6015   4.405  10.065   1.790 -1.0452  0.8501 -2.1908
   45MOL0     H 6016   4.407  10.299   1.682 -0.5776 -1.5684 -0.3214
   45MOL0     H 6017   4.377  10.282   1.858  2.6380 -0.7931  4.6377
   45MOL0     H 6018   4.612  10.334   1.891  0.0729  0.1931 -0.3144
   45MOL0     H 6019   4.646  10.380   1.727  0.3824 -2.7408  0.0656
   45MOL0     H 6020   4.572  10.578   1.750  0.2862  0.6284 -0.6734
   45MOL0     H 6021   4.413  10.535   1.813  0.4077  1.5767 -2.3055
   45MOL0     H 6022   4.664  10.591   1.981  0.3966  0.7812 -2.8596
   45MOL0     H 6023   4.531  10.507   2.041  2.9149 -2.6816 -2.0950
   45MOL0     H 6024   4.383  10.707   1.972 -0.1326  0.3175  1.5097
   45MOL0     H 6025   4.496  10.745   2.102 -1.9520 -1.2303 -0.2324
   45MOL0     H 6026   4.714  10.902   2.039 -1.5332 -0.4196  0.9343
   45MOL0     H 6027   4.816  11.100   1.919 -1.2329 -1.8494  0.8826
   45MOL0     H 6028   4.726  11.202   1.807  0.8260 -1.0843 -0.1865
   45MOL0     H 6029   4.582  11.249   2.018  0.7022 -0.5576 -0.5947
   45MOL0     H 6030   4.714  11.204   2.120  1.0034 -0.5454 -1.0082
   45MOL0     H 6031   4.715  11.438   1.914  0.1468 -1.2039 -0.5918
   45MOL0     H 6032   4.861  11.365   1.998  0.0685 -2.4153  2.9499
   45MOL0     H 6033   4.800  11.446   2.205 -0.7349 -0.2051  0.2745
   45MOL0     H 6034   4.628  11.453   2.166 -1.6733 -0.0551 -1.1678
   45MOL0     H 6035   4.593  11.587   2.303 -0.4629  0.0034 -0.9424
   45MOL0     H 6036   4.550  11.751   2.461 -0.7552 -3.6289 -1.4660
   45MOL0     H 6037   4.772  12.079   2.763  2.4384 -1.4530 -0.7571
   45MOL0     H 6038   4.758  12.284   2.921  2.2685  0.3215 -0.9326
   45MOL0     H 6039   4.771  12.498   3.044  0.5654  2.2897  2.0205
   45MOL0     H 6040   4.885  12.503   2.927 -0.9351 -2.1241  0.8542
   45MOL0     H 6041   4.874  12.714   3.059  0.7231 -4.5465  1.0752
   45MOL0     H 6042   4.865  12.738   2.887  1.7481 -0.6914  0.1844
   45MOL0     H 6043   4.625  12.773   2.895  1.1931  2.2072 -0.4513
   45MOL0     H 6044   4.612  12.686   3.051 -2.8764  0.9932 -1.8756
   45MOL0     H 6045   4.749  12.964   3.040 -1.3137  1.1462  1.6510
   45MOL0     H 6046   4.739  12.867   3.162  1.4205  0.6791 -1.9264
   45MOL0     H 6047   4.478  12.844   3.134 -2.3447  0.5058 -0.2754
   45MOL0     H 6048   4.485  12.988   3.026 -1.4047 -0.4965  2.2420
   45MOL0     H 6049   4.599  13.045   3.282  1.0141 -1.4811 -1.3981
   45MOL0     H 6050   4.522  13.142   3.169  2.1915  0.8320  1.1918
   45MOL0     H 6051   4.376  12.914   3.322 -2.9152 -0.3163  0.7268
   45MOL0     H 6052   4.306  13.016   3.194  0.5047  1.5981  0.4115
   45MOL0     H 6053   4.282  13.181   3.310  1.0129 -2.4074 -3.3738
   45MOL0     H 6054   4.262  13.060   3.450  0.0229  1.1639  1.8059
   45MOL0     H 6055   4.636  12.527   2.589  0.5054  1.5840  0.4204
   45MOL0     H 6056   4.682  12.342   2.435  0.6058 -0.3501 -0.7137
   45MOL0     H 6057   4.863  11.990   2.291 -1.4894 -0.0212 -1.4011
   45MOL0     H 6058   4.892  11.816   2.110 -0.2401  2.0339 -0.8891
   45MOL0     H 6059   4.315   9.915   1.380 -1.2555 -0.9385 -0.0755
   45MOL0     H 6060   4.231   9.780   1.220 -0.0401 -0.1696  3.9376
   45MOL0     H 6061   4.438   9.421   0.878 -1.5752 -0.3248 -1.9996
   45MOL0     H 6062   4.384   9.249   0.717  2.2836  2.3569  0.8836
   45MOL0     H 6063   4.017   9.067   0.743 -1.3292 -0.9415 -2.3129
   45MOL0     H 6064   4.098   8.924   0.827  0.1289 -1.8156 -2.5151
   45MOL0     H 6065   3.956   8.890   0.607  0.1362 -0.1225 -2.1249
   45MOL0     H 6066   4.128   8.830   0.624  0.4755  0.7967  0.4051
   45MOL0     H 6067   4.200   9.042   0.490  1.1303 -3.9042  1.2054
   45MOL0     H 6068   4.028   9.074   0.448  0.7765  0.5240 -0.4247
   45MOL0     H 6069   4.171   8.934   0.281  1.3546 -1.6603  0.1102
   45MOL0     H 6070   4.193   8.811   0.392 -1.1668 -1.2743 -0.8390
   45MOL0     H 6071   3.801   8.706   0.303  0.5328 -0.4039 -1.0645
   45MOL0     H 6072   4.098   9.083   0.983  1.3975 -1.6818  1.1672
   45MOL0     H 6073   4.035   9.166   1.180 -0.4123  0.2189 -3.2079
   45MOL0     H 6074   4.185   9.220   1.255 -1.3254 -1.0979  0.4746
   45MOL0     H 6075   4.055   9.340   1.211  1.5925  0.4408  5.9345
   46MOL0     O 6076   9.567  11.354   7.588  0.5697 -0.4406 -0.5082
   46MOL0     C 6077   9.470  11.358   7.655  0.6896 -0.0659  0.0137
   46MOL0     O 6078   9.356  11.437   7.627  0.7566  0.0786  0.1064
   46MOL0     C 6079   9.376  11.530   7.532 -0.0226 -1.0583 -0.0600
   46MOL0     C 6080   9.393  11.669   7.556 -1.0193 -0.2791  0.4455
   46MOL0     C 6081   9.405  11.757   7.448  0.5527 -0.6363  1.1788
   46MOL0     C 6082   9.391  11.713   7.321  1.6453 -0.6327 -0.3621
   46MOL0     O 6083   9.419  11.798   7.224  0.3836 -0.1562 -0.7024
   46MOL0     C 6084   9.485  11.757   7.097  0.8428  0.2608 -0.8343
   46MOL0     C 6085   9.508  11.885   7.010  0.1576 -0.1768 -0.6720
   46MOL0     C 6086   9.601  11.857   6.892 -1.1232  0.6018  0.4227
   46MOL0     C 6087   9.611  11.982   6.811 -0.6449  0.5202 -0.4460
   46MOL0     C 6088   9.717  11.960   6.698  0.7263  0.6340  0.3021
   46MOL0     C 6089   9.861  11.988   6.733  0.4151 -0.5645 -0.3528
   46MOL0     C 6090   9.959  11.987   6.614  0.6034 -0.3606  0.8265
   46MOL0     C 6091  10.101  11.951   6.660  0.2275  0.3034  0.1072
   46MOL0     N 6092  10.187  11.917   6.539  0.3196  0.0982 -0.1191
   46MOL0     C 6093  10.311  11.976   6.509  0.6051 -0.3311 -0.4455
   46MOL0     C 6094  10.350  11.911   6.398  0.1034 -0.0100  0.7166
   46MOL0     C 6095  10.464  11.938   6.314  0.1435  0.2699 -0.3483
   46MOL0     C 6096  10.429  12.015   6.189  0.1547  0.3357  0.2694
   46MOL0     C 6097  10.556  12.011   6.102  0.5325 -0.1192  0.4756
   46MOL0     C 6098  10.522  12.041   5.956 -0.1837 -0.1094 -0.9448
   46MOL0     O 6099  10.652  12.065   5.901 -0.4673  0.5662  0.1887
   46MOL0     C 6100  10.675  12.062   5.766  0.3262 -0.0373  0.5873
   46MOL0     C 6101  10.808  12.029   5.719 -1.2475  0.0025 -0.1866
   46MOL0     C 6102  10.845  12.033   5.579  0.1835  1.2051 -0.7355
   46MOL0     C 6103  10.750  12.067   5.488  0.0513 -0.4435  0.3370
   46MOL0     C 6104  10.792  12.082   5.346  0.2438 -0.7057 -0.7847
   46MOL0     O 6105  10.687  12.131   5.274  0.1393 -0.2296  0.1216
   46MOL0     C 6106  10.715  12.164   5.143  0.5672  0.6131 -0.4758
   46MOL0     C 6107  10.715  12.295   5.103  0.3555  0.5855  0.9830
   46MOL0     C 6108  10.757  12.336   4.977 -0.1599  0.4766  0.5588
   46MOL0     C 6109  10.798  12.251   4.873 -0.2447  0.0650  0.0583
   46MOL0     O 6110  10.848  12.295   4.756 -0.7179  0.0625  0.5829
   46MOL0     C 6111  10.867  12.199   4.643 -0.1848 -1.6022 -0.9246
   46MOL0     C 6112  10.905  12.267   4.517  0.3150 -0.4592  0.5072
   46MOL0     C 6113  10.801  12.260   4.404 -0.7453  0.9869  0.6702
   46MOL0     C 6114  10.842  12.355   4.284  0.7441  0.0374  0.3034
   46MOL0     C 6115  10.964  12.299   4.213 -0.8229 -0.3985 -0.5012
   46MOL0     C 6116  10.996  12.373   4.080  0.2331 -0.1312 -0.0255
   46MOL0     C 6117  11.145  12.351   4.046  0.5438 -0.4369  0.0626
   46MOL0     C 6118  11.170  12.423   3.913 -0.3265 -0.1613  0.4008
   46MOL0    Cl 6119  11.097  12.346   3.763  0.2089 -0.4647 -0.1809
   46MOL0     C 6120  10.785  12.114   4.910 -0.0349 -0.1726  0.2148
   46MOL0     C 6121  10.734  12.074   5.039 -0.2410 -0.3598 -0.7403
   46MOL0     O 6122  10.912  12.072   5.312  0.0156 -0.8844 -0.3455
   46MOL0     C 6123  10.621  12.107   5.535 -0.0223  0.2900 -0.4837
   46MOL0     C 6124  10.581  12.098   5.669 -0.7726 -0.0274 -0.2876
   46MOL0     N 6125  10.254  11.815   6.359 -1.0002 -0.6055 -0.2557
   46MOL0     N 6126  10.158  11.815   6.451  0.3926  0.1728  0.1544
   46MOL0     C 6127   9.354  11.583   7.295 -1.3801 -0.5726 -0.0970
   46MOL0     C 6128   9.336  11.498   7.403  0.4426  0.6310 -0.0054
   46MOL0     C 6129   9.449  11.265   7.764 -0.9764  0.2788 -0.5927
   46MOL0     C 6130   9.335  11.180   7.747 -0.3362 -0.6313 -0.1930
   46MOL0     C 6131   9.299  11.078   7.843 -1.1172 -1.3556  0.3746
   46MOL0     C 6132   9.371  11.071   7.965  0.8681  0.2402  0.1741
   46MOL0     O 6133   9.324  10.975   8.053  0.4948 -0.4755  0.2704
   46MOL0     C 6134   9.404  10.961   8.172 -0.6810 -0.2596 -0.2651
   46MOL0     C 6135   9.525  10.870   8.149 -0.3664  0.4205  0.3977
   46MOL0     C 6136   9.623  10.868   8.266  0.2427 -0.0436 -0.1454
   46MOL0     C 6137   9.723  10.993   8.270  0.1522  0.4431 -0.8016
   46MOL0     C 6138   9.792  11.025   8.146  0.5985 -0.0264  0.9343
   46MOL0     C 6139   9.838  11.064   8.039 -0.4244  1.0447 -0.2218
   46MOL0     C 6140   9.479  11.167   7.986 -0.8435  0.1770  1.1919
   46MOL0     C 6141   9.525  11.256   7.877  0.4998 -0.2540  0.2744
   46MOL0     C 6142   9.631  11.362   7.907  0.0075  0.3931 -0.2016
   46MOL0     H 6143   9.398  11.707   7.657  0.7187  1.1970 -0.1625
   46MOL0     H 6144   9.425  11.863   7.461  0.6095 -0.2601 -1.5175
   46MOL0     H 6145   9.577  11.708   7.130 -1.6089 -3.5438  1.0783
   46MOL0     H 6146   9.424  11.686   7.040 -1.6324  0.1095  1.7791
   46MOL0     H 6147   9.552  11.971   7.062  1.0319 -0.5754 -0.7331
   46MOL0     H 6148   9.408  11.920   6.980  0.8581  4.7637  1.6787
   46MOL0     H 6149   9.565  11.773   6.832  0.6423 -0.5724  0.9216
   46MOL0     H 6150   9.703  11.837   6.926 -0.6217 -0.1835 -1.4177
   46MOL0     H 6151   9.511  12.007   6.773 -1.6781 -0.2713  1.5854
   46MOL0     H 6152   9.633  12.069   6.875 -1.3139  1.2458 -1.1735
   46MOL0     H 6153   9.704  11.858   6.661 -2.2320  1.6316 -1.7590
   46MOL0     H 6154   9.688  12.034   6.623 -0.0306 -0.2681 -0.3187
   46MOL0     H 6155   9.868  12.092   6.768  0.1480  0.4441 -3.0813
   46MOL0     H 6156   9.883  11.922   6.817 -0.9389 -0.3447  0.2083
   46MOL0     H 6157   9.960  12.089   6.574  1.2642 -0.0856  1.5218
   46MOL0     H 6158   9.933  11.919   6.533  4.0153 -0.2936 -0.4951
   46MOL0     H 6159  10.142  12.035   6.716  0.4661  0.3280 -0.1059
   46MOL0     H 6160  10.101  11.861   6.723 -0.4019  1.6871  2.1907
   46MOL0     H 6161  10.358  12.057   6.565 -1.0717 -0.2366  0.8935
   46MOL0     H 6162  10.528  11.999   6.378 -1.8950  0.4497  1.6303
   46MOL0     H 6163  10.504  11.837   6.299  0.2264 -0.0444  1.7755
   46MOL0     H 6164  10.348  11.962   6.139 -0.9664  1.1969  1.1298
   46MOL0     H 6165  10.400  12.120   6.204  1.9980  1.1176 -1.1786
   46MOL0     H 6166  10.620  11.923   6.116  1.0952  0.1966 -0.0259
   46MOL0     H 6167  10.614  12.096   6.140  0.5501  0.7239 -1.3099
   46MOL0     H 6168  10.480  12.142   5.953  1.2333  0.4955 -1.8901
   46MOL0     H 6169  10.457  11.969   5.905 -3.3732  2.1403 -0.3949
   46MOL0     H 6170  10.869  11.986   5.798  0.1770 -0.8126 -1.6570
   46MOL0     H 6171  10.946  12.011   5.545  0.6290  1.0596  0.5963
   46MOL0     H 6172  10.690  12.378   5.167 -0.2266  1.6758 -0.5897
   46MOL0     H 6173  10.772  12.441   4.954  2.8556  0.5440  2.2692
   46MOL0     H 6174  10.938  12.123   4.678  1.0505 -1.3363 -2.7252
   46MOL0     H 6175  10.766  12.158   4.632 -0.9016 -0.4485  1.0497
   46MOL0     H 6176  10.922  12.375   4.524  0.5602 -0.4547 -0.0400
   46MOL0     H 6177  10.998  12.216   4.488 -1.1471 -3.9685  1.4640
   46MOL0     H 6178  10.780  12.159   4.368 -0.1425  0.0762  2.7069
   46MOL0     H 6179  10.699  12.289   4.434 -0.7261  2.6993 -0.7334
   46MOL0     H 6180  10.853  12.454   4.329  0.4852 -0.4211  1.4127
   46MOL0     H 6181  10.763  12.366   4.209  1.5550  1.8390 -0.3533
   46MOL0     H 6182  10.956  12.190   4.211  1.7009 -0.6878  0.7798
   46MOL0     H 6183  11.052  12.318   4.275 -1.6989  1.6259  0.1933
   46MOL0     H 6184  10.937  12.344   3.993  1.9873 -1.7243 -0.7422
   46MOL0     H 6185  10.983  12.480   4.097  0.3608 -0.1639  0.2936
   46MOL0     H 6186  11.154  12.245   4.019 -2.5487 -0.1676 -2.7783
   46MOL0     H 6187  11.213  12.393   4.120  1.2661 -0.3313 -0.6463
   46MOL0     H 6188  11.139  12.527   3.929 -1.6948 -0.6577  1.1721
   46MOL0     H 6189  11.278  12.431   3.899  0.3462 -3.2506  2.5441
   46MOL0     H 6190  10.799  12.045   4.828 -1.5828 -1.0099  0.6204
   46MOL0     H 6191  10.731  11.969   5.066  2.5794 -0.4367 -0.4072
   46MOL0     H 6192  10.546  12.152   5.472 -1.0201 -0.9545 -0.2176
   46MOL0     H 6193  10.482  12.130   5.700 -0.9606 -0.0956 -0.8067
   46MOL0     H 6194   9.327  11.546   7.196 -2.6781 -0.6882  0.2754
   46MOL0     H 6195   9.298  11.398   7.386  1.1853  0.0169  1.7298
   46MOL0     H 6196   9.274  11.203   7.660  2.0113  1.5837 -1.3965
   46MOL0     H 6197   9.215  11.012   7.825  0.5888 -2.6731 -3.9751
   46MOL0     H 6198   9.352  10.911   8.254  3.8922 -2.5992  1.5655
   46MOL0     H 6199   9.432  11.056   8.219 -0.8167 -0.5346  0.3857
   46MOL0     H 6200   9.573  10.886   8.052  0.6684 -1.0587  0.6458
   46MOL0     H 6201   9.482  10.771   8.132  0.0123  0.7060 -3.1894
   46MOL0     H 6202   9.682  10.776   8.256  0.2929  0.0205 -0.4560
   46MOL0     H 6203   9.570  10.867   8.361 -0.4612  1.9794 -0.4648
   46MOL0     H 6204   9.663  11.075   8.309 -0.7378  0.4881 -2.1978
   46MOL0     H 6205   9.794  10.965   8.349 -1.3472  1.6437  1.0389
   46MOL0     H 6206   9.884  11.095   7.948 -1.0454  2.0174 -0.2191
   46MOL0     H 6207   9.553  11.145   8.062  1.1477 -2.5102 -1.2857
   46MOL0     H 6208   9.671  11.349   8.008  0.5589  0.9807 -0.3338
   46MOL0     H 6209   9.714  11.363   7.835 -1.2621  0.0291 -1.7237
   46MOL0     H 6210   9.583  11.460   7.914  1.8471  1.3661 -0.3539
   47MOL0     O 6211   4.532   2.980   1.001 -0.3690 -0.0395  0.9510
   47MOL0     C 6212   4.453   3.074   1.016  0.8290  0.9015  0.3881
   47MOL0     O 6213   4.448   3.186   0.939 -0.4940 -0.2201 -0.4779
   47MOL0     C 6214   4.553   3.222   0.860  1.3486  0.7134  0.1313
   47MOL0     C 6215   4.690   3.193   0.881 -0.6031 -0.9372 -0.4927
   47MOL0     C 6216   4.785   3.223   0.782  0.1442  0.5986  0.9349
   47MOL0     C 6217   4.745   3.277   0.660 -0.4563 -0.9082  1.1410
   47MOL0     O 6218   4.819   3.292   0.549 -0.1194 -0.0038 -1.0468
   47MOL0     C 6219   4.922   3.201   0.531 -0.0593  0.7520 -0.8028
   47MOL0     C 6220   4.991   3.232   0.401  0.9715  0.8767 -0.0827
   47MOL0     C 6221   5.106   3.144   0.358  0.9607 -0.4819  0.2745
   47MOL0     C 6222   5.197   3.190   0.240  0.7546  0.2550 -0.5405
   47MOL0     C 6223   5.310   3.092   0.235  0.6289 -0.0365  0.3209
   47MOL0     C 6224   5.292   2.969   0.162  0.1878  0.5022  0.4300
   47MOL0     C 6225   5.433   2.909   0.150 -0.2778  0.6560  0.1996
   47MOL0     C 6226   5.418   2.750   0.142  0.3072  0.7572 -0.2382
   47MOL0     N 6227   5.541   2.704   0.073 -0.6415  0.1639 -0.2929
   47MOL0     C 6228   5.558   2.645  -0.053 -0.5409 -0.4937  0.6046
   47MOL0     C 6229   5.686   2.594  -0.052  0.9413 -0.2021 -0.2722
   47MOL0     C 6230   5.728   2.512  -0.170  0.0084  0.0443  1.0004
   47MOL0     C 6231   5.745   2.590  -0.298 -0.4984  0.1239 -1.1119
   47MOL0     C 6232   5.723   2.483  -0.406  0.1002  0.5249  0.0002
   47MOL0     C 6233   5.831   2.375  -0.416  0.1923 -0.2770 -0.6209
   47MOL0     O 6234   5.958   2.444  -0.425 -0.9897  0.2141 -0.6712
   47MOL0     C 6235   6.075   2.367  -0.408  0.3141  0.2278 -0.5263
   47MOL0     C 6236   6.072   2.244  -0.331  0.2901  0.3431  0.1508
   47MOL0     C 6237   6.198   2.177  -0.321 -0.5281 -0.2484 -0.4241
   47MOL0     C 6238   6.316   2.218  -0.370 -0.8471 -0.2751  1.8403
   47MOL0     C 6239   6.438   2.131  -0.356  0.3589  0.5299  0.2338
   47MOL0     O 6240   6.427   2.007  -0.316  0.0575 -0.3020 -0.5509
   47MOL0     C 6241   6.531   1.918  -0.288 -0.3018 -0.1085  0.0452
   47MOL0     C 6242   6.503   1.783  -0.320  0.1414  0.2179  0.2464
   47MOL0     C 6243   6.595   1.682  -0.293 -0.0418 -0.2870  0.3651
   47MOL0     C 6244   6.723   1.710  -0.239  1.0660 -0.5280  0.8298
   47MOL0     O 6245   6.822   1.623  -0.200 -0.2953  0.0438 -0.0768
   47MOL0     C 6246   6.814   1.491  -0.247 -0.1161  0.2167  0.8837
   47MOL0     C 6247   6.951   1.466  -0.316 -0.2553 -0.8026 -0.5750
   47MOL0     C 6248   6.944   1.333  -0.388 -0.2334  0.8886 -0.0962
   47MOL0     C 6249   7.087   1.263  -0.402  0.0416 -0.3081  0.2323
   47MOL0     C 6250   7.081   1.150  -0.506  0.1238  0.0963  1.0526
   47MOL0     C 6251   7.201   1.053  -0.488  0.0304  1.0334  0.2196
   47MOL0     C 6252   7.213   0.959  -0.609  0.3640  0.7400 -0.3145
   47MOL0     C 6253   7.339   0.874  -0.616  0.8193 -0.4580 -0.3533
   47MOL0    Cl 6254   7.408   0.798  -0.462 -0.2237 -0.0599 -0.3320
   47MOL0     C 6255   6.749   1.841  -0.211  0.5339  0.2964  0.1202
   47MOL0     C 6256   6.654   1.944  -0.223  0.6560  0.1110  0.3600
   47MOL0     O 6257   6.545   2.184  -0.380  0.2619 -0.5432  0.1235
   47MOL0     C 6258   6.317   2.337  -0.445 -0.3821 -0.1562  0.5041
   47MOL0     C 6259   6.194   2.410  -0.462  0.1440  0.4585 -0.1912
   47MOL0     N 6260   5.751   2.632   0.073  0.5870 -0.1259  0.2567
   47MOL0     N 6261   5.658   2.685   0.146 -0.1389  0.2683  0.0782
   47MOL0     C 6262   4.613   3.332   0.646 -0.9613 -0.3610 -0.9218
   47MOL0     C 6263   4.519   3.304   0.751  0.0804 -0.6437 -0.0625
   47MOL0     C 6264   4.348   3.058   1.116  0.3659  0.0653  0.1744
   47MOL0     C 6265   4.281   3.177   1.154  0.0504  0.1218 -0.0108
   47MOL0     C 6266   4.182   3.171   1.250  0.4851 -0.3713 -0.0573
   47MOL0     C 6267   4.149   3.056   1.320 -0.2289  0.3884 -0.5414
   47MOL0     O 6268   4.054   3.062   1.424 -0.2213 -0.4136 -0.8505
   47MOL0     C 6269   4.035   2.947   1.507 -0.2084 -0.0570  0.5759
   47MOL0     C 6270   3.972   3.011   1.632  0.1352 -0.1303  0.0840
   47MOL0     C 6271   3.827   3.030   1.600  0.0409  0.2266  0.1808
   47MOL0     C 6272   3.743   3.081   1.727  0.6625  0.5434  0.6968
   47MOL0     C 6273   3.606   3.035   1.702  0.1142 -0.2440 -1.3695
   47MOL0     C 6274   3.486   3.010   1.686  0.2321  0.0040  0.5723
   47MOL0     C 6275   4.208   2.937   1.282  0.1208  0.4805  0.3264
   47MOL0     C 6276   4.309   2.932   1.179 -1.5180  0.0118 -0.1986
   47MOL0     C 6277   4.379   2.796   1.164 -0.3804  0.0644  0.4941
   47MOL0     H 6278   4.713   3.144   0.975 -0.5842 -2.0864 -1.0805
   47MOL0     H 6279   4.889   3.195   0.794  0.1422  1.2675  2.8614
   47MOL0     H 6280   4.996   3.216   0.611 -1.9018 -1.4912  1.4950
   47MOL0     H 6281   4.899   3.095   0.544 -3.2084  1.4207 -0.1408
   47MOL0     H 6282   5.018   3.336   0.421 -2.7017  1.9957 -0.2520
   47MOL0     H 6283   4.910   3.220   0.328  1.5661 -0.4848 -0.5616
   47MOL0     H 6284   5.061   3.052   0.319 -5.1151  2.0220  0.2604
   47MOL0     H 6285   5.161   3.119   0.449 -3.1858  1.3316  3.6239
   47MOL0     H 6286   5.136   3.198   0.149  0.6839 -3.4999 -0.9648
   47MOL0     H 6287   5.239   3.288   0.264  1.0946  0.0510 -0.3024
   47MOL0     H 6288   5.389   3.148   0.185  0.7218  1.1853  1.7614
   47MOL0     H 6289   5.343   3.079   0.339 -0.6701 -2.9328  0.4562
   47MOL0     H 6290   5.224   2.909   0.224 -3.0815  4.3041  0.9478
   47MOL0     H 6291   5.241   2.980   0.066 -2.4815 -4.2217  0.9821
   47MOL0     H 6292   5.478   2.929   0.248 -3.2694  3.0373  1.2527
   47MOL0     H 6293   5.494   2.955   0.072  1.0415  1.1940  1.5019
   47MOL0     H 6294   5.410   2.712   0.244  0.4057 -0.5534 -0.7009
   47MOL0     H 6295   5.332   2.713   0.085  0.7239  0.4301 -0.6638
   47MOL0     H 6296   5.483   2.625  -0.128  0.4538 -1.7591 -0.0794
   47MOL0     H 6297   5.828   2.472  -0.147 -0.3638 -2.9339 -1.7428
   47MOL0     H 6298   5.666   2.423  -0.187  0.6720  0.0991 -2.5558
   47MOL0     H 6299   5.678   2.676  -0.305  0.7587  1.0712 -2.0940
   47MOL0     H 6300   5.840   2.643  -0.311  0.3416 -1.1751 -0.4988
   47MOL0     H 6301   5.714   2.521  -0.508 -0.4383 -1.8946 -0.9336
   47MOL0     H 6302   5.622   2.440  -0.406  1.2767 -2.6028 -2.5142
   47MOL0     H 6303   5.832   2.306  -0.500 -1.4602 -1.0474 -0.0404
   47MOL0     H 6304   5.820   2.307  -0.331  1.1255  0.3824  0.0509
   47MOL0     H 6305   5.987   2.198  -0.281 -0.0054  0.9505  0.2200
   47MOL0     H 6306   6.202   2.095  -0.250  2.1522 -2.9282 -3.3219
   47MOL0     H 6307   6.408   1.761  -0.368  0.0253 -0.9644  0.9813
   47MOL0     H 6308   6.576   1.576  -0.302 -1.2300 -0.3196  2.6921
   47MOL0     H 6309   6.806   1.415  -0.168  2.5568 -1.5074 -0.3588
   47MOL0     H 6310   6.735   1.475  -0.321 -1.0505  0.0798  1.8830
   47MOL0     H 6311   6.968   1.545  -0.390  0.7962  0.9076  1.3955
   47MOL0     H 6312   7.037   1.487  -0.253 -1.5971  1.1456  0.7050
   47MOL0     H 6313   6.869   1.272  -0.337 -2.1005  0.9847 -2.5254
   47MOL0     H 6314   6.906   1.335  -0.491 -0.6967 -1.2179 -0.0174
   47MOL0     H 6315   7.132   1.240  -0.305  1.1523  2.3568  0.4272
   47MOL0     H 6316   7.148   1.340  -0.450  0.8520  0.1476  1.9161
   47MOL0     H 6317   7.070   1.200  -0.602 -1.4853  1.4734  1.8959
   47MOL0     H 6318   6.990   1.094  -0.483  0.7995 -1.8831 -0.7481
   47MOL0     H 6319   7.300   1.097  -0.481  0.1345  0.9769 -0.7495
   47MOL0     H 6320   7.184   0.992  -0.398  1.3610  1.7791  1.0012
   47MOL0     H 6321   7.211   1.021  -0.700 -2.2791  1.4633  0.1680
   47MOL0     H 6322   7.127   0.893  -0.612  1.4647 -0.7539  0.0071
   47MOL0     H 6323   7.318   0.788  -0.679  0.9749  0.8811 -2.2980
   47MOL0     H 6324   7.411   0.948  -0.652  0.8937  1.4743  3.2390
   47MOL0     H 6325   6.841   1.862  -0.156  0.2638 -0.6855  1.0072
   47MOL0     H 6326   6.671   2.043  -0.182  0.1416  0.4049 -0.1116
   47MOL0     H 6327   6.413   2.378  -0.476  0.5622 -0.3136  2.9469
   47MOL0     H 6328   6.191   2.488  -0.537 -0.2452  0.0629 -0.6041
   47MOL0     H 6329   4.571   3.360   0.550 -2.4236  1.8212  0.2623
   47MOL0     H 6330   4.415   3.331   0.737  1.2236  3.7709 -1.7328
   47MOL0     H 6331   4.308   3.277   1.120  1.1980  0.3826  1.5817
   47MOL0     H 6332   4.128   3.253   1.297 -3.3979 -2.8993  0.3827
   47MOL0     H 6333   4.129   2.899   1.538  0.4961  2.8718  3.4812
   47MOL0     H 6334   3.970   2.870   1.463 -1.8515 -0.4575  3.4309
   47MOL0     H 6335   4.028   3.100   1.663 -1.0051  1.3060 -1.7258
   47MOL0     H 6336   3.975   2.941   1.716  0.2455 -1.0260 -0.6539
   47MOL0     H 6337   3.780   2.944   1.553  1.3333 -0.0723 -0.6145
   47MOL0     H 6338   3.814   3.110   1.526 -1.9036  1.6465  1.9469
   47MOL0     H 6339   3.771   3.019   1.813 -2.2686  2.9311  3.6394
   47MOL0     H 6340   3.747   3.187   1.753 -1.0482  0.7321  0.3138
   47MOL0     H 6341   3.385   2.981   1.663 -0.6244  2.3066  1.1141
   47MOL0     H 6342   4.193   2.845   1.338  1.9220 -1.5028 -2.1650
   47MOL0     H 6343   4.477   2.799   1.212 -0.5765  0.0706  0.8948
   47MOL0     H 6344   4.314   2.724   1.214  0.8813  0.7690  3.3243
   47MOL0     H 6345   4.393   2.778   1.057 -2.1424 -1.7108  0.5148
   48MOL0     O 6346  11.006   3.836   0.308 -0.4826  0.4433 -0.3293
   48MOL0     C 6347  11.102   3.876   0.244  0.3507  0.2158 -0.6080
   48MOL0     O 6348  11.230   3.831   0.270 -0.6160  0.2323 -1.3610
   48MOL0     C 6349  11.241   3.700   0.329 -0.5242 -0.6747  0.3590
   48MOL0     C 6350  11.222   3.688   0.460 -0.2404  0.7710  0.5120
   48MOL0     C 6351  11.223   3.559   0.517 -0.7848  0.1010 -0.1237
   48MOL0     C 6352  11.265   3.441   0.446 -0.8350 -0.2521 -0.2653
   48MOL0     O 6353  11.291   3.320   0.501  0.0787  0.7036 -0.5952
   48MOL0     C 6354  11.282   3.291   0.640  0.1409  0.0083 -0.6179
   48MOL0     C 6355  11.234   3.139   0.656  0.2029  0.0214  0.2804
   48MOL0     C 6356  11.091   3.112   0.599 -0.7316 -0.1794  0.6795
   48MOL0     C 6357  11.019   2.995   0.655 -0.1266 -0.6892  0.9550
   48MOL0     C 6358  10.864   3.002   0.596  0.1576  0.2705 -0.9163
   48MOL0     C 6359  10.767   2.991   0.713  0.3505 -0.1214  0.4539
   48MOL0     C 6360  10.631   2.924   0.668  0.1931 -0.5642 -0.5624
   48MOL0     C 6361  10.623   2.779   0.617 -0.5597 -0.1154  0.7812
   48MOL0     N 6362  10.510   2.776   0.520  0.1670 -0.1050 -0.8239
   48MOL0     C 6363  10.380   2.765   0.552 -0.1016  0.4111 -0.0386
   48MOL0     C 6364  10.317   2.784   0.431  0.9872  0.7675 -0.7045
   48MOL0     C 6365  10.171   2.773   0.399 -0.3074  0.4297 -0.4536
   48MOL0     C 6366  10.114   2.635   0.437  0.7543 -0.0424 -0.4260
   48MOL0     C 6367   9.962   2.618   0.444  0.9012 -0.4688 -0.2596
   48MOL0     C 6368   9.920   2.630   0.288  1.0810 -0.9198 -0.4262
   48MOL0     O 6369   9.888   2.768   0.263 -0.1764 -0.9688  0.0339
   48MOL0     C 6370   9.867   2.795   0.129  0.0158  0.3385 -0.4361
   48MOL0     C 6371   9.933   2.908   0.078 -0.3750  0.4547 -0.0162
   48MOL0     C 6372   9.911   2.969  -0.046  0.0082  0.4754  0.9395
   48MOL0     C 6373   9.843   2.894  -0.144 -0.0317 -0.1080 -0.5286
   48MOL0     C 6374   9.801   2.960  -0.275 -0.3776  0.7996  0.6325
   48MOL0     O 6375   9.735   2.873  -0.354  0.4075 -0.0607  0.1890
   48MOL0     C 6376   9.688   2.916  -0.481  0.7765 -0.7572 -0.1695
   48MOL0     C 6377   9.775   2.916  -0.591  0.9089 -0.5135 -1.0674
   48MOL0     C 6378   9.738   2.931  -0.724  0.2650 -1.4625 -0.7611
   48MOL0     C 6379   9.604   2.965  -0.755 -0.7311 -0.5996 -0.1030
   48MOL0     O 6380   9.551   2.994  -0.879  0.4743 -0.2695  0.5823
   48MOL0     C 6381   9.648   3.023  -0.977 -0.6955  0.0168  0.5317
   48MOL0     C 6382   9.591   3.109  -1.090  0.6083  0.6542 -0.8351
   48MOL0     C 6383   9.618   3.058  -1.233 -0.1559 -0.4178 -0.1723
   48MOL0     C 6384   9.575   3.178  -1.331 -0.4222 -0.5154  0.0681
   48MOL0     C 6385   9.625   3.159  -1.478  0.1543 -0.6784  0.4907
   48MOL0     C 6386   9.538   3.238  -1.573  0.6706 -0.2662  0.1626
   48MOL0     C 6387   9.564   3.213  -1.728 -0.9569  0.0828 -0.2863
   48MOL0     C 6388   9.454   3.267  -1.812  0.1125 -0.1150  0.1790
   48MOL0    Cl 6389   9.529   3.289  -1.979  0.0068 -0.1972  0.0098
   48MOL0     C 6390   9.512   2.974  -0.648 -0.3640  0.1634  0.9917
   48MOL0     C 6391   9.553   2.938  -0.516  0.9555  0.2892  0.0119
   48MOL0     O 6392   9.814   3.079  -0.296 -0.1052  0.7649 -0.1268
   48MOL0     C 6393   9.782   2.775  -0.102 -0.4059  0.3376 -0.1991
   48MOL0     C 6394   9.795   2.722   0.031 -0.0835 -1.0103 -0.5593
   48MOL0     N 6395  10.403   2.818   0.336 -0.4754  0.0871  1.3033
   48MOL0     N 6396  10.519   2.819   0.387 -0.2149 -0.2064 -0.0971
   48MOL0     C 6397  11.287   3.462   0.315 -0.8071  0.6865 -0.1432
   48MOL0     C 6398  11.281   3.588   0.252 -0.3669 -0.4213 -0.0716
   48MOL0     C 6399  11.098   3.976   0.139  0.4958  0.2003 -0.2111
   48MOL0     C 6400  11.214   4.039   0.101 -0.0398 -0.4355 -0.7248
   48MOL0     C 6401  11.210   4.142   0.008  0.6599 -0.5116 -0.6687
   48MOL0     C 6402  11.088   4.185  -0.046  0.5653 -1.0239  0.6050
   48MOL0     O 6403  11.092   4.285  -0.143  0.1623 -0.2575  0.2991
   48MOL0     C 6404  10.982   4.335  -0.212 -0.4158 -0.2650  0.3667
   48MOL0     C 6405  11.012   4.406  -0.339 -0.9788 -0.0752  0.9048
   48MOL0     C 6406  11.095   4.540  -0.335 -0.3790  0.1431  0.2604
   48MOL0     C 6407  11.218   4.543  -0.243 -0.3661 -0.0663 -0.2179
   48MOL0     C 6408  11.291   4.672  -0.260  0.2560 -0.1546  0.3670
   48MOL0     C 6409  11.353   4.770  -0.272 -0.5606  0.2484 -0.4984
   48MOL0     C 6410  10.971   4.123  -0.013  0.4147 -0.2649  0.7632
   48MOL0     C 6411  10.975   4.011   0.076 -0.0776 -0.6365 -0.2934
   48MOL0     C 6412  10.840   3.944   0.109  0.0306  0.0501  1.0659
   48MOL0     H 6413  11.213   3.776   0.523  1.8280  1.1325  0.3611
   48MOL0     H 6414  11.228   3.547   0.624  0.4355  0.7122 -0.0876
   48MOL0     H 6415  11.376   3.307   0.693  0.1123 -1.0717 -0.2040
   48MOL0     H 6416  11.204   3.346   0.693 -1.1600 -3.1151  0.9900
   48MOL0     H 6417  11.239   3.114   0.763  2.7721  0.6905  0.3728
   48MOL0     H 6418  11.315   3.085   0.605  0.2437  1.7489 -1.5890
   48MOL0     H 6419  11.098   3.107   0.490  2.2687 -1.7150  0.8463
   48MOL0     H 6420  11.041   3.208   0.612  1.3133  1.1337 -0.4705
   48MOL0     H 6421  11.078   2.907   0.628  2.7847  1.8210 -1.8298
   48MOL0     H 6422  11.014   3.006   0.764  1.7421 -2.3555  1.2749
   48MOL0     H 6423  10.842   3.092   0.538 -0.4830  3.0100  3.1736
   48MOL0     H 6424  10.849   2.918   0.528  0.1337  1.8970 -3.0525
   48MOL0     H 6425  10.814   2.927   0.788 -0.4956  0.0117  1.1085
   48MOL0     H 6426  10.753   3.090   0.758 -0.5801  0.3981 -0.9058
   48MOL0     H 6427  10.607   2.993   0.587  1.7175 -0.0910 -0.6404
   48MOL0     H 6428  10.559   2.936   0.749  0.0664  0.7228 -0.8394
   48MOL0     H 6429  10.714   2.736   0.572  0.5049  2.9148 -0.2100
   48MOL0     H 6430  10.592   2.722   0.705 -5.3696 -1.0784 -1.2455
   48MOL0     H 6431  10.342   2.755   0.654  0.6328  2.3915  0.4736
   48MOL0     H 6432  10.120   2.859   0.444  0.2148 -0.1365  1.3293
   48MOL0     H 6433  10.156   2.780   0.291  1.2594 -1.9152 -0.8943
   48MOL0     H 6434  10.147   2.563   0.362 -1.3110 -0.4238 -1.0232
   48MOL0     H 6435  10.152   2.606   0.536  1.0532  0.6632 -0.3290
   48MOL0     H 6436   9.910   2.688   0.510  0.7838 -1.8690  1.1963
   48MOL0     H 6437   9.935   2.517   0.474 -0.3376 -0.2749 -0.6874
   48MOL0     H 6438   9.831   2.566   0.279  1.8327 -2.0187 -0.1989
   48MOL0     H 6439   9.999   2.590   0.224  1.9635 -0.7151  0.5034
   48MOL0     H 6440   9.995   2.956   0.154 -0.7994  1.7932 -0.4721
   48MOL0     H 6441   9.948   3.067  -0.075 -0.8642  1.9586  4.3921
   48MOL0     H 6442   9.873   2.872  -0.572  0.5505 -0.9383 -0.0974
   48MOL0     H 6443   9.804   2.939  -0.810 -1.2051 -1.5326 -1.9439
   48MOL0     H 6444   9.738   3.077  -0.947 -2.2910  2.1150  1.9264
   48MOL0     H 6445   9.683   2.927  -1.015  1.7393  1.8228 -2.2271
   48MOL0     H 6446   9.481   3.104  -1.092  0.6580 -3.0242 -2.5431
   48MOL0     H 6447   9.630   3.208  -1.067 -2.8788  2.3354 -1.4464
   48MOL0     H 6448   9.725   3.034  -1.236  0.3549  0.6345  3.6449
   48MOL0     H 6449   9.561   2.967  -1.253 -0.1372 -0.9843  2.1251
   48MOL0     H 6450   9.610   3.278  -1.304  0.2464 -0.8714  0.5278
   48MOL0     H 6451   9.466   3.186  -1.333 -0.3180  1.4724  0.5287
   48MOL0     H 6452   9.606   3.055  -1.506 -2.8224 -0.5989  1.8159
   48MOL0     H 6453   9.726   3.200  -1.487 -0.5149  0.6591 -1.5109
   48MOL0     H 6454   9.433   3.222  -1.545 -0.0831  1.1390 -1.6478
   48MOL0     H 6455   9.550   3.346  -1.564 -1.5886  0.1625 -1.1226
   48MOL0     H 6456   9.585   3.107  -1.742 -2.6885 -0.7548  2.5827
   48MOL0     H 6457   9.650   3.270  -1.765 -1.7360  1.3324 -0.2501
   48MOL0     H 6458   9.376   3.190  -1.819  0.3747 -0.4333  0.7206
   48MOL0     H 6459   9.409   3.362  -1.783  0.3768  0.4317 -1.1208
   48MOL0     H 6460   9.405   2.989  -0.657 -0.0326  1.4215 -2.0716
   48MOL0     H 6461   9.481   2.932  -0.435  0.4649  3.2404 -0.0957
   48MOL0     H 6462   9.729   2.715  -0.175 -3.1842  1.1475  1.0217
   48MOL0     H 6463   9.749   2.626   0.048  2.2793 -1.7329  2.8801
   48MOL0     H 6464  11.319   3.376   0.259 -1.1819 -0.8102  1.8185
   48MOL0     H 6465  11.288   3.593   0.144 -3.0158  1.7408 -0.2597
   48MOL0     H 6466  11.310   4.011   0.144 -1.1506 -1.8036  0.9883
   48MOL0     H 6467  11.309   4.181  -0.016  0.5578  0.4449  0.3706
   48MOL0     H 6468  10.934   4.404  -0.141  4.1959  2.5099  1.2300
   48MOL0     H 6469  10.910   4.258  -0.241  1.2158 -1.1366 -1.6346
   48MOL0     H 6470  10.920   4.441  -0.388 -0.8982 -1.6919 -0.5030
   48MOL0     H 6471  11.061   4.335  -0.406  0.8506  1.4655  0.4909
   48MOL0     H 6472  11.020   4.612  -0.301  0.6740  1.7606 -0.7059
   48MOL0     H 6473  11.126   4.562  -0.437  1.2394  0.3763  0.7744
   48MOL0     H 6474  11.199   4.546  -0.135 -1.7765 -0.7739 -0.4201
   48MOL0     H 6475  11.280   4.454  -0.251 -0.2749 -0.0141 -0.0976
   48MOL0     H 6476  11.408   4.856  -0.305 -1.5667  0.9187 -0.4670
   48MOL0     H 6477  10.872   4.137  -0.055  0.6342 -5.7593 -2.5153
   48MOL0     H 6478  10.791   3.982   0.199  1.9311  0.9908  1.7553
   48MOL0     H 6479  10.779   3.944   0.018 -1.4146  0.0517  2.0033
   48MOL0     H 6480  10.858   3.838   0.132  0.6974 -0.0207  0.2357
   49MOL0     O 6481   0.604  10.285   6.951 -0.2666 -0.5472  0.6279
   49MOL0     C 6482   0.529  10.238   6.868  0.0972 -0.1451  0.2381
   49MOL0     O 6483   0.431  10.307   6.798 -0.4008  0.3950  0.4874
   49MOL0     C 6484   0.437  10.445   6.816 -1.1373  0.4566 -0.3108
   49MOL0     C 6485   0.531  10.527   6.758  0.1835  0.3824 -0.0091
   49MOL0     C 6486   0.529  10.671   6.770 -0.2480 -0.3488  0.3180
   49MOL0     C 6487   0.431  10.733   6.848 -0.9947  0.0106 -1.1601
   49MOL0     O 6488   0.423  10.861   6.871  0.0069 -0.0370 -0.2287
   49MOL0     C 6489   0.544  10.934   6.854  0.1229 -0.3098 -0.1395
   49MOL0     C 6490   0.525  11.075   6.903 -1.1360 -0.0814  0.2093
   49MOL0     C 6491   0.450  11.084   7.039 -1.3082  0.4439  1.0377
   49MOL0     C 6492   0.404  11.216   7.077  0.9833  0.0835  0.2262
   49MOL0     C 6493   0.515  11.316   7.089  0.3288 -0.6033 -0.7594
   49MOL0     C 6494   0.471  11.456   7.143  0.9626  0.3959 -0.3495
   49MOL0     C 6495   0.361  11.522   7.062  0.3894  0.6353 -0.3065
   49MOL0     C 6496   0.326  11.659   7.106  0.6253 -0.0182 -1.0047
   49MOL0     N 6497   0.218  11.716   7.036  0.0142 -0.3121  1.0901
   49MOL0     C 6498   0.081  11.693   7.067  0.3570 -0.8745  1.0737
   49MOL0     C 6499   0.009  11.747   6.959 -0.5419  0.8485 -0.7408
   49MOL0     C 6500  -0.140  11.759   6.963 -0.3858  0.8354 -1.1368
   49MOL0     C 6501  -0.189  11.875   7.053 -1.3415  1.5024 -0.6031
   49MOL0     C 6502  -0.328  11.910   7.015 -0.9106 -0.9342  0.9560
   49MOL0     C 6503  -0.404  12.001   7.105 -0.3689  0.4167 -0.0141
   49MOL0     O 6504  -0.544  11.994   7.073 -0.0080 -0.0446  0.0453
   49MOL0     C 6505  -0.590  12.072   6.965 -0.7027 -0.0279 -1.5261
   49MOL0     C 6506  -0.518  12.182   6.912  0.1591  0.2797 -0.2679
   49MOL0     C 6507  -0.571  12.243   6.798  0.4913  0.3119  0.6224
   49MOL0     C 6508  -0.703  12.218   6.753  1.0872  0.2692  1.2652
   49MOL0     C 6509  -0.752  12.304   6.640  0.8290  0.6627 -0.8898
   49MOL0     O 6510  -0.888  12.300   6.621  0.4229 -0.1327 -0.0540
   49MOL0     C 6511  -0.944  12.399   6.541 -0.0939  0.6713 -0.0313
   49MOL0     C 6512  -0.917  12.410   6.407 -0.0735  0.2126 -0.1335
   49MOL0     C 6513  -0.967  12.514   6.339  0.9899  0.0648 -0.0830
   49MOL0     C 6514  -1.047  12.611   6.400 -0.4335  0.1421 -1.1230
   49MOL0     O 6515  -1.073  12.705   6.305  0.3854 -0.7882 -0.2396
   49MOL0     C 6516  -1.177  12.802   6.341 -0.3723 -0.1505  0.0897
   49MOL0     C 6517  -1.321  12.748   6.354 -0.4086  1.7295 -0.1491
   49MOL0     C 6518  -1.367  12.635   6.259 -0.4859 -0.0903  0.2264
   49MOL0     C 6519  -1.460  12.523   6.318 -0.0445 -0.7754  0.6512
   49MOL0     C 6520  -1.455  12.400   6.224 -0.1131 -0.1512 -0.3871
   49MOL0     C 6521  -1.486  12.272   6.301  0.7894  1.1550  0.3372
   49MOL0     C 6522  -1.484  12.148   6.210  0.7101  0.0271  0.4386
   49MOL0     C 6523  -1.633  12.118   6.170 -1.3671 -0.6343  0.2867
   49MOL0    Cl 6524  -1.654  12.147   5.993  0.5593  0.2020 -0.0055
   49MOL0     C 6525  -1.079  12.603   6.540  0.5446 -0.3787  0.9230
   49MOL0     C 6526  -1.031  12.490   6.603 -0.3198 -0.2960 -0.0916
   49MOL0     O 6527  -0.668  12.381   6.586  0.2167  0.1144  0.5390
   49MOL0     C 6528  -0.771  12.106   6.799  0.1521  0.5447 -0.1636
   49MOL0     C 6529  -0.708  12.033   6.900  0.2732  0.9754  0.2964
   49MOL0     N 6530   0.103  11.778   6.861  0.2212 -0.1238 -0.4858
   49MOL0     N 6531   0.219  11.775   6.910 -0.6130  0.1422  0.0250
   49MOL0     C 6532   0.326  10.650   6.897 -0.0544  0.6630  0.9950
   49MOL0     C 6533   0.323  10.513   6.867 -0.9750 -0.0558 -0.2427
   49MOL0     C 6534   0.560  10.103   6.810 -0.0925 -0.0522  0.1115
   49MOL0     C 6535   0.525  10.084   6.679 -0.9569 -0.5776 -0.2237
   49MOL0     C 6536   0.554   9.964   6.607 -0.0252 -0.5668 -0.5978
   49MOL0     C 6537   0.638   9.877   6.674  0.4835 -0.0137 -0.0429
   49MOL0     O 6538   0.666   9.765   6.607 -0.1289  0.0753 -0.4785
   49MOL0     C 6539   0.791   9.777   6.532  1.2093 -0.2425 -0.8484
   49MOL0     C 6540   0.824   9.636   6.465 -0.8749  0.4278 -0.0206
   49MOL0     C 6541   0.856   9.545   6.581 -0.4718 -0.4829  0.3575
   49MOL0     C 6542   1.003   9.481   6.572  1.1171 -0.2594  0.3345
   49MOL0     C 6543   1.114   9.575   6.576  0.3269 -0.0039  0.4846
   49MOL0     C 6544   1.202   9.648   6.569 -1.3056  0.0764  0.6671
   49MOL0     C 6545   0.677   9.895   6.808 -0.1710  0.1786  0.1534
   49MOL0     C 6546   0.636  10.005   6.878 -0.6479 -0.0625 -0.3586
   49MOL0     C 6547   0.672  10.016   7.022  0.0957  0.4717 -0.4015
   49MOL0     H 6548   0.611  10.469   6.712  0.5289  0.9586 -0.1379
   49MOL0     H 6549   0.619  10.715   6.726  0.3807 -0.4243  1.4992
   49MOL0     H 6550   0.616  10.884   6.919 -0.3887 -1.0621 -0.1328
   49MOL0     H 6551   0.573  10.938   6.749  0.0226  2.6722 -0.1195
   49MOL0     H 6552   0.465  11.133   6.832 -1.2658 -1.0637 -0.5154
   49MOL0     H 6553   0.623  11.123   6.910  0.1574 -2.0558 -2.3068
   49MOL0     H 6554   0.528  11.056   7.110  0.7708  0.1701 -1.2198
   49MOL0     H 6555   0.369  11.011   7.047 -0.9550  0.0708  1.2110
   49MOL0     H 6556   0.323  11.251   7.013  0.2577  0.6317  1.3962
   49MOL0     H 6557   0.357  11.215   7.176  0.8802  1.4116  0.2048
   49MOL0     H 6558   0.589  11.269   7.155 -1.2839 -2.7093 -0.3244
   49MOL0     H 6559   0.560  11.333   6.991  0.7042  2.3887 -0.1484
   49MOL0     H 6560   0.427  11.446   7.242 -1.4417 -0.5405 -1.4182
   49MOL0     H 6561   0.566  11.509   7.147 -0.5986  3.4418 -0.5773
   49MOL0     H 6562   0.263  11.474   7.075  1.0905 -0.7686  0.0339
   49MOL0     H 6563   0.386  11.519   6.956 -0.3033 -0.6282 -0.4593
   49MOL0     H 6564   0.319  11.660   7.215  0.0725  1.7603 -1.0307
   49MOL0     H 6565   0.414  11.721   7.086 -1.7166  3.8307 -0.2863
   49MOL0     H 6566   0.032  11.651   7.155 -3.5448 -0.0251 -0.4667
   49MOL0     H 6567  -0.169  11.771   6.858  0.2264 -0.5195 -1.4886
   49MOL0     H 6568  -0.184  11.667   7.004 -3.5309  2.4330 -0.6458
   49MOL0     H 6569  -0.201  11.842   7.157 -1.6132  2.3333 -0.3658
   49MOL0     H 6570  -0.116  11.954   7.035  1.5322 -0.6728  0.6875
   49MOL0     H 6571  -0.395  11.824   7.022 -2.6665 -0.3810 -4.3659
   49MOL0     H 6572  -0.327  11.949   6.912  1.5795 -1.5660  0.6606
   49MOL0     H 6573  -0.362  12.102   7.108  1.3735 -0.2807  0.3645
   49MOL0     H 6574  -0.397  11.961   7.206  1.6664 -0.5511 -0.4844
   49MOL0     H 6575  -0.429  12.228   6.954 -0.4225  2.8265 -1.6094
   49MOL0     H 6576  -0.521  12.329   6.757 -0.4896 -0.0842 -1.5295
   49MOL0     H 6577  -0.849  12.341   6.357 -0.1493  0.4738 -0.6064
   49MOL0     H 6578  -0.941  12.523   6.234 -1.4124 -0.6216 -0.8119
   49MOL0     H 6579  -1.149  12.858   6.431 -0.8246 -0.6638  0.5585
   49MOL0     H 6580  -1.165  12.885   6.271  4.7862 -0.9101 -0.3069
   49MOL0     H 6581  -1.329  12.710   6.456  1.1394  0.2699 -0.5161
   49MOL0     H 6582  -1.390  12.832   6.347  0.3306  2.3643  0.0170
   49MOL0     H 6583  -1.414  12.670   6.167  1.3278 -1.4843 -1.2973
   49MOL0     H 6584  -1.275  12.579   6.240 -0.1733  0.4170  0.2364
   49MOL0     H 6585  -1.563  12.548   6.345 -0.1650 -0.0828 -0.4202
   49MOL0     H 6586  -1.407  12.494   6.409 -1.9021 -0.0593  2.0360
   49MOL0     H 6587  -1.353  12.379   6.193  1.0145  1.5745  1.8656
   49MOL0     H 6588  -1.521  12.410   6.137  2.4285  0.7610 -2.3165
   49MOL0     H 6589  -1.404  12.268   6.373  0.5303  1.5737  0.6638
   49MOL0     H 6590  -1.577  12.274   6.362 -0.8478 -1.1646 -1.8588
   49MOL0     H 6591  -1.446  12.054   6.253 -0.7987 -0.7201  0.2203
   49MOL0     H 6592  -1.421  12.158   6.122 -2.3471 -0.9976 -2.0469
   49MOL0     H 6593  -1.656  12.015   6.196  1.3979 -1.0210  1.5529
   49MOL0     H 6594  -1.692  12.191   6.226  1.5135  2.1390  0.0411
   49MOL0     H 6595  -1.121  12.692   6.588  1.6960  1.4725 -1.3317
   49MOL0     H 6596  -1.053  12.471   6.708 -0.7233 -1.0494 -0.3067
   49MOL0     H 6597  -0.868  12.088   6.754 -0.2715  1.0513  0.5234
   49MOL0     H 6598  -0.771  11.955   6.941 -0.6682  1.7401  0.3495
   49MOL0     H 6599   0.244  10.696   6.950 -0.8004  0.1489  0.3127
   49MOL0     H 6600   0.244  10.447   6.903 -0.0989 -0.3188  1.2734
   49MOL0     H 6601   0.463  10.160   6.632  0.9960  0.8196 -0.6752
   49MOL0     H 6602   0.527   9.933   6.507 -2.0545 -2.1288  0.3735
   49MOL0     H 6603   0.870   9.803   6.603 -1.2614  2.6147  1.0774
   49MOL0     H 6604   0.782   9.852   6.452 -2.6997 -0.7805 -1.1070
   49MOL0     H 6605   0.909   9.641   6.397 -0.4902 -0.0955  0.4078
   49MOL0     H 6606   0.736   9.604   6.408  0.2844 -0.4300 -1.4115
   49MOL0     H 6607   0.788   9.460   6.576  2.3267 -2.8714  0.4688
   49MOL0     H 6608   0.865   9.586   6.682 -0.5929 -1.1244  0.6316
   49MOL0     H 6609   1.022   9.408   6.652  0.9134 -0.1721  0.4629
   49MOL0     H 6610   0.997   9.424   6.479  3.5853 -0.5414  0.2955
   49MOL0     H 6611   1.282   9.718   6.578 -2.6453  1.6128  1.1527
   49MOL0     H 6612   0.737   9.819   6.857  2.3952  1.4865 -0.7674
   49MOL0     H 6613   0.732   9.930   7.055  2.5670  1.0924 -2.9466
   49MOL0     H 6614   0.744  10.096   7.038 -0.0217  0.2426  1.6253
   49MOL0     H 6615   0.582  10.022   7.085 -0.2925 -2.4516 -0.5248
   50MOL0     O 6616   0.008   2.700   1.988 -0.2737  0.0984  0.6096
   50MOL0     C 6617   0.106   2.667   1.916 -0.9228 -0.0793 -0.6205
   50MOL0     O 6618   0.212   2.599   1.965  0.2804 -1.3008  0.1429
   50MOL0     C 6619   0.239   2.591   2.098  0.5718  0.5746  0.1430
   50MOL0     C 6620   0.223   2.697   2.187  0.2517 -0.3337 -0.5924
   50MOL0     C 6621   0.250   2.687   2.321 -0.1523  0.1051  1.1647
   50MOL0     C 6622   0.315   2.572   2.362  0.3075  0.8086  0.1210
   50MOL0     O 6623   0.376   2.576   2.493 -0.3398 -0.3349  0.6988
   50MOL0     C 6624   0.520   2.596   2.491  1.5270 -0.1925 -0.4353
   50MOL0     C 6625   0.576   2.583   2.627 -0.4734  1.1638 -0.2970
   50MOL0     C 6626   0.731   2.567   2.606 -0.0136 -0.8659 -0.3995
   50MOL0     C 6627   0.812   2.587   2.742 -0.0952  0.1127 -0.0478
   50MOL0     C 6628   0.963   2.596   2.700  0.2307  0.1402  0.0281
   50MOL0     C 6629   1.048   2.627   2.821 -0.0288  0.2064 -1.0127
   50MOL0     C 6630   1.027   2.772   2.872 -0.2521 -0.1064  0.2328
   50MOL0     C 6631   1.127   2.814   2.984 -0.8913  0.7012 -0.7283
   50MOL0     N 6632   1.109   2.954   3.022 -0.0694 -0.3043 -0.0089
   50MOL0     C 6633   1.170   3.065   2.975  0.4935 -0.8243  0.1219
   50MOL0     C 6634   1.096   3.173   3.012  0.1475 -0.5738 -0.9407
   50MOL0     C 6635   1.120   3.320   2.979  1.1233 -0.2185  0.6586
   50MOL0     C 6636   1.146   3.334   2.832 -0.9419 -0.1250 -0.5522
   50MOL0     C 6637   1.126   3.475   2.789  0.4453  0.6398 -0.4037
   50MOL0     C 6638   1.178   3.583   2.882  0.1594  0.7134 -0.1837
   50MOL0     O 6639   1.322   3.580   2.886  0.0784 -0.1866  0.0874
   50MOL0     C 6640   1.402   3.648   2.986 -0.6340  0.4517  0.9240
   50MOL0     C 6641   1.348   3.744   3.070  0.6117  0.7359  0.0595
   50MOL0     C 6642   1.419   3.820   3.163  0.5129 -0.3414  0.0413
   50MOL0     C 6643   1.554   3.808   3.170  0.5439  0.5343 -0.6444
   50MOL0     C 6644   1.640   3.899   3.259 -0.1399  0.5141 -0.4884
   50MOL0     O 6645   1.768   3.870   3.265 -0.5656 -0.1933  0.0503
   50MOL0     C 6646   1.864   3.931   3.344 -0.4221 -0.0612 -0.1430
   50MOL0     C 6647   1.992   3.877   3.327 -0.1321 -0.2686 -0.6090
   50MOL0     C 6648   2.110   3.935   3.387  0.8380  0.3174  0.5593
   50MOL0     C 6649   2.106   4.045   3.477  0.7832 -0.4734  1.0424
   50MOL0     O 6650   2.220   4.101   3.528  0.4070  0.0691  0.2468
   50MOL0     C 6651   2.261   4.050   3.656 -0.0119  0.3464 -0.1965
   50MOL0     C 6652   2.379   4.136   3.700 -0.2506  0.1074 -0.8294
   50MOL0     C 6653   2.487   4.052   3.761  0.8055  0.4186 -0.3524
   50MOL0     C 6654   2.616   4.127   3.761 -0.6332  0.3423  0.5978
   50MOL0     C 6655   2.722   4.081   3.862  0.9344 -0.6081  0.0357
   50MOL0     C 6656   2.858   4.138   3.847 -0.6575  0.0011 -0.1431
   50MOL0     C 6657   2.872   4.281   3.895 -0.2410 -0.3837 -0.5411
   50MOL0     C 6658   2.984   4.290   3.998  0.6536  0.5758  0.5011
   50MOL0    Cl 6659   2.987   4.447   4.086  0.4078  0.3150  0.4341
   50MOL0     C 6660   1.978   4.095   3.496 -0.0303 -0.4165 -0.2433
   50MOL0     C 6661   1.863   4.044   3.434  0.2867 -0.8156 -0.1888
   50MOL0     O 6662   1.587   3.982   3.322 -0.0618  0.1195 -0.1605
   50MOL0     C 6663   1.617   3.701   3.094  0.4702  0.0652 -0.1329
   50MOL0     C 6664   1.542   3.624   2.992 -0.5251  0.2313 -1.3632
   50MOL0     N 6665   0.988   3.131   3.084  0.1603  0.4373 -0.3898
   50MOL0     N 6666   0.992   2.998   3.084  0.0579  0.1790  0.6641
   50MOL0     C 6667   0.338   2.461   2.274  0.2599  0.1047  0.3266
   50MOL0     C 6668   0.294   2.473   2.138 -0.4422  0.5889 -0.4916
   50MOL0     C 6669   0.083   2.674   1.772  0.5986 -0.8244 -0.2633
   50MOL0     C 6670   0.128   2.565   1.699 -0.2311  0.7325  0.3967
   50MOL0     C 6671   0.122   2.567   1.553  0.6120 -0.9468  0.8232
   50MOL0     C 6672   0.072   2.683   1.478 -0.3664  0.6540  0.0180
   50MOL0     O 6673   0.057   2.698   1.349 -0.3876 -0.5900  0.4966
   50MOL0     C 6674   0.083   2.589   1.265 -0.1262 -0.0996 -0.3866
   50MOL0     C 6675   0.030   2.627   1.124 -0.1625  0.0857 -0.4980
   50MOL0     C 6676   0.048   2.527   1.001  0.4857 -0.1583 -0.9555
   50MOL0     C 6677   0.019   2.385   1.029  0.4667 -0.1290 -0.0320
   50MOL0     C 6678  -0.107   2.364   1.101  0.7758 -0.0774  0.3227
   50MOL0     C 6679  -0.211   2.348   1.166 -0.0313  0.4628  0.3254
   50MOL0     C 6680   0.032   2.793   1.565  0.4233  0.7338 -0.4777
   50MOL0     C 6681   0.031   2.785   1.705  0.2880 -0.7375  0.7365
   50MOL0     C 6682  -0.015   2.907   1.780 -0.1481 -0.4704  0.1583
   50MOL0     H 6683   0.160   2.783   2.168  1.0358  0.9095  2.0153
   50MOL0     H 6684   0.238   2.775   2.383 -0.0578  1.3551 -0.5225
   50MOL0     H 6685   0.558   2.514   2.429  0.6324 -2.1740  1.4947
   50MOL0     H 6686   0.540   2.689   2.438  0.1209 -0.1367 -0.9080
   50MOL0     H 6687   0.535   2.493   2.673 -0.7255  1.4345  0.0047
   50MOL0     H 6688   0.563   2.675   2.684 -0.4746  0.4725  0.8425
   50MOL0     H 6689   0.772   2.630   2.526  2.6403 -0.7039  0.9679
   50MOL0     H 6690   0.755   2.468   2.566  0.6997 -1.9237  2.4282
   50MOL0     H 6691   0.768   2.674   2.792 -0.3712  0.2834 -0.5787
   50MOL0     H 6692   0.786   2.503   2.807  2.8146 -1.8516 -1.2307
   50MOL0     H 6693   0.988   2.496   2.662 -1.4094 -0.6061  0.8093
   50MOL0     H 6694   0.987   2.668   2.622  0.2013 -1.3999 -1.4606
   50MOL0     H 6695   1.042   2.567   2.912  1.7423 -1.3705 -1.8520
   50MOL0     H 6696   1.156   2.620   2.802  1.4980  4.0663  3.8942
   50MOL0     H 6697   0.923   2.783   2.904 -0.2162  2.3695 -0.2936
   50MOL0     H 6698   1.046   2.853   2.801  0.1198 -0.5073 -0.1298
   50MOL0     H 6699   1.110   2.748   3.071  0.5895 -0.2937 -1.1605
   50MOL0     H 6700   1.228   2.780   2.959 -1.3535  0.2513 -2.0361
   50MOL0     H 6701   1.257   3.070   2.911 -0.6497 -0.4901 -1.4597
   50MOL0     H 6702   1.025   3.374   2.984  1.8045  1.2582 -1.1712
   50MOL0     H 6703   1.206   3.362   3.031  3.7684  4.8456 -6.2236
   50MOL0     H 6704   1.246   3.290   2.822 -1.2060 -0.5997 -1.1686
   50MOL0     H 6705   1.080   3.272   2.772  1.7417 -0.5587 -3.3048
   50MOL0     H 6706   1.018   3.485   2.780  0.7196  2.3728 -2.7774
   50MOL0     H 6707   1.167   3.487   2.688 -1.9010 -2.1914 -1.8550
   50MOL0     H 6708   1.132   3.575   2.981  2.2145  2.7883  1.0573
   50MOL0     H 6709   1.143   3.676   2.836 -1.6479  0.1809  0.0199
   50MOL0     H 6710   1.246   3.781   3.065  0.3862  0.0431 -0.9728
   50MOL0     H 6711   1.359   3.900   3.205 -3.4174 -1.9556 -2.0215
   50MOL0     H 6712   2.004   3.785   3.271  5.7438  2.4918 -4.9683
   50MOL0     H 6713   2.203   3.885   3.361  0.4739  0.0125 -0.1828
   50MOL0     H 6714   2.185   4.062   3.734  1.2240  2.5353  0.7666
   50MOL0     H 6715   2.277   3.942   3.650 -1.0386  0.2332 -1.2590
   50MOL0     H 6716   2.418   4.181   3.608  3.6397  0.4558  0.8050
   50MOL0     H 6717   2.350   4.220   3.764 -0.1488  2.6267 -3.8506
   50MOL0     H 6718   2.464   4.015   3.861 -0.4176 -0.2882 -0.8731
   50MOL0     H 6719   2.503   3.975   3.684 -0.4820  1.6935 -1.9713
   50MOL0     H 6720   2.591   4.232   3.776 -1.8942 -0.0059  1.0804
   50MOL0     H 6721   2.654   4.123   3.658 -1.1628  3.4864  0.1766
   50MOL0     H 6722   2.727   3.972   3.871  1.5617 -0.3930  3.8234
   50MOL0     H 6723   2.687   4.105   3.962  0.5706  2.7605 -0.7580
   50MOL0     H 6724   2.920   4.072   3.909  0.9657  1.9861  0.4274
   50MOL0     H 6725   2.881   4.128   3.740  1.1149  0.0811  0.2092
   50MOL0     H 6726   2.777   4.312   3.940  2.9011  4.1413  4.1478
   50MOL0     H 6727   2.905   4.337   3.807  0.3979  1.1558  0.6397
   50MOL0     H 6728   2.960   4.214   4.074  2.8286 -2.2635 -1.4530
   50MOL0     H 6729   3.085   4.260   3.970  1.3952 -1.5761  4.6599
   50MOL0     H 6730   1.956   4.176   3.566 -1.3156 -0.0358 -1.0564
   50MOL0     H 6731   1.766   4.088   3.453  1.9699  2.5320  1.3932
   50MOL0     H 6732   1.720   3.667   3.099  0.2757 -0.5352 -0.0747
   50MOL0     H 6733   1.595   3.556   2.927 -1.4386 -0.8686 -0.9869
   50MOL0     H 6734   0.405   2.380   2.300  1.0663  0.6318 -0.0623
   50MOL0     H 6735   0.309   2.394   2.066  0.2203  0.3061 -0.0591
   50MOL0     H 6736   0.153   2.471   1.747  2.1365  1.3623  0.5348
   50MOL0     H 6737   0.156   2.478   1.501 -0.7331 -0.2676 -1.3560
   50MOL0     H 6738   0.035   2.497   1.300 -0.5674  0.1180 -0.4158
   50MOL0     H 6739   0.190   2.571   1.280 -0.7132 -1.2723  3.7638
   50MOL0     H 6740   0.099   2.707   1.097 -1.2192  0.7941 -1.1862
   50MOL0     H 6741  -0.075   2.657   1.134  0.2081  2.2066 -2.2527
   50MOL0     H 6742   0.152   2.546   0.973  1.5511  0.3635  2.8319
   50MOL0     H 6743  -0.028   2.558   0.930 -1.8082  0.2665  1.5390
   50MOL0     H 6744   0.037   2.329   0.936 -1.4499 -0.4988 -0.2176
   50MOL0     H 6745   0.100   2.366   1.100  0.7596 -0.7052 -0.5018
   50MOL0     H 6746  -0.304   2.328   1.216  0.1354 -0.5736  0.2378
   50MOL0     H 6747  -0.009   2.891   1.541 -1.3304  0.2163  0.2450
   50MOL0     H 6748   0.059   2.930   1.857  1.4256  0.0928 -1.4294
   50MOL0     H 6749  -0.029   2.994   1.715 -0.6038 -0.3535  0.4120
   50MOL0     H 6750  -0.113   2.897   1.827 -0.7432 -1.5291 -1.2254
   51MOL0     O 6751   2.070   8.997   3.799 -0.0561  0.5049  0.5167
   51MOL0     C 6752   2.181   8.985   3.752  0.2302  0.2653  0.1616
   51MOL0     O 6753   2.289   9.059   3.794 -0.2469  0.3870 -0.2500
   51MOL0     C 6754   2.266   9.166   3.880  0.2179  0.2443 -0.3142
   51MOL0     C 6755   2.184   9.277   3.857 -0.2432 -0.6693 -0.1790
   51MOL0     C 6756   2.158   9.380   3.956 -0.1909  0.4947  0.9141
   51MOL0     C 6757   2.206   9.350   4.088 -0.5549 -0.4442 -0.1241
   51MOL0     O 6758   2.183   9.440   4.192 -0.8222 -0.7281  0.1945
   51MOL0     C 6759   2.052   9.515   4.207 -0.2472 -0.1448 -0.9320
   51MOL0     C 6760   1.937   9.413   4.229  0.4083 -0.3042 -0.1835
   51MOL0     C 6761   1.958   9.299   4.328  0.1551  0.5646  0.7088
   51MOL0     C 6762   2.008   9.334   4.472 -0.2011  0.7658  0.4775
   51MOL0     C 6763   2.005   9.207   4.556  0.5202  0.4540 -0.9265
   51MOL0     C 6764   2.068   9.220   4.696 -0.4208  0.5715  0.5342
   51MOL0     C 6765   2.144   9.110   4.763  0.0772  0.3003  0.0841
   51MOL0     C 6766   2.258   9.058   4.681  0.5965  0.7077 -0.8141
   51MOL0     N 6767   2.221   8.944   4.595  0.5207  0.1500  0.2587
   51MOL0     C 6768   2.244   8.943   4.463  0.0887  0.5426  0.9291
   51MOL0     C 6769   2.176   8.842   4.408  0.0034 -0.5017  0.9323
   51MOL0     C 6770   2.156   8.802   4.258 -0.0892  0.2469  1.0891
   51MOL0     C 6771   2.048   8.876   4.181  0.6562 -0.6808 -0.7002
   51MOL0     C 6772   1.913   8.842   4.220 -0.1722 -0.0052 -0.2163
   51MOL0     C 6773   1.828   8.962   4.256  0.2901  0.0831 -0.4649
   51MOL0     O 6774   1.691   8.922   4.270  0.2677 -0.1347 -1.0969
   51MOL0     C 6775   1.651   8.871   4.400 -1.0880 -0.1134 -0.4730
   51MOL0     C 6776   1.749   8.843   4.503 -0.1181 -0.2668 -0.5444
   51MOL0     C 6777   1.698   8.782   4.620 -0.2681  1.3074  1.3080
   51MOL0     C 6778   1.567   8.755   4.638 -0.2834 -0.2059 -0.3730
   51MOL0     C 6779   1.507   8.677   4.754  0.3941 -0.4761 -0.4895
   51MOL0     O 6780   1.597   8.676   4.858 -0.2341  0.3399 -1.1489
   51MOL0     C 6781   1.562   8.586   4.961  0.3729  0.0632 -0.5622
   51MOL0     C 6782   1.630   8.469   4.978 -0.3279  0.0905 -0.5998
   51MOL0     C 6783   1.591   8.376   5.074  0.8022 -0.4296  0.2961
   51MOL0     C 6784   1.488   8.396   5.166  0.4206  0.3794 -0.3492
   51MOL0     O 6785   1.458   8.291   5.253  0.0549 -0.2473  0.2960
   51MOL0     C 6786   1.355   8.289   5.350  0.2745 -0.4005  0.2934
   51MOL0     C 6787   1.218   8.272   5.286  0.7749  0.2272 -0.5798
   51MOL0     C 6788   1.206   8.136   5.208 -0.1212 -0.5185 -0.7130
   51MOL0     C 6789   1.096   8.052   5.261 -1.7500 -0.7444  0.0234
   51MOL0     C 6790   0.973   8.119   5.218 -0.1335 -0.9486  0.1719
   51MOL0     C 6791   0.856   8.024   5.217 -0.0260 -1.0524 -0.6748
   51MOL0     C 6792   0.726   8.094   5.173  0.2539 -0.2881  0.6218
   51MOL0     C 6793   0.627   7.996   5.112 -0.1615  0.0146  0.3916
   51MOL0    Cl 6794   0.676   7.916   4.966 -0.3556 -0.4539  0.2180
   51MOL0     C 6795   1.417   8.517   5.151  0.1806 -0.4983 -0.1821
   51MOL0     C 6796   1.452   8.614   5.052  0.4772  0.4682  0.3535
   51MOL0     O 6797   1.404   8.600   4.740  0.0246 -0.1192 -0.0249
   51MOL0     C 6798   1.479   8.781   4.535  1.1583  0.4855 -0.0028
   51MOL0     C 6799   1.518   8.841   4.419 -0.1527 -0.0053  0.5379
   51MOL0     N 6800   2.114   8.775   4.507 -0.0172 -0.5360  0.0337
   51MOL0     N 6801   2.133   8.842   4.614 -0.2495  0.7034 -0.1235
   51MOL0     C 6802   2.298   9.246   4.113 -1.1205 -0.0155 -1.0292
   51MOL0     C 6803   2.324   9.154   4.009  0.1389  0.4255 -0.1169
   51MOL0     C 6804   2.203   8.928   3.618 -0.4988  0.2070  0.8549
   51MOL0     C 6805   2.329   8.921   3.565 -0.2159 -0.6130  0.7094
   51MOL0     C 6806   2.359   8.884   3.436  0.6766  0.0080 -0.5314
   51MOL0     C 6807   2.258   8.820   3.356 -1.0528  0.2780 -0.1267
   51MOL0     O 6808   2.278   8.789   3.226 -0.1844  0.5748 -0.4127
   51MOL0     C 6809   2.349   8.877   3.138  0.2306  0.2025  0.0055
   51MOL0     C 6810   2.477   8.823   3.088  0.0129 -0.1291  0.0255
   51MOL0     C 6811   2.517   8.912   2.956  0.8380  0.0336 -0.9329
   51MOL0     C 6812   2.665   8.891   2.934  0.0708  0.5555  0.9515
   51MOL0     C 6813   2.694   8.754   2.906 -0.2194  0.0426 -0.4566
   51MOL0     C 6814   2.726   8.640   2.872 -0.0317  0.6139  0.4833
   51MOL0     C 6815   2.134   8.794   3.415  0.2823  0.4260 -0.5791
   51MOL0     C 6816   2.098   8.847   3.544 -0.6759 -0.2997 -1.3995
   51MOL0     C 6817   1.961   8.819   3.606  0.7985 -0.2170 -0.4820
   51MOL0     H 6818   2.143   9.287   3.757  0.5525 -1.5796 -0.6092
   51MOL0     H 6819   2.092   9.462   3.930  1.3490  1.3556 -0.4925
   51MOL0     H 6820   2.059   9.586   4.290 -2.0949 -0.7217 -0.2381
   51MOL0     H 6821   2.025   9.564   4.113  1.1094 -2.2156 -2.4945
   51MOL0     H 6822   1.919   9.372   4.129  2.3131 -2.7370  0.3553
   51MOL0     H 6823   1.848   9.470   4.256 -2.0181 -3.9670  0.1691
   51MOL0     H 6824   2.020   9.220   4.284 -0.5591  0.6526 -0.4906
   51MOL0     H 6825   1.868   9.237   4.334  1.0799 -1.3782 -2.5571
   51MOL0     H 6826   2.112   9.363   4.455  1.1957 -3.4995  0.6593
   51MOL0     H 6827   1.949   9.418   4.511 -1.8608 -0.8832  1.6862
   51MOL0     H 6828   1.908   9.160   4.577  1.0643 -0.7302 -1.0076
   51MOL0     H 6829   2.058   9.123   4.510 -1.5121  0.5120 -3.6233
   51MOL0     H 6830   2.123   9.314   4.706  1.5854 -0.7215  3.0078
   51MOL0     H 6831   1.987   9.237   4.768 -1.3097  1.5032 -0.6445
   51MOL0     H 6832   2.069   9.033   4.785 -0.2779  1.0257  1.4519
   51MOL0     H 6833   2.173   9.144   4.862 -3.3327  1.0979  0.9133
   51MOL0     H 6834   2.302   9.146   4.633 -1.1847  2.0560 -0.0524
   51MOL0     H 6835   2.328   9.012   4.752  0.1822  1.7373  0.2714
   51MOL0     H 6836   2.301   9.008   4.397  1.0871  0.6489  1.8827
   51MOL0     H 6837   2.246   8.821   4.199  1.8000 -1.5351  3.1988
   51MOL0     H 6838   2.140   8.694   4.246 -1.1264  0.0076  3.8624
   51MOL0     H 6839   2.072   8.979   4.210 -4.0980  0.2547  0.7874
   51MOL0     H 6840   2.067   8.868   4.074  1.1033  2.4976 -0.9616
   51MOL0     H 6841   1.923   8.769   4.302  1.4363 -1.0059 -1.2333
   51MOL0     H 6842   1.871   8.785   4.137  0.1579 -2.2720  1.0835
   51MOL0     H 6843   1.836   9.037   4.177 -0.2978  2.1003  1.2893
   51MOL0     H 6844   1.872   9.013   4.343  0.5484  1.0541 -1.1421
   51MOL0     H 6845   1.856   8.858   4.493 -0.1057 -1.1624 -2.1922
   51MOL0     H 6846   1.778   8.756   4.689  0.2672 -2.1791 -0.3869
   51MOL0     H 6847   1.717   8.444   4.918  0.8241 -1.2166  1.4970
   51MOL0     H 6848   1.651   8.287   5.081  2.0698  0.5459  4.2719
   51MOL0     H 6849   1.377   8.202   5.413 -5.9889 -1.5663  1.4889
   51MOL0     H 6850   1.360   8.379   5.412 -0.5064 -1.3754  1.8608
   51MOL0     H 6851   1.135   8.277   5.357  0.2287 -1.5332 -1.0469
   51MOL0     H 6852   1.213   8.344   5.204  4.2151  0.4757 -0.7252
   51MOL0     H 6853   1.205   8.149   5.100  1.4217  0.6333 -0.6395
   51MOL0     H 6854   1.298   8.079   5.226 -1.3991 -2.2712  0.6006
   51MOL0     H 6855   1.094   8.040   5.370 -0.0122 -0.1787  0.1521
   51MOL0     H 6856   1.118   7.955   5.214  1.2458  0.0606 -0.4620
   51MOL0     H 6857   0.975   8.165   5.119 -1.9784 -1.3258 -0.0795
   51MOL0     H 6858   0.951   8.204   5.283  1.0015  0.5697 -1.3221
   51MOL0     H 6859   0.870   7.943   5.145 -1.9390 -1.6431 -0.4489
   51MOL0     H 6860   0.847   7.976   5.315  0.3896  0.0389 -0.0833
   51MOL0     H 6861   0.747   8.176   5.105 -2.6755 -1.0766 -1.4363
   51MOL0     H 6862   0.675   8.136   5.261 -0.4010  0.4883 -0.1168
   51MOL0     H 6863   0.605   7.914   5.182 -0.1369 -2.2207 -2.0345
   51MOL0     H 6864   0.532   8.049   5.099 -1.2187 -1.2997  2.2082
   51MOL0     H 6865   1.340   8.554   5.218 -0.4808 -2.2254  0.0711
   51MOL0     H 6866   1.388   8.701   5.046 -0.4636 -0.0878  1.8594
   51MOL0     H 6867   1.371   8.777   4.541  0.9982 -0.0590 -2.1786
   51MOL0     H 6868   1.442   8.849   4.342 -0.0387  0.6262  0.4850
   51MOL0     H 6869   2.350   9.222   4.205  0.7388 -5.8196 -3.1531
   51MOL0     H 6870   2.397   9.074   4.017  1.2601  1.5811  2.3380
   51MOL0     H 6871   2.410   8.952   3.631 -0.6394  1.1475  0.4413
   51MOL0     H 6872   2.457   8.893   3.390  0.4878  0.2714 -0.8903
   51MOL0     H 6873   2.361   8.971   3.192  3.5449 -1.2881  2.2220
   51MOL0     H 6874   2.283   8.898   3.054  0.0250  0.0843  0.1346
   51MOL0     H 6875   2.479   8.714   3.072 -0.4508 -0.4369  1.8545
   51MOL0     H 6876   2.552   8.846   3.164  2.3142  1.7976 -2.6005
   51MOL0     H 6877   2.508   9.019   2.976  1.4280  0.4654 -2.7890
   51MOL0     H 6878   2.458   8.886   2.867  0.7718 -1.5037 -0.4675
   51MOL0     H 6879   2.697   8.960   2.855 -0.8261  0.6898  0.6984
   51MOL0     H 6880   2.732   8.911   3.018  0.9421 -0.3482  0.4926
   51MOL0     H 6881   2.753   8.548   2.825 -0.4527 -0.8396  2.9421
   51MOL0     H 6882   2.051   8.751   3.359 -1.5513  0.5797  1.8444
   51MOL0     H 6883   1.890   8.768   3.540 -1.7035  0.4870  1.5013
   51MOL0     H 6884   1.972   8.761   3.698 -0.9469  1.6410  1.0059
   51MOL0     H 6885   1.915   8.910   3.646 -0.5595  0.1386 -2.6676
   52MOL0     O 6886  10.707   7.313  11.156  0.0979  0.8110 -0.3177
   52MOL0     C 6887  10.630   7.296  11.254  1.1306 -0.0269  0.1238
   52MOL0     O 6888  10.624   7.390  11.359  0.5152 -1.0014 -0.0508
   52MOL0     C 6889  10.708   7.492  11.355  0.2346 -0.8022  0.2726
   52MOL0     C 6890  10.825   7.491  11.422 -0.4198  0.0276 -0.5023
   52MOL0     C 6891  10.903   7.603  11.431  0.7652 -0.1465  0.5023
   52MOL0     C 6892  10.868   7.721  11.363  1.1639  0.0458 -0.2721
   52MOL0     O 6893  10.925   7.842  11.378  0.4587  0.8177  0.0583
   52MOL0     C 6894  11.076   7.842  11.385  1.0415 -0.8099  0.0074
   52MOL0     C 6895  11.143   7.975  11.335  0.7571  0.6373 -0.0206
   52MOL0     C 6896  11.278   7.990  11.399 -0.6015 -0.6574 -0.7647
   52MOL0     C 6897  11.363   8.100  11.331  0.5827  0.2177  0.0128
   52MOL0     C 6898  11.510   8.073  11.351 -0.1969 -0.1344  0.8945
   52MOL0     C 6899  11.595   8.201  11.330 -0.1358 -0.3250 -0.4907
   52MOL0     C 6900  11.739   8.147  11.332 -0.2299 -0.3295 -1.4261
   52MOL0     C 6901  11.841   8.258  11.346 -0.8024  0.1421 -0.6752
   52MOL0     N 6902  11.830   8.326  11.475  0.4282 -0.1488 -0.3944
   52MOL0     C 6903  11.755   8.439  11.502  0.3455  0.3447  0.4488
   52MOL0     C 6904  11.803   8.480  11.622  0.9828  0.3077  1.1042
   52MOL0     C 6905  11.778   8.594  11.713  0.1427  0.5550  0.5133
   52MOL0     C 6906  11.629   8.625  11.714  0.1309  0.1623  0.6090
   52MOL0     C 6907  11.560   8.502  11.789  0.3131 -0.0328  0.0040
   52MOL0     C 6908  11.412   8.518  11.771 -0.7716 -0.3754 -0.0613
   52MOL0     O 6909  11.369   8.505  11.637 -0.1776  0.6632 -0.4795
   52MOL0     C 6910  11.238   8.476  11.618 -0.5753 -0.1461 -0.5330
   52MOL0     C 6911  11.135   8.489  11.705  0.8089  0.0434  0.6638
   52MOL0     C 6912  10.998   8.466  11.665  1.1711 -0.2148  0.0103
   52MOL0     C 6913  10.965   8.418  11.534 -0.1556  0.4654 -1.6069
   52MOL0     C 6914  10.825   8.384  11.488 -0.7241 -0.7553 -0.4525
   52MOL0     O 6915  10.808   8.367  11.356 -0.0252  0.1540  0.9127
   52MOL0     C 6916  10.703   8.301  11.303  0.6332  0.1532  0.2596
   52MOL0     C 6917  10.723   8.169  11.272  0.9362  0.0141 -0.0269
   52MOL0     C 6918  10.623   8.101  11.203  0.1967  0.2719 -0.2168
   52MOL0     C 6919  10.490   8.155  11.199  0.0143  1.2819  0.0813
   52MOL0     O 6920  10.397   8.075  11.155  0.1390 -0.4203 -0.0375
   52MOL0     C 6921  10.274   8.076  11.239 -0.2256 -0.5938 -0.2112
   52MOL0     C 6922  10.219   7.932  11.272 -0.3378  0.8066  0.5141
   52MOL0     C 6923  10.315   7.862  11.368 -0.8582 -0.4713  0.4064
   52MOL0     C 6924  10.270   7.728  11.409  0.5172 -0.8586 -0.0733
   52MOL0     C 6925  10.327   7.672  11.530  0.6380  0.1040 -0.6420
   52MOL0     C 6926  10.240   7.574  11.596  0.5272  0.0186  0.9002
   52MOL0     C 6927  10.286   7.523  11.726 -0.9779  1.4180 -0.3275
   52MOL0     C 6928  10.169   7.443  11.798  0.8777  0.0504  0.2246
   52MOL0    Cl 6929  10.077   7.541  11.924  0.0812  0.0859 -0.8768
   52MOL0     C 6930  10.472   8.284  11.252  0.0520  0.2582 -0.3740
   52MOL0     C 6931  10.578   8.361  11.288 -0.2132  0.0164 -0.5814
   52MOL0     O 6932  10.745   8.343  11.578 -0.8766 -1.0401  0.2486
   52MOL0     C 6933  11.077   8.395  11.455 -0.3119 -0.6240  0.9214
   52MOL0     C 6934  11.208   8.425  11.493 -0.0871 -0.5685  0.3743
   52MOL0     N 6935  11.897   8.387  11.671  0.1383 -0.5777 -0.4222
   52MOL0     N 6936  11.916   8.295  11.576  0.1661 -0.5831 -0.6923
   52MOL0     C 6937  10.755   7.722  11.281 -0.0870 -0.4547 -0.5561
   52MOL0     C 6938  10.678   7.605  11.279 -0.2247 -0.4117 -0.4230
   52MOL0     C 6939  10.540   7.177  11.262  0.1605 -0.4797 -0.2754
   52MOL0     C 6940  10.472   7.136  11.148 -0.6425  0.3714 -0.0172
   52MOL0     C 6941  10.381   7.040  11.147  0.7437 -0.1481  0.0617
   52MOL0     C 6942  10.349   6.966  11.262  0.0685  0.5772 -0.4563
   52MOL0     O 6943  10.253   6.871  11.253  0.0365  0.1385 -0.2037
   52MOL0     C 6944  10.181   6.851  11.377 -0.2959  0.0304  0.3891
   52MOL0     C 6945  10.069   6.753  11.337  0.9433  0.4366 -0.5866
   52MOL0     C 6946  10.040   6.631  11.424 -0.2737 -0.4010 -0.2193
   52MOL0     C 6947  10.013   6.674  11.564 -0.7825  0.4600  0.0931
   52MOL0     C 6948   9.936   6.568  11.616  0.0076  0.9303 -0.5696
   52MOL0     C 6949   9.891   6.469  11.651 -0.0122  0.9709  0.1283
   52MOL0     C 6950  10.412   7.013  11.382  0.9467  0.8637  0.6418
   52MOL0     C 6951  10.509   7.115  11.385  0.1227 -0.6738  0.1215
   52MOL0     C 6952  10.573   7.153  11.515 -0.4608  0.1913 -0.5686
   52MOL0     H 6953  10.853   7.407  11.484 -2.0397 -0.5172 -0.4476
   52MOL0     H 6954  10.996   7.595  11.487  1.6899 -0.7229 -1.0502
   52MOL0     H 6955  11.101   7.830  11.491  5.1547 -0.1249 -0.7453
   52MOL0     H 6956  11.108   7.752  11.330  0.9381 -1.2620  0.6741
   52MOL0     H 6957  11.077   8.052  11.377 -2.2204 -1.4227 -0.6012
   52MOL0     H 6958  11.138   7.964  11.226 -0.2282 -0.4563  0.1087
   52MOL0     H 6959  11.342   7.902  11.383  2.7039  0.9030  2.3943
   52MOL0     H 6960  11.265   8.006  11.506  2.3836  4.1519 -0.8259
   52MOL0     H 6961  11.344   8.116  11.224  1.3040  0.0415 -0.1449
   52MOL0     H 6962  11.325   8.186  11.386 -4.2150  0.8586 -3.6826
   52MOL0     H 6963  11.521   8.017  11.444  1.1957 -2.9790 -0.8364
   52MOL0     H 6964  11.541   8.001  11.275  0.9674 -2.4606  3.3972
   52MOL0     H 6965  11.581   8.248  11.233  0.8159 -1.9826 -1.4834
   52MOL0     H 6966  11.569   8.272  11.408 -1.0793 -2.0573  0.8511
   52MOL0     H 6967  11.751   8.094  11.237  2.3092 -2.1134 -0.2321
   52MOL0     H 6968  11.752   8.072  11.411 -0.1232  0.1740 -0.9609
   52MOL0     H 6969  11.931   8.196  11.348 -0.7641  0.1941  0.9352
   52MOL0     H 6970  11.847   8.318  11.255 -4.6163 -1.3084 -2.0627
   52MOL0     H 6971  11.678   8.483  11.440 -0.3499 -1.2860  0.1136
   52MOL0     H 6972  11.813   8.573  11.814  0.5976  0.0826  0.2593
   52MOL0     H 6973  11.842   8.674  11.677  1.3316 -1.4432 -2.1971
   52MOL0     H 6974  11.615   8.716  11.773  1.9961  0.9255 -0.0530
   52MOL0     H 6975  11.593   8.637  11.612 -0.7053 -1.4898  0.6728
   52MOL0     H 6976  11.584   8.499  11.895 -1.4761 -2.4139  0.4250
   52MOL0     H 6977  11.589   8.403  11.752  1.6198 -0.3716  1.8258
   52MOL0     H 6978  11.371   8.608  11.817  0.7881  2.6896 -3.9996
   52MOL0     H 6979  11.375   8.432  11.827  1.1242 -0.8968  0.4587
   52MOL0     H 6980  11.157   8.518  11.807 -0.0770 -0.3616  0.9814
   52MOL0     H 6981  10.913   8.459  11.732  1.9741  1.7325  1.3022
   52MOL0     H 6982  10.824   8.129  11.276  0.9008 -0.3532 -1.8404
   52MOL0     H 6983  10.644   7.998  11.177  3.0653  1.1658 -1.8669
   52MOL0     H 6984  10.301   8.116  11.338  2.0887 -0.4452 -0.8446
   52MOL0     H 6985  10.199   8.140  11.192  1.3310  2.5774  1.2656
   52MOL0     H 6986  10.119   7.936  11.317 -0.5841 -0.3020  0.0962
   52MOL0     H 6987  10.211   7.880  11.176  0.2222  0.1923  0.7925
   52MOL0     H 6988  10.413   7.856  11.320 -1.5879 -2.3525 -0.9623
   52MOL0     H 6989  10.330   7.929  11.453  0.1626  0.3451 -0.3806
   52MOL0     H 6990  10.291   7.656  11.329  0.9286 -0.6223 -0.1823
   52MOL0     H 6991  10.162   7.741  11.418  0.5798 -1.3906  1.7395
   52MOL0     H 6992  10.339   7.748  11.608 -2.3945 -1.0665  1.1467
   52MOL0     H 6993  10.427   7.627  11.522  1.7363  1.3249  3.5888
   52MOL0     H 6994  10.138   7.606  11.618  0.2561 -1.6937  2.3948
   52MOL0     H 6995  10.232   7.481  11.538  0.1989  0.9668 -0.6538
   52MOL0     H 6996  10.327   7.595  11.797  0.2162  1.1312 -0.6881
   52MOL0     H 6997  10.364   7.446  11.726 -2.5837 -0.4048  2.6545
   52MOL0     H 6998  10.103   7.414  11.716  2.3760 -0.7610 -0.7344
   52MOL0     H 6999  10.214   7.352  11.840  0.8358 -1.6600 -3.1629
   52MOL0     H 7000  10.381   8.342  11.242  0.1595  0.7695  1.3167
   52MOL0     H 7001  10.561   8.467  11.303  2.1382  0.4323 -0.5153
   52MOL0     H 7002  11.071   8.340  11.362  0.8527 -1.7050  1.4563
   52MOL0     H 7003  11.291   8.399  11.428  0.7186  1.8895  0.3359
   52MOL0     H 7004  10.719   7.805  11.221  1.1759 -1.0998 -2.2826
   52MOL0     H 7005  10.588   7.608  11.217  1.0273 -3.9497 -2.7072
   52MOL0     H 7006  10.490   7.183  11.052 -1.7590 -0.3996 -0.6190
   52MOL0     H 7007  10.328   7.008  11.058 -0.6216 -2.4508  1.5924
   52MOL0     H 7008  10.152   6.944  11.428 -1.2984 -0.0376 -0.0363
   52MOL0     H 7009  10.247   6.798  11.446  0.1754  0.4371  0.2625
   52MOL0     H 7010  10.074   6.726  11.231  0.5452  0.6561 -0.6636
   52MOL0     H 7011   9.973   6.805  11.335  0.2059 -0.6949  1.7301
   52MOL0     H 7012  10.122   6.559  11.425 -1.3951 -1.7833 -1.4928
   52MOL0     H 7013   9.957   6.581  11.373 -0.9854 -0.2485  0.7565
   52MOL0     H 7014  10.114   6.693  11.601 -0.6166  1.6548 -0.9350
   52MOL0     H 7015   9.942   6.757  11.572 -1.1067  0.0829  1.3794
   52MOL0     H 7016   9.844   6.379  11.686 -2.3933  2.3377  0.7210
   52MOL0     H 7017  10.394   6.961  11.476 -1.6373  1.0796  0.3484
   52MOL0     H 7018  10.517   7.235  11.561  2.0275  0.7262  1.7843
   52MOL0     H 7019  10.573   7.061  11.576 -1.3104  2.4019  3.1205
   52MOL0     H 7020  10.675   7.187  11.502 -0.1410 -0.0026  1.1054
   53MOL0     O 7021  11.420   3.837   3.711  0.4521 -0.7623 -0.6467
   53MOL0     C 7022  11.458   3.946   3.755 -0.8647 -0.4913 -0.0972
   53MOL0     O 7023  11.570   4.012   3.729 -0.1408 -0.4215 -0.1289
   53MOL0     C 7024  11.644   3.978   3.615 -0.0979 -0.0022 -0.5585
   53MOL0     C 7025  11.709   3.859   3.618  0.3981 -1.2589  0.1251
   53MOL0     C 7026  11.771   3.817   3.511  0.3292  0.8758  0.7431
   53MOL0     C 7027  11.787   3.891   3.394 -0.2233 -0.0823 -0.8717
   53MOL0     O 7028  11.845   3.833   3.280 -0.0272  0.7542 -0.1758
   53MOL0     C 7029  11.953   3.741   3.300 -0.1835  0.8081 -0.0865
   53MOL0     C 7030  12.016   3.724   3.156 -0.3495  0.0968 -0.1192
   53MOL0     C 7031  12.138   3.637   3.160  0.1063  0.2735  0.6904
   53MOL0     C 7032  12.132   3.548   3.031  0.0938  0.0786  0.4903
   53MOL0     C 7033  12.264   3.458   3.028  0.9580 -0.0102 -0.7694
   53MOL0     C 7034  12.272   3.355   2.911  0.8801  0.5572  0.0039
   53MOL0     C 7035  12.252   3.418   2.775 -0.6515  0.2313  0.6366
   53MOL0     C 7036  12.213   3.300   2.674  0.1906  0.2292  0.0727
   53MOL0     N 7037  12.233   3.361   2.544  0.2348 -0.3481  0.1800
   53MOL0     C 7038  12.336   3.421   2.485 -0.9393 -0.1375  0.5785
   53MOL0     C 7039  12.295   3.460   2.363  0.6273 -0.5152  0.2887
   53MOL0     C 7040  12.376   3.527   2.249  0.9677 -0.0808 -0.1412
   53MOL0     C 7041  12.504   3.593   2.299 -0.5519  0.5248  0.5042
   53MOL0     C 7042  12.616   3.490   2.337  0.0085  0.3269 -0.2707
   53MOL0     C 7043  12.716   3.458   2.223  0.1661  1.1259  0.6504
   53MOL0     O 7044  12.648   3.380   2.133  0.1029  0.1675  0.3877
   53MOL0     C 7045  12.731   3.339   2.029 -0.0623 -0.2209  0.6176
   53MOL0     C 7046  12.746   3.414   1.906  0.1881 -0.4686 -0.4816
   53MOL0     C 7047  12.834   3.385   1.814 -0.0007 -1.4564  0.9269
   53MOL0     C 7048  12.910   3.271   1.829 -0.3539  0.1043 -0.0178
   53MOL0     C 7049  12.988   3.226   1.716  0.5131 -0.8112 -0.5869
   53MOL0     O 7050  13.023   3.320   1.626 -0.5238 -0.0203  0.3496
   53MOL0     C 7051  13.100   3.284   1.516 -0.6574  0.6247 -0.1567
   53MOL0     C 7052  13.216   3.209   1.521  0.2404  0.3753  0.4935
   53MOL0     C 7053  13.283   3.180   1.398 -0.1197 -0.3122 -0.4031
   53MOL0     C 7054  13.246   3.238   1.272 -0.4010  0.1068  1.1172
   53MOL0     O 7055  13.314   3.207   1.154  0.4684  0.0230 -0.6699
   53MOL0     C 7056  13.452   3.161   1.158 -0.2290  0.5316 -1.7082
   53MOL0     C 7057  13.513   3.139   1.022  1.3889 -0.8142 -0.2516
   53MOL0     C 7058  13.564   3.276   0.968 -0.3452 -0.2292  0.5786
   53MOL0     C 7059  13.586   3.262   0.813  0.3966  0.4045 -0.4313
   53MOL0     C 7060  13.651   3.383   0.744 -0.3149  0.6088 -0.0457
   53MOL0     C 7061  13.538   3.488   0.734 -0.7407 -0.3048 -0.5277
   53MOL0     C 7062  13.612   3.616   0.691 -0.2782  0.4045 -0.1357
   53MOL0     C 7063  13.532   3.741   0.692 -1.1129 -0.1019  0.0281
   53MOL0    Cl 7064  13.417   3.715   0.560 -0.3667  0.3894 -0.2853
   53MOL0     C 7065  13.124   3.313   1.271 -0.4113 -0.3977  0.0011
   53MOL0     C 7066  13.062   3.336   1.392 -0.4213 -0.0453  0.3401
   53MOL0     O 7067  13.031   3.110   1.720  0.2477  0.8992 -0.6677
   53MOL0     C 7068  12.893   3.189   1.946 -1.2732 -0.4671  0.0575
   53MOL0     C 7069  12.798   3.220   2.043 -0.2648  0.0922  0.2116
   53MOL0     N 7070  12.161   3.430   2.356  0.8478  0.0175 -0.2379
   53MOL0     N 7071  12.125   3.363   2.460 -0.0309  0.8458  0.1783
   53MOL0     C 7072  11.722   4.015   3.380  0.1395 -0.6024 -0.7836
   53MOL0     C 7073  11.656   4.061   3.503  0.6403 -0.4051 -0.3723
   53MOL0     C 7074  11.358   4.027   3.820 -0.1855 -0.7485 -0.4209
   53MOL0     C 7075  11.226   4.020   3.781 -0.1042  0.9844  0.5458
   53MOL0     C 7076  11.126   4.099   3.844 -0.8717 -0.0672  0.9890
   53MOL0     C 7077  11.160   4.193   3.937 -0.8241  0.8431 -0.6901
   53MOL0     O 7078  11.078   4.279   4.002 -0.7689  0.6640 -0.0923
   53MOL0     C 7079  10.935   4.266   4.003 -0.2183  1.3675 -0.3317
   53MOL0     C 7080  10.851   4.309   3.889 -0.0922  0.4771 -1.3095
   53MOL0     C 7081  10.709   4.266   3.911 -0.1651 -0.0758 -0.5408
   53MOL0     C 7082  10.622   4.282   3.781 -0.4373  0.1266  0.4374
   53MOL0     C 7083  10.564   4.419   3.764  0.1311  0.8252  0.7359
   53MOL0     C 7084  10.503   4.526   3.775 -1.0245 -0.0414 -0.1524
   53MOL0     C 7085  11.290   4.199   3.990 -0.7826 -0.6763 -0.2465
   53MOL0     C 7086  11.389   4.114   3.934  0.5299 -0.1907 -0.3172
   53MOL0     C 7087  11.530   4.126   3.987 -0.2064 -0.2481  0.1178
   53MOL0     H 7088  11.709   3.803   3.711  0.0469 -0.9418  0.3233
   53MOL0     H 7089  11.809   3.717   3.527  0.3592  1.1091  2.2011
   53MOL0     H 7090  12.032   3.777   3.366  2.0504  0.2613 -2.2708
   53MOL0     H 7091  11.922   3.647   3.347 -1.1627  1.2259  0.1253
   53MOL0     H 7092  12.042   3.824   3.122 -1.1839  0.5109  0.4321
   53MOL0     H 7093  11.936   3.683   3.094 -0.6227  2.4819 -1.4324
   53MOL0     H 7094  12.149   3.583   3.254  0.9776  0.7769  0.8817
   53MOL0     H 7095  12.226   3.701   3.152  0.3130 -0.2120 -1.6401
   53MOL0     H 7096  12.045   3.485   3.014  1.3529 -1.2287 -1.5625
   53MOL0     H 7097  12.141   3.618   2.948  0.8313 -0.7944 -0.1818
   53MOL0     H 7098  12.360   3.511   3.037  1.7948 -1.6935  0.7722
   53MOL0     H 7099  12.268   3.397   3.119 -0.7179  2.3268  1.0226
   53MOL0     H 7100  12.366   3.300   2.905  1.1847  1.2346 -2.6654
   53MOL0     H 7101  12.197   3.276   2.922  0.6776  0.6389 -0.7440
   53MOL0     H 7102  12.347   3.460   2.740 -1.4681  3.5343  2.0508
   53MOL0     H 7103  12.188   3.504   2.757  3.8215  3.6121 -1.1440
   53MOL0     H 7104  12.263   3.203   2.681 -2.4292 -1.1161  1.5899
   53MOL0     H 7105  12.112   3.263   2.695  0.3873 -0.1975  0.2930
   53MOL0     H 7106  12.431   3.439   2.535 -0.5640  2.8712 -1.0019
   53MOL0     H 7107  12.402   3.452   2.174  2.2576  0.0040  0.1860
   53MOL0     H 7108  12.325   3.611   2.201  2.7032  0.8264 -0.4813
   53MOL0     H 7109  12.540   3.667   2.227  0.2374  3.7501  3.8881
   53MOL0     H 7110  12.472   3.645   2.390 -1.5531  2.0697 -0.6776
   53MOL0     H 7111  12.589   3.389   2.369  0.7550  0.4379  0.7434
   53MOL0     H 7112  12.669   3.528   2.425 -2.9332 -1.4272  2.4479
   53MOL0     H 7113  12.796   3.401   2.272  0.1115  0.4638 -0.0079
   53MOL0     H 7114  12.749   3.554   2.183  3.0034  0.2623  0.6415
   53MOL0     H 7115  12.690   3.503   1.878  3.7665  1.8385 -0.9530
   53MOL0     H 7116  12.827   3.434   1.717  1.7784  0.4555  1.6911
   53MOL0     H 7117  13.243   3.167   1.617 -1.6298  0.7813  1.2252
   53MOL0     H 7118  13.369   3.119   1.423  1.4585  2.1100  0.4962
   53MOL0     H 7119  13.512   3.235   1.212 -0.0660 -0.3949 -0.5760
   53MOL0     H 7120  13.443   3.068   1.216 -0.7935  2.8926  2.3965
   53MOL0     H 7121  13.601   3.075   1.033 -0.0145 -2.6148  1.2952
   53MOL0     H 7122  13.436   3.092   0.959  0.2687 -0.2896  0.6739
   53MOL0     H 7123  13.485   3.351   0.982 -1.5042 -1.2711 -0.1700
   53MOL0     H 7124  13.656   3.316   1.011 -0.0358 -1.2764  0.9141
   53MOL0     H 7125  13.491   3.238   0.765  1.5309 -3.4183 -1.1651
   53MOL0     H 7126  13.644   3.169   0.813 -0.6487 -0.3899 -3.6654
   53MOL0     H 7127  13.675   3.355   0.641 -1.2079 -0.8557  0.1242
   53MOL0     H 7128  13.748   3.414   0.783  1.0427 -0.9568 -1.9802
   53MOL0     H 7129  13.461   3.468   0.660 -0.9022  1.5013 -0.9043
   53MOL0     H 7130  13.486   3.505   0.828  1.9956  1.7536  0.7735
   53MOL0     H 7131  13.646   3.596   0.589 -0.6312  4.0171 -1.0675
   53MOL0     H 7132  13.698   3.634   0.756 -0.4206  1.7447 -0.3073
   53MOL0     H 7133  13.481   3.747   0.788 -2.9247 -1.6737 -0.7585
   53MOL0     H 7134  13.584   3.836   0.679  0.2782 -1.0049 -1.5436
   53MOL0     H 7135  13.076   3.362   1.187  0.4154  1.0343  0.3243
   53MOL0     H 7136  12.971   3.395   1.386  1.1284  2.5248  0.2097
   53MOL0     H 7137  12.945   3.094   1.954 -0.8074 -0.1900  0.3374
   53MOL0     H 7138  12.781   3.152   2.126 -0.0781  1.8010  1.7137
   53MOL0     H 7139  11.714   4.083   3.296 -1.7903  1.5595  0.9965
   53MOL0     H 7140  11.611   4.159   3.489 -0.3566 -0.6724  0.7577
   53MOL0     H 7141  11.191   3.960   3.697  3.3671  0.1426 -0.4447
   53MOL0     H 7142  11.022   4.091   3.814 -0.8505  2.8606 -0.1863
   53MOL0     H 7143  10.898   4.327   4.086 -1.0686  1.0751 -0.4857
   53MOL0     H 7144  10.924   4.164   4.041  1.4550  1.5324  0.7181
   53MOL0     H 7145  10.892   4.262   3.799  4.4124  0.1452  0.6433
   53MOL0     H 7146  10.860   4.418   3.890 -0.0631  0.5852  2.5121
   53MOL0     H 7147  10.657   4.321   3.989 -1.1346  1.1443 -1.9789
   53MOL0     H 7148  10.704   4.160   3.938 -0.6690 -0.9224 -3.5281
   53MOL0     H 7149  10.691   4.261   3.698  2.0329  2.0582  1.8956
   53MOL0     H 7150  10.538   4.213   3.775  0.7504 -1.6459  2.5953
   53MOL0     H 7151  10.442   4.609   3.805 -0.4633  0.8793 -1.4672
   53MOL0     H 7152  11.315   4.263   4.074 -2.2234 -1.7335  1.0408
   53MOL0     H 7153  11.582   4.030   3.996  0.1782 -0.0707 -0.1896
   53MOL0     H 7154  11.591   4.183   3.917  0.4049  1.5990  2.0436
   53MOL0     H 7155  11.543   4.178   4.083  1.2833  0.8602 -0.6455
   54MOL0     O 7156   7.848   0.966   9.312  0.4229 -0.1844  0.1841
   54MOL0     C 7157   7.922   0.937   9.212 -0.8963  0.4384  0.6490
   54MOL0     O 7158   7.945   1.017   9.105 -0.0800 -0.0137 -0.5047
   54MOL0     C 7159   7.882   1.137   9.089  0.6845 -0.6155  0.5571
   54MOL0     C 7160   7.950   1.227   9.007 -0.2766 -0.1576  0.1333
   54MOL0     C 7161   7.888   1.357   8.978 -0.5917 -0.2640 -0.0431
   54MOL0     C 7162   7.764   1.391   9.031 -0.7874 -0.1705  0.3718
   54MOL0     O 7163   7.701   1.503   8.992  0.1300 -0.3424 -0.0599
   54MOL0     C 7164   7.759   1.598   9.087 -0.0925 -0.4405 -0.4215
   54MOL0     C 7165   7.644   1.682   9.140 -0.3740  1.1858  0.2198
   54MOL0     C 7166   7.696   1.792   9.236 -0.6546  0.1282  1.2421
   54MOL0     C 7167   7.593   1.889   9.296 -0.1404  0.5409 -0.1948
   54MOL0     C 7168   7.649   1.994   9.392  0.6808  0.2891 -0.0151
   54MOL0     C 7169   7.541   2.097   9.421 -0.4204 -0.6099  0.8441
   54MOL0     C 7170   7.593   2.203   9.533  0.1148  0.5139  0.0820
   54MOL0     C 7171   7.743   2.231   9.537  1.0838  0.4768  0.1576
   54MOL0     N 7172   7.763   2.367   9.613 -0.3986  0.7005 -0.4879
   54MOL0     C 7173   7.762   2.486   9.545  0.1526 -0.6511  0.5024
   54MOL0     C 7174   7.730   2.582   9.630 -0.2948  0.4244 -0.1678
   54MOL0     C 7175   7.694   2.718   9.579 -0.0357  0.0644  0.1755
   54MOL0     C 7176   7.703   2.814   9.694 -0.1932 -0.4237 -0.6868
   54MOL0     C 7177   7.844   2.817   9.766  0.3227  0.5736 -0.5482
   54MOL0     C 7178   7.953   2.854   9.663 -1.1190 -0.1087 -0.6328
   54MOL0     O 7179   7.942   2.986   9.609  0.1655  0.5841 -0.5008
   54MOL0     C 7180   7.968   3.094   9.676 -0.3341 -1.5844  0.8158
   54MOL0     C 7181   8.029   3.100   9.799 -0.1097 -0.4454 -0.2468
   54MOL0     C 7182   8.068   3.229   9.861  0.0759  0.1958  0.9079
   54MOL0     C 7183   8.060   3.351   9.799  0.0002 -0.5138 -0.5070
   54MOL0     C 7184   8.102   3.475   9.865  0.0159  0.0268  0.3405
   54MOL0     O 7185   8.031   3.577   9.832 -0.4958 -0.1865 -0.5344
   54MOL0     C 7186   8.099   3.697   9.856  0.2250 -1.0491 -0.6880
   54MOL0     C 7187   8.069   3.779   9.966 -0.2033 -0.7847 -1.4744
   54MOL0     C 7188   8.140   3.899   9.986 -0.6109 -0.0559  0.2320
   54MOL0     C 7189   8.254   3.932   9.917 -0.1824  0.0275 -0.1368
   54MOL0     O 7190   8.327   4.036   9.950 -1.0722 -0.3960 -0.1311
   54MOL0     C 7191   8.437   4.068   9.862  0.0423 -0.1370 -0.2821
   54MOL0     C 7192   8.556   3.992   9.912 -0.4404  0.3063  0.3060
   54MOL0     C 7193   8.673   4.000   9.816  0.0119  1.4448  0.5150
   54MOL0     C 7194   8.813   3.959   9.889  0.0531  0.2580  0.6434
   54MOL0     C 7195   8.931   3.977   9.802  0.7643 -0.0379  0.4147
   54MOL0     C 7196   9.063   3.954   9.874 -0.3595  0.7509  0.1713
   54MOL0     C 7197   9.092   3.800   9.875 -0.2821 -0.0132 -0.5240
   54MOL0     C 7198   9.239   3.755   9.886 -0.2031 -0.3905  0.3576
   54MOL0    Cl 7199   9.233   3.585   9.860 -0.1179 -0.0217 -0.3617
   54MOL0     C 7200   8.286   3.842   9.813 -0.9171 -0.4219  0.9649
   54MOL0     C 7201   8.210   3.736   9.770  0.0353  0.0229 -0.1409
   54MOL0     O 7202   8.203   3.471   9.937  0.0892 -0.1467 -0.2911
   54MOL0     C 7203   7.982   3.345   9.684 -0.6827 -0.2927  0.0844
   54MOL0     C 7204   7.937   3.223   9.623 -0.5078 -0.1752  0.8648
   54MOL0     N 7205   7.705   2.514   9.754 -0.3299 -0.1474 -0.3002
   54MOL0     N 7206   7.712   2.387   9.741  0.3394  0.4365  0.1209
   54MOL0     C 7207   7.698   1.293   9.096 -0.2560  0.5197  0.1041
   54MOL0     C 7208   7.754   1.171   9.126  0.6169  0.7498 -0.1371
   54MOL0     C 7209   7.987   0.806   9.212  0.6185  0.0984 -0.2048
   54MOL0     C 7210   8.109   0.793   9.159 -1.3679 -0.4065 -0.0002
   54MOL0     C 7211   8.177   0.663   9.158  1.2660 -0.6084 -0.1516
   54MOL0     C 7212   8.126   0.552   9.231  0.6005  0.3917  0.0932
   54MOL0     O 7213   8.202   0.442   9.242  0.0710  0.2576  0.4163
   54MOL0     C 7214   8.139   0.319   9.293 -0.9465  0.3813  0.2109
   54MOL0     C 7215   8.195   0.205   9.212  0.5473  0.1764 -0.0800
   54MOL0     C 7216   8.158   0.061   9.260  0.7900 -0.3063  0.7031
   54MOL0     C 7217   8.017   0.019   9.230  0.1270  0.7532 -0.3517
   54MOL0     C 7218   8.013  -0.126   9.206  0.3858  0.2800 -0.8780
   54MOL0     C 7219   8.023  -0.245   9.186 -0.4470 -0.3018  0.1306
   54MOL0     C 7220   7.997   0.571   9.288  1.1962 -0.2983  0.5476
   54MOL0     C 7221   7.927   0.692   9.270 -0.1044  0.1821  0.6009
   54MOL0     C 7222   7.798   0.688   9.333  0.7651 -0.0582 -0.1961
   54MOL0     H 7223   8.043   1.211   8.955 -1.4988  0.9180 -2.5659
   54MOL0     H 7224   7.946   1.423   8.914  3.6440 -0.4675  3.1750
   54MOL0     H 7225   7.808   1.559   9.177  0.2252  2.8705  0.9858
   54MOL0     H 7226   7.831   1.669   9.043 -0.2773  1.1119  1.6400
   54MOL0     H 7227   7.575   1.608   9.180 -0.1410  0.5829 -0.4636
   54MOL0     H 7228   7.596   1.720   9.049 -1.5369 -1.2075 -0.2506
   54MOL0     H 7229   7.790   1.841   9.207 -0.0508 -1.6998 -0.0934
   54MOL0     H 7230   7.739   1.733   9.317 -0.0585  0.0893  0.9017
   54MOL0     H 7231   7.557   1.932   9.202  5.3305  2.4051 -1.8194
   54MOL0     H 7232   7.531   1.836   9.369  2.3167  3.3019  4.4438
   54MOL0     H 7233   7.677   1.950   9.488 -1.3680  1.7880  1.3599
   54MOL0     H 7234   7.742   2.044   9.365  2.5350 -2.2565  1.2736
   54MOL0     H 7235   7.521   2.150   9.328  0.5175  0.4451  1.2137
   54MOL0     H 7236   7.442   2.072   9.459 -0.5291 -2.2627 -0.4203
   54MOL0     H 7237   7.555   2.152   9.622 -1.1468 -0.8173 -1.1702
   54MOL0     H 7238   7.533   2.292   9.516  2.2512  1.6923 -2.0001
   54MOL0     H 7239   7.800   2.154   9.590 -0.1854 -0.0067  0.8859
   54MOL0     H 7240   7.782   2.240   9.435  1.3256 -0.2730  0.1732
   54MOL0     H 7241   7.786   2.513   9.442 -1.3934  5.8738  1.3970
   54MOL0     H 7242   7.753   2.752   9.494 -0.3101 -3.5794 -1.6474
   54MOL0     H 7243   7.591   2.721   9.542  0.0708  0.7394 -0.0773
   54MOL0     H 7244   7.666   2.912   9.664  3.3902  0.4270 -2.8659
   54MOL0     H 7245   7.628   2.788   9.770 -0.0100  3.5144  1.1211
   54MOL0     H 7246   7.871   2.724   9.817  0.4916  0.7112 -0.3827
   54MOL0     H 7247   7.850   2.881   9.854 -0.7508 -1.4598  1.0839
   54MOL0     H 7248   7.951   2.790   9.575 -0.6883 -1.0787  0.0481
   54MOL0     H 7249   8.053   2.822   9.692 -1.2382 -2.6586 -2.6560
   54MOL0     H 7250   8.045   3.006   9.851  0.8553  0.2871  0.8207
   54MOL0     H 7251   8.119   3.222   9.957  0.6983 -0.4585  0.5347
   54MOL0     H 7252   7.984   3.751  10.028  1.5616 -0.1494  1.4587
   54MOL0     H 7253   8.117   3.964  10.070 -1.1463  0.9899 -0.7088
   54MOL0     H 7254   8.405   4.050   9.759 -1.8517 -0.6055  0.3482
   54MOL0     H 7255   8.457   4.175   9.872 -0.6632 -0.1057  0.9533
   54MOL0     H 7256   8.581   4.036  10.009  0.7401  2.2866 -0.8170
   54MOL0     H 7257   8.529   3.887   9.927 -1.8516  0.1028 -2.8430
   54MOL0     H 7258   8.657   3.929   9.734  1.4980  3.4250 -1.6181
   54MOL0     H 7259   8.677   4.093   9.759 -3.6116  1.4630  0.0770
   54MOL0     H 7260   8.819   3.853   9.915 -0.0953 -0.8217 -3.1821
   54MOL0     H 7261   8.834   4.023   9.976 -0.6094  3.0463 -1.1390
   54MOL0     H 7262   8.930   4.079   9.762  0.0767  0.3135  1.2902
   54MOL0     H 7263   8.917   3.904   9.722 -0.2791  0.0076  0.5435
   54MOL0     H 7264   9.141   3.999   9.812 -0.1938  0.4957  0.1954
   54MOL0     H 7265   9.066   3.998   9.974  6.3645 -0.4445  0.9505
   54MOL0     H 7266   9.060   3.762   9.778  0.7815 -0.5668 -0.6718
   54MOL0     H 7267   9.033   3.751   9.954  0.7511  0.3425  0.5016
   54MOL0     H 7268   9.290   3.814   9.809 -4.0780  0.9558 -1.4388
   54MOL0     H 7269   9.277   3.781   9.985  0.4359 -1.5282  0.4258
   54MOL0     H 7270   8.381   3.847   9.760 -0.3985 -1.0294  1.8243
   54MOL0     H 7271   8.245   3.666   9.696  2.4554  0.0516  0.8943
   54MOL0     H 7272   7.948   3.435   9.634 -3.1647 -1.7455 -1.0334
   54MOL0     H 7273   7.877   3.217   9.533  1.1646 -0.4318 -0.2868
   54MOL0     H 7274   7.600   1.326   9.127 -0.4153  1.5258 -1.3406
   54MOL0     H 7275   7.685   1.105   9.177  3.3576  0.9591  4.3844
   54MOL0     H 7276   8.148   0.885   9.115 -3.6111  0.4477 -0.3528
   54MOL0     H 7277   8.272   0.669   9.107  0.5808 -0.2324 -1.4317
   54MOL0     H 7278   8.030   0.318   9.277 -0.5783 -0.8465 -2.9286
   54MOL0     H 7279   8.168   0.322   9.398 -3.0206  0.2457  0.8380
   54MOL0     H 7280   8.304   0.208   9.221  0.4836 -1.2951  1.6346
   54MOL0     H 7281   8.168   0.215   9.106  1.2881  3.8473 -0.0461
   54MOL0     H 7282   8.176   0.052   9.368 -2.2646 -4.3600  1.1211
   54MOL0     H 7283   8.224  -0.010   9.210 -1.3804 -3.1463  1.6125
   54MOL0     H 7284   7.957   0.050   9.316 -2.7208  0.3208 -2.0396
   54MOL0     H 7285   7.984   0.072   9.140 -2.8527 -0.8986 -0.3448
   54MOL0     H 7286   8.034  -0.352   9.175 -1.1938 -0.3433 -0.2364
   54MOL0     H 7287   7.950   0.494   9.348  0.4387 -0.0362  0.3041
   54MOL0     H 7288   7.751   0.589   9.331 -1.7762  0.8036  4.2908
   54MOL0     H 7289   7.819   0.704   9.439  0.7890 -4.9658  0.7768
   54MOL0     H 7290   7.727   0.757   9.286  0.0734 -0.7708 -0.2224
   55MOL0     O 7291   1.315   0.781   7.465  0.6369 -0.1809  0.3201
   55MOL0     C 7292   1.290   0.715   7.367 -0.5272  1.0939 -0.4069
   55MOL0     O 7293   1.180   0.673   7.315  0.4778  0.4459 -1.0909
   55MOL0     C 7294   1.075   0.740   7.359  1.2960 -0.4888 -0.8200
   55MOL0     C 7295   1.061   0.868   7.313 -0.1435 -0.5426 -0.6024
   55MOL0     C 7296   0.978   0.964   7.361  1.2367  0.4778  0.2340
   55MOL0     C 7297   0.905   0.929   7.468  0.3356  0.0939  0.5931
   55MOL0     O 7298   0.824   1.033   7.518  0.4210 -0.4975 -0.6086
   55MOL0     C 7299   0.716   0.994   7.608 -0.2056  0.2357  0.3522
   55MOL0     C 7300   0.612   1.109   7.586  1.0268  0.5657 -0.7036
   55MOL0     C 7301   0.473   1.077   7.639 -0.2718 -0.3303 -1.1300
   55MOL0     C 7302   0.360   1.174   7.606  0.1419 -0.0282  1.2803
   55MOL0     C 7303   0.363   1.297   7.696  0.1843  1.1557 -0.6392
   55MOL0     C 7304   0.243   1.383   7.655  0.5654 -0.3836  0.8337
   55MOL0     C 7305   0.182   1.441   7.783  0.1328 -0.5260 -0.3014
   55MOL0     C 7306   0.272   1.552   7.847 -0.2788 -0.2396 -0.4684
   55MOL0     N 7307   0.187   1.622   7.935  0.1306 -0.4660  0.2371
   55MOL0     C 7308   0.152   1.756   7.934  0.1265  0.6259 -0.0972
   55MOL0     C 7309   0.071   1.778   8.034 -0.2873  0.9830 -0.6726
   55MOL0     C 7310   0.018   1.910   8.070  0.0428 -0.0452 -0.1876
   55MOL0     C 7311  -0.071   1.901   8.199 -0.6153 -0.3088 -0.1364
   55MOL0     C 7312  -0.132   2.035   8.231  0.2144 -0.5173 -0.0566
   55MOL0     C 7313  -0.200   2.045   8.362 -0.2502  0.2007 -0.3936
   55MOL0     O 7314  -0.117   2.016   8.476 -0.2826 -0.0343  0.1683
   55MOL0     C 7315  -0.185   2.038   8.597 -0.6410 -0.4623 -0.9401
   55MOL0     C 7316  -0.107   2.012   8.717 -0.1022  1.2046 -0.7754
   55MOL0     C 7317  -0.156   2.037   8.842 -0.5237  0.0176  0.0684
   55MOL0     C 7318  -0.287   2.093   8.846  0.3571 -0.4652 -0.8924
   55MOL0     C 7319  -0.331   2.126   8.984 -0.7949 -0.1549  0.1062
   55MOL0     O 7320  -0.253   2.069   9.082 -0.4770 -0.2950  0.0221
   55MOL0     C 7321  -0.294   2.042   9.209 -0.6192  0.1489 -0.7241
   55MOL0     C 7322  -0.205   1.954   9.278 -0.5030  0.6966  0.2591
   55MOL0     C 7323  -0.225   1.921   9.417 -0.3789  0.6288 -0.5527
   55MOL0     C 7324  -0.323   1.995   9.491 -0.3419 -0.1534 -0.3711
   55MOL0     O 7325  -0.335   1.998   9.625 -0.1533  0.3074  0.7618
   55MOL0     C 7326  -0.217   1.976   9.699 -0.3173  0.4156  0.0802
   55MOL0     C 7327  -0.194   2.079   9.803 -0.5737 -0.8401  0.2343
   55MOL0     C 7328  -0.054   2.130   9.831 -0.2933  0.3885 -0.9605
   55MOL0     C 7329  -0.010   2.218   9.711 -0.3359 -0.1225  0.0669
   55MOL0     C 7330   0.144   2.257   9.723  0.4453 -0.3268 -0.6794
   55MOL0     C 7331   0.194   2.302   9.863  0.0187  0.5906 -0.1628
   55MOL0     C 7332   0.331   2.362   9.861 -0.3183  0.1320  0.9328
   55MOL0     C 7333   0.379   2.398  10.004  0.0797  0.6887  0.2027
   55MOL0    Cl 7334   0.547   2.446   9.990 -0.2701 -0.1937  0.1799
   55MOL0     C 7335  -0.412   2.073   9.416  1.0816 -0.7164  0.5181
   55MOL0     C 7336  -0.399   2.097   9.280 -0.2268  0.1630 -0.2473
   55MOL0     O 7337  -0.420   2.203   9.003  0.2731  0.0653  0.0062
   55MOL0     C 7338  -0.363   2.123   8.735  0.0883  0.2006 -0.2987
   55MOL0     C 7339  -0.309   2.105   8.610 -0.0705 -0.2347  1.0656
   55MOL0     N 7340   0.024   1.651   8.079 -0.4628  0.7619  0.5427
   55MOL0     N 7341   0.099   1.563   8.021  0.0227 -0.7130 -1.0581
   55MOL0     C 7342   0.909   0.801   7.522 -0.3684  0.7522 -0.2608
   55MOL0     C 7343   1.001   0.704   7.479  0.0961  0.9225 -0.2770
   55MOL0     C 7344   1.403   0.662   7.308  0.1493 -0.0076 -0.0044
   55MOL0     C 7345   1.439   0.713   7.180  0.0410  0.8754 -0.5993
   55MOL0     C 7346   1.546   0.650   7.116 -0.1773 -0.4303  0.1644
   55MOL0     C 7347   1.639   0.565   7.181  0.3302 -0.0655  0.2263
   55MOL0     O 7348   1.733   0.516   7.093  0.5808  0.1137 -0.0305
   55MOL0     C 7349   1.810   0.412   7.142 -0.0960  0.5788  0.0057
   55MOL0     C 7350   1.921   0.471   7.234 -0.2631 -0.3598 -0.7263
   55MOL0     C 7351   2.001   0.580   7.166  0.1541 -0.7546 -0.1067
   55MOL0     C 7352   2.053   0.554   7.029  1.1232  0.7834 -0.7328
   55MOL0     C 7353   2.130   0.431   7.024 -0.2656 -0.2676 -0.7090
   55MOL0     C 7354   2.197   0.324   7.032 -0.2065 -0.5835 -0.3380
   55MOL0     C 7355   1.603   0.528   7.308  0.6157 -0.4406 -0.2798
   55MOL0     C 7356   1.488   0.570   7.371 -0.5779 -0.0736 -0.0051
   55MOL0     C 7357   1.454   0.508   7.505  0.1651 -0.5656  0.9213
   55MOL0     H 7358   1.123   0.902   7.230 -1.3499 -0.9010 -1.6899
   55MOL0     H 7359   0.970   1.062   7.314 -0.8819  0.1586 -0.1891
   55MOL0     H 7360   0.672   0.901   7.571 -1.3111  1.1829 -0.8396
   55MOL0     H 7361   0.733   0.988   7.716 -1.2247  0.6968  0.5537
   55MOL0     H 7362   0.587   1.133   7.482 -0.3149 -0.2473 -0.5851
   55MOL0     H 7363   0.650   1.203   7.628  0.3964  0.1801  0.8001
   55MOL0     H 7364   0.494   1.080   7.746 -1.1132  0.9515 -0.9800
   55MOL0     H 7365   0.449   0.971   7.622 -5.6816 -0.1015  2.5126
   55MOL0     H 7366   0.374   1.220   7.508  0.4782  4.8075  3.3254
   55MOL0     H 7367   0.270   1.112   7.613 -1.3017  2.1399  3.8665
   55MOL0     H 7368   0.346   1.266   7.799  0.7819 -0.2384 -0.9378
   55MOL0     H 7369   0.456   1.354   7.697  1.1452 -0.3207 -1.5955
   55MOL0     H 7370   0.266   1.452   7.573 -1.5185 -3.5141 -2.7620
   55MOL0     H 7371   0.164   1.319   7.613 -0.3793  2.3153 -1.8722
   55MOL0     H 7372   0.164   1.354   7.847 -1.1587 -1.1055 -1.3825
   55MOL0     H 7373   0.089   1.491   7.751  1.3993  0.9843 -1.8347
   55MOL0     H 7374   0.351   1.505   7.906 -0.2247  1.6757  1.0494
   55MOL0     H 7375   0.315   1.618   7.771 -1.0008 -0.3458 -0.9872
   55MOL0     H 7376   0.188   1.827   7.860  0.4352  1.7276  1.0854
   55MOL0     H 7377   0.102   1.980   8.074 -0.5816  0.6491  1.6759
   55MOL0     H 7378  -0.039   1.943   7.983 -0.8722  1.0216  0.7886
   55MOL0     H 7379  -0.153   1.828   8.189 -4.5612  3.3876  1.9531
   55MOL0     H 7380  -0.002   1.878   8.280 -1.1451  0.3163  0.5115
   55MOL0     H 7381  -0.202   2.064   8.152  1.5821  1.4675 -0.5942
   55MOL0     H 7382  -0.065   2.121   8.226 -3.2443  2.3812 -1.0834
   55MOL0     H 7383  -0.291   1.983   8.355  0.9369 -2.0114  2.1917
   55MOL0     H 7384  -0.236   2.148   8.371 -1.9929 -0.0999 -2.7343
   55MOL0     H 7385  -0.007   1.969   8.717 -1.0280 -1.1132 -0.1817
   55MOL0     H 7386  -0.096   2.023   8.931  0.2444 -0.6428 -0.5406
   55MOL0     H 7387  -0.131   1.920   9.207 -0.6180  1.8018 -0.4219
   55MOL0     H 7388  -0.154   1.847   9.451  1.0717  1.6015 -1.3429
   55MOL0     H 7389  -0.235   1.884   9.755 -1.9839  0.7888  0.2319
   55MOL0     H 7390  -0.130   1.971   9.633 -0.9950  0.3356 -0.8241
   55MOL0     H 7391  -0.247   2.174   9.786 -2.7982 -0.7020  5.8428
   55MOL0     H 7392  -0.219   2.027   9.895 -1.6745 -1.2551 -0.2730
   55MOL0     H 7393  -0.056   2.181   9.928  0.4783 -0.2121 -0.6169
   55MOL0     H 7394   0.016   2.046   9.837  0.4877  0.8775 -2.5683
   55MOL0     H 7395  -0.067   2.311   9.713 -1.9960 -1.0128  4.0551
   55MOL0     H 7396  -0.029   2.173   9.613 -0.0440 -1.8788  0.7737
   55MOL0     H 7397   0.169   2.336   9.652 -1.6133  0.3254 -0.7402
   55MOL0     H 7398   0.209   2.176   9.691  0.8817 -1.0881  1.8822
   55MOL0     H 7399   0.118   2.363   9.912 -2.0060 -0.2254 -2.1335
   55MOL0     H 7400   0.198   2.219   9.934 -0.5036 -0.0188 -0.8281
   55MOL0     H 7401   0.338   2.454   9.804  1.0230  0.6307  1.8515
   55MOL0     H 7402   0.399   2.288   9.818 -1.7074 -0.2121 -0.7762
   55MOL0     H 7403   0.314   2.478  10.042 -0.9514 -0.3153  0.5985
   55MOL0     H 7404   0.384   2.317  10.077  1.3892  2.2609  1.9526
   55MOL0     H 7405  -0.490   2.129   9.468 -0.1111 -1.0366 -0.8558
   55MOL0     H 7406  -0.464   2.165   9.226 -0.9444 -0.5119 -0.2457
   55MOL0     H 7407  -0.454   2.176   8.761  0.2644 -0.3875  1.6872
   55MOL0     H 7408  -0.367   2.166   8.540 -0.2394 -0.6419  0.8438
   55MOL0     H 7409   0.860   0.785   7.618 -0.2019  3.6747  0.4089
   55MOL0     H 7410   1.004   0.606   7.526 -0.4734 -0.2064 -2.4871
   55MOL0     H 7411   1.372   0.774   7.120  0.7225  2.6454  0.3448
   55MOL0     H 7412   1.547   0.682   7.013  2.2926 -0.8321 -0.0047
   55MOL0     H 7413   1.870   0.354   7.071  0.2880  1.5674 -0.5088
   55MOL0     H 7414   1.749   0.342   7.199  0.3016  0.8327  0.7611
   55MOL0     H 7415   1.986   0.393   7.275  0.2050 -1.1910 -2.9430
   55MOL0     H 7416   1.866   0.520   7.315 -2.2265 -1.2794 -1.4289
   55MOL0     H 7417   2.088   0.606   7.227  1.1773  0.6144 -2.0577
   55MOL0     H 7418   1.944   0.674   7.157 -0.1450 -0.3048  4.1543
   55MOL0     H 7419   1.971   0.559   6.956  0.8627  0.5282 -0.4608
   55MOL0     H 7420   2.124   0.633   7.006 -0.3625  2.0456 -1.1022
   55MOL0     H 7421   2.261   0.239   7.039 -0.3048 -1.1483 -4.1965
   55MOL0     H 7422   1.663   0.456   7.363  1.0176  0.0028 -0.1345
   55MOL0     H 7423   1.348   0.483   7.498 -0.4313  2.1255 -1.7615
   55MOL0     H 7424   1.501   0.410   7.520 -2.3479 -1.6404  2.3631
   55MOL0     H 7425   1.462   0.573   7.593  0.9965 -0.7848  1.0214
   56MOL0     O 7426   4.105   8.586   5.836  0.5292  0.0214 -0.1499
   56MOL0     C 7427   4.129   8.472   5.866 -0.0701 -0.2355  0.7431
   56MOL0     O 7428   4.140   8.372   5.763  0.7885  0.4045 -0.0645
   56MOL0     C 7429   4.182   8.410   5.640 -0.0529 -0.4478 -0.0642
   56MOL0     C 7430   4.314   8.407   5.600  0.5881  0.1657  0.5833
   56MOL0     C 7431   4.352   8.436   5.469 -0.3955 -0.4414 -0.7583
   56MOL0     C 7432   4.261   8.458   5.365 -0.3911  0.2026  0.1306
   56MOL0     O 7433   4.321   8.463   5.238  0.4483  0.5311  0.3943
   56MOL0     C 7434   4.233   8.406   5.130 -0.1418 -0.5886  0.7121
   56MOL0     C 7435   4.273   8.261   5.085  0.4752  0.2676 -0.2568
   56MOL0     C 7436   4.205   8.153   5.182  0.3818 -0.0736  0.1493
   56MOL0     C 7437   4.049   8.136   5.153  0.6019 -0.1437  0.4126
   56MOL0     C 7438   3.992   8.022   5.231  1.9983 -0.0788  0.1311
   56MOL0     C 7439   3.957   8.047   5.380  0.6477  0.2518  0.2422
   56MOL0     C 7440   3.831   8.133   5.396  0.2587 -0.0588 -0.9469
   56MOL0     C 7441   3.804   8.154   5.542 -0.4450 -0.0311 -0.6329
   56MOL0     N 7442   3.678   8.236   5.563 -0.3543 -0.2364  0.1550
   56MOL0     C 7443   3.551   8.181   5.545 -0.3847  0.0973  0.2496
   56MOL0     C 7444   3.462   8.293   5.543 -0.0883  0.4761 -0.1823
   56MOL0     C 7445   3.313   8.281   5.528  1.0294  0.1954  0.6828
   56MOL0     C 7446   3.240   8.367   5.632  0.2578 -0.6764 -0.3194
   56MOL0     C 7447   3.091   8.366   5.596  0.3795  0.0400 -0.9955
   56MOL0     C 7448   3.019   8.230   5.596  0.4036  0.6172  0.1835
   56MOL0     O 7449   2.879   8.235   5.549 -0.2138 -0.4720  0.0494
   56MOL0     C 7450   2.814   8.118   5.542  0.1439  0.1360  0.4646
   56MOL0     C 7451   2.674   8.130   5.546  0.2588  0.1498  0.0761
   56MOL0     C 7452   2.597   8.013   5.547  0.1102 -0.1472  0.0212
   56MOL0     C 7453   2.647   7.885   5.563 -0.2490 -0.4773  0.3310
   56MOL0     C 7454   2.554   7.770   5.546 -0.0222  0.0731  0.5758
   56MOL0     O 7455   2.607   7.651   5.511  0.1373 -0.4966  0.5809
   56MOL0     C 7456   2.530   7.540   5.480  0.3738  0.5780 -1.7073
   56MOL0     C 7457   2.457   7.536   5.360 -0.0867 -0.1932 -0.2867
   56MOL0     C 7458   2.373   7.428   5.335 -0.7324  1.2671  0.6557
   56MOL0     C 7459   2.363   7.324   5.421  0.1173  0.7695 -0.4724
   56MOL0     O 7460   2.276   7.211   5.409  0.3063 -0.0730 -0.0617
   56MOL0     C 7461   2.158   7.244   5.342  0.5614  0.4558  0.0884
   56MOL0     C 7462   2.045   7.158   5.396 -0.0641  0.2776 -1.2967
   56MOL0     C 7463   2.049   7.011   5.344  1.1066  0.4700 -0.4696
   56MOL0     C 7464   2.147   6.917   5.417 -0.0146 -0.8045 -0.9460
   56MOL0     C 7465   2.146   6.768   5.372 -0.6578  0.1664  0.9326
   56MOL0     C 7466   2.017   6.689   5.409 -0.6152 -0.0780  0.5145
   56MOL0     C 7467   2.023   6.539   5.424  0.5271 -0.4164  0.3979
   56MOL0     C 7468   2.058   6.477   5.291 -0.3359 -1.0499 -1.6775
   56MOL0    Cl 7469   2.075   6.310   5.329  0.1886 -0.1582  0.5224
   56MOL0     C 7470   2.441   7.326   5.532 -0.1113  0.1905 -0.0285
   56MOL0     C 7471   2.529   7.426   5.565 -0.2067  1.0673 -1.0790
   56MOL0     O 7472   2.433   7.789   5.545 -0.2712  0.0189  0.0540
   56MOL0     C 7473   2.788   7.875   5.549 -0.3823  0.1574 -0.2470
   56MOL0     C 7474   2.870   7.990   5.534  1.0304  0.9524 -1.1772
   56MOL0     N 7475   3.539   8.403   5.569 -0.3438 -0.1669  0.5099
   56MOL0     N 7476   3.665   8.373   5.576  0.5712  0.5888  0.3354
   56MOL0     C 7477   4.121   8.481   5.407  0.6422 -0.1340  0.0184
   56MOL0     C 7478   4.086   8.455   5.543  0.2928  1.0619  1.0250
   56MOL0     C 7479   4.118   8.433   6.011 -0.0622  0.8325  0.0533
   56MOL0     C 7480   4.127   8.290   6.042  0.1022 -0.2712 -0.7804
   56MOL0     C 7481   4.147   8.252   6.181  0.0664  1.5234  0.4265
   56MOL0     C 7482   4.158   8.341   6.282  0.7776  0.6574  0.5195
   56MOL0     O 7483   4.172   8.300   6.409  0.5124  1.8157  0.1879
   56MOL0     C 7484   4.290   8.341   6.484 -0.3027  0.2965  1.3727
   56MOL0     C 7485   4.261   8.408   6.622 -0.4664 -0.7629 -0.6690
   56MOL0     C 7486   4.372   8.494   6.674 -0.6554 -0.5061 -0.1990
   56MOL0     C 7487   4.329   8.581   6.798 -0.3738  0.0114  0.4800
   56MOL0     C 7488   4.424   8.688   6.827  0.3554 -0.7050  0.1575
   56MOL0     C 7489   4.507   8.774   6.849 -0.2008  0.5202 -0.0845
   56MOL0     C 7490   4.142   8.475   6.250  0.7868  0.3534 -0.0969
   56MOL0     C 7491   4.125   8.525   6.119 -0.2811 -0.3057  0.5492
   56MOL0     C 7492   4.121   8.673   6.103 -0.8007  1.3459 -0.1141
   56MOL0     H 7493   4.380   8.373   5.680  0.7463 -0.4371  0.2047
   56MOL0     H 7494   4.456   8.432   5.436  1.0989  0.4849  3.2735
   56MOL0     H 7495   4.130   8.411   5.167 -0.3550 -0.1513  0.0834
   56MOL0     H 7496   4.234   8.475   5.045  2.5237 -0.5832  0.6577
   56MOL0     H 7497   4.381   8.247   5.090  0.1996 -3.1376 -1.3476
   56MOL0     H 7498   4.240   8.230   4.986  0.1178  0.0508 -0.0733
   56MOL0     H 7499   4.223   8.182   5.286 -0.9599 -2.0060  0.9973
   56MOL0     H 7500   4.247   8.055   5.158  0.2411  0.2113 -1.3556
   56MOL0     H 7501   3.986   8.224   5.171  3.0217  1.9581 -0.8258
   56MOL0     H 7502   4.044   8.115   5.046  0.9568  0.8469  0.1849
   56MOL0     H 7503   3.902   7.995   5.175  1.8357  4.3588 -2.1617
   56MOL0     H 7504   4.064   7.940   5.221  1.4231 -0.4578 -1.0631
   56MOL0     H 7505   3.944   7.948   5.427  0.0769  0.0313 -0.3661
   56MOL0     H 7506   4.042   8.101   5.423  1.2539 -0.5907  0.1399
   56MOL0     H 7507   3.742   8.078   5.367 -1.5303  0.7644  2.3984
   56MOL0     H 7508   3.845   8.226   5.340  0.1069  0.0846 -0.7493
   56MOL0     H 7509   3.779   8.054   5.577 -0.0081 -0.0513 -0.3719
   56MOL0     H 7510   3.884   8.212   5.589 -1.3772  2.8110 -2.2794
   56MOL0     H 7511   3.512   8.081   5.530 -3.7064  1.1804  0.7026
   56MOL0     H 7512   3.299   8.308   5.422  1.5231  1.4369  0.9085
   56MOL0     H 7513   3.291   8.175   5.540 -3.1206  0.8265  0.1048
   56MOL0     H 7514   3.254   8.316   5.727  1.2123 -0.2656 -0.2352
   56MOL0     H 7515   3.277   8.466   5.661 -1.4553 -0.0242 -0.2316
   56MOL0     H 7516   3.085   8.417   5.499  4.6246  0.2577 -1.3098
   56MOL0     H 7517   3.051   8.428   5.677  2.2509  1.4808 -1.1065
   56MOL0     H 7518   3.020   8.190   5.698  0.5639 -0.3918 -0.2000
   56MOL0     H 7519   3.070   8.155   5.534 -1.2763  0.3995 -1.0013
   56MOL0     H 7520   2.629   8.228   5.536 -1.2427 -0.3568  1.4996
   56MOL0     H 7521   2.490   8.030   5.545  0.0633 -0.1770  1.6214
   56MOL0     H 7522   2.472   7.609   5.281  1.3581 -1.4153 -1.2018
   56MOL0     H 7523   2.306   7.423   5.250 -2.9879  0.7355  2.3684
   56MOL0     H 7524   2.122   7.343   5.369  3.6868  1.7328  0.0537
   56MOL0     H 7525   2.169   7.234   5.234  4.9455  1.4424  0.2358
   56MOL0     H 7526   2.044   7.152   5.506  0.4190 -1.2473 -1.3547
   56MOL0     H 7527   1.957   7.213   5.363 -0.0941 -0.2512 -2.1163
   56MOL0     H 7528   1.947   6.973   5.357  1.1972 -0.1199 -1.3200
   56MOL0     H 7529   2.065   6.999   5.236  0.4567  1.4244 -0.6784
   56MOL0     H 7530   2.118   6.922   5.522  1.5400 -0.8998 -0.4820
   56MOL0     H 7531   2.250   6.950   5.400  0.7576 -2.7340 -0.3090
   56MOL0     H 7532   2.240   6.722   5.403 -0.2893 -1.7097 -2.4981
   56MOL0     H 7533   2.140   6.769   5.263 -2.2456  2.8536  0.9565
   56MOL0     H 7534   1.980   6.725   5.506 -0.0879  2.1693 -0.0542
   56MOL0     H 7535   1.935   6.719   5.344  1.7280  1.4072 -2.0101
   56MOL0     H 7536   1.925   6.499   5.451  0.1381 -2.4946 -3.4236
   56MOL0     H 7537   2.096   6.523   5.504 -2.4359  1.9438  3.9625
   56MOL0     H 7538   1.984   6.506   5.216 -1.7933 -1.6262 -0.4992
   56MOL0     H 7539   2.159   6.507   5.260  0.9163 -1.4014  1.6643
   56MOL0     H 7540   2.449   7.239   5.596 -0.7075 -1.0280 -1.5581
   56MOL0     H 7541   2.592   7.416   5.652 -1.0369 -1.2175 -0.6932
   56MOL0     H 7542   2.822   7.772   5.558 -1.3581 -0.0047  3.2148
   56MOL0     H 7543   2.976   7.968   5.523  2.0715  5.1929 -1.0321
   56MOL0     H 7544   4.050   8.513   5.332  1.8231 -1.6040 -1.8041
   56MOL0     H 7545   3.982   8.462   5.574  0.8849  4.6792  2.7772
   56MOL0     H 7546   4.115   8.215   5.965  0.4802 -1.6915  0.4874
   56MOL0     H 7547   4.150   8.146   6.204 -1.6235  1.6261  1.2411
   56MOL0     H 7548   4.347   8.405   6.417 -2.0326  0.3458 -0.1386
   56MOL0     H 7549   4.353   8.255   6.507  0.8485  0.4913 -0.8264
   56MOL0     H 7550   4.254   8.330   6.698  1.3843  0.5652  0.9542
   56MOL0     H 7551   4.162   8.454   6.635 -0.6922 -0.6910 -2.3389
   56MOL0     H 7552   4.409   8.566   6.601  0.5724 -0.3135  0.5852
   56MOL0     H 7553   4.464   8.437   6.681  0.1885  0.9319  1.0519
   56MOL0     H 7554   4.230   8.623   6.784 -0.4360  0.1190  1.1880
   56MOL0     H 7555   4.324   8.516   6.886 -0.2882  1.3913  1.5319
   56MOL0     H 7556   4.585   8.844   6.872 -2.2232  2.7876  0.2656
   56MOL0     H 7557   4.134   8.550   6.328 -2.3678 -1.5518  1.6048
   56MOL0     H 7558   4.208   8.711   6.048 -0.6563  0.8922 -0.2026
   56MOL0     H 7559   4.029   8.703   6.052 -0.1873 -0.8210 -2.7520
   56MOL0     H 7560   4.118   8.726   6.199  2.1740 -0.5709  1.1887
   57MOL0     O 7561   2.655   1.503   0.537  0.1359 -0.5997  0.0469
   57MOL0     C 7562   2.533   1.482   0.530  0.0112 -0.2135  1.1950
   57MOL0     O 7563   2.461   1.485   0.410 -0.1029  0.1537  0.7270
   57MOL0     C 7564   2.524   1.474   0.283  0.1027 -0.1535 -0.6248
   57MOL0     C 7565   2.613   1.371   0.252 -0.7725 -0.7405  0.2979
   57MOL0     C 7566   2.712   1.389   0.140  0.3581  0.1532 -0.2602
   57MOL0     C 7567   2.697   1.496   0.051  1.2347 -0.6841  0.0810
   57MOL0     O 7568   2.776   1.506  -0.061 -0.3529 -0.5237 -0.1557
   57MOL0     C 7569   2.898   1.433  -0.069  0.2988  0.2599 -1.0926
   57MOL0     C 7570   2.988   1.514  -0.167 -0.1905  0.0702  0.5261
   57MOL0     C 7571   2.926   1.548  -0.310 -0.1978 -0.3540 -1.0147
   57MOL0     C 7572   2.996   1.662  -0.385  0.6509  0.9570 -0.7968
   57MOL0     C 7573   2.945   1.676  -0.534 -0.1109 -0.9969 -0.1767
   57MOL0     C 7574   3.023   1.779  -0.603  0.2184  0.0718 -0.6481
   57MOL0     C 7575   2.948   1.809  -0.729 -0.5414 -0.3782 -0.1674
   57MOL0     C 7576   3.028   1.911  -0.816 -0.2655  0.3410  0.3060
   57MOL0     N 7577   3.116   1.866  -0.926  0.7163  0.2535  0.4272
   57MOL0     C 7578   3.059   1.848  -1.047  0.0398 -0.0899  0.3797
   57MOL0     C 7579   3.157   1.875  -1.131 -0.7283  0.1375  0.5574
   57MOL0     C 7580   3.155   1.890  -1.287 -0.3524  0.5608  0.8392
   57MOL0     C 7581   3.295   1.845  -1.331  0.3309 -0.0793  0.5052
   57MOL0     C 7582   3.315   1.857  -1.487  0.2787 -0.2508 -0.1212
   57MOL0     C 7583   3.304   1.992  -1.550  0.5910 -0.6912 -0.7238
   57MOL0     O 7584   3.276   1.978  -1.691  0.1558  0.1667 -0.4073
   57MOL0     C 7585   3.331   2.058  -1.787 -0.1705 -0.1064 -0.1488
   57MOL0     C 7586   3.390   2.189  -1.758 -0.0935  0.0717  0.2778
   57MOL0     C 7587   3.452   2.256  -1.870 -0.0113 -0.0220 -0.4374
   57MOL0     C 7588   3.455   2.205  -1.998 -0.2992  0.3271  0.1776
   57MOL0     C 7589   3.516   2.270  -2.105 -0.2023 -0.1694 -0.2029
   57MOL0     O 7590   3.528   2.403  -2.084  0.4451 -0.4078 -0.0654
   57MOL0     C 7591   3.597   2.496  -2.171  0.2848 -1.2327 -1.2041
   57MOL0     C 7592   3.564   2.633  -2.157  0.9021 -0.5841  0.2505
   57MOL0     C 7593   3.624   2.723  -2.246 -0.3223  0.2913  1.2348
   57MOL0     C 7594   3.717   2.685  -2.348 -0.4946  0.9787 -0.0145
   57MOL0     O 7595   3.789   2.782  -2.414 -0.3982 -0.2254 -0.3934
   57MOL0     C 7596   3.839   2.741  -2.544  0.1964  0.3571  0.8353
   57MOL0     C 7597   3.930   2.855  -2.598 -0.3303  0.4710 -0.2525
   57MOL0     C 7598   3.841   2.973  -2.615  0.3175  0.3683  0.1399
   57MOL0     C 7599   3.904   3.084  -2.697 -0.0809 -0.0973 -0.6923
   57MOL0     C 7600   4.029   3.142  -2.627 -0.0327  0.9556  0.4770
   57MOL0     C 7601   4.072   3.275  -2.686 -0.2410 -0.5090  0.4237
   57MOL0     C 7602   4.121   3.268  -2.831  0.0761 -0.4567  0.7694
   57MOL0     C 7603   4.056   3.370  -2.926 -0.3145 -0.0257  0.0459
   57MOL0    Cl 7604   4.136   3.330  -3.092  0.3721 -0.1194 -0.3045
   57MOL0     C 7605   3.735   2.545  -2.370  0.0491 -0.6228 -0.1757
   57MOL0     C 7606   3.676   2.457  -2.279  1.0984 -0.3671 -0.1595
   57MOL0     O 7607   3.554   2.209  -2.203  0.1197 -0.0397  0.4429
   57MOL0     C 7608   3.395   2.083  -2.024 -0.3774  0.9630  0.1391
   57MOL0     C 7609   3.331   2.009  -1.922 -0.5029  0.4256 -0.3634
   57MOL0     N 7610   3.270   1.916  -1.064 -0.0702 -0.2020  0.2482
   57MOL0     N 7611   3.245   1.898  -0.940  0.1642 -0.1124  0.2154
   57MOL0     C 7612   2.585   1.585   0.069  0.1083  0.5288  0.1346
   57MOL0     C 7613   2.507   1.573   0.184  0.3169  0.2837 -0.4755
   57MOL0     C 7614   2.479   1.428   0.652  0.1273  0.0219  0.3925
   57MOL0     C 7615   2.369   1.341   0.643  0.9294 -0.5969 -0.9357
   57MOL0     C 7616   2.304   1.285   0.753  1.1987 -0.5433 -0.3071
   57MOL0     C 7617   2.347   1.303   0.886 -0.3996 -1.0882 -0.3419
   57MOL0     O 7618   2.269   1.240   0.983  0.3309  0.0955 -0.7467
   57MOL0     C 7619   2.327   1.247   1.115 -0.6314  0.1800  0.5482
   57MOL0     C 7620   2.219   1.228   1.233  0.5773  0.6336  0.7920
   57MOL0     C 7621   2.274   1.249   1.375 -0.3837 -1.0446  0.0408
   57MOL0     C 7622   2.361   1.132   1.420  0.3652 -0.0938 -0.4412
   57MOL0     C 7623   2.272   1.011   1.454 -0.9852 -0.3169 -0.1046
   57MOL0     C 7624   2.203   0.918   1.465  0.3719  0.5666 -0.1952
   57MOL0     C 7625   2.467   1.380   0.894 -0.0454 -0.4247 -0.2808
   57MOL0     C 7626   2.532   1.443   0.785 -0.5506 -1.3235  0.4169
   57MOL0     C 7627   2.663   1.511   0.826  0.9977  0.8383 -0.3249
   57MOL0     H 7628   2.626   1.282   0.313  0.2435 -0.4359  0.5534
   57MOL0     H 7629   2.787   1.314   0.117  0.2700  0.2966 -1.0412
   57MOL0     H 7630   2.949   1.415   0.027  0.8016 -0.4478 -1.4838
   57MOL0     H 7631   2.880   1.333  -0.108 -0.3436 -0.7591  1.5541
   57MOL0     H 7632   3.071   1.445  -0.187 -0.1577  0.3839 -0.5021
   57MOL0     H 7633   3.031   1.607  -0.130  0.6401  0.7731 -2.0027
   57MOL0     H 7634   2.825   1.586  -0.294  0.2279  2.6793 -4.2601
   57MOL0     H 7635   2.914   1.452  -0.361 -0.3016 -0.9761  0.1549
   57MOL0     H 7636   2.978   1.754  -0.328 -1.2870 -0.1223  0.4680
   57MOL0     H 7637   3.103   1.641  -0.395  0.1970 -2.4140  0.1521
   57MOL0     H 7638   2.948   1.586  -0.596  0.5171 -2.3589  1.7605
   57MOL0     H 7639   2.838   1.694  -0.520 -0.2865 -1.0725 -1.3087
   57MOL0     H 7640   3.038   1.873  -0.549  2.2337  0.3676 -1.5935
   57MOL0     H 7641   3.124   1.737  -0.610 -0.7387 -2.1178 -3.1235
   57MOL0     H 7642   2.846   1.841  -0.703 -0.5314 -1.2117  0.9975
   57MOL0     H 7643   2.946   1.723  -0.796 -1.3956  0.6795 -1.5515
   57MOL0     H 7644   2.950   1.971  -0.864  1.2831  0.6801 -1.8995
   57MOL0     H 7645   3.088   1.968  -0.744 -0.5646  1.5700 -0.3950
   57MOL0     H 7646   2.963   1.808  -1.077  0.0183  0.5623 -0.4710
   57MOL0     H 7647   3.070   1.834  -1.327  0.2337  0.5277 -0.3888
   57MOL0     H 7648   3.144   1.995  -1.314 -2.4618  0.7109  2.1206
   57MOL0     H 7649   3.371   1.906  -1.281 -1.1078  2.2665 -0.0272
   57MOL0     H 7650   3.305   1.745  -1.288  3.7997 -0.0437  0.0777
   57MOL0     H 7651   3.235   1.794  -1.526 -0.3513  0.3216  0.2115
   57MOL0     H 7652   3.416   1.816  -1.489 -0.0540 -1.1141  0.2134
   57MOL0     H 7653   3.398   2.045  -1.534  0.3174 -0.9755  2.4374
   57MOL0     H 7654   3.222   2.045  -1.500  1.4911 -1.0872  1.2772
   57MOL0     H 7655   3.389   2.224  -1.655  1.2029  0.4901  0.1688
   57MOL0     H 7656   3.496   2.352  -1.845 -1.5158  1.0196 -1.5719
   57MOL0     H 7657   3.490   2.674  -2.090  0.7669 -0.6577  0.1469
   57MOL0     H 7658   3.612   2.831  -2.248 -0.6920  0.2427  0.7750
   57MOL0     H 7659   3.910   2.661  -2.522  1.0563  1.1148  0.8773
   57MOL0     H 7660   3.761   2.703  -2.610  0.8874 -0.4312  0.4521
   57MOL0     H 7661   4.018   2.860  -2.534  0.5538 -2.1953 -1.1149
   57MOL0     H 7662   3.967   2.824  -2.696 -1.6962  2.0920 -1.3349
   57MOL0     H 7663   3.747   2.952  -2.667 -0.5145  0.2479  1.6285
   57MOL0     H 7664   3.812   3.004  -2.514 -1.9724 -0.4807 -0.1955
   57MOL0     H 7665   3.838   3.171  -2.694  4.5139  3.8496  3.8375
   57MOL0     H 7666   3.919   3.060  -2.803 -0.7809 -1.2156 -0.5652
   57MOL0     H 7667   4.104   3.064  -2.643 -0.1095  1.3445 -2.1873
   57MOL0     H 7668   4.020   3.155  -2.518  0.1192  0.1653  0.5878
   57MOL0     H 7669   3.988   3.344  -2.677 -0.1330 -0.2662 -0.4346
   57MOL0     H 7670   4.150   3.324  -2.627  0.2373  2.6007 -2.5318
   57MOL0     H 7671   4.102   3.172  -2.880  3.4760  0.8937 -4.0201
   57MOL0     H 7672   4.229   3.283  -2.836  0.2927 -1.8290  0.8688
   57MOL0     H 7673   3.948   3.349  -2.922 -0.4559 -0.2989 -2.7653
   57MOL0     H 7674   4.081   3.473  -2.898 -0.5473  0.0482 -0.0116
   57MOL0     H 7675   3.796   2.492  -2.442 -0.5177 -1.0770 -0.3296
   57MOL0     H 7676   3.692   2.352  -2.302 -0.4607 -0.5543 -0.4773
   57MOL0     H 7677   3.385   2.037  -2.122 -2.8531  3.1971 -0.7898
   57MOL0     H 7678   3.281   1.918  -1.956 -4.2673  1.6170  1.3853
   57MOL0     H 7679   2.567   1.661  -0.006 -0.8228  1.8097  1.6264
   57MOL0     H 7680   2.427   1.644   0.203 -0.4103  0.0568 -2.4915
   57MOL0     H 7681   2.321   1.313   0.550 -1.0821 -0.2214 -0.0509
   57MOL0     H 7682   2.211   1.229   0.740  0.3522  0.8491 -0.4956
   57MOL0     H 7683   2.380   1.340   1.136  1.5167 -0.1874 -2.5991
   57MOL0     H 7684   2.404   1.169   1.113 -0.0456  0.7682  0.0678
   57MOL0     H 7685   2.172   1.131   1.218 -1.0485  1.6644 -1.4392
   57MOL0     H 7686   2.140   1.302   1.217  1.3076  1.1011 -1.0252
   57MOL0     H 7687   2.193   1.279   1.443  0.4371  0.5568  0.3735
   57MOL0     H 7688   2.350   1.327   1.382  2.6950 -3.9485  1.1301
   57MOL0     H 7689   2.443   1.117   1.350  2.1857  0.0883  1.5515
   57MOL0     H 7690   2.413   1.162   1.511  0.5555  2.6870 -1.3709
   57MOL0     H 7691   2.130   0.842   1.480 -1.8417  2.3547 -1.1936
   57MOL0     H 7692   2.530   1.373   0.982 -1.0708  1.9820  0.6960
   57MOL0     H 7693   2.739   1.432   0.836 -0.1666 -0.1608  1.2858
   57MOL0     H 7694   2.681   1.584   0.747 -3.6133 -0.1564 -2.6855
   57MOL0     H 7695   2.639   1.557   0.922 -4.2292 -0.0482 -0.9012
   58MOL0     O 7696   8.577   5.339   6.543  0.5483 -0.8258  0.1734
   58MOL0     C 7697   8.515   5.388   6.449  0.0686 -1.0422  0.3579
   58MOL0     O 7698   8.576   5.408   6.329 -0.2481 -0.8205 -0.8986
   58MOL0     C 7699   8.723   5.429   6.327 -0.7875 -0.0989 -0.0587
   58MOL0     C 7700   8.812   5.348   6.391 -0.2531 -0.2926 -0.4657
   58MOL0     C 7701   8.945   5.389   6.398  0.3709  0.2741  1.2420
   58MOL0     C 7702   8.998   5.503   6.341 -0.1189  0.2809  0.1839
   58MOL0     O 7703   9.139   5.517   6.353  0.2957 -0.5882  0.4440
   58MOL0     C 7704   9.180   5.656   6.363 -0.5868  0.4058 -0.0171
   58MOL0     C 7705   9.317   5.663   6.426 -0.4046 -0.2226  0.2036
   58MOL0     C 7706   9.319   5.710   6.572  0.1827  0.2519  0.1159
   58MOL0     C 7707   9.214   5.628   6.657 -0.2867 -0.0243  0.3507
   58MOL0     C 7708   9.244   5.655   6.809 -0.8976 -0.4117  0.0949
   58MOL0     C 7709   9.176   5.555   6.888  0.4566  0.3976 -1.2361
   58MOL0     C 7710   9.242   5.524   7.024 -0.8807 -0.9601 -0.6441
   58MOL0     C 7711   9.220   5.633   7.126 -0.3005  0.6325  0.0214
   58MOL0     N 7712   9.263   5.769   7.096 -0.4206  0.1623 -0.0368
   58MOL0     C 7713   9.392   5.800   7.062  0.4249 -1.0147  0.7572
   58MOL0     C 7714   9.386   5.932   7.026 -0.3046  0.1263  0.4434
   58MOL0     C 7715   9.489   6.016   6.964 -0.3745  0.9842  0.6002
   58MOL0     C 7716   9.438   6.129   6.869 -0.1974  0.5580  0.2135
   58MOL0     C 7717   9.373   6.061   6.742  0.7865 -0.1914 -1.1223
   58MOL0     C 7718   9.378   6.147   6.619  0.3753 -0.5360 -0.4908
   58MOL0     O 7719   9.268   6.101   6.534 -0.3449  0.2744 -0.5119
   58MOL0     C 7720   9.289   6.109   6.395 -0.3915 -0.8314  0.3196
   58MOL0     C 7721   9.219   6.015   6.316 -0.2877  0.3623 -0.6511
   58MOL0     C 7722   9.222   6.025   6.176 -0.2140 -0.2637  0.6446
   58MOL0     C 7723   9.296   6.141   6.119  0.9565  1.3097  0.8782
   58MOL0     C 7724   9.298   6.156   5.973  0.5162  0.5436  0.3978
   58MOL0     O 7725   9.342   6.280   5.915  0.1333  0.8019 -0.8574
   58MOL0     C 7726   9.330   6.291   5.782 -1.0949 -0.7290 -0.1288
   58MOL0     C 7727   9.451   6.303   5.707 -0.3665 -0.2682  0.7627
   58MOL0     C 7728   9.442   6.295   5.564 -0.0890  0.4475 -0.1434
   58MOL0     C 7729   9.324   6.271   5.496  0.0709  0.3214  0.0626
   58MOL0     O 7730   9.328   6.250   5.368  0.3832  0.0012 -0.4831
   58MOL0     C 7731   9.229   6.164   5.303 -0.1610  0.0167  0.2994
   58MOL0     C 7732   9.266   6.119   5.157 -0.0434 -0.6032  0.0523
   58MOL0     C 7733   9.247   6.233   5.063  0.2203 -0.4692  1.4694
   58MOL0     C 7734   9.164   6.182   4.940 -1.1238 -0.2751 -0.4625
   58MOL0     C 7735   9.162   6.276   4.823 -0.6967  0.2280  0.8517
   58MOL0     C 7736   9.120   6.422   4.847  0.6391 -0.7796 -0.7448
   58MOL0     C 7737   9.125   6.514   4.725  0.0613  0.5208 -0.9054
   58MOL0     C 7738   9.276   6.552   4.700 -0.3604  0.2285 -0.3323
   58MOL0    Cl 7739   9.283   6.682   4.572  0.3341  0.4300  0.3213
   58MOL0     C 7740   9.217   6.250   5.575  0.7325  0.8500 -0.0475
   58MOL0     C 7741   9.218   6.270   5.710  0.0576 -1.2224  0.2541
   58MOL0     O 7742   9.262   6.056   5.917  0.0614 -0.3490  0.0284
   58MOL0     C 7743   9.374   6.222   6.204 -0.3734  1.0077  0.5234
   58MOL0     C 7744   9.364   6.216   6.342 -0.5869  0.5803 -0.4188
   58MOL0     N 7745   9.257   5.968   7.033 -0.3297  0.3470  0.6081
   58MOL0     N 7746   9.182   5.877   7.085  0.1966  0.2259  0.9618
   58MOL0     C 7747   8.910   5.582   6.269 -0.9762 -1.0108 -0.2499
   58MOL0     C 7748   8.776   5.550   6.266  1.0615  1.5110 -1.1638
   58MOL0     C 7749   8.377   5.418   6.462 -0.7057 -0.4199  0.3168
   58MOL0     C 7750   8.314   5.394   6.587  0.6499 -0.9792  0.8000
   58MOL0     C 7751   8.172   5.405   6.597  0.5116  0.1502 -0.4939
   58MOL0     C 7752   8.100   5.433   6.484 -0.8597  0.5142 -0.2448
   58MOL0     O 7753   7.968   5.426   6.504  0.2757  0.5002 -0.2153
   58MOL0     C 7754   7.872   5.489   6.425 -0.3511 -0.3689  0.3021
   58MOL0     C 7755   7.856   5.648   6.440  0.4838 -1.0277 -0.3048
   58MOL0     C 7756   7.737   5.700   6.349 -0.5558  0.1411  0.6269
   58MOL0     C 7757   7.682   5.834   6.394 -0.6062  0.3685  0.1644
   58MOL0     C 7758   7.590   5.830   6.507  0.4973 -0.5442 -0.2655
   58MOL0     C 7759   7.511   5.809   6.597  0.4731 -0.3144 -0.4124
   58MOL0     C 7760   8.157   5.466   6.358 -0.0640 -0.4217  0.4714
   58MOL0     C 7761   8.294   5.453   6.348  0.4299 -0.3987  0.1642
   58MOL0     C 7762   8.346   5.514   6.222  0.8342 -0.3541  0.6544
   58MOL0     H 7763   8.787   5.260   6.450  0.7368  0.8512  1.7853
   58MOL0     H 7764   9.007   5.329   6.464 -1.8770 -0.2057  3.0592
   58MOL0     H 7765   9.193   5.698   6.263  1.5418 -0.1493 -0.0305
   58MOL0     H 7766   9.107   5.716   6.418 -2.1342 -0.8765 -0.5873
   58MOL0     H 7767   9.374   5.740   6.374  3.3083 -3.4265 -0.9300
   58MOL0     H 7768   9.372   5.571   6.406 -1.6355 -0.5708 -1.9111
   58MOL0     H 7769   9.293   5.816   6.584 -0.4260 -0.0167  1.2481
   58MOL0     H 7770   9.419   5.693   6.612  0.4476  0.8430 -0.2808
   58MOL0     H 7771   9.110   5.656   6.637  0.0043  0.1608 -1.0066
   58MOL0     H 7772   9.232   5.522   6.637  1.9458 -0.0201  1.9141
   58MOL0     H 7773   9.352   5.643   6.828 -0.6333 -0.0487 -1.0722
   58MOL0     H 7774   9.216   5.756   6.839  1.0425 -0.3404  1.9142
   58MOL0     H 7775   9.073   5.589   6.903  0.1732 -1.5736  2.4399
   58MOL0     H 7776   9.156   5.459   6.838 -1.6336  1.2213 -2.1034
   58MOL0     H 7777   9.349   5.510   7.009 -0.3224 -2.9823  3.6490
   58MOL0     H 7778   9.211   5.426   7.062 -0.3972 -1.5417 -1.7190
   58MOL0     H 7779   9.114   5.648   7.149 -0.9851 -1.5389 -1.4567
   58MOL0     H 7780   9.281   5.603   7.212 -0.7450  0.7225  0.3710
   58MOL0     H 7781   9.483   5.741   7.053  1.2162  0.3727 -1.1440
   58MOL0     H 7782   9.568   6.053   7.030  3.6086 -1.9197 -2.0403
   58MOL0     H 7783   9.543   5.942   6.904  0.1083 -1.3702  3.6961
   58MOL0     H 7784   9.367   6.196   6.918 -0.7040  0.3489 -0.2187
   58MOL0     H 7785   9.531   6.178   6.840  0.1116 -0.7675 -1.1329
   58MOL0     H 7786   9.269   6.044   6.771  0.2667 -1.4143 -3.4532
   58MOL0     H 7787   9.410   5.959   6.722 -0.0590 -0.2929 -2.2324
   58MOL0     H 7788   9.475   6.142   6.568  1.9952  1.1700  2.1771
   58MOL0     H 7789   9.364   6.255   6.628  0.7585 -0.4087 -1.2544
   58MOL0     H 7790   9.176   5.930   6.369  1.6572 -1.2197 -1.4928
   58MOL0     H 7791   9.187   5.948   6.109  1.8028  1.7200 -3.0286
   58MOL0     H 7792   9.542   6.314   5.765  0.6003 -2.4631 -0.2512
   58MOL0     H 7793   9.536   6.286   5.509  0.3660  1.1396  0.5114
   58MOL0     H 7794   9.211   6.070   5.357 -1.2393 -1.1033 -1.8744
   58MOL0     H 7795   9.130   6.211   5.302  0.1314  0.6329  0.2918
   58MOL0     H 7796   9.370   6.086   5.149  0.3523  0.5701  0.1999
   58MOL0     H 7797   9.198   6.039   5.128  1.5475 -1.0621 -2.7377
   58MOL0     H 7798   9.192   6.317   5.105 -2.1790 -1.3197  0.2349
   58MOL0     H 7799   9.338   6.275   5.019 -2.5265  2.2606 -2.2860
   58MOL0     H 7800   9.062   6.167   4.976 -0.9600  0.3357  0.2768
   58MOL0     H 7801   9.200   6.084   4.907 -0.2472 -0.8846  2.1243
   58MOL0     H 7802   9.116   6.218   4.742  0.0985 -3.1363  2.5950
   58MOL0     H 7803   9.267   6.281   4.793 -1.2843 -0.9672 -1.7577
   58MOL0     H 7804   9.020   6.429   4.891  1.5583  2.6349  1.1151
   58MOL0     H 7805   9.177   6.458   4.933 -0.8194  0.2884 -0.1812
   58MOL0     H 7806   9.064   6.599   4.757 -1.4673 -0.4511 -1.0982
   58MOL0     H 7807   9.074   6.473   4.638  0.6076 -0.1059 -0.9407
   58MOL0     H 7808   9.323   6.589   4.791 -1.5966 -0.5355  0.6414
   58MOL0     H 7809   9.323   6.461   4.661 -1.9312  0.1904 -2.3064
   58MOL0     H 7810   9.123   6.216   5.533 -0.9909  2.6057  2.0974
   58MOL0     H 7811   9.124   6.251   5.762 -1.0394  2.2729 -0.1897
   58MOL0     H 7812   9.448   6.295   6.170 -0.9995  1.5117  0.2048
   58MOL0     H 7813   9.424   6.289   6.396  0.9077 -1.0674  0.2468
   58MOL0     H 7814   8.948   5.671   6.220  2.7852 -1.3351  1.7616
   58MOL0     H 7815   8.710   5.619   6.214  1.1799  0.8778 -2.1816
   58MOL0     H 7816   8.375   5.375   6.675  1.6350 -0.6387  0.2006
   58MOL0     H 7817   8.119   5.403   6.692  0.7011  1.3683 -0.3453
   58MOL0     H 7818   7.774   5.456   6.459  0.2377  0.0906  2.6214
   58MOL0     H 7819   7.884   5.467   6.318 -1.4799 -0.2026  0.1318
   58MOL0     H 7820   7.949   5.693   6.403 -1.1269 -0.2474 -3.7672
   58MOL0     H 7821   7.845   5.676   6.545  0.4108  2.8918 -1.2189
   58MOL0     H 7822   7.659   5.623   6.341 -1.3540  1.0268 -0.3621
   58MOL0     H 7823   7.780   5.711   6.250  0.5135  1.3075  1.2043
   58MOL0     H 7824   7.764   5.907   6.397 -0.3795  0.6263 -4.4119
   58MOL0     H 7825   7.626   5.875   6.309  0.8746  2.0491 -0.0768
   58MOL0     H 7826   7.448   5.805   6.684 -0.0311 -4.5348 -0.7617
   58MOL0     H 7827   8.099   5.506   6.276 -0.6054 -3.6294 -0.8780
   58MOL0     H 7828   8.411   5.601   6.237  2.2396 -1.1563 -0.6068
   58MOL0     H 7829   8.404   5.444   6.162 -1.7098 -1.7059 -0.3678
   58MOL0     H 7830   8.258   5.535   6.160  0.0372 -0.1655  1.8195
   59MOL0     O 7831   3.866   0.113   2.982 -0.0983  0.0877  0.5951
   59MOL0     C 7832   3.786   0.022   2.986  0.4537 -0.2837  0.5739
   59MOL0     O 7833   3.651   0.022   2.944  0.8613 -0.5867 -0.0522
   59MOL0     C 7834   3.595   0.146   2.917  0.7997 -0.2886  0.2499
   59MOL0     C 7835   3.519   0.198   3.027 -0.6103  0.8312  0.4513
   59MOL0     C 7836   3.475   0.321   3.007 -0.7531 -0.0771  0.9534
   59MOL0     C 7837   3.495   0.397   2.886  0.1299 -0.4398 -0.3763
   59MOL0     O 7838   3.458   0.532   2.885  0.0289  0.3392  0.2448
   59MOL0     C 7839   3.543   0.608   2.801  0.4310 -0.6823 -0.8035
   59MOL0     C 7840   3.531   0.761   2.835  0.0512  0.4801 -0.0465
   59MOL0     C 7841   3.431   0.844   2.749  0.7321  0.7603 -0.7102
   59MOL0     C 7842   3.291   0.816   2.794 -0.5566 -0.8836 -0.6969
   59MOL0     C 7843   3.196   0.796   2.678  0.5085 -0.5123  0.0653
   59MOL0     C 7844   3.157   0.940   2.630 -0.1488 -0.6868  0.1010
   59MOL0     C 7845   3.130   0.956   2.486 -0.8944 -0.7026  0.1711
   59MOL0     C 7846   3.262   0.935   2.408  0.6406  0.0209 -0.1407
   59MOL0     N 7847   3.232   0.951   2.269  0.7454  1.1624  0.1481
   59MOL0     C 7848   3.180   0.841   2.199  1.0456  0.1746 -0.4957
   59MOL0     C 7849   3.136   0.893   2.084  0.0570  0.6946  0.6981
   59MOL0     C 7850   3.089   0.806   1.961 -0.4025 -0.4068 -0.3741
   59MOL0     C 7851   3.032   0.895   1.843 -0.0315  0.3397 -0.7706
   59MOL0     C 7852   2.983   0.805   1.725  0.0008 -1.1777 -0.7270
   59MOL0     C 7853   2.909   0.909   1.639 -0.0973  0.9270  1.2507
   59MOL0     O 7854   2.872   0.855   1.506  0.2833  0.0625  0.3387
   59MOL0     C 7855   2.954   0.859   1.402  0.9310  0.6521  0.4884
   59MOL0     C 7856   2.902   0.807   1.282  0.0535  0.2422 -0.2033
   59MOL0     C 7857   2.978   0.837   1.168  0.3924 -0.7855  0.1152
   59MOL0     C 7858   3.102   0.906   1.165  0.1824  1.0738  0.6920
   59MOL0     C 7859   3.169   0.933   1.038  0.6939 -0.4759 -0.0327
   59MOL0     O 7860   3.255   1.039   1.032  0.0108  0.3473 -0.8773
   59MOL0     C 7861   3.343   1.055   0.927  0.5252  0.7001  0.9024
   59MOL0     C 7862   3.347   1.185   0.853 -0.4477  0.0747 -0.1815
   59MOL0     C 7863   3.446   1.201   0.749  1.2909 -0.0471 -0.2607
   59MOL0     C 7864   3.534   1.093   0.717 -0.0898 -0.1032  0.4239
   59MOL0     O 7865   3.626   1.113   0.620 -0.5438  0.3236  0.8020
   59MOL0     C 7866   3.581   1.050   0.504 -1.0936 -0.2086  0.2694
   59MOL0     C 7867   3.681   0.976   0.415  0.3781 -0.2344  0.1993
   59MOL0     C 7868   3.618   0.902   0.299 -0.0953 -0.3041  0.8593
   59MOL0     C 7869   3.741   0.864   0.217  1.2030  0.9213  0.4501
   59MOL0     C 7870   3.703   0.779   0.091 -0.1474 -0.2685  0.1796
   59MOL0     C 7871   3.823   0.785   0.001 -0.5258  0.4484 -0.2702
   59MOL0     C 7872   3.818   0.702  -0.131  0.0195  0.5013  0.3776
   59MOL0     C 7873   3.734   0.772  -0.236 -0.2050 -0.5033  0.1321
   59MOL0    Cl 7874   3.824   0.913  -0.320 -0.3896  0.2272  0.2537
   59MOL0     C 7875   3.534   0.975   0.794  0.1570  0.0118 -0.4088
   59MOL0     C 7876   3.437   0.956   0.897  0.5190  0.2416  0.3768
   59MOL0     O 7877   3.154   0.849   0.948  0.6138 -0.4830 -0.4324
   59MOL0     C 7878   3.164   0.938   1.287 -0.9604  0.6124  0.2676
   59MOL0     C 7879   3.085   0.921   1.406 -0.1255  0.1846 -0.2556
   59MOL0     N 7880   3.163   1.028   2.083 -0.1137 -0.6833  0.5926
   59MOL0     N 7881   3.228   1.063   2.188  0.0842  0.8650 -0.8514
   59MOL0     C 7882   3.562   0.333   2.783  0.0443 -0.1853 -0.2386
   59MOL0     C 7883   3.610   0.210   2.793  0.1729 -0.0413  0.8970
   59MOL0     C 7884   3.836  -0.107   3.046  0.4293 -0.3371 -0.5201
   59MOL0     C 7885   3.753  -0.218   3.063 -0.3710  0.0685  0.2415
   59MOL0     C 7886   3.795  -0.338   3.105  0.8369 -0.4248  0.3608
   59MOL0     C 7887   3.930  -0.348   3.144  0.5543  0.6325  0.4056
   59MOL0     O 7888   3.972  -0.465   3.202 -0.5638  0.3789  0.6046
   59MOL0     C 7889   4.027  -0.555   3.114 -1.0447 -0.2574  0.0310
   59MOL0     C 7890   4.051  -0.688   3.183 -0.7159  0.4484  0.2096
   59MOL0     C 7891   4.130  -0.783   3.095  0.3572 -0.1203 -0.7572
   59MOL0     C 7892   4.198  -0.901   3.162 -0.5679  1.0818  0.2178
   59MOL0     C 7893   4.097  -0.975   3.235 -0.1526  0.3347 -0.1190
   59MOL0     C 7894   4.001  -1.042   3.281 -0.0723  0.2243 -0.6850
   59MOL0     C 7895   4.017  -0.247   3.138  0.1282 -0.1762 -0.1020
   59MOL0     C 7896   3.967  -0.124   3.102 -0.9247  0.6962 -0.1050
   59MOL0     C 7897   4.077  -0.017   3.104  0.0916  0.1506  1.0900
   59MOL0     H 7898   3.496   0.138   3.115 -1.3464 -1.4804 -1.2386
   59MOL0     H 7899   3.425   0.353   3.098  1.0942  0.4655  1.8311
   59MOL0     H 7900   3.652   0.595   2.807  1.0409  3.1146 -1.0705
   59MOL0     H 7901   3.517   0.598   2.696  3.0351 -0.8631 -1.5077
   59MOL0     H 7902   3.629   0.800   2.807 -0.5784 -0.0545 -3.3140
   59MOL0     H 7903   3.516   0.784   2.941  1.0386  2.7230 -0.3480
   59MOL0     H 7904   3.432   0.813   2.644 -1.9543 -0.6913 -0.3985
   59MOL0     H 7905   3.457   0.950   2.762  1.6611  0.1531  4.0083
   59MOL0     H 7906   3.294   0.714   2.833 -1.7875 -2.1243 -3.5505
   59MOL0     H 7907   3.255   0.893   2.862 -0.0344 -0.1056 -1.2828
   59MOL0     H 7908   3.241   0.729   2.604 -0.4520 -4.4352  2.7298
   59MOL0     H 7909   3.114   0.739   2.722  0.3254  0.1246  0.5641
   59MOL0     H 7910   3.068   0.979   2.679 -0.8067  0.1254 -1.6572
   59MOL0     H 7911   3.242   1.003   2.659 -0.1235 -0.1762 -1.0253
   59MOL0     H 7912   3.101   1.058   2.459 -0.7315  0.0298  2.5394
   59MOL0     H 7913   3.049   0.891   2.452 -1.5458 -1.4350  2.8480
   59MOL0     H 7914   3.322   1.020   2.441  1.2821 -1.0148  1.4973
   59MOL0     H 7915   3.316   0.842   2.427  3.2734  1.5653  0.4348
   59MOL0     H 7916   3.192   0.737   2.225  0.9320  0.1383 -0.5852
   59MOL0     H 7917   3.181   0.764   1.919  0.9992  1.1399  1.0017
   59MOL0     H 7918   3.033   0.715   1.985  3.9759 -3.7284 -1.5906
   59MOL0     H 7919   2.946   0.945   1.887  0.1272 -1.9993  2.5560
   59MOL0     H 7920   3.106   0.966   1.805  2.4868 -1.8503 -0.2722
   59MOL0     H 7921   2.902   0.737   1.750 -0.2204 -1.2421 -1.6057
   59MOL0     H 7922   3.059   0.738   1.681  0.7676 -0.7891 -0.0269
   59MOL0     H 7923   2.968   1.001   1.632  0.8883  0.2201 -0.3321
   59MOL0     H 7924   2.818   0.931   1.696  0.7960 -0.3727  3.2901
   59MOL0     H 7925   2.804   0.761   1.278 -0.9536  2.3634 -1.7896
   59MOL0     H 7926   2.934   0.797   1.077  1.7894  3.2926 -2.5975
   59MOL0     H 7927   3.288   1.269   0.886 -4.7791 -2.3224 -1.0330
   59MOL0     H 7928   3.463   1.285   0.684  3.4421 -0.7133 -0.6288
   59MOL0     H 7929   3.504   0.975   0.525 -0.6037 -0.4204  1.3848
   59MOL0     H 7930   3.528   1.133   0.456  1.5521  2.9406  2.3423
   59MOL0     H 7931   3.755   1.052   0.388  0.4398  0.4551  2.1204
   59MOL0     H 7932   3.734   0.922   0.494 -0.6834  1.0887  1.8996
   59MOL0     H 7933   3.556   0.820   0.335 -3.4709  1.3719 -0.7609
   59MOL0     H 7934   3.552   0.971   0.248  0.9489  0.9508  1.1467
   59MOL0     H 7935   3.807   0.801   0.277  2.8187 -0.0363 -2.1484
   59MOL0     H 7936   3.802   0.952   0.190 -0.0961  1.0930 -2.2886
   59MOL0     H 7937   3.629   0.810   0.017 -0.0756 -2.1112 -0.7366
   59MOL0     H 7938   3.679   0.682   0.135 -0.6887  1.2892  3.6677
   59MOL0     H 7939   3.846   0.887  -0.031 -0.9515  0.5088 -0.3881
   59MOL0     H 7940   3.902   0.753   0.070  0.3770  1.3289 -0.8732
   59MOL0     H 7941   3.775   0.602  -0.120  1.2629  0.0429  1.3325
   59MOL0     H 7942   3.922   0.682  -0.159  0.1692 -3.3434  2.7987
   59MOL0     H 7943   3.703   0.706  -0.318 -0.9427  1.5054 -1.2703
   59MOL0     H 7944   3.641   0.796  -0.183 -0.5989 -0.6858 -0.4625
   59MOL0     H 7945   3.611   0.900   0.780 -1.4473 -1.9709  0.8077
   59MOL0     H 7946   3.443   0.865   0.957  0.2432  0.5824  0.9395
   59MOL0     H 7947   3.266   0.973   1.294 -1.1347  1.1077  0.3554
   59MOL0     H 7948   3.130   0.923   1.505 -1.9467 -3.4755  0.8093
   59MOL0     H 7949   3.576   0.392   2.693 -1.8327 -2.8821 -2.4680
   59MOL0     H 7950   3.679   0.178   2.715  0.8398  2.7699  0.2079
   59MOL0     H 7951   3.648  -0.214   3.036 -1.0502 -3.2905  1.8949
   59MOL0     H 7952   3.731  -0.424   3.121  3.4373 -2.2485  1.6426
   59MOL0     H 7953   4.124  -0.514   3.083 -1.4040  0.1384 -0.6091
   59MOL0     H 7954   3.951  -0.571   3.037 -2.1714  1.4421  0.7362
   59MOL0     H 7955   3.959  -0.741   3.206  0.5080 -0.5822  3.2729
   59MOL0     H 7956   4.100  -0.683   3.281 -2.1717  1.0670  0.9409
   59MOL0     H 7957   4.206  -0.717   3.054 -0.9886  2.6866  0.9623
   59MOL0     H 7958   4.080  -0.826   3.008 -0.9114 -0.4624  0.1201
   59MOL0     H 7959   4.247  -0.969   3.092  0.5781  0.5472  1.4983
   59MOL0     H 7960   4.282  -0.871   3.224 -0.2598  0.8634 -0.0915
   59MOL0     H 7961   3.918  -1.100   3.317 -2.0618  2.2631 -1.7850
   59MOL0     H 7962   4.115  -0.270   3.179 -0.7758  1.0692  3.1283
   59MOL0     H 7963   4.045   0.077   3.149 -4.1230 -0.1130 -0.8555
   59MOL0     H 7964   4.160  -0.061   3.159 -0.5734 -1.3308  0.9602
   59MOL0     H 7965   4.113  -0.003   3.002  1.5763  2.2780  1.8330
   60MOL0     O 7966   0.300   6.351   6.481 -0.7050  0.1589  0.2731
   60MOL0     C 7967   0.191   6.297   6.489 -0.1194  0.4929  0.5854
   60MOL0     O 7968   0.171   6.171   6.540  0.3752  0.8700  0.4029
   60MOL0     C 7969   0.285   6.089   6.552  1.1755  1.1692  0.0688
   60MOL0     C 7970   0.291   6.014   6.670  0.8917  0.2614 -0.7964
   60MOL0     C 7971   0.388   5.924   6.705  0.3089 -0.3863 -0.0706
   60MOL0     C 7972   0.489   5.905   6.610 -0.9670  1.3576  0.5842
   60MOL0     O 7973   0.592   5.820   6.648  0.6159 -0.7266  0.3226
   60MOL0     C 7974   0.705   5.811   6.566  0.3896  0.2701 -0.1626
   60MOL0     C 7975   0.818   5.706   6.610 -0.1354  1.1971 -0.6377
   60MOL0     C 7976   0.894   5.742   6.736  0.4548 -0.1902  0.2513
   60MOL0     C 7977   0.825   5.709   6.874  0.2718  0.4576  0.3654
   60MOL0     C 7978   0.908   5.740   7.002  0.3320  0.2672 -0.6286
   60MOL0     C 7979   0.912   5.885   7.042 -0.7363  0.5622 -1.1647
   60MOL0     C 7980   1.022   5.894   7.153 -0.2558  0.4862  0.3813
   60MOL0     C 7981   0.963   5.880   7.292  0.3210 -0.2913  0.1295
   60MOL0     N 7982   0.969   5.746   7.342 -0.0027  0.3283  0.3092
   60MOL0     C 7983   0.862   5.693   7.415  0.1851 -0.9443 -0.4422
   60MOL0     C 7984   0.881   5.562   7.432 -0.2002 -0.6397  0.2784
   60MOL0     C 7985   0.797   5.470   7.501  1.0382  0.8917 -0.3942
   60MOL0     C 7986   0.677   5.450   7.404 -0.8276 -0.5991 -0.6384
   60MOL0     C 7987   0.580   5.336   7.440 -0.5714  0.0809  0.2942
   60MOL0     C 7988   0.631   5.190   7.409  0.7979  0.3014 -0.2195
   60MOL0     O 7989   0.515   5.098   7.408 -0.4652 -0.6858 -0.2049
   60MOL0     C 7990   0.532   4.967   7.420  0.2914  0.2946  0.5956
   60MOL0     C 7991   0.648   4.894   7.450  0.1040 -0.2495  0.3999
   60MOL0     C 7992   0.647   4.756   7.466 -0.9331 -0.2484  0.6003
   60MOL0     C 7993   0.530   4.684   7.440 -0.7375 -0.0471 -0.4457
   60MOL0     C 7994   0.522   4.543   7.435 -0.6132  0.5434  0.0262
   60MOL0     O 7995   0.404   4.485   7.425  0.1683 -0.6307 -0.6001
   60MOL0     C 7996   0.385   4.347   7.425 -0.5226 -0.7272  0.0195
   60MOL0     C 7997   0.306   4.300   7.323  0.7199  0.2573 -0.3118
   60MOL0     C 7998   0.292   4.160   7.317  0.4820 -0.3741 -0.3093
   60MOL0     C 7999   0.345   4.071   7.403 -0.5410 -1.4658 -0.1647
   60MOL0     O 8000   0.283   3.949   7.399 -0.1529 -0.4216  0.6571
   60MOL0     C 8001   0.357   3.831   7.445 -0.6000  0.3542  0.6167
   60MOL0     C 8002   0.282   3.755   7.557  0.4271 -1.6677  0.5406
   60MOL0     C 8003   0.185   3.662   7.496  0.3434  0.6660  0.1209
   60MOL0     C 8004   0.108   3.574   7.595 -0.4981  0.0686 -0.0210
   60MOL0     C 8005   0.204   3.456   7.638  0.3991  1.3264  0.5302
   60MOL0     C 8006   0.120   3.370   7.730  0.0802  0.5533 -0.2000
   60MOL0     C 8007   0.201   3.249   7.771 -0.0608 -0.9863  0.4911
   60MOL0     C 8008   0.111   3.135   7.813 -1.0935  1.1196  1.4604
   60MOL0    Cl 8009   0.210   2.984   7.822  0.5871  0.1723 -0.1514
   60MOL0     C 8010   0.424   4.119   7.503  0.1167  0.4960  0.4160
   60MOL0     C 8011   0.452   4.260   7.517  0.2314  0.5553  1.3827
   60MOL0     O 8012   0.630   4.477   7.441 -0.0573  0.4535  0.0482
   60MOL0     C 8013   0.411   4.753   7.403  0.4082 -0.1701 -0.8503
   60MOL0     C 8014   0.414   4.891   7.399 -0.5136  0.2080  1.5366
   60MOL0     N 8015   1.005   5.546   7.378  0.1976  0.1545 -0.1670
   60MOL0     N 8016   1.056   5.655   7.324 -0.5818  0.6036 -0.5157
   60MOL0     C 8017   0.488   5.966   6.480 -0.4347 -0.5471 -1.1659
   60MOL0     C 8018   0.389   6.059   6.456 -0.8171 -0.0364  0.4713
   60MOL0     C 8019   0.069   6.371   6.444  0.0204 -0.2202  0.0441
   60MOL0     C 8020  -0.048   6.349   6.518 -0.6459 -0.3136 -0.3666
   60MOL0     C 8021  -0.161   6.417   6.490  1.1895 -0.6759  1.1149
   60MOL0     C 8022  -0.163   6.529   6.406  0.1661  0.9789  0.5001
   60MOL0     O 8023  -0.282   6.601   6.403  0.3455  0.2697 -0.4354
   60MOL0     C 8024  -0.300   6.724   6.331  0.3152 -0.2345 -0.2036
   60MOL0     C 8025  -0.406   6.810   6.386  0.4789  0.3311 -0.3661
   60MOL0     C 8026  -0.443   6.920   6.287 -1.1815 -0.3283 -1.1619
   60MOL0     C 8027  -0.582   6.929   6.239 -0.6691  0.4766 -0.6827
   60MOL0     C 8028  -0.666   7.006   6.328  0.0229  0.3145  0.4030
   60MOL0     C 8029  -0.729   7.082   6.394 -0.0391  0.7261  0.4466
   60MOL0     C 8030  -0.042   6.568   6.344 -0.5260 -0.2224 -0.5608
   60MOL0     C 8031   0.070   6.481   6.350 -0.2847 -0.2030  0.5761
   60MOL0     C 8032   0.193   6.516   6.263  0.6057 -0.8179  0.3398
   60MOL0     H 8033   0.205   6.028   6.734  0.7309  0.3782 -1.0355
   60MOL0     H 8034   0.384   5.870   6.799 -1.7764  2.7573  1.8467
   60MOL0     H 8035   0.683   5.794   6.460 -0.9793 -1.2061  0.3006
   60MOL0     H 8036   0.732   5.916   6.575 -3.4876  1.7549 -2.9862
   60MOL0     H 8037   0.891   5.699   6.529  0.9129 -1.7571  0.4228
   60MOL0     H 8038   0.765   5.611   6.613  0.4356  0.8079 -2.1019
   60MOL0     H 8039   0.914   5.849   6.736 -2.3141  0.4239 -1.5113
   60MOL0     H 8040   0.993   5.695   6.732  1.2920  1.5502 -0.6751
   60MOL0     H 8041   0.732   5.768   6.880  0.8736  1.3477  1.5960
   60MOL0     H 8042   0.801   5.604   6.890  3.2878  0.0236  2.9481
   60MOL0     H 8043   0.879   5.681   7.090  2.8453  0.1780  0.2244
   60MOL0     H 8044   1.006   5.692   6.988 -0.0752 -0.4252 -1.1970
   60MOL0     H 8045   0.941   5.939   6.951 -0.5103  4.6109  1.0754
   60MOL0     H 8046   0.814   5.926   7.069 -0.0712  3.4091 -2.7280
   60MOL0     H 8047   1.053   5.999   7.164  1.7624 -0.0849  0.4460
   60MOL0     H 8048   1.117   5.845   7.133 -0.2329  0.5319  0.3761
   60MOL0     H 8049   1.017   5.941   7.365 -0.8049 -0.4641  1.1384
   60MOL0     H 8050   0.864   5.928   7.295  2.1548  4.0802 -1.4041
   60MOL0     H 8051   0.779   5.757   7.444  2.5331  2.0432  0.3132
   60MOL0     H 8052   0.849   5.374   7.509 -1.5583 -0.6898 -1.2107
   60MOL0     H 8053   0.775   5.497   7.605 -0.7077 -2.0176  0.1251
   60MOL0     H 8054   0.611   5.537   7.398 -2.8816 -2.1807 -3.0535
   60MOL0     H 8055   0.707   5.428   7.301 -1.9030 -2.1068 -0.6597
   60MOL0     H 8056   0.501   5.349   7.366 -1.6216 -3.4586  0.5997
   60MOL0     H 8057   0.530   5.348   7.536  0.2258 -1.0482  0.8698
   60MOL0     H 8058   0.695   5.165   7.494 -0.5681 -1.9824  0.2248
   60MOL0     H 8059   0.689   5.188   7.317 -0.0622 -0.9732 -0.7611
   60MOL0     H 8060   0.744   4.945   7.455  0.9529 -1.2715 -3.0471
   60MOL0     H 8061   0.729   4.694   7.498 -3.6529 -3.8284  1.3203
   60MOL0     H 8062   0.249   4.364   7.256  0.8099  0.2543 -0.3908
   60MOL0     H 8063   0.223   4.135   7.237  1.2920  0.8949 -1.4423
   60MOL0     H 8064   0.373   3.764   7.360  0.1633 -0.3428  1.3056
   60MOL0     H 8065   0.454   3.852   7.491  0.4268 -2.9695  0.2360
   60MOL0     H 8066   0.361   3.691   7.598 -1.3419 -2.7334  2.4815
   60MOL0     H 8067   0.241   3.821   7.634 -1.4733 -0.7812 -1.1444
   60MOL0     H 8068   0.104   3.720   7.451 -1.7011 -2.2812 -0.3060
   60MOL0     H 8069   0.236   3.611   7.413 -1.2838 -0.5636 -0.1659
   60MOL0     H 8070   0.026   3.521   7.546 -1.3678  0.3126  1.1437
   60MOL0     H 8071   0.068   3.631   7.679  2.7875  0.4617  1.4594
   60MOL0     H 8072   0.289   3.491   7.698 -2.0510  1.0615  4.5163
   60MOL0     H 8073   0.243   3.398   7.554 -0.1307  0.2934  0.9758
   60MOL0     H 8074   0.089   3.428   7.817  3.9703  1.4243  0.7847
   60MOL0     H 8075   0.032   3.340   7.673  0.5609  0.0668 -0.7056
   60MOL0     H 8076   0.260   3.278   7.858 -0.1090 -1.3503  0.6463
   60MOL0     H 8077   0.272   3.210   7.698  1.5652  1.4076  0.6575
   60MOL0     H 8078   0.066   3.167   7.908 -3.2218  4.2279 -0.4076
   60MOL0     H 8079   0.019   3.131   7.754 -0.7285 -2.2878  0.9235
   60MOL0     H 8080   0.441   4.046   7.581 -1.2000  0.7373  0.9609
   60MOL0     H 8081   0.513   4.289   7.602  3.4587  0.7961 -0.8369
   60MOL0     H 8082   0.321   4.702   7.372 -0.0804 -0.4808  0.9870
   60MOL0     H 8083   0.321   4.942   7.376 -0.4768 -0.0879  0.7031
   60MOL0     H 8084   0.563   5.956   6.402 -1.0105 -0.0765 -1.7887
   60MOL0     H 8085   0.392   6.113   6.362  0.9176  0.7347  0.9272
   60MOL0     H 8086  -0.057   6.274   6.596 -2.1096 -1.4956 -1.6066
   60MOL0     H 8087  -0.240   6.399   6.563 -0.0485 -1.1680 -0.2754
   60MOL0     H 8088  -0.313   6.706   6.224 -2.0407  4.7501 -1.0416
   60MOL0     H 8089  -0.214   6.789   6.352 -1.3325  2.1424 -0.4425
   60MOL0     H 8090  -0.366   6.846   6.482  3.8187 -1.8866 -0.7465
   60MOL0     H 8091  -0.491   6.742   6.394  1.7026 -1.3147 -1.0301
   60MOL0     H 8092  -0.375   6.902   6.203 -0.9338 -1.2255 -0.7777
   60MOL0     H 8093  -0.418   7.017   6.332 -0.8432 -2.2035  3.2018
   60MOL0     H 8094  -0.578   6.962   6.135  2.2138 -2.3686 -1.6359
   60MOL0     H 8095  -0.625   6.830   6.225 -0.8971  0.3555  0.6977
   60MOL0     H 8096  -0.765   7.170   6.444  0.5331  1.2663 -0.0768
   60MOL0     H 8097  -0.041   6.654   6.279 -3.7384  0.3507 -0.0174
   60MOL0     H 8098   0.187   6.622   6.235  0.9115 -0.5338  1.2898
   60MOL0     H 8099   0.280   6.521   6.330  0.4977  1.5061  0.3849
   60MOL0     H 8100   0.207   6.445   6.182 -1.5178 -1.0583  0.1411
   61MOL0     O 8101   6.376   6.876   4.844 -0.8560 -0.2179  1.0179
   61MOL0     C 8102   6.459   6.825   4.765 -0.5343  0.7444  0.0112
   61MOL0     O 8103   6.433   6.728   4.675  0.4227 -0.3832 -0.0973
   61MOL0     C 8104   6.315   6.667   4.657  1.0768  0.2548 -0.1524
   61MOL0     C 8105   6.202   6.665   4.750  0.3272  0.7990 -0.2924
   61MOL0     C 8106   6.085   6.587   4.713  0.2528  0.0200  0.1047
   61MOL0     C 8107   6.082   6.514   4.595 -0.5588  0.2054  0.3735
   61MOL0     O 8108   5.980   6.440   4.577 -0.1361 -0.6759  0.3063
   61MOL0     C 8109   5.861   6.522   4.555  0.1602  0.0927  0.0744
   61MOL0     C 8110   5.752   6.451   4.468  0.1825  0.9211 -0.0503
   61MOL0     C 8111   5.817   6.391   4.348 -0.9342  0.5610 -0.2909
   61MOL0     C 8112   5.714   6.327   4.255 -0.2129 -1.0513  1.1946
   61MOL0     C 8113   5.770   6.275   4.121  0.7790  0.9176 -0.8720
   61MOL0     C 8114   5.660   6.195   4.037 -0.0327 -0.9777  0.0440
   61MOL0     C 8115   5.525   6.269   4.016  0.3661  0.7091 -0.3157
   61MOL0     C 8116   5.461   6.197   3.895  0.0838  1.1775  0.3178
   61MOL0     N 8117   5.317   6.197   3.906  0.2949 -0.5562  0.3925
   61MOL0     C 8118   5.252   6.129   3.995 -0.3879  0.0211 -0.0552
   61MOL0     C 8119   5.126   6.168   3.993 -0.4962  0.2902  0.1597
   61MOL0     C 8120   5.003   6.118   4.072 -0.5038 -0.0583  0.5428
   61MOL0     C 8121   4.980   5.969   4.046  0.5496  0.2428 -0.7506
   61MOL0     C 8122   4.954   5.911   3.902  0.3644 -0.5249  0.4175
   61MOL0     C 8123   4.956   5.761   3.888  0.5471  0.1004 -0.4714
   61MOL0     O 8124   4.829   5.690   3.917  1.3057 -0.0259  0.8950
   61MOL0     C 8125   4.717   5.722   3.854 -0.2719 -0.3071  0.2843
   61MOL0     C 8126   4.708   5.788   3.725  0.1972  0.1552 -0.5241
   61MOL0     C 8127   4.579   5.811   3.661 -1.1659  0.3094 -0.0854
   61MOL0     C 8128   4.467   5.757   3.709 -0.0943 -0.0520  0.8397
   61MOL0     C 8129   4.328   5.774   3.657  0.1530 -0.0244  1.1714
   61MOL0     O 8130   4.326   5.815   3.529  0.0071 -0.7229  0.5288
   61MOL0     C 8131   4.203   5.824   3.458  0.1359  1.1514  0.6579
   61MOL0     C 8132   4.091   5.899   3.497  1.0316  0.5377  0.8884
   61MOL0     C 8133   3.971   5.890   3.420 -0.0822 -0.7299  0.8268
   61MOL0     C 8134   3.962   5.797   3.311  0.2573 -0.3031 -0.4093
   61MOL0     O 8135   3.844   5.814   3.243  0.4728  0.0228 -0.1820
   61MOL0     C 8136   3.796   5.693   3.198 -0.0739  0.5225  0.6902
   61MOL0     C 8137   3.656   5.703   3.173 -0.4744  0.6060 -0.0016
   61MOL0     C 8138   3.572   5.755   3.288  0.2714  0.1557 -1.0194
   61MOL0     C 8139   3.523   5.645   3.377  0.4870 -0.5755  1.3373
   61MOL0     C 8140   3.469   5.681   3.510  0.2217 -0.0831 -0.0515
   61MOL0     C 8141   3.375   5.579   3.555 -0.0993  1.2051  1.1675
   61MOL0     C 8142   3.328   5.606   3.699 -0.6186 -0.0889  0.1106
   61MOL0     C 8143   3.251   5.499   3.769  0.2868 -0.1254 -0.8360
   61MOL0    Cl 8144   3.137   5.431   3.663  0.1766  0.0587  0.0842
   61MOL0     C 8145   4.068   5.717   3.277  0.6148  0.5045 -1.6219
   61MOL0     C 8146   4.191   5.734   3.343 -0.2564  1.2585  0.1301
   61MOL0     O 8147   4.230   5.759   3.727 -0.2472  0.1978  0.0358
   61MOL0     C 8148   4.479   5.687   3.828 -0.1933  0.5844 -0.7146
   61MOL0     C 8149   4.600   5.680   3.900 -0.1676  0.5384 -1.1481
   61MOL0     N 8150   5.107   6.262   3.893  0.2412 -1.1342  0.3323
   61MOL0     N 8151   5.231   6.282   3.844  0.2951 -0.1615 -0.2467
   61MOL0     C 8152   6.190   6.516   4.513 -0.4647 -0.3899 -0.0940
   61MOL0     C 8153   6.299   6.601   4.539 -0.4127 -0.1157  0.1355
   61MOL0     C 8154   6.606   6.864   4.768  0.1310 -0.8244 -0.1806
   61MOL0     C 8155   6.688   6.837   4.656  0.0319 -0.3211  0.3875
   61MOL0     C 8156   6.821   6.861   4.652  0.3860 -0.1456 -0.2176
   61MOL0     C 8157   6.880   6.899   4.768 -0.3008 -0.1875 -0.8460
   61MOL0     O 8158   7.014   6.895   4.775 -0.8272  0.1678 -0.4005
   61MOL0     C 8159   7.081   6.955   4.660  0.4112 -0.7713  0.0237
   61MOL0     C 8160   7.198   7.039   4.727  0.3577 -0.3031  0.1952
   61MOL0     C 8161   7.307   7.047   4.615  0.5928 -0.1937  0.1578
   61MOL0     C 8162   7.403   7.162   4.629 -0.0062 -0.1331 -0.0028
   61MOL0     C 8163   7.485   7.154   4.751 -0.5108  0.0171 -0.7357
   61MOL0     C 8164   7.567   7.165   4.842  1.0285  0.5191  0.5387
   61MOL0     C 8165   6.802   6.936   4.883 -1.2934  0.8612 -0.4738
   61MOL0     C 8166   6.662   6.912   4.881 -0.5690  0.5377  0.2112
   61MOL0     C 8167   6.593   6.940   5.010  0.6104  0.0793 -0.0518
   61MOL0     H 8168   6.195   6.725   4.840 -0.9117  0.3423 -0.0728
   61MOL0     H 8169   6.008   6.604   4.787  0.8089 -0.8919  0.9134
   61MOL0     H 8170   5.818   6.551   4.651  1.2560 -1.6431  1.1320
   61MOL0     H 8171   5.888   6.620   4.515 -2.9725  0.7623 -0.6705
   61MOL0     H 8172   5.667   6.516   4.445  0.0561 -0.1759 -3.1569
   61MOL0     H 8173   5.715   6.367   4.527  0.7028 -0.1584 -1.2143
   61MOL0     H 8174   5.888   6.313   4.375 -2.6126 -0.6034  0.9579
   61MOL0     H 8175   5.876   6.472   4.303  0.9948 -0.9757 -0.6653
   61MOL0     H 8176   5.657   6.251   4.310  2.3021 -4.0010  0.0038
   61MOL0     H 8177   5.646   6.408   4.226  0.4042 -1.6018 -2.2360
   61MOL0     H 8178   5.796   6.359   4.057 -0.5112  1.0537 -1.2460
   61MOL0     H 8179   5.859   6.217   4.148  0.8490  0.1420 -2.6370
   61MOL0     H 8180   5.715   6.175   3.944  0.2354  1.5740 -0.4286
   61MOL0     H 8181   5.633   6.101   4.086 -1.5277 -0.0317  1.1263
   61MOL0     H 8182   5.540   6.376   4.002  2.3269  0.5633  0.3382
   61MOL0     H 8183   5.459   6.256   4.103  0.1581  2.9363 -0.0776
   61MOL0     H 8184   5.495   6.245   3.802  2.7618 -1.7411 -0.3952
   61MOL0     H 8185   5.480   6.090   3.887  0.3386  1.3290 -1.7770
   61MOL0     H 8186   5.286   6.054   4.065 -2.9462 -1.3671 -0.1621
   61MOL0     H 8187   5.027   6.151   4.174  2.5419 -1.0764  0.2545
   61MOL0     H 8188   4.914   6.173   4.040 -0.8877 -0.5240  0.8007
   61MOL0     H 8189   5.057   5.914   4.101 -0.8469  0.5518  1.6382
   61MOL0     H 8190   4.883   5.953   4.094  0.5648 -2.2582 -1.4183
   61MOL0     H 8191   5.037   5.960   3.849 -1.2626  1.1732 -0.6495
   61MOL0     H 8192   4.861   5.956   3.866  0.6978  4.3340  4.5896
   61MOL0     H 8193   5.034   5.714   3.948  1.0465  1.4879  0.0255
   61MOL0     H 8194   4.982   5.743   3.783 -0.0475 -1.0464 -0.4425
   61MOL0     H 8195   4.800   5.814   3.674  1.7938  0.3368  2.2411
   61MOL0     H 8196   4.577   5.859   3.564 -1.2890  5.1757  2.0181
   61MOL0     H 8197   4.107   5.975   3.572  1.6004  1.4855 -0.1667
   61MOL0     H 8198   3.886   5.955   3.433 -1.0926 -1.9704  0.6730
   61MOL0     H 8199   3.839   5.658   3.104  1.1265  0.6366  1.1830
   61MOL0     H 8200   3.814   5.604   3.260  2.5036  0.6994  0.3138
   61MOL0     H 8201   3.648   5.759   3.079 -1.4323  0.3877 -0.0593
   61MOL0     H 8202   3.617   5.607   3.136 -2.7112  0.5432  2.2830
   61MOL0     H 8203   3.636   5.821   3.347  1.6061  1.9039 -4.1777
   61MOL0     H 8204   3.484   5.815   3.264 -0.1141 -0.6805 -1.7978
   61MOL0     H 8205   3.613   5.582   3.385  2.3910  1.5558 -1.3379
   61MOL0     H 8206   3.450   5.598   3.312  0.1452  4.5144 -2.5889
   61MOL0     H 8207   3.419   5.778   3.503  2.0695  1.1026  1.8544
   61MOL0     H 8208   3.555   5.677   3.578 -0.0750 -0.7629  0.2873
   61MOL0     H 8209   3.286   5.579   3.492 -0.0251 -0.4896  1.0070
   61MOL0     H 8210   3.394   5.472   3.541 -2.7873  0.6546  1.1701
   61MOL0     H 8211   3.261   5.692   3.689 -0.3112  0.0718 -0.6071
   61MOL0     H 8212   3.414   5.625   3.764  0.1987 -0.0427 -0.9437
   61MOL0     H 8213   3.317   5.421   3.808  0.2443  0.0267 -0.4554
   61MOL0     H 8214   3.199   5.534   3.859 -2.4952 -1.1129 -1.9286
   61MOL0     H 8215   4.065   5.651   3.190 -2.1866 -1.3737 -0.2348
   61MOL0     H 8216   4.269   5.662   3.322  0.1249  1.0509  2.0597
   61MOL0     H 8217   4.389   5.664   3.883  0.0082  0.0644 -0.5920
   61MOL0     H 8218   4.598   5.628   3.995 -0.0106  2.1523 -0.2183
   61MOL0     H 8219   6.181   6.469   4.416 -0.3949  1.5109 -1.0629
   61MOL0     H 8220   6.382   6.608   4.469  0.5252 -0.8641  1.1472
   61MOL0     H 8221   6.642   6.830   4.559 -2.1516  1.6482  1.1750
   61MOL0     H 8222   6.882   6.848   4.564 -0.5479 -1.6971 -0.6765
   61MOL0     H 8223   7.019   7.020   4.597  2.0531  3.1303  2.0866
   61MOL0     H 8224   7.112   6.869   4.600  0.7053 -0.5823 -0.0945
   61MOL0     H 8225   7.233   6.985   4.815  1.1168 -1.1007 -0.5797
   61MOL0     H 8226   7.165   7.140   4.753 -0.0705 -0.7340  1.4115
   61MOL0     H 8227   7.265   7.063   4.515  1.0834 -0.0639 -0.0298
   61MOL0     H 8228   7.369   6.958   4.623 -0.5024 -0.7874  3.8010
   61MOL0     H 8229   7.465   7.173   4.540 -0.2267  0.0849 -0.1310
   61MOL0     H 8230   7.348   7.256   4.638 -1.6587 -0.8719 -1.7245
   61MOL0     H 8231   7.648   7.172   4.911  3.1103 -1.4367 -1.5650
   61MOL0     H 8232   6.855   6.963   4.973 -2.0257  1.1089 -0.1093
   61MOL0     H 8233   6.652   7.012   5.067  0.0487  0.4045  0.1252
   61MOL0     H 8234   6.493   6.983   4.997  0.8173  0.0024 -2.3923
   61MOL0     H 8235   6.590   6.850   5.073  1.7665  0.4594  0.5640
   62MOL0     O 8236   1.461   6.754   8.912  0.2597  0.1865  0.6181
   62MOL0     C 8237   1.552   6.824   8.871  0.8374 -0.1558 -0.7129
   62MOL0     O 8238   1.650   6.773   8.790  0.1912  0.6878  0.4454
   62MOL0     C 8239   1.641   6.637   8.780 -0.5447 -0.0736 -0.2617
   62MOL0     C 8240   1.741   6.564   8.855 -0.3232 -1.2817 -0.2764
   62MOL0     C 8241   1.729   6.426   8.851 -0.4039 -0.6664 -0.7507
   62MOL0     C 8242   1.623   6.354   8.789  0.1675 -0.0977 -1.0817
   62MOL0     O 8243   1.618   6.215   8.793 -0.1155  0.3260  0.4487
   62MOL0     C 8244   1.493   6.144   8.783  0.2340 -0.2510  0.2379
   62MOL0     C 8245   1.531   5.993   8.774  0.1421 -0.2058 -0.0786
   62MOL0     C 8246   1.543   5.930   8.914  1.2629  0.3252 -0.9053
   62MOL0     C 8247   1.627   6.011   9.011  0.8040  0.1173  0.6700
   62MOL0     C 8248   1.688   5.922   9.122  0.6774 -0.0046  0.2502
   62MOL0     C 8249   1.589   5.853   9.212 -0.1193  0.2215  0.5020
   62MOL0     C 8250   1.546   5.941   9.326 -0.1459  0.0294  0.9247
   62MOL0     C 8251   1.473   5.850   9.432  0.6042  0.1700  0.3400
   62MOL0     N 8252   1.456   5.928   9.552 -0.0262 -0.3033 -0.3015
   62MOL0     C 8253   1.361   6.024   9.566 -0.2734 -0.4257  0.4165
   62MOL0     C 8254   1.389   6.086   9.684 -0.1478 -1.0228 -0.5348
   62MOL0     C 8255   1.300   6.207   9.732  0.1430 -0.2660 -0.0830
   62MOL0     C 8256   1.199   6.169   9.849 -0.1770  0.6966  0.5809
   62MOL0     C 8257   1.122   6.284   9.895  0.1675 -0.3926 -0.4767
   62MOL0     C 8258   1.061   6.253  10.033 -0.6627 -0.5899  0.6922
   62MOL0     O 8259   1.019   6.377  10.101 -0.3312 -0.4022  0.7189
   62MOL0     C 8260   0.940   6.359  10.211 -0.2644 -0.5789  0.3633
   62MOL0     C 8261   0.810   6.301  10.214  0.6074  0.1092  0.7583
   62MOL0     C 8262   0.743   6.276  10.340  0.6848 -0.0187 -0.3025
   62MOL0     C 8263   0.813   6.308  10.461 -0.5098  0.2743 -0.1261
   62MOL0     C 8264   0.765   6.272  10.594  0.0363 -0.0497 -0.4257
   62MOL0     O 8265   0.817   6.344  10.703  0.1442 -0.2195 -0.0371
   62MOL0     C 8266   0.761   6.326  10.829 -0.9531  1.6257 -0.1910
   62MOL0     C 8267   0.621   6.327  10.856 -0.4928 -0.1198 -0.5525
   62MOL0     C 8268   0.565   6.324  10.987 -0.1795 -0.7869  0.4848
   62MOL0     C 8269   0.648   6.300  11.089 -0.0009  0.3745  0.2406
   62MOL0     O 8270   0.609   6.293  11.218  0.3328  0.0715  0.3649
   62MOL0     C 8271   0.487   6.364  11.260 -0.3673 -0.6220  0.2559
   62MOL0     C 8272   0.483   6.374  11.413  0.1968  0.0260  0.9304
   62MOL0     C 8273   0.339   6.365  11.460  1.1406  0.5739 -0.1940
   62MOL0     C 8274   0.335   6.345  11.613 -0.8592  0.1496  0.0408
   62MOL0     C 8275   0.198   6.346  11.681 -0.5022 -0.4419 -0.3416
   62MOL0     C 8276   0.214   6.271  11.818 -0.0663 -0.2537 -1.1819
   62MOL0     C 8277   0.099   6.303  11.919  0.4281  0.4309  0.1904
   62MOL0     C 8278  -0.036   6.244  11.884 -0.2818 -0.8678  0.1536
   62MOL0    Cl 8279  -0.131   6.349  11.794 -0.0596  0.2449 -0.1327
   62MOL0     C 8280   0.783   6.295  11.066  0.0178  0.5764 -0.0218
   62MOL0     C 8281   0.842   6.306  10.942 -0.0962 -0.7392 -0.4587
   62MOL0     O 8282   0.692   6.173  10.598 -0.2369  0.2880  0.0509
   62MOL0     C 8283   0.928   6.386  10.456 -0.9567 -0.0547 -0.2135
   62MOL0     C 8284   0.998   6.398  10.334  0.9028 -0.4104  0.3438
   62MOL0     N 8285   1.499   6.022   9.734  0.4879 -0.0625  0.1015
   62MOL0     N 8286   1.532   5.922   9.661 -0.0838  0.1527  0.3861
   62MOL0     C 8287   1.541   6.428   8.709 -0.1420 -0.1026 -0.5188
   62MOL0     C 8288   1.547   6.566   8.699 -0.3411 -1.0887 -1.1854
   62MOL0     C 8289   1.557   6.972   8.911 -0.4181  0.5339  0.1409
   62MOL0     C 8290   1.658   7.051   8.844 -0.0620  0.1986 -0.6127
   62MOL0     C 8291   1.663   7.192   8.877  0.6903  0.1034  0.2478
   62MOL0     C 8292   1.576   7.252   8.973  0.3069  0.6447  0.1908
   62MOL0     O 8293   1.590   7.387   8.988 -1.0500  0.0682 -0.8008
   62MOL0     C 8294   1.518   7.458   9.086  0.0149 -0.4025  0.2305
   62MOL0     C 8295   1.367   7.466   9.071 -0.2591 -0.4183  0.6799
   62MOL0     C 8296   1.334   7.560   8.956 -0.4556  0.3505  0.3330
   62MOL0     C 8297   1.319   7.699   8.987 -0.1750  0.3061  0.1878
   62MOL0     C 8298   1.257   7.762   8.870  1.5739 -0.0089 -0.2129
   62MOL0     C 8299   1.202   7.812   8.777 -0.1991  1.0501 -0.7640
   62MOL0     C 8300   1.497   7.159   9.043  0.6177 -0.3514  0.1132
   62MOL0     C 8301   1.477   7.022   9.004  0.3349  0.2607  0.5376
   62MOL0     C 8302   1.382   6.935   9.088 -0.0312  0.9133  0.0934
   62MOL0     H 8303   1.816   6.613   8.915 -1.7359 -0.3553  0.8187
   62MOL0     H 8304   1.803   6.369   8.906  0.0892  0.3355 -0.3499
   62MOL0     H 8305   1.442   6.174   8.875  4.7039 -1.4824  3.4897
   62MOL0     H 8306   1.430   6.165   8.696 -2.9360 -1.7503  1.9986
   62MOL0     H 8307   1.628   5.993   8.724  0.5834  0.8183  0.7549
   62MOL0     H 8308   1.444   5.952   8.722 -0.1582  2.1180 -1.5362
   62MOL0     H 8309   1.584   5.831   8.895 -1.1111 -0.7057 -1.0325
   62MOL0     H 8310   1.445   5.911   8.957  0.2764  3.6013 -1.3771
   62MOL0     H 8311   1.710   6.047   8.950 -1.3005 -1.2528 -3.3306
   62MOL0     H 8312   1.569   6.087   9.065 -0.5222 -2.6981  3.5578
   62MOL0     H 8313   1.751   5.841   9.082 -0.6661 -1.3019  0.6879
   62MOL0     H 8314   1.754   5.975   9.192  2.3947 -0.0415 -1.2467
   62MOL0     H 8315   1.497   5.829   9.158 -0.9755  2.2492  0.9659
   62MOL0     H 8316   1.633   5.755   9.235  0.3981  0.6216  1.2718
   62MOL0     H 8317   1.475   6.019   9.294 -0.1775 -0.0828  0.7186
   62MOL0     H 8318   1.637   5.981   9.372 -0.1736  0.4700  0.6052
   62MOL0     H 8319   1.373   5.835   9.391  0.8335 -0.2215 -0.0783
   62MOL0     H 8320   1.528   5.757   9.447 -2.7337 -1.7197  1.8826
   62MOL0     H 8321   1.277   6.033   9.499 -0.3635 -2.1872  0.2394
   62MOL0     H 8322   1.367   6.289   9.761  3.0896 -2.0956 -1.2931
   62MOL0     H 8323   1.251   6.240   9.640  1.2065  2.5679  0.2688
   62MOL0     H 8324   1.133   6.089   9.814 -0.9845  0.2128  3.0433
   62MOL0     H 8325   1.259   6.135   9.934 -0.7502 -0.4728  0.5300
   62MOL0     H 8326   1.035   6.295   9.829  0.7778 -1.8638 -1.5832
   62MOL0     H 8327   1.176   6.379   9.901  0.8318 -0.8533  1.7200
   62MOL0     H 8328   1.145   6.215  10.093 -0.7481 -2.0527 -0.0690
   62MOL0     H 8329   0.993   6.168  10.024  0.8767 -1.9493  1.3758
   62MOL0     H 8330   0.754   6.262  10.129  2.1345 -1.9428  0.6027
   62MOL0     H 8331   0.645   6.227  10.344  0.2208  0.9673  2.3551
   62MOL0     H 8332   0.567   6.337  10.762 -0.1935 -1.9478 -0.9562
   62MOL0     H 8333   0.460   6.349  10.993  0.8937  5.5886 -0.3688
   62MOL0     H 8334   0.475   6.465  11.219 -0.6156 -0.4629  0.7166
   62MOL0     H 8335   0.404   6.306  11.218 -2.1548  1.1281  1.1695
   62MOL0     H 8336   0.557   6.315  11.469 -1.7347  0.8552  4.7114
   62MOL0     H 8337   0.511   6.478  11.433 -0.7461  0.4178  0.2572
   62MOL0     H 8338   0.281   6.450  11.423 -1.0242 -0.3310  0.9209
   62MOL0     H 8339   0.276   6.286  11.417  2.3486  0.4146 -1.7470
   62MOL0     H 8340   0.401   6.422  11.654 -0.8673  2.5305 -3.8633
   62MOL0     H 8341   0.377   6.246  11.633 -4.1106 -0.9243  2.4109
   62MOL0     H 8342   0.131   6.290  11.615 -0.9309  0.7901 -0.9846
   62MOL0     H 8343   0.152   6.443  11.698  2.1376  0.0672  7.6847
   62MOL0     H 8344   0.214   6.162  11.808  1.9582 -0.4200  0.0047
   62MOL0     H 8345   0.306   6.287  11.876 -0.9548  1.3009 -0.1386
   62MOL0     H 8346   0.094   6.412  11.922  0.8754  0.4796 -0.4791
   62MOL0     H 8347   0.138   6.254  12.009  4.1936  0.6933 -1.1018
   62MOL0     H 8348  -0.034   6.145  11.837 -3.0960 -1.9234  2.0107
   62MOL0     H 8349  -0.085   6.226  11.980  1.2207 -4.1983  0.4394
   62MOL0     H 8350   0.841   6.287  11.157 -0.1922  1.7473  0.2320
   62MOL0     H 8351   0.950   6.300  10.930 -0.0600 -0.2517 -0.4312
   62MOL0     H 8352   0.967   6.436  10.544 -1.2444  0.1545 -0.2040
   62MOL0     H 8353   1.092   6.450  10.355  1.3343 -1.8390  2.2524
   62MOL0     H 8354   1.462   6.370   8.662 -0.2060 -2.5406  2.2323
   62MOL0     H 8355   1.471   6.625   8.649 -0.6300 -2.1222 -2.0051
   62MOL0     H 8356   1.718   6.993   8.775 -1.8524 -1.9728 -0.4449
   62MOL0     H 8357   1.732   7.251   8.818 -0.3177  2.0639  0.9121
   62MOL0     H 8358   1.552   7.562   9.089 -3.0757  0.8356 -2.1860
   62MOL0     H 8359   1.550   7.411   9.180  0.7447 -1.1305 -0.3649
   62MOL0     H 8360   1.329   7.510   9.164 -4.4360  0.2509 -1.1447
   62MOL0     H 8361   1.309   7.374   9.068  0.7185 -1.0322  0.3283
   62MOL0     H 8362   1.238   7.530   8.911 -0.7548  3.3165 -1.2604
   62MOL0     H 8363   1.406   7.527   8.881 -0.9401 -0.9756  0.4225
   62MOL0     H 8364   1.262   7.701   9.080  1.0783  0.3632  0.9857
   62MOL0     H 8365   1.409   7.759   9.005 -1.4566  1.9582  1.4515
   62MOL0     H 8366   1.146   7.844   8.692 -2.3143  0.2579  0.2387
   62MOL0     H 8367   1.428   7.191   9.120 -0.8318  0.5781 -1.4981
   62MOL0     H 8368   1.333   6.989   9.169 -1.5899  0.0712 -0.2450
   62MOL0     H 8369   1.309   6.893   9.018  2.0006 -0.5101 -1.2782
   62MOL0     H 8370   1.445   6.854   9.127  0.5978 -0.2217 -2.9488
   63MOL0     O 8371   3.698   5.502   8.920 -0.4515  0.3971 -0.7965
   63MOL0     C 8372   3.691   5.564   8.815  0.3254  0.5529 -1.1615
   63MOL0     O 8373   3.689   5.702   8.805 -0.2525  0.7174  0.4753
   63MOL0     C 8374   3.697   5.774   8.916  0.2969 -0.0293 -0.2206
   63MOL0     C 8375   3.611   5.755   9.022  0.9542 -0.1559  0.4874
   63MOL0     C 8376   3.605   5.851   9.123  0.5518  0.5450  0.1784
   63MOL0     C 8377   3.678   5.972   9.109 -0.0889  0.6828 -0.4682
   63MOL0     O 8378   3.665   6.085   9.190 -1.1345  0.1456 -0.7870
   63MOL0     C 8379   3.531   6.106   9.236  0.1148 -0.0781 -0.7717
   63MOL0     C 8380   3.425   6.139   9.132 -0.2174 -0.7625  0.1333
   63MOL0     C 8381   3.448   6.263   9.056 -0.5709 -0.4499  0.5032
   63MOL0     C 8382   3.323   6.308   8.978 -0.1817 -0.4961  0.2590
   63MOL0     C 8383   3.355   6.423   8.874  0.4544  0.5522  0.1580
   63MOL0     C 8384   3.238   6.459   8.784  0.7588  0.2621  0.2023
   63MOL0     C 8385   3.287   6.569   8.684 -0.0265  0.2579 -0.5129
   63MOL0     C 8386   3.168   6.638   8.625  1.0271  0.5506 -1.1833
   63MOL0     N 8387   3.110   6.736   8.713  0.8349  0.1810  0.7279
   63MOL0     C 8388   3.154   6.866   8.732  0.5063  0.7462  0.5159
   63MOL0     C 8389   3.054   6.925   8.803  0.2732  0.5764 -0.5638
   63MOL0     C 8390   3.035   7.063   8.859 -1.6272 -0.6379  0.5484
   63MOL0     C 8391   3.101   7.173   8.777  0.1721 -0.1468  0.4477
   63MOL0     C 8392   3.080   7.316   8.833 -0.1805 -0.2306  0.0807
   63MOL0     C 8393   3.170   7.420   8.782  0.2407  0.2240  1.0247
   63MOL0     O 8394   3.130   7.416   8.639  0.0372  0.9357  0.5731
   63MOL0     C 8395   3.213   7.449   8.531  0.4392 -0.8020 -0.5955
   63MOL0     C 8396   3.149   7.431   8.405 -0.1895 -0.2591  0.3455
   63MOL0     C 8397   3.204   7.478   8.287  0.3600 -0.0992 -0.3805
   63MOL0     C 8398   3.331   7.546   8.295  0.5871 -0.5933 -0.1459
   63MOL0     C 8399   3.387   7.614   8.176 -0.4147 -0.1954  0.2570
   63MOL0     O 8400   3.518   7.643   8.184 -0.7619 -0.1918 -0.4271
   63MOL0     C 8401   3.579   7.711   8.082  0.5233  0.5455 -0.7971
   63MOL0     C 8402   3.507   7.817   8.019 -0.0802  0.7164  0.2319
   63MOL0     C 8403   3.586   7.910   7.938  0.5516  0.3521  0.1244
   63MOL0     C 8404   3.716   7.895   7.896 -0.4975  0.1931 -0.5681
   63MOL0     O 8405   3.782   7.990   7.840 -0.8011 -1.1632  0.5063
   63MOL0     C 8406   3.903   7.960   7.768 -0.0448 -0.4583 -0.1867
   63MOL0     C 8407   3.886   8.021   7.629 -0.6513 -0.0432 -0.5155
   63MOL0     C 8408   4.009   8.013   7.532  0.7559 -0.4815  0.4924
   63MOL0     C 8409   4.000   8.075   7.394 -0.2425 -0.8457  0.6843
   63MOL0     C 8410   4.141   8.096   7.331 -0.4953 -1.0751 -0.6545
   63MOL0     C 8411   4.166   8.014   7.198 -0.1464 -0.1532 -0.3484
   63MOL0     C 8412   4.268   8.092   7.110  0.8570  0.0076  0.3442
   63MOL0     C 8413   4.280   8.023   6.974  0.3001 -0.3952 -1.8842
   63MOL0    Cl 8414   4.334   8.140   6.839 -0.3111  0.5988  0.3566
   63MOL0     C 8415   3.786   7.778   7.952 -0.3920  0.5232 -0.8876
   63MOL0     C 8416   3.723   7.689   8.052  0.4715  0.3595  0.5551
   63MOL0     O 8417   3.317   7.612   8.073  0.0897 -0.8609 -0.1811
   63MOL0     C 8418   3.391   7.567   8.424 -0.5992  0.1249 -0.2301
   63MOL0     C 8419   3.333   7.516   8.534 -0.0775  0.6757 -0.4438
   63MOL0     N 8420   2.948   6.840   8.809 -0.2811 -0.0534  0.9730
   63MOL0     N 8421   2.986   6.723   8.757 -0.6686 -0.4617 -1.3233
   63MOL0     C 8422   3.765   5.994   9.005 -0.5538  0.3994 -0.7828
   63MOL0     C 8423   3.769   5.896   8.912 -0.4640 -0.0777 -0.0910
   63MOL0     C 8424   3.699   5.494   8.685 -0.1144 -0.3290  1.6947
   63MOL0     C 8425   3.613   5.390   8.656 -0.5139  0.3262 -0.5626
   63MOL0     C 8426   3.610   5.330   8.529 -0.5059  0.2098 -0.2875
   63MOL0     C 8427   3.689   5.378   8.427  0.5442 -1.4107  0.6247
   63MOL0     O 8428   3.695   5.328   8.295  0.3179 -0.0708 -0.0010
   63MOL0     C 8429   3.627   5.202   8.266 -0.9222 -0.4260  0.6651
   63MOL0     C 8430   3.688   5.142   8.142  0.4602  0.2189  0.1100
   63MOL0     C 8431   3.650   4.997   8.099  0.7774  0.3538  0.3621
   63MOL0     C 8432   3.679   4.987   7.938 -0.4118 -0.1370 -0.1587
   63MOL0     C 8433   3.547   5.001   7.873 -0.8321 -1.2286  0.5632
   63MOL0     C 8434   3.441   5.020   7.807  0.3950 -0.1497 -0.0249
   63MOL0     C 8435   3.762   5.497   8.455  0.1540  0.3106 -0.2838
   63MOL0     C 8436   3.772   5.554   8.576  0.0864  0.1958  0.3152
   63MOL0     C 8437   3.855   5.679   8.591 -0.2133  0.1307  0.9474
   63MOL0     H 8438   3.538   5.676   9.039  0.4270  0.3869  0.7586
   63MOL0     H 8439   3.555   5.828   9.216 -1.0900 -1.0254 -1.0089
   63MOL0     H 8440   3.506   6.004   9.265  2.1496 -1.8838 -4.5291
   63MOL0     H 8441   3.543   6.185   9.311 -2.1108  2.3301 -2.7832
   63MOL0     H 8442   3.327   6.151   9.181  0.8264  0.9218  1.9679
   63MOL0     H 8443   3.419   6.054   9.063  0.9970 -0.6877 -0.0719
   63MOL0     H 8444   3.530   6.254   8.985 -0.8672  1.5563 -0.1682
   63MOL0     H 8445   3.474   6.346   9.122 -1.6168  0.3935 -0.0994
   63MOL0     H 8446   3.284   6.224   8.920  2.5077 -0.6999 -1.4299
   63MOL0     H 8447   3.236   6.342   9.035  0.3321 -3.2133  2.9492
   63MOL0     H 8448   3.365   6.512   8.937  3.5296  0.9577 -0.7244
   63MOL0     H 8449   3.447   6.396   8.821 -0.6294 -1.7166 -0.6893
   63MOL0     H 8450   3.201   6.373   8.728 -0.0277  1.2077 -0.7569
   63MOL0     H 8451   3.160   6.498   8.850  0.8800 -1.3681  1.3720
   63MOL0     H 8452   3.336   6.526   8.596  0.2838  2.6059 -1.5622
   63MOL0     H 8453   3.354   6.646   8.721 -0.2197  1.4487 -2.5113
   63MOL0     H 8454   3.204   6.701   8.543 -0.2812  0.9066 -1.5160
   63MOL0     H 8455   3.094   6.572   8.578  1.8560  0.1947 -2.0291
   63MOL0     H 8456   3.250   6.912   8.711  0.4160 -0.1097 -1.9845
   63MOL0     H 8457   2.933   7.093   8.883 -1.2589  0.1073  1.2287
   63MOL0     H 8458   3.101   7.064   8.947 -0.5871  0.7692 -0.2126
   63MOL0     H 8459   3.209   7.164   8.787  0.5663 -0.0251 -2.6344
   63MOL0     H 8460   3.061   7.160   8.675 -0.8368 -0.8348  0.9117
   63MOL0     H 8461   3.091   7.314   8.942 -0.0130  0.6100  0.0816
   63MOL0     H 8462   2.974   7.340   8.820 -0.7226 -2.2815  0.2844
   63MOL0     H 8463   3.278   7.409   8.797  0.4260  0.2526 -0.2138
   63MOL0     H 8464   3.143   7.514   8.832  0.2545  0.1988  1.0797
   63MOL0     H 8465   3.060   7.370   8.400  0.4367 -1.1951  0.4215
   63MOL0     H 8466   3.164   7.469   8.186  2.9733  1.5360 -1.6848
   63MOL0     H 8467   3.403   7.841   8.036  0.5252  5.9661 -1.4808
   63MOL0     H 8468   3.532   7.998   7.905  0.8911  0.0688 -1.2512
   63MOL0     H 8469   3.989   8.010   7.815 -2.2176  0.5364  3.1479
   63MOL0     H 8470   3.923   7.853   7.757  2.1729  0.0474 -1.6972
   63MOL0     H 8471   3.809   7.970   7.570 -0.8053  0.2574 -0.5784
   63MOL0     H 8472   3.883   8.129   7.648  1.0760  0.4227 -2.5456
   63MOL0     H 8473   4.086   8.063   7.592 -0.7645  2.9723 -0.1954
   63MOL0     H 8474   4.028   7.907   7.514  0.8346 -0.2678 -0.7320
   63MOL0     H 8475   3.965   8.179   7.398  4.2630  1.0810 -1.7656
   63MOL0     H 8476   3.944   8.008   7.328  1.1905 -2.2008  0.8060
   63MOL0     H 8477   4.223   8.068   7.397  0.3235 -1.0591 -1.6339
   63MOL0     H 8478   4.151   8.202   7.305 -1.3091 -0.0285  2.8395
   63MOL0     H 8479   4.197   7.911   7.219 -1.5639 -0.1997  1.8149
   63MOL0     H 8480   4.069   8.008   7.146 -1.0745  0.3710  1.2511
   63MOL0     H 8481   4.361   8.099   7.167  0.7617  0.4898  0.4476
   63MOL0     H 8482   4.229   8.193   7.092  0.7548  0.0475  0.7582
   63MOL0     H 8483   4.354   7.944   6.992 -0.1079  0.1489  4.4680
   63MOL0     H 8484   4.192   7.965   6.946 -1.6973  1.4916  0.0248
   63MOL0     H 8485   3.895   7.775   7.955 -0.4157  0.3984  0.5450
   63MOL0     H 8486   3.775   7.612   8.108  1.4381  2.4502  2.6705
   63MOL0     H 8487   3.475   7.636   8.434 -0.1720  0.1668 -3.2303
   63MOL0     H 8488   3.368   7.531   8.636 -2.2393  0.8378  0.3337
   63MOL0     H 8489   3.830   6.081   8.996 -0.1759  0.1762 -0.2435
   63MOL0     H 8490   3.832   5.930   8.831 -0.7677  2.4884  0.6760
   63MOL0     H 8491   3.561   5.343   8.740  2.1882  0.0310  1.0444
   63MOL0     H 8492   3.550   5.243   8.507  0.7200 -0.3274 -1.6951
   63MOL0     H 8493   3.524   5.232   8.245 -0.0241  2.3011 -0.1681
   63MOL0     H 8494   3.633   5.133   8.351  0.7988 -1.1292  0.0198
   63MOL0     H 8495   3.796   5.157   8.149  0.3145  2.3635 -1.3730
   63MOL0     H 8496   3.664   5.210   8.060 -1.3171  1.1279  1.3105
   63MOL0     H 8497   3.545   4.977   8.124  0.1460  2.5778 -0.2266
   63MOL0     H 8498   3.706   4.924   8.158 -1.9215 -1.5879  0.7007
   63MOL0     H 8499   3.745   5.067   7.904  0.8061  0.4080  3.1029
   63MOL0     H 8500   3.725   4.893   7.905 -0.2851  0.5375 -2.0558
   63MOL0     H 8501   3.343   5.008   7.765  0.3996 -0.9839  0.1914
   63MOL0     H 8502   3.823   5.539   8.375 -1.3431  0.7717 -1.2217
   63MOL0     H 8503   3.796   5.771   8.596  0.1972  0.3973  0.9700
   63MOL0     H 8504   3.908   5.673   8.686 -1.4354 -2.2144  1.5430
   63MOL0     H 8505   3.932   5.695   8.514 -0.1139 -0.7118  0.8614
   64MOL0     O 8506   9.569  10.104   0.340 -1.2155 -0.4605  0.1595
   64MOL0     C 8507   9.607   9.986   0.316 -1.0928 -1.3651 -0.6751
   64MOL0     O 8508   9.536   9.901   0.239 -0.7899 -0.1517 -0.3749
   64MOL0     C 8509   9.430   9.936   0.167 -0.6074  0.3366 -1.0000
   64MOL0     C 8510   9.400  10.067   0.119 -0.2721  0.3068 -0.1950
   64MOL0     C 8511   9.292  10.092   0.031 -0.2245  0.0762  0.1615
   64MOL0     C 8512   9.203   9.992  -0.004  0.0034  0.3328  0.0555
   64MOL0     O 8513   9.097  10.020  -0.086 -0.6281 -0.2236  0.0094
   64MOL0     C 8514   9.011   9.919  -0.133  1.3299  0.3695 -0.5081
   64MOL0     C 8515   8.895  10.000  -0.197  1.1016 -0.4744 -0.6795
   64MOL0     C 8516   8.820   9.903  -0.290 -0.1518 -0.3622  0.3908
   64MOL0     C 8517   8.883   9.898  -0.432  0.6464  0.3619  0.6891
   64MOL0     C 8518   8.796   9.814  -0.520 -0.5586  0.5319  0.7328
   64MOL0     C 8519   8.793   9.858  -0.672  0.6282  0.4415 -0.6348
   64MOL0     C 8520   8.672   9.953  -0.695 -0.4376 -0.8251  0.6049
   64MOL0     C 8521   8.537   9.882  -0.710 -0.2515 -0.5266  0.9719
   64MOL0     N 8522   8.531   9.814  -0.839  1.6490  0.0188 -0.3668
   64MOL0     C 8523   8.528   9.864  -0.971 -0.6419 -0.7471 -1.1827
   64MOL0     C 8524   8.497   9.758  -1.043  0.7312  0.3527  0.2560
   64MOL0     C 8525   8.488   9.771  -1.197  0.6092 -0.1675  0.6230
   64MOL0     C 8526   8.585   9.666  -1.257 -0.5314  1.4289  0.6292
   64MOL0     C 8527   8.721   9.686  -1.201 -1.6938 -0.6792  0.4462
   64MOL0     C 8528   8.812   9.574  -1.259  0.2469  0.2335  0.4259
   64MOL0     O 8529   8.952   9.598  -1.238  0.2742  0.2066 -0.4844
   64MOL0     C 8530   9.021   9.701  -1.309  0.1778  0.9320  0.6974
   64MOL0     C 8531   8.979   9.779  -1.415 -0.7663 -0.1126  0.4734
   64MOL0     C 8532   9.052   9.871  -1.494 -0.8271 -0.0883  0.5550
   64MOL0     C 8533   9.193   9.883  -1.453  0.9373 -0.3245  1.0945
   64MOL0     C 8534   9.282   9.989  -1.518 -0.5792 -0.6533  0.0130
   64MOL0     O 8535   9.399  10.005  -1.455  0.9128  0.7416 -0.6342
   64MOL0     C 8536   9.474  10.116  -1.483  0.4618 -0.5353  0.6098
   64MOL0     C 8537   9.410  10.242  -1.490  0.1435 -0.1626 -0.6496
   64MOL0     C 8538   9.484  10.353  -1.514  0.5387 -1.1189 -0.8773
   64MOL0     C 8539   9.629  10.345  -1.518  0.1990  0.3339  0.3635
   64MOL0     O 8540   9.705  10.450  -1.541 -0.2827  0.8137 -0.1508
   64MOL0     C 8541   9.829  10.449  -1.627 -0.0334 -0.7971  0.7585
   64MOL0     C 8542   9.890  10.590  -1.644  0.4970  0.1906 -0.1030
   64MOL0     C 8543   9.769  10.683  -1.676  0.1575 -0.1731  0.2930
   64MOL0     C 8544   9.831  10.826  -1.706  0.2302 -0.1806 -0.4546
   64MOL0     C 8545   9.719  10.908  -1.763 -0.1967 -0.2765  0.3435
   64MOL0     C 8546   9.606  10.940  -1.665  0.7340 -0.0763 -0.4826
   64MOL0     C 8547   9.542  11.068  -1.707 -0.0280 -0.7907 -0.0327
   64MOL0     C 8548   9.458  11.129  -1.592 -0.7880  0.1773 -0.0517
   64MOL0    Cl 8549   9.539  11.134  -1.435  0.4649  0.2437 -0.0587
   64MOL0     C 8550   9.681  10.223  -1.529 -1.2057  0.9897  0.2942
   64MOL0     C 8551   9.608  10.105  -1.507  0.1485 -0.2872  0.2701
   64MOL0     O 8552   9.249  10.051  -1.618 -0.7324 -0.1012 -0.1317
   64MOL0     C 8553   9.238   9.801  -1.344  0.0853 -1.3002 -0.5687
   64MOL0     C 8554   9.155   9.717  -1.276  0.2199 -0.0097 -0.4525
   64MOL0     N 8555   8.482   9.650  -0.959  0.4379  0.1466 -1.0972
   64MOL0     N 8556   8.500   9.685  -0.839  0.0604  0.1965  0.2002
   64MOL0     C 8557   9.231   9.867   0.043  0.4121 -0.8456 -0.0652
   64MOL0     C 8558   9.332   9.846   0.143 -0.1424 -0.1224  0.5929
   64MOL0     C 8559   9.726   9.939   0.397  0.0748 -0.5982  0.4294
   64MOL0     C 8560   9.808  10.027   0.472 -0.3241 -0.0384  1.0905
   64MOL0     C 8561   9.927   9.978   0.527 -0.5923  0.6087 -0.0443
   64MOL0     C 8562   9.952   9.838   0.539  0.8081  0.4685  0.8558
   64MOL0     O 8563  10.076   9.813   0.595 -0.0974 -0.1423 -0.8518
   64MOL0     C 8564  10.124   9.678   0.585 -0.7616 -0.8978  0.7460
   64MOL0     C 8565  10.182   9.667   0.441 -0.4609 -0.2166  0.9175
   64MOL0     C 8566  10.272   9.546   0.430  0.8733  0.1101  0.0493
   64MOL0     C 8567  10.314   9.507   0.289  0.6410 -0.6614  0.3758
   64MOL0     C 8568  10.335   9.370   0.273  0.5365  1.1519  0.1658
   64MOL0     C 8569  10.335   9.250   0.272 -0.3839 -0.4059 -0.2071
   64MOL0     C 8570   9.860   9.752   0.487 -0.2173  0.2760  1.0751
   64MOL0     C 8571   9.743   9.798   0.428 -0.4782 -0.3237 -0.0030
   64MOL0     C 8572   9.661   9.678   0.374 -0.0044 -0.5335  0.3241
   64MOL0     H 8573   9.468  10.149   0.142  0.8180 -0.7820  0.5808
   64MOL0     H 8574   9.283  10.195  -0.002  2.1787  0.4269  0.4507
   64MOL0     H 8575   9.047   9.844  -0.204  0.0901 -3.4404  2.5371
   64MOL0     H 8576   8.968   9.857  -0.053  1.0188  2.3552  0.9282
   64MOL0     H 8577   8.932  10.089  -0.248 -2.7913  1.3392 -0.7394
   64MOL0     H 8578   8.826  10.047  -0.126 -1.2757  1.4572 -3.9982
   64MOL0     H 8579   8.716   9.930  -0.309  0.5399  2.7859  0.6378
   64MOL0     H 8580   8.831   9.807  -0.239  0.0829 -0.9762 -0.7753
   64MOL0     H 8581   8.852   9.996  -0.469 -3.9803 -1.7708 -1.9066
   64MOL0     H 8582   8.991   9.880  -0.431  0.5798 -0.0713  0.3300
   64MOL0     H 8583   8.831   9.710  -0.516 -2.3036 -0.1129 -0.0110
   64MOL0     H 8584   8.695   9.809  -0.479 -0.1757  0.5082  1.7008
   64MOL0     H 8585   8.892   9.901  -0.691 -0.3231  2.2632 -1.7051
   64MOL0     H 8586   8.797   9.759  -0.719  2.2954  0.0716  0.1755
   64MOL0     H 8587   8.684  10.023  -0.779 -0.2778 -0.6387  0.7807
   64MOL0     H 8588   8.662  10.023  -0.611  1.8392  0.8382 -0.3858
   64MOL0     H 8589   8.526   9.809  -0.629  2.4017 -0.8729  1.0977
   64MOL0     H 8590   8.450   9.948  -0.702 -1.6765 -2.2765  0.4156
   64MOL0     H 8591   8.561   9.962  -1.005  1.0351 -1.1541 -0.7753
   64MOL0     H 8592   8.391   9.768  -1.248  1.9803  2.0990 -2.4218
   64MOL0     H 8593   8.530   9.868  -1.222  1.7688 -1.0123 -0.8858
   64MOL0     H 8594   8.546   9.568  -1.227  2.8047 -0.5152 -0.7451
   64MOL0     H 8595   8.571   9.656  -1.365 -1.2447 -2.1579  0.9142
   64MOL0     H 8596   8.738   9.682  -1.092  3.6457  1.4802  0.0315
   64MOL0     H 8597   8.765   9.781  -1.233  3.3309 -1.3253  4.0825
   64MOL0     H 8598   8.795   9.562  -1.367  0.4030  2.8833  0.0343
   64MOL0     H 8599   8.785   9.481  -1.207  5.5135 -2.0253 -0.2087
   64MOL0     H 8600   8.873   9.775  -1.439 -0.9444  0.8086  1.0572
   64MOL0     H 8601   9.005   9.940  -1.563 -1.2564 -0.4538  0.4831
   64MOL0     H 8602   9.305  10.250  -1.464  0.4645  1.4113  0.2905
   64MOL0     H 8603   9.439  10.450  -1.531 -0.5661 -1.5263 -0.3305
   64MOL0     H 8604   9.909  10.384  -1.591  0.7799 -0.6479 -0.6768
   64MOL0     H 8605   9.798  10.415  -1.726 -2.5124  1.5187  0.6315
   64MOL0     H 8606   9.941  10.627  -1.554 -2.0575  0.7077  1.2468
   64MOL0     H 8607   9.955  10.583  -1.731  0.4819  0.6257 -0.1517
   64MOL0     H 8608   9.721  10.650  -1.768  1.4069  0.1843 -0.5030
   64MOL0     H 8609   9.704  10.693  -1.588  1.0568 -1.4197  1.1424
   64MOL0     H 8610   9.912  10.806  -1.777  1.2218  1.2428  0.2271
   64MOL0     H 8611   9.878  10.877  -1.621 -3.7394  0.7548  1.4382
   64MOL0     H 8612   9.686  10.857  -1.854  2.6767 -3.6352  0.9627
   64MOL0     H 8613   9.766  11.005  -1.781  0.3928 -0.1573  2.3047
   64MOL0     H 8614   9.523  10.868  -1.673  1.4592 -0.8910 -0.8467
   64MOL0     H 8615   9.646  10.942  -1.564 -0.6076  0.1830  0.0680
   64MOL0     H 8616   9.488  11.073  -1.802 -1.0652 -1.4652  0.4959
   64MOL0     H 8617   9.621  11.141  -1.724 -0.0143 -0.9460 -0.6602
   64MOL0     H 8618   9.454  11.229  -1.636 -1.4983 -0.0419 -0.5062
   64MOL0     H 8619   9.369  11.067  -1.580 -1.5818  1.2943  0.0261
   64MOL0     H 8620   9.784  10.200  -1.555 -1.4436 -0.8056  0.7969
   64MOL0     H 8621   9.666  10.014  -1.502  1.7023  0.7084  2.0968
   64MOL0     H 8622   9.334   9.820  -1.298  0.3180  0.1420 -1.5785
   64MOL0     H 8623   9.202   9.663  -1.194  0.2326 -1.1745 -1.1990
   64MOL0     H 8624   9.174   9.778   0.022 -3.1739  1.1285  0.4898
   64MOL0     H 8625   9.332   9.758   0.207  1.5405 -1.5828 -1.2748
   64MOL0     H 8626   9.778  10.132   0.467  0.8770  0.2671 -0.3369
   64MOL0     H 8627  10.001  10.050   0.563 -0.4930 -0.5473  2.2194
   64MOL0     H 8628  10.049   9.598   0.589 -0.3355 -1.3232  0.2833
   64MOL0     H 8629  10.204   9.669   0.660  0.1708  0.3878 -0.0602
   64MOL0     H 8630  10.237   9.755   0.404  0.0913 -0.7641  0.4061
   64MOL0     H 8631  10.098   9.679   0.373 -1.9208  1.6447  2.9264
   64MOL0     H 8632  10.214   9.466   0.477 -0.1806  0.4526 -0.6402
   64MOL0     H 8633  10.360   9.561   0.493 -0.6511  1.2277  2.0031
   64MOL0     H 8634  10.235   9.542   0.221 -0.9125 -0.8813  1.9752
   64MOL0     H 8635  10.396   9.565   0.248 -1.5967  1.7872 -0.9679
   64MOL0     H 8636  10.325   9.143   0.267 -2.7980 -0.1981 -1.5010
   64MOL0     H 8637   9.878   9.645   0.498  2.9254  0.4713 -0.7558
   64MOL0     H 8638   9.689   9.583   0.420  3.5029  0.5887  0.7472
   64MOL0     H 8639   9.553   9.698   0.369  0.2208  0.5044 -3.5470
   64MOL0     H 8640   9.688   9.668   0.269  0.8772  1.9582  0.2428
   65MOL0     O 8641   9.568  10.778   3.492  0.5015 -0.2110  0.3671
   65MOL0     C 8642   9.565  10.803   3.616  0.3050 -0.6911  0.4041
   65MOL0     O 8643   9.608  10.917   3.676  0.6531  0.6565  0.0485
   65MOL0     C 8644   9.690  11.011   3.614 -0.2508 -0.1026 -0.5130
   65MOL0     C 8645   9.763  11.094   3.703  0.1640 -0.4314  0.6991
   65MOL0     C 8646   9.840  11.208   3.649  0.0390  0.3768  0.5735
   65MOL0     C 8647   9.823  11.242   3.522  0.2633  0.0354  1.4279
   65MOL0     O 8648   9.890  11.351   3.468 -1.2080 -0.3497 -0.4067
   65MOL0     C 8649   9.961  11.459   3.539  0.0329 -0.0910 -0.4719
   65MOL0     C 8650   9.856  11.574   3.549  0.5286 -0.0719 -0.8787
   65MOL0     C 8651   9.869  11.672   3.427 -0.2850 -0.4051  1.1008
   65MOL0     C 8652   9.720  11.712   3.414  0.0677 -0.3705  0.0082
   65MOL0     C 8653   9.697  11.827   3.314 -0.2504 -1.1040  0.9836
   65MOL0     C 8654   9.704  11.794   3.171 -1.3349 -0.7048  0.1005
   65MOL0     C 8655   9.705  11.914   3.075 -0.7601  0.3433 -0.4651
   65MOL0     C 8656   9.845  11.982   3.063  0.0268  0.4224  0.6142
   65MOL0     N 8657   9.945  11.884   3.027 -0.0979  1.5906 -0.2160
   65MOL0     C 8658   9.937  11.804   2.917 -1.1004  0.2475  0.6158
   65MOL0     C 8659  10.055  11.727   2.914 -1.0849  0.0756 -0.5798
   65MOL0     C 8660  10.096  11.631   2.814  0.1131  0.0384  1.1434
   65MOL0     C 8661  10.202  11.535   2.867  0.3005  0.0420  0.3974
   65MOL0     C 8662  10.348  11.583   2.896  0.2620 -0.5007  0.2829
   65MOL0     C 8663  10.461  11.482   2.878  0.4267 -0.8620 -1.1424
   65MOL0     O 8664  10.413  11.353   2.909  0.1353  0.0207  0.1684
   65MOL0     C 8665  10.500  11.252   2.915  0.0246 -0.6419 -0.5887
   65MOL0     C 8666  10.635  11.263   2.879 -0.6916 -0.6372  0.6577
   65MOL0     C 8667  10.717  11.153   2.888 -0.6373  0.7600  0.3211
   65MOL0     C 8668  10.665  11.024   2.928  1.0631  0.0563 -0.3451
   65MOL0     C 8669  10.751  10.905   2.953 -0.7076  1.0500  0.3307
   65MOL0     O 8670  10.692  10.799   3.012 -0.4016  0.4817  0.5247
   65MOL0     C 8671  10.743  10.666   3.003 -0.3782 -0.4100  0.1460
   65MOL0     C 8672  10.666  10.558   2.962  0.2004 -0.0060 -0.5316
   65MOL0     C 8673  10.716  10.427   2.976 -0.3105 -0.9760  0.1984
   65MOL0     C 8674  10.847  10.398   3.024 -0.1105 -0.7668 -0.0607
   65MOL0     O 8675  10.906  10.272   3.010  0.3941 -0.7705  0.4037
   65MOL0     C 8676  10.822  10.152   2.992 -0.3370 -0.0564 -0.8326
   65MOL0     C 8677  10.893  10.029   3.054  1.0567  0.3795 -0.4256
   65MOL0     C 8678  10.806   9.899   3.052 -0.0440  0.9334  0.1970
   65MOL0     C 8679  10.846   9.801   3.158  0.3243 -0.4376  0.5156
   65MOL0     C 8680  10.757   9.822   3.286  0.8759  0.6820  0.3106
   65MOL0     C 8681  10.795   9.725   3.396 -0.2086 -1.3849 -0.2249
   65MOL0     C 8682  10.748   9.768   3.538  0.4456 -0.4159 -0.5519
   65MOL0     C 8683  10.853   9.762   3.640  0.0325  0.3729 -0.1861
   65MOL0    Cl 8684  10.816   9.832   3.815 -0.0134 -0.1623 -0.0886
   65MOL0     C 8685  10.924  10.510   3.058 -0.1095  1.0869 -0.4566
   65MOL0     C 8686  10.869  10.633   3.051 -1.1673 -0.3894 -0.8769
   65MOL0     O 8687  10.865  10.906   2.897 -0.2442  0.3780  0.2713
   65MOL0     C 8688  10.519  11.022   2.960 -1.0330  0.0111 -0.0457
   65MOL0     C 8689  10.444  11.136   2.957 -0.1176 -0.5060 -0.6793
   65MOL0     N 8690  10.105  11.750   3.038 -0.3022 -0.6939  0.0118
   65MOL0     N 8691  10.045  11.838   3.102 -0.1528 -0.2648 -0.3218
   65MOL0     C 8692   9.744  11.160   3.433  0.1608  0.3197 -0.0708
   65MOL0     C 8693   9.687  11.040   3.474  0.3961  1.0107  0.4362
   65MOL0     C 8694   9.504  10.705   3.706 -0.0489  0.1469  0.3399
   65MOL0     C 8695   9.499  10.734   3.848  0.0873  0.4222  0.1809
   65MOL0     C 8696   9.442  10.633   3.935  0.0475  0.1049 -0.7701
   65MOL0     C 8697   9.383  10.518   3.882  0.0496 -0.3902 -1.0317
   65MOL0     O 8698   9.329  10.429   3.970 -0.0287  0.3243 -0.1427
   65MOL0     C 8699   9.265  10.306   3.926 -0.2591 -0.3219 -0.0717
   65MOL0     C 8700   9.198  10.235   4.048  0.2296 -0.4459  0.1035
   65MOL0     C 8701   9.290  10.211   4.163 -0.0824  0.5709  0.6714
   65MOL0     C 8702   9.225  10.150   4.285  0.5961  0.6488  0.6002
   65MOL0     C 8703   9.334  10.125   4.379 -0.6165 -0.0496 -0.1960
   65MOL0     C 8704   9.409  10.117   4.482 -0.3157 -0.4748  1.7192
   65MOL0     C 8705   9.388  10.493   3.745 -0.4736  0.3084 -0.4402
   65MOL0     C 8706   9.446  10.585   3.655  1.0631 -0.3389 -0.0451
   65MOL0     C 8707   9.453  10.544   3.514  0.6015  0.0018  0.4537
   65MOL0     H 8708   9.758  11.058   3.805  1.8868  1.0100  1.3480
   65MOL0     H 8709   9.905  11.257   3.721 -2.0961  1.4551  1.8729
   65MOL0     H 8710   9.984  11.421   3.639 -1.8099  1.6572  0.6994
   65MOL0     H 8711  10.054  11.492   3.493  0.9677  0.7246  1.8560
   65MOL0     H 8712   9.876  11.633   3.639  0.1849  1.1252 -1.5510
   65MOL0     H 8713   9.755  11.535   3.564  1.1169 -0.7556  1.6879
   65MOL0     H 8714   9.906  11.618   3.340  2.3272  1.5383  0.8675
   65MOL0     H 8715   9.947  11.746   3.449 -0.7457 -0.2338  2.2496
   65MOL0     H 8716   9.665  11.619   3.401 -1.6774  0.3740  1.6436
   65MOL0     H 8717   9.703  11.755   3.513  1.1603  1.1574 -0.4171
   65MOL0     H 8718   9.596  11.864   3.330 -0.4561 -1.7195  1.1560
   65MOL0     H 8719   9.769  11.900   3.351 -0.5693 -0.2987  0.0453
   65MOL0     H 8720   9.781  11.717   3.157 -0.1460  0.1986  1.3721
   65MOL0     H 8721   9.611  11.739   3.151 -1.0762 -1.1973  0.2186
   65MOL0     H 8722   9.644  11.998   3.108 -2.5297 -0.8322 -0.6070
   65MOL0     H 8723   9.670  11.872   2.980  2.8295 -0.4208 -1.6399
   65MOL0     H 8724   9.848  12.079   3.011 -0.9470  0.7061  1.0577
   65MOL0     H 8725   9.885  12.021   3.157 -3.5968  0.6730  2.2346
   65MOL0     H 8726   9.855  11.812   2.846 -1.4259  0.0954  0.9738
   65MOL0     H 8727  10.011  11.570   2.781  2.0069 -2.9267  1.3533
   65MOL0     H 8728  10.145  11.682   2.731 -2.2244 -1.5731 -1.4133
   65MOL0     H 8729  10.168  11.489   2.961  0.4293  1.2579  1.0596
   65MOL0     H 8730  10.212  11.450   2.799  0.1725 -0.2805  0.7729
   65MOL0     H 8731  10.351  11.621   2.998 -1.0734 -1.3179  0.6634
   65MOL0     H 8732  10.366  11.671   2.834 -2.6591  0.5855  0.7824
   65MOL0     H 8733  10.530  11.516   2.955 -1.1142  0.0156 -0.0871
   65MOL0     H 8734  10.511  11.488   2.781 -2.4792  1.1563 -2.6898
   65MOL0     H 8735  10.679  11.353   2.838 -0.8165 -1.0540 -0.4103
   65MOL0     H 8736  10.820  11.171   2.857 -1.7265  1.8497 -3.1316
   65MOL0     H 8737  10.570  10.581   2.917  0.3264  0.9526 -0.3286
   65MOL0     H 8738  10.654  10.349   2.931  0.2077 -0.3051 -1.7698
   65MOL0     H 8739  10.730  10.164   3.049  0.6354 -3.7118  1.8815
   65MOL0     H 8740  10.802  10.132   2.886  1.4515  2.0699 -1.6609
   65MOL0     H 8741  10.988  10.004   3.005  0.2681 -3.4990 -0.3399
   65MOL0     H 8742  10.904  10.047   3.161 -0.6478 -2.7551  0.4057
   65MOL0     H 8743  10.699   9.917   3.068 -0.4742  1.4565 -2.7052
   65MOL0     H 8744  10.818   9.858   2.951 -0.0978  4.9668 -1.6506
   65MOL0     H 8745  10.953   9.816   3.176  0.0296  5.0876 -0.3946
   65MOL0     H 8746  10.825   9.696   3.138 -1.1850  0.0487 -0.6973
   65MOL0     H 8747  10.650   9.824   3.268  0.5252 -4.5723  0.4625
   65MOL0     H 8748  10.782   9.922   3.324  0.1114  1.3988 -1.0031
   65MOL0     H 8749  10.754   9.626   3.378 -0.6010 -2.2129  4.2437
   65MOL0     H 8750  10.904   9.720   3.388 -0.1124 -0.3169  0.2064
   65MOL0     H 8751  10.664   9.714   3.581  0.5987 -0.1557  0.0777
   65MOL0     H 8752  10.714   9.871   3.533 -0.6220 -0.7986 -1.6775
   65MOL0     H 8753  10.870   9.655   3.656  1.7720  0.5366 -0.6782
   65MOL0     H 8754  10.944   9.807   3.598  0.3592 -1.1112 -1.1695
   65MOL0     H 8755  11.019  10.492   3.107  0.4020  0.7229 -1.5323
   65MOL0     H 8756  10.935  10.710   3.091 -1.6311  0.1641 -1.1532
   65MOL0     H 8757  10.460  10.937   2.991  0.1363 -0.5551  0.6827
   65MOL0     H 8758  10.342  11.140   2.994  0.3639 -1.1185  0.7977
   65MOL0     H 8759   9.744  11.193   3.330 -2.5073  1.7062  0.2817
   65MOL0     H 8760   9.627  10.981   3.406  0.7237 -1.6643  2.3298
   65MOL0     H 8761   9.546  10.827   3.879  1.3570  0.3265 -1.3052
   65MOL0     H 8762   9.447  10.658   4.040 -0.1359  4.6191 -1.6171
   65MOL0     H 8763   9.344  10.239   3.889  0.3166 -0.8496  1.9737
   65MOL0     H 8764   9.191  10.329   3.849 -0.0833  0.7107  0.0570
   65MOL0     H 8765   9.148  10.143   4.015  2.6240 -0.5899 -3.6457
   65MOL0     H 8766   9.113  10.296   4.080  1.2241  0.1260  1.7791
   65MOL0     H 8767   9.333  10.304   4.203 -2.0793  0.7343  2.7217
   65MOL0     H 8768   9.368  10.141   4.135 -3.8214 -2.8763 -2.3683
   65MOL0     H 8769   9.140  10.206   4.324  0.5440 -1.2805  3.5496
   65MOL0     H 8770   9.185  10.051   4.261  1.1045  0.2856  1.2107
   65MOL0     H 8771   9.468  10.109   4.570  3.8592 -1.1658 -0.8551
   65MOL0     H 8772   9.345  10.401   3.706 -4.5830 -1.5555  6.6904
   65MOL0     H 8773   9.397  10.619   3.458 -3.1586 -2.3194  0.7501
   65MOL0     H 8774   9.555  10.528   3.476  0.0720 -0.8019 -0.7184
   65MOL0     H 8775   9.398  10.449   3.508 -0.3551  0.5662  0.2211
   66MOL0     O 8776   4.677   8.789  10.260  0.1805 -0.5350  0.2358
   66MOL0     C 8777   4.668   8.875  10.172 -1.2861 -0.2819  0.3960
   66MOL0     O 8778   4.780   8.961  10.142  0.1092 -0.4721  0.4332
   66MOL0     C 8779   4.895   8.937  10.211  1.2444 -0.8098 -0.4725
   66MOL0     C 8780   5.012   8.910  10.151 -0.4379  0.4535  0.1722
   66MOL0     C 8781   5.135   8.900  10.220  0.4250  0.6849  0.7285
   66MOL0     C 8782   5.136   8.909  10.356 -0.0440  0.3448  0.3705
   66MOL0     O 8783   5.257   8.895  10.416  0.3923  0.5384  0.1731
   66MOL0     C 8784   5.273   8.953  10.539 -0.7738  0.6272 -0.5707
   66MOL0     C 8785   5.420   8.957  10.565  0.1234 -0.5959 -0.4729
   66MOL0     C 8786   5.441   9.057  10.676 -0.0441  0.0609  0.0241
   66MOL0     C 8787   5.595   9.097  10.668 -0.7483 -0.0577 -0.4983
   66MOL0     C 8788   5.632   9.191  10.788  0.4545  0.0950  0.0823
   66MOL0     C 8789   5.617   9.118  10.926  0.5038 -0.2003  0.4839
   66MOL0     C 8790   5.696   8.983  10.941 -0.7862  0.1863 -1.3306
   66MOL0     C 8791   5.599   8.855  10.934  0.0035  0.0380  0.0111
   66MOL0     N 8792   5.515   8.852  11.053 -0.0182 -0.3763  0.3080
   66MOL0     C 8793   5.552   8.804  11.174  0.5272  0.0273  0.4077
   66MOL0     C 8794   5.440   8.783  11.239 -0.5131 -0.3249 -0.4474
   66MOL0     C 8795   5.420   8.721  11.375 -0.0543 -0.6226  1.2614
   66MOL0     C 8796   5.374   8.584  11.367  1.0118 -0.0885 -0.7291
   66MOL0     C 8797   5.496   8.485  11.324 -0.3257  0.7873  0.6876
   66MOL0     C 8798   5.614   8.481  11.420  0.1418  0.3794 -0.6053
   66MOL0     O 8799   5.644   8.343  11.438 -0.8758 -0.4250  0.0230
   66MOL0     C 8800   5.782   8.309  11.431  0.1652 -0.1573  0.3769
   66MOL0     C 8801   5.888   8.377  11.495  0.0679  0.2808 -0.4033
   66MOL0     C 8802   6.017   8.328  11.486 -0.9012 -0.2970  0.0503
   66MOL0     C 8803   6.050   8.214  11.410  0.6030 -0.5562 -0.4255
   66MOL0     C 8804   6.192   8.180  11.378  0.0565  0.5424 -0.3172
   66MOL0     O 8805   6.287   8.279  11.386  0.2502 -0.2074  0.0175
   66MOL0     C 8806   6.423   8.273  11.347  0.8405  0.9194  0.6429
   66MOL0     C 8807   6.485   8.179  11.270  0.3434  0.1619 -0.9540
   66MOL0     C 8808   6.627   8.181  11.251  0.7028  0.2252  0.3693
   66MOL0     C 8809   6.705   8.278  11.315 -0.9117 -0.6991  1.4808
   66MOL0     O 8810   6.841   8.301  11.308 -0.0954 -0.5458  0.2632
   66MOL0     C 8811   6.907   8.296  11.181  0.4005  0.5888  1.0689
   66MOL0     C 8812   6.874   8.422  11.091 -0.0668 -0.1251 -0.2356
   66MOL0     C 8813   6.958   8.424  10.956 -0.5391  0.8942 -0.3922
   66MOL0     C 8814   6.972   8.286  10.874 -0.1813  1.2895  0.5465
   66MOL0     C 8815   6.840   8.224  10.832 -0.2189 -0.5361  0.0631
   66MOL0     C 8816   6.836   8.093  10.760 -0.4456 -1.0543  0.1668
   66MOL0     C 8817   6.700   8.038  10.757 -0.4274  0.5445  0.1427
   66MOL0     C 8818   6.661   7.981  10.896  0.8566 -0.6503  1.3749
   66MOL0    Cl 8819   6.780   7.877  10.995 -0.5387 -0.4947  0.4088
   66MOL0     C 8820   6.635   8.374  11.386 -0.0078 -0.5158 -0.1144
   66MOL0     C 8821   6.502   8.373  11.409  0.1188 -0.5714  0.0233
   66MOL0     O 8822   6.212   8.064  11.343 -0.6533  0.0128 -0.3348
   66MOL0     C 8823   5.945   8.141  11.356  0.7784  0.1206 -0.0111
   66MOL0     C 8824   5.812   8.194  11.364  0.2825  0.1423  0.2288
   66MOL0     N 8825   5.339   8.832  11.166 -0.0526 -0.0664  0.1247
   66MOL0     N 8826   5.387   8.884  11.060  0.1795 -0.2465  0.1150
   66MOL0     C 8827   5.016   8.942  10.422 -0.7918  0.3771 -0.3481
   66MOL0     C 8828   4.898   8.969  10.350  0.1707 -0.0458  0.3785
   66MOL0     C 8829   4.548   8.890  10.080 -0.2876 -0.5725  0.7752
   66MOL0     C 8830   4.552   9.009  10.002 -0.5716  1.1378 -0.4349
   66MOL0     C 8831   4.443   9.047   9.922  0.4334 -0.9067 -0.3953
   66MOL0     C 8832   4.323   8.966   9.916  0.6021 -1.1916  0.3263
   66MOL0     O 8833   4.215   8.982   9.825  0.4059 -0.0058 -0.6637
   66MOL0     C 8834   4.103   9.046   9.896 -0.3316 -0.2797  0.4001
   66MOL0     C 8835   3.977   8.973   9.870 -0.0346  0.8624 -0.2836
   66MOL0     C 8836   3.862   9.047   9.934  0.4596  0.2047 -0.2679
   66MOL0     C 8837   3.833   9.003  10.077 -0.0518  0.8252  0.5641
   66MOL0     C 8838   3.759   8.878  10.101  0.4137  0.2735 -0.8780
   66MOL0     C 8839   3.698   8.780  10.129  0.0915  0.0509  0.1866
   66MOL0     C 8840   4.332   8.849   9.986 -0.2323  0.8280  0.6365
   66MOL0     C 8841   4.433   8.809  10.078 -0.7052 -0.4525 -0.4051
   66MOL0     C 8842   4.401   8.698  10.174  0.2121 -0.4715 -0.6146
   66MOL0     H 8843   5.021   8.890  10.045  3.0249  0.0254  0.4365
   66MOL0     H 8844   5.226   8.864  10.173  0.7352 -0.3000  2.0016
   66MOL0     H 8845   5.234   9.055  10.542 -2.0521  0.1798 -0.8309
   66MOL0     H 8846   5.219   8.887  10.608 -1.5880  1.2448 -0.5951
   66MOL0     H 8847   5.467   8.994  10.474  2.0093 -0.0988  0.6431
   66MOL0     H 8848   5.453   8.862  10.607  2.4350  1.4199  2.7819
   66MOL0     H 8849   5.406   9.021  10.773 -0.9988  0.5981 -0.1125
   66MOL0     H 8850   5.398   9.153  10.646 -0.8383 -0.1191  0.5606
   66MOL0     H 8851   5.656   9.007  10.662 -0.3086  0.3358 -4.0773
   66MOL0     H 8852   5.609   9.162  10.582  1.1865  0.7526  0.3844
   66MOL0     H 8853   5.734   9.229  10.777  0.7085 -1.1715 -2.9127
   66MOL0     H 8854   5.570   9.281  10.791  0.7723  0.3869 -1.3381
   66MOL0     H 8855   5.648   9.178  11.011 -1.4179  3.4307 -1.1416
   66MOL0     H 8856   5.511   9.102  10.947  0.4910  3.0038  3.8972
   66MOL0     H 8857   5.756   8.976  11.032 -0.6842 -1.0882 -1.4834
   66MOL0     H 8858   5.758   8.961  10.853  3.2169  0.9136  1.0623
   66MOL0     H 8859   5.545   8.868  10.841 -0.3431  1.6343  0.4070
   66MOL0     H 8860   5.651   8.759  10.933 -2.5358 -1.3980 -1.3846
   66MOL0     H 8861   5.658   8.790  11.196  0.3777  1.3701  2.2252
   66MOL0     H 8862   5.513   8.725  11.432 -0.7425  0.8993  2.3566
   66MOL0     H 8863   5.345   8.789  11.417 -0.3522  0.0522 -0.2694
   66MOL0     H 8864   5.338   8.543  11.462  0.6591 -2.6346 -1.8607
   66MOL0     H 8865   5.294   8.576  11.293  1.0616 -2.4505 -0.6150
   66MOL0     H 8866   5.534   8.499  11.222 -0.0401 -2.2935  0.2889
   66MOL0     H 8867   5.453   8.386  11.309 -2.6930  1.6437  1.2230
   66MOL0     H 8868   5.589   8.514  11.521 -1.8930 -4.8391  0.9397
   66MOL0     H 8869   5.698   8.531  11.372  2.2233 -1.1153  1.2645
   66MOL0     H 8870   5.866   8.470  11.545  0.3700  0.4930 -0.6695
   66MOL0     H 8871   6.094   8.373  11.548  0.8523  1.1541 -2.9558
   66MOL0     H 8872   6.432   8.098  11.222 -2.4744  1.0722  0.4526
   66MOL0     H 8873   6.679   8.106  11.193 -0.2283 -1.0801  1.1747
   66MOL0     H 8874   7.015   8.301  11.199  0.3412  5.4258  1.3219
   66MOL0     H 8875   6.880   8.210  11.119  3.7586  0.2872 -0.1980
   66MOL0     H 8876   6.771   8.405  11.059 -0.1267 -1.3164  0.5247
   66MOL0     H 8877   6.873   8.512  11.154 -4.0786 -0.5399  0.5202
   66MOL0     H 8878   6.921   8.503  10.889 -4.4178 -2.1760 -2.2893
   66MOL0     H 8879   7.063   8.451  10.973  0.3426 -1.9888 -0.7313
   66MOL0     H 8880   7.020   8.214  10.942 -1.2970  1.1155  1.1733
   66MOL0     H 8881   7.039   8.300  10.788 -2.1630  1.8007 -0.9783
   66MOL0     H 8882   6.786   8.282  10.757 -2.3092 -1.1028  1.0502
   66MOL0     H 8883   6.775   8.219  10.919 -1.7372 -0.0565 -1.0019
   66MOL0     H 8884   6.864   8.122  10.659 -1.4014  4.6883  1.2111
   66MOL0     H 8885   6.893   8.011  10.806  1.3272  1.1655  2.2364
   66MOL0     H 8886   6.697   7.961  10.679  3.6530  1.3323 -1.0055
   66MOL0     H 8887   6.629   8.113  10.718 -1.7072 -1.5945 -1.9010
   66MOL0     H 8888   6.638   8.071  10.954  2.0705  0.5818  0.0009
   66MOL0     H 8889   6.569   7.922  10.884  0.4025  0.3897 -0.5594
   66MOL0     H 8890   6.694   8.445  11.443 -0.3637 -0.8894  0.7429
   66MOL0     H 8891   6.450   8.439  11.478 -2.9954 -0.8282 -1.8599
   66MOL0     H 8892   5.965   8.044  11.312  3.2530 -0.5574  2.2903
   66MOL0     H 8893   5.739   8.137  11.308 -0.1322  1.7511 -0.9654
   66MOL0     H 8894   5.018   8.936  10.530 -0.1353 -0.3119 -0.3898
   66MOL0     H 8895   4.808   9.013  10.390  0.8633 -0.0590  2.0459
   66MOL0     H 8896   4.648   9.059  10.009  0.2794 -0.5886  1.4308
   66MOL0     H 8897   4.452   9.136   9.861 -2.3593  1.2384  2.0644
   66MOL0     H 8898   4.096   9.148   9.856 -0.4756 -0.5902 -0.3632
   66MOL0     H 8899   4.122   9.054  10.004  1.0754  1.2708  0.0922
   66MOL0     H 8900   3.974   8.874   9.916 -1.5877  0.1885 -1.7395
   66MOL0     H 8901   3.963   8.959   9.763  3.9775  0.4846 -0.9180
   66MOL0     H 8902   3.774   9.039   9.869  1.2474  0.3944 -1.3912
   66MOL0     H 8903   3.888   9.153   9.935  0.1273  0.2920 -0.5973
   66MOL0     H 8904   3.924   9.003  10.138  2.3088  0.3594 -2.6779
   66MOL0     H 8905   3.767   9.082  10.116 -2.5577 -0.0633 -1.6048
   66MOL0     H 8906   3.654   8.683  10.140  2.3802 -1.0560  0.2403
   66MOL0     H 8907   4.246   8.784   9.989 -1.2716  2.1168  0.0120
   66MOL0     H 8908   4.295   8.673  10.182  0.4678 -1.3734  0.1036
   66MOL0     H 8909   4.466   8.612  10.158  1.1551  0.0422  0.2921
   66MOL0     H 8910   4.406   8.742  10.275 -2.5375  0.6351 -0.8704
   67MOL0     O 8911   5.200   6.992   8.357  0.5910 -0.1983  0.5670
   67MOL0     C 8912   5.081   7.013   8.352  0.0159  0.8069 -0.1896
   67MOL0     O 8913   4.990   6.950   8.429 -0.7151 -0.6414  0.5167
   67MOL0     C 8914   5.027   6.872   8.533  0.0992 -0.0304  0.1109
   67MOL0     C 8915   4.907   6.848   8.611 -0.2015  0.9839  0.4701
   67MOL0     C 8916   4.908   6.778   8.725  0.8832 -1.0976  0.8193
   67MOL0     C 8917   5.025   6.720   8.771 -0.0453  0.8347 -0.5152
   67MOL0     O 8918   5.007   6.641   8.887  0.0010  0.3902 -0.3966
   67MOL0     C 8919   5.126   6.586   8.953  0.1380 -0.0304  0.0131
   67MOL0     C 8920   5.130   6.431   8.935 -0.9133 -0.7385  0.3820
   67MOL0     C 8921   5.255   6.363   9.000 -0.5407 -0.2387 -0.1354
   67MOL0     C 8922   5.281   6.395   9.158 -1.0005 -0.0813  0.0644
   67MOL0     C 8923   5.383   6.288   9.215  0.1255 -0.1667  0.2803
   67MOL0     C 8924   5.400   6.293   9.374  0.1615 -0.1550  0.1416
   67MOL0     C 8925   5.339   6.410   9.450 -0.0511 -0.1041  0.7453
   67MOL0     C 8926   5.209   6.370   9.531 -0.5724 -0.8536 -0.4047
   67MOL0     N 8927   5.143   6.488   9.597  0.3163 -0.2907  0.3589
   67MOL0     C 8928   5.079   6.598   9.541  0.6632  0.8590  0.4632
   67MOL0     C 8929   5.026   6.664   9.648 -0.3916  0.0016  0.5858
   67MOL0     C 8930   4.957   6.795   9.642  0.1119  0.1241  0.4919
   67MOL0     C 8931   4.810   6.777   9.612  0.2433  0.3926 -0.4862
   67MOL0     C 8932   4.720   6.770   9.744  0.0513 -0.2972  0.9333
   67MOL0     C 8933   4.577   6.830   9.709  0.6761  0.0088 -0.9044
   67MOL0     O 8934   4.484   6.826   9.818  0.4382 -0.3685  0.3675
   67MOL0     C 8935   4.402   6.934   9.811 -0.0616  0.8920 -0.5033
   67MOL0     C 8936   4.309   6.959   9.709  0.5461 -0.4839  0.2182
   67MOL0     C 8937   4.205   7.059   9.723 -0.4658 -0.1666 -0.0114
   67MOL0     C 8938   4.207   7.138   9.839  0.0789  0.1264 -0.4576
   67MOL0     C 8939   4.108   7.248   9.856 -0.6346 -0.1982 -0.3019
   67MOL0     O 8940   4.105   7.313   9.977  0.4030 -0.1581  0.6895
   67MOL0     C 8941   4.018   7.410  10.014 -0.1516 -1.2345 -0.7528
   67MOL0     C 8942   3.901   7.448   9.951  0.3600  0.0360  0.4138
   67MOL0     C 8943   3.822   7.547   9.994 -0.3834 -0.0474 -0.0738
   67MOL0     C 8944   3.851   7.622  10.105 -0.7003 -0.3977  0.5585
   67MOL0     O 8945   3.768   7.732  10.143  0.2753  0.0507  0.6429
   67MOL0     C 8946   3.787   7.798  10.269  0.2202 -0.8875  0.1732
   67MOL0     C 8947   3.727   7.947  10.272  0.0084  0.6055  0.4953
   67MOL0     C 8948   3.597   7.948  10.197 -0.1872 -0.3313 -0.3781
   67MOL0     C 8949   3.520   8.085  10.163  0.5458  0.1885  0.2153
   67MOL0     C 8950   3.546   8.150  10.033  0.5784 -0.4131 -0.0811
   67MOL0     C 8951   3.484   8.291  10.011 -0.4825  0.3429  0.5151
   67MOL0     C 8952   3.571   8.399  10.059 -0.6513  0.5496 -0.2182
   67MOL0     C 8953   3.701   8.420   9.975 -0.4503 -0.7964  0.1554
   67MOL0    Cl 8954   3.664   8.456   9.807 -0.3020 -0.2087  0.1320
   67MOL0     C 8955   3.968   7.593  10.172 -0.1628  0.4101  0.1867
   67MOL0     C 8956   4.043   7.479  10.129 -0.6427  0.3091 -0.1146
   67MOL0     O 8957   4.051   7.281   9.750 -0.1467 -0.5372 -0.0541
   67MOL0     C 8958   4.312   7.124   9.933  0.8083 -0.1448  0.5446
   67MOL0     C 8959   4.398   7.015   9.921 -0.5421  1.2466  0.6209
   67MOL0     N 8960   5.045   6.601   9.768 -1.9445  0.5358  0.3521
   67MOL0     N 8961   5.121   6.498   9.735 -0.5314  0.2388  0.2489
   67MOL0     C 8962   5.143   6.749   8.705  0.0882 -0.0136  0.5980
   67MOL0     C 8963   5.144   6.832   8.592 -0.2017  0.0605 -0.3988
   67MOL0     C 8964   5.034   7.119   8.259 -0.4245  0.1671  0.3648
   67MOL0     C 8965   4.905   7.149   8.279  0.8581  0.1335 -0.8643
   67MOL0     C 8966   4.838   7.250   8.221 -0.0677 -0.0585  0.5348
   67MOL0     C 8967   4.919   7.324   8.135 -0.6821 -0.4493 -0.1208
   67MOL0     O 8968   4.859   7.429   8.071  0.3274 -0.8089 -0.0100
   67MOL0     C 8969   4.775   7.398   7.975  0.2924  0.8809  0.7398
   67MOL0     C 8970   4.790   7.489   7.857  0.0955 -0.0109 -0.1937
   67MOL0     C 8971   4.935   7.496   7.806 -0.1724 -0.3106 -0.8685
   67MOL0     C 8972   4.944   7.572   7.676 -0.0971  0.3072 -0.9528
   67MOL0     C 8973   4.909   7.715   7.680 -0.2701 -0.8678  0.4615
   67MOL0     C 8974   4.858   7.824   7.677  0.4524 -0.3034 -0.1405
   67MOL0     C 8975   5.060   7.307   8.119 -0.3841 -0.7587 -0.4161
   67MOL0     C 8976   5.122   7.204   8.181 -0.2357  0.2979  0.2444
   67MOL0     C 8977   5.270   7.201   8.167 -0.7217  0.3050  0.7025
   67MOL0     H 8978   4.810   6.877   8.572  0.1544 -0.8781 -1.9873
   67MOL0     H 8979   4.819   6.750   8.780  1.0575 -2.0910  0.6094
   67MOL0     H 8980   5.217   6.636   8.920 -1.6919  3.5797 -0.0569
   67MOL0     H 8981   5.133   6.597   9.062  0.2619  1.8843 -0.1609
   67MOL0     H 8982   5.136   6.421   8.826 -1.8030  1.1547  0.1287
   67MOL0     H 8983   5.037   6.383   8.966 -1.7764  1.0100  0.5566
   67MOL0     H 8984   5.342   6.400   8.945 -1.3253  1.3639 -0.3494
   67MOL0     H 8985   5.251   6.255   8.984  1.2992 -0.3881  0.2199
   67MOL0     H 8986   5.325   6.493   9.179 -0.3888 -0.9294  3.4001
   67MOL0     H 8987   5.183   6.386   9.206 -0.3731 -0.5835  1.2962
   67MOL0     H 8988   5.353   6.190   9.178  3.2092  0.0018 -3.3130
   67MOL0     H 8989   5.478   6.320   9.170 -0.8854  0.2285 -1.7092
   67MOL0     H 8990   5.364   6.197   9.414 -0.7862  0.4402  0.7411
   67MOL0     H 8991   5.508   6.292   9.392  0.1425 -3.0247  0.6131
   67MOL0     H 8992   5.308   6.482   9.373 -3.5796 -2.3964 -0.2250
   67MOL0     H 8993   5.416   6.455   9.513 -1.0582 -1.9131  3.4779
   67MOL0     H 8994   5.140   6.320   9.462 -1.6037  1.3653 -1.0416
   67MOL0     H 8995   5.239   6.303   9.612 -0.3790 -0.8892 -0.5053
   67MOL0     H 8996   5.057   6.633   9.440  1.4573  0.6510  0.2083
   67MOL0     H 8997   4.961   6.849   9.737 -1.8228  2.2348 -0.5151
   67MOL0     H 8998   4.995   6.855   9.558 -4.1566  0.5207 -1.4020
   67MOL0     H 8999   4.787   6.877   9.575 -0.5788  0.4191  0.0719
   67MOL0     H 9000   4.772   6.704   9.540  0.8136 -2.3115  1.7635
   67MOL0     H 9001   4.767   6.836   9.817 -0.6121  1.3289 -0.0757
   67MOL0     H 9002   4.713   6.675   9.798  1.0286  0.5583  2.6557
   67MOL0     H 9003   4.528   6.776   9.627 -1.1304  1.1324 -0.6232
   67MOL0     H 9004   4.582   6.929   9.663 -1.7169 -0.1807 -1.7369
   67MOL0     H 9005   4.311   6.893   9.623 -4.3201 -0.0146 -0.5742
   67MOL0     H 9006   4.130   7.077   9.647  0.3829 -1.5168 -1.2181
   67MOL0     H 9007   3.873   7.388   9.864  0.7135 -1.1149  1.0731
   67MOL0     H 9008   3.726   7.562   9.944  0.3788  0.6161 -1.3949
   67MOL0     H 9009   3.752   7.744  10.358 -2.1610 -0.5023 -0.4750
   67MOL0     H 9010   3.894   7.819  10.275  0.4701 -1.7563 -1.0640
   67MOL0     H 9011   3.710   7.984  10.373 -0.6780  2.9012 -0.3873
   67MOL0     H 9012   3.790   8.024  10.228 -3.1970  2.0758 -1.9950
   67MOL0     H 9013   3.620   7.914  10.096 -2.5201 -2.9528 -0.1579
   67MOL0     H 9014   3.528   7.882  10.251 -1.8719  1.8247  0.2284
   67MOL0     H 9015   3.533   8.153  10.248  2.1490  2.8461 -1.9887
   67MOL0     H 9016   3.413   8.062  10.164  0.3105  0.2875 -4.2569
   67MOL0     H 9017   3.501   8.086   9.957 -3.1988  0.3089  1.3387
   67MOL0     H 9018   3.655   8.157  10.021  0.4396  3.0272 -0.4181
   67MOL0     H 9019   3.469   8.315   9.906 -0.8926  0.9931  0.7109
   67MOL0     H 9020   3.383   8.294  10.055 -0.7534  1.0041 -0.1373
   67MOL0     H 9021   3.594   8.384  10.165 -1.2429 -2.8908 -0.4673
   67MOL0     H 9022   3.525   8.498  10.059  0.9892  1.3433 -0.6243
   67MOL0     H 9023   3.753   8.507  10.017 -0.3942 -0.5843 -0.3520
   67MOL0     H 9024   3.762   8.330   9.975 -1.6866 -1.7154 -2.1265
   67MOL0     H 9025   3.984   7.630  10.273 -3.4937 -2.2402  1.9298
   67MOL0     H 9026   4.140   7.457  10.172 -0.4553 -1.1619 -1.2030
   67MOL0     H 9027   4.322   7.189  10.020  0.0795 -0.2461  0.7065
   67MOL0     H 9028   4.467   6.996  10.002  0.0371 -1.6785 -0.4145
   67MOL0     H 9029   5.228   6.688   8.734  1.3168  1.2692 -0.2039
   67MOL0     H 9030   5.235   6.854   8.538  0.4468 -1.8120 -0.1298
   67MOL0     H 9031   4.839   7.093   8.344 -0.0396  2.6383  0.5265
   67MOL0     H 9032   4.735   7.285   8.220  0.7309  2.5894 -2.4259
   67MOL0     H 9033   4.674   7.412   8.015  1.3313  0.3743  3.7332
   67MOL0     H 9034   4.786   7.296   7.938 -0.1864 -0.5140  4.1403
   67MOL0     H 9035   4.752   7.586   7.890 -0.6774 -1.3919  3.4622
   67MOL0     H 9036   4.725   7.455   7.776 -0.4030 -2.2172  1.0471
   67MOL0     H 9037   4.975   7.394   7.810 -2.1173 -1.0894  1.6992
   67MOL0     H 9038   5.005   7.548   7.871 -0.4124 -1.6363  0.4989
   67MOL0     H 9039   5.047   7.561   7.641 -0.2447 -1.2861 -0.9670
   67MOL0     H 9040   4.878   7.526   7.603 -1.8787 -2.9764  2.3857
   67MOL0     H 9041   4.812   7.921   7.669  2.5391  0.7322 -0.3128
   67MOL0     H 9042   5.112   7.373   8.051 -0.5596  0.5233  0.6353
   67MOL0     H 9043   5.309   7.281   8.102 -2.4519  0.6829  0.0812
   67MOL0     H 9044   5.317   7.194   8.265  0.6210 -0.4518  0.0345
   67MOL0     H 9045   5.299   7.108   8.118 -2.5658  0.6725 -1.2587
   68MOL0     O 9046   1.382   8.364   0.043 -0.3803 -0.0109  0.3405
   68MOL0     C 9047   1.449   8.394   0.144  1.0043 -0.7086 -0.2973
   68MOL0     O 9048   1.424   8.357   0.271 -0.3332 -0.5332 -0.7629
   68MOL0     C 9049   1.313   8.276   0.294 -0.7099 -0.6539 -0.5441
   68MOL0     C 9050   1.326   8.142   0.322 -0.0885 -0.2302  0.2967
   68MOL0     C 9051   1.214   8.061   0.357  0.0855  0.1066 -0.6297
   68MOL0     C 9052   1.087   8.118   0.351 -0.1673  0.1618 -0.3967
   68MOL0     O 9053   0.988   8.025   0.367  0.3313 -0.1841  0.2841
   68MOL0     C 9054   0.853   8.057   0.352 -0.8286 -0.0047  0.0815
   68MOL0     C 9055   0.778   7.915   0.362  0.7623 -0.6312 -0.1909
   68MOL0     C 9056   0.630   7.915   0.394 -0.1168  0.1112 -0.3791
   68MOL0     C 9057   0.547   7.961   0.274 -0.8964 -0.0726  0.1217
   68MOL0     C 9058   0.398   7.979   0.301  0.5192  0.0254 -0.6798
   68MOL0     C 9059   0.321   7.931   0.176 -0.2300  0.4949 -0.5636
   68MOL0     C 9060   0.164   7.948   0.200  1.0131  0.4981  0.0736
   68MOL0     C 9061   0.110   8.093   0.182  0.7070  0.0564 -0.6600
   68MOL0     N 9062  -0.030   8.101   0.241  0.3270 -0.1150  0.1379
   68MOL0     C 9063  -0.142   8.138   0.159  0.3207 -0.8201 -0.4833
   68MOL0     C 9064  -0.242   8.119   0.247 -0.2017 -0.1927 -0.2446
   68MOL0     C 9065  -0.391   8.139   0.234 -0.1744 -0.8886  0.2760
   68MOL0     C 9066  -0.448   7.997   0.252 -0.2405  0.2690 -0.4348
   68MOL0     C 9067  -0.600   7.999   0.205 -1.1810 -0.2660 -0.0117
   68MOL0     C 9068  -0.677   7.867   0.191  0.4924  0.0206  1.0759
   68MOL0     O 9069  -0.694   7.804   0.322  0.4898  0.5671 -0.9698
   68MOL0     C 9070  -0.780   7.696   0.326 -0.3935 -0.5999 -0.9301
   68MOL0     C 9071  -0.828   7.653   0.445 -0.1886  0.9580 -0.3298
   68MOL0     C 9072  -0.915   7.544   0.458 -0.3764  0.1178  0.4052
   68MOL0     C 9073  -0.935   7.458   0.350 -0.6579  0.2935  0.4017
   68MOL0     C 9074  -1.017   7.334   0.377  0.2942  1.1244  0.6119
   68MOL0     O 9075  -1.106   7.324   0.484  0.8009 -0.1628  0.3209
   68MOL0     C 9076  -1.144   7.200   0.537  0.1574 -0.1330  0.5406
   68MOL0     C 9077  -1.281   7.181   0.578 -0.2838  0.4301  0.3006
   68MOL0     C 9078  -1.311   7.045   0.629  0.3085 -1.3051 -0.2886
   68MOL0     C 9079  -1.217   6.943   0.642 -0.2735  0.1463  0.8138
   68MOL0     O 9080  -1.255   6.823   0.685  0.1463 -0.1857 -0.2246
   68MOL0     C 9081  -1.170   6.705   0.669  1.1657 -0.9201  0.6220
   68MOL0     C 9082  -1.258   6.590   0.708  0.2598 -0.6555 -0.2063
   68MOL0     C 9083  -1.184   6.496   0.793  0.0661 -0.5601 -0.3775
   68MOL0     C 9084  -1.268   6.418   0.888  0.1756 -1.6491  0.1426
   68MOL0     C 9085  -1.191   6.381   1.011 -0.4345 -0.1765 -0.5564
   68MOL0     C 9086  -1.222   6.467   1.138 -0.0730  0.2330  0.6713
   68MOL0     C 9087  -1.144   6.431   1.263  0.0440  0.6160  0.8373
   68MOL0     C 9088  -1.154   6.542   1.375 -0.1558  0.4860  1.6888
   68MOL0    Cl 9089  -1.019   6.643   1.324 -0.0626  0.2000  0.4723
   68MOL0     C 9090  -1.082   6.979   0.618  0.4349  0.1096 -0.7164
   68MOL0     C 9091  -1.047   7.100   0.566  0.1379 -0.0313  0.1998
   68MOL0     O 9092  -1.000   7.251   0.284 -0.0924 -0.5769 -0.8927
   68MOL0     C 9093  -0.892   7.501   0.228 -0.7307 -0.0194  0.1947
   68MOL0     C 9094  -0.804   7.609   0.214 -0.1143 -0.0758  0.1302
   68MOL0     N 9095  -0.188   8.070   0.371  0.6010  0.1289 -0.1119
   68MOL0     N 9096  -0.062   8.069   0.370  0.2601 -0.1887  0.3904
   68MOL0     C 9097   1.067   8.255   0.315  0.5011  0.3781 -1.1438
   68MOL0     C 9098   1.184   8.335   0.288  0.5179 -0.2557  0.9689
   68MOL0     C 9099   1.592   8.442   0.109  0.3044 -0.2920  0.2797
   68MOL0     C 9100   1.700   8.383   0.166 -0.9389 -0.6739 -0.5101
   68MOL0     C 9101   1.830   8.417   0.147 -0.1809  1.0228  0.5656
   68MOL0     C 9102   1.861   8.518   0.056  0.1928  0.1015  0.6446
   68MOL0     O 9103   1.993   8.542   0.014  0.0005 -0.6747  0.0778
   68MOL0     C 9104   2.096   8.440   0.004  0.7299  0.6262 -0.0891
   68MOL0     C 9105   2.193   8.467   0.117 -0.3467  0.4043 -0.2994
   68MOL0     C 9106   2.287   8.342   0.154 -0.2007 -0.0054 -0.6975
   68MOL0     C 9107   2.228   8.202   0.138 -0.4712 -0.6976  0.3262
   68MOL0     C 9108   2.308   8.100   0.210  0.0863 -1.3901 -0.6031
   68MOL0     C 9109   2.337   8.015   0.287 -0.4636 -0.1950  0.2476
   68MOL0     C 9110   1.755   8.586  -0.008  0.4044  0.2816  0.5609
   68MOL0     C 9111   1.619   8.548   0.023 -0.1939  0.2363 -0.2560
   68MOL0     C 9112   1.517   8.633  -0.043  0.4508 -0.7075 -0.1430
   68MOL0     H 9113   1.426   8.102   0.317  0.2957  0.5164  1.5538
   68MOL0     H 9114   1.223   7.955   0.379  3.0549  0.2303 -0.8981
   68MOL0     H 9115   0.817   8.126   0.429 -0.5402 -0.5212  0.6880
   68MOL0     H 9116   0.834   8.096   0.251  3.0631  0.9822 -0.4247
   68MOL0     H 9117   0.818   7.887   0.460 -0.3899  2.5738  1.3478
   68MOL0     H 9118   0.804   7.838   0.289 -0.5704  1.0464 -2.5635
   68MOL0     H 9119   0.597   7.984   0.473 -2.4175 -1.4977  0.1796
   68MOL0     H 9120   0.599   7.817   0.432  3.9080 -0.8634  0.8551
   68MOL0     H 9121   0.587   8.057   0.242  3.2032 -2.5496 -3.0321
   68MOL0     H 9122   0.555   7.892   0.190  0.9679 -1.1152  1.0987
   68MOL0     H 9123   0.373   7.922   0.391 -1.4919  2.6772  0.5643
   68MOL0     H 9124   0.370   8.083   0.315  0.2713 -0.3478  2.2818
   68MOL0     H 9125   0.345   7.992   0.088 -0.1997 -1.9133 -2.3226
   68MOL0     H 9126   0.353   7.829   0.154  1.9373  0.7937  0.9214
   68MOL0     H 9127   0.144   7.910   0.301  0.1252 -0.8967 -0.6015
   68MOL0     H 9128   0.114   7.886   0.126  0.4878  1.0031 -0.0042
   68MOL0     H 9129   0.171   8.164   0.238  0.2887 -0.6358  0.7253
   68MOL0     H 9130   0.104   8.127   0.078  1.6633  0.2270 -0.6681
   68MOL0     H 9131  -0.159   8.170   0.057  0.3957 -1.9503 -0.8688
   68MOL0     H 9132  -0.433   8.206   0.310 -1.3047  0.9334 -1.8548
   68MOL0     H 9133  -0.409   8.187   0.138  2.8299 -1.9910 -0.9757
   68MOL0     H 9134  -0.396   7.926   0.188 -2.9883 -0.2062 -2.3026
   68MOL0     H 9135  -0.448   7.961   0.355 -1.6679  1.0369 -0.1475
   68MOL0     H 9136  -0.592   8.059   0.114  1.8072  2.6947  1.9821
   68MOL0     H 9137  -0.651   8.058   0.282 -0.3318 -1.4744  1.5494
   68MOL0     H 9138  -0.621   7.806   0.119  0.4821  3.8347 -2.4931
   68MOL0     H 9139  -0.775   7.892   0.150  1.0942  1.8975  0.6765
   68MOL0     H 9140  -0.801   7.703   0.538  0.8731 -1.3986  0.7259
   68MOL0     H 9141  -0.959   7.522   0.554  2.2247  0.6577  1.7972
   68MOL0     H 9142  -1.354   7.261   0.576 -0.0949  0.5964 -0.0547
   68MOL0     H 9143  -1.414   7.026   0.659 -0.5529 -0.8106 -2.6830
   68MOL0     H 9144  -1.128   6.689   0.569 -0.6889  3.1224 -1.0426
   68MOL0     H 9145  -1.085   6.710   0.738  0.7295  0.1612  1.0952
   68MOL0     H 9146  -1.350   6.629   0.755  0.7219  1.9449 -1.2746
   68MOL0     H 9147  -1.286   6.538   0.616  0.6384 -4.5486  1.7081
   68MOL0     H 9148  -1.137   6.426   0.722  2.4980 -1.2216  1.7303
   68MOL0     H 9149  -1.108   6.553   0.847  0.9694  0.1825 -2.3098
   68MOL0     H 9150  -1.311   6.334   0.832 -2.2856 -0.7292  0.5083
   68MOL0     H 9151  -1.350   6.478   0.928  0.4222 -2.4555  1.9729
   68MOL0     H 9152  -1.084   6.384   0.990 -0.1685  0.9195  0.8079
   68MOL0     H 9153  -1.222   6.278   1.034  0.9636 -0.6038 -0.5071
   68MOL0     H 9154  -1.205   6.573   1.117 -2.3061  0.1096 -2.3658
   68MOL0     H 9155  -1.328   6.452   1.158 -0.7936  2.0499 -1.3794
   68MOL0     H 9156  -1.041   6.404   1.238 -1.5297 -4.5917 -1.4805
   68MOL0     H 9157  -1.189   6.337   1.299  1.1354  0.5812  2.2112
   68MOL0     H 9158  -1.250   6.594   1.373  0.3507  1.4645  2.0680
   68MOL0     H 9159  -1.140   6.501   1.476  1.5817 -0.6162  1.0568
   68MOL0     H 9160  -1.002   6.912   0.646  0.5857  0.3047 -0.6791
   68MOL0     H 9161  -0.942   7.123   0.556  0.4166 -1.6591 -0.9921
   68MOL0     H 9162  -0.924   7.431   0.151 -0.4037 -0.0403  0.0742
   68MOL0     H 9163  -0.771   7.630   0.113 -2.3351 -0.2303 -0.6918
   68MOL0     H 9164   0.970   8.302   0.310  0.6213  0.6413 -1.0494
   68MOL0     H 9165   1.169   8.442   0.274  0.3507 -0.0677  2.4408
   68MOL0     H 9166   1.676   8.302   0.235  0.0782 -0.9844 -0.4954
   68MOL0     H 9167   1.906   8.377   0.214 -0.7281  0.7418  1.0240
   68MOL0     H 9168   2.151   8.438  -0.090  0.7712 -0.4762 -0.0465
   68MOL0     H 9169   2.058   8.341   0.028  3.3751 -1.0822 -2.3760
   68MOL0     H 9170   2.141   8.482   0.212  0.8953 -3.0138  1.0759
   68MOL0     H 9171   2.252   8.557   0.099 -1.3826  1.7130  2.3500
   68MOL0     H 9172   2.327   8.351   0.255 -0.6648 -0.6800 -0.4412
   68MOL0     H 9173   2.377   8.349   0.091 -0.8657 -4.6422 -2.6219
   68MOL0     H 9174   2.128   8.197   0.183  0.9182 -1.8334  3.5881
   68MOL0     H 9175   2.225   8.183   0.030 -3.0512 -2.0241  0.5494
   68MOL0     H 9176   2.377   7.925   0.330  1.9212  0.1766 -0.9889
   68MOL0     H 9177   1.778   8.659  -0.085  2.2353 -1.6131 -0.7965
   68MOL0     H 9178   1.533   8.738  -0.014  1.2663 -1.1528  1.1100
   68MOL0     H 9179   1.521   8.616  -0.151  2.6333 -1.1715 -0.0421
   68MOL0     H 9180   1.415   8.607  -0.014  0.0555  2.2072  1.4910
   69MOL0     O 9181   6.347   5.178   2.918 -0.2958  0.1821  0.0170
   69MOL0     C 9182   6.463   5.209   2.957 -0.3056 -0.3334  0.5547
   69MOL0     O 9183   6.544   5.112   3.027 -0.0540  0.5825  0.6026
   69MOL0     C 9184   6.528   4.980   3.025  0.8103 -0.6219  0.8748
   69MOL0     C 9185   6.406   4.919   3.064 -0.0596  0.2501  0.3524
   69MOL0     C 9186   6.394   4.780   3.080 -0.2419 -0.4824 -0.1733
   69MOL0     C 9187   6.501   4.700   3.025  0.0569 -0.0565  0.8961
   69MOL0     O 9188   6.490   4.560   3.040  1.0129 -0.6748 -0.5010
   69MOL0     C 9189   6.570   4.464   2.959  0.4258 -0.8759  0.1519
   69MOL0     C 9190   6.519   4.320   2.976  0.4715 -0.7105 -0.6382
   69MOL0     C 9191   6.465   4.274   3.110  0.6831 -0.3897  0.8476
   69MOL0     C 9192   6.558   4.312   3.230 -0.3811 -0.6281  0.2103
   69MOL0     C 9193   6.500   4.273   3.364  0.0729  0.0385 -1.1965
   69MOL0     C 9194   6.475   4.128   3.369 -0.6167  1.2006 -0.3771
   69MOL0     C 9195   6.435   4.080   3.511  1.2320  0.2035  0.0617
   69MOL0     C 9196   6.370   3.937   3.501 -0.3348 -0.4949  0.0168
   69MOL0     N 9197   6.328   3.876   3.631 -0.5477  0.0051  0.3411
   69MOL0     C 9198   6.224   3.790   3.657 -1.0685  0.0990  0.0322
   69MOL0     C 9199   6.214   3.777   3.794 -1.5165  0.2139  0.0230
   69MOL0     C 9200   6.108   3.704   3.867 -0.7932  0.1328  0.0702
   69MOL0     C 9201   6.037   3.579   3.794  0.4229  0.6199  0.0038
   69MOL0     C 9202   5.914   3.526   3.876 -0.2073  0.7768 -0.2571
   69MOL0     C 9203   5.838   3.416   3.799  0.1412 -0.0364 -0.1468
   69MOL0     O 9204   5.916   3.297   3.775  0.1138 -0.4716  0.1863
   69MOL0     C 9205   5.853   3.182   3.750 -0.3993  0.1935 -0.5168
   69MOL0     C 9206   5.730   3.164   3.695 -0.0047  0.2200  0.7508
   69MOL0     C 9207   5.675   3.028   3.695 -0.7313 -0.5210  0.2588
   69MOL0     C 9208   5.749   2.918   3.740  0.0744 -0.8851  1.6149
   69MOL0     C 9209   5.685   2.790   3.730  0.0992  0.2409  0.8791
   69MOL0     O 9210   5.547   2.780   3.740  0.2872 -0.5300  0.1511
   69MOL0     C 9211   5.484   2.659   3.753 -0.6928 -0.3967 -0.1022
   69MOL0     C 9212   5.486   2.561   3.651 -0.6455  1.0316  0.9742
   69MOL0     C 9213   5.396   2.463   3.672  1.6117  0.2580 -0.7901
   69MOL0     C 9214   5.302   2.456   3.780 -0.1620  0.0539  1.2584
   69MOL0     O 9215   5.202   2.359   3.799 -0.3608  0.3146  0.4917
   69MOL0     C 9216   5.151   2.291   3.690  0.6014  0.0726  0.0399
   69MOL0     C 9217   5.018   2.235   3.722 -0.1732  0.0694 -0.2937
   69MOL0     C 9218   5.019   2.129   3.834  0.1383  0.2040  1.7981
   69MOL0     C 9219   4.875   2.123   3.897 -0.0942  0.3022  0.4121
   69MOL0     C 9220   4.858   2.206   4.026 -0.8910  0.0172  0.1857
   69MOL0     C 9221   4.953   2.163   4.144  1.0982  0.2168  0.8254
   69MOL0     C 9222   4.905   2.206   4.284 -0.0211 -0.4974 -0.3501
   69MOL0     C 9223   4.876   2.360   4.295 -0.5396 -0.0510  0.2508
   69MOL0    Cl 9224   5.027   2.444   4.245 -0.0874  0.0505  0.2712
   69MOL0     C 9225   5.318   2.542   3.883 -0.0242 -0.9332  0.6784
   69MOL0     C 9226   5.404   2.656   3.867  0.6436  0.3082  1.1045
   69MOL0     O 9227   5.756   2.697   3.722 -0.3549  0.1965  0.3976
   69MOL0     C 9228   5.872   2.945   3.798 -0.9683 -0.2677 -0.0176
   69MOL0     C 9229   5.918   3.075   3.801  0.8013 -0.5136 -0.2179
   69MOL0     N 9230   6.327   3.847   3.848 -0.6088  0.2253  0.3038
   69MOL0     N 9231   6.393   3.900   3.743  0.6603 -0.4606  0.2398
   69MOL0     C 9232   6.619   4.757   2.984 -0.4106 -0.2154 -0.2626
   69MOL0     C 9233   6.634   4.902   2.986  0.8177 -0.5226 -0.4118
   69MOL0     C 9234   6.502   5.358   2.962 -0.6549 -0.8056  0.4233
   69MOL0     C 9235   6.442   5.451   2.876  0.5802 -0.5805 -0.4826
   69MOL0     C 9236   6.481   5.582   2.864  0.3014 -0.2380 -0.0785
   69MOL0     C 9237   6.585   5.635   2.941  0.0895  0.4347  0.4087
   69MOL0     O 9238   6.631   5.760   2.904  1.2892  0.7829  0.1173
   69MOL0     C 9239   6.731   5.828   2.988  0.1706 -0.0105 -0.1700
   69MOL0     C 9240   6.861   5.813   2.921 -0.3705 -0.2445 -0.5971
   69MOL0     C 9241   6.866   5.878   2.779  0.2731 -0.0919 -0.0980
   69MOL0     C 9242   7.015   5.887   2.735  0.4321 -0.8717  0.0934
   69MOL0     C 9243   7.080   6.015   2.774  0.2832  0.5032 -0.0597
   69MOL0     C 9244   7.133   6.118   2.800 -0.9090 -0.8909 -0.1237
   69MOL0     C 9245   6.639   5.538   3.031 -0.0114 -0.4519  0.4698
   69MOL0     C 9246   6.597   5.409   3.048  0.0066 -0.3851 -0.3278
   69MOL0     C 9247   6.666   5.324   3.153  0.4971 -0.5678  0.5574
   69MOL0     H 9248   6.318   4.978   3.087 -1.2218  0.0281 -3.0478
   69MOL0     H 9249   6.300   4.734   3.108 -1.4288  1.0816 -1.4259
   69MOL0     H 9250   6.587   4.493   2.855  2.1069 -0.3952  0.5211
   69MOL0     H 9251   6.666   4.458   3.012 -0.2813 -3.6701  1.2634
   69MOL0     H 9252   6.596   4.253   2.937  0.7620 -1.1616  0.6511
   69MOL0     H 9253   6.446   4.319   2.895 -2.1479  1.0312  1.4809
   69MOL0     H 9254   6.453   4.166   3.100 -1.7923 -0.0804 -0.3277
   69MOL0     H 9255   6.368   4.324   3.115 -0.3915 -1.9431 -2.0962
   69MOL0     H 9256   6.656   4.271   3.204 -2.0920 -1.7545 -6.3261
   69MOL0     H 9257   6.566   4.421   3.234  1.5529 -0.6231 -1.8169
   69MOL0     H 9258   6.566   4.302   3.447 -0.1021  1.6097 -1.5725
   69MOL0     H 9259   6.407   4.320   3.396 -0.5314 -1.6928 -0.2663
   69MOL0     H 9260   6.387   4.111   3.307 -0.3314 -1.0307 -0.2563
   69MOL0     H 9261   6.562   4.071   3.335 -1.0343 -0.2861  0.9005
   69MOL0     H 9262   6.361   4.158   3.532  0.1599 -0.5597 -0.7969
   69MOL0     H 9263   6.516   4.071   3.585  1.5470  1.1396 -0.1450
   69MOL0     H 9264   6.292   3.923   3.425 -0.3045  3.0393 -0.8481
   69MOL0     H 9265   6.457   3.873   3.482 -1.1120 -1.0788 -1.8778
   69MOL0     H 9266   6.154   3.754   3.581 -1.8063  4.1736 -1.4869
   69MOL0     H 9267   6.150   3.695   3.968  1.7765  1.8167 -0.7671
   69MOL0     H 9268   6.029   3.776   3.887 -0.6573  0.5537 -0.8632
   69MOL0     H 9269   5.987   3.615   3.703 -1.5067 -0.9261  0.3886
   69MOL0     H 9270   6.105   3.494   3.780 -0.0826 -0.2377  2.2598
   69MOL0     H 9271   5.858   3.615   3.905 -0.7690  0.4305 -0.2522
   69MOL0     H 9272   5.937   3.477   3.971 -0.6753  0.9499 -0.0502
   69MOL0     H 9273   5.795   3.448   3.703 -1.2092  1.9023  1.0186
   69MOL0     H 9274   5.748   3.390   3.856 -0.7190 -2.6687 -2.5261
   69MOL0     H 9275   5.674   3.245   3.650  0.6511 -0.3456 -1.1436
   69MOL0     H 9276   5.577   3.008   3.652  0.5757 -1.3123 -2.5789
   69MOL0     H 9277   5.552   2.556   3.566 -1.2036 -1.6381  0.6127
   69MOL0     H 9278   5.389   2.381   3.600 -0.4683 -2.6541  2.4237
   69MOL0     H 9279   5.141   2.360   3.605  1.6057 -0.5988 -0.6435
   69MOL0     H 9280   5.217   2.207   3.667  1.0745  1.1904 -3.2883
   69MOL0     H 9281   4.949   2.313   3.755  0.5255  0.4217  0.3414
   69MOL0     H 9282   4.989   2.188   3.627 -0.2494 -1.4798  0.4778
   69MOL0     H 9283   5.045   2.032   3.791 -1.1070  0.2221  0.9608
   69MOL0     H 9284   5.102   2.149   3.903  2.1146  1.7882 -0.7898
   69MOL0     H 9285   4.852   2.016   3.901 -1.9180  0.6585  0.3282
   69MOL0     H 9286   4.803   2.164   3.825  0.6588 -0.3781 -0.7708
   69MOL0     H 9287   4.761   2.204   4.077  0.2955 -4.2242  2.8362
   69MOL0     H 9288   4.883   2.308   3.997 -0.5395 -0.3795 -0.9476
   69MOL0     H 9289   4.974   2.055   4.137  0.4132 -0.0499  2.3450
   69MOL0     H 9290   5.052   2.206   4.126 -0.2232  2.7713 -0.7377
   69MOL0     H 9291   4.975   2.182   4.364 -0.0182  1.2413  0.2006
   69MOL0     H 9292   4.813   2.149   4.302  2.0657 -3.7635  0.7003
   69MOL0     H 9293   4.791   2.397   4.236  0.4816 -0.6868 -1.6827
   69MOL0     H 9294   4.839   2.386   4.395  0.4017  2.5742 -0.0031
   69MOL0     H 9295   5.246   2.556   3.963  0.3691  2.1386  0.6158
   69MOL0     H 9296   5.404   2.730   3.946 -1.9633  0.5823  0.9479
   69MOL0     H 9297   5.937   2.862   3.824  2.8667  3.1003  2.5426
   69MOL0     H 9298   6.016   3.099   3.842  0.5838 -0.6776  0.4115
   69MOL0     H 9299   6.690   4.684   2.947  1.2583  2.5507 -3.0139
   69MOL0     H 9300   6.723   4.953   2.952  0.3451 -0.5830 -1.8410
   69MOL0     H 9301   6.366   5.424   2.803 -0.0610  2.4423 -1.0672
   69MOL0     H 9302   6.434   5.637   2.783  2.8266 -0.6016 -1.9154
   69MOL0     H 9303   6.753   5.791   3.088  0.0745  0.0395 -0.1297
   69MOL0     H 9304   6.699   5.933   2.998 -2.0745 -0.8006  2.0522
   69MOL0     H 9305   6.911   5.717   2.930  0.4979  0.3938  2.6406
   69MOL0     H 9306   6.922   5.884   2.979 -1.5804  0.3175  0.0240
   69MOL0     H 9307   6.823   5.978   2.784  1.0651  0.1754  2.6671
   69MOL0     H 9308   6.822   5.809   2.707 -0.2149  0.5447 -0.4192
   69MOL0     H 9309   7.072   5.795   2.751  0.8563 -0.9147 -1.4564
   69MOL0     H 9310   7.010   5.894   2.626  0.9775  0.8559  0.1557
   69MOL0     H 9311   7.170   6.217   2.817 -0.5868 -1.3749  2.3574
   69MOL0     H 9312   6.722   5.574   3.092  1.1695  1.5638 -2.1227
   69MOL0     H 9313   6.716   5.248   3.091  1.4540  0.8026 -0.4310
   69MOL0     H 9314   6.743   5.380   3.207  1.5817 -3.1683  1.8847
   69MOL0     H 9315   6.590   5.272   3.212 -1.1139  2.0821  0.9422
   70MOL0     O 9316   0.799   6.865   4.474  0.3818  0.6702  0.6305
   70MOL0     C 9317   0.718   6.888   4.564 -0.7957 -0.1739 -0.4772
   70MOL0     O 9318   0.729   6.833   4.695 -0.6528 -0.7871  0.0313
   70MOL0     C 9319   0.849   6.770   4.733 -0.0141 -0.3831 -0.0983
   70MOL0     C 9320   0.909   6.827   4.842 -0.4547 -0.1489  0.5892
   70MOL0     C 9321   1.018   6.762   4.900 -0.4571  0.2770  0.3126
   70MOL0     C 9322   1.062   6.642   4.846  0.0744  0.0813  0.4715
   70MOL0     O 9323   1.164   6.580   4.906  0.1223 -0.2986  0.1504
   70MOL0     C 9324   1.293   6.627   4.880  0.3778 -0.1800  0.4269
   70MOL0     C 9325   1.362   6.535   4.784  0.8374 -0.1450 -0.0072
   70MOL0     C 9326   1.507   6.592   4.754 -0.0685 -0.1151 -0.0405
   70MOL0     C 9327   1.505   6.736   4.679  0.3090 -0.1297  0.8579
   70MOL0     C 9328   1.618   6.757   4.580 -0.2229  0.0686  0.1734
   70MOL0     C 9329   1.610   6.879   4.487  1.3001 -0.4801  0.0255
   70MOL0     C 9330   1.661   7.015   4.556  0.1918 -0.3368  0.7805
   70MOL0     C 9331   1.641   7.123   4.444  0.2945  0.4734  0.0680
   70MOL0     N 9332   1.610   7.252   4.498  0.1097 -0.9937 -0.6870
   70MOL0     C 9333   1.515   7.338   4.459 -0.0934  0.4727  0.6595
   70MOL0     C 9334   1.535   7.458   4.527 -0.1264  0.3367 -0.2728
   70MOL0     C 9335   1.459   7.588   4.546  0.0621  0.1976  0.2682
   70MOL0     C 9336   1.309   7.570   4.530  0.8048 -0.7444  1.1985
   70MOL0     C 9337   1.224   7.700   4.560 -0.2265 -0.4562 -0.0703
   70MOL0     C 9338   1.144   7.686   4.691 -0.7261 -0.4122 -0.8369
   70MOL0     O 9339   1.230   7.661   4.812  0.1031  0.0809 -0.9925
   70MOL0     C 9340   1.182   7.584   4.921  0.3945  0.2425  1.0479
   70MOL0     C 9341   1.265   7.558   5.025  0.9107 -0.9291 -0.5392
   70MOL0     C 9342   1.227   7.465   5.120  0.2634  0.9281  0.5871
   70MOL0     C 9343   1.091   7.407   5.122 -0.0145  0.4087 -0.4577
   70MOL0     C 9344   1.042   7.307   5.220  0.2034 -0.0701 -0.5434
   70MOL0     O 9345   0.899   7.282   5.234 -0.0766 -0.0044 -0.1823
   70MOL0     C 9346   0.872   7.173   5.309 -0.3311 -0.1707  0.0300
   70MOL0     C 9347   0.814   7.200   5.430 -0.1125 -0.4482  0.0497
   70MOL0     C 9348   0.774   7.092   5.506  0.0684  0.4173 -0.9024
   70MOL0     C 9349   0.801   6.959   5.468 -0.2209 -0.6163 -0.1665
   70MOL0     O 9350   0.791   6.863   5.573  1.1214  0.0225  0.1321
   70MOL0     C 9351   0.894   6.767   5.562  1.2219  0.5174  0.0055
   70MOL0     C 9352   0.871   6.660   5.660 -0.3980 -0.1162 -0.0456
   70MOL0     C 9353   0.890   6.733   5.798 -0.7595 -0.1249  0.1175
   70MOL0     C 9354   0.898   6.642   5.923 -0.3334  0.6886  0.5132
   70MOL0     C 9355   0.932   6.733   6.042  0.3133  0.3755  1.0716
   70MOL0     C 9356   0.837   6.848   6.070  0.2476 -0.1769 -0.1929
   70MOL0     C 9357   0.891   6.926   6.194 -0.9403  0.7945  0.4011
   70MOL0     C 9358   0.805   7.054   6.224 -0.5372  0.0857 -0.0491
   70MOL0    Cl 9359   0.889   7.141   6.354  0.3797 -0.0231 -1.0488
   70MOL0     C 9360   0.868   6.934   5.351  0.9076 -0.3892 -0.1718
   70MOL0     C 9361   0.907   7.045   5.270 -1.0636  0.0336 -0.0447
   70MOL0     O 9362   1.138   7.249   5.280  1.3448  0.8912  0.2882
   70MOL0     C 9363   0.998   7.459   5.026  0.3067 -0.4363 -0.5993
   70MOL0     C 9364   1.046   7.533   4.919  0.3326  0.0901 -0.5800
   70MOL0     N 9365   1.649   7.437   4.607 -0.1755 -0.1711  0.3768
   70MOL0     N 9366   1.683   7.312   4.594 -0.7471  0.2994  0.4395
   70MOL0     C 9367   1.013   6.592   4.725 -1.3753 -0.2378  0.0168
   70MOL0     C 9368   0.906   6.661   4.668 -1.0164  0.1665 -0.4840
   70MOL0     C 9369   0.596   6.967   4.549 -0.3484 -0.5258  0.0210
   70MOL0     C 9370   0.529   7.029   4.663 -0.6244 -0.4686  0.5422
   70MOL0     C 9371   0.427   7.129   4.657  0.0949  0.2764 -0.4624
   70MOL0     C 9372   0.366   7.142   4.539  0.4926 -0.4472 -1.4566
   70MOL0     O 9373   0.247   7.197   4.534  0.0056  0.0564  0.1197
   70MOL0     C 9374   0.171   7.214   4.408 -0.1336 -0.7192  0.1471
   70MOL0     C 9375   0.043   7.285   4.435  0.7572 -0.1212 -0.7433
   70MOL0     C 9376  -0.030   7.331   4.305  0.2003 -0.5554 -0.2548
   70MOL0     C 9377  -0.176   7.360   4.317  0.6862 -0.9895 -1.0238
   70MOL0     C 9378  -0.264   7.233   4.316 -0.5178 -0.2189 -0.0925
   70MOL0     C 9379  -0.321   7.128   4.322  1.0495 -0.2451 -0.2677
   70MOL0     C 9380   0.422   7.080   4.424  0.6278 -0.0152  0.2176
   70MOL0     C 9381   0.528   6.989   4.427 -0.4342 -0.1905  0.9084
   70MOL0     C 9382   0.573   6.919   4.297  0.0370 -0.3427  0.6427
   70MOL0     H 9383   0.877   6.924   4.877  1.7065  1.4032 -1.4135
   70MOL0     H 9384   1.056   6.807   4.991 -0.8760 -1.1584  1.2305
   70MOL0     H 9385   1.295   6.731   4.847 -1.3562 -0.5212 -0.9117
   70MOL0     H 9386   1.345   6.627   4.976 -1.1807 -3.7527  1.4648
   70MOL0     H 9387   1.305   6.532   4.691  4.2602  1.8390 -2.4180
   70MOL0     H 9388   1.359   6.432   4.823  0.0517 -1.0276 -2.2165
   70MOL0     H 9389   1.565   6.514   4.704 -1.8439 -1.5584  0.0696
   70MOL0     H 9390   1.553   6.617   4.850  1.6827  3.8837 -1.6887
   70MOL0     H 9391   1.418   6.751   4.615  1.7593  1.6582 -0.7986
   70MOL0     H 9392   1.508   6.817   4.752  2.0910  1.0416 -0.4457
   70MOL0     H 9393   1.702   6.775   4.648  1.5315  0.6311 -2.0266
   70MOL0     H 9394   1.640   6.667   4.523  0.5907  1.7727 -2.3893
   70MOL0     H 9395   1.665   6.858   4.395 -1.4518 -0.3474 -1.7643
   70MOL0     H 9396   1.510   6.898   4.446  1.6297 -0.8703 -0.9939
   70MOL0     H 9397   1.762   6.994   4.592 -0.6677 -3.4811  1.7103
   70MOL0     H 9398   1.604   7.039   4.646 -1.2917  1.3177 -0.5409
   70MOL0     H 9399   1.739   7.121   4.396 -0.3382  0.2257 -1.2777
   70MOL0     H 9400   1.565   7.088   4.373  2.1328 -2.3089 -0.7128
   70MOL0     H 9401   1.424   7.321   4.402 -0.6037  2.3489  0.8497
   70MOL0     H 9402   1.478   7.635   4.643 -0.1095 -0.8943  0.8350
   70MOL0     H 9403   1.502   7.655   4.471 -0.7351  0.1636 -0.2332
   70MOL0     H 9404   1.287   7.564   4.423 -0.5025  0.7317  1.3386
   70MOL0     H 9405   1.260   7.489   4.584 -0.7155 -0.4195  0.3436
   70MOL0     H 9406   1.151   7.727   4.484 -0.5781  0.0444  0.4368
   70MOL0     H 9407   1.291   7.787   4.568 -4.0120  2.7156 -0.1930
   70MOL0     H 9408   1.090   7.595   4.664  1.4237 -1.5758 -1.5225
   70MOL0     H 9409   1.081   7.775   4.693  1.4106  1.1737  0.2072
   70MOL0     H 9410   1.362   7.606   5.025  0.5739  0.0662  3.0505
   70MOL0     H 9411   1.296   7.450   5.202 -0.5380  6.1169  2.5864
   70MOL0     H 9412   0.788   7.302   5.454  2.5532  0.2390  0.3382
   70MOL0     H 9413   0.728   7.096   5.604 -0.0187  2.1162 -0.9808
   70MOL0     H 9414   0.878   6.725   5.463  0.3181  2.5299 -0.7696
   70MOL0     H 9415   0.995   6.807   5.573  0.7742  1.1696  2.2747
   70MOL0     H 9416   0.767   6.625   5.653  0.3075 -2.2983 -0.4058
   70MOL0     H 9417   0.946   6.584   5.639  0.6575  0.8437  0.1399
   70MOL0     H 9418   0.971   6.806   5.788  0.9779 -2.1712 -1.5497
   70MOL0     H 9419   0.805   6.801   5.806 -0.9341 -0.0708 -1.7406
   70MOL0     H 9420   0.986   6.578   5.913 -0.8622  0.1185 -0.5656
   70MOL0     H 9421   0.805   6.587   5.940 -2.3522  4.0157  1.0779
   70MOL0     H 9422   1.034   6.767   6.025  1.1495 -2.9228 -1.5241
   70MOL0     H 9423   0.918   6.682   6.138 -1.0366  5.3627  3.8764
   70MOL0     H 9424   0.821   6.917   5.986 -0.5642  1.9937  1.6251
   70MOL0     H 9425   0.739   6.802   6.081  1.4573 -2.6458  1.0649
   70MOL0     H 9426   0.997   6.948   6.186 -0.3757 -0.9981  2.0368
   70MOL0     H 9427   0.880   6.853   6.275  4.2783 -1.8441 -0.8695
   70MOL0     H 9428   0.797   7.130   6.145 -0.3623  2.3758  1.9941
   70MOL0     H 9429   0.701   7.035   6.251 -0.9397  2.8024  0.6386
   70MOL0     H 9430   0.894   6.837   5.312  0.5165 -0.6855  0.2940
   70MOL0     H 9431   0.964   7.020   5.182  1.9010  1.2408  1.3726
   70MOL0     H 9432   0.891   7.436   5.025  0.3972 -0.8991 -2.3830
   70MOL0     H 9433   0.991   7.564   4.830  5.3275  2.3813 -3.3267
   70MOL0     H 9434   1.056   6.498   4.693  2.5121  0.3587  2.6753
   70MOL0     H 9435   0.856   6.624   4.579 -1.8324 -1.1796  0.4808
   70MOL0     H 9436   0.571   7.014   4.763  2.0720  1.6852 -0.1414
   70MOL0     H 9437   0.382   7.166   4.749  0.4390 -0.9538  0.2341
   70MOL0     H 9438   0.148   7.119   4.358  3.1401 -1.8658  0.5109
   70MOL0     H 9439   0.230   7.281   4.345 -2.6990  1.5684  0.0169
   70MOL0     H 9440   0.049   7.375   4.496 -2.7956 -1.2402  1.6326
   70MOL0     H 9441  -0.011   7.216   4.500  1.3883  2.6515  3.0524
   70MOL0     H 9442  -0.015   7.251   4.230 -1.1465 -1.5947  0.5400
   70MOL0     H 9443   0.013   7.423   4.265  0.4911 -1.1273 -1.3036
   70MOL0     H 9444  -0.183   7.403   4.418  3.4184  2.2709 -2.0281
   70MOL0     H 9445  -0.210   7.433   4.243  0.2608 -0.6696 -0.5190
   70MOL0     H 9446  -0.388   7.046   4.330 -0.2404  0.2919 -3.7484
   70MOL0     H 9447   0.364   7.078   4.332  0.8991 -1.7843  0.0513
   70MOL0     H 9448   0.656   6.974   4.253  0.0047  0.0813  1.0921
   70MOL0     H 9449   0.609   6.817   4.311  0.7337 -0.2408 -0.3775
   70MOL0     H 9450   0.484   6.908   4.234 -2.2293 -1.7123  3.7878
   71MOL0     O 9451   9.114   2.123   0.176 -0.8561 -0.4068  0.0255
   71MOL0     C 9452   9.212   2.191   0.158  0.0960 -1.2627 -0.7614
   71MOL0     O 9453   9.210   2.292   0.070 -0.5725  0.2077  0.7897
   71MOL0     C 9454   9.112   2.309  -0.021 -0.3008  0.2569  1.2143
   71MOL0     C 9455   9.070   2.202  -0.097  0.2888  0.2948  0.2131
   71MOL0     C 9456   8.985   2.222  -0.212 -1.6290  0.6129  0.5568
   71MOL0     C 9457   8.943   2.342  -0.248  0.7674 -0.1412  0.8227
   71MOL0     O 9458   8.849   2.374  -0.350  1.0367 -0.3736  0.4917
   71MOL0     C 9459   8.785   2.270  -0.422 -0.8834 -0.1066 -0.4759
   71MOL0     C 9460   8.883   2.204  -0.527 -0.0355  0.1056  0.5252
   71MOL0     C 9461   8.807   2.084  -0.593  0.5829  0.5512 -0.1403
   71MOL0     C 9462   8.882   2.011  -0.705 -0.0543 -0.5018  0.0963
   71MOL0     C 9463   8.871   2.073  -0.847 -0.5484  0.0119 -0.0594
   71MOL0     C 9464   8.960   1.994  -0.937  0.6545  0.6824  1.0155
   71MOL0     C 9465   9.117   2.005  -0.929  0.4953 -0.6661  0.3945
   71MOL0     C 9466   9.189   2.090  -1.034 -0.1197  0.2580 -0.5126
   71MOL0     N 9467   9.151   2.233  -1.021  0.4709  0.8068  0.4139
   71MOL0     C 9468   9.161   2.313  -0.910 -1.1714  0.1233  0.1359
   71MOL0     C 9469   9.102   2.429  -0.947  0.7442  0.0611  0.3183
   71MOL0     C 9470   9.097   2.547  -0.854 -0.4497  1.2175  0.0238
   71MOL0     C 9471   8.962   2.543  -0.771  0.1787  0.2016 -0.6186
   71MOL0     C 9472   8.939   2.674  -0.688 -0.5244  0.5254  0.1394
   71MOL0     C 9473   8.821   2.662  -0.587 -0.0437  0.6585 -0.9482
   71MOL0     O 9474   8.698   2.644  -0.664  0.1349 -0.6357 -0.0129
   71MOL0     C 9475   8.630   2.749  -0.721  1.0391 -0.6637  0.6674
   71MOL0     C 9476   8.563   2.724  -0.835 -0.0497  0.7562  0.8394
   71MOL0     C 9477   8.491   2.818  -0.908  1.2395 -0.1921 -0.8114
   71MOL0     C 9478   8.479   2.950  -0.858  0.0931  0.1610  1.3431
   71MOL0     C 9479   8.419   3.056  -0.940  0.6143 -0.4693 -0.2925
   71MOL0     O 9480   8.448   3.185  -0.898  0.2027  0.8919  0.1794
   71MOL0     C 9481   8.420   3.298  -0.986  0.3504  0.4246  0.0045
   71MOL0     C 9482   8.495   3.411  -0.965  0.1826  0.1450  0.6459
   71MOL0     C 9483   8.480   3.534  -1.039  1.1672 -0.3979  0.2504
   71MOL0     C 9484   8.391   3.533  -1.147 -0.1304  0.7780 -0.0972
   71MOL0     O 9485   8.396   3.642  -1.225  0.2280  0.1466 -0.4289
   71MOL0     C 9486   8.305   3.642  -1.330  0.0508 -0.4376  0.6894
   71MOL0     C 9487   8.165   3.692  -1.266  0.5312  0.6263 -0.2392
   71MOL0     C 9488   8.179   3.826  -1.180 -0.1084  0.4006  0.5202
   71MOL0     C 9489   8.083   3.834  -1.056 -0.7594  1.4769  0.8161
   71MOL0     C 9490   8.171   3.759  -0.948  0.0797 -0.8207  0.5872
   71MOL0     C 9491   8.100   3.752  -0.813 -0.1686 -0.8921  0.4129
   71MOL0     C 9492   8.172   3.666  -0.717  0.9734  0.4182 -0.9500
   71MOL0     C 9493   8.184   3.519  -0.748 -0.5575  0.7739 -0.8481
   71MOL0    Cl 9494   8.333   3.457  -0.661 -0.2250 -0.3129 -0.1464
   71MOL0     C 9495   8.306   3.421  -1.169  0.8533 -0.5563 -0.2108
   71MOL0     C 9496   8.320   3.312  -1.088 -0.5244  1.2643 -0.0831
   71MOL0     O 9497   8.342   3.034  -1.032  0.5773  0.6118 -0.5398
   71MOL0     C 9498   8.537   2.976  -0.730 -0.5110 -0.5612  0.6592
   71MOL0     C 9499   8.598   2.868  -0.664  0.7148 -0.6288  0.3132
   71MOL0     N 9500   9.043   2.411  -1.070 -0.7083 -1.0185 -0.7927
   71MOL0     N 9501   9.088   2.301  -1.113  0.2516 -0.1048  0.9616
   71MOL0     C 9502   8.988   2.456  -0.178  0.1780  0.4192 -0.2516
   71MOL0     C 9503   9.071   2.434  -0.068 -0.0711 -0.7828  0.1341
   71MOL0     C 9504   9.340   2.153   0.227  0.3967 -0.3279  0.2184
   71MOL0     C 9505   9.370   2.219   0.347  0.0730  0.5698 -0.1902
   71MOL0     C 9506   9.493   2.187   0.412 -0.5813 -0.2337 -0.8775
   71MOL0     C 9507   9.575   2.092   0.365 -0.1989  1.3041  0.5890
   71MOL0     O 9508   9.700   2.068   0.414 -0.4651  0.9166 -0.6638
   71MOL0     C 9509   9.804   2.143   0.353  0.3067 -0.2523 -0.1927
   71MOL0     C 9510   9.944   2.110   0.415  0.5992  0.5755  0.5928
   71MOL0     C 9511   9.980   2.228   0.505  0.5131 -0.3475  0.2621
   71MOL0     C 9512  10.110   2.216   0.567 -0.4447 -0.2582 -0.8541
   71MOL0     C 9513  10.141   2.333   0.654  0.6834 -0.6559 -0.2792
   71MOL0     C 9514  10.166   2.421   0.727  0.4024  0.5549 -0.2838
   71MOL0     C 9515   9.537   2.020   0.251 -0.8424  1.1876  0.1613
   71MOL0     C 9516   9.420   2.049   0.174  0.3230 -0.1357 -0.1050
   71MOL0     C 9517   9.397   1.969   0.048  0.1920  0.3354 -0.4450
   71MOL0     H 9518   9.084   2.098  -0.070  3.1925  0.2987 -0.8665
   71MOL0     H 9519   8.932   2.137  -0.255  2.6667 -1.1942 -1.8262
   71MOL0     H 9520   8.743   2.197  -0.352 -2.3844  1.7657  0.6455
   71MOL0     H 9521   8.697   2.318  -0.465 -3.2129 -3.2766  0.3750
   71MOL0     H 9522   8.971   2.157  -0.483 -0.3557 -0.9979  0.0219
   71MOL0     H 9523   8.931   2.266  -0.603  2.2706 -4.0426 -1.8050
   71MOL0     H 9524   8.706   2.120  -0.617 -0.3795 -0.6875  1.7719
   71MOL0     H 9525   8.781   2.011  -0.515 -0.2597 -0.3626 -1.2402
   71MOL0     H 9526   8.983   1.989  -0.670  0.0235  0.1245  0.2677
   71MOL0     H 9527   8.835   1.913  -0.717 -0.9250  0.0852 -1.5839
   71MOL0     H 9528   8.768   2.081  -0.884 -0.4215  0.9292 -0.2467
   71MOL0     H 9529   8.908   2.176  -0.851  0.2612 -0.3056 -1.5533
   71MOL0     H 9530   8.932   1.889  -0.925  0.2292  0.9765  3.0113
   71MOL0     H 9531   8.925   2.028  -1.035 -2.0605  1.1145  2.0455
   71MOL0     H 9532   9.152   1.902  -0.928  2.4017 -0.0477  0.7178
   71MOL0     H 9533   9.144   2.050  -0.833  0.8397  0.0953 -0.0491
   71MOL0     H 9534   9.298   2.089  -1.024 -0.0720 -0.8425 -1.0649
   71MOL0     H 9535   9.174   2.050  -1.134  3.2564  1.1125 -1.5030
   71MOL0     H 9536   9.219   2.290  -0.821 -1.4574 -2.1588 -0.1927
   71MOL0     H 9537   9.176   2.547  -0.777 -0.3748  1.2139 -0.0534
   71MOL0     H 9538   9.095   2.636  -0.917 -0.2695  0.2235 -1.4123
   71MOL0     H 9539   8.869   2.532  -0.827 -0.9020 -0.0950  1.1451
   71MOL0     H 9540   8.962   2.453  -0.709  0.2538 -1.7233 -3.2369
   71MOL0     H 9541   8.923   2.766  -0.746 -0.7544  0.9814  0.9055
   71MOL0     H 9542   9.032   2.698  -0.634  2.7520 -2.2333 -3.7002
   71MOL0     H 9543   8.818   2.750  -0.523  1.0109  0.5051 -0.6703
   71MOL0     H 9544   8.834   2.582  -0.512 -2.2309  0.9937 -0.1291
   71MOL0     H 9545   8.571   2.628  -0.884  2.6371  1.9574 -1.3698
   71MOL0     H 9546   8.447   2.797  -1.005  2.7576  1.2509 -1.8941
   71MOL0     H 9547   8.569   3.415  -0.885  0.8057 -0.1196  0.0927
   71MOL0     H 9548   8.533   3.625  -1.014  1.4898 -0.6961  0.6577
   71MOL0     H 9549   8.328   3.726  -1.396 -2.3641  1.9902  2.6373
   71MOL0     H 9550   8.290   3.550  -1.386 -0.1855  1.3161 -2.3256
   71MOL0     H 9551   8.093   3.682  -1.348  0.6562 -1.7158 -0.1288
   71MOL0     H 9552   8.141   3.609  -1.199 -1.0589  2.4644  1.6191
   71MOL0     H 9553   8.283   3.840  -1.147 -0.0359 -0.0190  0.4738
   71MOL0     H 9554   8.147   3.909  -1.243  0.2974  1.3300  1.4914
   71MOL0     H 9555   7.983   3.794  -1.074 -0.3435  2.1754 -4.7365
   71MOL0     H 9556   8.079   3.938  -1.022 -0.7479  1.2451  1.5440
   71MOL0     H 9557   8.267   3.811  -0.943  0.7523 -1.8036 -1.5036
   71MOL0     H 9558   8.203   3.661  -0.981  1.0726  1.1444 -5.5408
   71MOL0     H 9559   8.088   3.850  -0.766 -0.1980 -1.3136  1.3061
   71MOL0     H 9560   7.998   3.714  -0.813 -0.2881 -0.7533 -2.0650
   71MOL0     H 9561   8.136   3.679  -0.615  2.8511 -2.6569  0.2480
   71MOL0     H 9562   8.269   3.716  -0.713  0.6683  0.9776 -0.2247
   71MOL0     H 9563   8.104   3.450  -0.719  1.3733 -0.5114  1.8817
   71MOL0     H 9564   8.193   3.500  -0.855 -2.8833  0.6083 -1.0690
   71MOL0     H 9565   8.232   3.402  -1.245  2.9990  0.4115 -2.6688
   71MOL0     H 9566   8.252   3.230  -1.107 -0.6444  1.6007 -1.1542
   71MOL0     H 9567   8.559   3.078  -0.701  2.1886 -1.2715  1.4250
   71MOL0     H 9568   8.627   2.872  -0.559  2.0433  1.9498 -0.0576
   71MOL0     H 9569   8.953   2.554  -0.208 -2.5364 -0.3919 -0.0399
   71MOL0     H 9570   9.100   2.520  -0.007 -1.8874  0.7617 -1.0649
   71MOL0     H 9571   9.300   2.289   0.390  1.1188  0.0056  2.7165
   71MOL0     H 9572   9.522   2.223   0.510 -1.5023  0.7664 -0.9545
   71MOL0     H 9573   9.779   2.249   0.354  0.9525 -0.0979  0.0943
   71MOL0     H 9574   9.803   2.126   0.245  1.3289  1.2656 -0.4698
   71MOL0     H 9575  10.017   2.115   0.334  0.4843 -2.0363  0.2545
   71MOL0     H 9576   9.942   2.007   0.453 -3.7498 -1.1729 -3.3819
   71MOL0     H 9577   9.893   2.232   0.572 -1.8786 -1.3380 -2.5584
   71MOL0     H 9578   9.975   2.312   0.435  0.5994 -1.7434 -1.4774
   71MOL0     H 9579  10.115   2.128   0.632  1.0230  2.2608  2.7523
   71MOL0     H 9580  10.184   2.206   0.486  0.5360  1.8289 -0.2806
   71MOL0     H 9581  10.171   2.499   0.801 -1.6545 -0.4373  1.0036
   71MOL0     H 9582   9.606   1.947   0.208  1.0737  2.8389  0.2747
   71MOL0     H 9583   9.454   2.001  -0.040  2.0244  1.4192  1.0499
   71MOL0     H 9584   9.425   1.864   0.059  0.2004  0.1912 -1.7319
   71MOL0     H 9585   9.292   1.977   0.021  0.0342  1.7605  0.4731
   72MOL0     O 9586  11.389  11.327   2.407  1.5617  0.4264 -0.4055
   72MOL0     C 9587  11.405  11.206   2.396 -0.1986  0.7673 -0.4983
   72MOL0     O 9588  11.493  11.138   2.473  0.2746 -0.1357 -0.9019
   72MOL0     C 9589  11.549  11.196   2.578 -0.0402  0.2323  0.4438
   72MOL0     C 9590  11.498  11.289   2.664  0.1506 -0.0115  0.6454
   72MOL0     C 9591  11.569  11.332   2.781  0.3991 -0.1170  1.4432
   72MOL0     C 9592  11.689  11.273   2.802 -0.2147 -0.6959  0.0782
   72MOL0     O 9593  11.757  11.306   2.923  1.1140 -0.4197  0.4715
   72MOL0     C 9594  11.791  11.191   3.004 -0.1498 -0.0164 -0.1871
   72MOL0     C 9595  11.938  11.173   3.014  0.0420 -0.3833 -0.4473
   72MOL0     C 9596  11.969  11.053   3.108 -0.2179 -0.0077 -0.3037
   72MOL0     C 9597  12.119  11.054   3.126 -0.0136 -0.1964  0.2016
   72MOL0     C 9598  12.159  10.954   3.221  0.0858  0.5673 -0.9950
   72MOL0     C 9599  12.305  10.938   3.235 -0.6111 -1.2116  0.6863
   72MOL0     C 9600  12.336  10.837   3.343  0.5706 -0.6413  0.5246
   72MOL0     C 9601  12.488  10.845   3.378  1.1809  0.6635  0.1406
   72MOL0     N 9602  12.501  10.845   3.528 -0.1196 -0.4089  1.0994
   72MOL0     C 9603  12.483  10.958   3.608  0.2387  0.0686  0.8866
   72MOL0     C 9604  12.531  10.929   3.737  0.0669 -0.7211  0.2992
   72MOL0     C 9605  12.524  11.014   3.857 -0.5337  1.0348  0.6001
   72MOL0     C 9606  12.617  10.953   3.966 -0.3361 -0.0533 -0.6299
   72MOL0     C 9607  12.590  11.034   4.093 -0.9103  0.9526 -0.1269
   72MOL0     C 9608  12.684  10.987   4.204 -0.1406  0.1008 -0.4130
   72MOL0     O 9609  12.645  11.052   4.327 -0.2378 -0.0526 -0.9714
   72MOL0     C 9610  12.724  11.139   4.388  0.0764  0.2162 -0.9959
   72MOL0     C 9611  12.703  11.148   4.531 -0.8632  0.1239  1.1394
   72MOL0     C 9612  12.754  11.254   4.604  0.9076  0.3728  0.2993
   72MOL0     C 9613  12.835  11.353   4.527  0.6667 -0.1240  0.2674
   72MOL0     C 9614  12.874  11.467   4.610 -0.3259  0.5548 -0.1586
   72MOL0     O 9615  12.907  11.577   4.533  0.6284  0.2434 -0.3839
   72MOL0     C 9616  12.936  11.700   4.594 -0.0056  0.4649  0.0233
   72MOL0     C 9617  13.029  11.791   4.541 -0.7643  0.1929 -0.5607
   72MOL0     C 9618  13.051  11.913   4.604 -0.4618  0.2813  0.6359
   72MOL0     C 9619  12.996  11.948   4.728  0.4164 -0.8816 -0.6819
   72MOL0     O 9620  13.028  12.066   4.788 -0.2489  0.2817  0.0438
   72MOL0     C 9621  13.016  12.068   4.925  0.4003  0.6475 -0.0866
   72MOL0     C 9622  13.066  12.185   4.994 -0.8525  0.2634  0.4108
   72MOL0     C 9623  13.030  12.158   5.141  0.1783 -0.1244  0.0920
   72MOL0     C 9624  13.031  12.292   5.219 -0.7706  0.0778 -0.4187
   72MOL0     C 9625  13.012  12.273   5.376 -0.1247 -0.8678  0.0615
   72MOL0     C 9626  13.119  12.351   5.443  0.7330 -0.9943 -0.7429
   72MOL0     C 9627  13.132  12.300   5.584 -1.1966 -0.1776 -0.2349
   72MOL0     C 9628  13.165  12.416   5.675  0.5109  0.2885  0.0240
   72MOL0    Cl 9629  13.337  12.489   5.648  0.2291 -0.1750 -0.1092
   72MOL0     C 9630  12.897  11.864   4.777 -0.3610 -0.4949 -1.2546
   72MOL0     C 9631  12.872  11.740   4.715  0.4112  0.5931 -0.5704
   72MOL0     O 9632  12.891  11.454   4.735 -0.3372 -0.3668  0.2669
   72MOL0     C 9633  12.855  11.338   4.385 -0.7020  0.4804 -0.1944
   72MOL0     C 9634  12.803  11.227   4.321  0.1251 -0.0350  0.3763
   72MOL0     N 9635  12.581  10.796   3.730 -0.5618 -0.2999  0.1352
   72MOL0     N 9636  12.554  10.748   3.615  0.7551 -0.0498  0.5048
   72MOL0     C 9637  11.741  11.182   2.711  0.7386  0.2452  0.1858
   72MOL0     C 9638  11.672  11.140   2.602  0.7004  0.4792  0.0638
   72MOL0     C 9639  11.320  11.136   2.305  0.4155 -0.0935 -0.7315
   72MOL0     C 9640  11.292  10.999   2.326  0.5665  0.1858 -0.1017
   72MOL0     C 9641  11.223  10.919   2.235  0.3204 -0.4312  0.1981
   72MOL0     C 9642  11.170  10.981   2.127 -0.4303  0.4482  0.5882
   72MOL0     O 9643  11.086  10.922   2.027  0.2686 -0.2244  0.0672
   72MOL0     C 9644  11.040  10.790   2.037  0.7760 -0.3260 -0.4455
   72MOL0     C 9645  11.139  10.679   2.010  0.0592 -0.1596 -0.2181
   72MOL0     C 9646  11.066  10.550   1.996  1.0419 -0.1801 -0.2687
   72MOL0     C 9647  11.164  10.425   1.966 -0.1744 -0.4192  0.8478
   72MOL0     C 9648  11.087  10.311   2.018  0.5744 -0.4846  1.3857
   72MOL0     C 9649  11.023  10.219   2.060  0.3914 -0.9429  0.4446
   72MOL0     C 9650  11.200  11.115   2.099  0.0900  0.2841 -0.4196
   72MOL0     C 9651  11.275  11.194   2.188 -1.1887  0.1550 -0.5057
   72MOL0     C 9652  11.319  11.338   2.127  0.1123  0.0979 -0.5428
   72MOL0     H 9653  11.393  11.311   2.651 -0.3831 -1.8905  1.4617
   72MOL0     H 9654  11.524  11.394   2.857  2.2372  2.8496  0.2980
   72MOL0     H 9655  11.737  11.206   3.098 -1.9379 -1.6157 -0.8814
   72MOL0     H 9656  11.742  11.102   2.964  0.9412 -0.4165 -0.6739
   72MOL0     H 9657  11.978  11.259   3.068  0.5439  0.1872 -1.6755
   72MOL0     H 9658  11.987  11.159   2.917 -2.2406 -1.9815 -1.4393
   72MOL0     H 9659  11.940  10.958   3.063  0.8356 -0.0616 -0.8922
   72MOL0     H 9660  11.923  11.065   3.207  1.9066  1.1488  0.6316
   72MOL0     H 9661  12.169  11.023   3.033  1.2220 -0.5149  0.9584
   72MOL0     H 9662  12.150  11.153   3.160  2.6258 -1.3533  1.4183
   72MOL0     H 9663  12.109  10.975   3.316 -3.0993  1.0175 -2.6350
   72MOL0     H 9664  12.116  10.856   3.197  0.8847  0.2508 -1.1379
   72MOL0     H 9665  12.343  10.897   3.141 -0.1598 -0.2194  0.4226
   72MOL0     H 9666  12.357  11.031   3.262  1.8811 -2.4841  0.5872
   72MOL0     H 9667  12.320  10.737   3.301  2.1067  0.1019 -2.0830
   72MOL0     H 9668  12.274  10.859   3.431 -0.1383 -2.4022  0.5065
   72MOL0     H 9669  12.525  10.750   3.338  1.0954 -1.3043  4.2201
   72MOL0     H 9670  12.538  10.930   3.332  2.3551  0.1979  0.5194
   72MOL0     H 9671  12.430  11.049   3.580  1.2260 -0.3224 -2.9016
   72MOL0     H 9672  12.559  11.113   3.826  0.5282  0.6789  0.6116
   72MOL0     H 9673  12.425  11.023   3.902  0.9081  0.6303  4.3062
   72MOL0     H 9674  12.585  10.850   3.979 -4.8514  0.6358 -3.9361
   72MOL0     H 9675  12.722  10.949   3.935 -0.7984 -1.8030 -2.1229
   72MOL0     H 9676  12.488  11.011   4.123 -0.3867 -0.4267  0.6697
   72MOL0     H 9677  12.607  11.140   4.071 -3.7615  1.1161 -1.9803
   72MOL0     H 9678  12.790  11.000   4.181 -0.0192 -3.0901 -2.1980
   72MOL0     H 9679  12.669  10.879   4.210  0.2912  0.0058 -0.9610
   72MOL0     H 9680  12.632  11.080   4.577  0.1017  0.1157  2.6869
   72MOL0     H 9681  12.728  11.272   4.708 -0.5648  3.2148 -0.4633
   72MOL0     H 9682  13.082  11.760   4.451 -1.3304  0.6376 -1.0596
   72MOL0     H 9683  13.124  11.984   4.565  3.3133 -1.0836  4.3892
   72MOL0     H 9684  12.908  12.071   4.940  0.4897 -1.8520  1.7770
   72MOL0     H 9685  13.038  11.973   4.975 -0.9020  0.4140  0.0816
   72MOL0     H 9686  13.171  12.202   4.972 -1.2434  0.3752 -1.5473
   72MOL0     H 9687  13.004  12.268   4.960  0.5550  1.2177  0.1432
   72MOL0     H 9688  12.936  12.106   5.162  0.3119 -0.8370 -0.9970
   72MOL0     H 9689  13.112  12.102   5.187 -0.3461  0.2086  1.4891
   72MOL0     H 9690  12.969  12.370   5.176 -1.2198  0.4571  0.8659
   72MOL0     H 9691  13.135  12.327   5.209  0.3297 -2.6795  0.3266
   72MOL0     H 9692  13.024  12.170   5.412  2.5827 -0.5994  0.0924
   72MOL0     H 9693  12.911  12.304   5.404 -1.2597 -0.6884 -3.6543
   72MOL0     H 9694  13.215  12.333   5.393 -0.2380 -4.3938 -1.6691
   72MOL0     H 9695  13.096  12.458   5.436 -2.9610 -1.7759 -6.3620
   72MOL0     H 9696  13.196  12.212   5.598 -5.0165 -3.5306 -1.9157
   72MOL0     H 9697  13.036  12.259   5.616 -0.7942  0.0336  1.3183
   72MOL0     H 9698  13.098  12.498   5.648  2.5393  1.3050 -2.3224
   72MOL0     H 9699  13.165  12.377   5.777  1.8431  0.8924  0.2782
   72MOL0     H 9700  12.843  11.893   4.866 -0.4646 -1.9098 -0.8317
   72MOL0     H 9701  12.797  11.673   4.756 -0.8242  0.0705 -3.4586
   72MOL0     H 9702  12.915  11.407   4.327  2.0885 -2.1234 -0.6722
   72MOL0     H 9703  12.821  11.222   4.215 -0.4407  0.4676  0.2453
   72MOL0     H 9704  11.833  11.128   2.728  0.5447 -0.1913 -0.1444
   72MOL0     H 9705  11.718  11.077   2.527  3.2411  0.2982  1.6561
   72MOL0     H 9706  11.327  10.948   2.415 -0.0928  0.5697  0.3938
   72MOL0     H 9707  11.213  10.813   2.257 -0.6972 -0.1041  1.3813
   72MOL0     H 9708  10.955  10.783   1.968  0.7875  1.0205 -0.6381
   72MOL0     H 9709  11.000  10.794   2.139 -0.7825  5.3260 -0.9181
   72MOL0     H 9710  11.209  10.670   2.094  0.2688  2.0078 -0.1074
   72MOL0     H 9711  11.192  10.707   1.919  1.0511 -0.7195  0.1632
   72MOL0     H 9712  10.988  10.558   1.920 -2.5249 -1.3055  2.9453
   72MOL0     H 9713  11.018  10.524   2.091 -1.0304  1.9203 -0.6520
   72MOL0     H 9714  11.177  10.418   1.858 -2.8227  1.9828  0.2723
   72MOL0     H 9715  11.260  10.436   2.018 -0.2001 -1.4087  1.1416
   72MOL0     H 9716  10.965  10.138   2.101 -1.6467  0.0288 -0.3547
   72MOL0     H 9717  11.161  11.159   2.008 -2.0756 -0.0857  0.2648
   72MOL0     H 9718  11.426  11.342   2.107  0.3204  1.0919  0.6798
   72MOL0     H 9719  11.269  11.348   2.030  3.8445  2.3456 -2.4273
   72MOL0     H 9720  11.289  11.424   2.188  0.8910  0.0295 -0.0561
   73MOL0     O 9721   1.338   5.251   2.933  0.4920  0.7473  0.4557
   73MOL0     C 9722   1.239   5.187   2.873  0.2516 -0.4731 -0.7345
   73MOL0     O 9723   1.187   5.067   2.907 -0.5901  0.1013  0.0800
   73MOL0     C 9724   1.251   4.975   2.981  0.6804 -0.2935  1.6353
   73MOL0     C 9725   1.280   5.000   3.112 -0.1627  0.0437 -0.7781
   73MOL0     C 9726   1.330   4.897   3.193 -1.4461 -0.0442  0.1783
   73MOL0     C 9727   1.361   4.768   3.149 -1.1365 -0.3708 -0.3182
   73MOL0     O 9728   1.434   4.670   3.213  0.4384  0.2594 -0.7044
   73MOL0     C 9729   1.532   4.695   3.317 -0.0803 -0.1861 -0.4980
   73MOL0     C 9730   1.656   4.608   3.289 -0.2002  0.4047 -0.3972
   73MOL0     C 9731   1.760   4.626   3.404  0.0111  1.0087  0.0122
   73MOL0     C 9732   1.712   4.548   3.526 -0.2858  0.1381  0.7762
   73MOL0     C 9733   1.826   4.532   3.634 -0.5972  0.3023  0.6351
   73MOL0     C 9734   1.973   4.475   3.600  0.1347  0.1002  0.7536
   73MOL0     C 9735   2.049   4.402   3.716  0.0656  0.3573 -0.5170
   73MOL0     C 9736   2.070   4.501   3.826  0.5836 -1.2181 -0.3916
   73MOL0     N 9737   2.130   4.427   3.933 -0.6421  0.0354  0.2800
   73MOL0     C 9738   2.062   4.405   4.051 -0.3461  0.0960 -0.8364
   73MOL0     C 9739   2.159   4.390   4.145  0.8503 -0.5546  0.5654
   73MOL0     C 9740   2.110   4.397   4.288 -0.4105  0.3706  0.1047
   73MOL0     C 9741   2.025   4.281   4.341 -0.2693 -0.0554 -0.9725
   73MOL0     C 9742   2.077   4.138   4.317 -0.3038  0.2632  0.5988
   73MOL0     C 9743   2.215   4.105   4.370 -0.1599  0.4814 -0.0510
   73MOL0     O 9744   2.188   4.102   4.507 -0.0927 -0.5410 -0.1542
   73MOL0     C 9745   2.205   3.976   4.567 -1.3160 -0.4189  0.0963
   73MOL0     C 9746   2.102   3.910   4.636  0.7310  1.0491 -0.1570
   73MOL0     C 9747   2.117   3.779   4.692 -0.3432  0.5645 -0.7273
   73MOL0     C 9748   2.234   3.713   4.677 -0.5092  0.2489 -0.6450
   73MOL0     C 9749   2.242   3.578   4.740 -0.1767  0.2350 -0.0638
   73MOL0     O 9750   2.128   3.502   4.736  0.5777  0.0949 -0.0722
   73MOL0     C 9751   2.134   3.372   4.780 -0.4250 -0.1867  0.7384
   73MOL0     C 9752   2.164   3.350   4.914  0.1404  0.7359 -0.5495
   73MOL0     C 9753   2.144   3.213   4.959 -0.0908  0.3090  0.9449
   73MOL0     C 9754   2.128   3.105   4.868  0.8160  0.5235 -1.0001
   73MOL0     O 9755   2.129   2.968   4.893  1.0425 -0.7829 -0.8378
   73MOL0     C 9756   2.169   2.931   5.026  0.0948 -0.6505  0.2610
   73MOL0     C 9757   2.140   2.780   5.031  0.8862 -1.0489 -0.8003
   73MOL0     C 9758   2.233   2.713   5.140 -0.1930 -0.1985 -0.9838
   73MOL0     C 9759   2.215   2.558   5.139 -0.2626 -0.6947  0.0200
   73MOL0     C 9760   2.288   2.506   5.268  0.1212  0.5040  0.3016
   73MOL0     C 9761   2.434   2.493   5.241  0.5271  0.2733  0.8462
   73MOL0     C 9762   2.514   2.481   5.369 -0.4147  0.2588  1.0721
   73MOL0     C 9763   2.643   2.400   5.361  0.9301  0.8147  0.0822
   73MOL0    Cl 9764   2.732   2.453   5.216  0.7188  0.1666  0.3462
   73MOL0     C 9765   2.105   3.145   4.730  1.1765 -0.4456 -1.4905
   73MOL0     C 9766   2.110   3.273   4.693  0.1071 -0.4449 -0.9563
   73MOL0     O 9767   2.350   3.538   4.777  0.3144 -0.1804 -0.2299
   73MOL0     C 9768   2.350   3.777   4.631  0.0156  0.1633 -0.0256
   73MOL0     C 9769   2.335   3.915   4.580  0.1579 -0.2424 -0.1455
   73MOL0     N 9770   2.286   4.375   4.081  0.3308  0.0779 -0.0034
   73MOL0     N 9771   2.268   4.391   3.954 -0.0037  0.6444 -0.8004
   73MOL0     C 9772   1.325   4.742   3.022 -0.3606  0.1227 -1.7796
   73MOL0     C 9773   1.273   4.840   2.936 -1.0785  0.4859 -0.2673
   73MOL0     C 9774   1.170   5.275   2.773  0.4126 -0.7480 -0.3144
   73MOL0     C 9775   1.204   5.416   2.759  0.0056  0.4355  0.4989
   73MOL0     C 9776   1.136   5.483   2.660 -0.5655 -0.6085 -0.2196
   73MOL0     C 9777   1.037   5.428   2.581 -0.8046  0.1286 -1.0708
   73MOL0     O 9778   0.968   5.498   2.484  0.3075  0.2568  0.2566
   73MOL0     C 9779   1.045   5.606   2.422 -0.1132  0.6651 -0.0109
   73MOL0     C 9780   0.967   5.673   2.310 -0.2944  0.2465 -0.1878
   73MOL0     C 9781   0.942   5.580   2.184 -0.3685 -0.0851 -1.6631
   73MOL0     C 9782   0.941   5.652   2.044  0.0367 -0.0089 -0.1939
   73MOL0     C 9783   0.812   5.694   2.003  0.5464 -0.0123 -0.1749
   73MOL0     C 9784   0.698   5.720   1.961 -0.2986 -0.1768 -0.5449
   73MOL0     C 9785   1.005   5.290   2.597  0.1723 -0.4975  0.5953
   73MOL0     C 9786   1.066   5.221   2.693  0.2670 -0.6631  0.0480
   73MOL0     C 9787   1.014   5.075   2.699 -0.5887 -0.9801 -0.3208
   73MOL0     H 9788   1.264   5.093   3.166 -0.4361  0.2676 -1.2271
   73MOL0     H 9789   1.347   4.924   3.296  0.7632 -4.1451  1.1010
   73MOL0     H 9790   1.557   4.802   3.310 -2.3917  0.3414 -1.3626
   73MOL0     H 9791   1.494   4.683   3.419  1.6881 -1.6227  0.0570
   73MOL0     H 9792   1.688   4.638   3.189  0.7912  3.7492  0.7670
   73MOL0     H 9793   1.632   4.502   3.282 -1.0223  0.5340  0.3075
   73MOL0     H 9794   1.783   4.729   3.433  0.1353  0.7851  0.7245
   73MOL0     H 9795   1.858   4.593   3.369  0.9265  3.5126  0.0476
   73MOL0     H 9796   1.620   4.588   3.571 -0.5654 -0.2139  0.5176
   73MOL0     H 9797   1.690   4.447   3.492  3.2157 -0.2901 -0.6099
   73MOL0     H 9798   1.837   4.635   3.667 -0.7157  0.6331 -0.3276
   73MOL0     H 9799   1.785   4.471   3.715  0.0038 -2.0232 -0.7038
   73MOL0     H 9800   1.968   4.402   3.518  2.3907  0.0468  0.6083
   73MOL0     H 9801   2.033   4.555   3.556 -0.6562  1.5994  2.2764
   73MOL0     H 9802   2.144   4.360   3.683 -0.3908 -2.3422  1.2246
   73MOL0     H 9803   1.994   4.314   3.752 -1.4673  1.2826 -0.5167
   73MOL0     H 9804   2.146   4.577   3.804 -0.4605  1.3627  3.8931
   73MOL0     H 9805   1.982   4.557   3.858  2.5855  0.7186  2.1734
   73MOL0     H 9806   1.957   4.417   4.075  0.2238 -1.6926  3.6088
   73MOL0     H 9807   2.197   4.414   4.352 -0.1369 -1.6341  0.3253
   73MOL0     H 9808   2.056   4.489   4.313  0.1231  0.4121  1.1310
   73MOL0     H 9809   2.032   4.290   4.450  0.9197  0.4959 -1.0820
   73MOL0     H 9810   1.921   4.295   4.310 -1.3118 -2.2046  1.2467
   73MOL0     H 9811   2.077   4.127   4.208  1.3379  1.4198  0.4409
   73MOL0     H 9812   2.009   4.060   4.351 -1.8336  2.0268  1.7564
   73MOL0     H 9813   2.276   4.189   4.335  0.1583  0.5608  0.6738
   73MOL0     H 9814   2.259   4.017   4.324 -2.0644  0.8358 -2.7641
   73MOL0     H 9815   2.001   3.945   4.655  1.1606  2.1340  0.2148
   73MOL0     H 9816   2.033   3.739   4.748  0.2833  1.2040  0.7106
   73MOL0     H 9817   2.180   3.432   4.984 -0.7781 -1.6740  2.7365
   73MOL0     H 9818   2.151   3.199   5.066 -4.4938 -4.5197  1.0255
   73MOL0     H 9819   2.270   2.961   5.055 -0.0482 -0.8368  0.9811
   73MOL0     H 9820   2.106   2.979   5.101 -0.9387 -1.1644 -0.2563
   73MOL0     H 9821   2.036   2.767   5.062  1.8490  0.5070  3.8848
   73MOL0     H 9822   2.152   2.728   4.936 -0.6067  0.0330 -1.6149
   73MOL0     H 9823   2.337   2.728   5.107 -1.0154  0.5897 -3.4239
   73MOL0     H 9824   2.216   2.751   5.241  2.4984 -0.3635 -0.3991
   73MOL0     H 9825   2.266   2.517   5.051  0.1932  0.4447 -0.2582
   73MOL0     H 9826   2.109   2.533   5.147 -0.7397 -0.4928 -3.8375
   73MOL0     H 9827   2.254   2.406   5.296 -0.7114 -0.0878 -2.5170
   73MOL0     H 9828   2.275   2.576   5.351  3.4860  2.0631 -0.3184
   73MOL0     H 9829   2.459   2.410   5.174 -0.8726  0.2967  0.2659
   73MOL0     H 9830   2.472   2.579   5.184  2.7447  0.4145  2.3862
   73MOL0     H 9831   2.462   2.443   5.458 -1.8543 -1.4461 -0.4252
   73MOL0     H 9832   2.551   2.583   5.381 -2.6021  1.4822 -1.7019
   73MOL0     H 9833   2.710   2.414   5.447 -1.9735 -2.0415  3.1175
   73MOL0     H 9834   2.621   2.293   5.353 -0.5885  0.9818  1.4887
   73MOL0     H 9835   2.094   3.074   4.649  1.4508 -1.2517 -0.8296
   73MOL0     H 9836   2.095   3.312   4.592  1.5619  1.6756 -0.4151
   73MOL0     H 9837   2.444   3.724   4.619 -0.2732 -0.4888  0.6020
   73MOL0     H 9838   2.417   3.979   4.548  0.9487 -0.7430  0.8079
   73MOL0     H 9839   1.336   4.641   2.984  3.0382 -0.6776  0.8189
   73MOL0     H 9840   1.227   4.803   2.845 -1.1850 -1.1357  0.4109
   73MOL0     H 9841   1.275   5.468   2.823  0.8373 -0.4967  0.3422
   73MOL0     H 9842   1.152   5.590   2.660  0.4267 -0.6930  1.9550
   73MOL0     H 9843   1.135   5.557   2.384 -1.3351 -2.3703  0.7374
   73MOL0     H 9844   1.067   5.672   2.506  2.8754 -1.4022  0.9927
   73MOL0     H 9845   1.019   5.760   2.270 -1.4152 -0.6510 -4.0208
   73MOL0     H 9846   0.871   5.702   2.353  0.6174  0.8790  1.4728
   73MOL0     H 9847   0.859   5.509   2.190 -0.5947  0.2290 -0.8306
   73MOL0     H 9848   1.029   5.515   2.191 -0.1285  0.3928  0.8496
   73MOL0     H 9849   1.008   5.738   2.048 -1.4491  1.3315 -1.9412
   73MOL0     H 9850   0.967   5.576   1.969 -1.4122  0.8007 -1.5977
   73MOL0     H 9851   0.592   5.724   1.947 -0.5331 -0.1444  1.0305
   73MOL0     H 9852   0.941   5.245   2.522 -1.3196 -0.3108  1.7116
   73MOL0     H 9853   0.929   5.057   2.633 -1.3849 -0.5716  0.5621
   73MOL0     H 9854   1.100   5.010   2.679 -0.7905 -1.4719  0.3669
   73MOL0     H 9855   0.971   5.050   2.796 -1.2092 -2.4089 -0.9467
   74MOL0     O 9856   9.060   5.160   2.969  0.5513  0.0896 -0.1280
   74MOL0     C 9857   9.029   5.068   3.043 -0.7633 -0.5390 -0.1548
   74MOL0     O 9858   9.049   4.941   3.011 -0.7038  0.6221 -0.3708
   74MOL0     C 9859   9.136   4.913   2.906  0.7853  0.2706 -0.5015
   74MOL0     C 9860   9.102   4.944   2.778  0.2011 -0.2636 -0.6134
   74MOL0     C 9861   9.192   4.907   2.677 -0.3190 -1.3955 -0.0432
   74MOL0     C 9862   9.329   4.868   2.708 -0.8120  1.2487 -0.0100
   74MOL0     O 9863   9.418   4.841   2.603 -0.1649 -0.4472  0.9238
   74MOL0     C 9864   9.384   4.891   2.474  0.2203 -0.3223  0.2033
   74MOL0     C 9865   9.512   4.940   2.404  0.1889 -0.9059 -0.6914
   74MOL0     C 9866   9.578   5.062   2.477  0.6258  0.1166  0.6615
   74MOL0     C 9867   9.488   5.191   2.479 -0.1345 -0.4806 -0.7942
   74MOL0     C 9868   9.439   5.245   2.338  0.3118 -0.9258 -0.0757
   74MOL0     C 9869   9.561   5.302   2.258  0.5533  0.4544  0.4635
   74MOL0     C 9870   9.526   5.315   2.112  0.1205 -0.8133  0.8534
   74MOL0     C 9871   9.653   5.329   2.021 -0.2890 -0.8658 -0.2115
   74MOL0     N 9872   9.608   5.328   1.881 -0.1652  0.0089  0.1366
   74MOL0     C 9873   9.536   5.428   1.810  1.0270  0.1973 -0.9923
   74MOL0     C 9874   9.517   5.377   1.687  1.2702  0.4365 -0.1114
   74MOL0     C 9875   9.442   5.455   1.577 -0.3461 -0.5033  0.2762
   74MOL0     C 9876   9.317   5.534   1.628 -1.4260 -0.2525 -0.4065
   74MOL0     C 9877   9.239   5.587   1.516  0.0418 -0.8635  0.6159
   74MOL0     C 9878   9.298   5.713   1.445 -0.0394 -0.3067  0.9022
   74MOL0     O 9879   9.229   5.726   1.318  0.2079 -0.2653 -0.4263
   74MOL0     C 9880   9.276   5.825   1.234 -0.1147 -0.3776  0.1510
   74MOL0     C 9881   9.363   5.933   1.260 -0.2242 -0.3514  0.3728
   74MOL0     C 9882   9.397   6.026   1.154  0.7365 -0.3478 -0.5497
   74MOL0     C 9883   9.341   6.019   1.029 -0.0891 -0.4546 -0.1811
   74MOL0     C 9884   9.396   6.105   0.919  0.4289 -0.3565 -0.0227
   74MOL0     O 9885   9.316   6.095   0.802 -0.5554  0.1486  0.4833
   74MOL0     C 9886   9.327   6.176   0.688 -0.5033  0.0327 -0.8230
   74MOL0     C 9887   9.408   6.298   0.676  0.1972  0.0049  0.4312
   74MOL0     C 9888   9.412   6.363   0.558 -0.4724 -0.7222  0.3900
   74MOL0     C 9889   9.336   6.313   0.451  0.0465 -0.1108 -0.1234
   74MOL0     O 9890   9.350   6.383   0.334  0.5503 -0.4171 -0.7095
   74MOL0     C 9891   9.421   6.318   0.233  0.6189 -0.6263  0.2720
   74MOL0     C 9892   9.481   6.425   0.136 -0.0375 -0.7808 -0.0967
   74MOL0     C 9893   9.472   6.373  -0.011  0.9421 -0.6969  0.4915
   74MOL0     C 9894   9.539   6.462  -0.110 -0.2569  0.1528  0.1976
   74MOL0     C 9895   9.518   6.387  -0.252 -0.0295 -0.3247 -0.4496
   74MOL0     C 9896   9.588   6.478  -0.348 -0.7545  0.2606  1.0455
   74MOL0     C 9897   9.582   6.421  -0.493  0.1339 -0.3311  0.6532
   74MOL0     C 9898   9.446   6.440  -0.554  1.0064  0.1396 -0.3590
   74MOL0    Cl 9899   9.393   6.606  -0.586 -0.1420  0.0719 -0.2548
   74MOL0     C 9900   9.255   6.198   0.458  0.6943  0.3677  0.1479
   74MOL0     C 9901   9.255   6.130   0.583  0.3794  0.2297  1.3751
   74MOL0     O 9902   9.496   6.175   0.944  0.4553 -0.5784 -0.7894
   74MOL0     C 9903   9.259   5.912   0.999  0.2631  0.1200 -0.0757
   74MOL0     C 9904   9.220   5.822   1.107 -0.1588  0.5122  0.2532
   74MOL0     N 9905   9.573   5.245   1.681 -0.1937 -0.6338  0.5399
   74MOL0     N 9906   9.641   5.234   1.785 -1.2020  0.2576  0.5598
   74MOL0     C 9907   9.360   4.841   2.842  1.2254 -0.3782 -0.1442
   74MOL0     C 9908   9.268   4.866   2.941  0.6201  0.2697 -0.4657
   74MOL0     C 9909   8.963   5.117   3.167  0.1433  0.7029  0.3770
   74MOL0     C 9910   8.885   5.237   3.158  0.1094  0.1534  0.4490
   74MOL0     C 9911   8.792   5.268   3.263  0.0285 -0.3885  0.7038
   74MOL0     C 9912   8.777   5.193   3.370 -0.0140 -0.0521 -0.0028
   74MOL0     O 9913   8.698   5.239   3.471  0.0151 -0.2861  0.1737
   74MOL0     C 9914   8.715   5.188   3.599  0.3023 -0.1250 -0.4714
   74MOL0     C 9915   8.659   5.258   3.712  0.3755  0.1898  0.0999
   74MOL0     C 9916   8.716   5.217   3.846  0.6349  0.1409  0.2472
   74MOL0     C 9917   8.865   5.241   3.870  0.3270  0.1066 -1.2335
   74MOL0     C 9918   8.888   5.382   3.871 -1.5166 -0.5195 -0.0065
   74MOL0     C 9919   8.932   5.500   3.879 -1.0501  0.1220  0.6883
   74MOL0     C 9920   8.857   5.073   3.383  0.5775 -1.0304  0.6702
   74MOL0     C 9921   8.948   5.039   3.281 -0.6916  0.2061 -0.2465
   74MOL0     C 9922   9.026   4.922   3.308 -0.2776 -0.1232 -1.1512
   74MOL0     H 9923   9.008   4.997   2.759  1.0612  2.2726  1.5606
   74MOL0     H 9924   9.145   4.928   2.581 -1.3414  1.6308  0.9926
   74MOL0     H 9925   9.342   4.796   2.439  1.6156 -1.1902  0.7987
   74MOL0     H 9926   9.309   4.971   2.468 -1.1901 -1.6777 -1.6806
   74MOL0     H 9927   9.494   4.976   2.303  1.0291  0.3247 -0.4223
   74MOL0     H 9928   9.578   4.853   2.412 -1.1776 -1.9090  0.0519
   74MOL0     H 9929   9.670   5.094   2.429  0.1358 -1.2555 -1.2989
   74MOL0     H 9930   9.604   5.033   2.579  1.0409  1.8972  1.0987
   74MOL0     H 9931   9.406   5.192   2.551  2.6308 -0.0258  2.6271
   74MOL0     H 9932   9.554   5.260   2.532 -1.6251 -1.2331  2.3079
   74MOL0     H 9933   9.398   5.164   2.276 -2.1923  1.4915 -1.8037
   74MOL0     H 9934   9.363   5.324   2.343  2.7670  1.6134 -0.7380
   74MOL0     H 9935   9.586   5.396   2.309  2.4899  1.5406 -2.2476
   74MOL0     H 9936   9.653   5.243   2.267 -0.3490 -1.5969 -2.4480
   74MOL0     H 9937   9.481   5.414   2.100  0.8312 -0.6366 -0.6549
   74MOL0     H 9938   9.461   5.234   2.079 -2.8115  0.2930  3.4430
   74MOL0     H 9939   9.707   5.424   2.032  2.4325 -2.2356 -0.8678
   74MOL0     H 9940   9.726   5.253   2.048  3.9260  3.8213  3.6317
   74MOL0     H 9941   9.501   5.522   1.853  0.2751  0.6481 -2.4901
   74MOL0     H 9942   9.511   5.528   1.534 -1.1644  0.7993  1.1198
   74MOL0     H 9943   9.411   5.380   1.504 -0.0836  0.4025 -0.8000
   74MOL0     H 9944   9.249   5.464   1.677 -1.3192  1.1994  2.0339
   74MOL0     H 9945   9.349   5.610   1.701 -1.2823 -2.7618  2.3168
   74MOL0     H 9946   9.145   5.619   1.560  1.0574  3.1068  0.3657
   74MOL0     H 9947   9.211   5.512   1.441  0.2278 -2.4593  2.0841
   74MOL0     H 9948   9.406   5.712   1.428 -0.1245  1.3275  0.0196
   74MOL0     H 9949   9.277   5.804   1.502  1.2883  1.0848 -0.7105
   74MOL0     H 9950   9.403   5.944   1.360  2.9573 -1.9458 -0.5597
   74MOL0     H 9951   9.455   6.116   1.172 -1.7859  0.9742  1.7368
   74MOL0     H 9952   9.452   6.347   0.762  0.1309  0.6361  0.1087
   74MOL0     H 9953   9.473   6.451   0.539 -2.4258  0.4278 -0.9157
   74MOL0     H 9954   9.499   6.259   0.282  0.4803  0.8697  2.4315
   74MOL0     H 9955   9.349   6.253   0.181 -0.3465 -0.1520  0.9814
   74MOL0     H 9956   9.437   6.524   0.156 -0.0837 -0.2344 -2.6365
   74MOL0     H 9957   9.585   6.432   0.171  0.0817 -1.1914 -0.3583
   74MOL0     H 9958   9.515   6.273  -0.012  2.7838  0.0042  2.1846
   74MOL0     H 9959   9.366   6.367  -0.037  1.1220 -1.5586 -0.0726
   74MOL0     H 9960   9.645   6.462  -0.082 -0.1767  2.8027  0.1422
   74MOL0     H 9961   9.494   6.561  -0.114  1.1372  0.8598  1.1379
   74MOL0     H 9962   9.415   6.371  -0.286 -0.4882  2.5159 -0.6775
   74MOL0     H 9963   9.565   6.289  -0.262  0.8967  0.0769 -0.1371
   74MOL0     H 9964   9.534   6.573  -0.349 -2.4338 -0.6164 -1.1522
   74MOL0     H 9965   9.691   6.488  -0.311  0.5226 -3.2703 -1.0450
   74MOL0     H 9966   9.612   6.316  -0.487  2.1408  0.2517  1.6230
   74MOL0     H 9967   9.655   6.474  -0.555  1.7742 -2.4912  0.6218
   74MOL0     H 9968   9.439   6.380  -0.646 -0.6582  3.9178 -2.9739
   74MOL0     H 9969   9.369   6.404  -0.485 -2.2699  3.4371 -1.9730
   74MOL0     H 9970   9.198   6.184   0.366 -1.0680 -1.7397  1.4759
   74MOL0     H 9971   9.204   6.035   0.596  1.8123 -0.4979  1.8654
   74MOL0     H 9972   9.233   5.894   0.895  1.2242  1.1500 -0.5210
   74MOL0     H 9973   9.150   5.745   1.076  1.4206 -1.0153  0.3142
   74MOL0     H 9974   9.463   4.812   2.861  1.3876 -0.0656 -0.5372
   74MOL0     H 9975   9.281   4.842   3.046  0.9792 -0.5483 -0.6868
   74MOL0     H 9976   8.874   5.287   3.062  2.5694  1.7905  0.9089
   74MOL0     H 9977   8.738   5.361   3.249 -2.9144 -2.1986 -0.9160
   74MOL0     H 9978   8.820   5.187   3.629 -0.2602  0.3169  1.6469
   74MOL0     H 9979   8.670   5.088   3.599 -0.4281  0.1713 -1.8527
   74MOL0     H 9980   8.553   5.232   3.709  0.4717 -0.0911 -1.6001
   74MOL0     H 9981   8.678   5.366   3.703  2.6064 -0.2374 -1.0199
   74MOL0     H 9982   8.690   5.111   3.856  0.0563  0.3773  1.3335
   74MOL0     H 9983   8.660   5.261   3.929  2.9170 -1.6600  2.9098
   74MOL0     H 9984   8.892   5.205   3.970 -0.1589 -1.3904 -1.6177
   74MOL0     H 9985   8.926   5.178   3.805 -0.1447 -0.1262 -1.4571
   74MOL0     H 9986   8.960   5.603   3.890 -0.3028 -0.0204  0.2078
   74MOL0     H 9987   8.842   5.019   3.476 -0.8491 -0.0068  1.0713
   74MOL0     H 9988   9.124   4.940   3.355 -0.3682 -1.6239 -0.3303
   74MOL0     H 9989   8.969   4.858   3.377 -0.5268  0.2642 -0.9910
   74MOL0     H 9990   9.042   4.863   3.218 -0.6886  0.4541 -1.6098
   75MOL0     O 9991   1.309   2.597   7.119 -0.1995 -1.4020 -0.6965
   75MOL0     C 9992   1.201   2.647   7.081  0.5093  0.9089  0.2425
   75MOL0     O 9993   1.153   2.770   7.117 -0.2880  0.1780 -0.4566
   75MOL0     C 9994   1.229   2.878   7.149 -0.0010 -0.5930 -0.2983
   75MOL0     C 9995   1.350   2.911   7.108  0.3204  0.3330  0.4826
   75MOL0     C 9996   1.408   3.033   7.124 -0.6323 -0.2473  0.5626
   75MOL0     C 9997   1.349   3.134   7.190  0.2034  0.0809  0.0505
   75MOL0     O 9998   1.420   3.251   7.206  0.7428 -0.2078  0.5428
   75MOL0     C 9999   1.347   3.356   7.267 -0.9258 -0.3042 -0.3973
   75MOL0     C10000   1.443   3.473   7.271  0.8839  0.2291 -0.9617
   75MOL0     C10001   1.408   3.590   7.361  0.5182  0.9886 -0.0827
   75MOL0     C10002   1.502   3.714   7.347 -0.6665 -0.1386 -0.1377
   75MOL0     C10003   1.487   3.784   7.212 -0.6751  0.4434 -0.3203
   75MOL0     C10004   1.580   3.903   7.191  0.3797 -0.0766 -0.7076
   75MOL0     C10005   1.728   3.872   7.176  0.5034  0.4001 -0.3907
   75MOL0     C10006   1.755   3.803   7.041  0.4915  0.2107  0.7851
   75MOL0     N10007   1.887   3.749   7.015 -0.8030  0.7613  0.0874
   75MOL0     C10008   1.959   3.663   7.096  0.3754  0.0104  0.5096
   75MOL0     C10009   2.084   3.660   7.060  0.5658  0.2232  0.4493
   75MOL0     C10010   2.208   3.600   7.129  0.1229 -0.5898  0.0600
   75MOL0     C10011   2.222   3.455   7.159 -0.2109  0.3845  0.3326
   75MOL0     C10012   2.185   3.381   7.038  0.0049  0.3365  0.8786
   75MOL0     C10013   2.191   3.229   7.055  0.4548 -0.1168  0.3845
   75MOL0     O10014   2.183   3.170   6.920 -0.0107 -0.0521 -0.3976
   75MOL0     C10015   2.299   3.138   6.852 -0.1006 -0.4241 -0.0715
   75MOL0     C10016   2.280   3.089   6.722  1.9192 -0.2790 -0.1201
   75MOL0     C10017   2.386   3.073   6.631  0.5318  1.0396 -0.2578
   75MOL0     C10018   2.515   3.079   6.674 -0.5974  0.9206  0.0680
   75MOL0     C10019   2.632   3.054   6.586  0.1765  0.1914  0.1411
   75MOL0     O10020   2.622   3.113   6.465  0.5356  0.1676  0.2071
   75MOL0     C10021   2.744   3.139   6.396  0.2655  0.7738 -0.7466
   75MOL0     C10022   2.742   3.119   6.255  0.4312  0.5002 -0.1389
   75MOL0     C10023   2.866   3.123   6.189 -0.0305 -0.6214 -0.3060
   75MOL0     C10024   2.991   3.158   6.249 -0.0114 -0.0450 -0.3269
   75MOL0     O10025   3.095   3.151   6.162 -0.2932  0.6438 -0.4296
   75MOL0     C10026   3.191   3.258   6.183 -0.2595  0.5213  0.7893
   75MOL0     C10027   3.281   3.268   6.056  1.1432 -0.1608 -0.6609
   75MOL0     C10028   3.367   3.139   6.024  0.4249 -0.3559  0.2535
   75MOL0     C10029   3.477   3.096   6.120  0.7949 -0.8609 -0.2981
   75MOL0     C10030   3.543   2.964   6.077 -0.5806 -0.0136 -0.2740
   75MOL0     C10031   3.639   2.976   5.953  0.4693 -0.7019 -0.2909
   75MOL0     C10032   3.690   2.837   5.909 -0.1712 -0.5556  0.1318
   75MOL0     C10033   3.738   2.744   6.021 -0.3010 -0.8170 -0.4659
   75MOL0    Cl10034   3.840   2.821   6.136 -0.3763 -0.4446  0.2927
   75MOL0     C10035   2.991   3.193   6.381  0.1369 -0.5509 -0.9911
   75MOL0     C10036   2.866   3.182   6.451  0.1294  0.8214 -0.2760
   75MOL0     O10037   2.731   2.996   6.631 -0.0373  0.1837  0.1085
   75MOL0     C10038   2.544   3.115   6.809  0.3808  0.7730 -0.6018
   75MOL0     C10039   2.433   3.144   6.892 -0.3464  0.4839 -0.2019
   75MOL0     N10040   2.098   3.755   6.963 -1.3518  0.2539  0.6340
   75MOL0     N10041   1.984   3.795   6.930  0.1923 -0.0933  0.4032
   75MOL0     C10042   1.214   3.111   7.236  0.3404 -0.2354  0.3790
   75MOL0     C10043   1.157   2.982   7.211 -0.8137 -0.4723 -1.5576
   75MOL0     C10044   1.101   2.560   7.015  0.1917  0.5576 -0.0014
   75MOL0     C10045   0.990   2.625   6.960  0.4660  0.7923 -0.2246
   75MOL0     C10046   0.877   2.552   6.909 -0.1223 -0.5753 -0.2012
   75MOL0     C10047   0.889   2.409   6.897  0.1111 -0.5966  0.6752
   75MOL0     O10048   0.781   2.347   6.840  0.5974 -0.0786 -0.1212
   75MOL0     C10049   0.808   2.224   6.791 -0.0576  0.7172  0.0238
   75MOL0     C10050   0.690   2.156   6.710 -0.0752  0.2268  0.2858
   75MOL0     C10051   0.670   2.218   6.567  0.8217  0.9281 -0.4518
   75MOL0     C10052   0.671   2.367   6.571  1.2182 -0.3824 -0.2480
   75MOL0     C10053   0.608   2.422   6.444  0.1209 -0.7069  0.4903
   75MOL0     C10054   0.566   2.458   6.335  0.9920 -0.4964  0.0238
   75MOL0     C10055   1.005   2.348   6.944 -0.8470  0.1706  0.5164
   75MOL0     C10056   1.110   2.417   7.014  1.0174  0.1336  0.5882
   75MOL0     C10057   1.218   2.337   7.074  0.7776  0.7333 -0.8742
   75MOL0     H10058   1.408   2.842   7.048 -2.1487 -0.5110 -1.0683
   75MOL0     H10059   1.509   3.053   7.091 -0.9992  0.2829 -0.2794
   75MOL0     H10060   1.257   3.390   7.215 -0.4166 -1.5630 -2.1745
   75MOL0     H10061   1.329   3.322   7.370 -2.5953  1.5024 -0.0210
   75MOL0     H10062   1.424   3.514   7.172 -1.9087  0.5850 -0.3681
   75MOL0     H10063   1.544   3.433   7.288 -0.5298 -2.8224  1.2621
   75MOL0     H10064   1.422   3.549   7.461  1.1875  1.2712 -0.0596
   75MOL0     H10065   1.305   3.613   7.329  0.9679  0.5471 -1.9303
   75MOL0     H10066   1.487   3.788   7.426  0.3945 -0.4392  0.3716
   75MOL0     H10067   1.608   3.687   7.361 -0.8393 -0.0814  1.5483
   75MOL0     H10068   1.497   3.712   7.130  1.5228 -1.2696  1.2968
   75MOL0     H10069   1.389   3.832   7.210 -1.6075 -1.3350  0.0707
   75MOL0     H10070   1.541   3.947   7.099  0.5164 -0.9779 -1.2015
   75MOL0     H10071   1.557   3.967   7.277  1.1162 -1.0899  0.2710
   75MOL0     H10072   1.759   3.815   7.263  0.1690  2.7942  1.4050
   75MOL0     H10073   1.797   3.957   7.167  1.0309 -0.0377 -0.4900
   75MOL0     H10074   1.686   3.721   7.023 -1.5459  1.7776  1.0563
   75MOL0     H10075   1.743   3.882   6.966  0.5426  1.9984  2.5653
   75MOL0     H10076   1.914   3.603   7.176 -0.3599 -0.8121 -0.4908
   75MOL0     H10077   2.293   3.646   7.077 -0.2270  0.5464  0.4567
   75MOL0     H10078   2.206   3.643   7.230  2.8467  0.9035 -0.4208
   75MOL0     H10079   2.325   3.433   7.188  0.2291  1.6927 -0.1743
   75MOL0     H10080   2.157   3.428   7.243  0.2756  1.5111  1.0897
   75MOL0     H10081   2.254   3.401   6.955  0.6775 -1.0141  1.0887
   75MOL0     H10082   2.085   3.412   7.008 -0.1626  0.9675  2.0504
   75MOL0     H10083   2.097   3.179   7.081  0.1107 -0.7687 -1.9061
   75MOL0     H10084   2.264   3.193   7.129 -1.7851  0.8368  3.2643
   75MOL0     H10085   2.177   3.075   6.691  1.1789  1.3215  1.4528
   75MOL0     H10086   2.367   3.047   6.527 -3.6817  0.7179  0.4512
   75MOL0     H10087   2.648   3.091   6.209 -0.6074  3.0339  0.2311
   75MOL0     H10088   2.879   3.088   6.087  1.6142 -1.0762  0.0219
   75MOL0     H10089   3.137   3.353   6.185  0.7287  1.2572 -1.8932
   75MOL0     H10090   3.243   3.253   6.279  0.9523 -0.4819  0.0997
   75MOL0     H10091   3.219   3.296   5.970  1.7962  4.0061  0.0357
   75MOL0     H10092   3.343   3.357   6.066  0.4733  0.3024 -0.5193
   75MOL0     H10093   3.303   3.051   6.012  2.5478 -2.1789  1.5694
   75MOL0     H10094   3.415   3.147   5.926 -3.0235  1.0425 -1.5097
   75MOL0     H10095   3.435   3.079   6.219 -0.4498  0.2157 -0.6197
   75MOL0     H10096   3.544   3.182   6.131 -1.7283  1.1481  0.1645
   75MOL0     H10097   3.464   2.896   6.042 -0.2452 -2.2135  2.7491
   75MOL0     H10098   3.589   2.925   6.168  0.0198  2.8138  0.7185
   75MOL0     H10099   3.584   3.018   5.868 -1.8969 -0.3481  1.3022
   75MOL0     H10100   3.726   3.035   5.981 -0.8913  0.8851  0.8098
   75MOL0     H10101   3.779   2.849   5.848 -1.1464 -0.1707 -1.2616
   75MOL0     H10102   3.613   2.784   5.851 -2.6544  2.8681  0.0017
   75MOL0     H10103   3.649   2.709   6.073  0.5657 -0.5467  1.2766
   75MOL0     H10104   3.779   2.650   5.982  0.4716 -0.9699  0.6730
   75MOL0     H10105   3.084   3.215   6.433 -1.4864  2.3117  1.0389
   75MOL0     H10106   2.856   3.210   6.556 -0.0663  1.9939 -0.5914
   75MOL0     H10107   2.647   3.130   6.841  1.0397  2.2713 -3.1690
   75MOL0     H10108   2.456   3.166   6.995 -0.1148 -0.6648 -0.0058
   75MOL0     H10109   1.165   3.188   7.294  1.3283 -0.4864  1.5894
   75MOL0     H10110   1.056   2.965   7.245 -1.3980 -0.4392 -3.1823
   75MOL0     H10111   0.976   2.732   6.961 -1.2138  0.6313 -1.5574
   75MOL0     H10112   0.793   2.610   6.871  0.1444 -0.3335 -0.4337
   75MOL0     H10113   0.837   2.147   6.863  1.9513  1.3890 -0.0280
   75MOL0     H10114   0.895   2.230   6.725  0.8089 -0.3126  1.0474
   75MOL0     H10115   0.601   2.155   6.774 -0.8639 -2.8629 -0.7045
   75MOL0     H10116   0.698   2.048   6.704  0.0673  0.2609 -0.1414
   75MOL0     H10117   0.580   2.178   6.519 -0.1625 -0.6495  2.4212
   75MOL0     H10118   0.747   2.174   6.503  1.6204 -2.0282  2.2696
   75MOL0     H10119   0.608   2.399   6.654  1.7738  2.2875 -0.7793
   75MOL0     H10120   0.774   2.400   6.580  1.2247 -0.5956  0.4685
   75MOL0     H10121   0.526   2.481   6.238  1.2022 -0.4493 -0.0530
   75MOL0     H10122   1.023   2.242   6.936 -0.7577  0.2982 -1.1377
   75MOL0     H10123   1.231   2.378   7.175  0.8649 -1.1529 -0.0746
   75MOL0     H10124   1.178   2.238   7.095 -1.0087  1.9897  2.3115
   75MOL0     H10125   1.305   2.342   7.009 -0.0021  0.8990 -1.9343
   76MOL0     O10126   2.820  11.448   5.542  0.2301  0.3578 -0.2591
   76MOL0     C10127   2.717  11.427   5.606  0.2715 -0.1899  0.4298
   76MOL0     O10128   2.653  11.313   5.610 -0.2653  0.5270 -0.1644
   76MOL0     C10129   2.695  11.210   5.524  0.3183 -0.1352 -0.5657
   76MOL0     C10130   2.779  11.119   5.575  0.5883 -0.8064  1.1111
   76MOL0     C10131   2.830  11.026   5.492  0.5309 -0.3292  0.4477
   76MOL0     C10132   2.805  11.022   5.353 -0.6265 -1.1873 -0.2741
   76MOL0     O10133   2.855  10.917   5.273 -0.1127 -0.1626 -0.0811
   76MOL0     C10134   2.826  10.777   5.289 -0.1980 -0.9404  0.1107
   76MOL0     C10135   2.679  10.752   5.246 -0.1244 -0.9841  0.6244
   76MOL0     C10136   2.634  10.615   5.297 -0.1288  0.5292 -0.2233
   76MOL0     C10137   2.481  10.604   5.324  0.1402  0.4005  0.2906
   76MOL0     C10138   2.433  10.468   5.373  0.1462  0.6433 -0.2933
   76MOL0     C10139   2.282  10.469   5.360  0.1222 -0.1358 -0.2728
   76MOL0     C10140   2.219  10.328   5.386  0.6052  0.6496 -0.5503
   76MOL0     C10141   2.215  10.267   5.521  0.1354  0.1310 -0.0782
   76MOL0     N10142   2.135  10.335   5.626  0.3041  0.0400 -0.3318
   76MOL0     C10143   2.108  10.286   5.759 -0.5371  0.2617  1.4243
   76MOL0     C10144   1.993  10.348   5.791  0.1647  0.5784 -0.0528
   76MOL0     C10145   1.930  10.318   5.924  0.3200  0.4105  0.5102
   76MOL0     C10146   1.945  10.450   6.011 -1.4158  0.0814 -0.7651
   76MOL0     C10147   2.060  10.439   6.118  0.3912 -0.3674  0.1839
   76MOL0     C10148   2.074  10.570   6.187  0.3959 -0.5667 -1.0605
   76MOL0     O10149   1.961  10.603   6.276 -0.4766 -0.4258 -0.4888
   76MOL0     C10150   1.962  10.732   6.330  0.1753 -1.2103 -0.1063
   76MOL0     C10151   2.071  10.827   6.323 -0.4523 -0.4421  0.7069
   76MOL0     C10152   2.056  10.968   6.369  0.1192 -0.4320 -0.0955
   76MOL0     C10153   1.931  11.012   6.414 -0.2068 -0.8083  0.6037
   76MOL0     C10154   1.904  11.152   6.454  0.0362 -0.1914 -0.2740
   76MOL0     O10155   1.776  11.178   6.482  0.3777  0.8550 -0.2233
   76MOL0     C10156   1.733  11.285   6.544 -0.5700  1.1864  0.6620
   76MOL0     C10157   1.655  11.285   6.657 -0.8086  0.2984  1.2107
   76MOL0     C10158   1.574  11.392   6.690 -0.3558  0.3556 -1.1498
   76MOL0     C10159   1.583  11.515   6.627  0.0885  0.4832  0.5934
   76MOL0     O10160   1.505  11.619   6.678 -0.3069  0.8414 -0.5555
   76MOL0     C10161   1.527  11.750   6.631 -1.2830 -0.6155 -1.0909
   76MOL0     C10162   1.407  11.841   6.655  0.2755  1.1457 -0.7857
   76MOL0     C10163   1.272  11.780   6.610  0.9578  0.1427  0.3846
   76MOL0     C10164   1.170  11.890   6.607  0.1864 -0.8508  0.1047
   76MOL0     C10165   1.044  11.854   6.538 -0.0656 -1.3748 -0.4063
   76MOL0     C10166   0.979  11.738   6.614 -0.5275  0.4448 -0.1194
   76MOL0     C10167   0.933  11.758   6.757 -0.2391  1.0301 -0.2939
   76MOL0     C10168   0.896  11.624   6.828  0.2219 -0.5340  0.6800
   76MOL0    Cl10169   0.726  11.591   6.809  0.3227 -0.6119  0.5075
   76MOL0     C10170   1.674  11.522   6.517 -1.1971  0.1827  0.0597
   76MOL0     C10171   1.752  11.410   6.478 -0.4306  0.0125 -0.3361
   76MOL0     O10172   2.001  11.228   6.473  0.1409 -0.4121  0.7471
   76MOL0     C10173   1.829  10.914   6.443 -0.7676 -0.4112  0.7658
   76MOL0     C10174   1.844  10.777   6.393  0.1190 -0.3619  0.3483
   76MOL0     N10175   1.940  10.428   5.695 -0.6514 -0.0332  0.5619
   76MOL0     N10176   2.025  10.419   5.591 -0.4553 -0.5512 -0.2773
   76MOL0     C10177   2.716  11.112   5.297 -0.9928 -0.6504 -0.6945
   76MOL0     C10178   2.668  11.212   5.385  0.4329  0.9673  0.3052
   76MOL0     C10179   2.691  11.532   5.701 -0.6265  0.3758  0.4899
   76MOL0     C10180   2.686  11.497   5.835 -0.2029  0.4562  0.3921
   76MOL0     C10181   2.678  11.584   5.937  0.1073  0.1313  0.1916
   76MOL0     C10182   2.658  11.716   5.898  0.3210 -0.7618 -0.2641
   76MOL0     O10183   2.636  11.815   5.990 -0.3221 -0.1472 -0.0254
   76MOL0     C10184   2.584  11.779   6.124 -0.4582 -0.5166 -0.5011
   76MOL0     C10185   2.530  11.904   6.194 -0.1543  0.3307 -0.8679
   76MOL0     C10186   2.459  11.998   6.102  0.2883  0.2561 -0.1656
   76MOL0     C10187   2.486  12.144   6.150  0.3223 -0.5254 -0.3543
   76MOL0     C10188   2.424  12.245   6.067 -1.0985 -0.4505  0.1999
   76MOL0     C10189   2.360  12.333   6.006  0.1093  0.6716 -0.4532
   76MOL0     C10190   2.631  11.756   5.770  0.2258  0.1828 -0.1353
   76MOL0     C10191   2.656  11.670   5.669  0.1347 -0.1182  0.2106
   76MOL0     C10192   2.638  11.704   5.524 -0.1212  0.2126  0.0755
   76MOL0     H10193   2.803  11.106   5.680  0.0015 -3.2583  1.0009
   76MOL0     H10194   2.892  10.953   5.543  1.8834 -0.7714 -1.7323
   76MOL0     H10195   2.899  10.728   5.223 -0.8755  1.0565 -2.3002
   76MOL0     H10196   2.837  10.739   5.391 -1.9998  0.1867  0.7775
   76MOL0     H10197   2.670  10.772   5.139  0.1222 -2.2473  0.3562
   76MOL0     H10198   2.613  10.824   5.296 -0.6551  0.0658 -1.4876
   76MOL0     H10199   2.689  10.578   5.384 -0.2243  2.3888  0.6649
   76MOL0     H10200   2.655  10.543   5.217  0.7615  0.6899 -0.1431
   76MOL0     H10201   2.457  10.682   5.396 -0.4845 -0.1411  0.6869
   76MOL0     H10202   2.436  10.623   5.226 -1.5403 -0.4535  0.8591
   76MOL0     H10203   2.484  10.379   5.336 -1.1373 -0.2851  0.0557
   76MOL0     H10204   2.449  10.464   5.482 -0.9811 -1.0367 -0.1406
   76MOL0     H10205   2.256  10.536   5.442 -1.2169  3.4599 -3.3013
   76MOL0     H10206   2.258  10.507   5.260  0.8481  2.2516  0.4120
   76MOL0     H10207   2.271  10.254   5.325 -2.4956 -2.0002 -0.2794
   76MOL0     H10208   2.115  10.325   5.353  0.0789 -0.1289  1.0911
   76MOL0     H10209   2.179  10.164   5.512  6.4191 -2.5268  0.3356
   76MOL0     H10210   2.319  10.255   5.553  0.0278 -0.6572  0.0088
   76MOL0     H10211   2.153  10.199   5.807  0.0091 -0.5182 -0.4094
   76MOL0     H10212   1.829  10.280   5.909  0.4857  0.2893 -0.3017
   76MOL0     H10213   1.988  10.234   5.964  2.9731  2.4600  1.2932
   76MOL0     H10214   1.949  10.543   5.953 -1.5204  0.7333  0.2357
   76MOL0     H10215   1.848  10.443   6.062 -0.8161  1.1730  0.5756
   76MOL0     H10216   2.158  10.428   6.072 -0.3634  0.6646 -1.7898
   76MOL0     H10217   2.042  10.359   6.191 -0.7720  0.0075  0.3267
   76MOL0     H10218   2.084  10.656   6.120  2.9242 -0.5761 -0.7690
   76MOL0     H10219   2.164  10.560   6.248 -0.9916  0.0882  1.2165
   76MOL0     H10220   2.172  10.802   6.292 -0.0279  0.6487  1.1778
   76MOL0     H10221   2.135  11.038   6.342  1.6892 -1.6935  0.9929
   76MOL0     H10222   1.637  11.192   6.710 -3.7610 -0.4533 -0.8076
   76MOL0     H10223   1.518  11.391   6.782 -1.3267  1.7658 -1.7007
   76MOL0     H10224   1.620  11.786   6.678 -0.3464 -0.3681 -3.0520
   76MOL0     H10225   1.546  11.744   6.524  2.6308 -1.4896 -0.4924
   76MOL0     H10226   1.414  11.849   6.764  2.4299  3.3220 -0.9930
   76MOL0     H10227   1.425  11.933   6.599  0.5496  0.5317 -1.7353
   76MOL0     H10228   1.274  11.727   6.514  2.0536  3.9160 -1.9131
   76MOL0     H10229   1.243  11.703   6.682 -0.9100  0.9611  0.5576
   76MOL0     H10230   1.209  11.975   6.550  1.8051 -2.5524 -1.4237
   76MOL0     H10231   1.142  11.927   6.707  2.4795  3.6678 -0.6769
   76MOL0     H10232   1.078  11.824   6.438  0.8895 -1.3360 -0.1022
   76MOL0     H10233   0.969  11.931   6.516  0.2852 -0.9735 -0.2028
   76MOL0     H10234   0.889  11.717   6.555  2.4242 -2.2895 -4.2309
   76MOL0     H10235   1.042  11.650   6.599  0.1268  1.1952 -2.1568
   76MOL0     H10236   0.847  11.826   6.753 -2.6748 -1.8313 -0.4700
   76MOL0     H10237   1.020  11.796   6.811 -0.1609 -1.4042  1.4610
   76MOL0     H10238   0.958  11.538   6.801  1.6648  0.7328 -0.2039
   76MOL0     H10239   0.898  11.640   6.936  0.5812  1.9859  0.3555
   76MOL0     H10240   1.678  11.609   6.452 -1.7958 -1.3150 -2.0880
   76MOL0     H10241   1.817  11.420   6.392 -0.8197  0.6084 -0.5671
   76MOL0     H10242   1.735  10.940   6.491  0.2761 -0.1508  2.7606
   76MOL0     H10243   1.762  10.706   6.397  1.0349 -1.6751 -2.0921
   76MOL0     H10244   2.699  11.103   5.190 -4.2465  0.3061 -0.3509
   76MOL0     H10245   2.607  11.292   5.344  2.9467  1.9599 -1.8146
   76MOL0     H10246   2.690  11.393   5.866 -1.7128  0.1603 -0.3033
   76MOL0     H10247   2.697  11.540   6.034  1.2227 -2.0567 -0.9390
   76MOL0     H10248   2.664  11.730   6.179  1.6045  0.6666 -2.2952
   76MOL0     H10249   2.503  11.706   6.113  0.6463 -1.9418  0.5069
   76MOL0     H10250   2.611  11.962   6.240 -2.6209  3.8943 -0.5629
   76MOL0     H10251   2.452  11.872   6.264 -2.1677 -1.0471 -3.5843
   76MOL0     H10252   2.352  11.980   6.090  0.7434 -0.4999 -5.9601
   76MOL0     H10253   2.501  12.005   6.001  2.3739 -0.1738  0.6167
   76MOL0     H10254   2.434  12.157   6.245  2.5482 -2.0710  1.1655
   76MOL0     H10255   2.592  12.169   6.155  0.0357  1.1318 -1.5137
   76MOL0     H10256   2.306  12.415   5.963 -0.2808  0.5163 -0.2618
   76MOL0     H10257   2.615  11.862   5.754 -2.4146  0.2156  2.0019
   76MOL0     H10258   2.622  11.619   5.458 -0.6169 -0.8821  1.5533
   76MOL0     H10259   2.542  11.755   5.515 -0.2867 -0.3798 -1.9386
   76MOL0     H10260   2.709  11.777   5.483 -1.7134  1.7534 -0.0757
   77MOL0     O10261   1.221   2.860   6.542 -0.0172 -0.2326 -0.3782
   77MOL0     C10262   1.182   2.960   6.616 -0.7210 -0.6281  0.1340
   77MOL0     O10263   1.257   3.070   6.649 -0.6145 -0.1986  0.7622
   77MOL0     C10264   1.385   3.078   6.589 -0.0195 -0.6664 -0.7734
   77MOL0     C10265   1.486   2.981   6.605 -1.5987 -0.4456 -0.3505
   77MOL0     C10266   1.614   3.010   6.550  0.2550  0.7334  0.1123
   77MOL0     C10267   1.641   3.124   6.475 -0.7151 -0.4452 -0.5791
   77MOL0     O10268   1.764   3.124   6.420 -1.0838  0.4732  0.5727
   77MOL0     C10269   1.806   3.201   6.307  0.6360 -0.2336  0.0804
   77MOL0     C10270   1.867   3.335   6.349 -0.3230  0.1675  0.3421
   77MOL0     C10271   1.989   3.339   6.442 -0.4377 -0.2600  0.5127
   77MOL0     C10272   2.076   3.459   6.412  0.2293 -0.6730 -0.3175
   77MOL0     C10273   2.215   3.440   6.477 -0.4762 -0.1973  0.5626
   77MOL0     C10274   2.223   3.500   6.618 -0.1743 -1.2207  0.5968
   77MOL0     C10275   2.366   3.484   6.667 -0.5986  0.1794 -0.6206
   77MOL0     C10276   2.401   3.579   6.769 -0.4083  0.1065 -0.1640
   77MOL0     N10277   2.515   3.532   6.854  0.6136  0.3691 -0.6211
   77MOL0     C10278   2.651   3.533   6.834  0.9777 -0.1415 -0.5186
   77MOL0     C10279   2.714   3.476   6.934  0.4836  0.5560 -0.6760
   77MOL0     C10280   2.862   3.473   6.974  0.8037  0.5957 -0.2949
   77MOL0     C10281   2.888   3.541   7.108 -0.6983  0.5616  0.1065
   77MOL0     C10282   3.009   3.639   7.105  0.0860  0.5161 -0.0593
   77MOL0     C10283   3.011   3.742   7.215  0.0314  0.0095 -0.2055
   77MOL0     O10284   3.116   3.829   7.175  0.2981  0.5894 -0.1919
   77MOL0     C10285   3.104   3.952   7.238  0.1472 -1.1609 -0.3872
   77MOL0     C10286   3.088   4.081   7.166  0.0093  0.0080 -0.2449
   77MOL0     C10287   3.104   4.202   7.232 -0.0786  0.2271  1.0337
   77MOL0     C10288   3.087   4.208   7.375 -1.1722 -0.0081  0.6305
   77MOL0     C10289   3.090   4.342   7.442 -0.0016 -0.0958  0.0855
   77MOL0     O10290   3.123   4.445   7.351 -0.3402  0.3250 -0.1161
   77MOL0     C10291   3.126   4.571   7.405 -0.7306  0.5469 -0.8574
   77MOL0     C10292   3.210   4.610   7.517  1.4653 -0.5231  0.9506
   77MOL0     C10293   3.213   4.740   7.557  0.2651 -0.6935 -0.5123
   77MOL0     C10294   3.137   4.839   7.492 -0.3129  0.1971 -0.5691
   77MOL0     O10295   3.130   4.966   7.541  0.2249  0.3246 -0.3675
   77MOL0     C10296   2.996   4.988   7.597  0.2613  0.3382 -0.2394
   77MOL0     C10297   2.998   5.092   7.702  0.0206 -0.4318 -0.8521
   77MOL0     C10298   3.050   5.231   7.657  0.7253  0.0531 -0.5716
   77MOL0     C10299   3.030   5.321   7.786  0.3808 -0.2033  0.4433
   77MOL0     C10300   3.149   5.416   7.798 -0.9711 -0.2811 -0.0617
   77MOL0     C10301   3.246   5.375   7.913 -0.7531  0.2065 -0.4720
   77MOL0     C10302   3.382   5.435   7.867  0.3629 -0.3568  0.5450
   77MOL0     C10303   3.481   5.383   7.963 -0.5407  0.4243  0.1613
   77MOL0    Cl10304   3.485   5.495   8.101  0.1485 -0.4791 -0.5384
   77MOL0     C10305   3.056   4.799   7.386 -0.6191 -1.0137 -0.7795
   77MOL0     C10306   3.047   4.665   7.343 -0.1792  0.9865 -0.0002
   77MOL0     O10307   3.061   4.348   7.566  0.2668 -0.3318  0.4572
   77MOL0     C10308   3.086   4.083   7.442 -0.2936 -0.9047  0.5514
   77MOL0     C10309   3.114   3.967   7.380 -0.8313  0.3967  0.2899
   77MOL0     N10310   2.607   3.436   7.020 -0.1949 -0.7018 -0.4430
   77MOL0     N10311   2.492   3.474   6.979  0.5160  0.2778 -0.8495
   77MOL0     C10312   1.547   3.224   6.477 -0.2988 -0.4139 -0.4882
   77MOL0     C10313   1.413   3.196   6.527 -0.7630 -0.3025  0.2909
   77MOL0     C10314   1.060   2.946   6.692  0.2207  0.1359  0.7881
   77MOL0     C10315   1.072   2.961   6.824  0.2662  0.0716 -0.8495
   77MOL0     C10316   0.957   2.968   6.904 -0.0273 -1.3359  0.1164
   77MOL0     C10317   0.826   2.965   6.855 -0.4456 -0.0066 -0.4090
   77MOL0     O10318   0.707   2.959   6.933  0.0831 -0.5096 -0.1304
   77MOL0     C10319   0.730   2.959   7.081  0.5724  0.1614  0.6538
   77MOL0     C10320   0.776   2.825   7.138 -0.2401  0.8383  0.0674
   77MOL0     C10321   0.711   2.781   7.267 -0.7662  0.2352  1.3694
   77MOL0     C10322   0.757   2.857   7.396  0.7329  1.8480  0.7901
   77MOL0     C10323   0.897   2.814   7.407  0.4371 -0.4494 -0.0660
   77MOL0     C10324   1.017   2.775   7.411  0.0061 -1.2368 -0.2514
   77MOL0     C10325   0.819   2.966   6.714 -0.6501  0.3678 -0.8074
   77MOL0     C10326   0.937   2.949   6.635 -0.2884  0.1515  0.5650
   77MOL0     C10327   0.922   2.975   6.490 -0.2195  0.1521 -0.3721
   77MOL0     H10328   1.476   2.897   6.674  1.4715 -2.4049 -2.0306
   77MOL0     H10329   1.697   2.940   6.556  0.1377  0.4819 -0.9761
   77MOL0     H10330   1.872   3.143   6.241  0.5000  1.8047 -2.0005
   77MOL0     H10331   1.719   3.225   6.245  1.6978 -1.1829 -1.9000
   77MOL0     H10332   1.791   3.404   6.386 -0.9904 -1.5936  2.4701
   77MOL0     H10333   1.909   3.374   6.255  1.4887 -1.1772  0.5311
   77MOL0     H10334   2.046   3.246   6.439 -0.5945 -0.3369 -0.2093
   77MOL0     H10335   1.961   3.327   6.547  2.3113 -3.2825  1.0705
   77MOL0     H10336   2.099   3.453   6.305  1.8069 -0.8730  0.0018
   77MOL0     H10337   2.027   3.554   6.436  0.0049 -0.0730 -2.8820
   77MOL0     H10338   2.245   3.334   6.472 -0.9111 -0.3228  0.6075
   77MOL0     H10339   2.290   3.481   6.408  1.7845 -1.7257  1.9420
   77MOL0     H10340   2.208   3.608   6.611  0.6507 -1.2209 -2.5026
   77MOL0     H10341   2.147   3.470   6.691  0.0165  5.3740  4.3471
   77MOL0     H10342   2.438   3.490   6.585  0.4570 -2.7014 -0.0109
   77MOL0     H10343   2.373   3.384   6.712  2.3366  0.7175  0.3329
   77MOL0     H10344   2.429   3.676   6.726  0.8574 -0.0534  0.2635
   77MOL0     H10345   2.313   3.603   6.829  0.4083 -0.2653  1.2281
   77MOL0     H10346   2.691   3.589   6.750  3.2839  0.4605  0.8918
   77MOL0     H10347   2.914   3.377   6.970  3.6804  2.0530 -0.0438
   77MOL0     H10348   2.907   3.524   6.889 -1.7842 -2.0370 -3.5742
   77MOL0     H10349   2.804   3.605   7.137 -1.0625  0.8850 -1.5976
   77MOL0     H10350   2.904   3.469   7.189 -0.2838  2.4328  1.7851
   77MOL0     H10351   3.022   3.688   7.008 -0.4311  2.7402  0.9242
   77MOL0     H10352   3.101   3.580   7.110 -0.0308  0.2382 -0.9749
   77MOL0     H10353   3.034   3.690   7.309  1.4930  0.5116 -0.2541
   77MOL0     H10354   2.909   3.782   7.221  0.5164  1.1910  0.8481
   77MOL0     H10355   3.057   4.097   7.063 -2.5249  1.0745  0.5960
   77MOL0     H10356   3.093   4.290   7.170 -1.5967 -0.8954 -0.3850
   77MOL0     H10357   3.272   4.532   7.561  0.0251 -1.3879  1.5046
   77MOL0     H10358   3.292   4.762   7.629 -0.7903  1.6727  0.0323
   77MOL0     H10359   2.925   5.012   7.518 -1.8078 -2.2954  0.6671
   77MOL0     H10360   2.962   4.896   7.645 -1.2100  0.0023 -1.8490
   77MOL0     H10361   2.899   5.109   7.747 -0.2961 -2.3088 -0.7583
   77MOL0     H10362   3.057   5.056   7.787  1.5684  2.3291 -0.6226
   77MOL0     H10363   3.158   5.223   7.639  0.4045 -1.9346 -1.9371
   77MOL0     H10364   3.004   5.262   7.563  1.1835 -0.9242 -1.1392
   77MOL0     H10365   3.011   5.259   7.875 -0.6835 -4.1221 -2.2195
   77MOL0     H10366   2.943   5.386   7.775  1.1690  0.8337  0.2023
   77MOL0     H10367   3.115   5.519   7.811  1.9978  1.0357 -1.7061
   77MOL0     H10368   3.190   5.410   7.697 -1.1369 -2.0072 -0.0612
   77MOL0     H10369   3.217   5.425   8.007 -0.1238 -1.2061  0.5105
   77MOL0     H10370   3.259   5.267   7.922  0.0168  0.2645 -0.8748
   77MOL0     H10371   3.384   5.545   7.860 -2.0948 -0.3745 -1.7911
   77MOL0     H10372   3.406   5.385   7.773 -0.2570  1.7187 -0.7935
   77MOL0     H10373   3.446   5.288   8.005 -1.6758  1.4604  1.6774
   77MOL0     H10374   3.583   5.383   7.924 -0.1085 -3.0019  0.9193
   77MOL0     H10375   3.007   4.876   7.328 -0.2895 -1.2381 -1.3634
   77MOL0     H10376   2.980   4.626   7.267 -0.4864 -3.0444  2.0660
   77MOL0     H10377   3.088   4.091   7.550 -1.2696 -1.5297  0.6309
   77MOL0     H10378   3.141   3.879   7.438 -1.3068  0.1689  0.1732
   77MOL0     H10379   1.580   3.320   6.438 -1.1326  0.2805  0.4642
   77MOL0     H10380   1.336   3.273   6.522 -1.2325 -0.7689  0.2375
   77MOL0     H10381   1.169   2.961   6.872  0.2026  1.5532 -0.6873
   77MOL0     H10382   0.980   2.972   7.009 -1.3199  0.7164  0.3719
   77MOL0     H10383   0.643   2.993   7.138  0.3557  1.8107 -0.6077
   77MOL0     H10384   0.800   3.039   7.107  1.5367 -0.7895  1.0754
   77MOL0     H10385   0.885   2.825   7.148 -0.2195  2.0379 -0.0291
   77MOL0     H10386   0.742   2.744   7.073  1.3094  0.4605 -0.3089
   77MOL0     H10387   0.715   2.674   7.289  0.0559 -0.0400 -0.0445
   77MOL0     H10388   0.605   2.797   7.248 -0.9634 -1.3227  1.0833
   77MOL0     H10389   0.741   2.965   7.388 -0.6918  1.5129 -2.2064
   77MOL0     H10390   0.699   2.822   7.482  1.6910  2.2997  1.6488
   77MOL0     H10391   1.118   2.738   7.414  0.1673 -0.7847  0.0679
   77MOL0     H10392   0.721   2.977   6.668 -0.2700  0.6518 -1.5644
   77MOL0     H10393   0.881   3.075   6.477  0.0957  0.1629 -1.4212
   77MOL0     H10394   1.017   2.958   6.437 -1.1776 -3.4945 -1.2395
   77MOL0     H10395   0.851   2.899   6.455  0.1492 -2.2437  3.4800
   78MOL0     O10396   3.328   6.712   5.243  0.3655 -0.0411 -0.0123
   78MOL0     C10397   3.416   6.628   5.223 -0.2323 -0.0585 -0.3414
   78MOL0     O10398   3.532   6.624   5.292  1.1184  0.3675  0.3083
   78MOL0     C10399   3.563   6.720   5.378 -0.4280 -0.3087 -0.1952
   78MOL0     C10400   3.566   6.856   5.337 -1.1668 -1.3828  0.0218
   78MOL0     C10401   3.601   6.958   5.424  0.5585 -0.1229 -0.2195
   78MOL0     C10402   3.652   6.919   5.553  0.1173 -0.8729 -0.8225
   78MOL0     O10403   3.686   7.027   5.637 -0.3538 -0.1628  0.3152
   78MOL0     C10404   3.780   6.995   5.743  0.4022  0.3725 -0.4043
   78MOL0     C10405   3.920   7.030   5.716  1.0310 -0.9233 -0.1386
   78MOL0     C10406   3.981   6.958   5.592  0.5760  1.2766 -0.4181
   78MOL0     C10407   4.009   6.804   5.623  0.9608 -0.0952 -0.6215
   78MOL0     C10408   4.073   6.752   5.503 -0.3844 -0.1624 -0.3655
   78MOL0     C10409   4.084   6.599   5.493 -0.3610  0.4943  0.2955
   78MOL0     C10410   3.954   6.538   5.445  0.9577 -0.6216  0.8376
   78MOL0     C10411   3.930   6.382   5.465 -0.0529  0.2047  0.6757
   78MOL0     N10412   3.982   6.332   5.585  0.8697  0.6669 -0.6537
   78MOL0     C10413   3.912   6.335   5.699 -0.4924  0.4356 -0.4622
   78MOL0     C10414   3.986   6.262   5.781  0.2085  0.3051 -0.3207
   78MOL0     C10415   3.938   6.227   5.920  0.2390 -0.0298  0.4238
   78MOL0     C10416   3.895   6.077   5.947 -1.2288 -0.1124 -0.0230
   78MOL0     C10417   4.015   5.975   5.938  0.6447  0.2870  0.6913
   78MOL0     C10418   3.994   5.852   6.042  0.2979 -0.0266 -0.2692
   78MOL0     O10419   4.005   5.911   6.169 -0.2937  0.3528 -0.2491
   78MOL0     C10420   4.021   5.813   6.272 -0.2689 -0.2706 -0.0777
   78MOL0     C10421   4.060   5.855   6.400 -0.0001  0.2543 -1.1367
   78MOL0     C10422   4.079   5.756   6.498 -0.9580  0.2156  0.2120
   78MOL0     C10423   4.059   5.618   6.473  0.0823  0.7103 -0.8265
   78MOL0     C10424   4.089   5.509   6.571  0.0191  0.4622  1.0288
   78MOL0     O10425   4.044   5.384   6.554  0.7189  0.6500  0.1977
   78MOL0     C10426   4.102   5.268   6.614 -0.8393 -0.0267  0.3964
   78MOL0     C10427   4.240   5.258   6.647 -0.8706  0.9503 -0.4011
   78MOL0     C10428   4.299   5.133   6.662  1.0956  0.4909  0.4402
   78MOL0     C10429   4.210   5.025   6.695 -0.2494 -0.4133  0.2112
   78MOL0     O10430   4.263   4.906   6.728 -0.3913 -0.5084 -0.4990
   78MOL0     C10431   4.367   4.906   6.830  0.1365 -0.3721 -0.7596
   78MOL0     C10432   4.377   4.762   6.889  0.3051  0.0065  0.1225
   78MOL0     C10433   4.234   4.702   6.917  0.5641  0.6940 -0.2377
   78MOL0     C10434   4.248   4.573   7.000 -0.0127  0.1412  0.3464
   78MOL0     C10435   4.105   4.526   7.060  0.1367 -0.4061 -0.2054
   78MOL0     C10436   4.107   4.377   7.104  0.6060  0.1942  0.4748
   78MOL0     C10437   3.981   4.333   7.185  1.0512  0.4756 -0.9851
   78MOL0     C10438   3.869   4.285   7.090 -0.7592  0.7488  0.2311
   78MOL0    Cl10439   3.885   4.103   7.039  0.1717  0.1860  0.1413
   78MOL0     C10440   4.080   5.041   6.678  0.0630 -0.4880  0.0331
   78MOL0     C10441   4.023   5.154   6.624 -0.4297 -0.2919  0.1723
   78MOL0     O10442   4.155   5.541   6.666 -0.4203 -0.3934  0.3556
   78MOL0     C10443   4.003   5.587   6.350 -0.3058  0.2167  0.2722
   78MOL0     C10444   3.982   5.685   6.252  0.1685 -0.3356 -0.5054
   78MOL0     N10445   4.091   6.215   5.714 -0.4758  0.3394 -0.2165
   78MOL0     N10446   4.094   6.258   5.594 -0.5516 -0.8469 -0.9847
   78MOL0     C10447   3.624   6.794   5.600  0.6086  0.2097  0.3989
   78MOL0     C10448   3.582   6.690   5.515 -0.5017  0.3262 -0.0329
   78MOL0     C10449   3.407   6.528   5.118  1.1635  0.4655 -0.6539
   78MOL0     C10450   3.371   6.570   4.987 -0.4483 -0.1944  1.0575
   78MOL0     C10451   3.337   6.481   4.885  0.0808 -0.1834 -0.1424
   78MOL0     C10452   3.349   6.346   4.903 -0.5762 -0.2669  0.3503
   78MOL0     O10453   3.330   6.273   4.798 -0.0127 -0.0734  0.4853
   78MOL0     C10454   3.400   6.145   4.778  0.2309  0.2511  0.3118
   78MOL0     C10455   3.301   6.031   4.821  0.3920  0.5471 -0.2315
   78MOL0     C10456   3.179   6.025   4.723 -0.4001  0.6386 -0.4463
   78MOL0     C10457   3.138   5.882   4.686  0.6971  0.6552 -0.2086
   78MOL0     C10458   3.029   5.896   4.589  0.9979 -0.4432 -0.5663
   78MOL0     C10459   2.922   5.901   4.524  0.0657 -0.4881 -1.0070
   78MOL0     C10460   3.393   6.295   5.020  0.9589  0.5628 -0.0215
   78MOL0     C10461   3.420   6.379   5.134  1.0781 -0.5203  1.0433
   78MOL0     C10462   3.466   6.320   5.262 -0.7392  0.6995  0.3662
   78MOL0     H10463   3.544   6.881   5.233 -1.4036 -3.9294 -0.5967
   78MOL0     H10464   3.613   7.060   5.387  5.3195  0.6274  2.5230
   78MOL0     H10465   3.731   7.041   5.829 -0.7130 -2.1390  0.3838
   78MOL0     H10466   3.791   6.891   5.773 -0.1141  1.0267  2.4081
   78MOL0     H10467   3.978   7.014   5.808  1.7204 -0.0537 -0.4187
   78MOL0     H10468   3.936   7.131   5.677  0.6735 -0.9063 -0.2454
   78MOL0     H10469   4.075   7.008   5.569 -0.0829  3.2513  0.8848
   78MOL0     H10470   3.918   6.979   5.505  0.1430  1.0330 -0.1718
   78MOL0     H10471   4.072   6.787   5.710  1.3624 -0.0603 -0.9020
   78MOL0     H10472   3.915   6.753   5.644 -0.3370  2.1231 -0.7371
   78MOL0     H10473   4.044   6.791   5.405  0.7056  2.1709  0.1657
   78MOL0     H10474   4.177   6.787   5.505 -0.9331  1.5935  2.1180
   78MOL0     H10475   4.165   6.563   5.430  0.9947 -0.2624  2.3483
   78MOL0     H10476   4.101   6.565   5.596  0.9302  4.6209  1.6246
   78MOL0     H10477   3.962   6.562   5.338  3.7821  0.1090  1.1329
   78MOL0     H10478   3.869   6.592   5.488  0.2548 -1.8315  1.0214
   78MOL0     H10479   3.824   6.359   5.450  0.4773 -1.4091 -1.1091
   78MOL0     H10480   3.985   6.334   5.383 -2.3998  0.0066 -0.9037
   78MOL0     H10481   3.820   6.390   5.718 -0.4620 -0.6269  3.7858
   78MOL0     H10482   4.016   6.255   5.991  2.1850  1.4873 -2.1323
   78MOL0     H10483   3.848   6.288   5.925 -0.1484 -0.3803 -1.4034
   78MOL0     H10484   3.856   6.067   6.049  1.5330  0.6850  1.1903
   78MOL0     H10485   3.825   6.041   5.870  0.4216 -1.4111 -0.9820
   78MOL0     H10486   4.103   6.027   5.979  0.8770  0.7431 -0.3573
   78MOL0     H10487   4.034   5.943   5.835  1.5128 -2.7203  1.6807
   78MOL0     H10488   4.067   5.776   6.014 -0.2580  0.3878 -3.1606
   78MOL0     H10489   3.896   5.816   6.008 -1.1994  3.0054  0.4595
   78MOL0     H10490   4.096   5.956   6.418  0.5344  0.1500 -1.5634
   78MOL0     H10491   4.103   5.781   6.601  0.0176  1.0839 -0.1973
   78MOL0     H10492   4.301   5.347   6.635 -2.6917  2.0057 -2.4993
   78MOL0     H10493   4.406   5.113   6.664  1.2833  1.4617  2.6071
   78MOL0     H10494   4.466   4.936   6.794 -0.2908  0.4403 -1.3074
   78MOL0     H10495   4.342   4.973   6.912 -1.6682 -2.2099  0.2777
   78MOL0     H10496   4.441   4.699   6.828  1.2557 -0.0357  1.1184
   78MOL0     H10497   4.429   4.779   6.984 -1.5274 -1.1864  1.4152
   78MOL0     H10498   4.161   4.766   6.967  0.1254  0.1207 -0.1314
   78MOL0     H10499   4.186   4.684   6.820 -4.1366  0.8906  1.7877
   78MOL0     H10500   4.319   4.593   7.081  2.6769  2.4629 -2.3293
   78MOL0     H10501   4.292   4.492   6.941  1.5541 -1.0048  2.9269
   78MOL0     H10502   4.030   4.536   6.981  0.9445 -1.5232 -1.1454
   78MOL0     H10503   4.062   4.587   7.141 -1.4191  0.2993 -1.5036
   78MOL0     H10504   4.119   4.305   7.022 -0.4498  0.8332 -0.2607
   78MOL0     H10505   4.194   4.360   7.168 -0.6955 -1.6970  1.9025
   78MOL0     H10506   3.958   4.421   7.246  3.4278  2.8105 -3.2033
   78MOL0     H10507   4.015   4.249   7.246  1.7473  2.5155  1.6074
   78MOL0     H10508   3.765   4.303   7.119 -0.3220  0.6242  1.9922
   78MOL0     H10509   3.890   4.342   6.999 -2.6639 -1.3816 -1.6633
   78MOL0     H10510   4.026   4.949   6.697 -0.2520 -1.1178 -3.2492
   78MOL0     H10511   3.918   5.167   6.598 -1.0894 -0.8621  2.3378
   78MOL0     H10512   3.975   5.484   6.331  0.5943 -0.3127  1.6745
   78MOL0     H10513   3.942   5.649   6.157  1.0007 -2.7434 -0.0357
   78MOL0     H10514   3.647   6.763   5.701  2.2212 -0.0454 -0.0081
   78MOL0     H10515   3.568   6.588   5.547 -0.3007  0.5348  0.7422
   78MOL0     H10516   3.370   6.676   4.967  1.4556 -0.1339  1.1704
   78MOL0     H10517   3.313   6.516   4.785  1.4334 -0.9333 -0.7555
   78MOL0     H10518   3.501   6.138   4.820  1.1848  0.1304 -1.8995
   78MOL0     H10519   3.414   6.133   4.671 -1.5286 -0.2217  0.1069
   78MOL0     H10520   3.269   6.040   4.925  2.9459  0.5357  0.6373
   78MOL0     H10521   3.366   5.944   4.808 -0.6294 -0.1185 -0.9893
   78MOL0     H10522   3.197   6.083   4.633  1.8565  0.3092 -0.2459
   78MOL0     H10523   3.090   6.064   4.775 -0.4516 -1.4549  1.2068
   78MOL0     H10524   3.218   5.826   4.637 -0.5055 -1.5085  0.1547
   78MOL0     H10525   3.103   5.834   4.778 -1.4313 -1.9140 -2.1702
   78MOL0     H10526   2.838   5.927   4.463  1.7847  2.5736 -2.2715
   78MOL0     H10527   3.396   6.189   5.043  1.8786  0.5768 -0.0352
   78MOL0     H10528   3.405   6.234   5.293 -1.8297  0.5420 -2.0011
   78MOL0     H10529   3.571   6.290   5.262 -1.0079 -0.2915  0.8860
   78MOL0     H10530   3.455   6.395   5.340 -5.5335  3.3956 -2.4625
   79MOL0     O10531   3.741   7.667   7.480  0.4871 -0.3046  0.0879
   79MOL0     C10532   3.661   7.681   7.570 -0.2906 -0.3054 -0.7013
   79MOL0     O10533   3.555   7.759   7.566 -0.0320  0.5340  0.5486
   79MOL0     C10534   3.548   7.871   7.487  0.8660 -0.8537 -0.0788
   79MOL0     C10535   3.495   7.845   7.368 -0.5839 -0.3319  0.7225
   79MOL0     C10536   3.452   7.947   7.266  0.2494 -0.4107 -1.0377
   79MOL0     C10537   3.466   8.077   7.306  0.0064 -0.3838  0.5661
   79MOL0     O10538   3.420   8.170   7.214 -0.0191 -0.3150 -0.7176
   79MOL0     C10539   3.415   8.305   7.271 -0.5769  0.0918  0.1455
   79MOL0     C10540   3.408   8.404   7.151  0.2212 -0.5103  0.7549
   79MOL0     C10541   3.365   8.537   7.210  0.9352 -0.5111 -1.3467
   79MOL0     C10542   3.345   8.621   7.077  0.2695 -0.8735 -1.0503
   79MOL0     C10543   3.320   8.771   7.116  1.1783 -0.8641  0.2408
   79MOL0     C10544   3.340   8.868   7.007 -1.0881 -0.8123 -0.7536
   79MOL0     C10545   3.301   9.022   7.040 -0.0660 -0.5037  0.0217
   79MOL0     C10546   3.344   9.109   6.921 -0.0927  0.1216 -0.1263
   79MOL0     N10547   3.317   9.255   6.936 -0.4124  0.0870 -0.7638
   79MOL0     C10548   3.200   9.308   6.987 -0.1157  0.7675  0.0574
   79MOL0     C10549   3.222   9.439   7.011 -0.8096  0.6175 -0.8147
   79MOL0     C10550   3.131   9.542   7.082 -0.1694  0.5164 -0.6237
   79MOL0     C10551   3.147   9.669   6.995 -0.4475  0.0872 -0.5245
   79MOL0     C10552   3.045   9.782   7.046 -1.0273  0.4712  0.3187
   79MOL0     C10553   3.047   9.914   6.974 -1.0465 -0.2516  0.1358
   79MOL0     O10554   3.183   9.967   6.967  0.3931  1.0923  0.3303
   79MOL0     C10555   3.193  10.100   6.947  0.4824 -0.3930 -0.1276
   79MOL0     C10556   3.091  10.190   6.899  0.4054 -0.0225 -0.3926
   79MOL0     C10557   3.118  10.326   6.878  2.1418 -0.4401  0.0990
   79MOL0     C10558   3.248  10.379   6.914 -0.1135 -0.6406  0.0704
   79MOL0     C10559   3.281  10.518   6.874  2.0613  0.0723  0.0313
   79MOL0     O10560   3.173  10.595   6.838 -0.4546 -0.2246 -0.4871
   79MOL0     C10561   3.189  10.727   6.800  0.2027  0.2958  0.4783
   79MOL0     C10562   3.245  10.824   6.881 -0.1653 -0.8848  0.2224
   79MOL0     C10563   3.237  10.969   6.846 -0.2885 -0.5250 -0.7004
   79MOL0     C10564   3.162  11.020   6.736 -0.9003 -0.5441  0.5371
   79MOL0     O10565   3.153  11.155   6.702  0.5144  0.3955 -0.2532
   79MOL0     C10566   3.191  11.252   6.789  0.1085 -0.5602 -0.1749
   79MOL0     C10567   3.149  11.392   6.742  0.1070 -0.1139 -0.1938
   79MOL0     C10568   3.256  11.496   6.785  0.6241  0.2738  0.5893
   79MOL0     C10569   3.211  11.640   6.761  0.5348  0.2457  0.0592
   79MOL0     C10570   3.331  11.742   6.743  0.3311  0.0624 -1.0181
   79MOL0     C10571   3.283  11.871   6.663 -0.2960  0.1436 -0.2695
   79MOL0     C10572   3.415  11.958   6.657  0.9478 -0.9568  0.0424
   79MOL0     C10573   3.374  12.080   6.568  0.6243  0.1842  0.0841
   79MOL0    Cl10574   3.515  12.175   6.499 -0.1104  0.2249 -0.3315
   79MOL0     C10575   3.108  10.917   6.657  0.2332  0.1734 -0.7287
   79MOL0     C10576   3.119  10.779   6.691  0.2551  0.7927 -0.4332
   79MOL0     O10577   3.400  10.553   6.867 -0.1100  0.1228  0.5168
   79MOL0     C10578   3.346  10.289   6.948 -1.0679 -0.3181 -0.0089
   79MOL0     C10579   3.322  10.151   6.974  0.2951 -0.6927 -0.0733
   79MOL0     N10580   3.352   9.454   6.971 -0.0827  0.2500  0.0987
   79MOL0     N10581   3.402   9.350   6.913 -0.4173 -0.8396 -0.4595
   79MOL0     C10582   3.508   8.105   7.442 -0.6287  0.0879 -0.0665
   79MOL0     C10583   3.548   8.002   7.532 -0.3147  0.0008 -0.4166
   79MOL0     C10584   3.666   7.581   7.677 -0.1472  0.0343  0.2378
   79MOL0     C10585   3.545   7.558   7.751 -0.3440 -0.1513 -0.5430
   79MOL0     C10586   3.530   7.465   7.855 -0.3914  0.0147  0.6851
   79MOL0     C10587   3.644   7.418   7.905  0.3150  0.7423 -0.7479
   79MOL0     O10588   3.651   7.330   8.014  0.3741  0.0279  0.3661
   79MOL0     C10589   3.536   7.291   8.098  0.2966 -0.1201 -0.0746
   79MOL0     C10590   3.558   7.178   8.202  0.0429  0.5978 -0.0816
   79MOL0     C10591   3.423   7.185   8.282 -0.8669  0.6486  0.2812
   79MOL0     C10592   3.427   7.067   8.377  0.1747 -0.2190 -0.2286
   79MOL0     C10593   3.521   7.091   8.489 -1.0107 -1.4018 -0.1790
   79MOL0     C10594   3.582   7.113   8.596 -0.4752  0.4667  0.3001
   79MOL0     C10595   3.766   7.436   7.840  0.5461 -0.3065 -0.6348
   79MOL0     C10596   3.780   7.508   7.721  0.8701 -0.2888 -0.5947
   79MOL0     C10597   3.925   7.525   7.676 -1.1523 -0.0293  0.6906
   79MOL0     H10598   3.484   7.738   7.351  2.0681 -0.8300  1.7400
   79MOL0     H10599   3.421   7.906   7.170 -0.7107  2.8964 -2.2862
   79MOL0     H10600   3.328   8.325   7.334 -1.2801  3.3912 -1.6358
   79MOL0     H10601   3.504   8.333   7.326  0.7427 -0.8245 -1.4291
   79MOL0     H10602   3.328   8.373   7.084  1.0102  1.3394 -1.1648
   79MOL0     H10603   3.498   8.400   7.089 -0.1605  0.1826  0.1342
   79MOL0     H10604   3.446   8.572   7.275 -1.5327  1.0538  1.1168
   79MOL0     H10605   3.271   8.532   7.266  1.0606  4.4740 -0.2142
   79MOL0     H10606   3.441   8.620   7.024 -0.6423 -1.0065 -2.7630
   79MOL0     H10607   3.270   8.595   7.002 -1.4816  1.3921 -0.2155
   79MOL0     H10608   3.216   8.786   7.144  0.6934 -2.0301 -0.8242
   79MOL0     H10609   3.365   8.803   7.210 -0.9794  2.0002  0.4283
   79MOL0     H10610   3.445   8.861   6.978 -1.1834 -1.4699 -0.9630
   79MOL0     H10611   3.275   8.835   6.926  0.1331 -1.4668 -1.4944
   79MOL0     H10612   3.359   9.052   7.127  2.5052  0.4371 -1.8672
   79MOL0     H10613   3.193   9.015   7.056  0.1117 -1.7061  0.8503
   79MOL0     H10614   3.451   9.095   6.906 -0.2408 -0.0890 -1.0320
   79MOL0     H10615   3.289   9.072   6.834 -1.9613  0.5317  0.8094
   79MOL0     H10616   3.114   9.248   7.015 -1.1836  1.7790 -0.9616
   79MOL0     H10617   3.028   9.506   7.091 -0.8819  2.7761  1.4955
   79MOL0     H10618   3.175   9.553   7.182 -0.5095 -0.6493 -0.3260
   79MOL0     H10619   3.252   9.695   7.006 -0.1223 -1.8312  1.9486
   79MOL0     H10620   3.130   9.644   6.890 -1.7010  1.9350 -0.8196
   79MOL0     H10621   3.066   9.788   7.153 -0.4364 -3.3704  0.5617
   79MOL0     H10622   2.944   9.744   7.033 -0.6566 -0.0609 -1.1316
   79MOL0     H10623   2.994   9.988   7.035  1.8768  2.0891  0.0747
   79MOL0     H10624   2.996   9.907   6.878  1.3227  0.2528 -1.2444
   79MOL0     H10625   2.986  10.165   6.889 -0.4545  0.6272  4.3746
   79MOL0     H10626   3.041  10.396   6.846  0.2889 -1.8548  1.2677
   79MOL0     H10627   3.276  10.795   6.981  1.7172 -1.5591 -0.5242
   79MOL0     H10628   3.284  11.037   6.917 -1.6381 -0.0746 -0.2196
   79MOL0     H10629   3.144  11.234   6.886  1.7959 -0.2030  0.7494
   79MOL0     H10630   3.299  11.234   6.797  0.1505 -0.1051  0.3550
   79MOL0     H10631   3.122  11.396   6.636  0.1681 -0.2674 -0.2154
   79MOL0     H10632   3.060  11.419   6.799 -0.0530 -2.5240  0.8297
   79MOL0     H10633   3.281  11.483   6.890  1.5688 -2.6684  0.0977
   79MOL0     H10634   3.345  11.471   6.725 -0.4270 -1.1582 -0.4510
   79MOL0     H10635   3.150  11.677   6.844 -1.0309 -0.1503 -0.8578
   79MOL0     H10636   3.148  11.659   6.673  1.1867  3.5733  0.1772
   79MOL0     H10637   3.410  11.695   6.682 -0.3862 -0.2225 -1.7397
   79MOL0     H10638   3.366  11.779   6.840  0.2783 -0.3448 -0.8441
   79MOL0     H10639   3.242  11.853   6.563 -0.1537  1.1700 -0.5264
   79MOL0     H10640   3.199  11.922   6.711 -1.3210 -0.0425 -1.7815
   79MOL0     H10641   3.500  11.901   6.618  0.7020 -0.2044 -1.7209
   79MOL0     H10642   3.441  12.004   6.752  3.3480 -2.1070  0.0034
   79MOL0     H10643   3.308  12.054   6.485 -0.2314 -0.1894  0.8726
   79MOL0     H10644   3.305  12.147   6.621 -0.0068  0.1705 -0.7143
   79MOL0     H10645   3.065  10.940   6.560 -1.7715  0.1196  0.0901
   79MOL0     H10646   3.077  10.704   6.624  0.8506 -1.9129  2.0291
   79MOL0     H10647   3.446  10.328   6.960 -0.1896 -0.5424 -4.5193
   79MOL0     H10648   3.400  10.091   7.019 -1.4359 -2.3364  0.8347
   79MOL0     H10649   3.499   8.206   7.483 -0.1767 -0.2895  1.0013
   79MOL0     H10650   3.577   8.033   7.632 -3.5344 -0.6456  0.8491
   79MOL0     H10651   3.457   7.612   7.717 -0.2642  0.8396  0.7264
   79MOL0     H10652   3.433   7.450   7.901 -0.4570 -1.2827  0.1691
   79MOL0     H10653   3.462   7.251   8.029  0.6387  0.1004 -0.5733
   79MOL0     H10654   3.509   7.382   8.154  2.1619 -0.2138  1.0642
   79MOL0     H10655   3.637   7.206   8.273 -1.4783  0.7236  1.6310
   79MOL0     H10656   3.560   7.079   8.155 -0.5009 -0.6323  2.3092
   79MOL0     H10657   3.329   7.179   8.227 -1.0706  2.0162  0.4634
   79MOL0     H10658   3.419   7.270   8.351 -3.4189  0.6849  0.1865
   79MOL0     H10659   3.327   7.038   8.410 -0.0013 -0.2241 -0.7582
   79MOL0     H10660   3.459   6.976   8.325 -0.6916 -0.3469 -0.5595
   79MOL0     H10661   3.639   7.142   8.682  2.9561 -1.3282 -1.1658
   79MOL0     H10662   3.856   7.394   7.883  1.3093  3.0650  1.4840
   79MOL0     H10663   3.981   7.431   7.677 -1.7475 -0.4994 -1.9357
   79MOL0     H10664   3.928   7.547   7.569 -0.4104 -1.9352  0.2724
   79MOL0     H10665   3.969   7.600   7.742 -3.9198  1.9911  0.4137
   80MOL0     O10666  11.462   3.801   2.567 -0.4064  0.2935 -0.4683
   80MOL0     C10667  11.538   3.845   2.662  0.5087  1.6214  0.3616
   80MOL0     O10668  11.653   3.904   2.649  0.1596  0.0447  0.5799
   80MOL0     C10669  11.684   4.002   2.552  0.1277 -0.0151 -0.7031
   80MOL0     C10670  11.589   4.061   2.463  0.0533  0.2058  0.2706
   80MOL0     C10671  11.642   4.140   2.362 -0.5203 -0.3771 -0.0353
   80MOL0     C10672  11.780   4.176   2.357  0.2247  1.1398  0.4083
   80MOL0     O10673  11.829   4.273   2.278 -0.2289  0.4739  0.0560
   80MOL0     C10674  11.784   4.284   2.141 -0.1096  0.3103  0.5958
   80MOL0     C10675  11.829   4.163   2.056  0.8674 -0.3976 -0.4780
   80MOL0     C10676  11.744   4.156   1.932 -0.0044 -0.1064  0.8017
   80MOL0     C10677  11.768   4.023   1.851  0.3054 -1.2495 -0.6636
   80MOL0     C10678  11.683   4.040   1.722  0.1159 -0.1066 -0.0426
   80MOL0     C10679  11.682   3.913   1.631 -0.2397  1.0101 -0.1653
   80MOL0     C10680  11.614   3.932   1.495  0.2076 -0.1833  0.2235
   80MOL0     C10681  11.465   3.883   1.505  0.5307 -0.0750 -0.4853
   80MOL0     N10682  11.385   3.924   1.384 -0.1411  1.1839  0.1050
   80MOL0     C10683  11.344   4.054   1.359 -0.7189  0.4297 -0.2370
   80MOL0     C10684  11.327   4.063   1.223  0.1483 -0.2294 -0.7376
   80MOL0     C10685  11.275   4.179   1.132 -0.3035  0.4923 -0.6201
   80MOL0     C10686  11.383   4.267   1.064  0.9290 -0.8153  0.0531
   80MOL0     C10687  11.339   4.369   0.949 -0.9692  1.7524  0.5471
   80MOL0     C10688  11.218   4.461   0.967  1.7920 -0.4105 -0.1522
   80MOL0     O10689  11.100   4.396   1.032 -0.4502  0.4881  0.3193
   80MOL0     C10690  10.979   4.424   0.980 -0.5346  0.1264 -0.3278
   80MOL0     C10691  10.865   4.346   0.993  0.8655 -0.0886 -0.1964
   80MOL0     C10692  10.740   4.383   0.941  0.1288  0.1010  0.1336
   80MOL0     C10693  10.722   4.499   0.865 -0.1610  0.9682 -0.3809
   80MOL0     C10694  10.591   4.543   0.814  0.2535  1.3140  0.5478
   80MOL0     O10695  10.504   4.431   0.802  0.3343  0.5692  0.3616
   80MOL0     C10696  10.402   4.435   0.719 -0.3921 -0.0309 -0.5227
   80MOL0     C10697  10.410   4.499   0.599 -0.1044 -0.2693  0.5527
   80MOL0     C10698  10.311   4.482   0.501  0.5281  0.7752 -0.3013
   80MOL0     C10699  10.200   4.407   0.536  0.3880  0.2805 -0.1312
   80MOL0     O10700  10.098   4.382   0.445 -0.7465  0.1678  0.4406
   80MOL0     C10701  10.052   4.497   0.378  0.0779  0.0535 -0.2712
   80MOL0     C10702   9.917   4.461   0.308  0.1300  0.1326 -0.4014
   80MOL0     C10703   9.857   4.581   0.231  0.3360 -0.1064  0.3058
   80MOL0     C10704   9.721   4.536   0.163  0.9256  1.0550  0.4320
   80MOL0     C10705   9.683   4.621   0.039  0.8156 -0.7957 -0.7878
   80MOL0     C10706   9.545   4.589  -0.022 -0.7233  0.1663  0.4900
   80MOL0     C10707   9.434   4.623   0.082  0.1592 -0.5573  0.6868
   80MOL0     C10708   9.297   4.676   0.034 -0.6681  0.2260 -0.0650
   80MOL0    Cl10709   9.319   4.842  -0.003 -0.2245 -0.1578 -0.5443
   80MOL0     C10710  10.188   4.339   0.662  0.4648  0.1131  0.1097
   80MOL0     C10711  10.289   4.355   0.748 -0.0760  0.8395 -0.4834
   80MOL0     O10712  10.565   4.661   0.788 -0.1787  0.7834  0.4172
   80MOL0     C10713  10.838   4.578   0.847 -0.1299  0.0750 -0.2497
   80MOL0     C10714  10.954   4.539   0.906  0.1590 -0.4177  0.8344
   80MOL0     N10715  11.365   3.941   1.173  1.6864  0.0181  0.7271
   80MOL0     N10716  11.397   3.858   1.262  1.0349 -0.2007 -0.2573
   80MOL0     C10717  11.868   4.131   2.457 -0.1602  0.2496  0.8160
   80MOL0     C10718  11.819   4.039   2.545 -0.2793 -0.3684  1.2399
   80MOL0     C10719  11.503   3.808   2.798 -0.4421 -0.3779  0.4216
   80MOL0     C10720  11.385   3.734   2.815 -0.5663  0.1168  0.6690
   80MOL0     C10721  11.343   3.689   2.937 -1.2759 -0.2417 -0.1450
   80MOL0     C10722  11.420   3.725   3.049 -0.0478 -0.1716  0.2759
   80MOL0     O10723  11.367   3.687   3.168 -0.0122 -0.3156 -0.7595
   80MOL0     C10724  11.422   3.753   3.284 -1.0862 -0.6155  0.2720
   80MOL0     C10725  11.310   3.757   3.380 -0.0555  0.6391 -1.1408
   80MOL0     C10726  11.299   3.617   3.455  0.6808  0.2052  1.3383
   80MOL0     C10727  11.229   3.487   3.383 -0.6334 -0.5948  1.8017
   80MOL0     C10728  11.098   3.523   3.322  0.1303 -0.0292  0.3793
   80MOL0     C10729  11.002   3.556   3.257  0.6259  0.3900 -0.1238
   80MOL0     C10730  11.548   3.782   3.026 -0.7194  0.3490  0.3048
   80MOL0     C10731  11.587   3.838   2.908  0.2179  0.3729  0.2166
   80MOL0     C10732  11.730   3.897   2.912  0.5205 -0.1207 -0.1826
   80MOL0     H10733  11.481   4.053   2.466 -0.0370  1.4350  2.4096
   80MOL0     H10734  11.572   4.187   2.294  0.0045 -3.2100 -2.7729
   80MOL0     H10735  11.676   4.302   2.136  0.0174  1.0867  0.5728
   80MOL0     H10736  11.830   4.376   2.105  3.4547 -0.4108  2.7734
   80MOL0     H10737  11.817   4.070   2.112  1.0697 -2.5016 -3.6592
   80MOL0     H10738  11.934   4.174   2.030  2.1145 -4.2658  2.1053
   80MOL0     H10739  11.777   4.238   1.868  0.6555 -1.7312 -1.0583
   80MOL0     H10740  11.638   4.175   1.952  0.1597  1.3878  0.3685
   80MOL0     H10741  11.874   4.019   1.823  1.5663 -1.2115  3.4745
   80MOL0     H10742  11.743   3.930   1.903 -1.9098 -1.4089 -1.8940
   80MOL0     H10743  11.578   4.054   1.751 -0.7040  2.6717 -3.7264
   80MOL0     H10744  11.718   4.125   1.664 -0.0197  1.4633  2.0568
   80MOL0     H10745  11.786   3.885   1.614 -1.2782 -0.7150 -5.4824
   80MOL0     H10746  11.646   3.827   1.688  0.6913  1.3058  0.8885
   80MOL0     H10747  11.660   3.873   1.415 -0.4434 -1.5807  0.8419
   80MOL0     H10748  11.612   4.039   1.474 -2.8258  0.2375  2.0020
   80MOL0     H10749  11.471   3.774   1.512 -4.3036 -0.8845 -3.8426
   80MOL0     H10750  11.420   3.913   1.600 -1.9856  0.7705 -1.8474
   80MOL0     H10751  11.331   4.129   1.436  0.0447  0.9930 -0.6429
   80MOL0     H10752  11.232   4.127   1.046 -0.7246 -0.1382 -0.0453
   80MOL0     H10753  11.197   4.224   1.194 -0.3412  1.5940 -1.4355
   80MOL0     H10754  11.434   4.323   1.143 -1.4498  0.6846  0.5965
   80MOL0     H10755  11.450   4.195   1.015  1.3205  0.9083 -2.0518
   80MOL0     H10756  11.325   4.306   0.860  7.7403 -1.0339  0.2135
   80MOL0     H10757  11.425   4.433   0.927 -0.4856  0.8121 -0.4257
   80MOL0     H10758  11.197   4.513   0.873  0.0523 -2.3461 -0.8953
   80MOL0     H10759  11.252   4.536   1.040  2.1890  2.6645 -3.2458
   80MOL0     H10760  10.864   4.255   1.053 -0.7674  0.9296  1.4291
   80MOL0     H10761  10.651   4.332   0.976  1.2825 -0.7663  1.9459
   80MOL0     H10762  10.494   4.560   0.569  0.1641 -0.5280  0.7758
   80MOL0     H10763  10.325   4.531   0.405 -1.7835  0.2011 -1.0060
   80MOL0     H10764  10.049   4.581   0.449 -0.1001 -1.6528  1.8531
   80MOL0     H10765  10.120   4.530   0.298 -0.2471  2.8298  0.4763
   80MOL0     H10766   9.934   4.376   0.241  1.4248  0.7720 -0.9145
   80MOL0     H10767   9.854   4.434   0.393 -0.1825 -1.7225 -1.1743
   80MOL0     H10768   9.837   4.670   0.291 -2.0202  0.0409 -0.5953
   80MOL0     H10769   9.922   4.620   0.152 -2.4824  0.8745 -1.6709
   80MOL0     H10770   9.644   4.555   0.238  2.5335 -0.0049  2.4352
   80MOL0     H10771   9.719   4.429   0.141 -1.7866  0.7047  1.9606
   80MOL0     H10772   9.763   4.606  -0.034  2.8025 -0.3364  1.1978
   80MOL0     H10773   9.690   4.726   0.068 -1.0048 -0.4861 -1.3325
   80MOL0     H10774   9.539   4.653  -0.111  3.6517  1.5305  0.9555
   80MOL0     H10775   9.544   4.482  -0.045 -0.5061  0.2781 -0.0658
   80MOL0     H10776   9.466   4.695   0.159 -2.2638  2.1498 -0.6513
   80MOL0     H10777   9.406   4.525   0.123 -3.4218 -0.0109 -0.1100
   80MOL0     H10778   9.261   4.627  -0.057  0.3911 -2.1920  0.7270
   80MOL0     H10779   9.226   4.658   0.116 -1.2492 -1.5636 -0.9045
   80MOL0     H10780  10.094   4.286   0.670  0.4113  0.0197 -1.0305
   80MOL0     H10781  10.291   4.298   0.840 -2.0378 -3.4590 -2.7904
   80MOL0     H10782  10.844   4.667   0.785  2.7964 -2.9062 -4.7830
   80MOL0     H10783  11.038   4.608   0.908  0.3747 -0.5694 -1.0053
   80MOL0     H10784  11.975   4.150   2.456 -0.4719  2.1728  0.1162
   80MOL0     H10785  11.900   3.997   2.604  2.2903  2.8175  0.2587
   80MOL0     H10786  11.329   3.716   2.725  0.2183  1.1721 -0.0602
   80MOL0     H10787  11.243   3.647   2.943 -1.2071 -0.5187 -0.8736
   80MOL0     H10788  11.457   3.850   3.247  2.9203 -1.5793  1.1094
   80MOL0     H10789  11.512   3.711   3.330 -1.8822 -2.5444  0.1761
   80MOL0     H10790  11.221   3.782   3.322 -0.5927  2.4737  0.3672
   80MOL0     H10791  11.317   3.840   3.451  0.1944 -0.5576  0.3075
   80MOL0     H10792  11.245   3.627   3.550 -2.0228  2.0071 -0.2341
   80MOL0     H10793  11.398   3.587   3.489  0.1316 -2.0647  1.0942
   80MOL0     H10794  11.292   3.441   3.307 -0.7157 -0.5479  1.7053
   80MOL0     H10795  11.215   3.406   3.456 -0.1400  0.0003  2.5792
   80MOL0     H10796  10.917   3.583   3.198  1.1518  0.5251 -0.8452
   80MOL0     H10797  11.620   3.792   3.107  2.1739  2.0589 -2.2494
   80MOL0     H10798  11.730   4.005   2.933  1.6919  0.2386 -1.8630
   80MOL0     H10799  11.766   3.846   3.002 -3.0175 -3.3207 -0.3213
   80MOL0     H10800  11.794   3.873   2.827  0.4895 -1.0654  0.0551
   81MOL0     O10801   1.195   9.806   3.662  0.3602 -0.0594  0.0961
   81MOL0     C10802   1.078   9.850   3.667 -0.2195 -0.8085  0.4961
   81MOL0     O10803   0.974   9.814   3.593  0.5812  0.0347 -0.0286
   81MOL0     C10804   0.981   9.702   3.510  0.6188  0.5023 -0.5007
   81MOL0     C10805   1.093   9.616   3.478  0.1588  0.6559  1.0483
   81MOL0     C10806   1.082   9.527   3.366 -0.2730  0.5882  0.2145
   81MOL0     C10807   0.968   9.512   3.309  0.0591 -0.5762  1.0545
   81MOL0     O10808   0.969   9.401   3.218  0.4200 -0.1980  0.0488
   81MOL0     C10809   0.850   9.372   3.135 -0.8791  0.6465 -0.3702
   81MOL0     C10810   0.843   9.223   3.116  1.0886 -0.4248  0.9647
   81MOL0     C10811   0.791   9.144   3.237 -1.7232 -0.4858 -0.4791
   81MOL0     C10812   0.712   9.017   3.218  0.4257  0.2768 -0.5130
   81MOL0     C10813   0.643   8.988   3.351  0.1715 -0.6953 -0.4641
   81MOL0     C10814   0.532   8.885   3.342 -0.8077  0.2587  1.0029
   81MOL0     C10815   0.458   8.860   3.481 -0.4825  0.2985 -0.5506
   81MOL0     C10816   0.392   8.984   3.546 -0.3635 -0.9187  0.3003
   81MOL0     N10817   0.480   9.082   3.620 -0.1026 -1.2112  0.3220
   81MOL0     C10818   0.557   9.045   3.723 -0.0140 -0.2712 -1.1664
   81MOL0     C10819   0.627   9.161   3.752  0.2922  0.6406  0.4189
   81MOL0     C10820   0.716   9.179   3.866 -0.2010  0.0746 -0.9544
   81MOL0     C10821   0.867   9.237   3.827  0.3457 -0.2425  0.4699
   81MOL0     C10822   0.881   9.361   3.738 -0.0928  0.5084  0.1032
   81MOL0     C10823   0.796   9.484   3.782  0.4627  0.3723  1.2307
   81MOL0     O10824   0.801   9.506   3.924 -0.0681  0.3974  1.2154
   81MOL0     C10825   0.916   9.548   3.985 -0.1927  0.7251  0.8094
   81MOL0     C10826   1.030   9.609   3.916 -0.9127 -0.6322 -0.2510
   81MOL0     C10827   1.137   9.641   3.995  0.1937  0.1327  0.4936
   81MOL0     C10828   1.131   9.640   4.139 -0.0538 -0.0282 -0.0044
   81MOL0     C10829   1.237   9.701   4.221  0.0247 -0.3118  0.1999
   81MOL0     O10830   1.224   9.703   4.362  0.1941 -0.7084  0.0279
   81MOL0     C10831   1.324   9.776   4.431  0.4689  1.0903 -0.1881
   81MOL0     C10832   1.373   9.728   4.558 -1.0826 -0.6669 -0.4017
   81MOL0     C10833   1.476   9.793   4.632  0.7450  0.1826 -0.1865
   81MOL0     C10834   1.532   9.911   4.582 -0.2656  0.0915 -0.6511
   81MOL0     O10835   1.622   9.984   4.660 -0.3444  0.3197  0.4576
   81MOL0     C10836   1.620   9.982   4.806  0.1269 -0.5198  0.8120
   81MOL0     C10837   1.667  10.120   4.855 -0.5351  0.4252  0.2595
   81MOL0     C10838   1.637  10.147   5.007  0.6076  0.4645  0.4608
   81MOL0     C10839   1.702  10.276   5.052 -0.1534 -0.0605  0.8241
   81MOL0     C10840   1.674  10.325   5.198 -0.2382  0.4918  0.4541
   81MOL0     C10841   1.736  10.463   5.217  0.2376  0.3116 -0.1731
   81MOL0     C10842   1.730  10.518   5.361 -0.0130  0.1993  0.0147
   81MOL0     C10843   1.793  10.656   5.371 -0.8000 -0.3187  0.7012
   81MOL0    Cl10844   1.960  10.670   5.339 -0.1868 -0.0977  0.4575
   81MOL0     C10845   1.491   9.955   4.452  0.0695  0.2647 -0.7145
   81MOL0     C10846   1.383   9.896   4.387  0.1830 -0.0624 -0.0541
   81MOL0     O10847   1.339   9.725   4.161 -0.3672 -0.2540  0.1822
   81MOL0     C10848   1.020   9.590   4.200  0.3235 -0.8386  1.0441
   81MOL0     C10849   0.913   9.548   4.124 -0.3295  0.4821  0.0265
   81MOL0     N10850   0.579   9.262   3.677  0.0279  0.6853  0.3021
   81MOL0     N10851   0.503   9.210   3.584  1.0088  0.9744  0.2227
   81MOL0     C10852   0.858   9.588   3.340 -0.2582 -0.4145  0.1065
   81MOL0     C10853   0.855   9.678   3.447 -0.3427  0.1571 -0.7467
   81MOL0     C10854   1.053   9.983   3.727 -0.4705  0.3276 -0.1312
   81MOL0     C10855   0.949  10.061   3.683  0.1447 -0.2402 -0.4072
   81MOL0     C10856   0.921  10.182   3.736  0.6629 -0.3962 -0.3251
   81MOL0     C10857   0.985  10.230   3.843 -0.8161  0.4526 -0.8571
   81MOL0     O10858   0.963  10.344   3.911 -0.0414 -0.2105 -0.5177
   81MOL0     C10859   0.862  10.431   3.887  0.9455  0.2380 -0.6648
   81MOL0     C10860   0.883  10.553   3.962  0.6592 -0.7941  0.0638
   81MOL0     C10861   0.862  10.531   4.110 -0.5685 -0.1573  0.2982
   81MOL0     C10862   0.902  10.653   4.184 -1.0842  0.8029 -0.4383
   81MOL0     C10863   0.875  10.632   4.327  0.1719 -0.2512  0.7596
   81MOL0     C10864   0.828  10.638   4.437 -0.5321  0.4324  0.0350
   81MOL0     C10865   1.089  10.152   3.899 -0.0194 -0.4005 -0.0684
   81MOL0     C10866   1.135  10.035   3.833 -0.9492  1.3142  0.1377
   81MOL0     C10867   1.277   9.994   3.869  1.5115  0.2130  0.2870
   81MOL0     H10868   1.187   9.615   3.532  0.4978  1.2133  0.4842
   81MOL0     H10869   1.165   9.464   3.334 -1.1881  0.6720 -2.5818
   81MOL0     H10870   0.759   9.409   3.183 -1.3665  0.3834 -1.0814
   81MOL0     H10871   0.870   9.418   3.037 -4.6225  0.4125 -1.3727
   81MOL0     H10872   0.936   9.178   3.080 -0.4749 -2.5367 -0.7244
   81MOL0     H10873   0.769   9.211   3.035  0.7304  0.5865  1.1243
   81MOL0     H10874   0.737   9.217   3.299  2.2162  0.1782  2.5783
   81MOL0     H10875   0.882   9.126   3.294 -1.4286 -0.3301 -0.9005
   81MOL0     H10876   0.633   9.034   3.144  0.7560  0.0270 -0.9332
   81MOL0     H10877   0.769   8.935   3.172  0.1698 -0.8366  1.0905
   81MOL0     H10878   0.715   8.965   3.430  2.4691 -1.9287 -2.7830
   81MOL0     H10879   0.588   9.077   3.384  2.6685  0.7937 -0.0794
   81MOL0     H10880   0.463   8.907   3.260  1.6728  0.7526 -1.0969
   81MOL0     H10881   0.578   8.786   3.335  1.6672  1.2754  2.0307
   81MOL0     H10882   0.529   8.808   3.547 -1.7054 -2.2113 -1.0963
   81MOL0     H10883   0.370   8.798   3.462 -0.5914  0.6280 -1.1471
   81MOL0     H10884   0.334   9.043   3.474  0.8349 -2.3532 -1.9645
   81MOL0     H10885   0.318   8.940   3.614  1.6805  0.6949  3.8300
   81MOL0     H10886   0.581   8.950   3.768  1.1767  2.6480  5.6819
   81MOL0     H10887   0.666   9.236   3.945  0.3232 -0.1610 -0.4435
   81MOL0     H10888   0.742   9.080   3.903  0.9317  1.0172  0.9199
   81MOL0     H10889   0.914   9.255   3.924 -0.7759  1.9355  0.6740
   81MOL0     H10890   0.918   9.153   3.779  2.5021  0.6634  1.0079
   81MOL0     H10891   0.866   9.332   3.633  2.1665  2.2568 -0.7942
   81MOL0     H10892   0.986   9.391   3.727  0.4164 -1.2392 -0.2525
   81MOL0     H10893   0.690   9.483   3.754  0.0739  2.4447  2.4584
   81MOL0     H10894   0.840   9.575   3.741  0.9531 -0.2300  0.3904
   81MOL0     H10895   1.049   9.631   3.811  3.1997  1.2124  0.7092
   81MOL0     H10896   1.229   9.673   3.947 -0.1050 -0.5621 -0.5542
   81MOL0     H10897   1.340   9.632   4.596  4.4381 -1.9110  2.2884
   81MOL0     H10898   1.490   9.747   4.729 -2.7972  0.3229  0.5110
   81MOL0     H10899   1.513   9.992   4.829  0.3631 -0.2944  1.8443
   81MOL0     H10900   1.668   9.900   4.860  0.0126 -0.1904  1.4265
   81MOL0     H10901   1.773  10.132   4.829 -0.4068  0.5751  0.8392
   81MOL0     H10902   1.617  10.193   4.791 -0.3638  1.7681  1.6061
   81MOL0     H10903   1.532  10.176   5.007  1.0655  2.2406  1.4534
   81MOL0     H10904   1.654  10.058   5.069 -1.3927 -1.7846 -1.9595
   81MOL0     H10905   1.695  10.355   4.977  3.2049  1.1868  1.6490
   81MOL0     H10906   1.806  10.246   5.037 -1.5233 -4.0969 -2.1977
   81MOL0     H10907   1.712  10.246   5.264 -0.0947 -1.5303 -1.9124
   81MOL0     H10908   1.566  10.328   5.214 -0.3797 -2.5079  0.6033
   81MOL0     H10909   1.840  10.448   5.187 -0.1067 -0.2311 -1.1476
   81MOL0     H10910   1.684  10.520   5.140  1.5065  0.1419 -1.2016
   81MOL0     H10911   1.781  10.454   5.433  1.0626  3.0190  1.9812
   81MOL0     H10912   1.628  10.521   5.400 -0.0985  1.2087 -0.2508
   81MOL0     H10913   1.744  10.710   5.290  0.3081  1.3886  1.0925
   81MOL0     H10914   1.772  10.715   5.461  0.7512 -0.2854  1.0734
   81MOL0     H10915   1.530  10.043   4.401 -3.0053  1.9430 -0.4418
   81MOL0     H10916   1.353   9.922   4.286 -1.5788  0.5227  0.5866
   81MOL0     H10917   1.009   9.589   4.308 -1.7712 -0.9699  0.8559
   81MOL0     H10918   0.819   9.526   4.174 -1.8823  2.3082 -1.9157
   81MOL0     H10919   0.760   9.565   3.299  0.1618  1.1799 -1.9585
   81MOL0     H10920   0.765   9.731   3.475  0.7911  1.9639 -0.3739
   81MOL0     H10921   0.888  10.030   3.599 -1.9406 -3.7888  2.1080
   81MOL0     H10922   0.836  10.234   3.692  0.1276  1.3359  2.5108
   81MOL0     H10923   0.760  10.394   3.901 -0.0690  1.5958 -3.7114
   81MOL0     H10924   0.861  10.453   3.780 -2.9162 -2.1219 -1.2903
   81MOL0     H10925   0.817  10.633   3.926 -1.7205 -2.2007  1.0234
   81MOL0     H10926   0.987  10.577   3.938 -0.3342  2.3169 -1.8163
   81MOL0     H10927   0.910  10.440   4.145 -0.0484 -0.4657 -1.1747
   81MOL0     H10928   0.753  10.527   4.122 -1.0936  2.5338 -2.2448
   81MOL0     H10929   1.010  10.669   4.174 -0.9855  0.4384  0.0319
   81MOL0     H10930   0.855  10.742   4.143  2.7922  1.6137 -3.7627
   81MOL0     H10931   0.800  10.644   4.540 -2.4931  0.4201 -0.4672
   81MOL0     H10932   1.143  10.187   3.986 -0.7754 -2.9718  1.5444
   81MOL0     H10933   1.307  10.038   3.965 -0.9409  1.2339  0.6566
   81MOL0     H10934   1.276   9.884   3.871  2.5235  0.1708 -0.9238
   81MOL0     H10935   1.344  10.008   3.784  1.3820  2.6944  0.5262
   82MOL0     O10936   4.607   0.089   9.729  0.3787 -0.2290 -1.1745
   82MOL0     C10937   4.524   0.009   9.771 -0.2103  0.2754 -0.4512
   82MOL0     O10938   4.410   0.047   9.832 -0.3105 -0.3895  0.7466
   82MOL0     C10939   4.405   0.173   9.887 -0.1313  0.5204  0.7400
   82MOL0     C10940   4.488   0.210   9.986 -0.3963 -0.2911 -0.9235
   82MOL0     C10941   4.492   0.347  10.028 -0.1536  0.6896  0.3002
   82MOL0     C10942   4.389   0.437   9.979 -0.8453  0.7297 -0.8800
   82MOL0     O10943   4.398   0.570  10.021  0.0284  0.1874  0.0982
   82MOL0     C10944   4.352   0.594  10.161 -0.5873  0.4249  0.1612
   82MOL0     C10945   4.460   0.678  10.238 -0.2387  0.4855 -0.0829
   82MOL0     C10946   4.594   0.614  10.246 -0.0432  0.6345  0.2464
   82MOL0     C10947   4.691   0.689  10.330 -0.2803 -0.3903 -0.8488
   82MOL0     C10948   4.834   0.642  10.316  0.0993  0.9022 -0.4703
   82MOL0     C10949   4.937   0.720  10.393 -0.7617 -0.2402 -0.7216
   82MOL0     C10950   5.085   0.675  10.396 -0.2150  0.2228  0.0386
   82MOL0     C10951   5.142   0.644  10.253  0.0596  0.9518  0.0019
   82MOL0     N10952   5.288   0.663  10.222 -0.1101  0.3662  0.2623
   82MOL0     C10953   5.338   0.681  10.097 -0.2162  0.1529  0.1725
   82MOL0     C10954   5.460   0.744  10.112 -0.2638  0.4601 -1.0390
   82MOL0     C10955   5.542   0.815  10.012  0.3499 -0.2262  0.6677
   82MOL0     C10956   5.636   0.713   9.949 -0.1061  0.2036 -0.1915
   82MOL0     C10957   5.721   0.776   9.847 -0.3352 -0.2575 -0.0543
   82MOL0     C10958   5.849   0.693   9.821 -0.6303  0.0228 -1.0589
   82MOL0     O10959   5.816   0.554   9.775 -0.1048  0.6094  0.0944
   82MOL0     C10960   5.915   0.458   9.765  0.1781 -0.1984  0.1608
   82MOL0     C10961   5.875   0.332   9.777  0.2832 -0.5837 -0.1188
   82MOL0     C10962   5.974   0.229   9.775  1.0353 -1.2361 -0.1796
   82MOL0     C10963   6.107   0.260   9.754 -0.7720 -0.8608  0.7212
   82MOL0     C10964   6.194   0.149   9.741  0.3513  0.8136 -0.1490
   82MOL0     O10965   6.167   0.034   9.816 -0.9869  0.9251  0.0938
   82MOL0     C10966   6.274  -0.044   9.847  0.1598 -0.5259 -0.4921
   82MOL0     C10967   6.355  -0.003   9.956  0.7592 -0.3467  0.2010
   82MOL0     C10968   6.464  -0.073   9.993 -0.1545 -0.3627  0.5839
   82MOL0     C10969   6.482  -0.201   9.937  0.1325 -0.8997  0.2242
   82MOL0     O10970   6.591  -0.265   9.985  0.2383 -0.3277 -0.0720
   82MOL0     C10971   6.681  -0.342   9.898 -1.1441  0.2105 -0.9449
   82MOL0     C10972   6.816  -0.344   9.968 -0.5498  0.5421 -0.3090
   82MOL0     C10973   6.895  -0.218   9.988  1.2049  0.1543 -0.5943
   82MOL0     C10974   6.997  -0.208   9.874 -0.6867 -1.1407 -0.3054
   82MOL0     C10975   7.116  -0.114   9.908 -0.3980  0.6203  0.2338
   82MOL0     C10976   7.174  -0.028   9.791  0.1884 -0.9121  0.2320
   82MOL0     C10977   7.212   0.110   9.848  0.4755  0.1646 -0.1558
   82MOL0     C10978   7.253   0.210   9.751  0.2494 -0.8472  0.3200
   82MOL0    Cl10979   7.224   0.376   9.799  0.3045 -0.0706  0.3633
   82MOL0     C10980   6.407  -0.247   9.824 -0.7962  0.5646 -0.5073
   82MOL0     C10981   6.304  -0.161   9.776  0.5555 -0.5124  0.0131
   82MOL0     O10982   6.295   0.167   9.664  0.4998  0.2055 -0.4349
   82MOL0     C10983   6.142   0.389   9.735 -0.2292  0.7110 -0.1462
   82MOL0     C10984   6.041   0.482   9.735  0.0665  0.2210 -0.3235
   82MOL0     N10985   5.481   0.737  10.246 -0.1502 -0.0124 -0.3734
   82MOL0     N10986   5.383   0.698  10.312  0.6459 -0.2410 -1.4321
   82MOL0     C10987   4.296   0.389   9.896  0.1494 -0.0057 -0.4386
   82MOL0     C10988   4.309   0.254   9.843  0.0058 -0.0042  0.6327
   82MOL0     C10989   4.550  -0.139   9.735 -0.4384 -0.5085  0.0923
   82MOL0     C10990   4.658  -0.177   9.648 -0.1334  1.2108 -0.3186
   82MOL0     C10991   4.685  -0.309   9.617 -0.3689  0.2909  0.4073
   82MOL0     C10992   4.620  -0.414   9.687  0.6522 -0.1989 -0.3983
   82MOL0     O10993   4.644  -0.546   9.654 -0.1991  0.8810  0.4931
   82MOL0     C10994   4.569  -0.596   9.544  0.6250 -0.4535 -0.8985
   82MOL0     C10995   4.597  -0.741   9.572 -0.8941  0.0961 -1.0631
   82MOL0     C10996   4.518  -0.832   9.477  0.0480 -0.1735 -0.2363
   82MOL0     C10997   4.418  -0.910   9.564  1.1058  0.2467  0.1297
   82MOL0     C10998   4.480  -1.021   9.638  0.2321 -0.3085 -0.5242
   82MOL0     C10999   4.530  -1.113   9.704 -0.4617 -0.2690  0.0796
   82MOL0     C11000   4.522  -0.379   9.780 -0.0705  0.2465 -0.7785
   82MOL0     C11001   4.495  -0.247   9.811  0.0160 -0.3764  0.6326
   82MOL0     C11002   4.388  -0.224   9.915 -1.1963  0.6249 -0.0265
   82MOL0     H11003   4.562   0.138  10.019  0.0781  0.6517  0.1708
   82MOL0     H11004   4.571   0.372  10.098  1.3900 -1.6524 -0.5036
   82MOL0     H11005   4.258   0.649  10.150 -0.7722  0.3813  1.3907
   82MOL0     H11006   4.340   0.494  10.202  1.1324 -1.5172 -3.5755
   82MOL0     H11007   4.436   0.708  10.340  2.2251  3.9591 -0.3433
   82MOL0     H11008   4.466   0.775  10.189 -1.3992  1.1625  1.0538
   82MOL0     H11009   4.623   0.608  10.141 -2.1923  0.7843 -0.3855
   82MOL0     H11010   4.585   0.511  10.283 -2.0830  1.2107  1.4862
   82MOL0     H11011   4.694   0.796  10.308 -0.6106  0.0157  0.9360
   82MOL0     H11012   4.662   0.696  10.435 -0.1310  0.6564 -0.8671
   82MOL0     H11013   4.839   0.540  10.355 -3.3780  0.8376  0.1133
   82MOL0     H11014   4.858   0.643  10.209  0.0920  1.3206 -0.4703
   82MOL0     H11015   4.928   0.820  10.348  0.1929 -0.1185 -0.6669
   82MOL0     H11016   4.907   0.740  10.496  0.1103  3.9641 -1.1096
   82MOL0     H11017   5.095   0.588  10.462  1.0800  2.6959  3.3845
   82MOL0     H11018   5.134   0.766  10.431  3.3330 -0.1320 -3.3591
   82MOL0     H11019   5.103   0.543  10.239 -3.0580  1.6199  2.6341
   82MOL0     H11020   5.096   0.716  10.185 -1.0451 -0.5059 -0.8547
   82MOL0     H11021   5.298   0.661   9.998 -1.4034 -0.6137  0.7851
   82MOL0     H11022   5.477   0.860   9.936  1.2497  5.3963  2.7387
   82MOL0     H11023   5.574   0.902  10.070 -1.6782  1.3179 -0.3689
   82MOL0     H11024   5.708   0.682  10.025 -0.1763  0.8532  0.1449
   82MOL0     H11025   5.574   0.633   9.909 -4.3465  2.1592  1.8450
   82MOL0     H11026   5.755   0.875   9.877  2.3721 -0.9437 -0.5532
   82MOL0     H11027   5.666   0.799   9.755 -1.0623 -1.1337  0.1473
   82MOL0     H11028   5.904   0.685   9.915 -0.3151  0.2246 -1.2221
   82MOL0     H11029   5.912   0.748   9.750 -0.9262 -0.8642 -2.0419
   82MOL0     H11030   5.772   0.311   9.804 -0.1512  3.0489  1.6584
   82MOL0     H11031   5.935   0.129   9.794  0.7331 -1.4862 -1.9490
   82MOL0     H11032   6.345   0.095  10.001  0.7886 -0.5324  0.6201
   82MOL0     H11033   6.528  -0.043  10.076 -1.5159  3.8194  0.3515
   82MOL0     H11034   6.655  -0.446   9.876 -1.7757  0.5955 -2.0942
   82MOL0     H11035   6.700  -0.301   9.799 -0.5553 -1.1195 -1.4159
   82MOL0     H11036   6.785  -0.368  10.071  1.5543  1.2366  0.5310
   82MOL0     H11037   6.880  -0.424   9.929  1.2803  2.2429 -0.9222
   82MOL0     H11038   6.834  -0.128   9.996  1.0326  0.1489 -1.7290
   82MOL0     H11039   6.933  -0.221  10.091 -0.4226  1.8097  0.1143
   82MOL0     H11040   6.945  -0.170   9.786  0.5880 -0.6462 -0.8638
   82MOL0     H11041   7.051  -0.300   9.848  1.9718  0.5437 -1.1299
   82MOL0     H11042   7.194  -0.174   9.954 -1.0679  0.4759  1.2008
   82MOL0     H11043   7.092  -0.038   9.983 -0.7375  0.8674 -0.1221
   82MOL0     H11044   7.268  -0.066   9.748 -0.1903 -2.3321  0.6140
   82MOL0     H11045   7.098   0.001   9.718 -2.3072  0.8014  3.3081
   82MOL0     H11046   7.293   0.106   9.921  1.5191  1.5243 -1.1932
   82MOL0     H11047   7.113   0.147   9.877 -0.3179  0.8385 -3.3650
   82MOL0     H11048   7.359   0.199   9.726 -0.2501 -2.1311 -1.4506
   82MOL0     H11049   7.198   0.189   9.659 -0.3494 -4.0758  1.2876
   82MOL0     H11050   6.423  -0.349   9.789 -0.1722  0.4381  0.1209
   82MOL0     H11051   6.244  -0.180   9.687 -1.6002  0.5277  1.1546
   82MOL0     H11052   6.248   0.398   9.714 -0.6186  0.7429 -2.3342
   82MOL0     H11053   6.072   0.576   9.689  0.2093 -1.0105 -2.9192
   82MOL0     H11054   4.219   0.459   9.865 -0.1608 -1.2131 -2.6551
   82MOL0     H11055   4.251   0.228   9.755  1.6319  0.1198 -0.5023
   82MOL0     H11056   4.710  -0.095   9.600 -3.0880  2.4967 -1.5317
   82MOL0     H11057   4.756  -0.337   9.540 -0.0221  4.6465 -1.1647
   82MOL0     H11058   4.601  -0.568   9.443 -2.2253  1.3350 -1.4223
   82MOL0     H11059   4.462  -0.576   9.553  0.3738 -1.4251 -1.5255
   82MOL0     H11060   4.601  -0.766   9.679 -0.6877  1.3642 -0.7571
   82MOL0     H11061   4.703  -0.761   9.553 -0.1590 -0.5271  2.7725
   82MOL0     H11062   4.596  -0.894   9.432 -1.2556 -1.3597 -0.9274
   82MOL0     H11063   4.457  -0.778   9.404 -1.1418  0.0418  0.8933
   82MOL0     H11064   4.362  -0.856   9.641  1.1974 -0.4907  0.7304
   82MOL0     H11065   4.348  -0.933   9.483  1.1896  4.1275 -1.2381
   82MOL0     H11066   4.594  -1.188   9.746  1.0713  1.6259  1.3109
   82MOL0     H11067   4.479  -0.462   9.836 -2.4962  2.2804  0.5433
   82MOL0     H11068   4.336  -0.317   9.942 -0.1281 -0.2225 -0.8241
   82MOL0     H11069   4.432  -0.177  10.004 -1.9967  0.0627  0.6875
   82MOL0     H11070   4.301  -0.172   9.874 -0.4954  1.8170 -0.0226
   83MOL0     O11071   5.116  11.445   7.871 -0.6924 -0.1307 -1.3661
   83MOL0     C11072   5.206  11.445   7.786  0.2811 -0.8033  0.4326
   83MOL0     O11073   5.174  11.461   7.658 -0.8159 -0.2625  0.0459
   83MOL0     C11074   5.059  11.520   7.605 -0.2277 -0.8763  0.3760
   83MOL0     C11075   5.023  11.649   7.654 -0.1391 -0.9095  0.8777
   83MOL0     C11076   4.894  11.706   7.637 -1.1291 -0.1838 -0.1916
   83MOL0     C11077   4.800  11.636   7.559 -0.7569  0.3163  0.4175
   83MOL0     O11078   4.670  11.655   7.528  0.1548 -0.2680 -0.3244
   83MOL0     C11079   4.622  11.783   7.522  0.2935  0.0046  0.4269
   83MOL0     C11080   4.695  11.868   7.424 -0.4190 -0.7507  0.5037
   83MOL0     C11081   4.702  12.026   7.459 -0.0766  1.0362 -0.3281
   83MOL0     C11082   4.830  12.080   7.397  0.0004  0.1840  0.4786
   83MOL0     C11083   4.877  12.220   7.444 -0.7925 -0.1415  0.4854
   83MOL0     C11084   4.781  12.333   7.440 -0.4841  0.0214  1.4964
   83MOL0     C11085   4.719  12.342   7.299  1.1767 -0.1359  0.6940
   83MOL0     C11086   4.647  12.483   7.278  0.1320 -0.4473 -0.4153
   83MOL0     N11087   4.527  12.482   7.370 -0.7983 -0.0720 -0.5377
   83MOL0     C11088   4.436  12.384   7.387  0.6914 -0.0507  0.1559
   83MOL0     C11089   4.367  12.415   7.501  1.0410  0.9236  0.2695
   83MOL0     C11090   4.277  12.322   7.568  0.1684  0.6398  1.0715
   83MOL0     C11091   4.234  12.365   7.715  0.7435 -0.4957  0.1725
   83MOL0     C11092   4.340  12.350   7.828  0.3191 -1.0594  1.0611
   83MOL0     C11093   4.296  12.427   7.959 -0.2576  0.3551 -0.0634
   83MOL0     O11094   4.337  12.560   7.923  0.5613 -1.1411  0.1775
   83MOL0     C11095   4.241  12.655   7.907 -0.0328 -0.1046  0.2051
   83MOL0     C11096   4.243  12.734   7.797 -0.0916 -0.8459  0.3554
   83MOL0     C11097   4.150  12.840   7.775  0.5405  1.1282 -0.4118
   83MOL0     C11098   4.043  12.857   7.868 -0.4726  0.4710 -1.2170
   83MOL0     C11099   3.929  12.950   7.847  0.4000 -0.2001  0.0584
   83MOL0     O11100   3.937  13.018   7.735  0.2588  0.3471  0.0850
   83MOL0     C11101   3.847  13.110   7.698  0.2991  0.3153 -0.0073
   83MOL0     C11102   3.895  13.236   7.673 -0.3379  0.9982 -0.0061
   83MOL0     C11103   3.804  13.330   7.622 -0.5981  0.5006 -0.1496
   83MOL0     C11104   3.666  13.301   7.605  0.0084 -0.9822 -0.3656
   83MOL0     O11105   3.582  13.404   7.557 -0.6666 -0.0496 -0.5629
   83MOL0     C11106   3.473  13.444   7.644 -0.0456 -0.8464  0.1210
   83MOL0     C11107   3.370  13.534   7.562 -0.0157  0.5362 -1.2260
   83MOL0     C11108   3.286  13.443   7.466 -0.5591 -0.1764  0.4433
   83MOL0     C11109   3.212  13.533   7.367  0.9383  0.3119  0.0809
   83MOL0     C11110   3.077  13.481   7.324  1.0428  0.6282  0.1300
   83MOL0     C11111   2.966  13.439   7.422 -0.6187 -0.4619 -0.7443
   83MOL0     C11112   2.864  13.346   7.353 -1.6250  0.5898 -0.8047
   83MOL0     C11113   2.766  13.308   7.466 -0.2026 -1.0851  0.0668
   83MOL0    Cl11114   2.631  13.420   7.442  0.1954  0.6270  0.1686
   83MOL0     C11115   3.620  13.169   7.630 -0.7520 -0.0724  0.5674
   83MOL0     C11116   3.714  13.079   7.685 -0.2832  0.0635  0.2394
   83MOL0     O11117   3.842  12.973   7.931 -0.4118 -0.1496  0.4577
   83MOL0     C11118   4.049  12.770   7.984  0.4423  0.6579  0.3110
   83MOL0     C11119   4.141  12.677   8.006 -0.8637 -0.0043  0.6250
   83MOL0     N11120   4.422  12.531   7.544 -1.1639 -0.0099  0.5302
   83MOL0     N11121   4.523  12.570   7.472  0.1422 -0.1436  0.5534
   83MOL0     C11122   4.845  11.500   7.507  0.7844 -0.8980  0.6851
   83MOL0     C11123   4.970  11.451   7.522  0.9673 -0.6750  0.9141
   83MOL0     C11124   5.349  11.430   7.828  0.4716 -0.3267 -1.0652
   83MOL0     C11125   5.387  11.446   7.968  0.2263 -0.0247  0.7334
   83MOL0     C11126   5.522  11.454   8.011 -0.0389  0.1941 -1.1561
   83MOL0     C11127   5.621  11.454   7.924 -0.5995  0.6001  0.6403
   83MOL0     O11128   5.750  11.470   7.976 -0.0722  0.1037 -0.2582
   83MOL0     C11129   5.852  11.514   7.893  0.0604 -0.1919  0.0372
   83MOL0     C11130   5.841  11.656   7.825  0.6293  0.6276 -0.3161
   83MOL0     C11131   5.836  11.772   7.936  0.3533  0.9276  0.3616
   83MOL0     C11132   5.866  11.902   7.861 -0.6566 -0.1689 -0.0389
   83MOL0     C11133   5.885  12.009   7.955  0.8445  0.6163  0.5383
   83MOL0     C11134   5.916  12.101   8.028 -0.7917  0.5331 -0.0138
   83MOL0     C11135   5.587  11.438   7.787 -0.3558  1.0149 -0.2494
   83MOL0     C11136   5.457  11.416   7.740 -0.4693 -0.3219  0.5464
   83MOL0     C11137   5.443  11.362   7.603  0.0789  0.2381  0.2962
   83MOL0     H11138   5.099  11.707   7.705  2.5191 -0.6590 -2.9370
   83MOL0     H11139   4.875  11.809   7.664  2.2530  1.2214 -2.4389
   83MOL0     H11140   4.513  11.791   7.519  0.3841  1.9863  0.8337
   83MOL0     H11141   4.635  11.828   7.621  0.2676  1.3853 -0.1635
   83MOL0     H11142   4.642  11.866   7.328 -0.6730 -0.9648  0.6474
   83MOL0     H11143   4.800  11.848   7.401  0.0553  1.6530  0.3122
   83MOL0     H11144   4.716  12.032   7.567  3.0267  3.1205 -0.7116
   83MOL0     H11145   4.608  12.060   7.414 -1.1835 -1.6879 -0.2587
   83MOL0     H11146   4.918  12.016   7.409 -1.2256 -2.4852 -3.0567
   83MOL0     H11147   4.814  12.089   7.289 -1.0633 -1.1276  0.4966
   83MOL0     H11148   4.903  12.214   7.550 -2.6210 -2.6244  0.8932
   83MOL0     H11149   4.960  12.258   7.385 -0.0272 -0.0054  1.6143
   83MOL0     H11150   4.700  12.306   7.508 -0.9607 -2.8180 -0.0167
   83MOL0     H11151   4.834  12.428   7.451 -0.2562  0.1608 -0.5133
   83MOL0     H11152   4.655  12.256   7.278  2.6475 -0.7970 -1.4643
   83MOL0     H11153   4.792  12.338   7.217 -1.3172  0.2051 -1.6720
   83MOL0     H11154   4.703  12.574   7.301 -0.2367  0.5785 -3.1407
   83MOL0     H11155   4.608  12.495   7.176 -2.7427  0.4593  0.6641
   83MOL0     H11156   4.427  12.286   7.341 -2.2038 -1.5296  3.4970
   83MOL0     H11157   4.180  12.309   7.520 -0.4476 -1.4960  2.7266
   83MOL0     H11158   4.331  12.227   7.572  2.2250  1.6125 -1.3102
   83MOL0     H11159   4.196  12.468   7.711  5.0193  1.4204  2.1582
   83MOL0     H11160   4.157  12.293   7.745  2.1259 -1.2995  1.9748
   83MOL0     H11161   4.441  12.378   7.795  0.1179 -2.7886 -1.2238
   83MOL0     H11162   4.358  12.244   7.844  0.7608 -1.4124 -1.3894
   83MOL0     H11163   4.346  12.383   8.046  2.9603  0.3047 -1.7700
   83MOL0     H11164   4.188  12.415   7.972 -0.0113 -0.3148  1.6773
   83MOL0     H11165   4.325  12.720   7.728 -0.0661 -0.6683  0.3481
   83MOL0     H11166   4.164  12.911   7.695  2.6176 -1.8486 -2.9248
   83MOL0     H11167   3.998  13.270   7.687 -0.1803  0.7308 -0.5013
   83MOL0     H11168   3.833  13.433   7.603  1.8046  0.6461  3.2920
   83MOL0     H11169   3.414  13.367   7.695 -1.2083  0.4284  0.7531
   83MOL0     H11170   3.525  13.503   7.720 -0.2379 -1.2257  0.5525
   83MOL0     H11171   3.306  13.596   7.626 -1.3449  4.4890 -5.7993
   83MOL0     H11172   3.436  13.606   7.513  0.9726 -0.0409 -0.7849
   83MOL0     H11173   3.363  13.393   7.407  1.2167  0.1657  2.3439
   83MOL0     H11174   3.228  13.370   7.522 -0.9169 -0.1886  0.0656
   83MOL0     H11175   3.274  13.532   7.277  0.5459 -0.2161 -0.1931
   83MOL0     H11176   3.198  13.632   7.410 -0.8696 -0.1875  0.7326
   83MOL0     H11177   3.096  13.389   7.268 -0.6087  0.2484  0.1639
   83MOL0     H11178   3.036  13.546   7.246 -0.8662 -0.9884 -0.2836
   83MOL0     H11179   2.999  13.393   7.515 -2.8971  0.3930  0.5848
   83MOL0     H11180   2.916  13.535   7.443  1.2434  0.5121 -0.5940
   83MOL0     H11181   2.904  13.248   7.323 -0.3327  0.7675  0.2673
   83MOL0     H11182   2.828  13.392   7.260  2.3133  0.4832 -2.5557
   83MOL0     H11183   2.717  13.210   7.456 -1.1491 -0.8106  1.7594
   83MOL0     H11184   2.803  13.324   7.567 -0.5655  0.8653 -0.0817
   83MOL0     H11185   3.525  13.141   7.585  0.3611  0.6935 -2.5132
   83MOL0     H11186   3.681  12.976   7.694 -5.3252  1.2192 -1.6676
   83MOL0     H11187   3.965  12.781   8.052  0.6027 -1.3171  0.8864
   83MOL0     H11188   4.134  12.618   8.097  1.5478  0.3237  1.0758
   83MOL0     H11189   4.774  11.433   7.458  0.3023 -1.7250  2.4238
   83MOL0     H11190   5.005  11.354   7.486  2.4776  0.4650 -0.8487
   83MOL0     H11191   5.309  11.467   8.040  2.2716 -0.8729  3.3600
   83MOL0     H11192   5.549  11.457   8.116  0.3223 -0.8750 -1.2071
   83MOL0     H11193   5.867  11.442   7.811 -0.2384 -0.9538  0.6423
   83MOL0     H11194   5.944  11.520   7.951  3.3484  3.0948 -4.7181
   83MOL0     H11195   5.753  11.656   7.761  1.0869 -1.6583 -1.0377
   83MOL0     H11196   5.927  11.670   7.760  1.2754 -0.8705  0.1639
   83MOL0     H11197   5.910  11.756   8.014  0.6807  0.4186 -0.0446
   83MOL0     H11198   5.741  11.776   7.989  1.1110  1.1347  1.7422
   83MOL0     H11199   5.962  11.896   7.808 -1.4835  2.1936 -2.0209
   83MOL0     H11200   5.791  11.931   7.786  1.1930 -0.0801 -1.9695
   83MOL0     H11201   5.965  12.166   8.096 -0.3146  0.5253 -0.3456
   83MOL0     H11202   5.671  11.428   7.719  0.6696 -0.8418  1.1665
   83MOL0     H11203   5.403  11.260   7.604  3.5990 -1.3138 -0.2780
   83MOL0     H11204   5.387  11.415   7.526  2.3509 -0.4811 -2.0274
   83MOL0     H11205   5.541  11.345   7.556 -0.3702 -5.4093  0.7562
   84MOL0     O11206   2.451  10.309   4.325  0.4753 -0.0035 -0.5825
   84MOL0     C11207   2.406  10.251   4.224  0.2018 -1.1717  0.2299
   84MOL0     O11208   2.291  10.163   4.221  0.5942 -0.4991 -0.1926
   84MOL0     C11209   2.266  10.093   4.330  1.1448  1.1272 -0.7390
   84MOL0     C11210   2.242   9.958   4.315 -1.0020  0.6567 -0.2143
   84MOL0     C11211   2.204   9.884   4.423  0.1538 -0.0880 -0.3886
   84MOL0     C11212   2.205   9.944   4.554 -0.0239  0.0524  0.4325
   84MOL0     O11213   2.175   9.881   4.675  0.1947 -0.2916 -0.3842
   84MOL0     C11214   2.118   9.743   4.664 -0.3603 -0.7811  0.8126
   84MOL0     C11215   2.096   9.706   4.814  0.7005 -0.4929 -0.2580
   84MOL0     C11216   1.977   9.783   4.876 -0.5475 -0.4558  0.4282
   84MOL0     C11217   1.907   9.688   4.966  0.2341 -0.1270 -0.9067
   84MOL0     C11218   1.827   9.760   5.089  0.8125  0.7715  0.5293
   84MOL0     C11219   1.926   9.821   5.197  0.6780  0.5365 -1.0169
   84MOL0     C11220   1.912   9.981   5.190 -0.2320  0.6231  0.0258
   84MOL0     C11221   2.021  10.051   5.274 -1.0030  0.6115  0.5996
   84MOL0     N11222   2.005  10.032   5.419  0.7206  0.3627  0.1819
   84MOL0     C11223   1.899  10.068   5.499 -0.0703  0.5113  0.2818
   84MOL0     C11224   1.920  10.005   5.619  0.2895 -0.0766 -0.2304
   84MOL0     C11225   1.815   9.994   5.727  0.3443 -0.4349  0.1569
   84MOL0     C11226   1.690   9.924   5.677 -0.4316 -0.4277  1.0126
   84MOL0     C11227   1.590   9.873   5.781  0.6751  0.4086 -0.2108
   84MOL0     C11228   1.539   9.990   5.871 -0.2827  0.0668 -0.0501
   84MOL0     O11229   1.640  10.005   5.977  0.3426  0.9110 -0.2406
   84MOL0     C11230   1.617  10.107   6.066 -0.1921  0.3394 -0.1625
   84MOL0     C11231   1.518  10.208   6.054  0.0464  1.1896  0.0332
   84MOL0     C11232   1.503  10.319   6.136 -0.0685  0.7370 -0.0479
   84MOL0     C11233   1.588  10.324   6.250  0.6670 -0.1251 -0.1144
   84MOL0     C11234   1.558  10.418   6.352 -1.4933 -0.3997  0.3331
   84MOL0     O11235   1.435  10.467   6.370 -0.0753  0.2007 -0.2384
   84MOL0     C11236   1.419  10.565   6.463 -0.0070  0.7657 -0.6207
   84MOL0     C11237   1.479  10.693   6.452  0.5084 -0.2698 -0.3853
   84MOL0     C11238   1.452  10.796   6.550  0.0039 -0.5127  1.0758
   84MOL0     C11239   1.362  10.764   6.654  0.2406  0.0105 -1.1474
   84MOL0     O11240   1.329  10.843   6.765 -0.2795 -0.1857  0.2344
   84MOL0     C11241   1.417  10.958   6.783  0.8517  1.5233  0.8663
   84MOL0     C11242   1.386  11.043   6.914 -0.2607 -0.7651  0.6400
   84MOL0     C11243   1.241  11.109   6.916  0.5774 -0.6553 -1.9228
   84MOL0     C11244   1.230  11.196   7.041 -0.5519 -0.2128  0.3256
   84MOL0     C11245   1.084  11.257   7.054 -0.2814  0.4280  0.3251
   84MOL0     C11246   1.044  11.290   7.191  0.2390  1.1257 -1.0707
   84MOL0     C11247   0.905  11.355   7.206  1.2667 -0.0731  0.1214
   84MOL0     C11248   0.878  11.398   7.352  0.3133  0.6248  0.2455
   84MOL0    Cl11249   0.714  11.476   7.376  0.4035 -0.0286  0.4530
   84MOL0     C11250   1.306  10.630   6.664 -0.0648  0.0944  0.0571
   84MOL0     C11251   1.330  10.538   6.563 -0.3145 -0.1498 -0.1716
   84MOL0     O11252   1.660  10.456   6.416  0.1275 -0.5310  0.1592
   84MOL0     C11253   1.691  10.228   6.268 -0.4325 -0.8522 -0.7233
   84MOL0     C11254   1.707  10.121   6.181  0.2284  0.2132 -0.3608
   84MOL0     N11255   2.026   9.923   5.608  0.3755  0.5321  0.9787
   84MOL0     N11256   2.069   9.934   5.487  1.3141  0.0373 -0.3109
   84MOL0     C11257   2.240  10.079   4.564  0.4377  0.2975  0.4529
   84MOL0     C11258   2.263  10.155   4.453  0.1650 -0.2328  0.0700
   84MOL0     C11259   2.461  10.291   4.090  0.3845  0.0519  0.5587
   84MOL0     C11260   2.549  10.388   4.081 -0.3614 -0.5591  0.3153
   84MOL0     C11261   2.615  10.444   3.969  0.0115 -0.7028  0.2955
   84MOL0     C11262   2.601  10.367   3.848 -0.5119 -0.0910  0.3818
   84MOL0     O11263   2.665  10.391   3.731  0.1763  0.5337  1.1287
   84MOL0     C11264   2.796  10.446   3.743  0.7585  1.4136  1.2294
   84MOL0     C11265   2.883  10.328   3.776  0.4499 -0.2625 -0.1410
   84MOL0     C11266   3.030  10.366   3.775 -0.1078 -0.1355 -0.2465
   84MOL0     C11267   3.073  10.407   3.923 -0.8078  0.5519  0.3177
   84MOL0     C11268   3.044  10.556   3.944  0.0944  0.1554 -0.2131
   84MOL0     C11269   3.018  10.667   3.986 -1.1009 -0.0384 -0.6730
   84MOL0     C11270   2.512  10.257   3.848  0.0808  0.5321 -0.3076
   84MOL0     C11271   2.442  10.220   3.963  0.9832 -0.2513  0.2763
   84MOL0     C11272   2.340  10.112   3.947  0.1416 -0.0438  0.5923
   84MOL0     H11273   2.264   9.931   4.212  3.2674  4.7091 -0.7061
   84MOL0     H11274   2.195   9.777   4.405 -3.2193  0.2156 -1.1605
   84MOL0     H11275   2.022   9.740   4.610 -0.4631  0.1930  0.9199
   84MOL0     H11276   2.184   9.670   4.616 -1.8093 -2.5976  1.4687
   84MOL0     H11277   2.179   9.732   4.880  1.1191  0.2482 -1.0560
   84MOL0     H11278   2.090   9.598   4.830  1.5314 -0.3884  0.8838
   84MOL0     H11279   1.913   9.831   4.801  1.9189  0.6231 -1.1268
   84MOL0     H11280   2.035   9.861   4.925  0.9278 -0.8601 -0.6054
   84MOL0     H11281   1.840   9.637   4.896 -0.0193 -0.3063 -0.5371
   84MOL0     H11282   1.976   9.615   5.009 -2.4408 -2.6422 -0.5691
   84MOL0     H11283   1.772   9.833   5.028 -1.5016 -1.3717 -0.1466
   84MOL0     H11284   1.751   9.693   5.131  0.6442  0.8760  0.3956
   84MOL0     H11285   1.902   9.777   5.295 -1.9361  0.3654 -1.6735
   84MOL0     H11286   2.028   9.787   5.178  0.1070 -0.0929 -3.1261
   84MOL0     H11287   1.811  10.013   5.215 -0.7450  1.9130 -3.1384
   84MOL0     H11288   1.917  10.012   5.085  3.0978 -2.6347 -1.0184
   84MOL0     H11289   2.121  10.009   5.255 -1.6271 -0.9726  0.6317
   84MOL0     H11290   2.022  10.155   5.240 -1.3005  0.5337  0.3465
   84MOL0     H11291   1.809  10.120   5.468 -0.6235 -0.8637 -0.5051
   84MOL0     H11292   1.862   9.948   5.814  2.1171 -0.9297 -0.9994
   84MOL0     H11293   1.783  10.094   5.756  1.1381  0.2874 -1.3538
   84MOL0     H11294   1.635   9.978   5.600 -0.3619 -0.9292  0.6054
   84MOL0     H11295   1.723   9.838   5.618 -2.3311 -1.1338  0.9144
   84MOL0     H11296   1.635   9.805   5.853  0.4166 -0.8347 -1.1997
   84MOL0     H11297   1.514   9.822   5.722  1.3837 -1.9700  0.8351
   84MOL0     H11298   1.446   9.961   5.920  0.9544 -3.4852  0.5264
   84MOL0     H11299   1.530  10.077   5.806 -2.9657  0.4470  0.7375
   84MOL0     H11300   1.437  10.195   5.983  0.0058  1.3135  0.0571
   84MOL0     H11301   1.418  10.385   6.134 -0.2502  0.7081  2.8464
   84MOL0     H11302   1.543  10.725   6.370 -1.2677  4.8842 -0.1436
   84MOL0     H11303   1.495  10.895   6.549 -5.0192  2.0562  2.7471
   84MOL0     H11304   1.522  10.928   6.794  0.1518 -1.4012  0.2309
   84MOL0     H11305   1.419  11.014   6.689 -1.2522 -3.2458 -2.3657
   84MOL0     H11306   1.406  10.997   7.011  1.8902  2.2751  1.7985
   84MOL0     H11307   1.458  11.126   6.917  0.8652 -1.6952  0.2462
   84MOL0     H11308   1.215  11.179   6.836 -3.3706  1.0584  0.5183
   84MOL0     H11309   1.165  11.031   6.920 -1.9979  1.7456  1.2169
   84MOL0     H11310   1.307  11.275   7.045 -3.0883  2.6992 -2.6643
   84MOL0     H11311   1.245  11.136   7.131 -1.3036 -2.1775 -0.7885
   84MOL0     H11312   1.017  11.184   7.007  0.5519  1.9533 -3.5774
   84MOL0     H11313   1.076  11.344   6.989 -2.6977 -1.3569 -1.9616
   84MOL0     H11314   1.042  11.199   7.252 -0.5052  0.8974 -1.4209
   84MOL0     H11315   1.119  11.358   7.230  1.1341  0.0480 -0.8790
   84MOL0     H11316   0.828  11.287   7.169 -0.3719  2.5393 -1.5781
   84MOL0     H11317   0.901  11.442   7.140  1.3095  0.7592  1.1779
   84MOL0     H11318   0.871  11.312   7.419  3.6057  0.9168  1.1214
   84MOL0     H11319   0.961  11.460   7.384  0.6565 -0.0852  0.7503
   84MOL0     H11320   1.242  10.590   6.742 -2.9616  2.3493 -0.9830
   84MOL0     H11321   1.284  10.440   6.577 -1.0380 -0.2098 -2.6434
   84MOL0     H11322   1.757  10.238   6.353  1.1064  1.5133 -2.0796
   84MOL0     H11323   1.794  10.057   6.185  0.9503  1.2159  1.2684
   84MOL0     H11324   2.254  10.110   4.667 -0.8121 -0.0923  0.7489
   84MOL0     H11325   2.298  10.257   4.469  2.7195 -0.6413 -2.1592
   84MOL0     H11326   2.565  10.446   4.172  2.9899 -1.9841  0.7749
   84MOL0     H11327   2.681  10.529   3.982 -1.4635  0.5639 -0.2680
   84MOL0     H11328   2.802  10.534   3.808  4.3336  1.8683  0.5070
   84MOL0     H11329   2.823  10.477   3.641 -0.0893 -1.4288  0.0374
   84MOL0     H11330   2.856  10.243   3.713 -2.0515 -1.0808  1.8354
   84MOL0     H11331   2.862  10.283   3.873  2.4058 -2.9057 -0.8406
   84MOL0     H11332   3.032  10.456   3.713 -0.6087  1.9983  2.6198
   84MOL0     H11333   3.095  10.292   3.726  1.7351  2.0474 -1.3114
   84MOL0     H11334   3.022  10.347   3.998 -0.0625 -1.9158 -1.0376
   84MOL0     H11335   3.182  10.399   3.934 -0.6216  2.5151  0.2048
   84MOL0     H11336   2.981  10.759   4.027  1.9182  1.3218 -0.7660
   84MOL0     H11337   2.503  10.212   3.749  0.0199 -2.1571  0.8229
   84MOL0     H11338   2.353  10.032   4.020 -0.7309 -0.8548 -0.1170
   84MOL0     H11339   2.246  10.163   3.970 -0.6394 -0.5156 -1.3773
   84MOL0     H11340   2.324  10.083   3.843 -2.1632  2.0568  0.2648
   85MOL0     O11341  10.834   1.147  11.121  0.2612  0.6111 -0.9169
   85MOL0     C11342  10.770   1.100  11.215  0.0695 -1.9458 -0.3385
   85MOL0     O11343  10.657   1.014  11.210  0.3302  0.0910 -0.5325
   85MOL0     C11344  10.613   0.959  11.094  0.2633  0.4123 -0.5069
   85MOL0     C11345  10.621   1.022  10.970  0.6504 -0.2417  0.1553
   85MOL0     C11346  10.587   0.952  10.849 -0.2097 -0.4144 -0.8538
   85MOL0     C11347  10.545   0.818  10.854 -0.1355  0.0434 -0.0547
   85MOL0     O11348  10.514   0.756  10.729  0.5611  0.2952 -0.6137
   85MOL0     C11349  10.456   0.624  10.728  1.1286 -1.1276 -0.3286
   85MOL0     C11350  10.435   0.555  10.590 -0.2856 -0.8309  0.0780
   85MOL0     C11351  10.424   0.411  10.594 -0.6278  0.5896  0.2265
   85MOL0     C11352  10.439   0.324  10.467 -0.1663 -0.4278 -0.4399
   85MOL0     C11353  10.590   0.294  10.440 -0.0965  0.1230  0.1901
   85MOL0     C11354  10.668   0.425  10.381  0.2034  0.2833 -0.8141
   85MOL0     C11355  10.797   0.386  10.321  1.0597  0.7019 -0.1027
   85MOL0     C11356  10.877   0.509  10.270 -0.3948  0.5966  0.3166
   85MOL0     N11357  11.009   0.496  10.204  0.4717 -0.2392  0.6371
   85MOL0     C11358  11.132   0.500  10.256  0.7637  0.2181 -0.3194
   85MOL0     C11359  11.220   0.479  10.156 -0.5964 -0.2798 -0.1647
   85MOL0     C11360  11.367   0.483  10.179  0.2547  0.0710 -0.1883
   85MOL0     C11361  11.442   0.449  10.049  0.2882 -0.4090  0.5344
   85MOL0     C11362  11.587   0.399  10.056 -0.7162 -0.0293 -0.1965
   85MOL0     C11363  11.633   0.360   9.921 -0.2754  0.8083 -0.2019
   85MOL0     O11364  11.671   0.472   9.841 -0.6209 -0.7191  0.4932
   85MOL0     C11365  11.728   0.451   9.722 -0.8820 -0.8690 -1.0269
   85MOL0     C11366  11.859   0.404   9.706  0.2014  0.5647 -0.5353
   85MOL0     C11367  11.926   0.387   9.580  0.1415  0.3540 -0.3670
   85MOL0     C11368  11.855   0.413   9.465 -0.7768 -0.3174  0.1766
   85MOL0     C11369  11.913   0.349   9.346  1.0479  0.4164  0.7771
   85MOL0     O11370  12.039   0.366   9.320 -0.3613 -0.3664  0.1180
   85MOL0     C11371  12.106   0.303   9.222 -0.7557  0.3876  1.3924
   85MOL0     C11372  12.061   0.322   9.086 -0.3361 -0.1503  0.3549
   85MOL0     C11373  12.126   0.253   8.981 -0.5482  0.1737 -0.2524
   85MOL0     C11374  12.256   0.194   8.999  0.5333  0.3107  0.0773
   85MOL0     O11375  12.325   0.154   8.888 -0.8130 -0.2886 -0.0066
   85MOL0     C11376  12.396   0.031   8.893  0.2736  0.4873 -0.0511
   85MOL0     C11377  12.541   0.053   8.858 -0.2052  0.0729  1.0671
   85MOL0     C11378  12.620  -0.071   8.905 -0.7032 -0.6203  0.8926
   85MOL0     C11379  12.716  -0.052   9.021 -0.1976 -0.8073 -0.1575
   85MOL0     C11380  12.791  -0.175   9.055  0.4046 -0.1685 -0.7827
   85MOL0     C11381  12.885  -0.226   8.949 -0.5628  0.4923  0.0502
   85MOL0     C11382  12.967  -0.341   8.991 -0.1607 -0.1963 -0.5203
   85MOL0     C11383  13.073  -0.366   8.883  0.1421  0.2160  0.5141
   85MOL0    Cl11384  13.222  -0.256   8.894  0.1969  0.0385  0.2030
   85MOL0     C11385  12.304   0.177   9.133 -0.8412 -0.1909  0.1125
   85MOL0     C11386  12.221   0.225   9.244  0.6186  0.2880  0.0090
   85MOL0     O11387  11.826   0.319   9.259  0.1459 -0.3447 -0.6063
   85MOL0     C11388  11.735   0.478   9.475  0.2098 -0.0003 -0.0871
   85MOL0     C11389  11.671   0.493   9.603  0.3665  0.5067  0.3194
   85MOL0     N11390  11.148   0.467  10.047  0.3772  0.3325  0.1816
   85MOL0     N11391  11.021   0.467  10.075 -0.4744 -0.7150 -0.0049
   85MOL0     C11392  10.533   0.765  10.981 -0.1816  0.2796  1.1645
   85MOL0     C11393  10.559   0.838  11.099 -0.6061 -0.4955  0.7698
   85MOL0     C11394  10.817   1.136  11.354 -0.5913  0.2868 -0.6809
   85MOL0     C11395  10.884   1.258  11.364  0.3990  0.0070  0.5406
   85MOL0     C11396  10.940   1.300  11.483  0.1984 -0.9238 -0.1436
   85MOL0     C11397  10.937   1.222  11.596  1.3294 -0.1356 -0.2268
   85MOL0     O11398  10.993   1.246  11.720 -0.5575 -0.8620 -0.2221
   85MOL0     C11399  11.125   1.302  11.734 -0.4223  0.2810  0.0321
   85MOL0     C11400  11.124   1.456  11.734 -0.1649 -0.7621 -0.5028
   85MOL0     C11401  11.262   1.500  11.793 -0.1493 -0.9557 -0.5357
   85MOL0     C11402  11.281   1.458  11.934  0.8226  0.2572 -0.5937
   85MOL0     C11403  11.152   1.484  12.010 -0.4688 -0.0284  0.5088
   85MOL0     C11404  11.059   1.477  12.076  0.5938 -0.4143  0.0318
   85MOL0     C11405  10.862   1.102  11.588 -0.1462 -0.2405  0.3216
   85MOL0     C11406  10.813   1.051  11.464 -0.2826  0.0172 -0.5877
   85MOL0     C11407  10.741   0.926  11.469  1.0438  0.6478  0.6291
   85MOL0     H11408  10.630   1.130  10.967  0.7486 -0.2138  1.0608
   85MOL0     H11409  10.596   0.996  10.750 -1.3984 -1.3474 -1.3942
   85MOL0     H11410  10.518   0.556  10.788 -1.7663 -1.3984  2.7025
   85MOL0     H11411  10.359   0.628  10.779  3.1234 -0.6374  3.8189
   85MOL0     H11412  10.510   0.589  10.517 -1.8446  1.4565 -0.5782
   85MOL0     H11413  10.342   0.595  10.548 -0.7242  0.6155  2.2814
   85MOL0     H11414  10.320   0.398  10.626 -1.3530 -4.0726 -2.9663
   85MOL0     H11415  10.481   0.358  10.672 -1.0494 -1.4660 -0.7850
   85MOL0     H11416  10.396   0.227  10.492 -1.0077 -0.3923 -1.6476
   85MOL0     H11417  10.391   0.372  10.381 -2.2642  0.2902  1.0373
   85MOL0     H11418  10.642   0.255  10.528  2.4374 -1.8996 -2.0692
   85MOL0     H11419  10.594   0.215  10.366  0.2379  0.5785 -0.2789
   85MOL0     H11420  10.612   0.467  10.298 -0.4284 -3.3163 -2.4050
   85MOL0     H11421  10.688   0.492  10.466  2.1690 -1.9365  0.6117
   85MOL0     H11422  10.784   0.311  10.241 -0.5813 -0.8802  1.5487
   85MOL0     H11423  10.858   0.336  10.397  2.8080 -2.5521 -3.2898
   85MOL0     H11424  10.800   0.537  10.198 -0.1804 -1.6870 -0.9152
   85MOL0     H11425  10.876   0.584  10.349 -0.7256  0.5480  0.3617
   85MOL0     H11426  11.167   0.501  10.359 -1.6013 -2.7026  0.6622
   85MOL0     H11427  11.383   0.585  10.214 -1.0752  1.3134 -2.9504
   85MOL0     H11428  11.409   0.419  10.258  0.8678 -2.0444 -2.1208
   85MOL0     H11429  11.387   0.361  10.017  0.8008 -0.4725 -0.1877
   85MOL0     H11430  11.437   0.534   9.981 -0.6709  0.2324  1.3910
   85MOL0     H11431  11.598   0.320  10.131 -2.6658  0.4002  0.6200
   85MOL0     H11432  11.651   0.477  10.098  0.1981  0.9185 -3.0748
   85MOL0     H11433  11.559   0.301   9.867  1.8508 -1.9716 -0.2866
   85MOL0     H11434  11.722   0.300   9.939 -0.6207  0.4050  0.1871
   85MOL0     H11435  11.911   0.385   9.799 -0.7733  0.0790 -0.0798
   85MOL0     H11436  12.026   0.346   9.576  0.7707  1.7919 -0.1191
   85MOL0     H11437  11.975   0.384   9.063 -0.5446  0.6162  2.8802
   85MOL0     H11438  12.094   0.263   8.878 -0.6388  2.0825 -0.0749
   85MOL0     H11439  12.387  -0.007   8.996  1.2005 -1.0024 -0.4897
   85MOL0     H11440  12.351  -0.035   8.819 -0.9244 -0.4242  1.4184
   85MOL0     H11441  12.554   0.058   8.749 -1.7430 -0.3830  0.8400
   85MOL0     H11442  12.573   0.146   8.906 -3.9263  3.9321 -2.9251
   85MOL0     H11443  12.551  -0.152   8.926 -1.3746 -0.7782 -1.6847
   85MOL0     H11444  12.678  -0.115   8.824  0.8025  2.1345  0.3235
   85MOL0     H11445  12.652  -0.017   9.103 -2.0590  1.5483 -2.4373
   85MOL0     H11446  12.775   0.040   9.014 -0.1206 -0.7235  1.2133
   85MOL0     H11447  12.717  -0.252   9.079  1.0038 -0.5799 -0.2241
   85MOL0     H11448  12.844  -0.159   9.149 -2.8089  1.2345  0.9731
   85MOL0     H11449  12.834  -0.263   8.859  0.1805  0.4579 -0.3685
   85MOL0     H11450  12.940  -0.140   8.911  0.0971 -0.3136 -0.8632
   85MOL0     H11451  12.911  -0.432   9.013  0.0764 -0.1907  0.1133
   85MOL0     H11452  13.018  -0.326   9.086 -0.4259 -1.2970 -0.1969
   85MOL0     H11453  13.101  -0.471   8.890  3.1324  0.9741  1.5093
   85MOL0     H11454  13.033  -0.348   8.783 -0.1850  2.0720  0.9281
   85MOL0     H11455  12.410   0.162   9.148  0.4706  1.2622 -5.3022
   85MOL0     H11456  12.265   0.210   9.342  0.6828  2.8147  0.4358
   85MOL0     H11457  11.673   0.510   9.392 -2.5314  0.5246  2.0181
   85MOL0     H11458  11.585   0.558   9.604  1.0192  1.4620  3.1988
   85MOL0     H11459  10.504   0.661  10.992  0.9959 -0.0833  0.9645
   85MOL0     H11460  10.563   0.791  11.196 -2.3797  2.2015  2.2975
   85MOL0     H11461  10.904   1.335  11.291  0.8993 -0.8703 -0.2857
   85MOL0     H11462  10.984   1.399  11.497 -2.5690  0.1479  1.8700
   85MOL0     H11463  11.186   1.274  11.649 -0.0078  1.1739  0.0235
   85MOL0     H11464  11.178   1.260  11.820 -3.9274 -0.8086  1.8921
   85MOL0     H11465  11.043   1.512  11.783 -0.2183  1.3792 -2.8187
   85MOL0     H11466  11.118   1.497  11.632 -2.9894  2.0578  0.5940
   85MOL0     H11467  11.271   1.609  11.798 -1.4697 -0.8911  1.7978
   85MOL0     H11468  11.350   1.453  11.747  1.0066  0.0825  0.5253
   85MOL0     H11469  11.295   1.351  11.953  0.6104 -0.5376 -4.1562
   85MOL0     H11470  11.361   1.511  11.986 -1.4768  0.4374  3.1418
   85MOL0     H11471  10.967   1.492  12.129 -0.1705  0.0369 -1.3479
   85MOL0     H11472  10.844   1.040  11.675 -3.3599 -0.3149 -0.2897
   85MOL0     H11473  10.632   0.931  11.465  1.0869  1.5309 -2.9123
   85MOL0     H11474  10.763   0.877  11.373  2.2898  0.0974  1.1708
   85MOL0     H11475  10.765   0.860  11.554 -1.3521  1.0174  1.6538
   86MOL0     O11476   8.963  10.569   5.236  0.1276 -0.7469  0.4965
   86MOL0     C11477   8.877  10.518   5.161 -0.0730 -0.6477  0.6074
   86MOL0     O11478   8.904  10.467   5.044  0.4484 -0.6477 -0.5076
   86MOL0     C11479   9.029  10.486   4.996 -1.1551  0.8097  0.1549
   86MOL0     C11480   9.073  10.597   4.935 -0.0223 -0.6612  0.2372
   86MOL0     C11481   9.207  10.601   4.873 -0.1195 -0.5841  0.2057
   86MOL0     C11482   9.291  10.492   4.877 -0.2392 -0.5725 -1.1517
   86MOL0     O11483   9.421  10.481   4.833  0.1179 -0.2297  0.4929
   86MOL0     C11484   9.475  10.588   4.762  0.0987  0.9977  0.2054
   86MOL0     C11485   9.445  10.574   4.609 -0.5018 -0.2312  1.0689
   86MOL0     C11486   9.572  10.523   4.546  0.1876  0.6864 -0.0795
   86MOL0     C11487   9.558  10.506   4.397 -0.1394 -1.1072 -0.1711
   86MOL0     C11488   9.683  10.432   4.343  0.6056 -0.6281  0.6079
   86MOL0     C11489   9.828  10.497   4.374  0.8830  0.0272 -0.5373
   86MOL0     C11490   9.856  10.648   4.353 -0.0909  0.0570  1.0170
   86MOL0     C11491   9.863  10.682   4.195  0.0875 -0.2812 -0.1465
   86MOL0     N11492   9.840  10.814   4.146 -0.0875 -0.3611 -0.2053
   86MOL0     C11493   9.861  10.927   4.222 -0.2679  0.0809 -0.0474
   86MOL0     C11494   9.812  11.029   4.165  0.0061 -0.0379 -0.8083
   86MOL0     C11495   9.806  11.179   4.195  0.1665 -0.2646  0.8091
   86MOL0     C11496   9.924  11.245   4.128 -1.0323  0.3796  1.0717
   86MOL0     C11497  10.061  11.209   4.184  0.1374 -0.8577  0.5969
   86MOL0     C11498  10.087  11.253   4.333 -0.2693 -1.0204  0.0262
   86MOL0     O11499  10.035  11.384   4.365 -1.1395  0.8109 -0.3913
   86MOL0     C11500  10.104  11.495   4.324 -0.6829  0.3541 -0.0829
   86MOL0     C11501  10.061  11.626   4.351  1.0542 -0.9763 -0.6585
   86MOL0     C11502  10.139  11.742   4.320  0.5793  0.2111 -0.9901
   86MOL0     C11503  10.255  11.727   4.243  0.5595 -0.3001 -0.7164
   86MOL0     C11504  10.328  11.846   4.227 -0.0761  0.4066 -0.3806
   86MOL0     O11505  10.254  11.968   4.210  0.2182  1.0172 -1.1841
   86MOL0     C11506  10.324  12.075   4.153 -0.2921 -0.1033 -0.1680
   86MOL0     C11507  10.365  12.187   4.237  0.5032  0.1140 -0.1686
   86MOL0     C11508  10.457  12.274   4.199 -0.5232 -1.3095  0.1939
   86MOL0     C11509  10.512  12.275   4.069  0.1474 -0.6243  0.2850
   86MOL0     O11510  10.594  12.378   4.035 -0.0472 -0.2794  0.0065
   86MOL0     C11511  10.577  12.418   3.900 -0.4242 -0.1050 -0.1376
   86MOL0     C11512  10.668  12.538   3.859  0.4423  0.3167 -0.2914
   86MOL0     C11513  10.635  12.672   3.947 -0.6602  1.5981 -0.2819
   86MOL0     C11514  10.726  12.698   4.061 -0.3315  0.1368 -0.6262
   86MOL0     C11515  10.650  12.703   4.191  0.4813  0.3318  0.0401
   86MOL0     C11516  10.741  12.737   4.305 -0.3089 -0.4157 -0.1872
   86MOL0     C11517  10.673  12.794   4.424 -0.2485 -0.5945 -0.6724
   86MOL0     C11518  10.575  12.704   4.506 -0.1666 -0.0426 -0.1930
   86MOL0    Cl11519  10.566  12.764   4.669 -0.1712  0.2920 -0.0132
   86MOL0     C11520  10.453  12.180   3.980 -0.6976  0.0388 -0.3356
   86MOL0     C11521  10.366  12.075   4.028  0.8748  0.8165  0.3431
   86MOL0     O11522  10.450  11.838   4.224  0.5830  0.3336  0.7331
   86MOL0     C11523  10.297  11.599   4.204  0.1681  0.8585  0.1802
   86MOL0     C11524  10.231  11.486   4.256 -0.1905  1.0248  0.1009
   86MOL0     N11525   9.750  10.979   4.055  0.2028 -0.3016  0.4536
   86MOL0     N11526   9.767  10.853   4.045  0.2833  0.8031  0.0890
   86MOL0     C11527   9.242  10.387   4.954 -0.5405 -0.7726 -0.0745
   86MOL0     C11528   9.116  10.377   5.002 -0.0760  0.5238 -0.0641
   86MOL0     C11529   8.728  10.526   5.208  0.1811 -0.4931  0.2830
   86MOL0     C11530   8.629  10.450   5.149  0.1479  0.0391 -0.5665
   86MOL0     C11531   8.505  10.431   5.209 -0.2039 -1.2598  0.4802
   86MOL0     C11532   8.474  10.492   5.328  0.3133 -0.8382 -1.3044
   86MOL0     O11533   8.353  10.461   5.381 -0.1206 -0.0328 -0.1797
   86MOL0     C11534   8.356  10.451   5.516 -0.0570 -0.6567 -0.7384
   86MOL0     C11535   8.242  10.360   5.570  0.3045  0.2531 -0.8026
   86MOL0     C11536   8.265  10.214   5.537  0.1104  0.4635 -0.6512
   86MOL0     C11537   8.181  10.103   5.604  0.3344  0.7893 -0.3424
   86MOL0     C11538   8.192  10.116   5.750 -0.6217  0.5002 -0.8491
   86MOL0     C11539   8.190  10.127   5.867 -0.8075  0.4320 -0.2956
   86MOL0     C11540   8.553  10.592   5.377  0.2481  0.4043 -0.5945
   86MOL0     C11541   8.686  10.606   5.329 -0.4058 -0.0801 -0.5874
   86MOL0     C11542   8.772  10.698   5.415  0.6489  0.1996 -0.2921
   86MOL0     H11543   9.005  10.682   4.943 -3.4114 -3.2960  2.1511
   86MOL0     H11544   9.222  10.689   4.811 -3.1164 -0.1773 -0.0966
   86MOL0     H11545   9.451  10.682   4.814  2.3237 -0.3764  4.1212
   86MOL0     H11546   9.583  10.591   4.782  0.5685  0.0269 -1.9023
   86MOL0     H11547   9.447  10.678   4.575  0.3712  0.4925  3.1701
   86MOL0     H11548   9.360  10.511   4.578  1.5850 -2.1579 -1.2015
   86MOL0     H11549   9.591  10.423   4.588  0.3907 -0.0500 -1.8529
   86MOL0     H11550   9.652  10.585   4.588  0.0021 -0.5504  2.3077
   86MOL0     H11551   9.468  10.447   4.375 -0.3845 -0.6279 -0.4743
   86MOL0     H11552   9.538  10.600   4.344  2.0462 -0.0101  0.8525
   86MOL0     H11553   9.679  10.325   4.364 -1.3158 -0.4561  1.3228
   86MOL0     H11554   9.665  10.419   4.235 -1.4092 -1.1532  0.9576
   86MOL0     H11555   9.838  10.486   4.482  1.1335  1.0243 -0.4511
   86MOL0     H11556   9.910  10.446   4.322  0.7498 -0.2753 -0.4545
   86MOL0     H11557   9.957  10.667   4.390  0.4899 -0.7256 -0.0997
   86MOL0     H11558   9.786  10.723   4.389  0.4082  1.3917 -0.6620
   86MOL0     H11559   9.956  10.641   4.154 -0.2807 -0.1968 -1.0983
   86MOL0     H11560   9.792  10.613   4.149  1.2192 -1.6987  0.1366
   86MOL0     H11561   9.916  10.935   4.315 -0.5475  1.9902 -0.0054
   86MOL0     H11562   9.711  11.221   4.161  0.5099  0.6244  0.9324
   86MOL0     H11563   9.794  11.199   4.302 -5.5034 -0.5180  0.5589
   86MOL0     H11564   9.940  11.202   4.029 -0.6013 -0.6787  1.5845
   86MOL0     H11565   9.919  11.354   4.129  1.0763  0.6398 -2.0509
   86MOL0     H11566  10.133  11.265   4.123  0.7892 -0.2747  1.8637
   86MOL0     H11567  10.092  11.104   4.175 -1.8227 -1.4124 -0.1040
   86MOL0     H11568  10.194  11.236   4.350  0.2498  0.0834 -1.8737
   86MOL0     H11569  10.042  11.180   4.401  0.9770  0.0239  2.0877
   86MOL0     H11570   9.968  11.644   4.403  1.5305 -0.8566  0.1583
   86MOL0     H11571  10.094  11.838   4.341 -0.3231 -0.5367  0.6416
   86MOL0     H11572  10.336  12.180   4.341 -0.9032  3.3919 -0.2417
   86MOL0     H11573  10.493  12.345   4.273  2.6340 -0.7484 -1.6900
   86MOL0     H11574  10.608  12.333   3.839  2.6559 -1.2855  2.7147
   86MOL0     H11575  10.470  12.432   3.884 -1.1422 -2.1267  2.1809
   86MOL0     H11576  10.775  12.518   3.872  0.3621 -0.9345 -1.3835
   86MOL0     H11577  10.649  12.540   3.752  2.1306 -0.3660 -0.6346
   86MOL0     H11578  10.652  12.753   3.876  1.1456  2.4206  1.0253
   86MOL0     H11579  10.532  12.695   3.976 -1.0853  0.7041 -1.0411
   86MOL0     H11580  10.768  12.798   4.060 -0.6154  0.3473  1.6372
   86MOL0     H11581  10.804  12.622   4.057 -0.3461  0.0594  0.2825
   86MOL0     H11582  10.600  12.606   4.202  1.1910  0.2188  3.1925
   86MOL0     H11583  10.566  12.771   4.176 -0.3797 -0.9568 -1.3301
   86MOL0     H11584  10.808  12.658   4.342  0.9410  0.3686 -0.7062
   86MOL0     H11585  10.801  12.826   4.287  0.3467 -0.2745  2.3204
   86MOL0     H11586  10.609  12.875   4.388 -0.6017 -0.1354  0.9373
   86MOL0     H11587  10.755  12.823   4.489 -1.1101  1.2225 -0.3258
   86MOL0     H11588  10.477  12.710   4.458 -0.5754 -2.5140  0.1883
   86MOL0     H11589  10.598  12.598   4.517  0.2568  0.3446  3.7656
   86MOL0     H11590  10.489  12.176   3.877  1.5847  0.2880  0.3800
   86MOL0     H11591  10.334  12.008   3.948  2.5863  0.7171 -0.3021
   86MOL0     H11592  10.389  11.568   4.157 -1.2228 -0.4694 -1.8225
   86MOL0     H11593  10.281  11.394   4.227  1.2484  0.7063  3.1512
   86MOL0     H11594   9.308  10.301   4.965  4.8818  2.6272 -1.6871
   86MOL0     H11595   9.074  10.292   5.055  0.0079  0.8716  0.5660
   86MOL0     H11596   8.649  10.388   5.062 -3.6424 -1.3312 -0.6595
   86MOL0     H11597   8.448  10.365   5.144  0.0151  0.3832 -1.5043
   86MOL0     H11598   8.352  10.552   5.556 -0.3293 -0.5027 -1.1497
   86MOL0     H11599   8.444  10.400   5.557 -2.0594 -1.5729  2.9251
   86MOL0     H11600   8.145  10.400   5.540  0.1864 -0.4943 -1.4492
   86MOL0     H11601   8.240  10.372   5.679 -0.1420 -1.0899 -0.6501
   86MOL0     H11602   8.367  10.195   5.571 -0.1158  0.0985 -0.1672
   86MOL0     H11603   8.247  10.210   5.429 -3.0542 -0.7747 -0.1859
   86MOL0     H11604   8.078  10.115   5.569 -0.0241  0.5265  0.5930
   86MOL0     H11605   8.214  10.003   5.574 -0.5064  0.9912 -2.0740
   86MOL0     H11606   8.196  10.131   5.974 -1.6158 -0.0600 -0.2228
   86MOL0     H11607   8.513  10.653   5.457  0.8107  0.8382 -0.6348
   86MOL0     H11608   8.836  10.758   5.349 -1.4412  0.1374 -2.5176
   86MOL0     H11609   8.702  10.770   5.459  0.3888 -1.4245  2.1114
   86MOL0     H11610   8.822  10.645   5.496 -0.2098 -1.2791 -0.6991
   87MOL0     O11611   6.313   9.383   2.822  0.2997 -0.0691 -0.9388
   87MOL0     C11612   6.238   9.374   2.919 -0.4098 -0.1662  0.4370
   87MOL0     O11613   6.269   9.411   3.045 -0.1583 -0.6164  0.5963
   87MOL0     C11614   6.402   9.411   3.084 -0.0280  0.9032 -0.0352
   87MOL0     C11615   6.514   9.369   3.011  0.7672 -0.7781  0.3563
   87MOL0     C11616   6.639   9.368   3.077 -0.5702  0.0851  0.1692
   87MOL0     C11617   6.660   9.422   3.211 -0.0470 -0.5416 -0.3935
   87MOL0     O11618   6.783   9.423   3.274 -0.2246  0.2648 -0.3580
   87MOL0     C11619   6.851   9.550   3.276  0.6103 -1.1369  0.1703
   87MOL0     C11620   6.985   9.519   3.346  0.2579  0.9037  1.0433
   87MOL0     C11621   7.096   9.628   3.306  0.2728 -0.1467  0.6210
   87MOL0     C11622   7.176   9.689   3.424 -0.0920  0.4106  0.4770
   87MOL0     C11623   7.265   9.808   3.389  0.5589  0.3952  0.0625
   87MOL0     C11624   7.380   9.769   3.295  0.2422  0.1098 -0.1423
   87MOL0     C11625   7.501   9.854   3.315 -0.6416 -0.4261  0.1942
   87MOL0     C11626   7.594   9.829   3.439 -0.3122 -0.1096  0.2180
   87MOL0     N11627   7.538   9.871   3.565 -0.5053  0.1279  0.2868
   87MOL0     C11628   7.519   9.783   3.674  0.2492 -0.2263 -0.2081
   87MOL0     C11629   7.507   9.860   3.780 -0.2824  0.8054 -0.3067
   87MOL0     C11630   7.485   9.805   3.918  0.3823  0.2860 -0.6086
   87MOL0     C11631   7.407   9.894   4.018  0.9830  0.5021 -0.1405
   87MOL0     C11632   7.264   9.926   3.968 -0.3073  0.7472  0.6452
   87MOL0     C11633   7.190   9.798   3.928 -0.4461  0.2293 -0.8709
   87MOL0     O11634   7.199   9.697   4.030  0.2081 -0.5814 -0.5521
   87MOL0     C11635   7.215   9.560   4.006 -0.2627  0.2845  0.2574
   87MOL0     C11636   7.198   9.509   3.873 -0.2958 -0.3929  0.1092
   87MOL0     C11637   7.219   9.381   3.851  0.2498  0.4882  0.0338
   87MOL0     C11638   7.273   9.297   3.954  0.3547  0.0687  1.0628
   87MOL0     C11639   7.294   9.156   3.937  0.0823  1.5412 -0.9880
   87MOL0     O11640   7.351   9.112   3.826 -0.1772  0.2437 -0.1718
   87MOL0     C11641   7.347   8.979   3.799  0.5253 -0.3838 -0.4524
   87MOL0     C11642   7.229   8.910   3.747 -0.5049  0.1471  0.4863
   87MOL0     C11643   7.230   8.779   3.707  0.1437 -0.7137  0.4749
   87MOL0     C11644   7.343   8.703   3.732  0.5518 -0.5571 -0.4992
   87MOL0     O11645   7.337   8.581   3.676  0.1046 -1.0188 -0.6890
   87MOL0     C11646   7.392   8.468   3.743 -0.7553 -1.0558  0.1726
   87MOL0     C11647   7.353   8.341   3.663 -0.3876  0.6770 -0.4133
   87MOL0     C11648   7.195   8.308   3.691  0.1275  0.5667 -0.2303
   87MOL0     C11649   7.160   8.171   3.625  0.4872  0.0658 -0.2596
   87MOL0     C11650   7.008   8.161   3.595 -0.5600 -0.4179 -1.0805
   87MOL0     C11651   6.927   8.122   3.713 -0.7476  0.2790  0.5115
   87MOL0     C11652   6.775   8.150   3.680  0.1534  0.6217 -0.4860
   87MOL0     C11653   6.695   8.050   3.774 -0.0500  0.7888 -1.0868
   87MOL0    Cl11654   6.672   7.876   3.713  0.1714  0.1036  0.0107
   87MOL0     C11655   7.461   8.762   3.769 -0.7447  0.9050  0.0837
   87MOL0     C11656   7.463   8.906   3.793  0.6233  0.5094  0.2000
   87MOL0     O11657   7.247   9.081   4.031  0.4541  0.5273 -0.1006
   87MOL0     C11658   7.295   9.349   4.082  0.6076  0.0498 -0.3583
   87MOL0     C11659   7.253   9.473   4.115 -0.2610  0.3068  0.5922
   87MOL0     N11660   7.516   9.995   3.748  0.1806  0.4107 -0.6911
   87MOL0     N11661   7.536   9.995   3.618 -0.4568 -0.5258  0.0991
   87MOL0     C11662   6.537   9.454   3.277  0.1458 -0.3661  1.0655
   87MOL0     C11663   6.417   9.450   3.213  0.1692  0.3536 -0.7081
   87MOL0     C11664   6.099   9.333   2.895  0.3219  0.5801  0.9341
   87MOL0     C11665   6.020   9.330   3.011  0.1354 -0.7591 -0.2708
   87MOL0     C11666   5.882   9.314   2.992  0.9616  0.3099  0.4994
   87MOL0     C11667   5.813   9.286   2.870 -0.5090  0.5895 -0.0011
   87MOL0     O11668   5.678   9.269   2.862  0.0641  0.2154  0.0169
   87MOL0     C11669   5.603   9.251   2.988  0.3905  0.3891 -0.2418
   87MOL0     C11670   5.478   9.173   2.959  0.4835  0.0053  0.6438
   87MOL0     C11671   5.387   9.181   3.080  1.1527 -1.0075 -0.7852
   87MOL0     C11672   5.243   9.227   3.053 -0.9384 -0.0996  0.8253
   87MOL0     C11673   5.195   9.168   2.928 -1.5832 -0.2641 -0.1337
   87MOL0     C11674   5.168   9.116   2.815  0.4675 -0.4770 -0.2532
   87MOL0     C11675   5.899   9.280   2.760  0.4785 -0.8349 -0.4356
   87MOL0     C11676   6.036   9.310   2.767  0.6660 -0.1015  0.1063
   87MOL0     C11677   6.119   9.317   2.637 -0.0437 -0.1437 -0.4668
   87MOL0     H11678   6.516   9.333   2.908 -1.0776  2.7141 -1.0589
   87MOL0     H11679   6.728   9.342   3.021  0.3712  2.6945  0.3508
   87MOL0     H11680   6.869   9.584   3.174 -1.0172  2.2615  0.8788
   87MOL0     H11681   6.792   9.616   3.341 -2.0883 -1.6666 -1.5653
   87MOL0     H11682   7.025   9.420   3.324 -1.0857  0.3348  1.0253
   87MOL0     H11683   6.958   9.518   3.452 -1.1602  1.5999  0.7246
   87MOL0     H11684   7.044   9.700   3.242 -0.9348 -1.8630 -0.4164
   87MOL0     H11685   7.159   9.571   3.239  1.3781 -0.9134  2.2476
   87MOL0     H11686   7.102   9.721   3.498  0.8280  1.2959  1.0467
   87MOL0     H11687   7.243   9.619   3.476  3.0988  1.8923 -1.3668
   87MOL0     H11688   7.211   9.896   3.351 -0.9978  0.3249  1.9474
   87MOL0     H11689   7.306   9.840   3.485 -1.7183  2.0694  0.5792
   87MOL0     H11690   7.425   9.672   3.318 -0.0865 -0.0049  0.0071
   87MOL0     H11691   7.346   9.785   3.192  1.7256 -0.3152 -0.7304
   87MOL0     H11692   7.479   9.961   3.322  1.2671  0.3619 -3.3022
   87MOL0     H11693   7.562   9.850   3.224 -1.3956  0.3985 -0.3632
   87MOL0     H11694   7.623   9.724   3.446 -2.5945 -0.6938  1.9176
   87MOL0     H11695   7.683   9.891   3.425 -1.2607  1.2671  0.1109
   87MOL0     H11696   7.519   9.675   3.686 -0.8067 -0.1379  0.7770
   87MOL0     H11697   7.432   9.709   3.908  1.7293 -0.6380  0.7902
   87MOL0     H11698   7.581   9.781   3.964  0.0897 -2.8831 -1.4495
   87MOL0     H11699   7.392   9.838   4.110 -2.2349  1.5763  0.1193
   87MOL0     H11700   7.448   9.994   4.039 -1.8965  1.5316  1.1672
   87MOL0     H11701   7.278   9.984   3.876  1.3224 -2.7668 -1.5611
   87MOL0     H11702   7.200   9.981   4.036  1.2050  1.0970  1.8378
   87MOL0     H11703   7.235   9.768   3.833 -0.3430 -2.5861  0.0056
   87MOL0     H11704   7.087   9.828   3.907 -0.3748 -0.7246 -2.7684
   87MOL0     H11705   7.164   9.567   3.788  2.4474 -1.2422 -1.6878
   87MOL0     H11706   7.195   9.347   3.751  0.9813  2.4948 -0.8709
   87MOL0     H11707   7.145   8.979   3.745  0.2212  1.1000 -2.3150
   87MOL0     H11708   7.136   8.736   3.674  0.0836 -0.0933 -0.1902
   87MOL0     H11709   7.498   8.471   3.767 -1.0868  0.9530  1.6675
   87MOL0     H11710   7.346   8.453   3.842 -0.4704  1.3205  0.7152
   87MOL0     H11711   7.379   8.362   3.559 -1.8302  3.0791 -0.3570
   87MOL0     H11712   7.417   8.258   3.695 -0.3734 -0.4620 -3.1348
   87MOL0     H11713   7.176   8.309   3.798 -5.1890  3.9445 -0.8374
   87MOL0     H11714   7.131   8.390   3.657 -0.7396  1.5098  3.2724
   87MOL0     H11715   7.190   8.086   3.687 -0.8488 -0.5699 -0.4696
   87MOL0     H11716   7.204   8.163   3.525  0.6374 -0.3794 -0.1602
   87MOL0     H11717   6.996   8.077   3.526 -2.5267 -0.2323 -1.0307
   87MOL0     H11718   6.970   8.246   3.537  1.1448 -0.0843 -1.7669
   87MOL0     H11719   6.938   8.017   3.739 -3.4487 -0.2624 -0.2600
   87MOL0     H11720   6.968   8.187   3.791 -0.4414 -0.4400  0.9578
   87MOL0     H11721   6.752   8.121   3.577 -3.7906 -1.8260  0.8301
   87MOL0     H11722   6.745   8.254   3.697  0.3431  0.3836  1.5252
   87MOL0     H11723   6.739   8.036   3.873  1.2282 -0.8171 -1.8279
   87MOL0     H11724   6.593   8.086   3.790 -0.8239 -2.6117  4.0363
   87MOL0     H11725   7.546   8.694   3.773 -2.4486 -1.3822 -0.0880
   87MOL0     H11726   7.565   8.936   3.817  0.7548  1.1877 -1.1255
   87MOL0     H11727   7.338   9.282   4.156 -3.8693 -0.5763  2.0132
   87MOL0     H11728   7.289   9.511   4.210 -1.5957 -0.0299  1.2513
   87MOL0     H11729   6.537   9.479   3.383 -2.8584  1.2340  0.7832
   87MOL0     H11730   6.327   9.492   3.257  0.7115  0.5697  0.2059
   87MOL0     H11731   6.062   9.355   3.107 -2.3793  1.0884  0.4648
   87MOL0     H11732   5.820   9.334   3.079  2.5501  1.2485  1.4728
   87MOL0     H11733   5.577   9.347   3.033 -0.2230  0.1297 -0.0329
   87MOL0     H11734   5.660   9.182   3.050  1.7175 -1.0896 -2.8975
   87MOL0     H11735   5.498   9.070   2.929  0.9382  0.1297  0.5025
   87MOL0     H11736   5.434   9.229   2.876 -0.4858 -0.0664  1.0990
   87MOL0     H11737   5.431   9.246   3.157  1.5277  1.0038 -2.5833
   87MOL0     H11738   5.370   9.085   3.129 -2.5579  0.3348  0.8849
   87MOL0     H11739   5.185   9.201   3.142  0.4391 -2.7562  1.0530
   87MOL0     H11740   5.250   9.335   3.036  0.8276 -0.3310 -0.2688
   87MOL0     H11741   5.149   9.081   2.715 -1.4522 -0.5301  0.1084
   87MOL0     H11742   5.865   9.262   2.658  0.9754 -1.1742 -0.5443
   87MOL0     H11743   6.048   9.300   2.556 -1.7373 -1.1932  1.1503
   87MOL0     H11744   6.175   9.410   2.623  3.2319 -2.1294 -1.6371
   87MOL0     H11745   6.203   9.247   2.633  1.2257  1.1278  1.6783
   88MOL0     O11746   0.368  10.896   2.727  0.0602  0.6034  0.6478
   88MOL0     C11747   0.437  10.832   2.647 -0.6608  0.2215 -0.2120
   88MOL0     O11748   0.535  10.887   2.572 -0.1676 -0.1376 -0.1777
   88MOL0     C11749   0.569  11.016   2.583  0.9269 -0.7680  0.3659
   88MOL0     C11750   0.503  11.106   2.512 -0.2936 -0.4316 -0.0588
   88MOL0     C11751   0.513  11.239   2.553  1.3987  0.2246  0.0709
   88MOL0     C11752   0.600  11.282   2.651 -0.7741 -0.0705 -0.4233
   88MOL0     O11753   0.600  11.405   2.718 -0.0708 -1.3228 -0.8750
   88MOL0     C11754   0.562  11.515   2.645 -0.6689 -0.2492  0.3082
   88MOL0     C11755   0.626  11.647   2.695  0.0722 -0.3655  1.5101
   88MOL0     C11756   0.751  11.682   2.611 -0.1131 -0.7225 -0.0232
   88MOL0     C11757   0.784  11.826   2.652  0.9722  0.3605 -0.5773
   88MOL0     C11758   0.926  11.871   2.643  0.2707  0.0743 -0.0358
   88MOL0     C11759   0.937  11.988   2.749  0.4511 -0.3734  0.5124
   88MOL0     C11760   1.063  12.075   2.720 -0.8807 -0.0903  0.4101
   88MOL0     C11761   1.073  12.178   2.830 -0.7627  0.8453  0.1195
   88MOL0     N11762   1.198  12.267   2.796  0.6249 -0.0831  0.9832
   88MOL0     C11763   1.328  12.218   2.791  0.0769  0.2051 -0.7906
   88MOL0     C11764   1.407  12.313   2.739  0.5483 -0.4808  0.2369
   88MOL0     C11765   1.557  12.301   2.711  1.1513  0.0995 -0.7747
   88MOL0     C11766   1.592  12.199   2.612  0.4772  0.4187  1.2701
   88MOL0     C11767   1.744  12.154   2.591  0.1989  0.4020 -1.2911
   88MOL0     C11768   1.788  12.061   2.701  0.6163 -0.4037 -0.3746
   88MOL0     O11769   1.849  12.136   2.810  0.4005  0.6233 -0.5053
   88MOL0     C11770   1.985  12.155   2.811  0.0053  0.4599 -0.3240
   88MOL0     C11771   2.050  12.169   2.936 -0.3749 -0.3426 -0.3363
   88MOL0     C11772   2.176  12.226   2.951 -0.3170 -0.2593  0.4438
   88MOL0     C11773   2.254  12.251   2.840 -0.4550 -0.7186  0.2684
   88MOL0     C11774   2.381  12.321   2.853  0.1057  0.1413 -0.4756
   88MOL0     O11775   2.458  12.311   2.965 -0.8494 -0.5729 -1.2090
   88MOL0     C11776   2.582  12.371   2.968 -0.1788 -0.8417  0.9644
   88MOL0     C11777   2.619  12.414   3.097  0.7610 -0.9982 -0.2214
   88MOL0     C11778   2.743  12.469   3.131 -0.0859 -0.6038  0.4154
   88MOL0     C11779   2.841  12.476   3.032  0.3006 -0.5211  0.6939
   88MOL0     O11780   2.976  12.517   3.044  0.6469 -0.1628  0.6049
   88MOL0     C11781   3.028  12.548   3.172 -0.3140 -0.1228 -0.7904
   88MOL0     C11782   2.975  12.677   3.225  0.5679  0.0073 -0.9240
   88MOL0     C11783   2.997  12.696   3.378 -0.1215  0.2921 -0.2401
   88MOL0     C11784   2.954  12.838   3.434  0.2190  0.9968 -0.8587
   88MOL0     C11785   2.960  12.822   3.590  0.2513 -0.6268  0.4626
   88MOL0     C11786   2.929  12.949   3.667  1.1208  0.1745 -0.1893
   88MOL0     C11787   2.880  12.912   3.807  0.2974 -0.4792  0.2781
   88MOL0     C11788   2.846  13.044   3.889 -0.0700 -0.7042 -0.5154
   88MOL0    Cl11789   2.962  13.191   3.908  0.1481  0.4453  0.2863
   88MOL0     C11790   2.803  12.433   2.899  0.5903 -0.2126 -0.4869
   88MOL0     C11791   2.673  12.394   2.863 -0.0590 -0.5918 -0.0253
   88MOL0     O11792   2.417  12.375   2.752  0.1536  0.7852  0.1666
   88MOL0     C11793   2.200  12.218   2.713 -0.2269 -0.9497 -0.1147
   88MOL0     C11794   2.065  12.171   2.697 -1.2147 -0.1611  1.7519
   88MOL0     N11795   1.330  12.421   2.720  1.3137 -0.0579  0.2216
   88MOL0     N11796   1.207  12.389   2.734  0.3520 -0.5483 -0.4902
   88MOL0     C11797   0.691  11.191   2.695  0.0883  0.7439 -0.5563
   88MOL0     C11798   0.670  11.050   2.667  0.1378  0.8810  0.0334
   88MOL0     C11799   0.390  10.693   2.619 -0.4320 -0.2446 -0.2775
   88MOL0     C11800   0.421  10.640   2.500  0.1823  1.0533  0.7433
   88MOL0     C11801   0.397  10.496   2.476  0.1799 -0.3213 -0.8460
   88MOL0     C11802   0.335  10.424   2.574  0.2284 -0.2804 -0.2366
   88MOL0     O11803   0.322  10.296   2.548 -0.2888 -0.3401 -0.8441
   88MOL0     C11804   0.391  10.202   2.636  0.1512 -0.0542  0.1980
   88MOL0     C11805   0.381  10.069   2.570  0.2002 -1.1115  0.6307
   88MOL0     C11806   0.428  10.072   2.423  0.9153  0.0965 -0.5678
   88MOL0     C11807   0.439   9.942   2.360 -0.7551 -0.6878  0.1804
   88MOL0     C11808   0.535   9.950   2.244 -0.6016  0.9843 -1.0333
   88MOL0     C11809   0.621   9.919   2.162  0.9270  0.3183 -0.4628
   88MOL0     C11810   0.280  10.482   2.696  0.1364 -0.4687  1.2477
   88MOL0     C11811   0.304  10.618   2.714 -0.6729  0.0012  0.1366
   88MOL0     C11812   0.260  10.678   2.840 -0.1677  0.1514  0.2916
   88MOL0     H11813   0.431  11.069   2.439 -1.5202  2.0734 -0.2023
   88MOL0     H11814   0.452  11.309   2.496  2.2196 -0.7491 -2.1031
   88MOL0     H11815   0.596  11.506   2.541 -1.5054 -1.0135  0.0996
   88MOL0     H11816   0.454  11.524   2.636 -0.4913 -0.0319 -3.3591
   88MOL0     H11817   0.651  11.643   2.802  1.3603  1.0340  1.3013
   88MOL0     H11818   0.554  11.728   2.676 -1.0583 -1.6556  0.0635
   88MOL0     H11819   0.743  11.693   2.502  3.5791  4.6520 -0.1074
   88MOL0     H11820   0.830  11.612   2.641  0.8460  0.2369 -0.2576
   88MOL0     H11821   0.719  11.894   2.597 -1.5397  0.0815  1.8330
   88MOL0     H11822   0.749  11.837   2.755 -2.6842 -1.1747 -1.4926
   88MOL0     H11823   0.981  11.780   2.670 -1.9529 -0.7787  2.0873
   88MOL0     H11824   0.951  11.900   2.541  1.9727  0.6251  0.4948
   88MOL0     H11825   0.852  12.055   2.742  1.6159  1.1944  0.7716
   88MOL0     H11826   0.919  11.937   2.844 -5.0308 -1.4432 -0.7799
   88MOL0     H11827   1.047  12.131   2.627 -0.5554 -0.1362  0.3254
   88MOL0     H11828   1.150  12.009   2.720 -1.2896 -0.7880 -2.5170
   88MOL0     H11829   0.984  12.239   2.850 -0.5349  1.2372 -0.0534
   88MOL0     H11830   1.094  12.136   2.929  0.8727  2.8433  0.7049
   88MOL0     H11831   1.361  12.117   2.812 -0.3555 -0.1987 -1.9325
   88MOL0     H11832   1.606  12.396   2.686 -0.3298  0.2231 -3.7258
   88MOL0     H11833   1.605  12.270   2.804  0.8009  1.5823 -0.0700
   88MOL0     H11834   1.535  12.106   2.621  0.0843  0.5622  0.4157
   88MOL0     H11835   1.560  12.241   2.516  1.6625 -0.2356  0.5593
   88MOL0     H11836   1.810  12.241   2.586 -3.3302  3.2923 -1.6983
   88MOL0     H11837   1.732  12.112   2.491 -4.1193  2.6876 -2.0031
   88MOL0     H11838   1.861  11.994   2.654  0.7844 -0.4898  0.0027
   88MOL0     H11839   1.709  11.996   2.741  1.4646 -1.4737 -0.3833
   88MOL0     H11840   1.982  12.153   3.020 -2.3742  0.6649 -1.6856
   88MOL0     H11841   2.205  12.246   3.054  0.6624  2.4079 -0.2774
   88MOL0     H11842   2.542  12.401   3.172 -1.9692  0.6924 -2.5250
   88MOL0     H11843   2.767  12.476   3.236  0.1656 -0.4370  0.3487
   88MOL0     H11844   3.012  12.464   3.240  0.4914  0.8609  0.6681
   88MOL0     H11845   3.136  12.553   3.154 -0.1607  1.3954  0.3382
   88MOL0     H11846   3.013  12.763   3.170  1.3116  0.6494  0.5471
   88MOL0     H11847   2.868  12.670   3.204  0.2798  0.9728  0.1100
   88MOL0     H11848   2.943  12.609   3.416 -0.7147 -0.5208 -2.7572
   88MOL0     H11849   3.100  12.676   3.409  0.0426  0.3442 -0.7377
   88MOL0     H11850   2.849  12.846   3.404 -0.2447  0.0649  0.4430
   88MOL0     H11851   2.994  12.930   3.389 -2.7049  3.5106  1.2768
   88MOL0     H11852   3.058  12.786   3.624 -0.7414 -3.2409  0.7707
   88MOL0     H11853   2.883  12.751   3.621 -1.7067  1.9426  1.8382
   88MOL0     H11854   3.020  13.006   3.685  1.2115  0.1885 -0.6972
   88MOL0     H11855   2.850  13.003   3.615  1.5869 -0.0541 -1.1492
   88MOL0     H11856   2.962  12.852   3.850  0.7311  1.0435  1.7092
   88MOL0     H11857   2.797  12.841   3.807  2.6282 -3.4322  0.8056
   88MOL0     H11858   2.753  13.087   3.851  0.3529 -0.8878 -1.8112
   88MOL0     H11859   2.828  13.006   3.990  1.6896 -1.4598 -0.4555
   88MOL0     H11860   2.887  12.432   2.831  2.6874  2.0679  1.8459
   88MOL0     H11861   2.666  12.349   2.765  0.4690 -0.2132 -0.2395
   88MOL0     H11862   2.253  12.234   2.620  1.6572  0.9587  1.2088
   88MOL0     H11863   2.031  12.148   2.597  3.6092 -1.9432  0.2651
   88MOL0     H11864   0.765  11.211   2.772 -1.4222 -1.4034  1.6108
   88MOL0     H11865   0.728  10.975   2.720  0.2812 -1.5161 -3.2343
   88MOL0     H11866   0.460  10.704   2.421  1.9680 -0.0612  0.6754
   88MOL0     H11867   0.438  10.438   2.394  4.1608 -2.0784  2.0717
   88MOL0     H11868   0.326  10.200   2.724 -0.3199  2.0499 -0.0528
   88MOL0     H11869   0.498  10.215   2.655  0.4759 -0.8079 -0.9898
   88MOL0     H11870   0.273  10.048   2.576 -0.4061 -0.2051 -3.6923
   88MOL0     H11871   0.451  10.004   2.622  0.9302  1.2834  2.8513
   88MOL0     H11872   0.532  10.105   2.428  1.7141 -1.5613 -3.6043
   88MOL0     H11873   0.359  10.132   2.363  1.4761  1.4990  0.1376
   88MOL0     H11874   0.469   9.861   2.428  2.9105  0.5086  0.2221
   88MOL0     H11875   0.343   9.905   2.324 -0.3144 -1.9510  0.2507
   88MOL0     H11876   0.695   9.906   2.085  3.1436 -1.0664  1.7219
   88MOL0     H11877   0.233  10.417   2.769 -0.1219 -1.4346  0.2571
   88MOL0     H11878   0.176  10.740   2.808 -0.0469 -0.2004 -0.7273
   88MOL0     H11879   0.216  10.610   2.913  0.4186  1.8558  2.3506
   88MOL0     H11880   0.333  10.743   2.890  0.4037  0.5472 -1.0113
   89MOL0     O11881   2.865   5.037   8.086 -0.1428 -0.2508  0.2253
   89MOL0     C11882   2.956   5.105   8.130  0.1142  0.2180 -0.3243
   89MOL0     O11883   3.091   5.067   8.134 -0.0059  0.7774 -0.4617
   89MOL0     C11884   3.138   4.941   8.110  0.2325  0.0304 -0.0624
   89MOL0     C11885   3.087   4.860   8.008  0.2165  0.2608 -0.3138
   89MOL0     C11886   3.142   4.736   7.980 -0.2308 -0.4539 -1.4715
   89MOL0     C11887   3.262   4.689   8.034  0.0277  0.5250 -0.5860
   89MOL0     O11888   3.318   4.565   8.011  0.4655  0.1140 -0.1445
   89MOL0     C11889   3.283   4.483   7.889  0.3850  0.3549 -0.2008
   89MOL0     C11890   3.384   4.371   7.859 -0.7993  0.6562 -0.3055
   89MOL0     C11891   3.481   4.339   7.979  0.1982 -0.5339  0.1599
   89MOL0     C11892   3.574   4.216   7.967  0.3858 -0.4006  0.3413
   89MOL0     C11893   3.691   4.215   8.065 -1.2661 -0.1585  0.4443
   89MOL0     C11894   3.797   4.131   8.014 -0.1728 -0.7665  0.6665
   89MOL0     C11895   3.924   4.158   8.091 -0.0502 -0.2961 -0.9618
   89MOL0     C11896   3.937   4.134   8.247 -0.2875 -1.3813 -1.4762
   89MOL0     N11897   3.939   3.987   8.251 -0.1239 -0.0457  0.5244
   89MOL0     C11898   4.053   3.917   8.292 -0.4254  0.0405 -0.5930
   89MOL0     C11899   4.009   3.784   8.305 -1.1732 -0.9698 -0.4035
   89MOL0     C11900   4.095   3.664   8.343 -0.4611 -0.6210 -0.1878
   89MOL0     C11901   4.146   3.598   8.218 -0.2763  0.8087  0.3402
   89MOL0     C11902   4.282   3.657   8.160  0.7405 -0.2213 -0.8961
   89MOL0     C11903   4.323   3.576   8.037 -0.4443  0.4915 -0.5138
   89MOL0     O11904   4.447   3.617   7.987 -0.0407  0.1950 -0.0696
   89MOL0     C11905   4.511   3.515   7.920 -0.1891 -0.6097 -0.0849
   89MOL0     C11906   4.627   3.467   7.984  0.1802  0.8288  0.1801
   89MOL0     C11907   4.699   3.357   7.922  0.0913 -1.5007  0.0562
   89MOL0     C11908   4.670   3.309   7.793  0.6523  0.4090 -0.7687
   89MOL0     C11909   4.749   3.200   7.738  0.6728  0.0746 -0.3221
   89MOL0     O11910   4.850   3.159   7.829 -0.5319  0.0355  0.2046
   89MOL0     C11911   4.895   3.038   7.796  0.2281  0.0751 -0.1325
   89MOL0     C11912   4.849   2.921   7.854 -0.0786 -0.5268 -0.7975
   89MOL0     C11913   4.928   2.801   7.842 -0.1208  0.6665  0.1195
   89MOL0     C11914   5.027   2.788   7.746 -0.3911 -0.2857  0.9340
   89MOL0     O11915   5.077   2.666   7.701  0.6313  0.0001  0.2063
   89MOL0     C11916   5.069   2.548   7.773  1.5689  0.1551 -0.6387
   89MOL0     C11917   5.157   2.533   7.888 -0.9570 -0.2215 -0.3351
   89MOL0     C11918   5.287   2.451   7.850 -0.0856 -0.7188  0.4921
   89MOL0     C11919   5.364   2.397   7.976 -0.2119 -0.0588 -0.5869
   89MOL0     C11920   5.431   2.255   7.952  0.5661  0.7176 -0.9838
   89MOL0     C11921   5.542   2.257   7.845 -0.0229  0.0746 -0.4829
   89MOL0     C11922   5.639   2.144   7.859  0.3385 -0.7119 -0.0391
   89MOL0     C11923   5.696   2.116   7.716  0.2612  0.2701 -0.7462
   89MOL0    Cl11924   5.853   2.029   7.739  0.3876  1.0714 -0.3384
   89MOL0     C11925   5.062   2.910   7.680  1.2489  0.7002 -0.2365
   89MOL0     C11926   4.998   3.029   7.703 -0.3571  0.1107  0.4801
   89MOL0     O11927   4.726   3.151   7.629 -0.6876 -0.5060 -0.3002
   89MOL0     C11928   4.546   3.354   7.740 -0.4063 -0.9229 -0.2297
   89MOL0     C11929   4.468   3.448   7.808  0.7099 -0.5972 -0.4645
   89MOL0     N11930   3.871   3.785   8.281 -0.6419 -0.0114  0.0723
   89MOL0     N11931   3.828   3.903   8.254  0.1064 -0.0166 -0.2984
   89MOL0     C11932   3.325   4.774   8.133  0.8927 -0.6788  0.1319
   89MOL0     C11933   3.255   4.893   8.178  0.6656  0.3581 -0.8627
   89MOL0     C11934   2.936   5.251   8.159  0.1351 -0.2633 -0.4535
   89MOL0     C11935   2.819   5.313   8.098 -0.8425 -0.3593  0.0146
   89MOL0     C11936   2.779   5.445   8.133 -0.0328 -0.3809 -0.4054
   89MOL0     C11937   2.868   5.523   8.208  0.4594  0.3678  0.2147
   89MOL0     O11938   2.860   5.659   8.231  0.3142 -0.1002  0.4055
   89MOL0     C11939   2.774   5.726   8.137 -0.2235  0.3036  0.6532
   89MOL0     C11940   2.790   5.875   8.129 -0.0924 -0.2172  0.5944
   89MOL0     C11941   2.724   5.935   8.008  0.7957  0.2927 -0.1359
   89MOL0     C11942   2.746   6.076   7.993  0.5245  0.0182  0.3256
   89MOL0     C11943   2.711   6.171   8.096  0.7363 -0.1278  0.5673
   89MOL0     C11944   2.673   6.232   8.192 -0.4702 -0.0889 -0.3356
   89MOL0     C11945   2.987   5.462   8.249  0.4298  0.0223 -0.2639
   89MOL0     C11946   3.023   5.332   8.237  0.1604  0.7706  0.2963
   89MOL0     C11947   3.135   5.290   8.326 -0.3620  0.2585 -0.8701
   89MOL0     H11948   2.998   4.896   7.957 -0.1546 -0.6030 -0.2902
   89MOL0     H11949   3.089   4.681   7.903 -2.9384  1.2342 -0.9531
   89MOL0     H11950   3.189   4.435   7.918  0.3851  0.9834  0.9069
   89MOL0     H11951   3.266   4.544   7.800 -2.7617  1.3205  0.9118
   89MOL0     H11952   3.457   4.403   7.784  2.0879 -1.5356  1.3574
   89MOL0     H11953   3.341   4.273   7.840  2.5680 -1.1464  0.5722
   89MOL0     H11954   3.420   4.330   8.069 -2.3589  2.1539 -1.1241
   89MOL0     H11955   3.536   4.433   7.980  0.9920 -0.8876 -2.3703
   89MOL0     H11956   3.509   4.131   7.987 -0.3939  0.5851  2.1924
   89MOL0     H11957   3.610   4.210   7.863  0.7384  1.1050  0.3524
   89MOL0     H11958   3.728   4.317   8.076 -2.0220  0.3390 -1.3513
   89MOL0     H11959   3.658   4.183   8.164 -1.4482 -0.2435  0.3552
   89MOL0     H11960   3.762   4.029   8.032 -2.8360 -0.0708 -0.1272
   89MOL0     H11961   3.806   4.133   7.905 -0.7421 -0.2612  0.6256
   89MOL0     H11962   3.937   4.266   8.080 -6.6878  1.0425 -0.0802
   89MOL0     H11963   4.005   4.109   8.036  2.1636  1.3628  0.6247
   89MOL0     H11964   4.025   4.173   8.300 -2.0102  0.3830  0.2343
   89MOL0     H11965   3.845   4.165   8.297 -0.1148 -3.8402  0.5341
   89MOL0     H11966   4.147   3.961   8.323 -2.0211  2.3517  1.3546
   89MOL0     H11967   4.176   3.691   8.411 -0.0846 -2.3823  0.1229
   89MOL0     H11968   4.036   3.597   8.406  3.0481 -2.7243  1.1022
   89MOL0     H11969   4.162   3.491   8.234 -0.2352  0.5457 -1.2560
   89MOL0     H11970   4.072   3.611   8.138 -1.1573  2.4610  1.3684
   89MOL0     H11971   4.353   3.651   8.243  0.2450 -0.3241 -0.4722
   89MOL0     H11972   4.281   3.765   8.138  1.8025  1.1513  4.3979
   89MOL0     H11973   4.244   3.586   7.962 -0.0995  0.2935 -0.9083
   89MOL0     H11974   4.321   3.469   8.059 -0.3331  0.1009 -2.2331
   89MOL0     H11975   4.667   3.521   8.070  2.6903 -0.8560  0.1886
   89MOL0     H11976   4.796   3.348   7.969  1.8422  2.6224 -2.2363
   89MOL0     H11977   4.759   2.927   7.914 -0.6374  0.1738 -1.6889
   89MOL0     H11978   4.886   2.714   7.891 -1.3580  0.9422 -0.4032
   89MOL0     H11979   4.969   2.549   7.817  1.0017 -1.9153 -1.7465
   89MOL0     H11980   5.070   2.460   7.707 -0.2344  2.8042 -4.5778
   89MOL0     H11981   5.192   2.635   7.908 -3.6359  1.2459 -2.4625
   89MOL0     H11982   5.113   2.482   7.974  0.4921 -0.7857  0.1024
   89MOL0     H11983   5.252   2.366   7.789  2.8007 -2.3186  0.8712
   89MOL0     H11984   5.340   2.518   7.782  2.1315 -0.7334  2.0906
   89MOL0     H11985   5.289   2.381   8.054 -2.4860  2.7316 -2.0097
   89MOL0     H11986   5.446   2.460   8.011 -0.7385  0.1592  0.3023
   89MOL0     H11987   5.371   2.165   7.937 -2.4506  1.6423  3.3599
   89MOL0     H11988   5.473   2.227   8.050 -2.6264  0.6122  0.4780
   89MOL0     H11989   5.482   2.255   7.754 -1.0007  0.7933  0.1197
   89MOL0     H11990   5.597   2.350   7.861 -0.5163 -0.0637  2.8718
   89MOL0     H11991   5.582   2.052   7.878 -1.2114  0.1232 -0.4843
   89MOL0     H11992   5.722   2.173   7.924  0.7255  3.8179 -2.1704
   89MOL0     H11993   5.633   2.059   7.647  1.6441  1.1035 -2.7775
   89MOL0     H11994   5.729   2.208   7.667  1.4196 -0.3243 -1.0856
   89MOL0     H11995   5.132   2.922   7.599  0.0735  3.3954 -0.9755
   89MOL0     H11996   5.034   3.120   7.655  4.7216 -1.7217  0.2117
   89MOL0     H11997   4.518   3.311   7.645  1.4027 -3.7612  0.3667
   89MOL0     H11998   4.370   3.476   7.772  0.4891 -0.8362 -0.0480
   89MOL0     H11999   3.420   4.751   8.179  1.6942  2.0830  0.0557
   89MOL0     H12000   3.317   4.953   8.244  0.1074 -1.9242  1.9856
   89MOL0     H12001   2.754   5.253   8.034  2.9986 -3.5567 -1.3481
   89MOL0     H12002   2.693   5.506   8.108 -0.4565  1.1645  3.9956
   89MOL0     H12003   2.667   5.722   8.157  0.0637 -0.4550  2.1633
   89MOL0     H12004   2.799   5.691   8.037  1.1451  2.3886  0.1928
   89MOL0     H12005   2.899   5.886   8.117  0.2668 -3.7425 -0.8308
   89MOL0     H12006   2.754   5.908   8.226 -1.2731 -1.2380  0.5274
   89MOL0     H12007   2.620   5.903   8.000  1.1786 -0.4777 -2.8020
   89MOL0     H12008   2.771   5.879   7.927 -0.2701 -2.6146  1.0889
   89MOL0     H12009   2.844   6.095   7.947 -0.9600  0.8883 -2.7863
   89MOL0     H12010   2.682   6.116   7.913 -1.5662 -0.1605  1.8308
   89MOL0     H12011   2.640   6.280   8.282 -2.1854  0.9373 -1.4493
   89MOL0     H12012   3.048   5.538   8.297 -2.5742  1.7095  1.1759
   89MOL0     H12013   3.132   5.182   8.347  0.8351  0.0457 -1.6905
   89MOL0     H12014   3.221   5.312   8.262 -1.7467  3.8564 -1.7123
   89MOL0     H12015   3.149   5.349   8.416 -1.6391 -4.0276  2.5029
   90MOL0     O12016   8.538   9.088   8.508 -0.3633 -0.1534 -0.4435
   90MOL0     C12017   8.583   9.201   8.506 -0.1870  0.3320  0.4877
   90MOL0     O12018   8.538   9.295   8.414  0.0567 -0.4629 -0.4745
   90MOL0     C12019   8.439   9.282   8.330  0.1955  0.0765 -0.0463
   90MOL0     C12020   8.430   9.172   8.245  0.2649  0.1867 -0.6600
   90MOL0     C12021   8.318   9.167   8.165 -0.2575  0.3936  0.2131
   90MOL0     C12022   8.208   9.262   8.162 -0.6381  0.7777 -0.2477
   90MOL0     O12023   8.101   9.246   8.080  0.7648  0.6073  0.1926
   90MOL0     C12024   8.015   9.360   8.061  1.2550 -1.3953 -0.1693
   90MOL0     C12025   7.899   9.319   7.968 -0.0046 -0.4464  0.7434
   90MOL0     C12026   7.800   9.425   7.941  0.1409 -0.4145  0.3930
   90MOL0     C12027   7.716   9.392   7.817 -0.2006  0.9727 -0.7159
   90MOL0     C12028   7.642   9.514   7.765 -0.4237 -0.3816  0.3203
   90MOL0     C12029   7.555   9.509   7.638 -0.3640  0.5925  0.2481
   90MOL0     C12030   7.432   9.418   7.664  0.0633 -1.0117  0.8231
   90MOL0     C12031   7.372   9.371   7.529  0.6028  0.5959 -0.5325
   90MOL0     N12032   7.227   9.333   7.514  0.5466  0.2671 -0.8831
   90MOL0     C12033   7.148   9.292   7.622  0.2555  0.0872 -1.3669
   90MOL0     C12034   7.026   9.248   7.574  1.0409 -0.0117 -0.6516
   90MOL0     C12035   6.913   9.206   7.659  0.2689  0.7101  0.8396
   90MOL0     C12036   6.825   9.322   7.697 -0.1126 -0.8046 -0.0356
   90MOL0     C12037   6.713   9.282   7.788 -0.0904 -0.2224 -0.6922
   90MOL0     C12038   6.611   9.202   7.714  0.8465  0.7985 -1.1353
   90MOL0     O12039   6.521   9.139   7.812 -0.1524  0.7341 -1.1951
   90MOL0     C12040   6.394   9.194   7.805  0.1060  0.3348  0.1164
   90MOL0     C12041   6.299   9.138   7.715  0.2903  0.3188  0.2895
   90MOL0     C12042   6.170   9.177   7.703 -0.8834 -1.2797 -0.1731
   90MOL0     C12043   6.124   9.290   7.787  0.5215  0.1302  0.0845
   90MOL0     C12044   5.986   9.349   7.770 -0.5199 -0.4152 -0.1137
   90MOL0     O12045   5.899   9.277   7.694 -0.2500  0.2196 -0.0207
   90MOL0     C12046   5.766   9.310   7.663 -0.0836  0.5284 -0.5688
   90MOL0     C12047   5.674   9.343   7.762 -0.3740  0.4451  0.8957
   90MOL0     C12048   5.535   9.355   7.739 -0.0579  0.4424 -0.4369
   90MOL0     C12049   5.494   9.358   7.606 -0.8180 -0.2972 -0.8610
   90MOL0     O12050   5.364   9.379   7.589 -0.5482 -0.2294 -0.2498
   90MOL0     C12051   5.340   9.485   7.497  0.5533 -1.0488 -0.0092
   90MOL0     C12052   5.222   9.444   7.407  0.4404 -0.5683 -0.3388
   90MOL0     C12053   5.208   9.547   7.296 -0.2223  0.1859 -0.1540
   90MOL0     C12054   5.304   9.525   7.176  0.0867  0.2135  0.9124
   90MOL0     C12055   5.259   9.624   7.064 -0.9280 -0.0182 -0.3789
   90MOL0     C12056   5.343   9.592   6.941 -0.1851  0.2147  0.2006
   90MOL0     C12057   5.247   9.617   6.827 -0.6221 -0.1046 -1.2139
   90MOL0     C12058   5.332   9.608   6.699  0.2546  0.4628 -0.4886
   90MOL0    Cl12059   5.396   9.445   6.681 -0.5413  0.3820  0.0126
   90MOL0     C12060   5.580   9.331   7.506 -0.2977 -0.2749  0.6358
   90MOL0     C12061   5.720   9.315   7.532 -0.3581  1.5401  0.0713
   90MOL0     O12062   5.958   9.447   7.834  0.0163 -0.8085 -0.8251
   90MOL0     C12063   6.215   9.332   7.893 -0.2575 -0.0131 -0.3589
   90MOL0     C12064   6.346   9.288   7.904 -0.4743  0.6279  0.2388
   90MOL0     N12065   7.032   9.286   7.439  1.0235 -0.9052  0.1489
   90MOL0     N12066   7.149   9.327   7.404  0.1551 -0.0226  0.3357
   90MOL0     C12067   8.223   9.369   8.257  0.3152  0.3050 -0.2680
   90MOL0     C12068   8.336   9.375   8.336  0.1013 -0.1103 -0.5205
   90MOL0     C12069   8.705   9.221   8.594  0.9637 -0.9361 -0.4191
   90MOL0     C12070   8.745   9.353   8.608 -0.1470  0.8361  0.5513
   90MOL0     C12071   8.850   9.389   8.690 -0.2024 -0.6215  0.3190
   90MOL0     C12072   8.933   9.310   8.763 -0.7951 -0.6415 -1.1804
   90MOL0     O12073   9.031   9.355   8.851 -0.1236 -0.0397 -0.5139
   90MOL0     C12074   8.984   9.458   8.938 -0.5059  0.1432 -0.4219
   90MOL0     C12075   9.114   9.512   9.009 -0.6550 -0.4012 -0.7724
   90MOL0     C12076   9.073   9.607   9.112 -0.0917  0.5272  0.3615
   90MOL0     C12077   9.190   9.702   9.164  0.4513  0.1876 -0.5656
   90MOL0     C12078   9.247   9.651   9.285 -0.1347 -0.1465 -0.2255
   90MOL0     C12079   9.302   9.590   9.373  0.2432  0.2305 -0.8947
   90MOL0     C12080   8.904   9.177   8.750  0.7412  0.8384 -0.1932
   90MOL0     C12081   8.791   9.127   8.663  0.1247  0.4589 -0.8622
   90MOL0     C12082   8.770   8.983   8.639 -0.3553 -0.6054  0.8426
   90MOL0     H12083   8.501   9.091   8.259  0.7997  0.5774 -1.1033
   90MOL0     H12084   8.305   9.080   8.100 -1.3568  2.2993 -2.3206
   90MOL0     H12085   7.978   9.402   8.155 -1.9076 -3.8389 -0.1732
   90MOL0     H12086   8.072   9.438   8.010  0.9465 -0.5249  0.7735
   90MOL0     H12087   7.862   9.226   8.012  2.2639 -2.4205 -1.2865
   90MOL0     H12088   7.949   9.297   7.874  0.1611 -3.1657  1.3862
   90MOL0     H12089   7.844   9.524   7.935 -0.5669 -0.1693 -1.0989
   90MOL0     H12090   7.717   9.438   8.012 -2.6572 -1.6229 -2.3976
   90MOL0     H12091   7.778   9.357   7.734 -0.1685 -0.4353 -0.1309
   90MOL0     H12092   7.639   9.320   7.845  0.5231  0.4945  0.1056
   90MOL0     H12093   7.577   9.544   7.847 -1.6174 -1.6251 -0.1389
   90MOL0     H12094   7.719   9.589   7.745 -1.4075  1.0706  1.7004
   90MOL0     H12095   7.516   9.607   7.611  2.5037  2.4472  2.2194
   90MOL0     H12096   7.611   9.466   7.554 -2.4952 -0.1367 -0.8714
   90MOL0     H12097   7.353   9.457   7.728 -1.0156 -0.6062 -0.7055
   90MOL0     H12098   7.462   9.325   7.713 -0.9852 -0.8043  1.9060
   90MOL0     H12099   7.395   9.453   7.459 -2.1743  1.0139 -1.0844
   90MOL0     H12100   7.429   9.279   7.516 -1.5003 -1.7018  4.1672
   90MOL0     H12101   7.172   9.292   7.728  1.3936 -1.8182 -1.5916
   90MOL0     H12102   6.876   9.131   7.589  0.8822  1.4220 -0.2915
   90MOL0     H12103   6.937   9.156   7.754  0.3772 -1.0701 -0.0863
   90MOL0     H12104   6.867   9.405   7.754  1.5230 -1.3536 -0.3985
   90MOL0     H12105   6.769   9.373   7.617 -1.2695  1.1957  1.9238
   90MOL0     H12106   6.664   9.375   7.818  2.5769  0.7877  0.9226
   90MOL0     H12107   6.752   9.231   7.877  0.6748 -0.3523 -1.0907
   90MOL0     H12108   6.665   9.119   7.669  2.3882  0.5914  0.9539
   90MOL0     H12109   6.570   9.253   7.627  1.1315  2.7210 -0.2039
   90MOL0     H12110   6.336   9.065   7.643 -0.0175  0.7013 -0.2667
   90MOL0     H12111   6.105   9.138   7.625 -0.8362 -3.8932  0.9957
   90MOL0     H12112   5.720   9.339   7.860  1.1870  3.3235  0.3810
   90MOL0     H12113   5.457   9.361   7.814  1.7885 -0.0586  1.6181
   90MOL0     H12114   5.314   9.575   7.553 -0.5567  0.2622 -2.4538
   90MOL0     H12115   5.428   9.516   7.440 -1.0362  0.5188 -1.7423
   90MOL0     H12116   5.239   9.345   7.364  1.2666  0.2543 -2.0031
   90MOL0     H12117   5.130   9.431   7.465 -0.5037  1.3268 -1.3216
   90MOL0     H12118   5.105   9.539   7.262 -0.8847 -0.4815  1.8742
   90MOL0     H12119   5.217   9.648   7.337  0.0706  1.0718 -2.2584
   90MOL0     H12120   5.283   9.428   7.132 -1.5097  0.4573  1.0769
   90MOL0     H12121   5.409   9.539   7.204 -0.2583 -1.8720  3.6404
   90MOL0     H12122   5.274   9.723   7.106 -2.2628  0.3921 -0.7925
   90MOL0     H12123   5.153   9.615   7.036 -0.9371 -1.2948 -0.0129
   90MOL0     H12124   5.421   9.666   6.918  0.0277 -0.6706 -2.0979
   90MOL0     H12125   5.377   9.489   6.948 -0.6263  0.1741  3.9983
   90MOL0     H12126   5.193   9.711   6.847  1.6266  1.0479 -0.2214
   90MOL0     H12127   5.166   9.544   6.822 -0.2776 -0.5916  0.1059
   90MOL0     H12128   5.269   9.620   6.610 -2.3094  1.7408  1.3611
   90MOL0     H12129   5.403   9.690   6.695 -1.7460  2.2540 -2.1990
   90MOL0     H12130   5.543   9.331   7.404 -4.3183 -1.6511  1.8807
   90MOL0     H12131   5.792   9.296   7.453  0.3480 -0.6797  1.1598
   90MOL0     H12132   6.180   9.409   7.961 -2.7212 -1.4134  0.1083
   90MOL0     H12133   6.424   9.337   7.962 -0.5695  0.2577  0.6833
   90MOL0     H12134   8.147   9.445   8.270  1.3220  1.4225 -0.7595
   90MOL0     H12135   8.349   9.462   8.399 -0.0968  0.1300 -0.8069
   90MOL0     H12136   8.694   9.430   8.552  1.2216  0.5943 -1.1286
   90MOL0     H12137   8.887   9.492   8.688 -0.1739 -0.6362 -1.5036
   90MOL0     H12138   8.917   9.430   9.019  1.2716  0.5163  1.2695
   90MOL0     H12139   8.934   9.539   8.884  1.6923  0.2346 -2.4868
   90MOL0     H12140   9.193   9.551   8.944  1.4226 -1.9460  0.6927
   90MOL0     H12141   9.163   9.429   9.061  1.6468  2.0347  1.2258
   90MOL0     H12142   9.021   9.554   9.193 -0.6418  0.3507 -0.0987
   90MOL0     H12143   8.992   9.663   9.065  1.7989  0.1738 -3.8356
   90MOL0     H12144   9.273   9.719   9.094  1.6823 -1.5372  0.3869
   90MOL0     H12145   9.155   9.805   9.173  0.9812  0.3523 -0.3435
   90MOL0     H12146   9.351   9.539   9.453 -1.3909  2.0299  1.3856
   90MOL0     H12147   8.955   9.096   8.802 -3.0500 -1.7231 -0.0053
   90MOL0     H12148   8.841   8.913   8.684  1.5825 -1.6958 -3.4046
   90MOL0     H12149   8.670   8.942   8.658 -1.2612  0.9552 -0.2967
   90MOL0     H12150   8.803   8.969   8.536 -0.8518 -0.8635  0.7148
   91MOL0     O12151   0.398   6.707  11.327 -0.7971  0.1144  0.0770
   91MOL0     C12152   0.358   6.764  11.221 -0.3868  0.8552  0.2574
   91MOL0     O12153   0.255   6.721  11.137 -0.3583 -0.2093 -0.2209
   91MOL0     C12154   0.180   6.611  11.171  0.2295 -0.2208  0.1644
   91MOL0     C12155   0.187   6.495  11.095 -0.4903  0.0334  0.1732
   91MOL0     C12156   0.138   6.371  11.129  0.2783 -0.0496 -0.1514
   91MOL0     C12157   0.066   6.365  11.248  0.4026 -0.5101 -0.4401
   91MOL0     O12158   0.007   6.254  11.303  0.5009  0.4707  0.3881
   91MOL0     C12159   0.006   6.137  11.217 -0.0547  1.2006  0.9995
   91MOL0     C12160  -0.061   6.026  11.310  0.3050  0.3388  0.0996
   91MOL0     C12161   0.012   5.964  11.419  0.7388  0.1291 -0.0038
   91MOL0     C12162   0.155   5.929  11.384  0.8899 -0.1689 -1.0830
   91MOL0     C12163   0.236   5.864  11.501  0.0500 -0.9130 -0.4351
   91MOL0     C12164   0.378   5.837  11.456  1.3836  0.7452 -0.0568
   91MOL0     C12165   0.457   5.776  11.568  0.2177 -0.1906  0.2813
   91MOL0     C12166   0.600   5.771  11.534 -0.6965 -0.0101 -0.4540
   91MOL0     N12167   0.637   5.664  11.446  0.2356  0.2431 -0.2598
   91MOL0     C12168   0.710   5.696  11.342  0.0240  0.1990  0.1646
   91MOL0     C12169   0.745   5.579  11.292  0.2220 -1.0878 -0.6763
   91MOL0     C12170   0.835   5.563  11.178 -0.0597  0.1454  0.2121
   91MOL0     C12171   0.768   5.499  11.058 -0.7331 -0.0345  0.3154
   91MOL0     C12172   0.852   5.470  10.932 -0.4934 -0.6711 -0.2967
   91MOL0     C12173   0.947   5.352  10.939  1.7110  0.2840  0.5905
   91MOL0     O12174   0.999   5.331  10.797 -0.0220  0.4115 -0.4207
   91MOL0     C12175   1.091   5.236  10.771  0.2451  0.0762 -0.7028
   91MOL0     C12176   1.117   5.203  10.640  0.2094 -0.4739  0.6579
   91MOL0     C12177   1.217   5.108  10.607  1.3127 -0.7493  0.1592
   91MOL0     C12178   1.287   5.050  10.709  0.8700  0.7989 -0.4896
   91MOL0     C12179   1.395   4.950  10.675 -0.3436  0.1209 -0.2184
   91MOL0     O12180   1.418   4.920  10.546 -0.0504 -0.0044 -0.7810
   91MOL0     C12181   1.547   4.871  10.524 -0.7483  0.6223 -0.0279
   91MOL0     C12182   1.646   4.954  10.466 -0.0524 -0.1766 -0.7158
   91MOL0     C12183   1.784   4.920  10.463  0.3689  0.8591  0.1495
   91MOL0     C12184   1.821   4.793  10.500  0.2001  0.9463  0.0320
   91MOL0     O12185   1.951   4.759  10.496 -0.2530  0.5263 -0.5019
   91MOL0     C12186   2.004   4.713  10.621  0.0445 -0.2111  0.4806
   91MOL0     C12187   2.151   4.762  10.648  1.0058  0.8306  0.0718
   91MOL0     C12188   2.263   4.677  10.583 -0.1750  0.5731 -0.6802
   91MOL0     C12189   2.244   4.646  10.440  0.3172  0.1425 -0.3828
   91MOL0     C12190   2.372   4.587  10.378 -0.4361 -0.6937  0.0135
   91MOL0     C12191   2.369   4.584  10.222  1.1571 -0.6894 -0.0763
   91MOL0     C12192   2.478   4.492  10.178  0.7035  0.6194  0.9349
   91MOL0     C12193   2.465   4.470  10.022 -0.8317  0.2051 -0.9600
   91MOL0    Cl12194   2.611   4.392   9.949  0.1937 -0.4615 -0.2773
   91MOL0     C12195   1.719   4.711  10.558 -0.1848  0.7357  0.1366
   91MOL0     C12196   1.587   4.748  10.570 -0.4732  0.1498 -0.1016
   91MOL0     O12197   1.460   4.906  10.772 -0.0444 -0.0900  0.5564
   91MOL0     C12198   1.258   5.070  10.841  0.2533 -0.1898 -0.5330
   91MOL0     C12199   1.170   5.172  10.869  0.2192 -0.2816  0.2104
   91MOL0     N12200   0.684   5.471  11.359  0.1906 -0.2601 -0.4259
   91MOL0     N12201   0.635   5.528  11.457 -0.8273 -1.6288  0.9952
   91MOL0     C12202   0.050   6.490  11.322  1.2496  0.3438 -0.8783
   91MOL0     C12203   0.103   6.609  11.283  0.7210 -0.6577 -0.3158
   91MOL0     C12204   0.436   6.882  11.168  0.6611  0.4148  0.4984
   91MOL0     C12205   0.457   6.875  11.030  0.6574  1.3475 -0.6488
   91MOL0     C12206   0.547   6.959  10.960  0.0341 -0.0480 -0.7132
   91MOL0     C12207   0.628   7.046  11.046 -0.9359  0.0109 -0.5210
   91MOL0     O12208   0.732   7.121  10.996 -1.1744 -0.3333  0.6342
   91MOL0     C12209   0.858   7.064  11.019 -0.8153 -0.9050  0.7221
   91MOL0     C12210   0.965   7.127  10.924  0.3508 -0.6393  0.3565
   91MOL0     C12211   0.946   7.276  10.890  1.1361  1.1191  0.1920
   91MOL0     C12212   1.058   7.327  10.797 -0.1241  0.3191  0.0098
   91MOL0     C12213   1.039   7.459  10.743 -0.4347  0.6724 -0.8685
   91MOL0     C12214   0.984   7.563  10.704  0.3673  0.4072  0.4503
   91MOL0     C12215   0.597   7.051  11.174  0.0825  0.0974 -0.2041
   91MOL0     C12216   0.497   6.973  11.238 -1.1793 -0.0859 -0.5731
   91MOL0     C12217   0.465   6.990  11.390 -0.2570 -0.0149  1.0393
   91MOL0     H12218   0.241   6.514  11.002 -3.2631  2.1916 -1.1674
   91MOL0     H12219   0.160   6.288  11.063  0.7254 -2.2977  2.6265
   91MOL0     H12220  -0.066   6.139  11.134 -3.8973 -1.6685  3.8780
   91MOL0     H12221   0.099   6.096  11.178 -1.2784  1.6283 -2.7810
   91MOL0     H12222  -0.099   5.942  11.251 -0.3078  0.1662  0.7275
   91MOL0     H12223  -0.150   6.067  11.358  0.3043 -0.8626  1.1477
   91MOL0     H12224  -0.049   5.879  11.450  0.8126 -1.0537 -2.7765
   91MOL0     H12225   0.018   6.047  11.490  1.7046  2.2675 -2.4118
   91MOL0     H12226   0.165   5.873  11.290 -0.1837 -1.6370 -0.3601
   91MOL0     H12227   0.210   6.022  11.367  0.1875  0.6932  1.0314
   91MOL0     H12228   0.243   5.927  11.589 -0.7482 -3.5331  1.6332
   91MOL0     H12229   0.196   5.772  11.544 -1.5561  0.5971  1.4290
   91MOL0     H12230   0.370   5.758  11.381 -0.0808  1.8782 -1.1375
   91MOL0     H12231   0.411   5.927  11.403  2.3551 -1.1691 -2.9425
   91MOL0     H12232   0.419   5.677  11.594 -2.2829  0.2233 -1.4967
   91MOL0     H12233   0.444   5.842  11.654 -0.4712 -0.6706  0.5539
   91MOL0     H12234   0.623   5.869  11.493  0.8561  0.8074  2.1675
   91MOL0     H12235   0.653   5.759  11.629 -0.0528 -1.8373 -1.0021
   91MOL0     H12236   0.748   5.790  11.302 -0.3438 -0.9021 -3.1095
   91MOL0     H12237   0.866   5.662  11.146  2.4965 -0.6738 -0.0516
   91MOL0     H12238   0.925   5.505  11.201 -0.7593 -1.5943 -1.2150
   91MOL0     H12239   0.735   5.400  11.090  1.7579 -0.2906  2.3735
   91MOL0     H12240   0.684   5.559  11.024  0.7507  3.4905  2.3374
   91MOL0     H12241   0.910   5.557  10.902 -0.6277 -0.7678 -0.8406
   91MOL0     H12242   0.783   5.449  10.850 -2.4351  0.4955  0.9403
   91MOL0     H12243   0.902   5.257  10.967  3.4864 -0.9251 -0.4910
   91MOL0     H12244   1.022   5.379  11.015  0.5869  1.6713  1.2629
   91MOL0     H12245   1.051   5.248  10.567 -3.0460 -0.2099  3.5038
   91MOL0     H12246   1.251   5.084  10.507  0.4248  0.8531 -0.5662
   91MOL0     H12247   1.611   5.055  10.446 -1.6343 -0.6806 -0.6069
   91MOL0     H12248   1.864   4.991  10.443  0.7060  1.6627  3.7209
   91MOL0     H12249   1.939   4.743  10.704  2.1483  0.2464  2.0469
   91MOL0     H12250   2.003   4.604  10.612 -0.3800 -0.3166  1.6159
   91MOL0     H12251   2.170   4.866  10.620  2.0286  0.7704  0.5006
   91MOL0     H12252   2.168   4.760  10.757  2.0556 -3.1155 -0.0368
   91MOL0     H12253   2.356   4.732  10.597  1.7273 -2.4798 -0.5446
   91MOL0     H12254   2.272   4.588  10.645 -1.1859  1.5515  0.9598
   91MOL0     H12255   2.210   4.740  10.395 -0.4416  0.4291  0.7473
   91MOL0     H12256   2.169   4.567  10.429  0.7206 -0.2627 -0.2338
   91MOL0     H12257   2.401   4.492  10.423 -0.3694  1.3738  4.9527
   91MOL0     H12258   2.456   4.650  10.409 -2.1568  1.5971  0.3425
   91MOL0     H12259   2.276   4.555  10.171  4.2160 -2.5008 -5.4023
   91MOL0     H12260   2.391   4.683  10.180  0.9989  0.2258  1.8808
   91MOL0     H12261   2.488   4.398  10.233  0.3213  0.5823  0.9382
   91MOL0     H12262   2.566   4.550  10.207  1.2994  1.4525 -2.1568
   91MOL0     H12263   2.387   4.395  10.008  0.0408 -1.0027  0.4514
   91MOL0     H12264   2.436   4.562   9.970  0.2287 -0.6907 -3.2732
   91MOL0     H12265   1.737   4.609  10.590 -2.3907 -0.0093 -0.7878
   91MOL0     H12266   1.514   4.688  10.624 -0.1609 -0.3410 -0.2229
   91MOL0     H12267   1.317   5.023  10.920 -0.9236  1.3168  1.3504
   91MOL0     H12268   1.155   5.203  10.972  1.0336 -1.9864  0.8822
   91MOL0     H12269  -0.002   6.476  11.416  2.4982 -0.6210 -0.3047
   91MOL0     H12270   0.086   6.703  11.336  0.7042  0.7508 -2.6449
   91MOL0     H12271   0.391   6.814  10.968 -1.1665  2.1900  0.3582
   91MOL0     H12272   0.553   6.954  10.852 -2.2177  1.3987 -0.9664
   91MOL0     H12273   0.861   6.955  11.008 -2.7526 -1.0594  1.4300
   91MOL0     H12274   0.883   7.085  11.123  0.2389 -3.4376  1.0600
   91MOL0     H12275   0.958   7.075  10.829 -3.2966  2.2040 -1.1601
   91MOL0     H12276   1.066   7.107  10.963  0.6930 -1.2865 -0.8246
   91MOL0     H12277   0.939   7.345  10.975 -0.7271  0.9468  0.2166
   91MOL0     H12278   0.864   7.283  10.819  1.5352  2.3504 -0.1764
   91MOL0     H12279   1.150   7.327  10.857 -0.3755  4.2646  0.6039
   91MOL0     H12280   1.080   7.259  10.713  2.2245  0.0683  0.7511
   91MOL0     H12281   0.912   7.625  10.656 -1.0580 -2.8500 -1.9835
   91MOL0     H12282   0.648   7.121  11.240 -0.7788 -0.8594  1.5532
   91MOL0     H12283   0.466   7.096  11.413 -0.0998 -0.0729  1.2985
   91MOL0     H12284   0.373   6.939  11.417  0.8253 -2.7460 -0.0144
   91MOL0     H12285   0.546   6.939  11.443 -1.6814 -3.7397 -0.0175
   92MOL0     O12286   8.126   9.739  10.362  0.1241  0.3701 -0.2655
   92MOL0     C12287   8.002   9.773  10.358 -2.0226 -0.2265  0.7877
   92MOL0     O12288   7.936   9.801  10.241 -0.2075  0.3772 -0.1766
   92MOL0     C12289   7.802   9.795  10.235 -0.9889 -0.2351  0.4701
   92MOL0     C12290   7.721   9.900  10.269  0.2791 -0.5359  0.1568
   92MOL0     C12291   7.582   9.889  10.249 -0.4497 -0.4399  0.6426
   92MOL0     C12292   7.523   9.788  10.174  0.5195  0.3581 -0.7930
   92MOL0     O12293   7.390   9.770  10.166  0.6730  0.6552  0.4573
   92MOL0     C12294   7.312   9.885  10.154 -0.7102  0.0290 -0.6264
   92MOL0     C12295   7.201   9.854  10.056 -1.6629 -0.4566  0.9211
   92MOL0     C12296   7.130   9.724  10.099  0.3159 -0.2097 -0.1661
   92MOL0     C12297   7.175   9.590  10.034  0.1425 -0.3617  0.0447
   92MOL0     C12298   7.126   9.471  10.122 -0.3867  0.5274  1.0280
   92MOL0     C12299   7.131   9.337  10.057  0.2024 -0.0641  0.0522
   92MOL0     C12300   7.016   9.317   9.955  0.3389 -0.2823 -0.0251
   92MOL0     C12301   6.880   9.298  10.021 -0.2775  0.4437 -0.7379
   92MOL0     N12302   6.782   9.259   9.922 -0.2183 -0.0159 -0.4639
   92MOL0     C12303   6.776   9.135   9.853  0.2265  0.4800 -0.2616
   92MOL0     C12304   6.652   9.141   9.806  0.1357 -0.1121 -0.0921
   92MOL0     C12305   6.591   9.031   9.722  0.4231  0.4240 -1.1832
   92MOL0     C12306   6.466   8.966   9.774  0.6731 -0.3134  0.1783
   92MOL0     C12307   6.509   8.887   9.898  0.7024 -0.4078  0.4350
   92MOL0     C12308   6.391   8.790   9.940 -0.3560  0.4131 -0.3627
   92MOL0     O12309   6.415   8.746  10.078 -1.0135 -0.6366 -0.0463
   92MOL0     C12310   6.453   8.620  10.085  0.5830 -0.0015  0.1477
   92MOL0     C12311   6.587   8.589  10.096  0.0992  0.0810  0.1399
   92MOL0     C12312   6.627   8.453  10.082 -0.5774  0.0338  0.0398
   92MOL0     C12313   6.535   8.349  10.067  0.3370 -0.9817 -0.2148
   92MOL0     C12314   6.583   8.208  10.070  0.3753 -0.0739  0.1418
   92MOL0     O12315   6.716   8.189  10.096 -0.2905 -0.5193 -0.1756
   92MOL0     C12316   6.743   8.058  10.125  0.4467 -0.2953 -0.2576
   92MOL0     C12317   6.724   7.939  10.055 -0.3479 -0.4357  0.1725
   92MOL0     C12318   6.779   7.815  10.097  0.1102 -0.2021  0.4821
   92MOL0     C12319   6.856   7.810  10.216  0.0510 -0.1389  0.4502
   92MOL0     O12320   6.921   7.696  10.257 -0.2035  0.6093 -0.5641
   92MOL0     C12321   7.039   7.647  10.190 -0.3689 -0.0795  0.1257
   92MOL0     C12322   7.089   7.518  10.249  0.4907  0.2869  0.0503
   92MOL0     C12323   7.182   7.515  10.371 -0.3060 -0.7460 -0.4334
   92MOL0     C12324   7.262   7.391  10.383 -0.0063  1.0410 -0.1021
   92MOL0     C12325   7.374   7.393  10.500  0.5155 -0.1527 -0.3428
   92MOL0     C12326   7.452   7.260  10.535  0.7874 -0.0603  1.0437
   92MOL0     C12327   7.521   7.207  10.409 -0.1124  0.0505  0.2513
   92MOL0     C12328   7.569   7.066  10.444  1.0786  0.0082  0.0619
   92MOL0    Cl12329   7.672   7.084  10.587 -0.2641  0.5180  0.4714
   92MOL0     C12330   6.889   7.928  10.280  0.2633  0.7907 -0.1004
   92MOL0     C12331   6.826   8.050  10.246  0.5703  0.1830  1.2888
   92MOL0     O12332   6.496   8.130  10.056  0.3704  0.2855 -0.0051
   92MOL0     C12333   6.401   8.387  10.063  0.7671 -0.4104 -0.1724
   92MOL0     C12334   6.353   8.521  10.076  0.8378  0.1908  0.2508
   92MOL0     N12335   6.602   9.270   9.824  0.5189 -0.1163  0.1856
   92MOL0     N12336   6.686   9.345   9.883 -0.3747 -0.5006  0.3946
   92MOL0     C12337   7.596   9.683  10.144 -0.0081  0.1034 -0.1305
   92MOL0     C12338   7.738   9.682  10.177 -0.2999 -0.2275 -0.7903
   92MOL0     C12339   7.932   9.788  10.493  0.1186 -0.0694  0.2646
   92MOL0     C12340   7.842   9.681  10.519 -0.0260  0.4592  0.7340
   92MOL0     C12341   7.780   9.679  10.640  0.1601 -0.3701  0.7730
   92MOL0     C12342   7.794   9.779  10.739 -0.0979  0.5498 -0.8366
   92MOL0     O12343   7.728   9.748  10.860 -0.0161  0.3029 -0.0960
   92MOL0     C12344   7.768   9.820  10.987  0.1434 -0.3977  0.1434
   92MOL0     C12345   7.664   9.814  11.095  0.6629 -0.5265 -0.7109
   92MOL0     C12346   7.719   9.871  11.227  0.4235  0.3852 -0.0639
   92MOL0     C12347   7.609   9.872  11.334  0.0092 -0.0052  1.3625
   92MOL0     C12348   7.518   9.979  11.297 -1.0230 -0.0149 -0.8159
   92MOL0     C12349   7.443  10.071  11.273 -0.7406  0.9148 -0.5214
   92MOL0     C12350   7.884   9.875  10.715 -0.1254 -0.4222 -0.3697
   92MOL0     C12351   7.950   9.886  10.596 -0.2187  0.4135 -0.3935
   92MOL0     C12352   8.047   9.989  10.563  0.8472 -0.6187  0.2041
   92MOL0     H12353   7.758  10.000  10.289  1.7168 -1.1331  0.6554
   92MOL0     H12354   7.524   9.977  10.275 -0.7148 -0.6635  0.8199
   92MOL0     H12355   7.265   9.911  10.250  2.1734 -0.7285  1.1296
   92MOL0     H12356   7.373   9.970  10.122  0.5341  0.0950  1.7102
   92MOL0     H12357   7.235   9.842   9.953 -4.7678 -0.8084 -0.1560
   92MOL0     H12358   7.128   9.936  10.062  0.4742  1.5874  0.5936
   92MOL0     H12359   7.022   9.726  10.082  0.5022  0.6192 -1.3842
   92MOL0     H12360   7.129   9.726  10.208 -0.0073  2.9569 -0.1220
   92MOL0     H12361   7.151   9.576   9.928  1.2117 -4.8561  0.1823
   92MOL0     H12362   7.285   9.593  10.033  0.2238 -1.9626 -1.4214
   92MOL0     H12363   7.193   9.467  10.208 -2.6587  3.3533  3.1267
   92MOL0     H12364   7.025   9.478  10.164 -0.9823 -0.8110 -0.1051
   92MOL0     H12365   7.228   9.331  10.007  0.0879 -1.5470 -0.0552
   92MOL0     H12366   7.144   9.258  10.131  2.8227  2.4280  2.4598
   92MOL0     H12367   7.031   9.225   9.898 -2.0338  0.6267 -2.3235
   92MOL0     H12368   7.001   9.396   9.881 -1.0918  1.1385  1.6689
   92MOL0     H12369   6.885   9.233  10.109 -1.8636  2.1489  0.6658
   92MOL0     H12370   6.854   9.400  10.049  1.9966  0.8557  0.1582
   92MOL0     H12371   6.848   9.054   9.852 -0.0498  0.1039  2.7828
   92MOL0     H12372   6.548   9.079   9.634 -3.0303  0.2587  0.2577
   92MOL0     H12373   6.663   8.956   9.690 -1.3448 -2.2737  0.6812
   92MOL0     H12374   6.394   9.041   9.807  1.6472 -0.3193  2.5474
   92MOL0     H12375   6.415   8.901   9.703 -1.0084  0.4763  0.6091
   92MOL0     H12376   6.524   8.955   9.983  1.0927 -0.8081  0.6902
   92MOL0     H12377   6.597   8.824   9.886 -0.7862 -2.5918  0.3226
   92MOL0     H12378   6.375   8.718   9.860 -0.3863 -1.7189  1.4529
   92MOL0     H12379   6.293   8.839   9.953 -1.8653 -2.8787  2.4107
   92MOL0     H12380   6.671   8.656  10.109  0.6928 -0.6935  0.3656
   92MOL0     H12381   6.732   8.426  10.085  0.2217  2.4933 -2.0853
   92MOL0     H12382   6.666   7.943   9.964  3.4187  0.4958 -2.4077
   92MOL0     H12383   6.767   7.727  10.035 -1.2368 -1.6483  2.6230
   92MOL0     H12384   7.024   7.633  10.083  0.9811 -0.8400  0.0017
   92MOL0     H12385   7.109   7.729  10.211 -1.4928  2.1827 -3.8553
   92MOL0     H12386   7.008   7.448  10.272  0.5316  0.4534  0.7239
   92MOL0     H12387   7.150   7.474  10.170  1.8856  0.1913  1.1236
   92MOL0     H12388   7.245   7.603  10.357 -0.5936 -0.4693  0.0062
   92MOL0     H12389   7.117   7.515  10.459  1.7236 -6.4483  1.5614
   92MOL0     H12390   7.297   7.353  10.286 -1.5005  0.1942 -0.3335
   92MOL0     H12391   7.196   7.315  10.424  0.5632  0.2403 -0.6347
   92MOL0     H12392   7.318   7.421  10.590 -0.0330 -3.3619  0.4187
   92MOL0     H12393   7.447   7.469  10.472 -1.1830  0.9998 -1.9197
   92MOL0     H12394   7.520   7.307  10.606 -1.1597  4.2210  0.3817
   92MOL0     H12395   7.378   7.186  10.568 -1.5426  1.7920  0.2208
   92MOL0     H12396   7.603   7.270  10.374  1.8155 -2.9806 -1.0611
   92MOL0     H12397   7.452   7.211  10.325  0.8780  4.9740 -0.6186
   92MOL0     H12398   7.491   6.994  10.470  0.6591  1.0900  1.9623
   92MOL0     H12399   7.623   7.028  10.357  1.8115  2.1296 -0.4725
   92MOL0     H12400   6.961   7.926  10.360  1.8146 -1.6349 -1.4580
   92MOL0     H12401   6.866   8.140  10.291  0.8010  0.8388 -0.1535
   92MOL0     H12402   6.321   8.314  10.065  0.7557 -0.3967  1.3212
   92MOL0     H12403   6.248   8.550  10.071  1.1219  1.4650  0.9474
   92MOL0     H12404   7.556   9.588  10.109 -0.3446  0.4209 -0.6219
   92MOL0     H12405   7.803   9.603  10.140 -2.0166 -1.0935 -2.1183
   92MOL0     H12406   7.813   9.611  10.442 -1.8475  1.2775  0.6210
   92MOL0     H12407   7.707   9.600  10.652 -1.9399  0.6873 -3.1849
   92MOL0     H12408   7.795   9.926  10.977 -0.7594  0.4104  4.3168
   92MOL0     H12409   7.859   9.771  11.024 -0.9531 -2.3984  0.2992
   92MOL0     H12410   7.622   9.717  11.125  1.1184 -0.0117  1.9017
   92MOL0     H12411   7.581   9.878  11.067  1.0131  1.2261  1.8966
   92MOL0     H12412   7.772   9.966  11.215 -0.2244  0.8126  0.4272
   92MOL0     H12413   7.790   9.800  11.269 -2.5531 -3.8864 -1.5682
   92MOL0     H12414   7.548   9.781  11.344 -2.0347  0.9587 -1.1195
   92MOL0     H12415   7.663   9.892  11.427  5.2952  1.4717 -1.6176
   92MOL0     H12416   7.386  10.147  11.225 -3.3151  2.1205  3.9051
   92MOL0     H12417   7.907   9.950  10.790 -0.2572 -1.9014  1.2026
   92MOL0     H12418   7.999  10.073  10.512  1.4520 -0.8508 -0.7825
   92MOL0     H12419   8.097  10.029  10.652 -1.3676  1.2200  0.7121
   92MOL0     H12420   8.116   9.958  10.484  0.7950  1.4810 -0.7266
   93MOL0     O12421   2.581   6.882   2.990  0.2826 -0.0168  0.1435
   93MOL0     C12422   2.635   6.784   3.027 -0.4162  0.5332  0.6076
   93MOL0     O12423   2.596   6.662   3.010  0.0853  0.7281 -0.3125
   93MOL0     C12424   2.491   6.646   2.922 -0.0248 -0.7451 -0.1589
   93MOL0     C12425   2.362   6.677   2.954 -0.3202  0.3462  0.4379
   93MOL0     C12426   2.250   6.636   2.886 -0.1234  0.6359  0.5835
   93MOL0     C12427   2.263   6.558   2.769 -0.6946 -0.0508 -1.4189
   93MOL0     O12428   2.163   6.493   2.690 -0.0457 -0.7011  0.3372
   93MOL0     C12429   2.075   6.583   2.619  0.0954  0.5793  0.1525
   93MOL0     C12430   2.113   6.617   2.474  0.3664  0.1758 -0.3181
   93MOL0     C12431   2.241   6.703   2.442  0.4137 -0.5595 -0.2411
   93MOL0     C12432   2.262   6.818   2.545 -0.2921  0.9481  0.0789
   93MOL0     C12433   2.339   6.944   2.487 -0.6113  0.7630  0.1775
   93MOL0     C12434   2.399   7.023   2.603  0.6857  0.7040  0.5593
   93MOL0     C12435   2.484   7.145   2.559 -0.1956  0.6584 -0.4886
   93MOL0     C12436   2.533   7.239   2.665  0.2105 -0.6051 -1.1624
   93MOL0     N12437   2.458   7.360   2.689  0.5254 -1.4210 -0.2497
   93MOL0     C12438   2.365   7.393   2.788  0.6430  0.2917  0.5700
   93MOL0     C12439   2.323   7.525   2.772 -1.0026  0.1361  0.0561
   93MOL0     C12440   2.232   7.617   2.854 -1.0528  0.0080  0.1102
   93MOL0     C12441   2.086   7.569   2.877 -0.7096 -0.8047 -0.0831
   93MOL0     C12442   2.005   7.679   2.953 -0.8629  0.4830  0.1236
   93MOL0     C12443   1.856   7.656   2.962  1.0150  0.6781  0.0232
   93MOL0     O12444   1.789   7.712   2.851  0.1004 -0.6740  0.4125
   93MOL0     C12445   1.663   7.654   2.827 -0.1527  0.3281 -0.6766
   93MOL0     C12446   1.574   7.691   2.723 -0.2457 -0.4385 -0.2270
   93MOL0     C12447   1.446   7.638   2.688  0.4777  1.1319 -0.5649
   93MOL0     C12448   1.405   7.530   2.768 -0.5417  0.3783  0.8295
   93MOL0     C12449   1.271   7.474   2.742  0.5512 -0.8382 -0.6357
   93MOL0     O12450   1.209   7.504   2.624  0.2489  0.5058 -0.2201
   93MOL0     C12451   1.083   7.461   2.594 -0.3083  0.2576  0.0553
   93MOL0     C12452   1.060   7.336   2.535 -0.2270  0.6617  0.0537
   93MOL0     C12453   0.940   7.293   2.495  0.3643  0.5851 -0.1188
   93MOL0     C12454   0.829   7.374   2.526 -0.6056  0.6893  0.1702
   93MOL0     O12455   0.709   7.321   2.485 -0.0260 -0.5134 -0.2685
   93MOL0     C12456   0.600   7.413   2.479  0.8988 -0.0590  1.2720
   93MOL0     C12457   0.471   7.377   2.398 -0.6583 -0.1358  0.2645
   93MOL0     C12458   0.437   7.224   2.410  1.4594 -0.3754  0.9457
   93MOL0     C12459   0.298   7.204   2.331 -0.5836 -0.0069  0.4981
   93MOL0     C12460   0.214   7.085   2.371 -0.3191  0.7953 -0.1136
   93MOL0     C12461   0.083   7.083   2.305 -0.0872  0.8904 -0.3651
   93MOL0     C12462  -0.011   7.181   2.367 -0.0112 -0.4812 -0.2257
   93MOL0     C12463  -0.144   7.191   2.284 -0.0158 -0.0638  0.3320
   93MOL0    Cl12464  -0.237   7.316   2.374  0.6521  0.2253  0.3577
   93MOL0     C12465   0.848   7.492   2.599  0.4662  0.4997 -0.0376
   93MOL0     C12466   0.974   7.535   2.623  0.7725 -0.8753  0.2130
   93MOL0     O12467   1.216   7.410   2.827  0.6461 -0.2946 -1.0400
   93MOL0     C12468   1.497   7.483   2.872  0.0874  0.4463  0.3246
   93MOL0     C12469   1.613   7.547   2.897  0.0278 -0.1590 -0.9235
   93MOL0     N12470   2.379   7.567   2.656 -1.0877  0.4736  0.9932
   93MOL0     N12471   2.460   7.474   2.609  0.1352  0.5152  0.0316
   93MOL0     C12472   2.401   6.540   2.725 -0.1992  0.4729 -1.5992
   93MOL0     C12473   2.514   6.591   2.800  1.3432 -0.1777 -0.2716
   93MOL0     C12474   2.766   6.815   3.097  0.2373 -0.0140 -0.4304
   93MOL0     C12475   2.781   6.721   3.202  0.2427  0.2738  0.0028
   93MOL0     C12476   2.880   6.729   3.301 -0.2768 -0.4835  0.1826
   93MOL0     C12477   2.965   6.840   3.292 -0.3059  0.0044  0.8997
   93MOL0     O12478   3.056   6.866   3.394 -0.5000  1.0653 -0.4260
   93MOL0     C12479   3.122   6.761   3.479  0.5495 -0.8925 -0.7201
   93MOL0     C12480   3.123   6.805   3.621  0.0791  0.5189 -0.6668
   93MOL0     C12481   3.213   6.925   3.651 -1.2373 -0.2255  0.3811
   93MOL0     C12482   3.163   7.010   3.761  0.5007  0.1978 -0.7716
   93MOL0     C12483   3.257   7.119   3.772  0.1469  0.2520  0.5336
   93MOL0     C12484   3.331   7.216   3.794  1.0697  0.1695 -0.0166
   93MOL0     C12485   2.953   6.931   3.188 -0.6186  0.1239  1.0821
   93MOL0     C12486   2.853   6.920   3.089 -1.0065 -0.4745  0.0769
   93MOL0     C12487   2.830   7.048   3.006 -0.9527  0.0997 -0.2572
   93MOL0     H12488   2.334   6.724   3.048  1.4634  2.5867 -0.0718
   93MOL0     H12489   2.150   6.667   2.912 -1.2412 -0.0780 -2.4882
   93MOL0     H12490   1.975   6.540   2.616 -0.4924  1.8786  0.2795
   93MOL0     H12491   2.075   6.680   2.670 -1.6549  1.1847 -0.9106
   93MOL0     H12492   2.036   6.679   2.428 -1.1570  0.2220  2.1370
   93MOL0     H12493   2.133   6.521   2.427  2.2929 -0.2788  1.2704
   93MOL0     H12494   2.220   6.752   2.346 -0.4802 -2.7137 -1.2138
   93MOL0     H12495   2.330   6.640   2.452  1.5914  1.4203  3.6226
   93MOL0     H12496   2.173   6.857   2.596  0.0924  0.8413  0.8406
   93MOL0     H12497   2.328   6.788   2.627 -1.0209  3.0378  1.4970
   93MOL0     H12498   2.429   6.913   2.434 -1.8909 -1.6945 -0.7274
   93MOL0     H12499   2.282   6.998   2.411  0.4099  3.1621  1.0321
   93MOL0     H12500   2.318   7.051   2.670 -0.7189 -0.8085 -0.4403
   93MOL0     H12501   2.465   6.950   2.651  0.6853  0.5079  0.2668
   93MOL0     H12502   2.429   7.201   2.483  3.4299  1.9734 -2.3503
   93MOL0     H12503   2.574   7.101   2.516  1.1850  1.0594  1.8046
   93MOL0     H12504   2.542   7.176   2.754  3.2479 -1.0556 -1.6828
   93MOL0     H12505   2.629   7.285   2.639 -1.2127  1.1269 -3.8626
   93MOL0     H12506   2.321   7.327   2.861 -3.0136  1.1193 -0.6932
   93MOL0     H12507   2.284   7.621   2.950 -0.2774 -1.6099 -0.2078
   93MOL0     H12508   2.237   7.720   2.816 -2.5946  0.0938  0.0913
   93MOL0     H12509   2.028   7.553   2.786 -0.1741  0.2463 -0.6264
   93MOL0     H12510   2.095   7.475   2.932 -1.4173 -0.8388 -0.0169
   93MOL0     H12511   2.023   7.782   2.919 -3.2566  0.0184 -2.9816
   93MOL0     H12512   2.044   7.663   3.054 -2.3170  0.8230  0.7559
   93MOL0     H12513   1.808   7.708   3.045 -0.3364  1.2017 -1.0515
   93MOL0     H12514   1.851   7.546   2.961  0.2986  0.6919 -1.8637
   93MOL0     H12515   1.602   7.765   2.648 -0.3797 -0.0963  0.0561
   93MOL0     H12516   1.368   7.683   2.628 -4.1868 -2.2948  2.2332
   93MOL0     H12517   1.140   7.270   2.504 -1.1756  0.3458 -1.8370
   93MOL0     H12518   0.924   7.200   2.440  0.8297  1.9141 -2.6745
   93MOL0     H12519   0.564   7.425   2.582  0.3979 -0.0949  1.1011
   93MOL0     H12520   0.636   7.511   2.447 -0.1360  0.6853  2.2930
   93MOL0     H12521   0.389   7.442   2.430  0.9368  0.6217  3.1984
   93MOL0     H12522   0.482   7.390   2.290 -2.9774 -0.2888 -0.0590
   93MOL0     H12523   0.509   7.171   2.347 -0.8429  1.3409 -3.5726
   93MOL0     H12524   0.443   7.181   2.510  1.3641 -1.6467  0.4363
   93MOL0     H12525   0.311   7.198   2.222  1.1846  0.2858  0.6677
   93MOL0     H12526   0.251   7.302   2.337  0.4243  0.4628  1.0309
   93MOL0     H12527   0.222   7.078   2.480  1.2715 -1.5853 -0.3048
   93MOL0     H12528   0.280   7.006   2.333  2.7283  2.9309  0.3863
   93MOL0     H12529   0.091   7.108   2.199  0.3004 -0.0551 -0.5640
   93MOL0     H12530   0.043   6.983   2.328  2.6393 -0.2518 -0.1796
   93MOL0     H12531   0.031   7.281   2.358  1.3662 -0.9976  0.2033
   93MOL0     H12532  -0.035   7.155   2.470 -2.8578  2.1081 -0.0959
   93MOL0     H12533  -0.124   7.220   2.181  0.3858 -1.0554  0.1163
   93MOL0     H12534  -0.194   7.093   2.289  3.0280 -1.9449 -2.0719
   93MOL0     H12535   0.759   7.540   2.639  0.7603 -0.0949  1.3868
   93MOL0     H12536   0.990   7.637   2.656 -0.2928 -0.5723 -0.1756
   93MOL0     H12537   1.464   7.401   2.935  1.7449 -1.4314 -1.1746
   93MOL0     H12538   1.663   7.497   2.979 -1.8101  0.1924  0.4788
   93MOL0     H12539   2.411   6.496   2.627  2.2585  1.5415 -1.9082
   93MOL0     H12540   2.617   6.573   2.769  2.2532  1.6574  1.4424
   93MOL0     H12541   2.710   6.639   3.215  0.2824  0.1527 -0.5351
   93MOL0     H12542   2.869   6.666   3.389 -1.4273  2.1181  2.0127
   93MOL0     H12543   3.228   6.744   3.456  0.8315 -1.6553  1.0315
   93MOL0     H12544   3.066   6.668   3.466 -2.6419  0.4660  1.9900
   93MOL0     H12545   3.138   6.725   3.693 -1.4021  0.5786 -0.2475
   93MOL0     H12546   3.020   6.833   3.645 -0.2271 -1.5871  0.6656
   93MOL0     H12547   3.217   6.981   3.557  0.5701 -3.2291 -1.4938
   93MOL0     H12548   3.315   6.887   3.668 -0.7176 -0.5023 -2.6730
   93MOL0     H12549   3.065   7.055   3.739 -2.3886 -3.4857  2.9949
   93MOL0     H12550   3.154   6.952   3.853  3.4189 -1.7496 -1.6066
   93MOL0     H12551   3.408   7.289   3.809 -0.3914  1.0891  4.5197
   93MOL0     H12552   3.026   7.012   3.189 -0.7382  0.2314  1.8155
   93MOL0     H12553   2.920   7.105   2.980  0.5456 -2.6973 -1.7240
   93MOL0     H12554   2.787   7.023   2.909 -0.8028  1.7112 -0.7572
   93MOL0     H12555   2.766   7.124   3.050 -1.1632  0.4697 -1.1940
   94MOL0     O12556  10.928   7.523   8.781 -0.2843 -0.1204 -1.0785
   94MOL0     C12557  10.966   7.594   8.873  0.0464  1.0451  0.5595
   94MOL0     O12558  11.080   7.575   8.941 -0.2132  0.3856 -0.1211
   94MOL0     C12559  11.153   7.459   8.917 -0.7710 -0.1353  0.1698
   94MOL0     C12560  11.122   7.342   8.989 -0.5940  0.6141 -0.4371
   94MOL0     C12561  11.197   7.226   8.991 -0.5192  0.0357 -0.2318
   94MOL0     C12562  11.317   7.222   8.909  0.2302 -0.0885 -0.2979
   94MOL0     O12563  11.381   7.105   8.893 -0.4888 -0.1463 -0.3950
   94MOL0     C12564  11.439   7.045   9.003  0.1357 -0.5059 -0.3892
   94MOL0     C12565  11.451   6.892   8.989 -0.2653  1.2113  0.2841
   94MOL0     C12566  11.532   6.859   8.857 -0.6296 -0.0632  0.8425
   94MOL0     C12567  11.537   6.701   8.837  0.2625 -1.0180 -1.0716
   94MOL0     C12568  11.595   6.676   8.693  0.5867  1.1929 -0.5933
   94MOL0     C12569  11.582   6.519   8.651  0.1117 -0.6083  0.1394
   94MOL0     C12570  11.451   6.468   8.590 -0.8360 -0.0755 -0.2668
   94MOL0     C12571  11.422   6.328   8.618 -0.1854  0.8587 -0.3102
   94MOL0     N12572  11.305   6.278   8.535 -0.4532 -0.4050  1.2181
   94MOL0     C12573  11.189   6.332   8.512  0.1360  0.0297  0.4460
   94MOL0     C12574  11.109   6.236   8.458  0.0263 -0.1087 -0.4890
   94MOL0     C12575  10.958   6.234   8.424  0.3219 -0.3605  0.9325
   94MOL0     C12576  10.921   6.297   8.289 -0.6770 -0.2479 -0.1421
   94MOL0     C12577  10.769   6.345   8.272  0.1069 -1.1822  0.1849
   94MOL0     C12578  10.676   6.222   8.305  0.4841  0.1609 -0.0323
   94MOL0     O12579  10.699   6.127   8.199  0.3117 -0.7402  0.3401
   94MOL0     C12580  10.718   5.995   8.236 -0.3151 -0.0542  0.2032
   94MOL0     C12581  10.804   5.922   8.150  0.7344 -0.2207  0.2495
   94MOL0     C12582  10.825   5.784   8.169 -0.1394 -0.1456 -0.2185
   94MOL0     C12583  10.783   5.726   8.297  0.6653 -0.1402  0.5559
   94MOL0     C12584  10.788   5.580   8.324  0.9413 -0.3589 -0.3420
   94MOL0     O12585  10.681   5.522   8.395  0.1796 -0.6887 -0.1806
   94MOL0     C12586  10.693   5.397   8.452  0.6786 -0.0037 -0.2499
   94MOL0     C12587  10.638   5.387   8.579  0.1305 -0.2739  0.0123
   94MOL0     C12588  10.632   5.261   8.640 -0.6027 -0.4456 -0.0675
   94MOL0     C12589  10.678   5.146   8.585  0.5855  0.3499  0.4966
   94MOL0     O12590  10.659   5.023   8.637  0.0447  0.6834  0.2449
   94MOL0     C12591  10.766   4.923   8.619  0.1011  1.5001  0.7471
   94MOL0     C12592  10.726   4.793   8.543  0.2986  0.6786 -1.1841
   94MOL0     C12593  10.838   4.690   8.538  0.3187  0.2230  0.2645
   94MOL0     C12594  10.798   4.551   8.483 -0.5755 -0.1822  0.3779
   94MOL0     C12595  10.897   4.516   8.381 -0.4456  0.0772 -0.8974
   94MOL0     C12596  10.863   4.393   8.298  0.3114 -0.3875 -0.2438
   94MOL0     C12597  10.790   4.290   8.373 -0.2235  0.2689 -0.1558
   94MOL0     C12598  10.737   4.169   8.286  0.4766 -0.7895  1.1847
   94MOL0    Cl12599  10.677   4.037   8.386  0.5327 -0.0296  0.2137
   94MOL0     C12600  10.725   5.154   8.452  0.0867  0.2808 -0.1649
   94MOL0     C12601  10.737   5.281   8.383  0.5249  1.1731 -0.3942
   94MOL0     O12602  10.874   5.519   8.256 -0.1321  0.0247  0.6763
   94MOL0     C12603  10.714   5.806   8.392 -0.9785  0.5943  0.8582
   94MOL0     C12604  10.681   5.939   8.357 -0.0042 -0.2448  0.1080
   94MOL0     N12605  11.191   6.128   8.427  0.4230  0.0606 -0.5830
   94MOL0     N12606  11.305   6.160   8.471 -0.2340 -0.1416  0.4022
   94MOL0     C12607  11.350   7.336   8.823 -0.6698 -0.4040  0.6554
   94MOL0     C12608  11.262   7.453   8.825 -0.2761  1.4398  0.0711
   94MOL0     C12609  10.856   7.677   8.921  0.1583  0.3928  0.0588
   94MOL0     C12610  10.764   7.731   8.835 -0.0951 -0.8527 -0.1939
   94MOL0     C12611  10.650   7.797   8.890 -0.2293  0.2769  0.3961
   94MOL0     C12612  10.639   7.822   9.025  1.2404  0.5692 -0.7574
   94MOL0     O12613  10.525   7.884   9.071  0.2695  0.1236  0.2492
   94MOL0     C12614  10.408   7.804   9.113 -0.1965  0.2510 -0.7566
   94MOL0     C12615  10.428   7.721   9.244  0.0059 -0.1937 -0.1770
   94MOL0     C12616  10.444   7.799   9.372  0.1802  0.4500 -1.0286
   94MOL0     C12617  10.481   7.706   9.498 -0.5842 -0.6836  0.3261
   94MOL0     C12618  10.622   7.669   9.476  0.2574 -0.9215  0.7885
   94MOL0     C12619  10.738   7.646   9.447  0.1553 -0.3772  0.6887
   94MOL0     C12620  10.742   7.785   9.103 -0.5237 -0.2972 -0.9398
   94MOL0     C12621  10.849   7.704   9.068 -0.7689 -0.3681 -0.3831
   94MOL0     C12622  10.954   7.673   9.165  0.4207  0.1703  0.5156
   94MOL0     H12623  11.029   7.331   9.044 -0.2694 -4.4027 -0.4670
   94MOL0     H12624  11.154   7.144   9.048 -3.2339  2.3681  1.3334
   94MOL0     H12625  11.541   7.082   8.992 -0.2120  1.1707  1.4290
   94MOL0     H12626  11.389   7.079   9.094  0.5580  4.7477 -1.7871
   94MOL0     H12627  11.349   6.853   8.979 -0.2179  1.4808 -1.4971
   94MOL0     H12628  11.502   6.841   9.072 -1.4595 -0.2779  0.1426
   94MOL0     H12629  11.630   6.908   8.858 -0.1301 -1.0256  0.1246
   94MOL0     H12630  11.478   6.913   8.779 -1.5731  0.6694  1.9579
   94MOL0     H12631  11.588   6.652   8.919 -3.1445 -2.8226  0.1895
   94MOL0     H12632  11.433   6.666   8.842  0.2691 -0.8048  1.4744
   94MOL0     H12633  11.540   6.722   8.611  1.2929 -0.3455 -1.9767
   94MOL0     H12634  11.695   6.718   8.685  0.2583  1.6688 -2.7147
   94MOL0     H12635  11.661   6.500   8.577 -0.2867 -2.3123  0.0987
   94MOL0     H12636  11.604   6.454   8.736 -0.5916 -0.3397  0.5311
   94MOL0     H12637  11.454   6.469   8.480  1.3859  0.1910 -0.2496
   94MOL0     H12638  11.366   6.532   8.614 -1.1950 -0.3176 -0.8460
   94MOL0     H12639  11.505   6.262   8.591 -0.8515  0.3789 -1.2395
   94MOL0     H12640  11.391   6.325   8.723 -0.2104  0.2820 -0.3336
   94MOL0     H12641  11.147   6.429   8.536 -0.1300  0.3654 -1.2599
   94MOL0     H12642  10.925   6.130   8.435  0.5154 -0.5419 -0.1309
   94MOL0     H12643  10.899   6.287   8.499 -1.7911  1.6841 -1.9561
   94MOL0     H12644  10.993   6.377   8.271 -0.3490 -0.6635 -0.7132
   94MOL0     H12645  10.956   6.226   8.214 -0.3410 -1.2207  0.9185
   94MOL0     H12646  10.746   6.391   8.176 -1.3165 -0.8573  0.6620
   94MOL0     H12647  10.755   6.430   8.340 -1.8350 -1.6010  0.3696
   94MOL0     H12648  10.568   6.237   8.312 -0.1050 -3.1858 -0.2181
   94MOL0     H12649  10.708   6.190   8.405  2.7656  2.6849  0.1629
   94MOL0     H12650  10.839   5.967   8.058  0.0155  0.2523  0.2007
   94MOL0     H12651  10.875   5.727   8.091 -0.9857  2.1234 -2.5541
   94MOL0     H12652  10.597   5.478   8.622 -2.1559 -0.5353 -1.4237
   94MOL0     H12653  10.592   5.252   8.740 -0.8508  0.4867 -0.0727
   94MOL0     H12654  10.856   4.959   8.568  0.7926 -2.8983 -1.6123
   94MOL0     H12655  10.801   4.903   8.721  0.2250  1.4811  0.7011
   94MOL0     H12656  10.630   4.749   8.569  1.5722 -1.2232  0.5912
   94MOL0     H12657  10.707   4.813   8.437  2.7091 -0.1849 -1.8555
   94MOL0     H12658  10.922   4.733   8.483 -1.5379  2.1858 -1.1723
   94MOL0     H12659  10.859   4.678   8.645 -3.2398  1.0745  1.1885
   94MOL0     H12660  10.697   4.556   8.440 -0.0278 -1.5680 -1.1396
   94MOL0     H12661  10.778   4.476   8.560 -0.0033 -0.9571 -0.2201
   94MOL0     H12662  10.994   4.506   8.431 -0.4188  1.3077 -0.6824
   94MOL0     H12663  10.897   4.605   8.317  0.1221  1.8634  1.4587
   94MOL0     H12664  10.793   4.415   8.217 -0.9897 -3.6768 -0.1643
   94MOL0     H12665  10.953   4.364   8.244 -0.2421  0.6066 -1.7715
   94MOL0     H12666  10.694   4.327   8.410 -0.0059 -0.4415  1.1923
   94MOL0     H12667  10.855   4.240   8.445  1.2092 -0.4610 -1.8601
   94MOL0     H12668  10.663   4.202   8.212  1.1900 -1.6240  0.0595
   94MOL0     H12669  10.816   4.127   8.222 -0.8749 -2.3705  0.4676
   94MOL0     H12670  10.743   5.061   8.398  1.3469  0.5548 -0.2468
   94MOL0     H12671  10.762   5.275   8.278  1.3479 -1.0072 -0.1153
   94MOL0     H12672  10.671   5.778   8.488 -0.4881 -1.6517  0.4869
   94MOL0     H12673  10.628   6.006   8.424  3.4116  1.3790  1.3998
   94MOL0     H12674  11.423   7.322   8.745 -1.0422  1.3416 -0.0533
   94MOL0     H12675  11.289   7.530   8.754  0.3880  0.3627 -0.8898
   94MOL0     H12676  10.772   7.708   8.729 -1.0342 -0.1777 -0.4176
   94MOL0     H12677  10.568   7.830   8.827 -1.0659  0.4442  1.5479
   94MOL0     H12678  10.370   7.735   9.037  2.7232 -0.1851 -1.9469
   94MOL0     H12679  10.335   7.883   9.134 -0.6195 -0.2007 -0.5016
   94MOL0     H12680  10.518   7.659   9.243  1.1079  1.3325  0.2889
   94MOL0     H12681  10.345   7.650   9.244 -0.1761 -0.1514 -3.7591
   94MOL0     H12682  10.353   7.857   9.389  1.5610  2.3115  0.4666
   94MOL0     H12683  10.512   7.883   9.360  0.3477  0.6476  1.0154
   94MOL0     H12684  10.469   7.758   9.594  1.5219  2.4567 -0.9622
   94MOL0     H12685  10.422   7.614   9.505 -0.8950 -0.5332 -0.3460
   94MOL0     H12686  10.843   7.636   9.430 -0.0304  0.7014 -1.5952
   94MOL0     H12687  10.744   7.822   9.206 -2.7029 -0.2900 -0.8490
   94MOL0     H12688  11.054   7.706   9.137  1.0871 -1.5222  0.7805
   94MOL0     H12689  10.936   7.727   9.259 -1.0359  0.3521  0.1652
   94MOL0     H12690  10.960   7.569   9.196 -1.6204 -0.1335  0.0866
   95MOL0     O12691   0.433  11.376   4.488  0.1700 -0.3680 -0.2770
   95MOL0     C12692   0.413  11.489   4.536  0.7704 -0.0145 -0.6172
   95MOL0     O12693   0.343  11.597   4.482  0.8481  0.1931  0.2106
   95MOL0     C12694   0.254  11.570   4.379  0.5099 -1.1028  0.7370
   95MOL0     C12695   0.285  11.594   4.252  0.5974 -0.2254  0.7943
   95MOL0     C12696   0.189  11.581   4.159 -0.1020  0.1175  0.3767
   95MOL0     C12697   0.056  11.550   4.180  0.6150 -1.1243  0.6694
   95MOL0     O12698  -0.038  11.572   4.076 -0.0208 -0.0652 -0.2506
   95MOL0     C12699  -0.133  11.458   4.067  0.2701 -0.2603  0.8864
   95MOL0     C12700  -0.206  11.463   3.943  0.7938  0.1472 -0.5331
   95MOL0     C12701  -0.116  11.470   3.816  0.2333 -0.7211  1.1165
   95MOL0     C12702  -0.183  11.452   3.681  0.3843 -0.8377 -0.4407
   95MOL0     C12703  -0.088  11.460   3.559 -0.0285  0.2180 -0.9773
   95MOL0     C12704  -0.153  11.431   3.429  0.3911  0.1401  0.2974
   95MOL0     C12705  -0.052  11.442   3.308 -0.6525 -0.2314 -0.2293
   95MOL0     C12706  -0.118  11.443   3.173  0.3280  0.3182 -0.4930
   95MOL0     N12707  -0.186  11.316   3.152  0.0647  0.2855 -0.2957
   95MOL0     C12708  -0.321  11.302   3.139 -0.0827  0.4740 -0.7393
   95MOL0     C12709  -0.349  11.183   3.092 -0.1980  1.2161  0.4138
   95MOL0     C12710  -0.488  11.130   3.088  0.4689  0.7070  1.0567
   95MOL0     C12711  -0.538  11.078   3.226 -0.7416  0.5732  0.4686
   95MOL0     C12712  -0.491  10.943   3.255 -0.8071  0.5487 -0.5926
   95MOL0     C12713  -0.366  10.949   3.334 -0.1065 -0.3328  0.5037
   95MOL0     O12714  -0.412  10.987   3.461  0.3523  0.7048 -1.1760
   95MOL0     C12715  -0.325  10.993   3.575 -0.4063  0.1543 -0.0713
   95MOL0     C12716  -0.388  11.002   3.701 -0.1807  0.8149  0.4936
   95MOL0     C12717  -0.310  11.008   3.819 -0.2612 -0.0994  0.2198
   95MOL0     C12718  -0.181  11.021   3.818 -0.0737  0.1650 -0.1793
   95MOL0     C12719  -0.105  11.021   3.947  0.7480  0.2549  0.0919
   95MOL0     O12720  -0.185  10.997   4.058 -0.3542 -0.1651  0.3001
   95MOL0     C12721  -0.144  11.041   4.180  0.2973  1.0398 -0.3111
   95MOL0     C12722  -0.066  10.955   4.248 -0.6301  0.7397 -0.9115
   95MOL0     C12723  -0.013  10.987   4.377 -0.3237  0.4796  0.6646
   95MOL0     C12724  -0.032  11.119   4.427 -0.4387 -0.0912 -0.5779
   95MOL0     O12725   0.007  11.166   4.549  0.2290 -0.4326  0.2445
   95MOL0     C12726   0.151  11.177   4.579 -0.0310 -0.3966 -1.1286
   95MOL0     C12727   0.145  11.161   4.725  0.6908  0.2711 -0.3178
   95MOL0     C12728   0.283  11.158   4.796  1.1278 -0.0103  0.2976
   95MOL0     C12729   0.282  11.197   4.942 -0.2002  0.8812  0.7251
   95MOL0     C12730   0.424  11.225   5.001  0.0785 -0.3046  0.5609
   95MOL0     C12731   0.523  11.100   5.008  0.1952 -0.4305  0.1510
   95MOL0     C12732   0.468  10.985   5.096 -0.4236 -1.0514 -0.4956
   95MOL0     C12733   0.435  11.026   5.242 -0.2448  0.3008  0.0511
   95MOL0    Cl12734   0.316  10.921   5.327  0.1321  0.4479  0.1520
   95MOL0     C12735  -0.104  11.207   4.345  0.0962 -0.3096 -0.1941
   95MOL0     C12736  -0.159  11.177   4.224  0.1820  0.0365 -0.2733
   95MOL0     O12737   0.019  11.040   3.952 -0.7041 -0.2429 -0.1254
   95MOL0     C12738  -0.115  11.003   3.697  0.1666 -0.8193  0.9483
   95MOL0     C12739  -0.188  10.997   3.576  0.2141  0.8592  0.9159
   95MOL0     N12740  -0.224  11.126   3.069  0.0603  0.2201 -0.2321
   95MOL0     N12741  -0.132  11.204   3.117  0.2767 -0.3707 -0.8014
   95MOL0     C12742   0.027  11.528   4.312 -0.8718 -0.8029 -0.9210
   95MOL0     C12743   0.123  11.532   4.418 -0.3512  0.4118  0.1619
   95MOL0     C12744   0.480  11.502   4.671  0.5781 -0.1890 -0.1028
   95MOL0     C12745   0.583  11.413   4.702 -0.2023  1.0788 -0.1268
   95MOL0     C12746   0.655  11.435   4.822 -0.0392  0.2215  0.2722
   95MOL0     C12747   0.634  11.539   4.906  0.2848 -0.8935 -1.4140
   95MOL0     O12748   0.706  11.576   5.015 -0.8478  0.5649  0.2886
   95MOL0     C12749   0.654  11.520   5.131  0.7573  0.4673  0.1483
   95MOL0     C12750   0.738  11.400   5.175  1.0799  0.6122  0.4025
   95MOL0     C12751   0.711  11.356   5.320  0.0821  0.9018 -0.1574
   95MOL0     C12752   0.837  11.282   5.378  1.1503  0.5476 -0.9095
   95MOL0     C12753   0.797  11.145   5.412  0.7958 -0.8380  0.1744
   95MOL0     C12754   0.744  11.043   5.443  0.3747  0.3853 -0.6473
   95MOL0     C12755   0.520  11.622   4.878 -0.0100 -0.4629 -0.1780
   95MOL0     C12756   0.441  11.608   4.760 -0.9799  1.0422  0.2042
   95MOL0     C12757   0.322  11.689   4.751  0.2148 -0.1551 -0.9500
   95MOL0     H12758   0.386  11.629   4.230 -0.1896  1.2722 -0.6101
   95MOL0     H12759   0.210  11.606   4.056  0.4832  0.0314  0.4714
   95MOL0     H12760  -0.080  11.363   4.076 -0.7413 -0.7451  2.0204
   95MOL0     H12761  -0.196  11.469   4.156  4.0824  0.8560  3.7012
   95MOL0     H12762  -0.259  11.559   3.951  3.7705  1.7821  0.8409
   95MOL0     H12763  -0.264  11.371   3.932 -0.4363  0.6311  1.3838
   95MOL0     H12764  -0.029  11.406   3.837  2.7978  1.2883 -2.3652
   95MOL0     H12765  -0.071  11.569   3.812  1.2953 -1.1976  1.0795
   95MOL0     H12766  -0.242  11.360   3.680 -0.3429 -0.3755 -0.8629
   95MOL0     H12767  -0.253  11.535   3.669  1.2100  0.4039  2.3626
   95MOL0     H12768  -0.046  11.561   3.551  1.4571 -0.0087  2.3868
   95MOL0     H12769  -0.010  11.386   3.577  0.0443 -0.3024 -3.1377
   95MOL0     H12770  -0.195  11.331   3.438  0.9162  0.0755  2.9267
   95MOL0     H12771  -0.248  11.486   3.434 -0.8572 -2.0222  1.9727
   95MOL0     H12772   0.007  11.351   3.321 -1.6385 -0.5087  3.3138
   95MOL0     H12773   0.011  11.529   3.328  0.3785 -0.9071 -0.4727
   95MOL0     H12774  -0.175  11.536   3.179  0.3538  0.2706  3.9123
   95MOL0     H12775  -0.040  11.449   3.097  1.7505  2.5874  1.0028
   95MOL0     H12776  -0.390  11.366   3.194  0.0071 -1.3430  1.6319
   95MOL0     H12777  -0.561  11.203   3.051 -0.1070 -0.9868 -1.3131
   95MOL0     H12778  -0.492  11.048   3.016 -0.4895  0.5270  1.3084
   95MOL0     H12779  -0.505  11.150   3.301  0.4939  3.8213 -2.8702
   95MOL0     H12780  -0.647  11.085   3.220 -0.8636 -1.8286 -3.3269
   95MOL0     H12781  -0.462  10.898   3.160  4.1908  0.7026  0.5929
   95MOL0     H12782  -0.567  10.883   3.305 -0.5008  0.2581 -0.4744
   95MOL0     H12783  -0.292  11.020   3.296  0.9965 -1.8098 -0.2371
   95MOL0     H12784  -0.306  10.857   3.334  0.7257  0.1128 -2.2740
   95MOL0     H12785  -0.494  10.983   3.713 -0.3586  0.9426 -0.7413
   95MOL0     H12786  -0.376  11.008   3.905 -3.1533 -3.7536 -1.6763
   95MOL0     H12787  -0.059  10.857   4.202  2.9577  0.3948  0.0513
   95MOL0     H12788   0.034  10.912   4.440  1.7790  1.2742  0.1184
   95MOL0     H12789   0.217  11.096   4.545 -0.1350 -0.4821 -1.1287
   95MOL0     H12790   0.191  11.276   4.557  1.2907 -0.7289 -0.3298
   95MOL0     H12791   0.085  11.240   4.771  2.0967  0.6104  1.0177
   95MOL0     H12792   0.095  11.067   4.750  0.9111 -0.1879 -1.5519
   95MOL0     H12793   0.332  11.062   4.782  3.2329  0.7817  1.6347
   95MOL0     H12794   0.350  11.225   4.740 -0.5827  1.5607  0.0258
   95MOL0     H12795   0.248  11.110   5.000 -1.6878  2.7404  2.8145
   95MOL0     H12796   0.216  11.281   4.964 -2.1713 -0.0685 -1.1933
   95MOL0     H12797   0.424  11.277   5.097  1.6804  1.0965 -0.1582
   95MOL0     H12798   0.468  11.292   4.927 -3.7221  0.6316 -1.1163
   95MOL0     H12799   0.543  11.061   4.908  3.2638  1.6829 -0.1889
   95MOL0     H12800   0.616  11.144   5.046  0.2014 -0.6548  0.4044
   95MOL0     H12801   0.536  10.899   5.090  2.6473  1.1138  0.8170
   95MOL0     H12802   0.381  10.942   5.045 -0.0620 -0.7056 -1.4322
   95MOL0     H12803   0.527  11.035   5.300  0.1765 -2.5085 -0.0613
   95MOL0     H12804   0.391  11.127   5.248  0.5692  0.6384  0.4083
   95MOL0     H12805  -0.137  11.296   4.396 -1.9302 -1.3454  0.3915
   95MOL0     H12806  -0.216  11.234   4.151  0.0473  1.6689  1.0418
   95MOL0     H12807  -0.007  10.997   3.705  0.0187 -4.8092  2.4960
   95MOL0     H12808  -0.141  10.984   3.479  1.3001  4.3229  0.8557
   95MOL0     H12809  -0.072  11.497   4.342 -0.3735  0.3110  2.1870
   95MOL0     H12810   0.099  11.526   4.523 -1.1338 -3.3394 -0.0977
   95MOL0     H12811   0.600  11.324   4.643 -1.8077  0.7365 -0.1322
   95MOL0     H12812   0.739  11.370   4.845 -1.2692 -0.6306  2.7182
   95MOL0     H12813   0.554  11.484   5.108 -0.1343  1.9780  1.4589
   95MOL0     H12814   0.657  11.600   5.206 -0.5780 -1.3514  2.2878
   95MOL0     H12815   0.844  11.427   5.177  1.1899  0.1825  1.7342
   95MOL0     H12816   0.720  11.321   5.102  0.4380  3.4615 -2.7412
   95MOL0     H12817   0.623  11.293   5.325  1.4396 -0.9543  1.8338
   95MOL0     H12818   0.695  11.451   5.373 -2.4365  0.0171  0.8138
   95MOL0     H12819   0.921  11.282   5.308  0.5174  0.0030 -1.6856
   95MOL0     H12820   0.866  11.328   5.473 -0.1167 -0.8908  0.2169
   95MOL0     H12821   0.716  10.948   5.484  1.0521 -1.4923 -4.1355
   95MOL0     H12822   0.505  11.696   4.955  1.9141  0.3765 -0.5473
   95MOL0     H12823   0.358  11.780   4.702 -1.6033 -0.1397 -2.3799
   95MOL0     H12824   0.249  11.641   4.685 -0.3150  1.9541 -2.0005
   95MOL0     H12825   0.278  11.709   4.849  0.5661 -0.7929 -0.6610
   96MOL0     O12826  10.111   1.109  10.387 -0.3314 -0.5711  0.1030
   96MOL0     C12827  10.206   1.037  10.363 -0.3380 -0.7008  1.3784
   96MOL0     O12828  10.332   1.067  10.329  0.1398 -0.1123 -0.3300
   96MOL0     C12829  10.372   1.200  10.311  0.4763 -0.3068 -0.4108
   96MOL0     C12830  10.330   1.266  10.195 -0.2269  1.0518  0.8143
   96MOL0     C12831  10.386   1.392  10.161  0.0372 -0.2374 -0.0233
   96MOL0     C12832  10.497   1.438  10.236 -0.3619 -0.4601 -0.0705
   96MOL0     O12833  10.554   1.559  10.206 -0.0736  0.2284 -0.3833
   96MOL0     C12834  10.625   1.554  10.068 -0.3569 -0.3942  0.6750
   96MOL0     C12835  10.675   1.696  10.047 -0.6604 -0.2728  0.0825
   96MOL0     C12836  10.781   1.710   9.939  0.3616  0.0929  0.3076
   96MOL0     C12837  10.864   1.830   9.973 -0.4471 -0.5399  0.4569
   96MOL0     C12838  10.945   1.861   9.847 -0.1216  1.4909  0.1027
   96MOL0     C12839  10.874   1.960   9.747 -0.2568  0.1711  0.1239
   96MOL0     C12840  10.888   2.095   9.808 -0.7524  0.0469  0.5137
   96MOL0     C12841  10.800   2.198   9.729  0.3287  0.3665  1.0997
   96MOL0     N12842  10.756   2.308   9.819  0.4623 -0.8498 -0.2355
   96MOL0     C12843  10.848   2.376   9.907 -0.3147 -0.5480  0.4143
   96MOL0     C12844  10.769   2.449   9.984  0.0093 -0.6153 -0.3990
   96MOL0     C12845  10.812   2.541  10.087  0.6120  0.7253 -0.7984
   96MOL0     C12846  10.703   2.640  10.130  0.1508  0.4750  0.3241
   96MOL0     C12847  10.748   2.764  10.220  0.8154  0.1499 -0.6159
   96MOL0     C12848  10.862   2.724  10.316  0.3832 -0.3002 -0.9388
   96MOL0     O12849  10.991   2.729  10.258  0.6899 -0.3077 -0.0958
   96MOL0     C12850  11.097   2.699  10.340 -0.2477 -0.6850  0.5143
   96MOL0     C12851  11.221   2.751  10.293 -0.4204  0.5491 -0.1146
   96MOL0     C12852  11.343   2.734  10.370 -0.0541  0.5889  0.4119
   96MOL0     C12853  11.330   2.672  10.501  0.8645  0.4546 -0.0829
   96MOL0     C12854  11.439   2.649  10.595 -1.0751  0.5335  0.5457
   96MOL0     O12855  11.416   2.599  10.721  1.2556  0.0951 -0.4515
   96MOL0     C12856  11.517   2.601  10.818  0.1806 -0.3692  0.2428
   96MOL0     C12857  11.513   2.703  10.911 -0.6514 -0.1812 -0.5541
   96MOL0     C12858  11.608   2.712  11.018  1.0568  0.1117 -1.1067
   96MOL0     C12859  11.709   2.611  11.025  1.2522 -0.1077  0.1624
   96MOL0     O12860  11.795   2.589  11.134 -0.0452  0.1425  0.3953
   96MOL0     C12861  11.763   2.643  11.267 -0.5992  0.5927  0.2485
   96MOL0     C12862  11.869   2.752  11.299 -0.1152 -0.1914  0.4266
   96MOL0     C12863  11.833   2.786  11.446  0.3643  0.6040 -0.3274
   96MOL0     C12864  11.947   2.857  11.528 -0.7522  0.5409 -0.3819
   96MOL0     C12865  11.910   2.880  11.674  0.4984  0.3433  0.0864
   96MOL0     C12866  12.027   2.956  11.747  0.0567  0.4300 -0.3183
   96MOL0     C12867  11.986   3.006  11.883 -0.7471  0.9458 -0.3627
   96MOL0     C12868  12.061   3.144  11.926  0.2520  0.5750  0.2649
   96MOL0    Cl12869  12.011   3.170  12.096  0.0286  0.4155 -0.0003
   96MOL0     C12870  11.719   2.522  10.924 -0.8653 -0.2931  0.2822
   96MOL0     C12871  11.624   2.506  10.821  0.0808 -0.1065  0.2303
   96MOL0     O12872  11.546   2.701  10.560  0.5706 -0.8079  0.7709
   96MOL0     C12873  11.202   2.634  10.547  1.2531 -0.0885 -1.1973
   96MOL0     C12874  11.091   2.639  10.462  0.2411  0.2556  0.7511
   96MOL0     N12875  10.635   2.430   9.935 -0.3680 -0.2105 -0.3040
   96MOL0     N12876  10.634   2.358   9.824 -0.0832 -0.5213  0.7751
   96MOL0     C12877  10.550   1.368  10.340  0.3332 -0.2152  0.7576
   96MOL0     C12878  10.481   1.249  10.384 -1.0788  0.1947  0.9244
   96MOL0     C12879  10.171   0.893  10.364 -0.1414  0.2873  0.1573
   96MOL0     C12880  10.034   0.870  10.385  0.2705 -0.2450 -0.0064
   96MOL0     C12881   9.985   0.737  10.395 -0.4169  0.1461 -0.3060
   96MOL0     C12882  10.064   0.621  10.368  1.1474  0.4899  1.1414
   96MOL0     O12883  10.035   0.485  10.369 -0.8827  0.6835  0.1267
   96MOL0     C12884   9.927   0.451  10.449  0.6863  0.0813 -0.0188
   96MOL0     C12885   9.929   0.305  10.465  0.3639  1.1846 -1.1296
   96MOL0     C12886  10.066   0.265  10.550  0.2987  0.5715  0.3997
   96MOL0     C12887  10.073   0.114  10.580  0.1699  0.1643 -0.7450
   96MOL0     C12888   9.968   0.071  10.675  0.2125  1.2150  0.3947
   96MOL0     C12889   9.877   0.044  10.744 -0.0671  1.0410  0.8606
   96MOL0     C12890  10.194   0.647  10.338 -0.4799 -0.3207  0.9066
   96MOL0     C12891  10.256   0.772  10.335 -0.9410 -0.7635 -0.1685
   96MOL0     C12892  10.410   0.779  10.325  0.9429  0.5523 -1.4213
   96MOL0     H12893  10.251   1.224  10.134  1.2388 -0.4592 -0.1055
   96MOL0     H12894  10.345   1.464  10.091  3.1594  1.3308 -0.4141
   96MOL0     H12895  10.712   1.488  10.080 -0.3861 -0.4359  0.6545
   96MOL0     H12896  10.561   1.530   9.983 -2.8027  3.0976  1.3353
   96MOL0     H12897  10.716   1.733  10.142 -2.8431  0.6209  0.7358
   96MOL0     H12898  10.580   1.748  10.034 -1.3977 -1.0456  2.0401
   96MOL0     H12899  10.731   1.712   9.842  0.0844 -0.0358  0.4448
   96MOL0     H12900  10.849   1.624   9.933 -1.4287 -1.4145  0.6588
   96MOL0     H12901  10.809   1.920  10.002 -0.9473 -0.3674 -0.9532
   96MOL0     H12902  10.930   1.796  10.053  0.4123  1.5597  0.7114
   96MOL0     H12903  11.038   1.910   9.875  0.5223  0.0253  0.5871
   96MOL0     H12904  10.965   1.766   9.797  0.3632  0.7157  1.7046
   96MOL0     H12905  10.915   1.952   9.646 -1.1235 -1.6197 -0.1300
   96MOL0     H12906  10.770   1.924   9.748  0.1746 -1.1244  0.3614
   96MOL0     H12907  10.992   2.131   9.807  0.8180 -3.7998  2.6691
   96MOL0     H12908  10.845   2.091   9.908 -2.0122  0.3578  0.0015
   96MOL0     H12909  10.841   2.243   9.638 -0.6183 -0.3777  0.2812
   96MOL0     H12910  10.705   2.158   9.692  1.3019  0.9721 -2.3777
   96MOL0     H12911  10.955   2.362   9.918  0.4385 -2.0396 -5.3652
   96MOL0     H12912  10.825   2.472  10.171 -0.6052  0.5770 -0.7126
   96MOL0     H12913  10.909   2.587  10.065  1.4643 -2.1178 -3.6463
   96MOL0     H12914  10.660   2.676  10.036  1.7218  1.0985 -0.1901
   96MOL0     H12915  10.622   2.593  10.185 -0.5943  0.7397 -0.5253
   96MOL0     H12916  10.658   2.795  10.273  0.4735  0.8453 -1.5619
   96MOL0     H12917  10.776   2.840  10.145 -2.1159  0.7057 -1.2872
   96MOL0     H12918  10.844   2.626  10.360  2.3460  0.1237  0.9916
   96MOL0     H12919  10.865   2.789  10.403 -2.8130 -2.2380  0.8098
   96MOL0     H12920  11.225   2.818  10.207  1.6144  0.4522 -0.1550
   96MOL0     H12921  11.438   2.769  10.333  0.8899 -2.2208 -0.0720
   96MOL0     H12922  11.439   2.782  10.904 -2.7739 -2.0766 -0.9691
   96MOL0     H12923  11.607   2.795  11.088  0.0539  0.1565 -1.1670
   96MOL0     H12924  11.663   2.686  11.280 -1.6483 -2.2509  2.7313
   96MOL0     H12925  11.770   2.564  11.343  1.9107  1.3280  0.8620
   96MOL0     H12926  11.975   2.726  11.288 -0.0184  0.8425 -1.4249
   96MOL0     H12927  11.862   2.834  11.227  3.1572 -2.0355 -2.2848
   96MOL0     H12928  11.744   2.849  11.438  0.8748  1.0768 -3.5781
   96MOL0     H12929  11.794   2.700  11.501 -2.0111 -0.1420 -2.9285
   96MOL0     H12930  11.978   2.954  11.488  1.6373  0.4902  1.1294
   96MOL0     H12931  12.034   2.790  11.532  0.7179  2.2349 -2.0398
   96MOL0     H12932  11.896   2.780  11.716 -0.7671  0.6460  0.4083
   96MOL0     H12933  11.818   2.935  11.694 -0.0137 -0.9678  1.6097
   96MOL0     H12934  12.113   2.889  11.754  0.6634  0.4248 -4.9115
   96MOL0     H12935  12.050   3.042  11.685 -0.0812 -0.5787 -1.8320
   96MOL0     H12936  12.008   2.925  11.953 -1.0434  3.0319  2.3149
   96MOL0     H12937  11.878   3.020  11.888 -1.4401 -3.2791  0.7381
   96MOL0     H12938  12.169   3.127  11.921  0.1149 -0.2387 -4.6760
   96MOL0     H12939  12.029   3.226  11.861 -0.9914  1.1319  1.5189
   96MOL0     H12940  11.808   2.462  10.908 -0.6864 -0.0659  0.4291
   96MOL0     H12941  11.640   2.436  10.740  1.3708  0.3814  0.0459
   96MOL0     H12942  11.176   2.590  10.643  0.5558 -1.8367 -2.1490
   96MOL0     H12943  10.999   2.597  10.502  1.0995 -0.0020  2.5266
   96MOL0     H12944  10.639   1.410  10.384  0.3640  1.2619 -0.6316
   96MOL0     H12945  10.528   1.187  10.460 -0.6120 -1.8780 -0.9288
   96MOL0     H12946   9.956   0.942  10.407  0.0913 -0.5927  0.5414
   96MOL0     H12947   9.878   0.720  10.406 -0.0954 -1.3971  0.9120
   96MOL0     H12948   9.838   0.499  10.404 -0.1370 -0.3636  1.0954
   96MOL0     H12949   9.930   0.491  10.551 -0.6213 -2.0018  0.8967
   96MOL0     H12950   9.921   0.249  10.372  2.1936  0.3509 -0.8420
   96MOL0     H12951   9.837   0.274  10.516  2.4294 -1.5592  1.3188
   96MOL0     H12952  10.057   0.316  10.646  0.8705  1.2004  0.1231
   96MOL0     H12953  10.151   0.289  10.485 -0.5030 -1.2429 -1.4516
   96MOL0     H12954  10.078   0.049  10.492 -1.0841  0.2383 -0.8847
   96MOL0     H12955  10.161   0.107  10.645 -0.3812  0.4393  0.0560
   96MOL0     H12956   9.795   0.037  10.812 -0.3089 -0.9314  0.4438
   96MOL0     H12957  10.258   0.562  10.317 -0.2348 -0.2482  1.3489
   96MOL0     H12958  10.444   0.837  10.412 -4.7756  1.8139  0.3950
   96MOL0     H12959  10.446   0.676  10.336 -1.6381 -0.1527  2.7448
   96MOL0     H12960  10.445   0.812  10.227  2.0477  3.2681 -0.2101
   97MOL0     O12961   4.180  10.005   8.474 -0.4563  0.2043 -0.4362
   97MOL0     C12962   4.276   9.941   8.448 -0.7860 -0.0166  0.4802
   97MOL0     O12963   4.308   9.826   8.506  0.6195  0.5365 -0.4077
   97MOL0     C12964   4.221   9.797   8.616  0.5354  0.4573  0.3183
   97MOL0     C12965   4.133   9.693   8.614  0.4066 -0.2366 -0.1199
   97MOL0     C12966   4.055   9.666   8.727 -0.2969 -0.2007  0.4463
   97MOL0     C12967   4.050   9.752   8.834 -0.8748 -0.7803  0.0457
   97MOL0     O12968   3.972   9.735   8.942 -0.4991  0.0675 -0.2111
   97MOL0     C12969   3.858   9.648   8.940  0.7226  0.0896  0.3285
   97MOL0     C12970   3.756   9.686   9.054 -0.2916 -1.1636  0.8087
   97MOL0     C12971   3.714   9.839   9.029  1.0001  0.0847 -0.4263
   97MOL0     C12972   3.601   9.854   8.935 -0.4942  0.4571 -0.8712
   97MOL0     C12973   3.554   9.997   8.908 -0.4294 -0.4597  0.5541
   97MOL0     C12974   3.520  10.082   9.037 -0.4221 -0.5354  0.2833
   97MOL0     C12975   3.490  10.229   9.009  0.1177  0.7287  0.2522
   97MOL0     C12976   3.354  10.241   8.947 -0.7290 -0.8509 -0.2455
   97MOL0     N12977   3.289  10.373   8.976 -0.1648 -0.3254 -0.3206
   97MOL0     C12978   3.280  10.439   9.096 -0.2655  0.2646 -0.2727
   97MOL0     C12979   3.201  10.543   9.069  0.1102 -1.0487 -1.1506
   97MOL0     C12980   3.157  10.632   9.183 -0.0915  0.8630  0.4513
   97MOL0     C12981   3.007  10.649   9.191 -0.3113 -0.0700 -0.6078
   97MOL0     C12982   2.923  10.520   9.164 -0.1993  1.1237 -0.3301
   97MOL0     C12983   2.769  10.525   9.193 -0.0912 -0.5636 -1.0567
   97MOL0     O12984   2.709  10.404   9.161 -0.1930  0.8995 -0.3936
   97MOL0     C12985   2.579  10.388   9.197 -0.3959  0.4629 -0.6125
   97MOL0     C12986   2.469  10.434   9.132  1.2235 -0.7001  0.6211
   97MOL0     C12987   2.345  10.406   9.185  0.2778 -0.0616 -0.2837
   97MOL0     C12988   2.329  10.329   9.302 -0.8752 -0.1341  0.3975
   97MOL0     C12989   2.204  10.292   9.358  0.4060  1.2803  0.2487
   97MOL0     O12990   2.100  10.380   9.363 -0.0085  0.0359  0.3619
   97MOL0     C12991   1.985  10.364   9.425 -0.6592  0.3593 -1.2246
   97MOL0     C12992   1.960  10.429   9.545  1.2752 -0.3632 -0.2669
   97MOL0     C12993   1.838  10.415   9.609  0.1505 -0.5641 -0.1661
   97MOL0     C12994   1.742  10.314   9.566  0.2279  0.4375  0.5038
   97MOL0     O12995   1.618  10.297   9.621  0.0651 -0.5924  0.0607
   97MOL0     C12996   1.603  10.339   9.759  0.2824  0.1832 -0.2202
   97MOL0     C12997   1.460  10.284   9.780 -0.4474  0.0201 -0.1595
   97MOL0     C12998   1.372  10.354   9.895  0.2415  0.2529 -0.5947
   97MOL0     C12999   1.223  10.299   9.891  0.0460  0.7574  0.2702
   97MOL0     C13000   1.115  10.392   9.955 -0.7184 -0.0260 -0.8566
   97MOL0     C13001   1.150  10.407  10.101 -0.1899  0.0777 -0.6416
   97MOL0     C13002   1.144  10.287  10.190 -0.4649  0.0274 -1.0654
   97MOL0     C13003   1.141  10.334  10.339  0.9268  0.4672  0.1563
   97MOL0    Cl13004   1.301  10.349  10.407 -0.2317  0.5460 -0.0441
   97MOL0     C13005   1.775  10.238   9.446 -0.2826 -0.1373 -0.2509
   97MOL0     C13006   1.895  10.271   9.372  0.0976 -0.3280  0.0712
   97MOL0     O13007   2.202  10.172   9.386  0.7455 -0.2220  1.3647
   97MOL0     C13008   2.446  10.307   9.370 -0.5562 -0.4280  0.4877
   97MOL0     C13009   2.573  10.327   9.322  0.3696 -0.3170  0.6288
   97MOL0     N13010   3.163  10.534   8.938 -0.9092 -0.1441  0.2139
   97MOL0     N13011   3.222  10.436   8.884  0.5959 -0.1271  0.2867
   97MOL0     C13012   4.152   9.858   8.837 -0.4990 -0.2356 -0.7312
   97MOL0     C13013   4.230   9.880   8.731  0.2925 -0.3990 -0.2746
   97MOL0     C13014   4.350   9.983   8.328  1.5331 -0.1076  0.4422
   97MOL0     C13015   4.444   9.897   8.273 -0.7496 -0.5848  0.2201
   97MOL0     C13016   4.501   9.921   8.145  0.4272 -0.1346 -0.0612
   97MOL0     C13017   4.471  10.032   8.067 -0.5019  0.3395  0.1767
   97MOL0     O13018   4.524  10.048   7.944  0.3298  0.2418 -0.3876
   97MOL0     C13019   4.566  10.184   7.908 -0.1961  0.8784 -0.0053
   97MOL0     C13020   4.717  10.172   7.887  0.2312  0.1466 -0.4588
   97MOL0     C13021   4.759  10.064   7.781 -0.0173  0.4709 -0.3173
   97MOL0     C13022   4.908  10.033   7.762 -0.2042 -0.5904  0.2026
   97MOL0     C13023   4.930   9.931   7.666 -0.0986  0.4840  0.8955
   97MOL0     C13024   4.941   9.841   7.582 -0.2943  0.2219  0.2523
   97MOL0     C13025   4.394  10.124   8.127  0.7788 -0.2453 -0.8750
   97MOL0     C13026   4.332  10.101   8.253  0.6153 -1.1824 -0.9434
   97MOL0     C13027   4.266  10.225   8.315 -0.1109  0.1511 -0.2853
   97MOL0     H13028   4.114   9.648   8.517 -1.5899  0.0673  0.0999
   97MOL0     H13029   3.975   9.592   8.729 -0.9341  0.3072 -2.2608
   97MOL0     H13030   3.802   9.656   8.846 -0.0919 -0.3684  0.7623
   97MOL0     H13031   3.880   9.542   8.953 -0.5178 -0.3782 -1.0477
   97MOL0     H13032   3.786   9.676   9.159  0.8779 -0.2796  0.5898
   97MOL0     H13033   3.668   9.623   9.043  1.2381 -3.0602 -1.7023
   97MOL0     H13034   3.796   9.903   8.995  2.2634  0.4508  2.9085
   97MOL0     H13035   3.682   9.871   9.128 -1.8453  0.5697 -1.4345
   97MOL0     H13036   3.610   9.799   8.841 -1.5800  0.2362 -0.8550
   97MOL0     H13037   3.524   9.808   8.998  0.4160 -1.5453 -1.1700
   97MOL0     H13038   3.631  10.056   8.858  2.3600 -2.6463  1.9734
   97MOL0     H13039   3.475   9.991   8.832 -0.1329 -0.1250  0.2125
   97MOL0     H13040   3.439  10.023   9.081  2.1952 -2.4967  2.7290
   97MOL0     H13041   3.602  10.081   9.108 -1.4578  0.6019  1.5559
   97MOL0     H13042   3.572  10.268   8.947  3.1934 -1.9570  2.2780
   97MOL0     H13043   3.495  10.285   9.102 -0.3193 -1.3129  1.5589
   97MOL0     H13044   3.365  10.221   8.840  1.2660 -1.5915  0.0442
   97MOL0     H13045   3.282  10.167   8.983 -1.5232  0.1468  0.2747
   97MOL0     H13046   3.299  10.400   9.195  0.1362  2.7230  0.6935
   97MOL0     H13047   3.190  10.595   9.281  0.1382  0.4987  0.2388
   97MOL0     H13048   3.206  10.730   9.186  0.1971  0.7159  0.6602
   97MOL0     H13049   2.994  10.696   9.289  0.4166  0.0700 -0.5749
   97MOL0     H13050   2.982  10.723   9.115  1.1255 -0.6844 -1.7171
   97MOL0     H13051   2.962  10.446   9.235  0.5720  1.0226 -0.8506
   97MOL0     H13052   2.942  10.472   9.067  0.4100  1.9135 -0.6112
   97MOL0     H13053   2.712  10.601   9.139 -0.3045 -1.2915 -1.8891
   97MOL0     H13054   2.737  10.557   9.293  1.4005  0.9076 -1.0209
   97MOL0     H13055   2.468  10.464   9.027  4.3613  1.5650  1.0955
   97MOL0     H13056   2.250  10.435   9.141  1.0404  0.4053 -1.6919
   97MOL0     H13057   2.033  10.498   9.584 -0.5785 -0.2475  3.4282
   97MOL0     H13058   1.811  10.484   9.688  0.0835 -0.1352 -0.5649
   97MOL0     H13059   1.686  10.299   9.817  2.6767  2.8974 -1.5368
   97MOL0     H13060   1.591  10.447   9.771  1.8554  0.2331  1.2651
   97MOL0     H13061   1.402  10.289   9.687  2.6978  1.9788 -2.1645
   97MOL0     H13062   1.461  10.176   9.797  1.2939 -0.2426 -1.6691
   97MOL0     H13063   1.402  10.322   9.995 -0.2582  1.1828 -0.1469
   97MOL0     H13064   1.383  10.461   9.876  1.2742  0.6567  1.9168
   97MOL0     H13065   1.230  10.196   9.927  0.5522  0.5829 -0.3075
   97MOL0     H13066   1.180  10.297   9.791 -0.5354  0.8198  0.5150
   97MOL0     H13067   1.019  10.340   9.946 -0.5343 -0.8258  1.2371
   97MOL0     H13068   1.115  10.480   9.890  1.7628 -0.2071 -1.2029
   97MOL0     H13069   1.250  10.447  10.116 -0.4483  1.4846 -2.4070
   97MOL0     H13070   1.080  10.480  10.143  2.6349  2.6184 -0.0176
   97MOL0     H13071   1.235  10.226  10.186 -0.7436 -0.5372  0.5144
   97MOL0     H13072   1.060  10.226  10.154 -1.9031  2.1493 -1.5359
   97MOL0     H13073   1.089  10.429  10.349 -0.0541  0.2827 -2.4003
   97MOL0     H13074   1.090  10.260  10.402  0.5625  0.6613  0.0879
   97MOL0     H13075   1.699  10.167   9.416 -3.6060  1.8186  2.6134
   97MOL0     H13076   1.923  10.221   9.279  4.8047  0.2696  0.8991
   97MOL0     H13077   2.454  10.254   9.464  0.9282 -2.5671 -0.7608
   97MOL0     H13078   2.656  10.305   9.387 -0.5273 -1.0817  1.5459
   97MOL0     H13079   4.167   9.922   8.923  1.9779 -0.1974 -1.1423
   97MOL0     H13080   4.301   9.962   8.740 -1.3501  0.9995  0.7234
   97MOL0     H13081   4.492   9.819   8.332 -0.8410 -1.6283 -1.0471
   97MOL0     H13082   4.569   9.849   8.100 -1.3139 -0.3547 -2.5423
   97MOL0     H13083   4.544  10.263   7.980 -2.5248  1.8705 -1.6808
   97MOL0     H13084   4.518  10.201   7.811  2.3474 -1.7979 -1.9188
   97MOL0     H13085   4.768  10.151   7.981  0.0083  1.6583  0.0299
   97MOL0     H13086   4.743  10.275   7.860 -2.0996  1.1580  0.8260
   97MOL0     H13087   4.710  10.093   7.688 -1.0742 -2.6662 -0.8687
   97MOL0     H13088   4.719   9.964   7.803 -2.6239  1.1405 -1.6773
   97MOL0     H13089   4.947  10.126   7.718  1.4882 -1.1891  0.3478
   97MOL0     H13090   4.953  10.004   7.857  1.8949  0.8082 -0.2912
   97MOL0     H13091   4.969   9.766   7.511  2.8494  1.6175 -0.1152
   97MOL0     H13092   4.371  10.217   8.076  2.5412  1.3251  1.0277
   97MOL0     H13093   4.308  10.320   8.280 -1.6696  2.1480  2.8687
   97MOL0     H13094   4.159  10.213   8.299 -0.2161  1.8847 -0.9946
   97MOL0     H13095   4.282  10.230   8.423 -0.0479 -0.1458 -0.2782
   98MOL0     O13096   1.035   8.823   6.266 -0.3283 -0.9060 -0.3889
   98MOL0     C13097   0.930   8.849   6.204 -0.0090  0.3902 -0.1045
   98MOL0     O13098   0.827   8.758   6.196 -0.3416  0.9403 -0.9016
   98MOL0     C13099   0.840   8.634   6.249  1.0414  0.4465  1.3229
   98MOL0     C13100   0.805   8.604   6.380  0.1095 -0.0047 -0.5500
   98MOL0     C13101   0.816   8.477   6.429  1.0826  0.1583 -0.0928
   98MOL0     C13102   0.872   8.377   6.344  0.3268 -0.7769  0.6092
   98MOL0     O13103   0.891   8.249   6.377  0.4168 -0.2806  0.6919
   98MOL0     C13104   0.974   8.214   6.482 -0.3865  0.1199 -0.0172
   98MOL0     C13105   0.987   8.058   6.499 -0.1034 -0.2370  1.3621
   98MOL0     C13106   1.128   8.003   6.505  1.8900  0.2513 -0.7454
   98MOL0     C13107   1.197   8.013   6.639 -0.2101 -0.8176  1.1075
   98MOL0     C13108   1.126   7.935   6.752 -0.5112 -0.1678 -0.4254
   98MOL0     C13109   1.172   7.972   6.882 -0.1000  0.1013 -0.4730
   98MOL0     C13110   1.330   7.958   6.902  0.1520  0.2023  0.7465
   98MOL0     C13111   1.372   7.928   7.046 -0.4682 -0.5236  0.9156
   98MOL0     N13112   1.511   7.950   7.074 -0.1253 -0.6122 -0.9907
   98MOL0     C13113   1.556   8.064   7.148  0.2773  0.0765 -0.6540
   98MOL0     C13114   1.679   8.027   7.198 -0.9008 -0.3973  0.1592
   98MOL0     C13115   1.763   8.098   7.300 -0.1132 -0.6617  0.6158
   98MOL0     C13116   1.803   8.009   7.417 -0.2285 -0.4722  0.5687
   98MOL0     C13117   1.693   8.030   7.520  0.5387 -0.7140  0.3073
   98MOL0     C13118   1.571   7.925   7.510 -0.6890 -0.9972  0.6412
   98MOL0     O13119   1.515   7.909   7.643 -0.5232  0.8293  0.1933
   98MOL0     C13120   1.419   8.003   7.675  0.0964 -0.7423  0.7435
   98MOL0     C13121   1.446   8.088   7.784  0.2282  0.4732 -0.5337
   98MOL0     C13122   1.341   8.169   7.828 -0.4299 -0.0665 -1.2664
   98MOL0     C13123   1.231   8.192   7.749  0.3965  0.6019  0.4879
   98MOL0     C13124   1.143   8.298   7.776  0.2786  0.4196  0.5695
   98MOL0     O13125   1.167   8.375   7.888  0.3653  0.5301  0.4431
   98MOL0     C13126   1.078   8.490   7.906  0.8327  0.3381 -0.1648
   98MOL0     C13127   1.046   8.578   7.798 -0.3746 -0.0637 -0.0394
   98MOL0     C13128   0.966   8.679   7.828  0.3998  0.2355 -0.2826
   98MOL0     C13129   0.928   8.704   7.960 -0.0273 -0.1819  0.5696
   98MOL0     O13130   0.850   8.818   7.969 -0.1419  0.0701 -0.0758
   98MOL0     C13131   0.834   8.864   8.106 -0.7893  0.2411 -0.6671
   98MOL0     C13132   0.803   9.019   8.096 -0.3125  0.9676 -0.1797
   98MOL0     C13133   0.817   9.089   8.226  0.5438 -0.0598 -0.1647
   98MOL0     C13134   0.709   9.036   8.329  0.2933 -1.5544 -0.1222
   98MOL0     C13135   0.735   9.106   8.466  1.3040 -0.8226  0.7010
   98MOL0     C13136   0.659   9.034   8.580  0.0738 -0.1785 -0.1392
   98MOL0     C13137   0.693   9.113   8.700 -1.3667 -0.2063 -0.0983
   98MOL0     C13138   0.643   9.052   8.825  0.4724  0.4958 -0.1591
   98MOL0    Cl13139   0.693   8.881   8.835  0.2246  0.1471 -0.0074
   98MOL0     C13140   0.970   8.623   8.069 -0.2041 -0.2207  0.2035
   98MOL0     C13141   1.035   8.508   8.043  0.0864 -0.3224  0.0111
   98MOL0     O13142   1.051   8.306   7.699  0.2379 -0.5718  0.0637
   98MOL0     C13143   1.208   8.099   7.650  0.6372  1.3569 -1.0571
   98MOL0     C13144   1.298   8.003   7.613 -0.8539  0.7432 -0.1128
   98MOL0     N13145   1.708   7.901   7.146  0.1873 -0.0389  0.4578
   98MOL0     N13146   1.608   7.857   7.084  0.9303  0.7986 -1.2680
   98MOL0     C13147   0.887   8.409   6.207 -0.5496  0.5078  0.4047
   98MOL0     C13148   0.863   8.535   6.156 -0.4579 -0.0485  0.2428
   98MOL0     C13149   0.905   8.992   6.165  0.1970 -0.4695  0.2904
   98MOL0     C13150   0.857   9.019   6.038 -0.9645 -0.5273 -0.9161
   98MOL0     C13151   0.850   9.153   5.997  0.4292  1.1002 -0.4587
   98MOL0     C13152   0.879   9.261   6.077  0.1606 -1.4149  0.3539
   98MOL0     O13153   0.857   9.390   6.023  0.1953  0.3737  0.3960
   98MOL0     C13154   0.872   9.495   6.117 -0.5898  0.0031  0.4272
   98MOL0     C13155   0.834   9.633   6.054 -0.2657  0.0950  0.6825
   98MOL0     C13156   0.700   9.632   5.980 -0.2932 -0.4468 -0.4630
   98MOL0     C13157   0.658   9.771   5.941 -0.1460  0.5507  0.4340
   98MOL0     C13158   0.520   9.786   5.899  0.5050 -0.2327  0.6811
   98MOL0     C13159   0.402   9.824   5.885 -0.1846  0.6597 -0.6001
   98MOL0     C13160   0.935   9.230   6.195 -0.5377 -0.3526  0.4163
   98MOL0     C13161   0.953   9.104   6.241 -0.6317  0.7010  0.5662
   98MOL0     C13162   1.005   9.098   6.387  0.2575 -0.4296  0.2725
   98MOL0     H13163   0.772   8.692   6.435 -1.0059 -0.6215 -0.1948
   98MOL0     H13164   0.787   8.445   6.528  1.5449  0.9146  0.2979
   98MOL0     H13165   1.069   8.257   6.450 -1.7681  2.6848 -0.9797
   98MOL0     H13166   0.953   8.267   6.576  0.4363  1.7201 -0.6827
   98MOL0     H13167   0.952   8.015   6.405 -1.0245 -1.0617  2.0592
   98MOL0     H13168   0.923   8.023   6.580 -2.4008 -0.0124 -0.2537
   98MOL0     H13169   1.200   8.048   6.437  1.5180  1.6435 -0.2584
   98MOL0     H13170   1.116   7.900   6.471  1.8392  0.1065 -0.2972
   98MOL0     H13171   1.297   7.973   6.622  1.0628  2.1606  1.0909
   98MOL0     H13172   1.209   8.120   6.653  0.5492 -0.2825 -2.5218
   98MOL0     H13173   1.019   7.958   6.760 -0.5597 -0.8508  1.3261
   98MOL0     H13174   1.124   7.828   6.731  2.0641  0.1458 -2.8952
   98MOL0     H13175   1.146   8.075   6.904  0.4782  0.3677 -1.0164
   98MOL0     H13176   1.142   7.895   6.955 -0.0343 -0.3279 -0.8920
   98MOL0     H13177   1.370   8.057   6.878 -0.5407  1.2043  3.3298
   98MOL0     H13178   1.372   7.885   6.832  3.8119  2.2035  0.6341
   98MOL0     H13179   1.328   7.987   7.127 -1.4805  0.7652 -0.5192
   98MOL0     H13180   1.343   7.824   7.059  1.2276 -1.3505 -1.2268
   98MOL0     H13181   1.492   8.149   7.171  1.0193  0.7542 -1.0636
   98MOL0     H13182   1.858   8.108   7.248  0.3029 -1.2963  1.2380
   98MOL0     H13183   1.721   8.199   7.307 -0.0829 -0.4264 -1.7239
   98MOL0     H13184   1.818   7.904   7.392 -2.6965 -1.3434  2.3528
   98MOL0     H13185   1.896   8.052   7.455 -1.4409  1.2283  1.7690
   98MOL0     H13186   1.651   8.131   7.516  3.9741  0.8294  0.0821
   98MOL0     H13187   1.749   8.013   7.612  2.9236 -2.0601 -1.2724
   98MOL0     H13188   1.605   7.833   7.461  4.2703  2.2231 -2.8989
   98MOL0     H13189   1.499   7.970   7.441 -2.7536  0.6431  3.6291
   98MOL0     H13190   1.539   8.072   7.838 -1.6853 -1.1407  2.6082
   98MOL0     H13191   1.351   8.223   7.922  1.2028 -1.1093 -0.7978
   98MOL0     H13192   1.087   8.549   7.702 -0.2094 -4.6853  1.1877
   98MOL0     H13193   0.924   8.743   7.751 -1.3686 -1.2375 -0.6134
   98MOL0     H13194   0.763   8.801   8.160 -1.1919  2.9007  2.2134
   98MOL0     H13195   0.930   8.856   8.159 -1.7669  0.6244  1.2664
   98MOL0     H13196   0.875   9.063   8.026 -0.1235 -0.2897 -0.7994
   98MOL0     H13197   0.708   9.042   8.048  1.2028  2.4359 -2.7261
   98MOL0     H13198   0.920   9.074   8.260  0.5290 -0.3810 -0.2551
   98MOL0     H13199   0.798   9.195   8.208  0.1818 -0.5884 -3.7481
   98MOL0     H13200   0.701   8.927   8.331 -1.8864 -1.5724 -3.1161
   98MOL0     H13201   0.609   9.075   8.304  0.8456  1.2150  1.5063
   98MOL0     H13202   0.688   9.203   8.445  2.5817 -0.6196 -1.5039
   98MOL0     H13203   0.842   9.129   8.470  1.0867  1.2928 -2.1383
   98MOL0     H13204   0.552   9.044   8.558  0.8919  4.0720 -3.6114
   98MOL0     H13205   0.706   8.937   8.594  1.3529  0.7338  2.8831
   98MOL0     H13206   0.649   9.213   8.699  0.2744  0.5474  0.1072
   98MOL0     H13207   0.801   9.125   8.718 -1.7965  1.1765  2.0199
   98MOL0     H13208   0.678   9.104   8.914  2.8381 -0.0748 -0.7010
   98MOL0     H13209   0.534   9.058   8.831  0.2475 -0.6503 -2.0248
   98MOL0     H13210   0.947   8.661   8.169  2.6674  1.5237  0.2994
   98MOL0     H13211   1.053   8.458   8.138 -2.3116  3.1550  2.5647
   98MOL0     H13212   1.112   8.119   7.603 -2.1862 -0.9519  3.0835
   98MOL0     H13213   1.278   7.937   7.529 -4.3115  1.4799 -0.0388
   98MOL0     H13214   0.922   8.328   6.144  0.6262  1.2051  0.1371
   98MOL0     H13215   0.878   8.558   6.052  3.7921  0.9306  0.8958
   98MOL0     H13216   0.827   8.946   5.963 -1.5976 -0.0133 -1.1826
   98MOL0     H13217   0.812   9.160   5.895 -1.9050 -2.6732 -0.0490
   98MOL0     H13218   0.979   9.496   6.139 -0.5225  1.6462  0.1692
   98MOL0     H13219   0.806   9.477   6.202 -1.1186  4.3580  1.1642
   98MOL0     H13220   0.911   9.672   5.987 -1.7729  4.9391  1.4260
   98MOL0     H13221   0.839   9.709   6.133  0.6332 -1.4959  2.2468
   98MOL0     H13222   0.618   9.592   6.041 -0.5557 -1.1594 -1.2565
   98MOL0     H13223   0.702   9.569   5.891 -3.1734  0.3958 -1.2523
   98MOL0     H13224   0.686   9.845   6.016 -0.0290 -1.4913  2.5333
   98MOL0     H13225   0.725   9.801   5.860  0.8172  1.3140  1.4677
   98MOL0     H13226   0.314   9.884   5.878 -1.0883 -0.8572 -4.1934
   98MOL0     H13227   0.962   9.307   6.266  1.3515 -0.5344 -0.0325
   98MOL0     H13228   1.109   9.064   6.390 -0.0252 -1.3266  0.1279
   98MOL0     H13229   1.012   9.187   6.450 -0.1050  0.1630 -0.5073
   98MOL0     H13230   0.956   9.024   6.451 -0.6468  0.5431  0.7390
   99MOL0     O13231   3.082   0.271   2.973 -0.7705 -0.3680  0.7215
   99MOL0     C13232   3.090   0.362   2.892 -0.1794 -0.0154 -0.2254
   99MOL0     O13233   3.124   0.486   2.928  0.3582  0.8532  0.0213
   99MOL0     C13234   3.109   0.524   3.063  0.6123 -1.3375  0.6572
   99MOL0     C13235   2.982   0.548   3.116 -0.2920 -0.5236  0.1599
   99MOL0     C13236   2.972   0.606   3.239  0.9002 -0.0846 -0.2950
   99MOL0     C13237   3.084   0.646   3.312  0.6111 -1.0023  0.0669
   99MOL0     O13238   3.059   0.708   3.438  0.3257  0.3471  0.2529
   99MOL0     C13239   3.153   0.797   3.497  0.5402 -0.6856  0.2013
   99MOL0     C13240   3.249   0.732   3.593  0.5614  0.3154 -0.1096
   99MOL0     C13241   3.292   0.824   3.701  0.4227 -0.0739  0.7880
   99MOL0     C13242   3.383   0.763   3.807  0.3431 -0.3903  0.1145
   99MOL0     C13243   3.522   0.742   3.757  0.0649 -0.1270 -0.5818
   99MOL0     C13244   3.599   0.656   3.858  0.7341  0.1321 -0.3403
   99MOL0     C13245   3.737   0.616   3.801  0.3495  0.1337  0.6940
   99MOL0     C13246   3.805   0.500   3.881 -0.3959  0.6050  0.3206
   99MOL0     N13247   3.832   0.547   4.014 -0.7524  0.5104  0.9661
   99MOL0     C13248   3.963   0.567   4.061  0.5503  0.2935 -0.1717
   99MOL0     C13249   3.957   0.646   4.171 -1.0594  0.5073  0.1508
   99MOL0     C13250   4.078   0.687   4.247  0.9754 -0.1777 -0.2558
   99MOL0     C13251   4.107   0.835   4.233  0.0727 -0.8234  0.2121
   99MOL0     C13252   4.006   0.937   4.298  0.1268  0.3668  0.4566
   99MOL0     C13253   3.985   0.904   4.449 -0.0814  0.0541  0.3886
   99MOL0     O13254   3.903   1.013   4.495  0.4838 -0.3713 -0.1369
   99MOL0     C13255   3.781   0.986   4.540 -0.1983  0.3652 -1.3885
   99MOL0     C13256   3.730   1.094   4.619 -0.0207 -0.4667 -0.5669
   99MOL0     C13257   3.596   1.090   4.659 -0.0772  0.9905 -0.0541
   99MOL0     C13258   3.510   0.980   4.637  0.0241  0.0629 -0.1699
   99MOL0     C13259   3.375   0.973   4.690 -0.1469  0.1360  0.4831
   99MOL0     O13260   3.303   0.866   4.655 -0.2103  0.4051  0.6549
   99MOL0     C13261   3.170   0.856   4.686 -0.1551  0.2792 -0.1434
   99MOL0     C13262   3.075   0.965   4.692 -0.0663  0.2724  0.3242
   99MOL0     C13263   2.941   0.940   4.722 -0.7372  0.2753  0.4969
   99MOL0     C13264   2.897   0.813   4.758  1.6650 -0.0627  0.5316
   99MOL0     O13265   2.759   0.800   4.769 -0.2002 -0.5333  0.3450
   99MOL0     C13266   2.703   0.692   4.829  1.1380  1.0343 -0.1956
   99MOL0     C13267   2.688   0.695   4.982 -1.3274  0.0017  0.0894
   99MOL0     C13268   2.554   0.626   5.009 -0.1445 -1.1232 -0.6199
   99MOL0     C13269   2.530   0.636   5.158  0.3311  0.0605 -0.5604
   99MOL0     C13270   2.414   0.558   5.219  0.9459  0.5952 -0.5963
   99MOL0     C13271   2.405   0.412   5.189 -0.1186  0.8337 -0.3537
   99MOL0     C13272   2.286   0.331   5.262 -0.2378 -0.1372  0.3814
   99MOL0     C13273   2.138   0.372   5.230  0.0822  0.4993  0.1166
   99MOL0    Cl13274   2.012   0.277   5.324 -0.3212 -0.1037  0.0947
   99MOL0     C13275   2.991   0.709   4.774  0.3494  0.1577  0.7572
   99MOL0     C13276   3.126   0.724   4.725 -0.0553 -0.8310 -0.4706
   99MOL0     O13277   3.332   1.068   4.758  0.1116 -0.5167 -0.5886
   99MOL0     C13278   3.566   0.882   4.551 -0.0875  0.4627 -0.0807
   99MOL0     C13279   3.700   0.880   4.506 -0.7851 -0.4511  0.7381
   99MOL0     N13280   3.823   0.668   4.195  0.9981  0.3691 -0.3711
   99MOL0     N13281   3.755   0.598   4.106  0.0037 -0.8698  0.0940
   99MOL0     C13282   3.210   0.623   3.267  0.1531 -0.4469  0.4006
   99MOL0     C13283   3.221   0.563   3.138  0.5311 -0.3721  0.3929
   99MOL0     C13284   3.075   0.341   2.742 -0.6223 -0.1336 -0.5573
   99MOL0     C13285   3.174   0.387   2.655  0.2413  0.3663 -0.0172
   99MOL0     C13286   3.178   0.355   2.519 -0.6500  0.3908  0.1499
   99MOL0     C13287   3.076   0.275   2.473 -0.4246  0.0436  1.0476
   99MOL0     O13288   3.048   0.264   2.336  0.4625  0.3291  0.0763
   99MOL0     C13289   3.139   0.296   2.227 -0.0611  0.4188 -0.4093
   99MOL0     C13290   3.087   0.233   2.091  0.1767 -0.1788  0.0903
   99MOL0     C13291   2.941   0.266   2.057  0.9797  0.7525  0.1593
   99MOL0     C13292   2.913   0.239   1.914  1.2550  0.4015  1.1734
   99MOL0     C13293   2.972   0.333   1.815 -0.6560 -0.0398  0.3322
   99MOL0     C13294   3.031   0.418   1.757  0.5016  0.1086  0.5987
   99MOL0     C13295   2.977   0.219   2.553  0.6645 -0.7091 -0.0367
   99MOL0     C13296   2.972   0.249   2.692  0.7466  0.0000  0.0872
   99MOL0     C13297   2.873   0.185   2.776  0.4442 -0.2475 -0.1194
   99MOL0     H13298   2.896   0.514   3.060  0.1201 -0.2793 -0.6362
   99MOL0     H13299   2.875   0.642   3.273  1.2928  0.2903  0.4530
   99MOL0     H13300   3.210   0.851   3.422  1.3377  0.1333  1.3654
   99MOL0     H13301   3.097   0.866   3.562 -0.3590 -4.2310  3.5932
   99MOL0     H13302   3.332   0.690   3.534  2.0529  3.5979 -0.5613
   99MOL0     H13303   3.197   0.651   3.645  4.2490 -1.0040  1.8831
   99MOL0     H13304   3.210   0.867   3.759  0.9989  0.9578  0.8638
   99MOL0     H13305   3.347   0.908   3.656  0.0377 -0.1528  0.1501
   99MOL0     H13306   3.378   0.833   3.890 -0.5843  1.5587 -1.4955
   99MOL0     H13307   3.342   0.665   3.834  2.4647 -1.2097  0.5045
   99MOL0     H13308   3.527   0.688   3.662 -1.5962 -0.3483 -0.5699
   99MOL0     H13309   3.566   0.842   3.755 -2.8757  1.3054 -3.8711
   99MOL0     H13310   3.619   0.726   3.940 -4.4308  1.0934  0.4464
   99MOL0     H13311   3.539   0.573   3.898  0.8409  0.6600  0.9752
   99MOL0     H13312   3.802   0.704   3.789  4.7541 -3.1821 -4.7380
   99MOL0     H13313   3.721   0.592   3.696 -0.7326 -1.1651  1.1381
   99MOL0     H13314   3.733   0.420   3.898 -2.0364  2.0663  0.5171
   99MOL0     H13315   3.894   0.476   3.822 -0.6807  0.4389 -0.0489
   99MOL0     H13316   4.063   0.537   4.032  0.2632  0.5328 -1.4712
   99MOL0     H13317   4.078   0.660   4.353  4.2360  0.9690  0.1762
   99MOL0     H13318   4.177   0.647   4.221  1.9284  0.9710  1.4255
   99MOL0     H13319   4.200   0.856   4.286  1.0896 -2.2078 -0.9560
   99MOL0     H13320   4.108   0.849   4.125 -3.0681  2.6322  0.4329
   99MOL0     H13321   3.912   0.928   4.242 -1.1894  2.5551  2.1623
   99MOL0     H13322   4.041   1.040   4.289 -1.7720  1.3603  3.4014
   99MOL0     H13323   4.082   0.917   4.497 -0.0542 -2.5253  1.1706
   99MOL0     H13324   3.957   0.801   4.471 -1.3109  0.6662  1.8873
   99MOL0     H13325   3.799   1.173   4.646  2.1767 -1.8014 -1.9312
   99MOL0     H13326   3.562   1.170   4.724 -1.4070 -1.2354  2.1465
   99MOL0     H13327   3.096   1.066   4.659 -0.6117  0.1179 -0.5155
   99MOL0     H13328   2.870   1.022   4.731  0.1397  1.2303 -0.9877
   99MOL0     H13329   2.603   0.683   4.785  2.5095 -1.9440 -3.1104
   99MOL0     H13330   2.757   0.601   4.801  2.7871  1.2898  1.8755
   99MOL0     H13331   2.764   0.633   5.030 -2.2277 -1.9741 -0.9005
   99MOL0     H13332   2.684   0.800   5.011 -2.6048 -0.5892  2.2547
   99MOL0     H13333   2.465   0.649   4.950 -1.8862 -4.0963  0.6319
   99MOL0     H13334   2.565   0.522   4.978 -1.9192 -0.8957 -2.1780
   99MOL0     H13335   2.519   0.742   5.184  1.3852 -0.7052  3.7760
   99MOL0     H13336   2.621   0.602   5.207 -0.2021  2.4428  2.3396
   99MOL0     H13337   2.316   0.593   5.186  1.0313  1.5639  0.1541
   99MOL0     H13338   2.416   0.571   5.327 -1.8230  2.4723 -0.6710
   99MOL0     H13339   2.400   0.403   5.080 -0.4978  0.9758 -0.3496
   99MOL0     H13340   2.493   0.356   5.221 -0.9608  0.8387  2.2263
   99MOL0     H13341   2.306   0.327   5.370  4.0206 -4.7293 -0.1931
   99MOL0     H13342   2.297   0.225   5.237 -0.3861 -1.0674  3.7840
   99MOL0     H13343   2.140   0.481   5.224 -1.4354  0.5534  0.1043
   99MOL0     H13344   2.128   0.330   5.130  0.0276 -1.7632  1.0044
   99MOL0     H13345   2.950   0.612   4.795 -1.3121  0.8538  0.8552
   99MOL0     H13346   3.186   0.633   4.727  3.3945  1.2898  0.7208
   99MOL0     H13347   3.502   0.799   4.522 -2.8915  1.7124  2.0555
   99MOL0     H13348   3.731   0.799   4.440  0.1166  1.3405 -1.1411
   99MOL0     H13349   3.300   0.633   3.327  1.7106  2.3182 -2.1209
   99MOL0     H13350   3.317   0.534   3.095 -0.2049 -1.3086 -0.6577
   99MOL0     H13351   3.261   0.437   2.695  0.5989 -2.5015  3.3166
   99MOL0     H13352   3.255   0.409   2.466  0.3871 -1.0737  0.0862
   99MOL0     H13353   3.237   0.252   2.247 -1.2179 -2.4376 -0.4485
   99MOL0     H13354   3.149   0.402   2.202  0.7149 -0.0380 -2.1582
   99MOL0     H13355   3.106   0.126   2.103  2.2998  0.3880  2.4809
   99MOL0     H13356   3.149   0.267   2.008 -2.6550  0.8567 -1.7756
   99MOL0     H13357   2.907   0.368   2.075  1.5915  1.3833 -1.9144
   99MOL0     H13358   2.871   0.212   2.122  0.2932  2.4594  0.9163
   99MOL0     H13359   2.940   0.139   1.879  0.9849  1.7604 -3.5596
   99MOL0     H13360   2.806   0.245   1.891  1.4701 -0.4748 -0.1188
   99MOL0     H13361   3.083   0.482   1.687 -0.7848 -0.1043 -0.5964
   99MOL0     H13362   2.911   0.150   2.503  0.3706 -0.2879 -0.2277
   99MOL0     H13363   2.787   0.166   2.711  0.8864 -0.6018 -0.6099
   99MOL0     H13364   2.909   0.086   2.806  2.1485  0.8964  1.8541
   99MOL0     H13365   2.835   0.237   2.865  0.1248  1.2415 -1.0819
  100MOL0     O13366   1.214   5.758   6.294 -0.4056 -0.2273 -1.2274
  100MOL0     C13367   1.260   5.661   6.227  0.5710  0.4388  0.0922
  100MOL0     O13368   1.324   5.560   6.284  0.2345 -0.1744 -0.4670
  100MOL0     C13369   1.328   5.541   6.428 -0.1005 -1.0789  0.1043
  100MOL0     C13370   1.211   5.555   6.507  0.8531 -0.5025  0.9216
  100MOL0     C13371   1.221   5.516   6.636 -0.4135  0.0927 -0.1089
  100MOL0     C13372   1.344   5.478   6.692 -0.7910  0.8517  0.4804
  100MOL0     O13373   1.369   5.469   6.828  0.0899 -0.0832  0.6480
  100MOL0     C13374   1.287   5.370   6.893 -0.4955  0.1571  0.1465
  100MOL0     C13375   1.267   5.396   7.041 -0.0329  0.2601  0.2777
  100MOL0     C13376   1.215   5.272   7.117  0.6563  0.0738  0.3257
  100MOL0     C13377   1.082   5.207   7.080  0.9419  0.1147 -0.4086
  100MOL0     C13378   0.949   5.286   7.123 -0.3086 -0.6798  0.1426
  100MOL0     C13379   0.829   5.230   7.050  0.3664 -0.5891  0.6711
  100MOL0     C13380   0.810   5.078   7.088  0.1342 -0.9902  0.0220
  100MOL0     C13381   0.669   5.017   7.041 -0.5557 -0.3091  0.0855
  100MOL0     N13382   0.670   4.958   6.908 -0.6284  0.6178  0.2173
  100MOL0     C13383   0.726   4.836   6.868 -0.2287  0.9116  1.2090
  100MOL0     C13384   0.680   4.811   6.747  0.4839 -0.1122  0.0299
  100MOL0     C13385   0.692   4.682   6.678 -0.4564  0.4061  0.0365
  100MOL0     C13386   0.817   4.673   6.578 -0.8065 -0.4930 -0.8704
  100MOL0     C13387   0.946   4.672   6.666  0.3729  0.3719  0.1106
  100MOL0     C13388   1.071   4.674   6.587  0.1878 -1.4629  0.2993
  100MOL0     O13389   1.099   4.800   6.518  0.6074  0.3961  0.3361
  100MOL0     C13390   1.180   4.794   6.408  1.0682  0.3619 -0.5130
  100MOL0     C13391   1.303   4.721   6.420 -0.4124  0.2333  0.4523
  100MOL0     C13392   1.389   4.712   6.309 -0.4199 -0.2241  0.7573
  100MOL0     C13393   1.367   4.781   6.188  0.5745  0.4450 -0.7094
  100MOL0     C13394   1.463   4.779   6.076  0.2717  0.2479  0.1611
  100MOL0     O13395   1.478   4.652   6.033 -0.7520 -0.4016 -0.5568
  100MOL0     C13396   1.593   4.639   5.958  0.7850  0.2391 -0.2212
  100MOL0     C13397   1.610   4.676   5.825  0.9394  1.1841  0.5924
  100MOL0     C13398   1.734   4.666   5.755  0.0039 -1.8528  0.0077
  100MOL0     C13399   1.845   4.623   5.823 -0.4274  0.2159 -0.7718
  100MOL0     O13400   1.958   4.616   5.759  0.5454  0.1622  0.5631
  100MOL0     C13401   2.002   4.486   5.742 -0.4859 -0.0375  1.1808
  100MOL0     C13402   2.128   4.488   5.640  0.7882 -1.0920  0.4506
  100MOL0     C13403   2.253   4.549   5.695  0.1002 -0.1261 -1.0384
  100MOL0     C13404   2.384   4.504   5.627  0.6593 -0.4847  0.0439
  100MOL0     C13405   2.507   4.581   5.671 -0.1390 -0.8631 -0.7720
  100MOL0     C13406   2.636   4.531   5.595 -0.5276  0.4480  0.2154
  100MOL0     C13407   2.690   4.397   5.648  0.1107 -0.5028  0.1973
  100MOL0     C13408   2.823   4.376   5.577 -1.0846 -0.2383 -0.1524
  100MOL0    Cl13409   2.816   4.376   5.394  0.2374  0.1171  0.8788
  100MOL0     C13410   1.834   4.575   5.956 -0.2179 -0.3239  0.3345
  100MOL0     C13411   1.707   4.590   6.022  0.0715  0.4703 -0.6718
  100MOL0     O13412   1.515   4.879   6.026  0.1520 -0.3060 -0.2103
  100MOL0     C13413   1.255   4.867   6.196 -0.4588 -0.8269  0.7895
  100MOL0     C13414   1.156   4.864   6.291 -0.1523 -0.4459 -0.5102
  100MOL0     N13415   0.607   4.919   6.696 -0.0124 -0.3381  0.6995
  100MOL0     N13416   0.597   5.003   6.799  0.9524 -0.0820 -0.1894
  100MOL0     C13417   1.451   5.456   6.611 -0.7614  0.3231  0.0175
  100MOL0     C13418   1.445   5.491   6.479 -0.4888 -0.1762 -0.7699
  100MOL0     C13419   1.231   5.656   6.072 -0.4607  0.1301 -0.4525
  100MOL0     C13420   1.107   5.682   6.015  0.0642 -0.0490  0.2509
  100MOL0     C13421   1.081   5.692   5.876 -0.6570  0.3798 -1.0691
  100MOL0     C13422   1.185   5.659   5.790 -0.2547 -0.3791 -1.0286
  100MOL0     O13423   1.143   5.668   5.654  0.1559  0.0689 -0.3990
  100MOL0     C13424   1.213   5.600   5.551 -0.2386 -0.1097 -0.5815
  100MOL0     C13425   1.250   5.676   5.426 -0.0146 -0.2649  0.3786
  100MOL0     C13426   1.336   5.797   5.473 -0.4641  0.2434 -0.2463
  100MOL0     C13427   1.474   5.772   5.535  0.4969  0.6130  0.8451
  100MOL0     C13428   1.549   5.662   5.464 -0.1741 -0.8653  0.2115
  100MOL0     C13429   1.603   5.581   5.386  0.4154 -0.2165  0.2657
  100MOL0     C13430   1.312   5.622   5.838 -0.2582  0.2077 -1.1487
  100MOL0     C13431   1.337   5.626   5.981  0.2946 -0.0737  0.3198
  100MOL0     C13432   1.480   5.590   6.013  0.3136 -0.6017  0.0948
  100MOL0     H13433   1.117   5.591   6.467 -0.3273 -4.0521  0.1065
  100MOL0     H13434   1.133   5.534   6.698  0.0336  1.7759  0.0907
  100MOL0     H13435   1.197   5.353   6.834  0.8150 -1.4287 -1.5111
  100MOL0     H13436   1.336   5.273   6.886 -2.7658 -1.7901  5.6995
  100MOL0     H13437   1.193   5.475   7.055 -1.9609 -1.5941  1.0158
  100MOL0     H13438   1.362   5.435   7.078  1.2651  0.3132 -2.7814
  100MOL0     H13439   1.215   5.312   7.218 -0.0735 -2.9182  1.6176
  100MOL0     H13440   1.289   5.192   7.124  1.6911  1.0147  0.4007
  100MOL0     H13441   1.098   5.188   6.974  2.7488  0.2890 -0.1976
  100MOL0     H13442   1.079   5.109   7.128 -0.8852  0.5256  0.3986
  100MOL0     H13443   0.939   5.275   7.232 -1.4687  0.8384  0.2186
  100MOL0     H13444   0.950   5.395   7.124 -1.4911 -0.6363  1.8208
  100MOL0     H13445   0.740   5.281   7.086 -0.0661  0.4478 -1.6834
  100MOL0     H13446   0.836   5.260   6.945  3.9166  0.7019  1.1274
  100MOL0     H13447   0.808   5.081   7.197 -1.0792  0.9149 -0.0136
  100MOL0     H13448   0.891   5.017   7.047  0.0590 -1.6302  0.8078
  100MOL0     H13449   0.633   4.946   7.115  1.2504  0.0156  1.3410
  100MOL0     H13450   0.596   5.099   7.039 -1.0906 -0.7889 -1.1625
  100MOL0     H13451   0.783   4.766   6.928 -0.9031 -0.5632  0.1874
  100MOL0     H13452   0.701   4.599   6.750  1.8903  0.3743 -0.1906
  100MOL0     H13453   0.603   4.673   6.616 -1.9316 -0.6096  2.1865
  100MOL0     H13454   0.810   4.583   6.516 -0.9920 -1.5509  0.6211
  100MOL0     H13455   0.811   4.766   6.521 -1.6320 -1.2325 -2.0138
  100MOL0     H13456   0.947   4.576   6.718 -1.1621 -1.7672 -3.4617
  100MOL0     H13457   0.936   4.758   6.733 -1.6107  0.4096 -0.1700
  100MOL0     H13458   1.060   4.609   6.500  0.1247 -3.2118  1.5628
  100MOL0     H13459   1.150   4.651   6.659 -0.4897  0.2397  1.6456
  100MOL0     H13460   1.330   4.656   6.502  0.2678  0.5456  0.4743
  100MOL0     H13461   1.480   4.657   6.328 -0.8663 -0.9418  0.8653
  100MOL0     H13462   1.523   4.714   5.772  0.7828  0.1743  0.1014
  100MOL0     H13463   1.737   4.686   5.648 -2.8531  0.1763  0.1778
  100MOL0     H13464   2.049   4.461   5.837  3.5142  1.8041 -0.0540
  100MOL0     H13465   1.926   4.413   5.714 -1.7886  1.5145  0.4906
  100MOL0     H13466   2.152   4.384   5.619 -1.1937 -1.2833 -1.1228
  100MOL0     H13467   2.107   4.546   5.550  0.9827 -1.8741 -0.1040
  100MOL0     H13468   2.238   4.656   5.680 -1.9122 -0.2795 -0.4310
  100MOL0     H13469   2.257   4.534   5.804 -0.3900 -1.1985 -1.1539
  100MOL0     H13470   2.382   4.504   5.518 -1.7328 -1.3234  0.0424
  100MOL0     H13471   2.385   4.399   5.659  3.2677 -0.2168  1.0912
  100MOL0     H13472   2.529   4.566   5.777  0.6755 -3.6500 -1.2421
  100MOL0     H13473   2.492   4.685   5.642  1.0671 -0.7551 -1.0494
  100MOL0     H13474   2.615   4.518   5.488  1.9244  0.1285 -0.2853
  100MOL0     H13475   2.714   4.607   5.594 -0.6631  0.5948 -1.0843
  100MOL0     H13476   2.624   4.310   5.649  1.6622 -1.7421  1.8092
  100MOL0     H13477   2.706   4.397   5.756 -2.2688 -2.9127  0.6655
  100MOL0     H13478   2.897   4.451   5.608 -0.6873 -0.2179 -1.1080
  100MOL0     H13479   2.849   4.278   5.620  2.4066  0.2634 -0.7807
  100MOL0     H13480   1.925   4.546   6.009  0.5565  3.1493  1.1304
  100MOL0     H13481   1.687   4.552   6.122  0.0481 -0.1563 -0.9138
  100MOL0     H13482   1.233   4.939   6.118  2.4276 -1.5580 -0.8296
  100MOL0     H13483   1.064   4.922   6.293 -0.8038 -1.4210 -1.4859
  100MOL0     H13484   1.538   5.411   6.656 -1.4962  0.0197  1.1680
  100MOL0     H13485   1.525   5.471   6.408 -2.6536  1.1906 -3.7359
  100MOL0     H13486   1.042   5.737   6.083 -0.6317 -1.0921  0.4522
  100MOL0     H13487   0.983   5.721   5.839 -1.0848 -0.4315 -0.6085
  100MOL0     H13488   1.154   5.513   5.522 -0.5292 -0.4508  0.9047
  100MOL0     H13489   1.308   5.560   5.587 -0.2803 -0.8794 -1.3130
  100MOL0     H13490   1.161   5.713   5.376  0.5382  2.5721  1.2862
  100MOL0     H13491   1.302   5.620   5.348  1.6747  1.4894  0.1541
  100MOL0     H13492   1.274   5.859   5.538 -1.7186 -1.8083  0.6264
  100MOL0     H13493   1.343   5.866   5.389 -2.3916 -0.5622 -1.1163
  100MOL0     H13494   1.530   5.865   5.519 -2.5004  2.1695 -1.7084
  100MOL0     H13495   1.472   5.729   5.635 -0.2551  0.8772  0.9444
  100MOL0     H13496   1.626   5.512   5.308 -0.3054 -2.0393  1.5798
  100MOL0     H13497   1.395   5.610   5.769  1.2036  1.8759  0.2326
  100MOL0     H13498   1.489   5.489   6.054  0.8303 -1.1875 -1.3693
  100MOL0     H13499   1.537   5.610   5.922 -1.3498  0.6391 -0.7333
  100MOL0     H13500   1.529   5.652   6.088  1.6777 -4.0368  2.3186
  101MOL0     O13501  11.199   9.584   7.758  0.0416 -0.4075 -0.4037
  101MOL0     C13502  11.213   9.639   7.652  0.1176  0.5147 -0.5925
  101MOL0     O13503  11.184   9.765   7.635 -0.0634  0.4874  0.0371
  101MOL0     C13504  11.131   9.831   7.748 -0.2714  0.1518  0.1597
  101MOL0     C13505  11.002   9.819   7.792 -0.9144 -0.1760 -1.7126
  101MOL0     C13506  10.949   9.903   7.895 -0.2337  0.1028 -0.8394
  101MOL0     C13507  11.034  10.000   7.957  0.1365  0.2807  0.2238
  101MOL0     O13508  10.978  10.069   8.061  0.1454 -0.5491  0.5117
  101MOL0     C13509  10.981  10.204   8.042 -0.6241 -1.3465 -0.7284
  101MOL0     C13510  10.889  10.267   8.156 -1.2385  1.1764  0.3169
  101MOL0     C13511  10.808  10.401   8.102 -1.1984  0.6170 -0.4430
  101MOL0     C13512  10.738  10.471   8.221  0.8901 -0.7157  0.5316
  101MOL0     C13513  10.643  10.375   8.302 -0.9553  0.4088  0.3624
  101MOL0     C13514  10.595  10.427   8.436 -0.3538 -0.6763 -0.0363
  101MOL0     C13515  10.516  10.320   8.505 -0.6792  0.2504 -0.2460
  101MOL0     C13516  10.434  10.353   8.635  0.2553  1.0095 -0.0855
  101MOL0     N13517  10.510  10.408   8.746  1.4796  0.0720 -0.0141
  101MOL0     C13518  10.581  10.522   8.760  0.1626 -0.6753 -0.2513
  101MOL0     C13519  10.625  10.522   8.889  0.5439  0.0976  0.1940
  101MOL0     C13520  10.681  10.633   8.968  0.8546  0.1254 -0.1787
  101MOL0     C13521  10.819  10.673   8.916  0.1336  0.9802  0.0918
  101MOL0     C13522  10.932  10.573   8.943 -0.9970 -0.5039  0.8501
  101MOL0     C13523  11.066  10.605   8.892  0.3073 -0.4780 -0.9667
  101MOL0     O13524  11.101  10.741   8.923  0.0918  0.8798  0.2657
  101MOL0     C13525  11.177  10.779   9.025 -0.5371  0.2112  0.0102
  101MOL0     C13526  11.211  10.916   9.036  0.1689 -0.4940 -0.7176
  101MOL0     C13527  11.298  10.968   9.125 -0.3706  0.2421  0.5238
  101MOL0     C13528  11.352  10.878   9.221 -0.0696  0.1893  0.0607
  101MOL0     C13529  11.446  10.920   9.327  0.0333 -0.4372 -0.0011
  101MOL0     O13530  11.473  10.834   9.437  0.1471 -0.2323 -0.4469
  101MOL0     C13531  11.602  10.854   9.478  0.7254  0.0792 -0.6771
  101MOL0     C13532  11.624  10.915   9.608  0.5667 -0.0974  0.7168
  101MOL0     C13533  11.756  10.932   9.662  0.0717  0.1534 -0.2711
  101MOL0     C13534  11.867  10.885   9.590  0.4924  0.7298  0.8498
  101MOL0     O13535  11.995  10.904   9.631  0.7241 -0.2031  0.8163
  101MOL0     C13536  12.108  10.921   9.536  1.0354 -0.8433 -0.8196
  101MOL0     C13537  12.225  10.993   9.623 -0.5897 -0.8666  0.0034
  101MOL0     C13538  12.286  10.902   9.728  0.0706 -0.0398 -0.3197
  101MOL0     C13539  12.406  10.966   9.790 -0.0070  0.6886 -0.8584
  101MOL0     C13540  12.488  10.878   9.895  0.5361 -1.1383  0.0224
  101MOL0     C13541  12.559  10.751   9.835  0.2353 -1.0131 -0.4784
  101MOL0     C13542  12.657  10.784   9.730 -0.1420 -0.3525 -0.0131
  101MOL0     C13543  12.757  10.676   9.689  1.2778 -0.2559 -0.5519
  101MOL0    Cl13544  12.872  10.751   9.567 -0.3719 -0.3306  0.0652
  101MOL0     C13545  11.838  10.815   9.467  0.1926 -0.2427 -0.1894
  101MOL0     C13546  11.713  10.806   9.409  0.0014  0.2267  1.0464
  101MOL0     O13547  11.496  11.033   9.310  0.4351 -0.6015 -1.3840
  101MOL0     C13548  11.328  10.736   9.211 -0.1386  0.2423  0.5914
  101MOL0     C13549  11.242  10.691   9.111 -0.5910 -0.5406 -0.3058
  101MOL0     N13550  10.582  10.397   8.941 -1.0052  0.1313 -0.0274
  101MOL0     N13551  10.517  10.333   8.860  1.1272 -0.3822 -0.1879
  101MOL0     C13552  11.158  10.026   7.903  0.1669  0.2708  0.0393
  101MOL0     C13553  11.205   9.941   7.800 -0.0818  0.8886  0.5177
  101MOL0     C13554  11.279   9.564   7.539  0.4831 -2.0784  0.2358
  101MOL0     C13555  11.312   9.628   7.418 -0.2534 -0.5477  0.1369
  101MOL0     C13556  11.343   9.570   7.298  0.9185  0.3796  0.1575
  101MOL0     C13557  11.364   9.435   7.293  0.7488  0.7278  0.1563
  101MOL0     O13558  11.382   9.393   7.168 -0.3170  0.1084  0.5494
  101MOL0     C13559  11.396   9.252   7.139  0.5541  0.5724 -0.2106
  101MOL0     C13560  11.544   9.203   7.168  0.5513 -0.4840 -0.1358
  101MOL0     C13561  11.542   9.054   7.201 -0.2331 -0.8434 -1.4030
  101MOL0     C13562  11.679   8.984   7.194  0.0099  0.6530  0.9837
  101MOL0     C13563  11.706   8.888   7.309  0.4369  1.0564 -0.0312
  101MOL0     C13564  11.724   8.797   7.388  0.5686 -0.8708 -0.1772
  101MOL0     C13565  11.330   9.361   7.409  0.1686 -0.1042 -0.4199
  101MOL0     C13566  11.290   9.424   7.534  1.0979  0.3335 -0.2247
  101MOL0     C13567  11.238   9.318   7.639 -0.2474 -0.8006 -0.1402
  101MOL0     H13568  10.942   9.759   7.724 -0.6934  0.9899 -2.9944
  101MOL0     H13569  10.847   9.889   7.928  0.5899  0.8852  2.4582
  101MOL0     H13570  11.081  10.249   8.043  0.1472 -2.8970 -1.8332
  101MOL0     H13571  10.933  10.231   7.947  2.2822  0.6278 -1.7767
  101MOL0     H13572  10.945  10.298   8.244 -3.6379  1.7221  1.7295
  101MOL0     H13573  10.810  10.197   8.184 -2.0495  0.8870 -2.3373
  101MOL0     H13574  10.743  10.368   8.021 -0.2988  1.2576 -1.4506
  101MOL0     H13575  10.878  10.480   8.070 -1.6049  2.6597  3.0875
  101MOL0     H13576  10.814  10.508   8.290  1.2460  2.0628 -1.1622
  101MOL0     H13577  10.685  10.558   8.181 -0.5728 -2.1777 -0.8577
  101MOL0     H13578  10.560  10.362   8.231  0.2083 -1.5343 -0.7635
  101MOL0     H13579  10.689  10.277   8.318  1.2720  1.1933 -0.7182
  101MOL0     H13580  10.678  10.477   8.486 -1.2666  1.6102 -0.6765
  101MOL0     H13581  10.518  10.502   8.415  2.3014  1.7514 -1.9427
  101MOL0     H13582  10.596  10.248   8.527  0.3049  1.3107 -0.2665
  101MOL0     H13583  10.440  10.275   8.441 -0.4006  0.4520 -0.7221
  101MOL0     H13584  10.356  10.421   8.598 -2.9902 -0.9135  2.6263
  101MOL0     H13585  10.380  10.271   8.683 -0.2489  3.6897  4.4232
  101MOL0     H13586  10.593  10.599   8.685 -0.8861 -0.6091 -0.3680
  101MOL0     H13587  10.621  10.723   8.957 -0.9809 -1.0593 -0.2529
  101MOL0     H13588  10.664  10.618   9.075  2.3439 -2.4740 -0.2038
  101MOL0     H13589  10.823  10.692   8.808  0.1684 -0.6403 -0.2176
  101MOL0     H13590  10.852  10.758   8.977  0.3451  1.8783 -1.2258
  101MOL0     H13591  10.910  10.473   8.906 -1.8818 -0.2419  0.6389
  101MOL0     H13592  10.931  10.566   9.052  1.3243  1.7199  1.1146
  101MOL0     H13593  11.065  10.607   8.782 -2.0299 -1.1758 -1.0268
  101MOL0     H13594  11.138  10.530   8.927 -1.1167 -1.0867  0.8204
  101MOL0     H13595  11.160  10.983   8.967 -1.0777 -2.7251 -2.0882
  101MOL0     H13596  11.316  11.075   9.128  1.6792 -0.0734  2.0807
  101MOL0     H13597  11.539  10.933   9.673  0.0455 -0.9194  0.2768
  101MOL0     H13598  11.785  10.962   9.763 -2.0642 -2.1989  1.1442
  101MOL0     H13599  12.149  10.825   9.503  1.3934 -0.9515 -0.0744
  101MOL0     H13600  12.080  10.985   9.451  0.7638  0.3542  0.1447
  101MOL0     H13601  12.299  11.027   9.549 -1.7406  0.3502 -0.6509
  101MOL0     H13602  12.183  11.083   9.669  1.0999 -0.1294  0.1662
  101MOL0     H13603  12.215  10.887   9.811 -0.9035 -3.4984 -1.5978
  101MOL0     H13604  12.322  10.804   9.695 -0.7553 -1.7352  3.2142
  101MOL0     H13605  12.365  11.056   9.837 -1.9128  0.7806 -2.5410
  101MOL0     H13606  12.478  10.995   9.712  0.8531 -3.1873 -1.7106
  101MOL0     H13607  12.414  10.857   9.973  0.8941 -2.3790  0.0423
  101MOL0     H13608  12.557  10.948   9.942 -0.3451  1.4998 -2.3501
  101MOL0     H13609  12.608  10.698   9.917  0.6592  1.7728  1.1990
  101MOL0     H13610  12.478  10.687   9.800 -1.4097  0.4059  0.5816
  101MOL0     H13611  12.714  10.871   9.762 -2.3661  1.5214 -0.9039
  101MOL0     H13612  12.608  10.834   9.646  0.9520 -0.1888 -0.5730
  101MOL0     H13613  12.801  10.632   9.779 -1.7815  0.5862  1.5269
  101MOL0     H13614  12.690  10.596   9.658  0.8990 -1.0854  2.1481
  101MOL0     H13615  11.928  10.768   9.428  1.7786  0.1223  2.6832
  101MOL0     H13616  11.687  10.744   9.323 -1.1127 -1.9911  2.8783
  101MOL0     H13617  11.373  10.665   9.279 -1.3429 -0.0380  1.1190
  101MOL0     H13618  11.232  10.583   9.114 -1.6154 -0.4664 -0.6525
  101MOL0     H13619  11.216  10.109   7.941 -1.5083  0.5618  2.1457
  101MOL0     H13620  11.300   9.961   7.751 -0.8605  0.0253 -1.4687
  101MOL0     H13621  11.289   9.734   7.407 -7.2139 -1.6168 -0.6874
  101MOL0     H13622  11.357   9.641   7.217  1.8928  0.7535  0.6336
  101MOL0     H13623  11.389   9.235   7.032  1.4762 -1.9736  0.0572
  101MOL0     H13624  11.317   9.193   7.187  0.6547  0.1516 -0.5627
  101MOL0     H13625  11.593   9.256   7.250  1.5097  0.2212 -1.1498
  101MOL0     H13626  11.604   9.221   7.079  2.7268 -0.3303  1.2890
  101MOL0     H13627  11.462   9.007   7.142 -0.3150 -1.1110 -1.0831
  101MOL0     H13628  11.502   9.052   7.303  0.4948 -4.7880 -1.0402
  101MOL0     H13629  11.698   8.925   7.103  1.4817  0.8693  1.1253
  101MOL0     H13630  11.752   9.065   7.193 -0.7465  1.3413 -0.1974
  101MOL0     H13631  11.735   8.720   7.461 -0.7931 -0.2594  0.7163
  101MOL0     H13632  11.351   9.255   7.405  3.9761  0.5605 -2.9861
  101MOL0     H13633  11.297   9.318   7.731  1.1205 -2.5771 -0.9470
  101MOL0     H13634  11.133   9.344   7.659  0.0835 -0.2902  0.9891
  101MOL0     H13635  11.242   9.215   7.601 -1.0489 -1.2922  1.0360
  102MOL0     O13636   1.007   0.554   4.025  0.4960 -0.9927 -0.2908
  102MOL0     C13637   1.058   0.501   4.124  1.0273 -0.0423 -0.2320
  102MOL0     O13638   1.045   0.549   4.252  1.2662 -0.2848  0.0885
  102MOL0     C13639   1.025   0.680   4.263  0.0545 -0.3125  0.8463
  102MOL0     C13640   0.916   0.726   4.340  0.1076 -0.0112  0.3980
  102MOL0     C13641   0.889   0.854   4.355  0.3013  0.2421 -0.0027
  102MOL0     C13642   0.974   0.953   4.306  0.0786 -0.3150 -0.6785
  102MOL0     O13643   0.936   1.081   4.329  0.5376  0.6709 -0.1704
  102MOL0     C13644   1.024   1.192   4.355 -0.4653 -0.6481  0.5917
  102MOL0     C13645   1.008   1.260   4.492  0.1992  0.5050  0.3247
  102MOL0     C13646   0.881   1.357   4.483 -0.2909 -0.2161  0.0895
  102MOL0     C13647   0.837   1.407   4.621  1.2668 -0.6659 -0.9825
  102MOL0     C13648   0.720   1.501   4.596  0.8681  0.2521  0.3009
  102MOL0     C13649   0.777   1.637   4.570 -0.9424 -0.5736 -0.6625
  102MOL0     C13650   0.658   1.734   4.543 -0.8241 -0.5693  0.3986
  102MOL0     C13651   0.709   1.863   4.473 -0.5949 -0.4374 -0.1293
  102MOL0     N13652   0.760   1.968   4.568 -0.1463  0.1143  0.2785
  102MOL0     C13653   0.752   2.108   4.553  0.0850  1.0318 -0.6205
  102MOL0     C13654   0.841   2.156   4.642  0.4140 -0.5486  0.4995
  102MOL0     C13655   0.849   2.298   4.683  0.2659 -0.6968 -0.7790
  102MOL0     C13656   0.874   2.310   4.834 -0.5425 -0.7208 -0.4940
  102MOL0     C13657   0.747   2.299   4.918 -0.8619 -0.1121  0.6866
  102MOL0     C13658   0.694   2.156   4.937  0.3714  0.0524 -0.1234
  102MOL0     O13659   0.592   2.165   5.042  0.0651  0.2551 -0.2874
  102MOL0     C13660   0.587   2.092   5.148 -0.6173  0.1060  1.1773
  102MOL0     C13661   0.696   2.092   5.238 -0.9803  0.3769 -0.5249
  102MOL0     C13662   0.695   2.019   5.357 -0.7805 -0.6064 -0.4199
  102MOL0     C13663   0.579   1.937   5.385 -0.3546 -0.6534  0.8935
  102MOL0     C13664   0.566   1.856   5.507  0.0221 -0.1578  0.4116
  102MOL0     O13665   0.673   1.865   5.598 -0.1799 -0.4885  0.2470
  102MOL0     C13666   0.663   1.779   5.703 -1.0588 -0.3706 -0.0484
  102MOL0     C13667   0.606   1.654   5.707 -0.6749  0.6871 -0.0265
  102MOL0     C13668   0.612   1.571   5.822 -0.8753 -0.4568 -0.9893
  102MOL0     C13669   0.684   1.612   5.936  0.3866 -0.1831  0.1909
  102MOL0     O13670   0.707   1.540   6.053  0.0603  0.1395 -0.0359
  102MOL0     C13671   0.694   1.394   6.032  0.2228  1.2068 -0.5295
  102MOL0     C13672   0.761   1.303   6.133 -0.2734 -0.3598 -0.2309
  102MOL0     C13673   0.735   1.365   6.278 -0.1323 -0.1274 -0.7828
  102MOL0     C13674   0.839   1.296   6.372  0.0732 -0.1595 -0.3193
  102MOL0     C13675   0.782   1.303   6.511  0.3324 -0.3026  0.1790
  102MOL0     C13676   0.873   1.215   6.601  0.4305  0.0307  0.1871
  102MOL0     C13677   0.819   1.219   6.743  0.7756 -0.5496 -0.8969
  102MOL0     C13678   0.893   1.118   6.835  0.3109  0.5413  0.4425
  102MOL0    Cl13679   0.923   0.958   6.761 -0.0264 -0.4953 -0.1347
  102MOL0     C13680   0.737   1.739   5.939 -0.2069  0.5730 -0.4125
  102MOL0     C13681   0.737   1.813   5.822  0.3371  0.3945  0.4000
  102MOL0     O13682   0.456   1.808   5.526  0.0606  0.6915  0.0375
  102MOL0     C13683   0.484   1.933   5.284 -0.0680  0.2717 -0.8958
  102MOL0     C13684   0.481   2.009   5.171  0.2028 -0.3807  0.2784
  102MOL0     N13685   0.914   2.049   4.690 -0.0412  1.0992  0.7108
  102MOL0     N13686   0.859   1.937   4.662 -0.5811 -0.1211 -0.0842
  102MOL0     C13687   1.094   0.914   4.240  0.5446 -0.1294 -0.0550
  102MOL0     C13688   1.115   0.780   4.205  0.1539 -0.4366  0.1236
  102MOL0     C13689   1.132   0.367   4.111  0.1024  0.0276 -0.1600
  102MOL0     C13690   1.217   0.326   4.218 -0.0377  1.0680  0.5326
  102MOL0     C13691   1.288   0.208   4.209 -0.3860 -1.4547  0.8885
  102MOL0     C13692   1.271   0.119   4.100 -0.1904  0.4306  0.0528
  102MOL0     O13693   1.353   0.012   4.098 -0.0399  0.3530  0.0596
  102MOL0     C13694   1.363  -0.076   3.982  0.8114 -0.6240  0.0565
  102MOL0     C13695   1.479  -0.036   3.893 -0.2936 -0.0043  1.7393
  102MOL0     C13696   1.613  -0.089   3.949  0.4259  0.1125  0.0839
  102MOL0     C13697   1.708  -0.141   3.836 -0.4446 -0.7041 -0.1954
  102MOL0     C13698   1.748  -0.033   3.750  0.6774  0.6827 -0.1068
  102MOL0     C13699   1.789   0.061   3.681 -0.5119  0.0559  0.1515
  102MOL0     C13700   1.177   0.162   4.000  0.2652  0.7015  0.0380
  102MOL0     C13701   1.117   0.283   4.001 -0.0036  0.2884  0.3614
  102MOL0     C13702   1.006   0.319   3.897  1.2160  0.0598 -0.2360
  102MOL0     H13703   0.857   0.654   4.395  1.4214  0.0080  1.9298
  102MOL0     H13704   0.823   0.876   4.439 -0.5642 -1.4635 -0.2035
  102MOL0     H13705   1.130   1.168   4.341 -0.1319  2.3095 -3.7774
  102MOL0     H13706   1.011   1.262   4.272  1.6399 -0.1118  0.6471
  102MOL0     H13707   1.092   1.326   4.516 -1.3666  2.6754  0.1742
  102MOL0     H13708   0.983   1.188   4.570  1.3377 -1.5198 -1.1198
  102MOL0     H13709   0.793   1.302   4.450 -0.9083  1.5964 -1.5204
  102MOL0     H13710   0.909   1.439   4.416  1.2345  1.6336  2.7656
  102MOL0     H13711   0.804   1.313   4.666 -1.6292  1.3231  1.4294
  102MOL0     H13712   0.915   1.450   4.685  1.0393 -0.0338 -1.1235
  102MOL0     H13713   0.663   1.469   4.508 -1.4419  2.0664  1.0361
  102MOL0     H13714   0.652   1.516   4.680  1.7137  1.2932  0.8126
  102MOL0     H13715   0.827   1.666   4.663  0.5363 -4.2616 -0.1514
  102MOL0     H13716   0.842   1.642   4.482  0.1428  3.4037  0.1812
  102MOL0     H13717   0.604   1.756   4.636 -2.1532  0.3857 -0.5531
  102MOL0     H13718   0.589   1.680   4.477  0.6969  0.3847 -2.0863
  102MOL0     H13719   0.776   1.841   4.390 -2.3675  0.9898 -2.0347
  102MOL0     H13720   0.626   1.909   4.418  0.7392  2.4297  0.0861
  102MOL0     H13721   0.674   2.164   4.503 -0.7309  2.4452  2.0634
  102MOL0     H13722   0.934   2.342   4.628  2.0434 -0.3896  2.0257
  102MOL0     H13723   0.759   2.347   4.646  0.3964 -2.0243 -3.0405
  102MOL0     H13724   0.947   2.239   4.873 -1.0974 -0.7880  0.4460
  102MOL0     H13725   0.916   2.410   4.851 -0.1073 -0.8473 -0.8004
  102MOL0     H13726   0.666   2.364   4.886  0.1293  0.3667 -0.9821
  102MOL0     H13727   0.777   2.334   5.017 -0.0195  0.3354  0.2820
  102MOL0     H13728   0.768   2.082   4.967  0.4880  0.8811  1.8076
  102MOL0     H13729   0.651   2.117   4.845 -1.0876  0.4944  0.3343
  102MOL0     H13730   0.785   2.153   5.220 -0.1692 -0.4872  0.4194
  102MOL0     H13731   0.769   2.044   5.432 -0.9332 -1.7413  0.1228
  102MOL0     H13732   0.561   1.609   5.619  0.9537 -0.5464 -0.2904
  102MOL0     H13733   0.577   1.468   5.816 -1.0461 -0.3642 -1.6297
  102MOL0     H13734   0.590   1.361   6.027  1.2360 -2.6418  0.2909
  102MOL0     H13735   0.732   1.370   5.933 -2.6468  1.2085 -1.6998
  102MOL0     H13736   0.746   1.196   6.121  3.6317 -1.0981  0.2142
  102MOL0     H13737   0.869   1.312   6.116  0.2366  0.8696  2.9086
  102MOL0     H13738   0.736   1.474   6.270  1.5674 -0.1987 -2.5148
  102MOL0     H13739   0.632   1.342   6.305 -0.4973  2.1788  0.0294
  102MOL0     H13740   0.943   1.331   6.366  0.7854 -1.6936  1.9351
  102MOL0     H13741   0.845   1.189   6.348  1.3565  0.5201 -3.4504
  102MOL0     H13742   0.678   1.274   6.525  0.2465  0.3416  0.9065
  102MOL0     H13743   0.798   1.403   6.552 -2.9088  0.1815  0.4570
  102MOL0     H13744   0.870   1.115   6.558 -2.3867  0.8719 -1.9094
  102MOL0     H13745   0.978   1.247   6.600  1.1097 -1.9610  1.6257
  102MOL0     H13746   0.715   1.186   6.747 -0.6423  3.2785 -2.1457
  102MOL0     H13747   0.825   1.314   6.796 -0.4188 -0.9681  0.0309
  102MOL0     H13748   0.996   1.152   6.852  0.9188 -0.6365 -0.6856
  102MOL0     H13749   0.832   1.104   6.925  2.2319 -0.7632  1.5997
  102MOL0     H13750   0.807   1.758   6.019 -1.1680 -3.5954  1.7239
  102MOL0     H13751   0.805   1.895   5.805  2.2292 -1.5355 -2.2460
  102MOL0     H13752   0.399   1.869   5.308 -1.5611  2.8870  1.4271
  102MOL0     H13753   0.391   1.988   5.114  1.3781 -0.7547 -1.5054
  102MOL0     H13754   1.174   0.972   4.195 -0.4849  1.0520 -0.3999
  102MOL0     H13755   1.189   0.747   4.132 -1.2718 -0.8900 -1.1647
  102MOL0     H13756   1.230   0.380   4.312  0.2901 -1.5360  2.0910
  102MOL0     H13757   1.346   0.179   4.295 -1.5218 -2.1016  1.4700
  102MOL0     H13758   1.263  -0.082   3.938  0.5517 -0.7797  0.6619
  102MOL0     H13759   1.362  -0.176   4.026 -3.4932 -0.4266  0.7957
  102MOL0     H13760   1.489   0.071   3.876  2.1487 -0.5302 -0.8212
  102MOL0     H13761   1.466  -0.085   3.796  2.0748  0.2397  1.2454
  102MOL0     H13762   1.587  -0.162   4.026 -3.1688  1.7566  0.6039
  102MOL0     H13763   1.660  -0.009   4.006  0.2953  0.0160  0.3277
  102MOL0     H13764   1.799  -0.187   3.875  0.4999  3.1721  2.7721
  102MOL0     H13765   1.659  -0.218   3.776 -4.2343  2.4466 -1.6405
  102MOL0     H13766   1.828   0.149   3.634 -0.3242 -0.8065 -1.3896
  102MOL0     H13767   1.142   0.098   3.919 -2.1852 -1.0084  2.2715
  102MOL0     H13768   0.971   0.245   3.824  0.5377  1.5701 -1.5060
  102MOL0     H13769   0.912   0.349   3.945  1.6291 -3.1579  3.0115
  102MOL0     H13770   1.037   0.405   3.837  1.9332  0.1287  0.2209
  103MOL0     O13771   8.034   2.341   9.313 -0.6268 -0.6207  0.4637
  103MOL0     C13772   8.119   2.331   9.226  0.4750 -0.9777 -0.6381
  103MOL0     O13773   8.111   2.257   9.114  0.1789  0.1589  0.3511
  103MOL0     C13774   7.983   2.248   9.061  0.6955 -0.4698 -0.8295
  103MOL0     C13775   7.867   2.178   9.118  0.3821 -0.3172 -1.2784
  103MOL0     C13776   7.744   2.168   9.056 -0.2106 -0.3868  0.8632
  103MOL0     C13777   7.738   2.213   8.919  0.0143 -1.0557  0.4596
  103MOL0     O13778   7.632   2.191   8.836 -0.2968  0.2805 -0.0956
  103MOL0     C13779   7.522   2.129   8.892 -0.3977  0.0988  0.0391
  103MOL0     C13780   7.425   2.095   8.779  0.3745  0.1004 -0.1811
  103MOL0     C13781   7.465   1.992   8.676 -0.5546  1.1955 -0.0600
  103MOL0     C13782   7.528   1.861   8.745  0.6726 -1.0058  0.2430
  103MOL0     C13783   7.550   1.753   8.639 -0.5882  0.5585  0.3262
  103MOL0     C13784   7.584   1.623   8.704  0.1343 -0.0019  0.4911
  103MOL0     C13785   7.598   1.508   8.612  0.6256  0.5315  0.2880
  103MOL0     C13786   7.683   1.544   8.486 -0.3272 -1.6912 -0.8134
  103MOL0     N13787   7.722   1.442   8.386  0.9136 -0.1830 -0.0498
  103MOL0     C13788   7.631   1.346   8.333 -0.4752  0.6532  0.7247
  103MOL0     C13789   7.709   1.253   8.275  0.7601 -0.2679 -0.0513
  103MOL0     C13790   7.665   1.119   8.203  0.4781  0.0238 -0.4462
  103MOL0     C13791   7.637   1.146   8.057  0.1109 -0.8399 -1.0630
  103MOL0     C13792   7.765   1.142   7.969 -0.3093 -0.5319 -0.5278
  103MOL0     C13793   7.841   1.281   7.973  0.4318  0.6504 -0.0538
  103MOL0     O13794   7.955   1.250   7.893  0.1413  0.3298 -1.0181
  103MOL0     C13795   8.048   1.342   7.866 -0.6680 -0.9664 -0.7219
  103MOL0     C13796   8.141   1.322   7.768 -0.1316 -0.3392  0.6286
  103MOL0     C13797   8.242   1.411   7.735 -1.3402 -0.9409 -0.7683
  103MOL0     C13798   8.252   1.536   7.807 -0.0956  0.2021  0.1594
  103MOL0     C13799   8.380   1.612   7.787  0.2031 -0.7167 -0.1867
  103MOL0     O13800   8.377   1.737   7.837  0.9500 -0.3350  0.9531
  103MOL0     C13801   8.473   1.828   7.839 -0.7310  0.2482  1.3848
  103MOL0     C13802   8.582   1.829   7.745  0.9326  0.2318 -0.3459
  103MOL0     C13803   8.687   1.919   7.774  0.4983  0.3949  0.2706
  103MOL0     C13804   8.694   2.012   7.875  0.6343 -0.2532  0.0393
  103MOL0     O13805   8.810   2.089   7.891 -0.0795 -0.4485 -0.6632
  103MOL0     C13806   8.836   2.161   8.009  0.3578  0.7910 -0.4933
  103MOL0     C13807   8.816   2.313   7.994 -0.5722  0.0358 -0.5279
  103MOL0     C13808   8.906   2.380   7.895 -0.0528 -0.0491  0.6436
  103MOL0     C13809   8.893   2.528   7.900  0.8398  0.5839  0.1572
  103MOL0     C13810   8.950   2.586   7.769 -0.1232  0.6187  0.4641
  103MOL0     C13811   8.915   2.734   7.742 -0.8946  0.2747  0.5925
  103MOL0     C13812   8.954   2.758   7.595 -0.0614 -0.4836  0.3860
  103MOL0     C13813   8.973   2.902   7.555 -0.9279  0.2069 -0.9689
  103MOL0    Cl13814   8.828   2.989   7.591 -0.3569  0.0810  0.0038
  103MOL0     C13815   8.583   2.013   7.958  0.3307 -0.0340 -0.5567
  103MOL0     C13816   8.476   1.917   7.940  0.7096 -0.0216  0.4802
  103MOL0     O13817   8.472   1.558   7.732  0.0800 -0.3296 -0.0344
  103MOL0     C13818   8.157   1.568   7.904 -0.2843 -0.0119  0.1712
  103MOL0     C13819   8.056   1.477   7.935 -0.1890  0.2504 -0.6567
  103MOL0     N13820   7.836   1.277   8.317  0.1168 -0.3755  0.0404
  103MOL0     N13821   7.849   1.396   8.370  0.1062  0.0017 -0.2456
  103MOL0     C13822   7.849   2.274   8.860  0.2616 -0.1300 -0.4763
  103MOL0     C13823   7.965   2.301   8.934  0.1585  0.9252 -0.1709
  103MOL0     C13824   8.252   2.380   9.258  0.2983 -0.7380 -0.4486
  103MOL0     C13825   8.318   2.327   9.373  0.8042  0.5247  1.1441
  103MOL0     C13826   8.452   2.362   9.403 -0.7294 -1.2330 -0.1967
  103MOL0     C13827   8.522   2.459   9.324  1.0701  0.7147  0.5815
  103MOL0     O13828   8.653   2.493   9.330  0.2626 -0.0695  0.4925
  103MOL0     C13829   8.726   2.462   9.444 -0.3907  0.3392 -0.5820
  103MOL0     C13830   8.700   2.559   9.552  0.1114  0.3064  0.0648
  103MOL0     C13831   8.724   2.700   9.517  1.1216 -0.3032  0.1352
  103MOL0     C13832   8.740   2.775   9.644 -0.2075 -0.5916  0.7549
  103MOL0     C13833   8.734   2.915   9.597  0.3335  0.1263  1.3058
  103MOL0     C13834   8.747   3.037   9.587  0.7469  0.0186 -0.4634
  103MOL0     C13835   8.457   2.499   9.213 -1.8622 -0.5141 -0.8327
  103MOL0     C13836   8.329   2.463   9.175  1.2087 -0.3875  0.3983
  103MOL0     C13837   8.280   2.500   9.033 -0.0736  0.2559  0.4452
  103MOL0     H13838   7.893   2.134   9.214  2.4306  0.7553 -1.2831
  103MOL0     H13839   7.663   2.118   9.107 -2.1104 -0.2233 -1.7512
  103MOL0     H13840   7.542   2.038   8.947 -1.9550 -1.0068 -1.1338
  103MOL0     H13841   7.475   2.196   8.965 -3.9087 -3.5620  1.4858
  103MOL0     H13842   7.398   2.184   8.722  1.6347 -0.2817 -1.4176
  103MOL0     H13843   7.342   2.036   8.819  1.4949 -0.4304  1.4800
  103MOL0     H13844   7.540   2.042   8.614 -0.0394  1.2079  0.5646
  103MOL0     H13845   7.382   1.961   8.613  0.4736  0.6171 -1.1832
  103MOL0     H13846   7.617   1.885   8.804 -0.2905  4.0074  0.0304
  103MOL0     H13847   7.452   1.840   8.820  0.9722  1.1311  1.2070
  103MOL0     H13848   7.465   1.742   8.571  0.1154 -2.1740 -0.1941
  103MOL0     H13849   7.631   1.788   8.575 -2.6417  3.4144 -0.9603
  103MOL0     H13850   7.679   1.635   8.757 -1.0377  0.9191  2.4768
  103MOL0     H13851   7.510   1.614   8.784  0.7171 -0.5497  0.9838
  103MOL0     H13852   7.501   1.475   8.573  0.3185  0.1461  1.3408
  103MOL0     H13853   7.641   1.424   8.667  0.3920  1.0633  1.3043
  103MOL0     H13854   7.630   1.623   8.433 -2.1950 -1.0263  1.8082
  103MOL0     H13855   7.774   1.592   8.522  0.7016 -2.5000 -2.2742
  103MOL0     H13856   7.523   1.358   8.328 -0.8771 -2.4366 -0.3444
  103MOL0     H13857   7.738   1.038   8.206  1.0754  0.4869 -1.7505
  103MOL0     H13858   7.569   1.081   8.241 -1.2581  1.9599 -2.5848
  103MOL0     H13859   7.568   1.069   8.021 -1.0443  0.0049 -0.6774
  103MOL0     H13860   7.575   1.236   8.055  0.3738 -0.6615 -1.2645
  103MOL0     H13861   7.731   1.110   7.870 -1.6753 -2.1995  0.4177
  103MOL0     H13862   7.835   1.061   7.990 -2.6533 -2.4078  0.5421
  103MOL0     H13863   7.875   1.288   8.077  0.5466  0.9868 -0.1120
  103MOL0     H13864   7.769   1.357   7.941 -0.4836 -0.3537 -0.4170
  103MOL0     H13865   8.145   1.225   7.719 -0.1878 -0.1256  0.1991
  103MOL0     H13866   8.323   1.389   7.666  2.7348 -1.0444  3.5270
  103MOL0     H13867   8.586   1.762   7.660  2.0559 -1.5817  1.0381
  103MOL0     H13868   8.776   1.911   7.712  1.4453  1.2391  1.4613
  103MOL0     H13869   8.767   2.125   8.086  0.7136 -2.8673 -1.6605
  103MOL0     H13870   8.936   2.136   8.044 -0.6060 -0.4668  1.5853
  103MOL0     H13871   8.710   2.320   7.968 -0.1280  0.2652 -2.4176
  103MOL0     H13872   8.817   2.362   8.092 -4.6602 -1.0759  0.2798
  103MOL0     H13873   9.004   2.350   7.933  0.1066  0.4974  0.6741
  103MOL0     H13874   8.879   2.341   7.797 -0.6653 -1.7453  1.4474
  103MOL0     H13875   8.945   2.568   7.987  1.4638 -1.1613  0.6229
  103MOL0     H13876   8.786   2.547   7.917  0.5440 -2.1624  1.8417
  103MOL0     H13877   8.923   2.516   7.688 -4.4653  0.5748  1.7046
  103MOL0     H13878   9.059   2.584   7.778 -0.0601 -1.2196 -0.1501
  103MOL0     H13879   8.810   2.762   7.753 -2.0598 -2.5914 -1.7874
  103MOL0     H13880   8.970   2.797   7.812 -2.0374  0.7696  1.0647
  103MOL0     H13881   8.880   2.706   7.534 -0.3483  1.6161 -1.1688
  103MOL0     H13882   9.041   2.701   7.560 -1.3537 -1.7655 -0.9037
  103MOL0     H13883   9.059   2.931   7.615  0.5579 -1.4544 -2.1803
  103MOL0     H13884   9.006   2.910   7.451  0.4446  0.4053 -0.5310
  103MOL0     H13885   8.567   2.079   8.043  0.8808 -0.4800 -0.0915
  103MOL0     H13886   8.399   1.917   8.015  1.3349  2.5039  1.2273
  103MOL0     H13887   8.160   1.662   7.958 -1.3005  0.7306 -1.0216
  103MOL0     H13888   7.975   1.510   7.999 -0.0254  1.0223 -0.8441
  103MOL0     H13889   7.843   2.312   8.759  0.2920  2.9080  0.5685
  103MOL0     H13890   8.052   2.348   8.891  0.8359 -2.1409 -2.3881
  103MOL0     H13891   8.276   2.248   9.435  0.7036  0.9178  1.5880
  103MOL0     H13892   8.495   2.314   9.490 -1.2415  2.4343  2.3036
  103MOL0     H13893   8.832   2.457   9.418  0.2629 -1.5931  2.0487
  103MOL0     H13894   8.703   2.361   9.479 -1.3369 -0.4166 -3.1260
  103MOL0     H13895   8.765   2.535   9.637 -3.9035  0.6011  3.5514
  103MOL0     H13896   8.597   2.546   9.586  0.6406  0.5799  1.8590
  103MOL0     H13897   8.646   2.738   9.451  2.4464 -0.5858 -1.6762
  103MOL0     H13898   8.821   2.704   9.466  1.0650 -3.8738 -0.5092
  103MOL0     H13899   8.660   2.753   9.715  0.8305 -4.5673  0.9485
  103MOL0     H13900   8.837   2.756   9.691  1.6012  2.4695 -1.3197
  103MOL0     H13901   8.779   3.138   9.604  1.9113 -0.3318 -0.4790
  103MOL0     H13902   8.515   2.570   9.154 -0.6651 -1.1387 -0.4413
  103MOL0     H13903   8.333   2.581   8.982  0.0223  0.8438  1.4454
  103MOL0     H13904   8.306   2.417   8.968 -1.9242  1.3227 -1.8071
  103MOL0     H13905   8.171   2.506   9.031 -0.2054 -0.4690 -4.3356
  104MOL0     O13906   4.667   6.025   6.521 -0.7913  0.4712  0.7034
  104MOL0     C13907   4.610   6.049   6.625  0.1769 -0.4252 -0.3758
  104MOL0     O13908   4.537   5.966   6.701  0.0335 -0.3021  0.1690
  104MOL0     C13909   4.571   5.831   6.685 -0.6622 -0.6554 -0.6977
  104MOL0     C13910   4.479   5.739   6.698 -0.4095  1.0669 -0.8822
  104MOL0     C13911   4.505   5.599   6.684  0.6852 -0.2446  0.4618
  104MOL0     C13912   4.635   5.553   6.675 -0.2746 -0.9093  0.6772
  104MOL0     O13913   4.634   5.416   6.671 -0.1268  0.8082  0.1501
  104MOL0     C13914   4.727   5.344   6.593 -0.3799 -0.5900  0.1836
  104MOL0     C13915   4.691   5.192   6.590  1.1771 -0.2185  0.1874
  104MOL0     C13916   4.677   5.123   6.723  0.5891 -0.0850 -0.4395
  104MOL0     C13917   4.809   5.073   6.799  0.4550  0.3919 -0.9890
  104MOL0     C13918   4.776   5.004   6.929  0.4350 -0.0820 -0.3988
  104MOL0     C13919   4.912   4.959   6.994  0.1546  0.1446 -0.2663
  104MOL0     C13920   4.914   4.869   7.114 -0.0432 -0.5729  0.2688
  104MOL0     C13921   4.810   4.753   7.120  0.0608 -0.1179  0.5130
  104MOL0     N13922   4.839   4.656   7.006  0.1843  1.2407  0.0566
  104MOL0     C13923   4.891   4.519   7.019 -0.0050 -0.3018  0.4585
  104MOL0     C13924   4.848   4.458   6.905 -0.7632 -0.1990  0.3121
  104MOL0     C13925   4.875   4.314   6.853  0.1908 -0.7014 -0.4855
  104MOL0     C13926   4.755   4.226   6.862 -0.7363  0.2884 -1.1189
  104MOL0     C13927   4.692   4.211   7.007 -0.1819  0.3882  0.1939
  104MOL0     C13928   4.545   4.184   6.991 -0.6464 -0.8963 -0.0014
  104MOL0     O13929   4.483   4.181   7.113  0.6300  0.2745 -0.3453
  104MOL0     C13930   4.363   4.118   7.139 -0.5629  0.0030 -0.0518
  104MOL0     C13931   4.316   4.130   7.267  0.3225  0.8805 -0.7014
  104MOL0     C13932   4.192   4.066   7.306  0.1231  0.4998 -0.1129
  104MOL0     C13933   4.135   3.958   7.226 -0.1530 -0.7045  0.2554
  104MOL0     C13934   4.008   3.890   7.272  0.5414  0.3625 -0.5759
  104MOL0     O13935   3.945   3.810   7.174  0.0802 -0.3634 -0.9362
  104MOL0     C13936   3.819   3.762   7.212  0.1543 -0.8978  0.2195
  104MOL0     C13937   3.701   3.822   7.161  0.4505  0.1045 -0.1054
  104MOL0     C13938   3.578   3.776   7.211 -0.3548  1.1306  0.0280
  104MOL0     C13939   3.569   3.680   7.311  0.3072  0.1212 -0.2815
  104MOL0     O13940   3.442   3.648   7.359 -0.2414 -0.1676 -0.0125
  104MOL0     C13941   3.428   3.564   7.473 -1.0328  0.3470 -0.2067
  104MOL0     C13942   3.288   3.584   7.520  0.1002  0.3759  0.9545
  104MOL0     C13943   3.271   3.496   7.632  0.2625 -0.5817 -0.5513
  104MOL0     C13944   3.140   3.534   7.709 -0.2063  0.5665  0.2961
  104MOL0     C13945   3.136   3.479   7.851 -0.9481 -0.5374 -0.7396
  104MOL0     C13946   3.110   3.328   7.867  0.1904 -0.0498  0.1014
  104MOL0     C13947   3.083   3.298   8.019  0.0039 -0.0094 -0.0687
  104MOL0     C13948   3.207   3.308   8.106  0.0070  0.1469  0.2121
  104MOL0    Cl13949   3.198   3.298   8.279  0.1210  0.4520  0.3622
  104MOL0     C13950   3.686   3.618   7.353 -0.1176  0.7966 -0.2114
  104MOL0     C13951   3.812   3.650   7.298  0.5742  0.0345 -0.4011
  104MOL0     O13952   3.973   3.899   7.395  0.0336  0.6331  1.1916
  104MOL0     C13953   4.194   3.948   7.096 -0.1310  0.8040  0.8850
  104MOL0     C13954   4.299   4.030   7.055 -1.6383  0.3768  0.0587
  104MOL0     N13955   4.765   4.548   6.837  1.3941 -0.7570  0.5702
  104MOL0     N13956   4.760   4.661   6.895  0.7281 -0.1076 -0.2039
  104MOL0     C13957   4.743   5.644   6.677 -0.5615 -2.2047 -0.7617
  104MOL0     C13958   4.708   5.778   6.682  0.5057  0.6505 -0.0284
  104MOL0     C13959   4.602   6.189   6.665  0.2923 -0.5108  0.3590
  104MOL0     C13960   4.520   6.220   6.778 -0.1169 -0.1739 -0.2701
  104MOL0     C13961   4.530   6.342   6.842  0.1073  0.6016 -0.4042
  104MOL0     C13962   4.608   6.440   6.782  0.0090 -0.7023  0.8016
  104MOL0     O13963   4.622   6.573   6.832 -0.6848 -0.1186  0.1554
  104MOL0     C13964   4.501   6.648   6.835  0.3104  0.4155 -0.2697
  104MOL0     C13965   4.520   6.788   6.794 -0.0966  0.2078 -0.3329
  104MOL0     C13966   4.408   6.883   6.836 -0.1044  1.0128  0.9129
  104MOL0     C13967   4.282   6.867   6.750  0.8319  0.7264  0.3586
  104MOL0     C13968   4.186   6.781   6.822  0.0291 -0.1247  0.0283
  104MOL0     C13969   4.107   6.700   6.856  0.5631  0.4750 -0.0391
  104MOL0     C13970   4.687   6.417   6.671  0.0381  0.0404 -0.4405
  104MOL0     C13971   4.690   6.291   6.615  1.2071 -0.0019  0.4217
  104MOL0     C13972   4.804   6.274   6.522 -0.4654  0.2914 -0.7325
  104MOL0     H13973   4.372   5.758   6.702 -0.0913  3.5172 -2.0121
  104MOL0     H13974   4.420   5.537   6.660  1.8945 -1.4923 -0.8075
  104MOL0     H13975   4.737   5.376   6.489  0.4309 -1.5435 -0.0584
  104MOL0     H13976   4.825   5.361   6.639 -1.2086  1.0931  1.4254
  104MOL0     H13977   4.750   5.135   6.519 -1.1185  0.5484 -2.5015
  104MOL0     H13978   4.588   5.183   6.556  2.6641 -3.4215 -4.5452
  104MOL0     H13979   4.617   5.035   6.700  1.8080 -1.1065  0.2049
  104MOL0     H13980   4.616   5.184   6.791  2.0241  0.4085  0.4467
  104MOL0     H13981   4.856   4.991   6.744 -0.4243 -2.8048  2.5990
  104MOL0     H13982   4.877   5.154   6.828 -0.9039  1.1109  0.2989
  104MOL0     H13983   4.732   5.065   7.009  2.7961  2.2069 -0.7266
  104MOL0     H13984   4.706   4.923   6.905  2.8598 -2.2235 -0.6531
  104MOL0     H13985   4.948   4.897   6.912 -2.9577 -0.2042 -1.5171
  104MOL0     H13986   4.979   5.044   7.006 -1.4463  1.7078 -1.8812
  104MOL0     H13987   4.916   4.928   7.206 -0.0841 -0.8114  0.4253
  104MOL0     H13988   5.015   4.829   7.100  0.7670  1.9589 -1.6038
  104MOL0     H13989   4.831   4.705   7.215  1.2850 -2.2648 -0.7704
  104MOL0     H13990   4.707   4.790   7.118  0.3763  0.8222 -1.1369
  104MOL0     H13991   4.947   4.468   7.097 -1.5386  0.5230  2.1822
  104MOL0     H13992   4.907   4.326   6.749  2.6566 -1.0192  0.1707
  104MOL0     H13993   4.954   4.274   6.917  2.9484  4.1597 -0.3416
  104MOL0     H13994   4.688   4.269   6.787 -0.6943  0.4684 -1.0522
  104MOL0     H13995   4.781   4.134   6.808  0.6046 -0.6384  0.9856
  104MOL0     H13996   4.691   4.300   7.072 -0.6695 -0.1879  0.9992
  104MOL0     H13997   4.752   4.138   7.062 -0.2242  0.1914 -0.0208
  104MOL0     H13998   4.526   4.104   6.919  2.6821 -1.3649 -0.5309
  104MOL0     H13999   4.504   4.268   6.933  0.1364 -0.5591 -0.0749
  104MOL0     H14000   4.369   4.198   7.333 -3.2456  0.2699  3.1947
  104MOL0     H14001   4.138   4.094   7.395 -1.5886  0.6358 -1.1460
  104MOL0     H14002   3.716   3.905   7.092  1.8187  1.9260  2.2532
  104MOL0     H14003   3.484   3.826   7.190 -0.2403  0.9785 -0.8832
  104MOL0     H14004   3.435   3.461   7.437 -0.1157 -0.2738  1.6317
  104MOL0     H14005   3.506   3.579   7.549 -1.1065  1.3649 -0.3090
  104MOL0     H14006   3.261   3.689   7.533 -0.8886  0.6555 -2.3594
  104MOL0     H14007   3.207   3.554   7.453  0.7302  0.1488  0.2699
  104MOL0     H14008   3.269   3.394   7.592  3.7817  0.6681 -4.6961
  104MOL0     H14009   3.360   3.502   7.696 -0.5872 -2.8411  0.9978
  104MOL0     H14010   3.052   3.512   7.648  0.6882  0.3002 -0.9134
  104MOL0     H14011   3.140   3.643   7.711  1.6784  0.5974  1.9371
  104MOL0     H14012   3.056   3.534   7.901 -1.2650 -2.2233  0.6720
  104MOL0     H14013   3.233   3.510   7.893 -0.8728  1.2271 -2.0452
  104MOL0     H14014   3.025   3.301   7.803  2.4190  0.3813 -3.3275
  104MOL0     H14015   3.197   3.271   7.834 -0.3942  1.2361 -4.2894
  104MOL0     H14016   3.052   3.197   8.048 -3.1437  1.2341  1.3830
  104MOL0     H14017   3.001   3.359   8.060 -2.1773  0.4397 -4.5167
  104MOL0     H14018   3.263   3.215   8.103 -0.0737  0.0741  0.7546
  104MOL0     H14019   3.271   3.393   8.082 -3.5990  2.1965 -3.5864
  104MOL0     H14020   3.689   3.539   7.428  2.1752  0.5086 -0.5362
  104MOL0     H14021   3.904   3.598   7.323 -0.4224 -0.6665  2.0357
  104MOL0     H14022   4.142   3.884   7.025 -2.1800  0.5513  2.5382
  104MOL0     H14023   4.341   4.017   6.956 -0.3629  0.5310  0.5468
  104MOL0     H14024   4.850   5.625   6.665 -0.0447  0.6996 -1.6137
  104MOL0     H14025   4.799   5.837   6.677  0.6941  0.2931 -1.1425
  104MOL0     H14026   4.454   6.159   6.838 -0.3083  3.5025  3.7195
  104MOL0     H14027   4.470   6.357   6.932  2.0848 -1.0029  1.2979
  104MOL0     H14028   4.470   6.639   6.939  0.9258 -3.1299 -0.2892
  104MOL0     H14029   4.416   6.603   6.782 -0.0007  1.0286 -0.3017
  104MOL0     H14030   4.527   6.791   6.684 -1.6356  1.2039 -0.4322
  104MOL0     H14031   4.611   6.825   6.842  0.2803 -1.1103  0.0184
  104MOL0     H14032   4.451   6.982   6.822 -1.5255  1.5788  0.3420
  104MOL0     H14033   4.375   6.859   6.937 -1.8412  0.8004  0.3378
  104MOL0     H14034   4.226   6.958   6.730 -1.4026 -0.9406 -1.5525
  104MOL0     H14035   4.304   6.831   6.648 -0.8938  2.0703 -0.5399
  104MOL0     H14036   4.027   6.638   6.891  0.1052 -0.3597 -2.3924
  104MOL0     H14037   4.747   6.497   6.628  1.3018 -0.8290 -0.3577
  104MOL0     H14038   4.784   6.255   6.416  3.7427 -1.2587 -1.4112
  104MOL0     H14039   4.876   6.357   6.523 -0.8794  0.6512  0.1858
  104MOL0     H14040   4.880   6.205   6.557 -0.2899  0.0105 -1.6460
  105MOL0     O14041   9.041  10.581   4.195 -0.6088  0.0602 -0.0657
  105MOL0     C14042   8.995  10.575   4.307 -0.3607  0.7089 -0.0669
  105MOL0     O14043   8.947  10.463   4.359  0.5191 -0.0833  0.0383
  105MOL0     C14044   8.874  10.378   4.281  0.2987  0.1747 -0.2094
  105MOL0     C14045   8.857  10.246   4.322 -0.6512 -0.3773 -0.6100
  105MOL0     C14046   8.770  10.163   4.259 -0.5691 -1.6001  0.0268
  105MOL0     C14047   8.681  10.209   4.164 -0.0537 -0.7039 -0.2343
  105MOL0     O14048   8.604  10.113   4.108  0.6853  0.2311  0.0328
  105MOL0     C14049   8.467  10.137   4.131  0.2722 -0.1009 -0.7973
  105MOL0     C14050   8.406  10.206   4.008  0.3407  0.1262  0.8370
  105MOL0     C14051   8.373  10.103   3.892  0.1735  0.3705  0.3290
  105MOL0     C14052   8.310  10.175   3.768 -0.7084 -0.2181 -0.6590
  105MOL0     C14053   8.290  10.070   3.669 -0.2495  0.8291  0.0106
  105MOL0     C14054   8.231  10.126   3.542 -0.3293  0.8141 -0.2059
  105MOL0     C14055   8.167  10.007   3.463  0.4806 -0.2829  0.0791
  105MOL0     C14056   8.157  10.020   3.309  0.0354 -1.0969  0.2264
  105MOL0     N14057   8.066  10.126   3.276 -0.4827 -0.5571 -0.3786
  105MOL0     C14058   7.933  10.115   3.292 -0.3782  0.0234  0.1052
  105MOL0     C14059   7.876  10.229   3.252  0.3067 -0.3771  0.6178
  105MOL0     C14060   7.729  10.250   3.231  0.2658 -1.0434 -0.1669
  105MOL0     C14061   7.660  10.137   3.156 -1.0160  0.3458  0.1036
  105MOL0     C14062   7.703  10.144   3.003 -0.3821 -0.2210 -0.9378
  105MOL0     C14063   7.703  10.001   2.954 -0.7096  0.3806 -0.5993
  105MOL0     O14064   7.814   9.938   3.023 -0.1564  0.4396  0.0133
  105MOL0     C14065   7.934   9.925   2.956 -1.0090  0.4368  0.3107
  105MOL0     C14066   7.966   9.819   2.876  0.4669  0.2789  0.4241
  105MOL0     C14067   8.094   9.811   2.814 -0.2460  0.1979 -0.2037
  105MOL0     C14068   8.196   9.897   2.843  0.2606  0.3408  0.0842
  105MOL0     C14069   8.328   9.867   2.785 -0.8655  0.2777  0.3487
  105MOL0     O14070   8.421   9.964   2.791  0.0476  0.0157  0.0424
  105MOL0     C14071   8.537   9.959   2.719 -0.9413 -0.6743 -0.4677
  105MOL0     C14072   8.641   9.870   2.738  0.5267  0.1374  1.0849
  105MOL0     C14073   8.767   9.884   2.663  0.3315 -0.1554 -0.1231
  105MOL0     C14074   8.780   9.979   2.559 -0.4456  0.1019 -0.0953
  105MOL0     O14075   8.895   9.993   2.471  0.3238 -0.2413 -0.3391
  105MOL0     C14076   9.023   9.984   2.531 -0.5140 -0.6586 -0.6282
  105MOL0     C14077   9.132   9.995   2.417  0.2207  0.1541  0.3517
  105MOL0     C14078   9.117   9.862   2.347  0.5714  0.5933 -0.0098
  105MOL0     C14079   9.189   9.850   2.215  0.3639  0.8682  0.5347
  105MOL0     C14080   9.190   9.705   2.168 -0.2095  0.3164  1.1490
  105MOL0     C14081   9.254   9.602   2.270  0.9651  0.6333 -0.2311
  105MOL0     C14082   9.276   9.456   2.219  1.4056 -0.8527 -0.4229
  105MOL0     C14083   9.350   9.388   2.330  0.0159  0.1648  0.9719
  105MOL0    Cl14084   9.519   9.429   2.313 -0.0262 -0.2497  0.2247
  105MOL0     C14085   8.677  10.070   2.547 -0.6379 -0.8599 -0.8773
  105MOL0     C14086   8.559  10.063   2.625 -0.1702  0.4241  0.2858
  105MOL0     O14087   8.344   9.750   2.743 -0.2522 -0.7502  0.5219
  105MOL0     C14088   8.163  10.016   2.911  0.2837  0.3631  1.0902
  105MOL0     C14089   8.031  10.027   2.962 -0.5715 -0.4411 -0.8384
  105MOL0     N14090   7.979  10.306   3.202  0.0273 -0.0773 -0.3188
  105MOL0     N14091   8.092  10.249   3.224 -0.2425 -0.4088 -0.0046
  105MOL0     C14092   8.677  10.352   4.137  0.6010  0.7894 -0.2434
  105MOL0     C14093   8.772  10.430   4.192  0.0995 -1.2014  0.8361
  105MOL0     C14094   9.033  10.683   4.410  1.2435  0.1561  0.3388
  105MOL0     C14095   9.122  10.779   4.357 -0.2482 -1.3263  0.2639
  105MOL0     C14096   9.146  10.890   4.434 -0.3442  0.0140  0.6153
  105MOL0     C14097   9.108  10.901   4.565  0.0023 -1.5715 -0.0191
  105MOL0     O14098   9.167  11.012   4.626  0.3999  0.2423  0.7516
  105MOL0     C14099   9.203  11.010   4.765  0.8123  0.2809 -0.5535
  105MOL0     C14100   9.359  10.979   4.757  0.3976  0.0307 -0.2271
  105MOL0     C14101   9.426  10.970   4.898  1.3210 -0.5004  1.1356
  105MOL0     C14102   9.450  11.110   4.950 -0.1566  0.5493  0.0287
  105MOL0     C14103   9.508  11.107   5.085  0.4254 -0.8654 -0.5740
  105MOL0     C14104   9.540  11.088   5.194 -0.9744  0.1303 -0.6652
  105MOL0     C14105   9.016  10.810   4.614 -0.0504 -0.4926  0.3386
  105MOL0     C14106   8.987  10.699   4.543 -0.5641  1.0486  0.6891
  105MOL0     C14107   8.903  10.586   4.601  0.2892  0.3378  0.2763
  105MOL0     H14108   8.912  10.200   4.404  0.9211  0.1821 -1.2946
  105MOL0     H14109   8.769  10.059   4.289  2.9492 -2.1385 -1.2582
  105MOL0     H14110   8.427  10.036   4.139 -2.3784  0.7761 -1.6368
  105MOL0     H14111   8.448  10.191   4.224 -1.6053  1.7094 -2.1320
  105MOL0     H14112   8.478  10.274   3.961 -0.6716 -0.0203 -1.0413
  105MOL0     H14113   8.311  10.249   4.043 -1.4976 -2.4437 -0.6147
  105MOL0     H14114   8.301  10.031   3.934  0.4881 -0.5508 -0.6714
  105MOL0     H14115   8.464  10.053   3.858 -0.3224 -1.1409  1.1198
  105MOL0     H14116   8.212  10.221   3.782  0.4783  1.5655  2.8525
  105MOL0     H14117   8.378  10.252   3.729 -1.6435  1.6463  1.1864
  105MOL0     H14118   8.380  10.010   3.650 -0.5759 -0.3457  1.9973
  105MOL0     H14119   8.222  10.001   3.719  1.1758  1.2510  2.7068
  105MOL0     H14120   8.147  10.191   3.570 -2.6521 -2.7970  2.0769
  105MOL0     H14121   8.303  10.183   3.483  1.0087 -1.3291 -0.7670
  105MOL0     H14122   8.065   9.990   3.500  0.0679  0.0985 -0.8409
  105MOL0     H14123   8.228   9.918   3.479 -0.6139 -1.0056  0.3899
  105MOL0     H14124   8.254  10.040   3.263  0.7005 -4.6903 -0.2243
  105MOL0     H14125   8.108   9.937   3.258 -1.2991 -0.0137 -0.3117
  105MOL0     H14126   7.888  10.019   3.315 -0.7103 -0.3504 -1.9253
  105MOL0     H14127   7.674  10.253   3.325  0.4358  2.1485 -0.0597
  105MOL0     H14128   7.707  10.347   3.186  1.5472  0.4796  2.2508
  105MOL0     H14129   7.691  10.044   3.204  0.2273  0.3549 -0.6502
  105MOL0     H14130   7.552  10.145   3.174 -1.4048 -1.9999 -0.8011
  105MOL0     H14131   7.801  10.184   2.975  0.9993 -3.2321 -0.8426
  105MOL0     H14132   7.621  10.198   2.954 -0.1948 -0.7508 -1.8592
  105MOL0     H14133   7.724   9.999   2.847  1.0335 -0.0088 -0.2807
  105MOL0     H14134   7.609   9.947   2.971 -1.1971  1.5816  0.6564
  105MOL0     H14135   7.886   9.747   2.873  0.9146 -0.2306  0.5663
  105MOL0     H14136   8.111   9.722   2.756 -2.0320 -1.3219  1.4384
  105MOL0     H14137   8.626   9.788   2.807  0.4131  0.3537  1.3171
  105MOL0     H14138   8.845   9.809   2.675  1.0493  0.6903  0.6644
  105MOL0     H14139   9.046  10.073   2.590  1.7544  1.0588 -3.8196
  105MOL0     H14140   9.043   9.889   2.582  4.1752 -0.6173 -1.9267
  105MOL0     H14141   9.100  10.075   2.351 -0.9427 -0.3905  0.2095
  105MOL0     H14142   9.235  10.010   2.450  0.1426 -1.4779  1.4882
  105MOL0     H14143   9.153   9.789   2.420 -2.7772 -0.8338  0.3826
  105MOL0     H14144   9.013   9.839   2.325  0.8449 -0.0790 -0.6017
  105MOL0     H14145   9.293   9.883   2.222  0.7290 -0.2367  0.5760
  105MOL0     H14146   9.134   9.913   2.145  0.0198  2.8387  2.4685
  105MOL0     H14147   9.250   9.689   2.078 -0.0292  0.9340  1.1516
  105MOL0     H14148   9.090   9.679   2.133  0.0741  1.1221 -0.3078
  105MOL0     H14149   9.344   9.650   2.309  0.3049  0.3327  1.7572
  105MOL0     H14150   9.181   9.589   2.350  0.5701 -0.6588 -0.7688
  105MOL0     H14151   9.329   9.458   2.124  1.5317 -0.8826 -0.3526
  105MOL0     H14152   9.182   9.402   2.203  1.7652 -2.9588  3.4352
  105MOL0     H14153   9.319   9.385   2.435  2.5526 -0.0744  1.7798
  105MOL0     H14154   9.356   9.282   2.302  3.1737  0.8348 -1.4123
  105MOL0     H14155   8.698  10.148   2.475 -1.0137 -0.0094 -0.0765
  105MOL0     H14156   8.480  10.138   2.633 -0.9313 -0.5540  2.5589
  105MOL0     H14157   8.234  10.093   2.940 -2.1726  4.0415 -1.8733
  105MOL0     H14158   8.012  10.117   3.019  2.0447  0.8483 -1.8252
  105MOL0     H14159   8.602  10.398   4.073 -0.8270 -1.1587 -0.0850
  105MOL0     H14160   8.765  10.535   4.164 -2.0343 -0.8853  2.3597
  105MOL0     H14161   9.175  10.768   4.263  0.2754  3.0801 -0.1830
  105MOL0     H14162   9.210  10.966   4.391 -1.9706  1.3538  0.4542
  105MOL0     H14163   9.133  10.958   4.830  1.3682  0.9223  0.5944
  105MOL0     H14164   9.193  11.111   4.806 -2.8132 -1.4500  3.6384
  105MOL0     H14165   9.405  11.057   4.696 -0.7746  1.0448  0.1571
  105MOL0     H14166   9.372  10.880   4.712  0.2413  0.6771 -1.7684
  105MOL0     H14167   9.508  10.902   4.921 -0.3896 -3.2600 -0.3324
  105MOL0     H14168   9.344  10.921   4.950  1.1122  0.7270  2.0226
  105MOL0     H14169   9.512  11.173   4.885 -0.8213  2.3047  1.0282
  105MOL0     H14170   9.350  11.154   4.963 -0.7178  0.1158 -2.2550
  105MOL0     H14171   9.578  11.072   5.293 -2.8911  1.8362  0.4450
  105MOL0     H14172   8.979  10.843   4.710 -0.4099  0.7987 -0.2065
  105MOL0     H14173   8.965  10.498   4.620 -4.3417 -3.3717  0.2835
  105MOL0     H14174   8.865  10.620   4.697  0.6247  1.0957  0.1446
  105MOL0     H14175   8.815  10.573   4.536  0.2719 -1.8967  0.6624
  106MOL0     O14176   2.448  11.080  11.400 -0.0004  0.0729  0.0852
  106MOL0     C14177   2.441  10.958  11.436  0.3962 -1.0961  0.4114
  106MOL0     O14178   2.383  10.869  11.361 -0.6732  1.4857  1.3034
  106MOL0     C14179   2.355  10.888  11.222  0.6511 -0.7546  0.3550
  106MOL0     C14180   2.457  10.907  11.129 -0.6760 -0.0310 -0.0943
  106MOL0     C14181   2.437  10.928  10.991 -0.1549 -0.5367  0.0719
  106MOL0     C14182   2.306  10.954  10.956  0.8232 -0.2437 -0.4396
  106MOL0     O14183   2.288  10.977  10.820  0.0586  0.2026 -0.7756
  106MOL0     C14184   2.169  10.920  10.762  0.0107 -0.2130 -0.7063
  106MOL0     C14185   2.158  10.978  10.614  0.8893  0.3061 -0.2139
  106MOL0     C14186   2.019  10.953  10.546  0.3437  0.1335  1.1968
  106MOL0     C14187   2.015  10.999  10.395  0.0721  0.5284  0.0891
  106MOL0     C14188   1.901  10.937  10.310 -0.3733  1.0539  0.3072
  106MOL0     C14189   1.911  10.787  10.286 -0.7622 -0.6584  0.5122
  106MOL0     C14190   1.967  10.748  10.146 -0.0945  0.2513  0.0460
  106MOL0     C14191   2.105  10.794  10.092 -0.5822 -0.1993  0.5326
  106MOL0     N14192   2.131  10.750   9.958  0.3691 -1.2370 -0.1782
  106MOL0     C14193   2.241  10.680   9.929 -0.0660 -0.2581 -0.2828
  106MOL0     C14194   2.199  10.604   9.818 -0.1741 -0.1199 -0.1236
  106MOL0     C14195   2.292  10.516   9.740  0.2903 -1.1054  0.2502
  106MOL0     C14196   2.337  10.586   9.620  0.0378  0.2294  0.7423
  106MOL0     C14197   2.436  10.704   9.636  0.8327  0.5204  0.3156
  106MOL0     C14198   2.481  10.758   9.504  0.0728 -0.0555 -0.3307
  106MOL0     O14199   2.576  10.855   9.527 -0.7461 -0.4162  0.5108
  106MOL0     C14200   2.666  10.893   9.424 -0.5504  0.5159  0.0598
  106MOL0     C14201   2.757  10.984   9.467 -0.6835 -0.6143  0.3074
  106MOL0     C14202   2.865  11.027   9.381 -0.5720  0.4110 -0.6493
  106MOL0     C14203   2.871  10.969   9.254  0.2911 -0.4782  0.3427
  106MOL0     C14204   2.979  11.009   9.159 -0.2640 -0.0753  0.7148
  106MOL0     O14205   2.966  10.966   9.032  0.1430  0.5759 -0.0139
  106MOL0     C14206   3.058  11.007   8.941  0.3697 -0.5751  0.0074
  106MOL0     C14207   3.156  10.915   8.903 -0.0354 -1.2675  0.4833
  106MOL0     C14208   3.227  10.944   8.785 -0.8667  0.5757  0.3112
  106MOL0     C14209   3.236  11.079   8.730  1.1361 -0.4919  0.5226
  106MOL0     O14210   3.297  11.120   8.619  0.0895  0.2207 -0.4523
  106MOL0     C14211   3.434  11.083   8.598  0.5002  0.0213  0.3037
  106MOL0     C14212   3.494  11.184   8.504  0.9021  0.7445 -0.8044
  106MOL0     C14213   3.461  11.156   8.358 -0.2895 -0.0784  1.0477
  106MOL0     C14214   3.570  11.087   8.282  0.2044  0.0432  0.5345
  106MOL0     C14215   3.525  11.047   8.134 -0.3329  0.2201  0.7505
  106MOL0     C14216   3.649  11.016   8.043 -0.0774 -0.5052  0.5480
  106MOL0     C14217   3.616  10.964   7.902  0.8898 -0.8504  0.0309
  106MOL0     C14218   3.735  10.920   7.820  0.0515 -0.2050 -0.0368
  106MOL0    Cl14219   3.674  10.783   7.733  0.2962 -0.6486  0.2291
  106MOL0     C14220   3.149  11.171   8.787  0.2604 -0.0365 -0.0919
  106MOL0     C14221   3.055  11.133   8.888 -0.2634 -0.5009  0.0467
  106MOL0     O14222   3.066  11.073   9.201 -0.3842  0.4080  0.1367
  106MOL0     C14223   2.779  10.873   9.208  0.7288 -1.0858 -0.5194
  106MOL0     C14224   2.675  10.836   9.292  0.7083 -0.2806 -0.7882
  106MOL0     N14225   2.072  10.631   9.791 -0.0242 -0.4768 -0.0930
  106MOL0     N14226   2.027  10.717   9.872  0.4504 -0.3976 -0.1373
  106MOL0     C14227   2.197  10.951  11.049 -0.2836 -0.0546  0.1573
  106MOL0     C14228   2.226  10.920  11.186 -0.3224  0.2109  0.3298
  106MOL0     C14229   2.494  10.919  11.571 -0.0016  0.2850  0.3434
  106MOL0     C14230   2.474  11.006  11.678 -0.8326  1.0539 -0.8863
  106MOL0     C14231   2.500  10.959  11.813  0.2320 -0.7249 -0.5489
  106MOL0     C14232   2.554  10.836  11.838 -0.1421 -0.4964  0.4554
  106MOL0     O14233   2.595  10.798  11.966 -0.2992  0.4251  0.1394
  106MOL0     C14234   2.553  10.861  12.085  0.2673  0.1723  0.3602
  106MOL0     C14235   2.572  10.768  12.206 -0.2853 -0.6470  0.6743
  106MOL0     C14236   2.499  10.624  12.199 -0.3076 -1.1883 -0.0732
  106MOL0     C14237   2.348  10.647  12.185  0.0953  0.0688  0.0221
  106MOL0     C14238   2.295  10.508  12.195 -0.3062  0.6542 -0.2702
  106MOL0     C14239   2.253  10.396  12.200  0.2015  0.0550  0.1848
  106MOL0     C14240   2.569  10.752  11.725  0.2069  0.6835  0.0907
  106MOL0     C14241   2.548  10.788  11.593  0.3896 -0.5583 -0.8043
  106MOL0     C14242   2.580  10.693  11.470  0.2673  0.2762 -0.0540
  106MOL0     H14243   2.560  10.888  11.160 -0.5190  1.5175  0.4478
  106MOL0     H14244   2.502  10.921  10.904 -1.1681 -1.6242 -0.6269
  106MOL0     H14245   2.171  10.812  10.776 -1.8347 -0.2120 -0.1520
  106MOL0     H14246   2.081  10.963  10.810 -1.8258  0.2105 -4.1080
  106MOL0     H14247   2.237  10.937  10.551  0.7410 -2.0869  1.0591
  106MOL0     H14248   2.162  11.088  10.615  3.9004  0.3150 -1.5139
  106MOL0     H14249   1.935  10.997  10.600 -1.5237 -2.9335  0.9949
  106MOL0     H14250   2.012  10.845  10.559  1.3050  0.2172  2.8409
  106MOL0     H14251   1.991  11.105  10.399 -1.5850  0.2008 -0.3738
  106MOL0     H14252   2.112  10.977  10.349 -0.4520 -0.1121 -0.7398
  106MOL0     H14253   1.800  10.940  10.353 -1.8323  2.0987 -2.8473
  106MOL0     H14254   1.896  10.994  10.216  3.9002  0.6665 -0.3490
  106MOL0     H14255   1.966  10.733  10.364  0.1402 -1.4054 -0.6077
  106MOL0     H14256   1.811  10.741  10.295 -0.6547 -0.7729  1.1764
  106MOL0     H14257   1.892  10.785  10.076 -0.5368  0.0053  0.3859
  106MOL0     H14258   1.983  10.640  10.153  0.8709  0.3843  0.1012
  106MOL0     H14259   2.102  10.903  10.091  0.4179 -0.1673 -0.4942
  106MOL0     H14260   2.187  10.761  10.157  1.0944  0.1708 -1.3049
  106MOL0     H14261   2.341  10.701   9.963 -0.5212  1.2711  0.1850
  106MOL0     H14262   2.380  10.484   9.797  0.3719 -2.2934 -0.5151
  106MOL0     H14263   2.230  10.431   9.709 -0.7906 -1.0020  2.0128
  106MOL0     H14264   2.384  10.515   9.552 -2.4532 -1.9564  1.1798
  106MOL0     H14265   2.247  10.618   9.567 -0.5101 -0.9769  0.9327
  106MOL0     H14266   2.518  10.657   9.692  1.7402  0.0252 -1.3588
  106MOL0     H14267   2.382  10.777   9.698  0.3493  0.7016 -0.3111
  106MOL0     H14268   2.400  10.800   9.444  0.0682  0.2383 -0.1205
  106MOL0     H14269   2.506  10.671   9.443 -1.6250  0.4806 -1.8721
  106MOL0     H14270   2.755  11.034   9.563  0.5045  0.6627 -0.2816
  106MOL0     H14271   2.949  11.081   9.425 -0.1546  0.8184 -1.8976
  106MOL0     H14272   3.152  10.819   8.954 -0.0953  0.1319  3.3100
  106MOL0     H14273   3.282  10.860   8.745  2.6834  3.1997 -0.7744
  106MOL0     H14274   3.481  11.091   8.697  3.1093 -0.4000 -0.8123
  106MOL0     H14275   3.451  10.980   8.566  0.8002 -0.0186  0.5884
  106MOL0     H14276   3.443  11.276   8.533  0.1913  1.1156 -3.0011
  106MOL0     H14277   3.599  11.196   8.530  0.9094 -1.9577  0.8561
  106MOL0     H14278   3.373  11.094   8.338 -0.3089  0.6489 -1.5310
  106MOL0     H14279   3.436  11.249   8.306 -1.5179 -1.3973 -0.8991
  106MOL0     H14280   3.611  10.999   8.333 -0.4047  0.7171  2.2700
  106MOL0     H14281   3.651  11.161   8.273 -2.1976  2.6388 -1.7346
  106MOL0     H14282   3.463  11.128   8.094  2.2380  0.5993 -3.0211
  106MOL0     H14283   3.465  10.955   8.128  0.4137 -0.2041 -2.7752
  106MOL0     H14284   3.709  11.107   8.043 -2.7292  1.3561  0.4741
  106MOL0     H14285   3.710  10.938   8.089  0.8275 -0.2697 -0.2198
  106MOL0     H14286   3.564  11.042   7.844  1.3273 -1.1605 -0.8062
  106MOL0     H14287   3.556  10.876   7.923 -2.8686  1.7793  1.3450
  106MOL0     H14288   3.778  10.994   7.751 -0.5160  0.3655  0.2026
  106MOL0     H14289   3.819  10.888   7.881 -0.3208 -1.9019 -0.3660
  106MOL0     H14290   3.132  11.270   8.745  3.2185  0.4070 -0.4801
  106MOL0     H14291   2.974  11.202   8.912  1.4223  1.8761 -0.6975
  106MOL0     H14292   2.789  10.840   9.105  1.3096 -1.2619 -0.4109
  106MOL0     H14293   2.595  10.767   9.266 -0.9801  1.5379 -0.5765
  106MOL0     H14294   2.093  10.970  11.026 -0.5692  1.6057  2.4468
  106MOL0     H14295   2.149  10.930  11.262  1.4897 -3.0540  2.8457
  106MOL0     H14296   2.420  11.097  11.656 -2.8762 -0.6567 -3.5169
  106MOL0     H14297   2.498  11.035  11.891 -0.3328 -0.2299 -1.0331
  106MOL0     H14298   2.447  10.884  12.074 -0.7402 -3.2302  1.6621
  106MOL0     H14299   2.620  10.947  12.097  0.9194 -0.5316  2.1244
  106MOL0     H14300   2.549  10.829  12.294  0.2690 -0.0782  0.4338
  106MOL0     H14301   2.679  10.743  12.207  0.6696  2.7702 -0.4414
  106MOL0     H14302   2.519  10.592  12.301  2.5215  0.0326 -0.1526
  106MOL0     H14303   2.542  10.564  12.119 -2.8296 -2.0613 -0.8889
  106MOL0     H14304   2.311  10.708  12.269 -1.3883 -1.0299  0.2106
  106MOL0     H14305   2.338  10.699  12.089  2.6382 -0.8060 -0.7783
  106MOL0     H14306   2.233  10.291  12.202  0.3702  0.0342  0.9124
  106MOL0     H14307   2.621  10.657  11.734  0.4634  0.7575 -0.5602
  106MOL0     H14308   2.566  10.732  11.369  0.0516  0.9196  0.2196
  106MOL0     H14309   2.687  10.671  11.478 -0.1877 -3.2852 -1.7738
  106MOL0     H14310   2.534  10.596  11.486 -0.2748  0.7920  1.6838
  107MOL0     O14311   2.809   4.048  11.439  0.4247  0.1214 -0.7700
  107MOL0     C14312   2.734   4.142  11.410  0.0127  0.1725 -0.0149
  107MOL0     O14313   2.619   4.132  11.328 -0.4525 -0.0922  0.4311
  107MOL0     C14314   2.586   4.006  11.279  0.7583  0.8655  0.1400
  107MOL0     C14315   2.586   3.882  11.351  0.2192 -0.5381  0.9857
  107MOL0     C14316   2.571   3.761  11.285 -0.5307  0.9150  0.7684
  107MOL0     C14317   2.522   3.758  11.147 -0.5601 -0.2708 -1.3290
  107MOL0     O14318   2.505   3.647  11.080 -0.0358  0.3368 -0.3205
  107MOL0     C14319   2.540   3.520  11.151 -0.1587 -0.2972  0.5428
  107MOL0     C14320   2.514   3.403  11.057 -0.4404  0.8546 -0.2480
  107MOL0     C14321   2.374   3.338  11.051 -0.1461 -0.7604  0.7016
  107MOL0     C14322   2.274   3.455  11.010 -0.6798  0.3128 -0.3174
  107MOL0     C14323   2.141   3.402  10.963  0.8529  0.6446  0.6847
  107MOL0     C14324   2.139   3.383  10.815 -0.3892 -0.0823  0.3765
  107MOL0     C14325   1.998   3.353  10.765 -0.4300  0.0686  0.2422
  107MOL0     C14326   1.960   3.205  10.787  1.1526 -0.1196  0.3049
  107MOL0     N14327   2.060   3.107  10.744 -0.1916 -0.0399 -0.7460
  107MOL0     C14328   2.067   3.049  10.622 -0.3959 -1.6781  0.0380
  107MOL0     C14329   2.177   2.970  10.634 -0.1104 -0.2850 -0.5508
  107MOL0     C14330   2.234   2.866  10.536 -0.2274 -1.2354 -0.8492
  107MOL0     C14331   2.341   2.936  10.457 -1.3739  0.5708  0.1666
  107MOL0     C14332   2.479   2.936  10.530 -0.0766 -0.6947 -0.4410
  107MOL0     C14333   2.496   3.056  10.613 -0.5117  0.5910 -0.6463
  107MOL0     O14334   2.611   3.051  10.699  0.7107 -0.2894  0.0258
  107MOL0     C14335   2.695   3.158  10.717  0.4389 -0.0103  0.8354
  107MOL0     C14336   2.645   3.294  10.723 -0.1352 -0.3958 -0.2506
  107MOL0     C14337   2.740   3.400  10.772 -0.5895 -0.3285  0.5644
  107MOL0     C14338   2.869   3.367  10.795  0.5194 -0.0179  0.4963
  107MOL0     C14339   2.961   3.483  10.840 -0.1195 -0.3692  0.1431
  107MOL0     O14340   2.900   3.605  10.869 -0.0815  0.8546  0.0720
  107MOL0     C14341   2.963   3.683  10.967 -0.4153 -0.1677  0.4528
  107MOL0     C14342   2.906   3.699  11.097 -0.4871  0.0276  1.3548
  107MOL0     C14343   2.967   3.774  11.197  0.0030  0.2453 -0.2601
  107MOL0     C14344   3.083   3.832  11.177 -0.6208 -0.0805  0.2079
  107MOL0     O14345   3.143   3.894  11.279 -0.4733 -0.0323 -0.1201
  107MOL0     C14346   3.134   4.033  11.278 -0.0822 -0.0928  0.8208
  107MOL0     C14347   3.216   4.117  11.368 -1.0817 -0.2516 -0.0063
  107MOL0     C14348   3.170   4.106  11.513  1.0086  0.3578 -0.3249
  107MOL0     C14349   3.278   4.153  11.608  1.3389 -0.0035 -0.1164
  107MOL0     C14350   3.249   4.102  11.754 -0.1296 -0.0395  0.0311
  107MOL0     C14351   3.231   4.214  11.859  1.1304  0.7988 -0.6199
  107MOL0     C14352   3.182   4.164  11.999 -0.1789 -0.0580 -0.2814
  107MOL0     C14353   3.043   4.099  11.998  0.3279  1.2679 -0.4154
  107MOL0    Cl14354   3.019   3.991  12.151  0.2198 -0.1420  0.1398
  107MOL0     C14355   3.147   3.824  11.048 -0.0526  0.9984 -0.0837
  107MOL0     C14356   3.085   3.750  10.954  0.1058 -0.3017  0.3466
  107MOL0     O14357   3.078   3.459  10.856 -0.8135  0.5565 -0.7555
  107MOL0     C14358   2.916   3.243  10.778  0.3342 -0.9811  0.4378
  107MOL0     C14359   2.827   3.138  10.736  0.2190  0.0350 -1.1483
  107MOL0     N14360   2.216   2.963  10.766 -0.6256 -0.0764  0.8788
  107MOL0     N14361   2.141   3.037  10.836  0.9226 -0.5501 -0.3253
  107MOL0     C14362   2.509   3.880  11.084 -0.1649  0.6086 -0.2034
  107MOL0     C14363   2.549   4.002  11.147 -0.5511  0.3509 -0.0865
  107MOL0     C14364   2.772   4.274  11.450 -0.1675  0.7987 -0.7650
  107MOL0     C14365   2.779   4.378  11.362 -0.0442  0.1241  0.9706
  107MOL0     C14366   2.832   4.500  11.400 -0.4687  0.0145  0.4076
  107MOL0     C14367   2.869   4.533  11.532  0.1104 -0.8105 -0.1748
  107MOL0     O14368   2.911   4.663  11.540 -0.5581  0.5967  0.0376
  107MOL0     C14369   2.955   4.711  11.666 -0.5138  0.0572 -1.8278
  107MOL0     C14370   3.030   4.835  11.647 -0.1614 -0.8093  0.7984
  107MOL0     C14371   3.167   4.830  11.565 -1.1333 -0.3974 -0.5951
  107MOL0     C14372   3.252   4.959  11.575  0.2993 -0.9423  0.5459
  107MOL0     C14373   3.299   4.996  11.701 -0.2447 -0.3741  0.1627
  107MOL0     C14374   3.350   5.029  11.807  0.0492  1.1733 -0.0836
  107MOL0     C14375   2.859   4.436  11.626 -0.8677 -0.4824 -0.2949
  107MOL0     C14376   2.810   4.303  11.582 -1.4782 -0.4624 -0.2895
  107MOL0     C14377   2.791   4.211  11.700 -0.3892  0.0397 -0.3274
  107MOL0     H14378   2.614   3.881  11.456 -0.3134  1.0153  1.1737
  107MOL0     H14379   2.592   3.664  11.329  1.6243  1.0444  0.1445
  107MOL0     H14380   2.648   3.509  11.161  0.9751 -0.0629 -6.1900
  107MOL0     H14381   2.486   3.497  11.243  1.3476 -5.1575  0.4777
  107MOL0     H14382   2.585   3.321  11.070 -0.3839  0.9194 -0.1470
  107MOL0     H14383   2.541   3.438  10.957  1.3555 -2.0015 -0.8715
  107MOL0     H14384   2.346   3.293  11.147 -0.8354 -0.1220  0.8097
  107MOL0     H14385   2.368   3.261  10.974  3.1916  0.2929 -0.8169
  107MOL0     H14386   2.268   3.518  11.099  2.1988 -2.1297  1.8519
  107MOL0     H14387   2.312   3.518  10.929  1.6113 -0.3540  0.1585
  107MOL0     H14388   2.093   3.314  11.007  0.6868  0.3820 -0.0061
  107MOL0     H14389   2.084   3.491  10.991  2.8803  1.6736  1.7909
  107MOL0     H14390   2.170   3.479  10.773 -2.1663  0.3332 -0.0523
  107MOL0     H14391   2.212   3.303  10.798 -1.3020 -0.4140 -2.3567
  107MOL0     H14392   1.990   3.373  10.658  1.9325  3.2449  0.5060
  107MOL0     H14393   1.934   3.426  10.816  2.7134  3.3253 -0.0058
  107MOL0     H14394   1.934   3.194  10.893 -0.9528  0.2388 -0.1264
  107MOL0     H14395   1.861   3.196  10.740  0.0242  1.8199  2.1454
  107MOL0     H14396   2.017   3.061  10.526  1.1606  1.1393 -0.5298
  107MOL0     H14397   2.272   2.772  10.576  1.1268 -1.2079 -1.9937
  107MOL0     H14398   2.156   2.840  10.463  1.0857 -2.5329 -1.8572
  107MOL0     H14399   2.347   2.875  10.366 -0.4485  0.4539  0.3030
  107MOL0     H14400   2.318   3.037  10.423  1.9217  0.9264 -1.3990
  107MOL0     H14401   2.557   2.924  10.455  0.6680 -0.8035  0.3285
  107MOL0     H14402   2.500   2.851  10.596 -0.4099 -0.7174 -0.3589
  107MOL0     H14403   2.425   3.068  10.695  2.6563  2.7475  2.0845
  107MOL0     H14404   2.493   3.149  10.555 -0.0064  2.2401  1.7836
  107MOL0     H14405   2.538   3.303  10.705 -0.2707  0.3604  0.8230
  107MOL0     H14406   2.706   3.503  10.772 -0.5326 -0.1167 -3.7306
  107MOL0     H14407   2.802   3.669  11.106 -0.2044 -0.6974  2.5730
  107MOL0     H14408   2.916   3.783  11.292 -0.8147 -3.7381 -0.1519
  107MOL0     H14409   3.161   4.064  11.176 -1.4851  0.1044  0.4898
  107MOL0     H14410   3.032   4.068  11.292 -1.2537 -2.5248 -0.8297
  107MOL0     H14411   3.325   4.106  11.366 -0.6938  2.2821  1.7598
  107MOL0     H14412   3.202   4.218  11.328  0.7386 -0.3031 -0.8988
  107MOL0     H14413   3.078   4.165  11.513  0.4526 -0.4562  1.1319
  107MOL0     H14414   3.146   4.003  11.542 -1.8875  1.3118  1.0188
  107MOL0     H14415   3.288   4.261  11.595  2.2431 -0.0559  0.0755
  107MOL0     H14416   3.376   4.110  11.583  1.4490 -1.3993  2.4106
  107MOL0     H14417   3.329   4.031  11.778  0.1418 -0.8803 -2.9816
  107MOL0     H14418   3.153   4.049  11.761  0.8074 -1.7684  0.1460
  107MOL0     H14419   3.326   4.268  11.863  2.3598 -1.2774 -0.4699
  107MOL0     H14420   3.152   4.284  11.829 -0.3911  0.3839  2.0522
  107MOL0     H14421   3.178   4.248  12.069 -0.2744  0.7455 -1.2325
  107MOL0     H14422   3.255   4.091  12.035 -1.2149  0.2445  2.7079
  107MOL0     H14423   2.958   4.167  11.986 -1.4077  0.6229  5.2017
  107MOL0     H14424   3.028   4.032  11.913  1.6762  1.2723 -0.6758
  107MOL0     H14425   3.241   3.873  11.026 -0.5971  2.2332  0.2688
  107MOL0     H14426   3.133   3.754  10.856  1.2399  3.9676  0.8571
  107MOL0     H14427   3.023   3.225  10.782  0.1034 -2.5858  0.3935
  107MOL0     H14428   2.860   3.034  10.733 -1.9433 -0.6879 -1.3930
  107MOL0     H14429   2.467   3.888  10.984 -1.4587  3.4968  0.4698
  107MOL0     H14430   2.556   4.106  11.115 -2.3073  1.0032  1.4465
  107MOL0     H14431   2.751   4.343  11.263 -1.6577 -0.0681  1.4671
  107MOL0     H14432   2.845   4.561  11.311  1.5628 -1.3964 -0.3214
  107MOL0     H14433   3.017   4.635  11.714 -0.9006  1.0705  0.4290
  107MOL0     H14434   2.877   4.722  11.742 -0.9556 -3.6117 -1.6040
  107MOL0     H14435   3.069   4.868  11.744  4.0995 -1.3873 -0.5180
  107MOL0     H14436   2.962   4.913  11.612  0.6499  1.2095  3.3576
  107MOL0     H14437   3.138   4.815  11.460  1.9155 -0.3281 -1.5360
  107MOL0     H14438   3.230   4.748  11.602 -2.9657 -1.2364  0.8526
  107MOL0     H14439   3.344   4.954  11.514 -0.1575 -3.2117 -0.0670
  107MOL0     H14440   3.201   5.049  11.540  1.7433 -0.7438 -1.2364
  107MOL0     H14441   3.394   5.053  11.901  1.5725 -1.4762 -0.0307
  107MOL0     H14442   2.898   4.454  11.726  0.3318  1.3310 -1.0400
  107MOL0     H14443   2.883   4.153  11.715 -0.5945  0.2136  1.9878
  107MOL0     H14444   2.768   4.262  11.794 -1.1105 -1.8077  0.5415
  107MOL0     H14445   2.714   4.138  11.676 -0.2744 -0.5603  0.9898
  108MOL0     O14446   7.548  10.156   0.456 -0.4099  0.8290 -0.8094
  108MOL0     C14447   7.592  10.062   0.383 -0.6997  0.8032  0.5491
  108MOL0     O14448   7.565   9.934   0.393 -0.2027 -0.0592  0.1009
  108MOL0     C14449   7.467   9.886   0.484  0.1822  0.5477  0.4478
  108MOL0     C14450   7.478   9.754   0.522  0.5583 -0.1458  0.0173
  108MOL0     C14451   7.381   9.688   0.604 -0.1477 -0.2734 -0.1530
  108MOL0     C14452   7.261   9.750   0.632 -0.2133 -1.0010  0.3610
  108MOL0     O14453   7.156   9.692   0.702  0.0393 -0.8901  0.6283
  108MOL0     C14454   7.027   9.682   0.645  0.1866  1.0763  0.5868
  108MOL0     C14455   6.929   9.671   0.757  0.1680  0.9282 -0.3900
  108MOL0     C14456   6.949   9.762   0.876 -0.1991 -0.8560  0.2828
  108MOL0     C14457   6.833   9.793   0.958  1.0535  0.5434  0.0833
  108MOL0     C14458   6.848   9.887   1.077 -0.0607  0.4098  0.4704
  108MOL0     C14459   6.930  10.008   1.058  0.3562 -0.5735  0.3495
  108MOL0     C14460   7.078   9.999   1.093 -0.5040  0.1090  0.7510
  108MOL0     C14461   7.089   9.972   1.244 -0.6500  0.3375 -0.6767
  108MOL0     N14462   7.220  10.026   1.294  0.9369  0.3020 -0.1180
  108MOL0     C14463   7.342   9.984   1.245  0.2520  0.0713 -0.4128
  108MOL0     C14464   7.430  10.056   1.322 -0.4675 -1.1961 -1.2561
  108MOL0     C14465   7.579  10.039   1.331  1.0016  1.0184 -0.9155
  108MOL0     C14466   7.651  10.159   1.277  0.9003 -0.4580 -0.8359
  108MOL0     C14467   7.804  10.135   1.292  0.6887 -0.6645 -0.1678
  108MOL0     C14468   7.895  10.238   1.213  0.3171 -0.1586  1.6502
  108MOL0     O14469   7.881  10.209   1.065 -0.1222 -0.5875  0.0053
  108MOL0     C14470   7.876  10.320   0.985 -0.6769 -0.8267 -0.0694
  108MOL0     C14471   7.924  10.447   1.007 -0.2073  0.0572 -0.8845
  108MOL0     C14472   7.902  10.559   0.917  1.0348 -0.3032  0.4972
  108MOL0     C14473   7.828  10.540   0.795 -0.5540  0.1287 -0.3590
  108MOL0     C14474   7.789  10.666   0.727  0.4801 -0.2538  0.3619
  108MOL0     O14475   7.780  10.660   0.593  0.1499 -0.3283 -0.1044
  108MOL0     C14476   7.742  10.769   0.530  0.3001 -0.0007  0.0741
  108MOL0     C14477   7.620  10.834   0.553  0.3232 -0.3251  0.2262
  108MOL0     C14478   7.580  10.941   0.475  0.4656 -0.5561 -1.2174
  108MOL0     C14479   7.662  10.986   0.370 -0.5533 -0.3365  0.3110
  108MOL0     O14480   7.618  11.084   0.287  0.4952  0.3508  0.1287
  108MOL0     C14481   7.688  11.199   0.277 -0.0943 -0.4477 -0.3059
  108MOL0     C14482   7.589  11.315   0.261  0.0826  0.7692 -0.8452
  108MOL0     C14483   7.490  11.304   0.142  0.1027 -0.7700  0.7334
  108MOL0     C14484   7.561  11.330   0.012  0.2491  0.9442 -0.3716
  108MOL0     C14485   7.443  11.328  -0.105 -0.0916 -0.6771 -0.7839
  108MOL0     C14486   7.335  11.227  -0.103 -0.2013 -1.1619 -0.2320
  108MOL0     C14487   7.250  11.241  -0.228 -0.6822  0.4145  0.3390
  108MOL0     C14488   7.224  11.105  -0.289  0.5213  0.8367 -0.2711
  108MOL0    Cl14489   7.134  11.144  -0.431  0.2101 -0.2952  0.1474
  108MOL0     C14490   7.784  10.924   0.346 -0.3701  0.6675  0.2144
  108MOL0     C14491   7.816  10.819   0.424  0.0631 -0.2131 -0.6223
  108MOL0     O14492   7.771  10.769   0.789  0.0326  0.4181  0.0016
  108MOL0     C14493   7.789  10.405   0.768 -0.2998 -0.5467 -0.1498
  108MOL0     C14494   7.800  10.298   0.859 -0.0082 -0.1710 -0.6408
  108MOL0     N14495   7.355  10.116   1.422 -0.7807 -0.3239  0.4746
  108MOL0     N14496   7.233  10.108   1.395 -0.2913 -0.1226  0.2854
  108MOL0     C14497   7.238   9.882   0.584  0.2203  0.8386  0.8157
  108MOL0     C14498   7.345   9.941   0.511 -0.6258 -0.2457  0.1415
  108MOL0     C14499   7.710  10.088   0.280  1.0773  0.2163  0.8661
  108MOL0     C14500   7.742   9.982   0.198  0.2214  0.2328 -0.0101
  108MOL0     C14501   7.847   9.994   0.105 -0.5390 -1.5229 -0.1884
  108MOL0     C14502   7.913  10.116   0.089  0.7205  0.2192  1.6951
  108MOL0     O14503   8.004  10.155  -0.019  0.3527  0.8486 -0.8915
  108MOL0     C14504   7.989  10.104  -0.152  0.3812 -0.2315  0.2144
  108MOL0     C14505   8.077   9.984  -0.182 -0.4149  0.7575  0.3474
  108MOL0     C14506   8.096   9.960  -0.334 -0.1120 -0.2902 -0.4919
  108MOL0     C14507   8.233   9.902  -0.366  0.4318 -0.0099  0.0258
  108MOL0     C14508   8.232   9.873  -0.509 -0.2600 -0.4639  0.8766
  108MOL0     C14509   8.230   9.839  -0.628 -0.5125 -0.3059 -0.7583
  108MOL0     C14510   7.875  10.226   0.161  0.4275 -0.7322  0.6558
  108MOL0     C14511   7.775  10.213   0.253  0.0860 -0.2019 -0.4571
  108MOL0     C14512   7.739  10.343   0.327  0.0720  0.4141  0.6007
  108MOL0     H14513   7.556   9.690   0.483  0.6833  0.8470 -1.4263
  108MOL0     H14514   7.424   9.602   0.652  2.2656  1.9760  2.0554
  108MOL0     H14515   7.004   9.767   0.580  0.6153  1.2977  0.7227
  108MOL0     H14516   7.024   9.593   0.580 -1.9758  1.9209 -0.5865
  108MOL0     H14517   6.931   9.569   0.796 -0.5590  0.9842 -0.1844
  108MOL0     H14518   6.830   9.692   0.714  1.3317  3.5132 -2.1123
  108MOL0     H14519   7.004   9.853   0.849 -1.0804 -0.5295 -0.4779
  108MOL0     H14520   7.017   9.710   0.944 -0.3378  0.1858  1.2369
  108MOL0     H14521   6.751   9.820   0.890 -1.1188 -1.2717  1.7953
  108MOL0     H14522   6.799   9.697   0.999 -0.2333  1.3887  1.1154
  108MOL0     H14523   6.750   9.916   1.115 -0.8802 -0.1654 -1.1105
  108MOL0     H14524   6.894   9.815   1.146  1.5036  1.2457  0.3632
  108MOL0     H14525   6.913  10.045   0.956 -0.4982 -3.4014 -0.6142
  108MOL0     H14526   6.880  10.087   1.115 -3.7676 -0.0183 -3.4465
  108MOL0     H14527   7.131  10.087   1.056 -0.7401  0.6523  1.6982
  108MOL0     H14528   7.119   9.906   1.052 -0.0942 -0.1538  1.7316
  108MOL0     H14529   7.011  10.027   1.298 -1.0849  0.1708 -1.1275
  108MOL0     H14530   7.086   9.863   1.253  1.1516 -0.1462 -4.2053
  108MOL0     H14531   7.369   9.924   1.159  0.5701  1.0258 -0.9960
  108MOL0     H14532   7.597  10.036   1.439 -1.0594 -1.4051 -0.5316
  108MOL0     H14533   7.595   9.939   1.291 -0.4518 -0.1538  1.1916
  108MOL0     H14534   7.623  10.173   1.172 -2.1714 -1.4518 -0.2297
  108MOL0     H14535   7.624  10.245   1.339  0.7749  0.0217 -1.5397
  108MOL0     H14536   7.836  10.033   1.268  4.0407  0.2739 -0.1999
  108MOL0     H14537   7.813  10.150   1.400  0.2016  3.5497 -0.5481
  108MOL0     H14538   7.995  10.236   1.259  1.4678 -2.2760 -0.6873
  108MOL0     H14539   7.833  10.326   1.232  1.4127  0.9838  0.1445
  108MOL0     H14540   7.971  10.475   1.101  0.4011  2.9712 -1.9532
  108MOL0     H14541   7.924  10.664   0.929  4.9068  0.2283 -6.3723
  108MOL0     H14542   7.553  10.790   0.626  1.6686 -3.3292 -0.2020
  108MOL0     H14543   7.483  10.983   0.503  0.8420 -1.5227  1.9671
  108MOL0     H14544   7.747  11.224   0.366 -1.4827  1.7695  0.0787
  108MOL0     H14545   7.758  11.187   0.194 -0.3858  0.8878 -0.7587
  108MOL0     H14546   7.518  11.319   0.345 -0.4290  3.2559 -1.3143
  108MOL0     H14547   7.649  11.407   0.264 -1.4301  1.8579 -2.0199
  108MOL0     H14548   7.436  11.209   0.141  0.3587 -0.9104 -0.2520
  108MOL0     H14549   7.426  11.391   0.157  0.6090 -0.2380 -0.1469
  108MOL0     H14550   7.635  11.254  -0.009 -0.8792  0.2114 -1.8745
  108MOL0     H14551   7.618  11.424   0.008  1.4875  0.1562 -2.8414
  108MOL0     H14552   7.501  11.318  -0.197 -1.3767 -0.8980 -1.5853
  108MOL0     H14553   7.393  11.425  -0.106  4.3349  1.9232 -2.6435
  108MOL0     H14554   7.397  11.136  -0.102  2.3236  0.4473 -1.6016
  108MOL0     H14555   7.275  11.249  -0.014  0.4708 -0.3989  0.0334
  108MOL0     H14556   7.290  11.302  -0.310  1.2226 -0.9212  0.2077
  108MOL0     H14557   7.157  11.293  -0.206 -0.7863  0.4245 -0.1022
  108MOL0     H14558   7.324  11.068  -0.314  1.1453  1.6884  0.8355
  108MOL0     H14559   7.179  11.037  -0.216 -0.8816  3.0232  1.0029
  108MOL0     H14560   7.836  10.969   0.262  0.9784  0.9839  1.1903
  108MOL0     H14561   7.908  10.761   0.428 -0.8661 -1.7835 -0.9031
  108MOL0     H14562   7.730  10.375   0.681 -1.9887 -0.5672  0.9471
  108MOL0     H14563   7.773  10.200   0.821  0.2526 -0.8642  0.8716
  108MOL0     H14564   7.147   9.938   0.604 -1.0826 -1.0661  0.5417
  108MOL0     H14565   7.331  10.046   0.485  1.5138  0.3304  1.0643
  108MOL0     H14566   7.680   9.893   0.206 -0.3495  0.7460  2.1633
  108MOL0     H14567   7.871   9.914   0.037  0.0837 -2.4468  1.0694
  108MOL0     H14568   8.033  10.183  -0.213 -0.6907 -1.7579 -2.7207
  108MOL0     H14569   7.886  10.079  -0.179  0.9955 -1.6740 -0.9583
  108MOL0     H14570   8.050   9.894  -0.126 -3.0723  0.4443 -1.2528
  108MOL0     H14571   8.179  10.005  -0.148 -0.6290  0.7385  1.0191
  108MOL0     H14572   8.093  10.052  -0.393 -0.8183  0.4202  0.5995
  108MOL0     H14573   8.014   9.904  -0.379  0.4134  0.7053 -2.8218
  108MOL0     H14574   8.317   9.966  -0.335  2.5267 -1.6492 -1.9372
  108MOL0     H14575   8.252   9.803  -0.323 -0.0711 -1.3431 -2.6404
  108MOL0     H14576   8.241   9.805  -0.729 -1.5436  1.2720 -1.4364
  108MOL0     H14577   7.930  10.318   0.147 -1.9677  0.7135  0.2487
  108MOL0     H14578   7.778  10.322   0.427 -1.2499  0.8046  1.2214
  108MOL0     H14579   7.799  10.424   0.283  0.7291 -0.1047  0.5203
  108MOL0     H14580   7.632  10.363   0.327 -0.1304  0.0671 -3.1133
  109MOL0     O14581   7.274   5.389   7.304 -0.5463  0.1798 -0.5505
  109MOL0     C14582   7.220   5.324   7.216  1.5053 -0.1103 -0.7465
  109MOL0     O14583   7.251   5.325   7.084 -0.1318 -0.3863  0.1942
  109MOL0     C14584   7.368   5.399   7.062  0.4057  0.3940 -0.2654
  109MOL0     C14585   7.489   5.330   7.077  0.9872 -0.3414 -0.2305
  109MOL0     C14586   7.612   5.392   7.061  0.0075 -1.5614 -0.1790
  109MOL0     C14587   7.613   5.520   7.016 -0.8163 -0.4558  1.0360
  109MOL0     O14588   7.732   5.562   6.962 -0.3589  0.4751  0.5089
  109MOL0     C14589   7.748   5.690   6.890  0.3506 -0.0878 -0.5592
  109MOL0     C14590   7.897   5.705   6.862 -0.2784 -0.1517 -0.2086
  109MOL0     C14591   7.942   5.845   6.820  0.0790 -0.6450 -0.3820
  109MOL0     C14592   8.103   5.848   6.823 -0.1035  0.4698  0.2103
  109MOL0     C14593   8.162   5.761   6.721  0.1516  0.3171 -0.5833
  109MOL0     C14594   8.320   5.756   6.751  0.2591 -0.9140  0.2310
  109MOL0     C14595   8.398   5.882   6.709 -0.6392 -0.0254  0.4567
  109MOL0     C14596   8.473   5.939   6.827 -0.4080 -0.5579  0.3407
  109MOL0     N14597   8.399   5.957   6.952  0.2797 -0.6724  0.7427
  109MOL0     C14598   8.302   6.047   6.981  0.0168 -0.9127 -0.1134
  109MOL0     C14599   8.276   6.036   7.112  0.1072 -0.0765  0.8692
  109MOL0     C14600   8.170   6.118   7.196  0.1591  0.8480 -0.3536
  109MOL0     C14601   8.033   6.057   7.180  0.4300  0.5221  1.2254
  109MOL0     C14602   7.957   6.120   7.072  0.8525 -0.1245  0.0751
  109MOL0     C14603   7.819   6.068   7.094  0.4588  0.0552 -0.4805
  109MOL0     O14604   7.738   6.117   6.991 -0.2712 -0.3711  0.2805
  109MOL0     C14605   7.604   6.077   6.992 -0.6007 -0.6540 -0.0503
  109MOL0     C14606   7.548   5.987   7.085  0.1546  0.1451 -0.9834
  109MOL0     C14607   7.419   5.928   7.069 -1.0476 -1.1495  0.4562
  109MOL0     C14608   7.352   5.943   6.947 -0.3140 -0.2796  0.1935
  109MOL0     C14609   7.229   5.876   6.927  0.0736  0.2694 -0.5117
  109MOL0     O14610   7.166   5.880   6.814  0.1221  0.3372  0.2363
  109MOL0     C14611   7.075   5.774   6.789  0.1216 -0.0807  1.1263
  109MOL0     C14612   6.941   5.790   6.834 -0.1361  1.8768 -1.1782
  109MOL0     C14613   6.847   5.692   6.814 -0.8828 -0.0151  0.3974
  109MOL0     C14614   6.885   5.580   6.741  0.7093  0.5666  0.2916
  109MOL0     O14615   6.791   5.482   6.707 -0.0470  0.3454 -0.3852
  109MOL0     C14616   6.653   5.505   6.743  0.0634  0.3975 -0.1263
  109MOL0     C14617   6.569   5.384   6.725 -0.3320 -0.4526 -0.2001
  109MOL0     C14618   6.577   5.331   6.576 -0.1754 -0.0875 -0.7282
  109MOL0     C14619   6.504   5.196   6.561  0.0760  0.6501 -0.5094
  109MOL0     C14620   6.481   5.159   6.416  0.6523 -0.2256 -0.3019
  109MOL0     C14621   6.413   5.029   6.388  0.0997  0.3103 -1.1513
  109MOL0     C14622   6.469   4.907   6.464  0.4155 -0.7204 -0.2847
  109MOL0     C14623   6.606   4.880   6.415  0.0392 -0.1458  1.0532
  109MOL0    Cl14624   6.619   4.804   6.253 -0.3491 -0.1336 -0.0311
  109MOL0     C14625   7.019   5.562   6.695 -1.1975  0.0148  0.4107
  109MOL0     C14626   7.111   5.659   6.719  0.1557 -0.0458  0.2532
  109MOL0     O14627   7.179   5.821   7.028 -0.9018  0.1495  0.0374
  109MOL0     C14628   7.404   6.028   6.851 -0.3239  0.4887 -0.5787
  109MOL0     C14629   7.532   6.091   6.880  1.4064  1.0904  0.8514
  109MOL0     N14630   8.344   5.931   7.150 -0.0628  0.6429  0.5150
  109MOL0     N14631   8.429   5.896   7.065 -0.0137 -0.6845  0.2587
  109MOL0     C14632   7.492   5.598   7.002 -0.6239  0.1364  0.0983
  109MOL0     C14633   7.369   5.537   7.027 -0.3975 -0.3663 -0.0948
  109MOL0     C14634   7.106   5.246   7.266  0.7184  0.1308 -0.5419
  109MOL0     C14635   7.078   5.238   7.406 -0.7479  0.4584 -0.0540
  109MOL0     C14636   6.971   5.169   7.466 -1.1051 -0.1532  0.3729
  109MOL0     C14637   6.882   5.098   7.377 -0.6047 -0.0550 -1.5034
  109MOL0     O14638   6.792   5.005   7.413  0.1971  0.0047  0.1956
  109MOL0     C14639   6.781   4.953   7.537  0.5767  0.0098  0.3310
  109MOL0     C14640   6.693   4.831   7.531 -0.0929 -0.2748 -0.5460
  109MOL0     C14641   6.773   4.714   7.488  0.1469 -0.0491  0.8230
  109MOL0     C14642   6.711   4.602   7.398 -0.3512 -1.0961  1.3762
  109MOL0     C14643   6.677   4.655   7.268 -0.1936 -0.6333  0.8886
  109MOL0     C14644   6.668   4.705   7.150  0.2998  1.0889  0.6749
  109MOL0     C14645   6.894   5.111   7.242  0.1450  0.6403  0.2897
  109MOL0     C14646   7.009   5.173   7.192 -0.5426 -0.3321  0.1562
  109MOL0     C14647   7.047   5.146   7.056  0.8074 -0.1480  0.0703
  109MOL0     H14648   7.498   5.224   7.095 -1.4645 -0.6694 -0.6259
  109MOL0     H14649   7.703   5.334   7.066  0.7902 -0.2673  3.4873
  109MOL0     H14650   7.696   5.690   6.794 -2.4812  0.1568  0.8906
  109MOL0     H14651   7.713   5.775   6.950  0.1632 -1.2105  0.9889
  109MOL0     H14652   7.916   5.620   6.796  0.5185 -0.8607  0.8885
  109MOL0     H14653   7.946   5.685   6.958 -0.8128 -0.6467 -0.0290
  109MOL0     H14654   7.898   5.926   6.879  0.7626 -0.6157  0.1031
  109MOL0     H14655   7.910   5.863   6.717 -4.0057 -2.1039  0.4514
  109MOL0     H14656   8.126   5.952   6.799  0.6525  0.1233 -0.6181
  109MOL0     H14657   8.134   5.823   6.924  0.9827 -1.0468 -0.4747
  109MOL0     H14658   8.119   5.664   6.748 -0.4770  1.2410  2.0205
  109MOL0     H14659   8.144   5.802   6.622 -0.6169  4.6725  1.1473
  109MOL0     H14660   8.318   5.715   6.852 -2.7146 -0.2155  0.5692
  109MOL0     H14661   8.365   5.686   6.680  2.7977  0.3896  0.4364
  109MOL0     H14662   8.339   5.963   6.667  0.3296  1.4642  1.8310
  109MOL0     H14663   8.475   5.856   6.637 -1.5057 -0.6135 -0.2749
  109MOL0     H14664   8.564   5.882   6.847 -0.1619  0.0344  0.9276
  109MOL0     H14665   8.502   6.040   6.796  0.4551 -0.1612  2.3004
  109MOL0     H14666   8.250   6.120   6.919 -0.4857  0.3404  1.7266
  109MOL0     H14667   8.191   6.114   7.304  0.7671  3.1771 -0.3320
  109MOL0     H14668   8.180   6.219   7.156  4.6127  0.3424 -1.1117
  109MOL0     H14669   8.050   5.951   7.158 -0.3910  0.6211  0.0278
  109MOL0     H14670   7.985   6.078   7.276  1.5220  3.6150  1.2048
  109MOL0     H14671   7.991   6.080   6.976  1.4920 -1.9248  0.9875
  109MOL0     H14672   7.964   6.229   7.069 -1.9817  0.1168 -0.9602
  109MOL0     H14673   7.784   6.093   7.195  2.4716  4.4657 -0.6462
  109MOL0     H14674   7.824   5.958   7.095  2.5923  0.0885  1.6305
  109MOL0     H14675   7.593   5.969   7.182 -0.0245 -1.3086 -1.1359
  109MOL0     H14676   7.368   5.885   7.154 -3.8472  2.2891  0.7364
  109MOL0     H14677   6.919   5.880   6.890 -2.4401  0.9007 -0.3897
  109MOL0     H14678   6.744   5.698   6.848 -0.5997  2.6002  0.9931
  109MOL0     H14679   6.638   5.536   6.847 -0.2373  2.4239 -0.7264
  109MOL0     H14680   6.604   5.581   6.681  0.1605  3.8484  3.5942
  109MOL0     H14681   6.591   5.313   6.805 -2.4793 -0.6730  0.2612
  109MOL0     H14682   6.466   5.417   6.739  0.5228  1.2542  3.1401
  109MOL0     H14683   6.532   5.392   6.497 -0.9708  0.4849  0.1459
  109MOL0     H14684   6.683   5.314   6.556 -0.0690  0.5420 -0.7280
  109MOL0     H14685   6.406   5.197   6.610 -1.4448  0.9778 -3.3552
  109MOL0     H14686   6.563   5.126   6.621  0.6287  1.1456 -0.4625
  109MOL0     H14687   6.569   5.164   6.351 -0.4031 -0.7736 -1.8370
  109MOL0     H14688   6.413   5.235   6.378  1.5120  1.4598  1.3991
  109MOL0     H14689   6.308   5.037   6.417  0.0274  0.3762 -1.4274
  109MOL0     H14690   6.415   5.015   6.279  0.5113 -1.7005 -0.9204
  109MOL0     H14691   6.413   4.816   6.438  1.4715 -1.8430  1.2063
  109MOL0     H14692   6.456   4.927   6.570 -2.1640  3.0705 -1.1294
  109MOL0     H14693   6.665   4.972   6.416 -0.7540  0.4521 -1.4803
  109MOL0     H14694   6.651   4.807   6.483  1.0246  0.3564  0.9611
  109MOL0     H14695   7.044   5.469   6.645 -1.4034  1.0269 -1.6681
  109MOL0     H14696   7.212   5.633   6.688 -1.7327 -4.0282 -3.7829
  109MOL0     H14697   7.367   6.059   6.754  1.3348  0.9417 -1.1048
  109MOL0     H14698   7.557   6.168   6.808  1.1244  1.1319  0.7937
  109MOL0     H14699   7.501   5.697   6.960  1.4270 -0.7361 -1.7122
  109MOL0     H14700   7.273   5.587   7.027  0.3082  1.1002 -1.5398
  109MOL0     H14701   7.139   5.300   7.470 -2.2720  1.3615  0.5854
  109MOL0     H14702   6.982   5.151   7.573  0.6156 -4.0379 -0.2569
  109MOL0     H14703   6.731   5.015   7.612  0.2946  0.4028 -0.1746
  109MOL0     H14704   6.882   4.937   7.578  0.4344  0.5006  0.8848
  109MOL0     H14705   6.617   4.856   7.457 -0.6814  0.1417  0.1888
  109MOL0     H14706   6.641   4.815   7.625 -2.5341 -1.8135 -2.0624
  109MOL0     H14707   6.785   4.660   7.583 -0.7408 -2.6475 -0.4505
  109MOL0     H14708   6.866   4.738   7.438  1.1254  0.5149  2.7983
  109MOL0     H14709   6.790   4.527   7.390 -0.3138 -0.8351 -2.0314
  109MOL0     H14710   6.623   4.559   7.448 -2.8034  1.8888 -0.0392
  109MOL0     H14711   6.673   4.761   7.059  2.2262  2.6338  1.6468
  109MOL0     H14712   6.841   5.047   7.173  0.7768 -0.9791  1.2417
  109MOL0     H14713   6.972   5.086   7.002  0.2473  0.9804 -0.4578
  109MOL0     H14714   7.046   5.234   6.991 -2.5322  0.0194  0.1555
  109MOL0     H14715   7.148   5.104   7.051  3.5808  5.2917  2.7662
  110MOL0     O14716   4.820   0.520   1.998 -0.8903 -0.4792  0.0732
  110MOL0     C14717   4.755   0.457   1.917 -0.0047 -0.3105  0.1663
  110MOL0     O14718   4.617   0.449   1.904 -0.2163  0.6723  0.5674
  110MOL0     C14719   4.541   0.528   1.986 -0.4993  0.2824  0.3388
  110MOL0     C14720   4.520   0.484   2.118  0.5288 -0.1497  0.1728
  110MOL0     C14721   4.465   0.559   2.215 -0.1785  0.0727  0.1031
  110MOL0     C14722   4.412   0.682   2.176  0.9600  0.5559 -0.2312
  110MOL0     O14723   4.345   0.773   2.254 -0.8888 -0.4921 -0.4792
  110MOL0     C14724   4.332   0.757   2.403 -0.1398 -0.2728 -0.0405
  110MOL0     C14725   4.214   0.678   2.434 -0.9815  0.4015 -0.0080
  110MOL0     C14726   4.082   0.749   2.380 -0.5734  0.1704  0.2247
  110MOL0     C14727   4.045   0.718   2.242  0.6969 -0.9205 -0.0635
  110MOL0     C14728   3.911   0.768   2.185  0.5749  0.8926 -0.8983
  110MOL0     C14729   3.787   0.715   2.268 -0.0666 -0.2535 -1.0957
  110MOL0     C14730   3.763   0.557   2.264 -0.2141  0.1120  0.7773
  110MOL0     C14731   3.627   0.513   2.320 -0.1964  0.4932  0.6566
  110MOL0     N14732   3.526   0.523   2.208 -0.5131  0.3331  0.1367
  110MOL0     C14733   3.528   0.452   2.085  0.0077 -0.6813 -0.0254
  110MOL0     C14734   3.430   0.516   2.014  0.0913 -0.9461  0.2131
  110MOL0     C14735   3.382   0.484   1.879 -0.5948  0.4805 -0.6422
  110MOL0     C14736   3.472   0.569   1.783 -0.0646  0.0738  0.0081
  110MOL0     C14737   3.435   0.549   1.633  0.2295 -0.6061  0.7695
  110MOL0     C14738   3.430   0.685   1.570 -0.6560  0.4377  0.0541
  110MOL0     O14739   3.355   0.665   1.439  0.0803  0.4793  0.8768
  110MOL0     C14740   3.431   0.671   1.322  0.2630  0.4637  0.6352
  110MOL0     C14741   3.358   0.634   1.211 -0.7065  1.0090  0.0400
  110MOL0     C14742   3.417   0.600   1.094  1.1058 -0.0078 -0.7250
  110MOL0     C14743   3.555   0.622   1.081 -0.3727  0.1501  0.5686
  110MOL0     C14744   3.622   0.593   0.952  0.5639  0.7992 -0.3946
  110MOL0     O14745   3.558   0.619   0.842  0.5532  0.3549 -0.0339
  110MOL0     C14746   3.615   0.603   0.719  0.2261  0.0933 -0.7189
  110MOL0     C14747   3.737   0.667   0.690 -0.0811  0.4256  1.0077
  110MOL0     C14748   3.794   0.641   0.560  0.6572 -1.3617 -0.0125
  110MOL0     C14749   3.729   0.566   0.463  0.6105  0.5261  0.1900
  110MOL0     O14750   3.788   0.528   0.342  0.1538  0.7929  0.3945
  110MOL0     C14751   3.927   0.562   0.329  0.2091  0.7794  0.8523
  110MOL0     C14752   3.968   0.497   0.192  0.5570  0.4470 -0.1122
  110MOL0     C14753   4.111   0.557   0.136  0.0270  0.8467  1.2654
  110MOL0     C14754   4.231   0.527   0.229  0.5073 -0.6580  0.2112
  110MOL0     C14755   4.268   0.388   0.255  0.4941  1.3127 -0.0641
  110MOL0     C14756   4.400   0.390   0.330 -0.2735 -0.7857 -0.0287
  110MOL0     C14757   4.421   0.246   0.367 -0.2131 -0.2964 -0.5158
  110MOL0     C14758   4.546   0.208   0.442 -0.0885 -0.0803  0.4992
  110MOL0    Cl14759   4.699   0.280   0.381  0.3143  0.3112  0.1518
  110MOL0     C14760   3.602   0.518   0.484  0.4433  0.2261 -0.2787
  110MOL0     C14761   3.545   0.534   0.613  0.4934 -0.3553 -0.2393
  110MOL0     O14762   3.742   0.547   0.959  0.5998 -0.2402 -0.5020
  110MOL0     C14763   3.628   0.667   1.186 -0.5099  0.9274 -0.9439
  110MOL0     C14764   3.571   0.692   1.313 -0.9043  0.2450 -0.4146
  110MOL0     N14765   3.366   0.604   2.102  0.1575 -0.3452 -1.0714
  110MOL0     N14766   3.426   0.614   2.210 -0.8690  0.3281  0.8573
  110MOL0     C14767   4.437   0.735   2.048 -0.4815 -0.2146  0.3817
  110MOL0     C14768   4.505   0.654   1.950  0.6555  0.4085 -0.1958
  110MOL0     C14769   4.838   0.369   1.828  0.5220 -0.6912  1.3103
  110MOL0     C14770   4.777   0.257   1.772 -0.9051  0.5853 -1.6212
  110MOL0     C14771   4.845   0.159   1.703 -0.8249  0.0015 -0.4919
  110MOL0     C14772   4.984   0.166   1.690  0.1557 -0.3238 -0.1140
  110MOL0     O14773   5.063   0.076   1.634 -0.1499 -0.0891  0.2344
  110MOL0     C14774   5.170   0.013   1.723 -0.1731 -0.1676  1.1600
  110MOL0     C14775   5.092  -0.085   1.823 -0.3470  0.2357  0.4735
  110MOL0     C14776   5.165  -0.126   1.957  0.5296 -0.7372  0.4231
  110MOL0     C14777   5.304  -0.199   1.922  0.6508  0.0819 -0.0546
  110MOL0     C14778   5.280  -0.330   1.878  1.3042  0.2708 -0.3748
  110MOL0     C14779   5.255  -0.444   1.830  0.1375 -0.3147 -0.0032
  110MOL0     C14780   5.046   0.282   1.724 -0.2371 -0.0143 -0.1388
  110MOL0     C14781   4.972   0.388   1.792 -0.4486  0.7719 -0.6548
  110MOL0     C14782   5.052   0.508   1.844 -0.3989  0.9181  1.3209
  110MOL0     H14783   4.563   0.392   2.156 -3.4553 -1.4279  2.1631
  110MOL0     H14784   4.457   0.526   2.318  0.8911 -3.8444 -0.8964
  110MOL0     H14785   4.424   0.721   2.449 -0.3982  0.4964  1.1245
  110MOL0     H14786   4.304   0.854   2.444 -1.3776  0.7397 -2.9775
  110MOL0     H14787   4.207   0.669   2.543  0.3925 -0.1352  0.0561
  110MOL0     H14788   4.211   0.577   2.390  1.4598 -0.7130  2.1417
  110MOL0     H14789   4.101   0.856   2.384  2.5721 -0.2128 -1.1597
  110MOL0     H14790   3.991   0.726   2.435 -0.0765  0.2573  1.1102
  110MOL0     H14791   4.123   0.768   2.184  1.4928 -0.6606  1.1955
  110MOL0     H14792   4.049   0.610   2.222  0.2934 -0.9483 -0.0052
  110MOL0     H14793   3.900   0.876   2.194 -0.4134  0.6842  1.0085
  110MOL0     H14794   3.904   0.735   2.081 -1.3170  0.7661 -0.7719
  110MOL0     H14795   3.793   0.752   2.371 -0.8488  0.2906 -1.2333
  110MOL0     H14796   3.693   0.757   2.230  2.0858  1.4503 -5.1962
  110MOL0     H14797   3.838   0.500   2.320 -0.8425 -1.9722 -0.3989
  110MOL0     H14798   3.762   0.528   2.158 -1.8230 -0.1928  0.8444
  110MOL0     H14799   3.630   0.406   2.342  0.1412  0.2587 -0.4726
  110MOL0     H14800   3.594   0.571   2.406 -1.3230 -1.4039  1.5652
  110MOL0     H14801   3.601   0.377   2.055 -0.7479 -1.7699  0.7987
  110MOL0     H14802   3.387   0.375   1.864 -3.4131  0.3526 -1.2576
  110MOL0     H14803   3.278   0.517   1.868 -0.9730 -0.5076 -0.1121
  110MOL0     H14804   3.453   0.674   1.811 -0.5558  0.0103 -0.0688
  110MOL0     H14805   3.579   0.558   1.803  0.6130  2.1318 -2.0576
  110MOL0     H14806   3.337   0.505   1.613  0.0861  0.5196 -1.2312
  110MOL0     H14807   3.510   0.489   1.581 -0.9760 -0.3432 -1.3781
  110MOL0     H14808   3.526   0.736   1.559 -1.3473  1.7706 -0.0171
  110MOL0     H14809   3.366   0.754   1.627  0.0181  2.2092 -1.2439
  110MOL0     H14810   3.253   0.616   1.230 -0.9339  3.2479  1.2769
  110MOL0     H14811   3.360   0.549   1.016  0.2183  1.5767 -1.1404
  110MOL0     H14812   3.786   0.732   0.763  1.7564 -1.3384  1.4548
  110MOL0     H14813   3.890   0.683   0.530  0.0680  0.0918  0.0297
  110MOL0     H14814   3.944   0.669   0.317  2.0739  0.5019  0.7621
  110MOL0     H14815   4.000   0.526   0.403  1.3915 -0.7186 -0.9535
  110MOL0     H14816   3.976   0.389   0.207  1.6171  0.0426 -3.0028
  110MOL0     H14817   3.911   0.524   0.102  1.4347  0.7271 -0.6041
  110MOL0     H14818   4.145   0.514   0.041  3.4104  4.4381  0.5932
  110MOL0     H14819   4.109   0.666   0.121  3.8903  0.5240 -5.5854
  110MOL0     H14820   4.205   0.579   0.321 -0.7076 -3.3325  1.4982
  110MOL0     H14821   4.318   0.587   0.201 -0.7054  0.0457 -2.4576
  110MOL0     H14822   4.278   0.342   0.156 -1.1688  0.2471  0.2121
  110MOL0     H14823   4.189   0.335   0.309 -1.8726  2.9414 -1.7262
  110MOL0     H14824   4.479   0.435   0.269 -2.5266  1.4901 -1.4691
  110MOL0     H14825   4.395   0.466   0.408  1.0831  1.3405 -1.8865
  110MOL0     H14826   4.439   0.203   0.268  2.6117 -0.7423  0.1257
  110MOL0     H14827   4.330   0.205   0.411 -0.0317 -1.0127 -0.7994
  110MOL0     H14828   4.544   0.261   0.538  0.5808  2.8608 -0.9698
  110MOL0     H14829   4.561   0.100   0.454 -1.5371 -0.6362 -2.0743
  110MOL0     H14830   3.547   0.455   0.415  0.2713  0.1985 -0.1178
  110MOL0     H14831   3.446   0.494   0.632  1.5502 -3.8974 -1.3363
  110MOL0     H14832   3.735   0.683   1.173 -0.4136  0.7666 -0.3440
  110MOL0     H14833   3.637   0.737   1.386 -0.6042  1.9226 -1.6733
  110MOL0     H14834   4.407   0.836   2.023 -1.3056 -0.0364  1.9738
  110MOL0     H14835   4.515   0.701   1.853  1.6131  0.1734 -0.2231
  110MOL0     H14836   4.672   0.230   1.781 -0.4540 -1.7771 -2.5328
  110MOL0     H14837   4.797   0.069   1.665 -0.7722  0.3632 -1.4506
  110MOL0     H14838   5.221   0.084   1.789 -3.3580  1.5692  1.9274
  110MOL0     H14839   5.251  -0.022   1.658  0.0292  1.9902  0.1710
  110MOL0     H14840   5.076  -0.179   1.769  1.2154  1.4378 -2.2630
  110MOL0     H14841   4.992  -0.053   1.855 -1.0423 -1.5839  0.2678
  110MOL0     H14842   5.100  -0.187   2.020  0.5201  0.3828  1.5272
  110MOL0     H14843   5.189  -0.039   2.019  2.4010 -0.0459 -1.1681
  110MOL0     H14844   5.367  -0.138   1.856  1.3023 -0.2379  0.2650
  110MOL0     H14845   5.344  -0.216   2.023  0.7247 -0.0386 -0.1048
  110MOL0     H14846   5.240  -0.544   1.795 -0.2455 -0.5176  0.7324
  110MOL0     H14847   5.145   0.299   1.683  0.1459 -1.1166  0.3158
  110MOL0     H14848   5.154   0.507   1.805 -0.4661 -0.5343  1.1268
  110MOL0     H14849   5.005   0.606   1.838 -2.4615  0.1199  3.1851
  110MOL0     H14850   5.066   0.495   1.952  3.3501  0.0605  0.8718
  111MOL0     O14851   8.128   9.618   0.134 -0.4053  0.6966  0.1326
  111MOL0     C14852   8.208   9.706   0.114 -0.4172  1.1077  0.3849
  111MOL0     O14853   8.225   9.814   0.195  0.1401 -0.6291 -0.1514
  111MOL0     C14854   8.163   9.810   0.313 -0.1662 -0.9353 -0.3195
  111MOL0     C14855   8.070   9.907   0.333 -0.1727  1.2176 -0.2203
  111MOL0     C14856   8.003   9.914   0.452  1.2703 -0.7890  0.0761
  111MOL0     C14857   8.036   9.835   0.561 -0.2140  0.0360  0.2969
  111MOL0     O14858   7.988   9.860   0.692 -0.4887 -0.0316  0.3551
  111MOL0     C14859   7.854   9.902   0.703 -0.3942 -0.5547 -0.1920
  111MOL0     C14860   7.824   9.887   0.855 -0.1941 -0.5427 -0.7528
  111MOL0     C14861   7.669   9.870   0.886 -0.1022  0.2576 -0.9063
  111MOL0     C14862   7.633   9.716   0.871  0.6186 -0.6775 -0.5726
  111MOL0     C14863   7.507   9.678   0.941  0.2186  0.5418 -0.1670
  111MOL0     C14864   7.497   9.524   0.956 -0.9150 -0.5557 -0.1368
  111MOL0     C14865   7.386   9.462   1.032 -0.1945 -0.0505  1.0143
  111MOL0     C14866   7.256   9.436   0.953 -0.5727 -0.4315 -0.7157
  111MOL0     N14867   7.286   9.350   0.843 -0.2112  0.5872  0.4878
  111MOL0     C14868   7.256   9.368   0.709 -0.2205  0.5457 -0.7727
  111MOL0     C14869   7.331   9.270   0.637  0.5461  0.0221 -0.4725
  111MOL0     C14870   7.339   9.254   0.495  0.2098 -0.1768  1.4201
  111MOL0     C14871   7.474   9.195   0.441  0.9229 -1.2033  0.2553
  111MOL0     C14872   7.458   9.043   0.433  0.9741  0.5109  0.6078
  111MOL0     C14873   7.559   8.986   0.334 -0.1375 -1.2255 -0.0212
  111MOL0     O14874   7.526   9.030   0.201  0.2241 -0.3024 -0.7445
  111MOL0     C14875   7.595   9.006   0.095 -0.4307  0.8072  0.3710
  111MOL0     C14876   7.542   9.059  -0.025 -1.0001 -0.9770 -0.9797
  111MOL0     C14877   7.618   9.059  -0.144 -0.0915  0.6844  0.5694
  111MOL0     C14878   7.737   8.993  -0.148 -0.4097  0.4333 -0.5085
  111MOL0     C14879   7.796   8.961  -0.275 -0.1450 -0.0624 -0.4343
  111MOL0     O14880   7.925   8.920  -0.274  0.1994  0.3495  0.1983
  111MOL0     C14881   7.971   8.894  -0.398  0.6798  0.0519 -0.1424
  111MOL0     C14882   8.025   8.997  -0.474 -0.3577 -0.3497  0.4142
  111MOL0     C14883   8.084   8.974  -0.597 -0.1147  0.2443  0.1442
  111MOL0     C14884   8.089   8.843  -0.640  0.4930 -0.5315  0.5685
  111MOL0     O14885   8.128   8.801  -0.766  0.1903 -0.3222 -0.1657
  111MOL0     C14886   8.145   8.901  -0.875 -0.5274  0.4071 -0.1040
  111MOL0     C14887   8.287   8.886  -0.938  0.1380  0.5352 -0.3108
  111MOL0     C14888   8.395   8.898  -0.832 -0.1618 -0.1071 -0.7203
  111MOL0     C14889   8.535   8.854  -0.892  0.6780  0.3097 -1.1052
  111MOL0     C14890   8.653   8.879  -0.791  0.8496  0.2138 -0.3194
  111MOL0     C14891   8.771   8.894  -0.879  0.0780  0.0770 -0.8111
  111MOL0     C14892   8.888   8.936  -0.790 -0.4397  0.1717  0.0254
  111MOL0     C14893   9.008   8.993  -0.870  0.0174  0.0424  0.1519
  111MOL0    Cl14894   9.064   8.876  -0.994 -0.4736  0.1141  0.0366
  111MOL0     C14895   8.039   8.739  -0.564  1.5637  0.6259 -0.2471
  111MOL0     C14896   7.977   8.760  -0.438 -0.4075 -0.5938 -0.1567
  111MOL0     O14897   7.728   8.977  -0.375  0.0084  0.0144 -0.4772
  111MOL0     C14898   7.787   8.933  -0.034  0.9900  0.3227  0.0901
  111MOL0     C14899   7.720   8.947   0.092 -0.1147  0.0447  0.4411
  111MOL0     N14900   7.386   9.186   0.730 -0.2848  1.0187  1.2910
  111MOL0     N14901   7.348   9.228   0.851  0.6247  0.0335 -0.0857
  111MOL0     C14902   8.129   9.728   0.545 -0.2341  0.3504 -0.2020
  111MOL0     C14903   8.180   9.707   0.406 -0.8399  0.1406 -0.5265
  111MOL0     C14904   8.322   9.679   0.010 -0.0171 -0.1123 -0.2231
  111MOL0     C14905   8.445   9.743   0.035  0.1753  0.4981 -0.6828
  111MOL0     C14906   8.558   9.728  -0.043  0.3089 -0.5029  0.0718
  111MOL0     C14907   8.545   9.657  -0.163  0.0238 -1.0809 -0.7079
  111MOL0     O14908   8.650   9.643  -0.246  0.5611 -0.0470 -0.1640
  111MOL0     C14909   8.706   9.513  -0.252  0.6038 -0.9543  0.0678
  111MOL0     C14910   8.818   9.494  -0.156 -0.4541 -0.5876 -0.4321
  111MOL0     C14911   8.840   9.354  -0.098 -0.3748  0.0598  0.5178
  111MOL0     C14912   8.964   9.352  -0.012  0.1823 -0.0496  0.9189
  111MOL0     C14913   9.009   9.219   0.022  1.3629  1.0128  0.3554
  111MOL0     C14914   9.045   9.107   0.054  0.0304 -0.0174 -1.0427
  111MOL0     C14915   8.421   9.610  -0.202 -0.3492 -0.0969 -0.3112
  111MOL0     C14916   8.312   9.613  -0.119  0.8711 -0.0010  0.4885
  111MOL0     C14917   8.169   9.562  -0.168  0.0070 -0.7854  0.0854
  111MOL0     H14918   8.062   9.977   0.250  0.5825 -0.5060 -1.8099
  111MOL0     H14919   7.938  10.001   0.461 -0.4607 -1.8710 -1.2477
  111MOL0     H14920   7.839  10.005   0.668  1.6601 -0.0681  0.2245
  111MOL0     H14921   7.793   9.836   0.640 -0.9381 -0.4482  0.2150
  111MOL0     H14922   7.868   9.966   0.917  2.5458 -2.8816  0.5497
  111MOL0     H14923   7.871   9.797   0.896 -1.2773  0.7065  3.8111
  111MOL0     H14924   7.605   9.936   0.828 -0.6498 -0.0609 -0.6768
  111MOL0     H14925   7.645   9.893   0.991 -0.1070 -1.0190 -0.6117
  111MOL0     H14926   7.623   9.691   0.765 -1.0937  1.1699 -0.9097
  111MOL0     H14927   7.708   9.652   0.919  0.3069  0.0189  0.9125
  111MOL0     H14928   7.505   9.726   1.039  1.5567  0.4444 -0.0642
  111MOL0     H14929   7.421   9.712   0.883 -0.7079 -2.2572 -0.5628
  111MOL0     H14930   7.491   9.506   0.848 -0.3066  1.1482 -0.4800
  111MOL0     H14931   7.590   9.487   1.000 -1.4368 -0.4761  1.0763
  111MOL0     H14932   7.363   9.531   1.113 -0.6161 -0.5962  1.3623
  111MOL0     H14933   7.417   9.367   1.076 -0.2614 -0.6009 -0.0811
  111MOL0     H14934   7.196   9.384   1.028  1.1899 -1.5732 -0.0200
  111MOL0     H14935   7.218   9.536   0.932  2.6191  0.8276 -1.0797
  111MOL0     H14936   7.202   9.454   0.672  2.6520  2.5579 -0.6761
  111MOL0     H14937   7.252   9.196   0.464  1.3576 -1.3280  0.2166
  111MOL0     H14938   7.320   9.349   0.445 -0.7194 -1.3603 -0.5778
  111MOL0     H14939   7.480   9.244   0.344 -0.9452 -1.0907  0.1608
  111MOL0     H14940   7.567   9.220   0.493  1.3266  1.6814 -1.6561
  111MOL0     H14941   7.356   9.019   0.399  1.3503  2.0978 -1.8846
  111MOL0     H14942   7.470   9.003   0.534 -0.1222 -0.0889  0.5148
  111MOL0     H14943   7.565   8.877   0.341  1.1551 -1.0830  1.9954
  111MOL0     H14944   7.658   9.025   0.362  0.2665 -1.2753 -1.3081
  111MOL0     H14945   7.450   9.117  -0.016  0.3862  1.1672  0.5211
  111MOL0     H14946   7.581   9.096  -0.240 -0.3233 -1.1335 -0.0850
  111MOL0     H14947   8.024   9.098  -0.435 -0.5809 -0.1568 -0.0863
  111MOL0     H14948   8.126   9.063  -0.644 -3.7056  2.8478  1.4238
  111MOL0     H14949   8.069   8.876  -0.950 -0.9200  1.0023  0.0858
  111MOL0     H14950   8.131   9.004  -0.842  0.1714  0.1505  1.0586
  111MOL0     H14951   8.305   8.785  -0.977 -0.8951 -2.0635  4.9574
  111MOL0     H14952   8.308   8.964  -1.012  3.2432  2.4535  2.3208
  111MOL0     H14953   8.423   9.002  -0.814  2.9770 -0.6603 -1.7787
  111MOL0     H14954   8.370   8.855  -0.734 -0.5960  2.6857  0.5041
  111MOL0     H14955   8.558   8.891  -0.993 -1.8157 -1.1656 -2.3038
  111MOL0     H14956   8.531   8.749  -0.920  2.4148 -0.1121  0.0735
  111MOL0     H14957   8.667   8.797  -0.720 -1.2889 -0.1091 -0.2134
  111MOL0     H14958   8.623   8.959  -0.723  0.6514 -0.6074  0.5823
  111MOL0     H14959   8.790   8.795  -0.922 -2.7311 -0.6608 -0.5640
  111MOL0     H14960   8.767   8.974  -0.954  1.6352  0.9709  0.0121
  111MOL0     H14961   8.921   8.856  -0.723  2.6969  0.4222 -1.0424
  111MOL0     H14962   8.870   9.021  -0.723 -0.4102  0.7641 -0.7089
  111MOL0     H14963   8.971   9.088  -0.910  2.3636  1.9034  2.1427
  111MOL0     H14964   9.092   9.015  -0.805  1.7137  1.2577 -2.2909
  111MOL0     H14965   8.040   8.634  -0.590  0.9534  0.1855  1.3908
  111MOL0     H14966   7.951   8.679  -0.371 -1.8246  0.4602  0.6376
  111MOL0     H14967   7.872   8.865  -0.037  1.2010  0.6125 -1.9055
  111MOL0     H14968   7.756   8.910   0.187 -3.6705 -3.1539  0.7516
  111MOL0     H14969   8.147   9.672   0.636 -0.9111  0.7415  0.1771
  111MOL0     H14970   8.247   9.624   0.381  0.4136  1.4041 -1.5188
  111MOL0     H14971   8.457   9.805   0.124  2.5401 -0.8276  0.0193
  111MOL0     H14972   8.654   9.765  -0.010 -1.1401  1.6591  2.2555
  111MOL0     H14973   8.732   9.500  -0.358 -1.0163  0.7781 -0.6015
  111MOL0     H14974   8.632   9.435  -0.235 -1.0145  0.3773 -0.5300
  111MOL0     H14975   8.793   9.567  -0.078 -0.4606 -0.6951 -0.3337
  111MOL0     H14976   8.907   9.536  -0.203 -0.7142 -1.4418 -1.7385
  111MOL0     H14977   8.850   9.278  -0.176  1.9619 -1.5203  2.2316
  111MOL0     H14978   8.752   9.326  -0.039 -1.1127  0.4324 -0.3822
  111MOL0     H14979   9.043   9.403  -0.067 -1.7822  1.8686 -0.2937
  111MOL0     H14980   8.933   9.410   0.076  0.7784  2.6437 -0.5347
  111MOL0     H14981   9.057   9.002   0.075  0.3126  0.4255  1.3199
  111MOL0     H14982   8.406   9.574  -0.303  2.1173  1.4415 -1.3099
  111MOL0     H14983   8.156   9.458  -0.138 -1.5166 -0.5523  0.3003
  111MOL0     H14984   8.090   9.618  -0.116  1.4591  1.8538 -0.3703
  111MOL0     H14985   8.148   9.570  -0.275  0.3110 -0.1109  0.0740
  112MOL0     O14986   3.954   2.633   5.215  0.8849 -0.8300  0.0154
  112MOL0     C14987   3.915   2.749   5.210  0.8891  0.4817 -0.4509
  112MOL0     O14988   3.993   2.860   5.180  0.3958 -0.5071 -0.1468
  112MOL0     C14989   4.126   2.881   5.193  0.9920  0.1530  0.4403
  112MOL0     C14990   4.203   2.804   5.274  0.1076 -0.7426  0.1300
  112MOL0     C14991   4.331   2.845   5.313  0.1281 -0.0535  0.0391
  112MOL0     C14992   4.395   2.951   5.252 -0.2699 -0.2660  0.0247
  112MOL0     O14993   4.531   2.985   5.263 -0.6547 -0.5987 -0.0374
  112MOL0     C14994   4.608   2.994   5.389  0.6106  0.3849  0.8027
  112MOL0     C14995   4.564   3.110   5.467 -0.4015 -0.1523  1.0085
  112MOL0     C14996   4.611   3.245   5.410  0.4686  0.1594 -0.0152
  112MOL0     C14997   4.757   3.253   5.360  0.3808 -0.0389  0.9637
  112MOL0     C14998   4.862   3.222   5.470  0.3572 -0.4990 -0.6547
  112MOL0     C14999   4.995   3.212   5.402 -0.3165 -0.7347 -0.4917
  112MOL0     C15000   5.112   3.252   5.490  0.0501  0.0021 -0.4844
  112MOL0     C15001   5.237   3.189   5.462  0.4774  0.6937 -0.3276
  112MOL0     N15002   5.350   3.236   5.544 -0.3989  0.1001  0.7636
  112MOL0     C15003   5.462   3.313   5.490  0.5532  0.5123 -0.6211
  112MOL0     C15004   5.534   3.345   5.604  1.2160 -0.2368  0.0496
  112MOL0     C15005   5.668   3.411   5.601 -0.1748 -0.8294  1.0601
  112MOL0     C15006   5.689   3.499   5.721  0.5327 -0.4843 -0.1559
  112MOL0     C15007   5.603   3.615   5.746  0.6066 -0.0299  0.2274
  112MOL0     C15008   5.557   3.692   5.619  0.2446 -0.5386 -0.0390
  112MOL0     O15009   5.453   3.788   5.627 -0.3583 -0.2261 -0.0751
  112MOL0     C15010   5.324   3.744   5.664  0.2688 -0.6511 -0.2807
  112MOL0     C15011   5.291   3.608   5.682  0.3520  1.0097  0.3888
  112MOL0     C15012   5.161   3.580   5.723  0.7322 -0.1269  1.0916
  112MOL0     C15013   5.067   3.685   5.752 -1.6572  1.9720 -0.1960
  112MOL0     C15014   4.933   3.639   5.802  0.5234  0.1035 -0.5753
  112MOL0     O15015   4.922   3.500   5.814  0.4985  0.2366 -0.2240
  112MOL0     C15016   4.804   3.445   5.867 -0.1846 -0.4485 -0.5488
  112MOL0     C15017   4.802   3.417   5.998  0.3124 -0.9493 -0.2735
  112MOL0     C15018   4.698   3.344   6.040 -0.8168  1.1905 -0.5330
  112MOL0     C15019   4.598   3.290   5.962 -0.5396  0.3453 -0.1743
  112MOL0     O15020   4.504   3.221   6.027  0.4298  0.0465  0.2534
  112MOL0     C15021   4.378   3.191   5.959  0.9369 -1.0028 -0.9455
  112MOL0     C15022   4.404   3.050   5.895  0.6341 -1.4439  1.4801
  112MOL0     C15023   4.272   2.988   5.839 -0.5427  0.2484  0.5824
  112MOL0     C15024   4.289   2.912   5.707 -1.1515 -0.3765  0.2345
  112MOL0     C15025   4.150   2.852   5.663 -0.1124 -0.4550 -0.0794
  112MOL0     C15026   4.065   2.967   5.614  0.0388 -0.6420  0.9022
  112MOL0     C15027   3.945   2.900   5.543  0.7006 -0.0451  0.5287
  112MOL0     C15028   3.827   2.993   5.529  0.1939  0.8742 -0.9099
  112MOL0    Cl15029   3.872   3.132   5.418  0.5743  0.3428 -0.3066
  112MOL0     C15030   4.597   3.330   5.829  0.6627 -1.2118 -0.2804
  112MOL0     C15031   4.699   3.404   5.785 -0.3427 -0.1078 -0.0679
  112MOL0     O15032   4.840   3.724   5.819 -0.0327  0.4719 -0.9330
  112MOL0     C15033   5.103   3.817   5.738  0.1364 -0.8690  0.2391
  112MOL0     C15034   5.232   3.850   5.691 -0.3297 -0.0480  0.8717
  112MOL0     N15035   5.457   3.297   5.706 -0.8607 -0.5143 -0.1385
  112MOL0     N15036   5.358   3.239   5.675 -0.0830  0.4319 -0.5554
  112MOL0     C15037   4.322   3.019   5.152 -0.7090 -0.1061 -0.3368
  112MOL0     C15038   4.182   2.992   5.133  0.2079  0.0235  0.7331
  112MOL0     C15039   3.770   2.775   5.200 -0.0251  0.3455 -0.5226
  112MOL0     C15040   3.721   2.856   5.098 -0.5500  0.0191  0.1222
  112MOL0     C15041   3.595   2.902   5.100  0.2637 -0.6917 -0.0997
  112MOL0     C15042   3.510   2.877   5.213 -0.3163  0.7252 -0.8399
  112MOL0     O15043   3.395   2.937   5.226 -0.1820  0.1301  0.1733
  112MOL0     C15044   3.314   2.965   5.114 -0.6365  0.4229  0.5882
  112MOL0     C15045   3.197   3.042   5.157  0.3366 -0.5130 -0.4633
  112MOL0     C15046   3.091   3.083   5.050 -0.4851 -0.2081  0.8595
  112MOL0     C15047   3.025   2.976   4.946  0.2277  0.1478 -0.7596
  112MOL0     C15048   2.901   2.926   4.995 -0.0323 -1.1128 -0.3490
  112MOL0     C15049   2.789   2.878   5.028 -0.1123  0.6190 -0.0580
  112MOL0     C15050   3.555   2.787   5.312  0.1577  0.8408 -0.8575
  112MOL0     C15051   3.677   2.728   5.303 -1.4569  0.1813  0.7798
  112MOL0     C15052   3.724   2.645   5.418  0.5731 -0.4368 -0.3913
  112MOL0     H15053   4.166   2.708   5.306 -0.6581  0.4501  3.1389
  112MOL0     H15054   4.387   2.785   5.384  0.0001  1.2510  1.2851
  112MOL0     H15055   4.601   2.898   5.442 -0.7835 -0.5512 -0.9625
  112MOL0     H15056   4.712   2.988   5.357  0.1976  0.9341 -0.7163
  112MOL0     H15057   4.592   3.092   5.571  0.5465  0.5244  0.8795
  112MOL0     H15058   4.455   3.118   5.463 -0.3294  0.3152 -0.6591
  112MOL0     H15059   4.597   3.315   5.493 -2.1899 -0.4396  0.1477
  112MOL0     H15060   4.537   3.277   5.337  1.7739 -3.3522 -3.1772
  112MOL0     H15061   4.768   3.174   5.286 -0.1071 -0.0652  0.9146
  112MOL0     H15062   4.772   3.354   5.320 -1.4164  0.0638  0.4726
  112MOL0     H15063   4.851   3.298   5.548 -1.0497 -1.2862 -0.0425
  112MOL0     H15064   4.827   3.135   5.528 -0.4453  1.7560  2.5316
  112MOL0     H15065   5.010   3.112   5.361  0.1546 -1.2637  0.9135
  112MOL0     H15066   4.994   3.291   5.327  0.9751  1.7422  1.9100
  112MOL0     H15067   5.106   3.227   5.597  4.0414 -0.4435 -0.1995
  112MOL0     H15068   5.133   3.359   5.479 -0.1159  0.0278 -0.5444
  112MOL0     H15069   5.212   3.084   5.479 -0.2337  0.5104 -2.2480
  112MOL0     H15070   5.255   3.200   5.355 -1.0065  0.7768 -0.5871
  112MOL0     H15071   5.485   3.332   5.386  0.7312 -3.8153 -1.5572
  112MOL0     H15072   5.746   3.336   5.593  1.8950  0.9696  3.0428
  112MOL0     H15073   5.681   3.477   5.514  0.4225  3.1096  3.8685
  112MOL0     H15074   5.674   3.445   5.815  3.4309 -0.1499  0.6003
  112MOL0     H15075   5.786   3.550   5.721  1.2657 -1.7949  1.1528
  112MOL0     H15076   5.657   3.698   5.794 -1.9302  3.3175 -2.2416
  112MOL0     H15077   5.527   3.586   5.818  1.0752 -1.9094  0.0169
  112MOL0     H15078   5.520   3.615   5.550 -0.1329 -1.3512  1.0178
  112MOL0     H15079   5.646   3.742   5.580  0.1821  0.5210  1.1165
  112MOL0     H15080   5.342   3.522   5.642  0.9553  1.4519  0.1891
  112MOL0     H15081   5.134   3.475   5.729 -1.6969  0.2840 -0.9410
  112MOL0     H15082   4.873   3.459   6.068  0.4710  2.2797 -2.1764
  112MOL0     H15083   4.691   3.310   6.143 -1.5077  0.4833 -0.8031
  112MOL0     H15084   4.301   3.173   6.034  0.4911 -0.0530 -1.1528
  112MOL0     H15085   4.331   3.269   5.898  1.3811  0.4985  0.5568
  112MOL0     H15086   4.463   3.073   5.806 -3.3231 -1.5769 -1.4604
  112MOL0     H15087   4.450   2.986   5.971  3.0432  0.4495  1.7610
  112MOL0     H15088   4.243   2.915   5.914 -0.3021  0.1084  0.5396
  112MOL0     H15089   4.200   3.069   5.824 -0.4574 -0.1718 -3.0990
  112MOL0     H15090   4.356   2.828   5.731  0.7182  0.6056 -1.2895
  112MOL0     H15091   4.322   2.975   5.624 -0.2307 -0.0498  0.8330
  112MOL0     H15092   4.111   2.810   5.757 -2.1658  1.2124 -0.0992
  112MOL0     H15093   4.158   2.770   5.591  0.9795 -0.6387  0.2332
  112MOL0     H15094   4.029   3.030   5.696  2.0897  0.5873  0.9161
  112MOL0     H15095   4.113   3.036   5.544 -0.2189  1.2378  2.4962
  112MOL0     H15096   3.911   2.805   5.586 -1.5889  1.0269  1.2300
  112MOL0     H15097   3.973   2.881   5.439  0.2862  0.1374  0.3815
  112MOL0     H15098   3.746   2.937   5.480  1.3236 -0.8997 -0.8305
  112MOL0     H15099   3.784   3.023   5.625  0.2500  1.3020 -1.0172
  112MOL0     H15100   4.517   3.296   5.765 -0.3756 -0.3758  0.5442
  112MOL0     H15101   4.699   3.435   5.681 -0.5638 -2.4223 -0.8209
  112MOL0     H15102   5.020   3.886   5.753  0.4607 -0.0702 -1.4921
  112MOL0     H15103   5.260   3.954   5.680 -1.6078  0.6565  3.3899
  112MOL0     H15104   4.369   3.108   5.113  1.5482 -0.6237  0.9987
  112MOL0     H15105   4.123   3.071   5.089  0.6109  0.4574  0.9680
  112MOL0     H15106   3.792   2.883   5.020 -1.6256 -1.6859 -1.5493
  112MOL0     H15107   3.553   2.957   5.016 -1.2487 -2.2842 -0.4488
  112MOL0     H15108   3.288   2.870   5.067 -1.2178  0.5293  0.6981
  112MOL0     H15109   3.363   3.022   5.035 -0.3280 -0.2162  0.3071
  112MOL0     H15110   3.223   3.131   5.215  2.8612 -0.2516 -1.8429
  112MOL0     H15111   3.145   2.970   5.222  2.4191 -4.1012 -2.4170
  112MOL0     H15112   3.133   3.163   4.988 -1.4578 -0.8551 -0.7153
  112MOL0     H15113   3.023   3.138   5.116  2.2383  4.0260  0.5110
  112MOL0     H15114   2.997   3.033   4.857 -1.3836  0.5601 -0.0262
  112MOL0     H15115   3.089   2.890   4.925  0.8836  0.2257  0.8072
  112MOL0     H15116   2.697   2.834   5.061 -1.1939  3.0220  0.3034
  112MOL0     H15117   3.488   2.753   5.390  2.4389  1.7816  1.7119
  112MOL0     H15118   3.697   2.540   5.402 -3.2661  0.3268  0.1057
  112MOL0     H15119   3.833   2.637   5.423  0.6866  0.6097 -0.7932
  112MOL0     H15120   3.686   2.670   5.517 -0.2723 -2.5141 -0.1564
  113MOL0     O15121   4.861   2.884  10.563  1.2609  0.0691 -0.2707
  113MOL0     C15122   4.924   2.915  10.665 -0.0540 -0.1760 -0.0300
  113MOL0     O15123   4.877   3.003  10.754  0.1678 -0.6594 -0.0196
  113MOL0     C15124   4.741   3.055  10.743 -0.5754  1.4736  0.6253
  113MOL0     C15125   4.688   3.084  10.867  0.0633  0.0836 -0.4826
  113MOL0     C15126   4.557   3.138  10.875 -0.2992  0.4897 -0.3284
  113MOL0     C15127   4.485   3.164  10.759  1.0070 -0.2072  0.1844
  113MOL0     O15128   4.355   3.205  10.766 -0.1254  0.3552 -0.3192
  113MOL0     C15129   4.252   3.120  10.714 -0.1324 -0.3693 -0.9337
  113MOL0     C15130   4.119   3.195  10.684 -0.6835  0.1623 -0.2280
  113MOL0     C15131   4.125   3.319  10.596  0.1840 -0.2046 -0.5753
  113MOL0     C15132   3.990   3.389  10.586 -0.1508  0.4262 -1.7406
  113MOL0     C15133   3.896   3.321  10.503 -1.1662  0.1672  0.3003
  113MOL0     C15134   3.772   3.394  10.457  0.3228 -0.5619  0.1601
  113MOL0     C15135   3.672   3.301  10.383  0.2506  0.0186 -0.3695
  113MOL0     C15136   3.725   3.245  10.253  0.5070 -0.5497 -0.1491
  113MOL0     N15137   3.617   3.214  10.161  0.6166  0.0460 -0.1108
  113MOL0     C15138   3.586   3.279  10.043  0.7044  0.3190 -0.3999
  113MOL0     C15139   3.458   3.227  10.026  0.4383  0.2080  0.1253
  113MOL0     C15140   3.358   3.257   9.921 -0.1260  0.0148  0.3322
  113MOL0     C15141   3.237   3.340   9.970 -0.4132  0.0671  0.8575
  113MOL0     C15142   3.163   3.391   9.845  0.8687 -0.4331 -0.3914
  113MOL0     C15143   3.021   3.453   9.865  0.0264 -0.7861 -0.0097
  113MOL0     O15144   2.929   3.357   9.921  0.0474  0.1028 -0.2181
  113MOL0     C15145   2.799   3.400   9.910 -0.3779  1.0897  0.5583
  113MOL0     C15146   2.723   3.389   9.787  0.2974 -0.6135 -0.6164
  113MOL0     C15147   2.602   3.466   9.775 -1.0505 -0.7481  0.9976
  113MOL0     C15148   2.546   3.529   9.890 -0.0793  0.9111 -0.4749
  113MOL0     C15149   2.417   3.593   9.864 -0.1960  0.0452 -0.1642
  113MOL0     O15150   2.368   3.563   9.744  0.4201  0.0276 -0.0242
  113MOL0     C15151   2.247   3.614   9.706  0.6611  0.0310 -0.3857
  113MOL0     C15152   2.232   3.747   9.681  0.2286  0.2597  0.6607
  113MOL0     C15153   2.104   3.786   9.639 -0.0237 -0.5836  0.0559
  113MOL0     C15154   2.004   3.697   9.600  0.3808 -0.6320  0.0738
  113MOL0     O15155   1.875   3.733   9.562 -0.5441  0.1852 -0.4165
  113MOL0     C15156   1.839   3.857   9.507 -0.0100 -0.0735 -0.1732
  113MOL0     C15157   1.929   3.918   9.392 -0.0569  0.8125 -0.4697
  113MOL0     C15158   1.912   3.827   9.271  0.8935 -0.1038 -0.2216
  113MOL0     C15159   1.989   3.867   9.146 -0.4524  0.4324  0.9962
  113MOL0     C15160   2.003   3.759   9.035 -0.4056 -0.3166  0.4988
  113MOL0     C15161   2.072   3.825   8.916 -0.0205  1.1611 -0.4942
  113MOL0     C15162   2.104   3.723   8.804  0.4313 -0.6928  0.4852
  113MOL0     C15163   2.109   3.800   8.670 -0.0407  0.4304  0.1421
  113MOL0    Cl15164   2.139   3.674   8.539 -0.0732  0.1368 -0.4996
  113MOL0     C15165   2.029   3.560   9.625  0.4446 -0.6853  0.3667
  113MOL0     C15166   2.145   3.521   9.679  0.2137 -0.0301 -0.2248
  113MOL0     O15167   2.369   3.671   9.943  0.4606  0.9059  0.1543
  113MOL0     C15168   2.613   3.526  10.014  0.0869  0.5221 -0.0004
  113MOL0     C15169   2.740   3.461  10.026  0.2559 -0.9711  0.3855
  113MOL0     N15170   3.431   3.133  10.121 -0.5140  0.8293 -1.0967
  113MOL0     N15171   3.526   3.122  10.198  0.6713 -0.1150 -0.6726
  113MOL0     C15172   4.536   3.136  10.637  0.2109  0.3478  0.4238
  113MOL0     C15173   4.661   3.076  10.628 -0.1514 -0.1849 -0.0051
  113MOL0     C15174   5.064   2.851  10.688  0.1848 -0.1967  0.3894
  113MOL0     C15175   5.138   2.897  10.805  0.2570  0.1687 -1.1801
  113MOL0     C15176   5.264   2.847  10.842 -0.1221  0.6709 -0.0846
  113MOL0     C15177   5.322   2.752  10.757 -0.9501  0.1389  0.2459
  113MOL0     O15178   5.442   2.697  10.792 -0.3581  0.0937  0.2468
  113MOL0     C15179   5.522   2.747  10.898  0.0894  0.6620 -0.1260
  113MOL0     C15180   5.568   2.893  10.868  0.3379  0.0533 -0.5493
  113MOL0     C15181   5.696   2.920  10.946  0.2011 -0.3113  0.3408
  113MOL0     C15182   5.678   2.951  11.099 -0.1094  0.0060 -0.4973
  113MOL0     C15183   5.593   3.074  11.138  0.7127 -0.0943 -0.5788
  113MOL0     C15184   5.517   3.157  11.179 -0.5358 -0.1069 -0.8652
  113MOL0     C15185   5.258   2.712  10.638  0.2770 -0.1640  0.2609
  113MOL0     C15186   5.122   2.753  10.608 -0.3673  0.2078  0.0596
  113MOL0     C15187   5.066   2.684  10.482 -0.9135 -0.1595 -0.5095
  113MOL0     H15188   4.743   3.060  10.957 -2.1433  1.3515  1.2970
  113MOL0     H15189   4.507   3.153  10.970 -1.6388 -0.4220 -0.8459
  113MOL0     H15190   4.289   3.075  10.622  3.6196  2.3560 -1.0042
  113MOL0     H15191   4.231   3.035  10.779 -1.4828  0.4248 -0.2810
  113MOL0     H15192   4.066   3.216  10.777 -1.3906 -1.9597 -0.0981
  113MOL0     H15193   4.062   3.116  10.635  0.5547 -0.0895 -1.3028
  113MOL0     H15194   4.157   3.282  10.498  2.1208 -0.1767 -0.0055
  113MOL0     H15195   4.206   3.384  10.631  0.3006  0.1531 -1.4723
  113MOL0     H15196   3.955   3.409  10.688  0.7764 -0.2387 -1.2713
  113MOL0     H15197   4.013   3.490  10.550  2.0373  0.8190  0.4426
  113MOL0     H15198   3.940   3.289  10.408 -1.1984  0.0593  0.3213
  113MOL0     H15199   3.877   3.230  10.561  4.2837 -3.5644 -2.8954
  113MOL0     H15200   3.728   3.429  10.551  0.7368  2.7142 -0.7119
  113MOL0     H15201   3.796   3.480  10.393 -1.0261  0.5739  1.1119
  113MOL0     H15202   3.583   3.362  10.361  0.3537 -0.5066 -2.4443
  113MOL0     H15203   3.652   3.223  10.457  2.2776  1.5910  2.0222
  113MOL0     H15204   3.775   3.335  10.216 -1.0158  1.2868  1.9482
  113MOL0     H15205   3.786   3.155  10.261  1.1945 -0.1055 -0.3204
  113MOL0     H15206   3.634   3.348   9.975 -1.0264  0.8152 -1.1943
  113MOL0     H15207   3.413   3.319   9.849  1.1164  1.6047  2.5285
  113MOL0     H15208   3.322   3.160   9.887  2.7481 -1.2152  0.5440
  113MOL0     H15209   3.175   3.271  10.028  1.5673 -3.1622 -0.6005
  113MOL0     H15210   3.262   3.418  10.042 -1.9507 -1.9420  3.8121
  113MOL0     H15211   3.148   3.309   9.773 -3.0005 -0.2171 -0.0645
  113MOL0     H15212   3.224   3.470   9.800  0.0676 -1.1031 -2.8252
  113MOL0     H15213   2.979   3.487   9.770  1.5148  1.1514 -0.0343
  113MOL0     H15214   3.017   3.540   9.931 -2.3050  0.1867 -1.3164
  113MOL0     H15215   2.759   3.338   9.698 -1.7052 -1.7373 -0.8310
  113MOL0     H15216   2.552   3.457   9.679 -2.9912 -1.6007  2.0232
  113MOL0     H15217   2.314   3.818   9.686  0.1814  0.5935 -2.0619
  113MOL0     H15218   2.089   3.894   9.643  3.4077  0.1263 -2.2409
  113MOL0     H15219   1.740   3.838   9.465  0.8279 -1.4615 -1.6399
  113MOL0     H15220   1.819   3.925   9.590  0.9886  0.1020 -0.0666
  113MOL0     H15221   1.885   4.012   9.358 -3.2961 -0.3642  0.1195
  113MOL0     H15222   2.033   3.924   9.425 -0.5311  0.4122  1.1906
  113MOL0     H15223   1.939   3.728   9.307 -2.6562 -1.4955 -0.9202
  113MOL0     H15224   1.807   3.825   9.240  0.6772 -2.5143  0.4620
  113MOL0     H15225   2.092   3.893   9.175 -1.1850  3.6754  1.0527
  113MOL0     H15226   1.955   3.962   9.104  3.0170  0.6822 -1.6663
  113MOL0     H15227   1.903   3.731   9.000 -0.4431  2.0894 -1.6535
  113MOL0     H15228   2.059   3.675   9.076  1.2949  1.0033  0.9728
  113MOL0     H15229   2.015   3.914   8.891 -4.2615 -0.9346  0.8034
  113MOL0     H15230   2.171   3.857   8.950 -0.7615  2.7600  0.2265
  113MOL0     H15231   2.027   3.645   8.801 -0.2900 -0.1161  2.3394
  113MOL0     H15232   2.192   3.668   8.838 -2.6939 -5.1113  2.4136
  113MOL0     H15233   2.010   3.844   8.656 -0.4026 -0.3139  0.3023
  113MOL0     H15234   2.195   3.867   8.670  1.4447 -1.0387 -4.5294
  113MOL0     H15235   1.953   3.491   9.591  1.2874 -0.6452 -1.7932
  113MOL0     H15236   2.154   3.418   9.711 -1.3685  0.8162  3.4064
  113MOL0     H15237   2.565   3.578  10.096 -0.5280  1.4936 -0.9493
  113MOL0     H15238   2.800   3.463  10.116  2.4892 -1.1360 -1.0267
  113MOL0     H15239   4.482   3.166  10.548 -1.9628 -1.4323  1.0599
  113MOL0     H15240   4.713   3.056  10.535 -0.2731 -0.9074  0.0757
  113MOL0     H15241   5.096   2.968  10.875  1.3801  0.7804 -1.1021
  113MOL0     H15242   5.300   2.881  10.938  0.1736  1.7419 -0.5532
  113MOL0     H15243   5.605   2.677  10.916 -0.5247  0.3025  1.4704
  113MOL0     H15244   5.468   2.747  10.993  3.0061 -2.8321  1.8161
  113MOL0     H15245   5.493   2.972  10.869  1.4865  1.1761 -0.1661
  113MOL0     H15246   5.608   2.883  10.766  1.0641 -4.1635 -0.0365
  113MOL0     H15247   5.739   3.006  10.895 -1.5765  1.1158  1.1247
  113MOL0     H15248   5.765   2.835  10.945  0.4632 -0.0957 -0.3781
  113MOL0     H15249   5.648   2.856  11.145  1.0848  0.4549  1.3219
  113MOL0     H15250   5.776   2.967  11.145  0.7359 -3.1066 -0.9304
  113MOL0     H15251   5.476   3.251  11.209 -0.4674 -0.3543  0.0148
  113MOL0     H15252   5.306   2.636  10.577 -1.8234 -1.5662  0.2289
  113MOL0     H15253   4.957   2.673  10.489 -0.7250 -1.1554  1.5704
  113MOL0     H15254   5.085   2.744  10.393  0.5579 -0.0342 -0.1309
  113MOL0     H15255   5.119   2.592  10.455 -0.6778  0.7426 -3.5176
  114MOL0     O15256   6.175  10.345   1.373  0.0241 -0.0378  0.1629
  114MOL0     C15257   6.126  10.450   1.332 -0.7807  0.7127 -0.1353
  114MOL0     O15258   6.157  10.578   1.363  0.1106  0.5005 -0.3243
  114MOL0     C15259   6.261  10.605   1.453  1.2069  0.2112 -0.8529
  114MOL0     C15260   6.359  10.509   1.509 -0.1390 -0.3928 -0.2115
  114MOL0     C15261   6.459  10.546   1.598  0.3174 -0.7206  0.2295
  114MOL0     C15262   6.475  10.684   1.620  0.6805  0.6711 -0.0308
  114MOL0     O15263   6.566  10.736   1.710  0.3836  0.0426 -0.2279
  114MOL0     C15264   6.701  10.695   1.700  0.3739  0.4626  0.8349
  114MOL0     C15265   6.780  10.776   1.600  0.3266 -0.1844  0.3929
  114MOL0     C15266   6.769  10.932   1.632  0.6157  0.4569 -1.0718
  114MOL0     C15267   6.833  10.960   1.770  0.1106  0.9933 -0.2514
  114MOL0     C15268   6.878  11.111   1.810  0.8192  0.4745  0.1188
  114MOL0     C15269   7.011  11.160   1.764 -0.1121 -0.3581 -0.6054
  114MOL0     C15270   7.130  11.084   1.808 -1.0424  0.0207 -0.4161
  114MOL0     C15271   7.263  11.150   1.774  0.2071 -0.2280 -0.3009
  114MOL0     N15272   7.279  11.284   1.818 -0.1209 -0.4033 -0.4779
  114MOL0     C15273   7.272  11.334   1.949 -0.2489 -0.1011  0.1584
  114MOL0     C15274   7.318  11.463   1.923 -0.2163 -0.6160 -0.4534
  114MOL0     C15275   7.350  11.575   2.021 -1.2168 -0.0481  0.7478
  114MOL0     C15276   7.237  11.682   2.001 -0.0069 -0.4400  0.2685
  114MOL0     C15277   7.266  11.777   1.877  0.7995  0.1009  0.4099
  114MOL0     C15278   7.175  11.901   1.876 -0.7862  1.3030 -0.8689
  114MOL0     O15279   7.210  11.997   1.977 -0.6061  0.5312  0.5484
  114MOL0     C15280   7.113  12.090   2.016 -0.4121 -0.5794  0.4144
  114MOL0     C15281   7.015  12.144   1.936  0.6647 -0.2790  0.2871
  114MOL0     C15282   6.912  12.227   1.986 -0.3798 -1.0172 -0.3404
  114MOL0     C15283   6.901  12.246   2.130 -1.0605  0.9708  0.0285
  114MOL0     C15284   6.782  12.303   2.202  0.2422  0.1691 -0.8867
  114MOL0     O15285   6.678  12.329   2.128 -0.7119 -0.3752 -0.0462
  114MOL0     C15286   6.583  12.416   2.180 -0.2118 -0.2100  1.2237
  114MOL0     C15287   6.548  12.528   2.086 -0.3649 -0.3090 -0.7778
  114MOL0     C15288   6.455  12.630   2.126 -1.3395 -0.5681  0.0457
  114MOL0     C15289   6.392  12.614   2.255 -0.4942  0.5003 -0.3457
  114MOL0     O15290   6.292  12.704   2.299 -0.6982 -0.0262  0.9126
  114MOL0     C15291   6.296  12.840   2.251 -0.1205  0.4587  0.4463
  114MOL0     C15292   6.192  12.911   2.341 -0.3302  0.2831  0.2627
  114MOL0     C15293   6.058  12.850   2.324  0.7556 -0.6682 -1.2277
  114MOL0     C15294   5.958  12.928   2.403  0.2979 -1.1863 -0.0495
  114MOL0     C15295   5.820  12.871   2.400  0.2318 -0.6522 -0.1714
  114MOL0     C15296   5.809  12.744   2.488  0.4764  0.6618 -0.0590
  114MOL0     C15297   5.834  12.763   2.641 -0.2516 -0.2753 -0.4540
  114MOL0     C15298   5.736  12.870   2.707 -0.6978  0.7046  1.2010
  114MOL0    Cl15299   5.571  12.789   2.731  0.0887  0.0617  0.1600
  114MOL0     C15300   6.416  12.499   2.338  0.5352  0.2078  0.2952
  114MOL0     C15301   6.506  12.399   2.294  0.1972 -0.3248 -1.0333
  114MOL0     O15302   6.787  12.313   2.323 -0.0587 -0.5197 -0.4451
  114MOL0     C15303   7.006  12.179   2.211  0.0052  0.2601 -0.1414
  114MOL0     C15304   7.110  12.110   2.156  0.4765 -0.1436  0.7689
  114MOL0     N15305   7.330  11.480   1.786 -0.1211 -0.3422 -0.6506
  114MOL0     N15306   7.312  11.373   1.724 -0.9666 -1.4391 -0.3177
  114MOL0     C15307   6.374  10.774   1.581 -0.0775  0.3799  0.1967
  114MOL0     C15308   6.281  10.739   1.484  0.3195  1.4613  0.1552
  114MOL0     C15309   6.009  10.427   1.234  0.7066 -0.2408 -0.3394
  114MOL0     C15310   5.936  10.547   1.205 -0.0976  0.0030 -0.2609
  114MOL0     C15311   5.824  10.555   1.127 -0.5801 -0.0977 -0.2284
  114MOL0     C15312   5.779  10.440   1.069  0.9454 -1.0486  0.3760
  114MOL0     O15313   5.654  10.453   1.012  0.4780  0.0246 -0.6495
  114MOL0     C15314   5.609  10.352   0.916  0.4245 -0.2159 -0.0751
  114MOL0     C15315   5.497  10.406   0.843 -0.8442  0.8008 -0.2793
  114MOL0     C15316   5.425  10.296   0.768  0.2296  0.5589  0.3593
  114MOL0     C15317   5.290  10.349   0.690 -0.2013 -0.0258 -0.8302
  114MOL0     C15318   5.228  10.454   0.774  0.1617  0.4780 -0.4351
  114MOL0     C15319   5.170  10.537   0.838 -0.4882  0.2185  0.3628
  114MOL0     C15320   5.838  10.319   1.098 -0.1018  0.0648  0.1086
  114MOL0     C15321   5.957  10.306   1.182 -0.3071  0.5554  0.1302
  114MOL0     C15322   6.034  10.168   1.200 -0.5921  0.9705  0.4442
  114MOL0     H15323   6.372  10.405   1.482  1.4275 -0.6992  1.5130
  114MOL0     H15324   6.527  10.475   1.644 -0.8778 -0.5096  2.4139
  114MOL0     H15325   6.751  10.706   1.797  1.6414  1.7431  0.0772
  114MOL0     H15326   6.719  10.591   1.676  2.3106  0.1650  3.1652
  114MOL0     H15327   6.747  10.760   1.496 -0.5404  1.2069  0.4359
  114MOL0     H15328   6.883  10.738   1.603  0.2671 -0.2829  1.3003
  114MOL0     H15329   6.671  10.979   1.620  0.3138 -0.4147 -2.1837
  114MOL0     H15330   6.830  10.995   1.567  1.1594  0.4090 -0.6146
  114MOL0     H15331   6.760  10.929   1.846 -2.2696  2.2749 -1.8818
  114MOL0     H15332   6.926  10.905   1.786 -1.6012 -1.6251  1.4889
  114MOL0     H15333   6.806  11.183   1.771  0.6965  1.5996  2.3022
  114MOL0     H15334   6.872  11.117   1.919 -1.4017 -2.1029  0.2687
  114MOL0     H15335   7.004  11.171   1.656 -4.6143  2.3068 -0.2866
  114MOL0     H15336   7.021  11.260   1.807  2.2729 -1.1441  0.8664
  114MOL0     H15337   7.134  11.002   1.736 -2.2452 -0.0292 -0.4368
  114MOL0     H15338   7.130  11.059   1.915  0.9176  1.5610  0.0049
  114MOL0     H15339   7.354  11.099   1.806  1.9473  2.0280 -1.2913
  114MOL0     H15340   7.259  11.148   1.665  1.5293 -1.0451 -0.3514
  114MOL0     H15341   7.241  11.286   2.041 -0.5212  0.6819  0.4871
  114MOL0     H15342   7.370  11.539   2.122  0.4108 -0.0762  0.4556
  114MOL0     H15343   7.452  11.604   1.993 -1.8499 -1.0128 -3.2517
  114MOL0     H15344   7.139  11.636   2.013  1.1817 -2.4885  3.4086
  114MOL0     H15345   7.244  11.738   2.095  2.1566 -4.3488  2.7133
  114MOL0     H15346   7.243  11.725   1.784  0.5542  0.4529  0.2736
  114MOL0     H15347   7.373  11.801   1.878  1.0487 -0.9301  0.7153
  114MOL0     H15348   7.069  11.872   1.877 -0.1306 -1.3501 -0.6562
  114MOL0     H15349   7.184  11.941   1.775 -1.7444  1.9320 -0.7227
  114MOL0     H15350   7.035  12.132   1.830  0.3835  0.3896  0.1516
  114MOL0     H15351   6.839  12.266   1.916  0.6061 -1.3066 -1.5644
  114MOL0     H15352   6.601  12.537   1.992 -1.4312  1.5689 -1.2605
  114MOL0     H15353   6.424  12.713   2.064 -7.0603 -0.0474  2.9853
  114MOL0     H15354   6.392  12.878   2.286 -0.6588  0.4766  1.9576
  114MOL0     H15355   6.273  12.852   2.144 -2.1447 -1.5236  0.5955
  114MOL0     H15356   6.221  12.889   2.444  3.6364  0.1554 -0.7269
  114MOL0     H15357   6.187  13.019   2.326 -3.4655 -0.0103 -1.8023
  114MOL0     H15358   6.032  12.857   2.218  1.8449 -0.9040 -1.5215
  114MOL0     H15359   6.057  12.751   2.370 -0.7065  0.7753  2.1588
  114MOL0     H15360   5.951  13.028   2.360 -2.9368 -1.2344  0.1224
  114MOL0     H15361   5.981  12.948   2.508  0.9693 -1.4570 -0.1386
  114MOL0     H15362   5.794  12.840   2.298  2.8923 -1.4325 -0.6995
  114MOL0     H15363   5.750  12.946   2.437  0.6806 -0.5725  0.5259
  114MOL0     H15364   5.704  12.715   2.492  0.4288  0.8504  0.0502
  114MOL0     H15365   5.872  12.667   2.442  2.6822  3.3560 -1.9416
  114MOL0     H15366   5.939  12.782   2.664 -0.5639  0.6444  0.2779
  114MOL0     H15367   5.821  12.664   2.684  2.9853 -0.8872 -0.6556
  114MOL0     H15368   5.781  12.912   2.797  2.5106 -3.8922  2.0746
  114MOL0     H15369   5.714  12.950   2.635 -0.6119 -0.7120 -0.4746
  114MOL0     H15370   6.358  12.478   2.427  1.1752 -2.5901  0.1246
  114MOL0     H15371   6.528  12.311   2.355 -0.7478  0.4118  0.4316
  114MOL0     H15372   6.994  12.171   2.319 -0.0504 -1.8239 -0.2585
  114MOL0     H15373   7.192  12.067   2.213  1.4268 -1.6229 -1.5546
  114MOL0     H15374   6.388  10.873   1.621  2.3333 -0.6915  2.3023
  114MOL0     H15375   6.226  10.814   1.429  2.3827  1.4028 -2.1400
  114MOL0     H15376   5.965  10.637   1.257  1.3707 -1.0800  0.8925
  114MOL0     H15377   5.785  10.649   1.091 -0.3413  0.2782  0.4887
  114MOL0     H15378   5.574  10.266   0.973 -3.1312  1.4826  0.5600
  114MOL0     H15379   5.691  10.320   0.849 -0.3560 -2.1881 -0.1552
  114MOL0     H15380   5.534  10.479   0.770 -0.4872  2.1385  1.1847
  114MOL0     H15381   5.438  10.456   0.920 -0.4393  1.0079 -0.0980
  114MOL0     H15382   5.406  10.227   0.851  0.3416 -3.1569 -2.4474
  114MOL0     H15383   5.490  10.242   0.699  0.4370  3.1697 -1.6521
  114MOL0     H15384   5.310  10.397   0.593  0.1112 -2.0189 -1.8100
  114MOL0     H15385   5.218  10.269   0.673  0.1906 -0.0158 -2.7411
  114MOL0     H15386   5.119  10.617   0.887  0.9602  1.1207  0.4431
  114MOL0     H15387   5.790  10.224   1.079  1.4101 -0.5144 -1.0321
  114MOL0     H15388   5.969  10.092   1.154  3.6206 -2.3175 -0.7185
  114MOL0     H15389   6.133  10.166   1.154 -0.9479 -3.4268 -0.5760
  114MOL0     H15390   6.053  10.147   1.305  1.9375  0.9223  0.0329
  115MOL0     O15391   3.703   6.294   8.711 -0.2358  0.6573 -0.9945
  115MOL0     C15392   3.620   6.327   8.626 -0.0543  1.1465 -0.1904
  115MOL0     O15393   3.594   6.459   8.594  0.7975  0.5735 -0.2106
  115MOL0     C15394   3.647   6.565   8.661  0.0890 -0.6333  0.5988
  115MOL0     C15395   3.669   6.678   8.576 -0.1294 -0.2843  0.1128
  115MOL0     C15396   3.720   6.798   8.634 -0.0439 -0.2631 -0.0230
  115MOL0     C15397   3.750   6.809   8.774  0.0177  0.1091  0.0625
  115MOL0     O15398   3.774   6.937   8.820 -0.4122 -0.3234  0.2064
  115MOL0     C15399   3.842   6.949   8.946  0.0678 -0.6211  0.4592
  115MOL0     C15400   3.858   7.100   8.972 -1.0343 -0.4780 -0.0799
  115MOL0     C15401   3.731   7.185   8.980 -1.0090  0.5926  0.4280
  115MOL0     C15402   3.639   7.158   9.090  0.1418 -0.1746  0.0708
  115MOL0     C15403   3.509   7.239   9.080 -0.2942 -0.9937 -0.2522
  115MOL0     C15404   3.435   7.234   9.225 -1.3922 -0.2060  0.8462
  115MOL0     C15405   3.410   7.093   9.278 -0.6037 -1.0556  0.8723
  115MOL0     C15406   3.280   7.097   9.346 -0.5371  0.3636 -0.2367
  115MOL0     N15407   3.281   7.190   9.468  0.7868  0.9235 -0.5386
  115MOL0     C15408   3.317   7.139   9.591  0.2815  0.1660 -0.1567
  115MOL0     C15409   3.308   7.239   9.673  0.6245 -0.5844 -0.2248
  115MOL0     C15410   3.333   7.224   9.814  0.3297  0.7911 -0.0654
  115MOL0     C15411   3.450   7.137   9.874  0.7009 -0.3996 -0.6273
  115MOL0     C15412   3.585   7.201   9.827  0.3707  0.9325 -1.1718
  115MOL0     C15413   3.702   7.123   9.875 -0.4084 -0.1545  0.2940
  115MOL0     O15414   3.734   7.136  10.020  0.3131 -0.1725  0.1760
  115MOL0     C15415   3.854   7.093  10.070 -0.8462 -0.6725 -0.0274
  115MOL0     C15416   3.900   7.155  10.192  0.5635 -0.1136  1.0057
  115MOL0     C15417   4.018   7.110  10.235  0.6147 -0.7436 -0.5518
  115MOL0     C15418   4.086   7.000  10.195 -0.5413 -0.5786 -0.8714
  115MOL0     C15419   4.219   6.949  10.260  0.0597  0.0619 -0.3607
  115MOL0     O15420   4.248   6.811  10.253 -0.4253  0.0162  0.3031
  115MOL0     C15421   4.377   6.772  10.258  0.3389  0.8859  0.0297
  115MOL0     C15422   4.459   6.763  10.148 -0.0734 -0.1575  0.2140
  115MOL0     C15423   4.588   6.712  10.157  0.0362 -0.3428  0.0387
  115MOL0     C15424   4.643   6.675  10.276  0.7204 -0.6494  0.3520
  115MOL0     O15425   4.776   6.626  10.280  0.4795 -0.5267 -0.8944
  115MOL0     C15426   4.791   6.523  10.377  0.4031 -0.4569 -0.1225
  115MOL0     C15427   4.706   6.397  10.359  1.1370  0.8806 -0.2534
  115MOL0     C15428   4.726   6.298  10.478  1.0138  0.0066  0.2456
  115MOL0     C15429   4.871   6.288  10.527 -0.1412 -0.0119  0.0537
  115MOL0     C15430   4.883   6.168  10.637  0.2968 -0.6176  0.8010
  115MOL0     C15431   4.803   6.185  10.767 -0.6781  0.4590  0.0763
  115MOL0     C15432   4.852   6.094  10.873 -0.3949  0.1359 -1.4246
  115MOL0     C15433   4.777   6.143  11.011 -0.1689 -0.4591  0.6159
  115MOL0    Cl15434   4.678   6.021  11.068  0.4909  0.3604 -0.1438
  115MOL0     C15435   4.558   6.691  10.389  0.4683  0.4941 -0.1012
  115MOL0     C15436   4.428   6.744  10.384  0.3410 -0.1767  0.2174
  115MOL0     O15437   4.279   7.042  10.319 -0.2662 -0.1583 -1.0553
  115MOL0     C15438   4.044   6.948  10.075 -0.4365 -0.7057  0.1437
  115MOL0     C15439   3.926   6.994  10.011 -0.0937  0.0024 -0.2727
  115MOL0     N15440   3.246   7.340   9.605  0.1600  0.8251 -0.2166
  115MOL0     N15441   3.237   7.311   9.481  0.5246 -0.8263  0.0770
  115MOL0     C15442   3.746   6.688   8.844  0.0010  0.0282  0.6809
  115MOL0     C15443   3.686   6.567   8.793 -1.2174 -0.3520 -0.6995
  115MOL0     C15444   3.567   6.228   8.532  0.1804 -0.0405  0.0649
  115MOL0     C15445   3.539   6.269   8.400  0.3477  0.2473 -0.7165
  115MOL0     C15446   3.489   6.172   8.307  1.0645 -0.3693  0.0740
  115MOL0     C15447   3.457   6.046   8.346 -0.2067  0.6119  0.2202
  115MOL0     O15448   3.393   5.945   8.274 -0.8009  0.1312 -0.4109
  115MOL0     C15449   3.335   5.992   8.156  0.3746  0.2451  0.4757
  115MOL0     C15450   3.276   5.874   8.081 -0.3620 -0.3954  0.3625
  115MOL0     C15451   3.173   5.922   7.974 -0.5641  0.2378 -0.1754
  115MOL0     C15452   3.158   5.813   7.880  0.2495 -0.0496  0.7917
  115MOL0     C15453   3.070   5.842   7.762  0.8164  0.9640  0.0031
  115MOL0     C15454   2.988   5.822   7.677 -0.9018 -0.6302  1.1716
  115MOL0     C15455   3.492   6.012   8.479 -0.3464  0.1602  0.1316
  115MOL0     C15456   3.542   6.098   8.575 -0.0162 -1.2666  0.2884
  115MOL0     C15457   3.528   6.035   8.716 -0.3181 -0.1109  0.6666
  115MOL0     H15458   3.649   6.680   8.469 -0.9506 -0.4043  0.2627
  115MOL0     H15459   3.707   6.884   8.569 -2.3948 -1.7306 -1.6685
  115MOL0     H15460   3.781   6.903   9.025  1.0420  2.4847  3.2560
  115MOL0     H15461   3.944   6.911   8.934  0.9124  1.9601 -1.3476
  115MOL0     H15462   3.916   7.151   8.895 -0.5761  2.1828  1.8815
  115MOL0     H15463   3.918   7.107   9.063 -3.2536  1.1940  1.3740
  115MOL0     H15464   3.675   7.161   8.888 -1.3900  0.4027  0.7049
  115MOL0     H15465   3.755   7.291   8.978  0.7212  0.3678 -4.2213
  115MOL0     H15466   3.607   7.054   9.094 -0.4295 -0.0836 -1.5283
  115MOL0     H15467   3.689   7.172   9.186  0.3563 -0.4369 -0.0026
  115MOL0     H15468   3.552   7.335   9.051  1.4069 -0.7662  2.6312
  115MOL0     H15469   3.439   7.209   9.002  1.6724 -1.4871 -1.9146
  115MOL0     H15470   3.481   7.302   9.298 -0.6744 -0.3109  0.4959
  115MOL0     H15471   3.343   7.288   9.197  0.3739  1.2977 -2.6776
  115MOL0     H15472   3.485   7.069   9.354 -0.1980 -1.3921  0.3764
  115MOL0     H15473   3.410   7.026   9.191 -4.1822  1.7630 -1.5811
  115MOL0     H15474   3.207   7.136   9.275 -0.7298 -0.7508 -0.6718
  115MOL0     H15475   3.244   6.999   9.378  0.6153 -0.3416 -1.0432
  115MOL0     H15476   3.359   7.040   9.606  1.5405  0.9179  1.7082
  115MOL0     H15477   3.339   7.323   9.859 -1.9474  1.3865 -0.9263
  115MOL0     H15478   3.236   7.197   9.859  0.9119  1.5328  1.7163
  115MOL0     H15479   3.458   7.128   9.983 -1.5300  1.5213 -0.2359
  115MOL0     H15480   3.430   7.036   9.837  0.1993 -0.8067  0.6950
  115MOL0     H15481   3.592   7.307   9.853 -0.0815  0.8816 -0.8323
  115MOL0     H15482   3.589   7.181   9.719  2.5505 -0.7123 -0.8502
  115MOL0     H15483   3.790   7.145   9.814  1.2714 -0.3577  2.5149
  115MOL0     H15484   3.668   7.020   9.856 -0.7154  0.3079 -1.8776
  115MOL0     H15485   3.848   7.244  10.226 -0.5342 -1.1481  2.1032
  115MOL0     H15486   4.069   7.161  10.316 -1.4940 -1.8101  1.5856
  115MOL0     H15487   4.415   6.780  10.050 -1.1012  1.0026  0.8439
  115MOL0     H15488   4.659   6.699  10.076  1.4178 -2.6138  1.4929
  115MOL0     H15489   4.894   6.487  10.378  0.6948  0.3371 -0.4187
  115MOL0     H15490   4.777   6.546  10.483  1.1136 -3.1592  0.6244
  115MOL0     H15491   4.599   6.416  10.349  0.3004 -1.4853  2.6502
  115MOL0     H15492   4.732   6.337  10.272  1.1897  0.7129 -0.1240
  115MOL0     H15493   4.667   6.344  10.558 -0.3877  1.9914 -1.7787
  115MOL0     H15494   4.690   6.198  10.454 -1.9250  1.7725 -3.8456
  115MOL0     H15495   4.898   6.385  10.571  0.4860  0.5238 -1.4620
  115MOL0     H15496   4.942   6.263  10.447  2.6345  0.0037  2.3338
  115MOL0     H15497   4.987   6.158  10.671 -0.3024  1.0245  3.4515
  115MOL0     H15498   4.856   6.070  10.598 -2.0179  1.1159 -2.4251
  115MOL0     H15499   4.819   6.284  10.811 -2.7222  0.1777  1.6226
  115MOL0     H15500   4.695   6.176  10.752 -0.9141 -2.7283  2.5208
  115MOL0     H15501   4.960   6.099  10.889 -0.0850 -4.0422 -1.0566
  115MOL0     H15502   4.839   5.988  10.847 -2.3543 -0.1111  0.2976
  115MOL0     H15503   4.864   6.164  11.075  0.3630  1.4465 -0.6726
  115MOL0     H15504   4.718   6.233  10.994  3.0663  1.1083 -4.8233
  115MOL0     H15505   4.599   6.674  10.488  0.4430 -0.7576 -0.2977
  115MOL0     H15506   4.368   6.773  10.470  0.4787  0.2637  0.1704
  115MOL0     H15507   4.106   6.869  10.033  1.0521  0.4356  0.0921
  115MOL0     H15508   3.902   6.931   9.926  3.1147 -3.4728  1.0815
  115MOL0     H15509   3.786   6.680   8.944 -4.5968  1.4226  2.9059
  115MOL0     H15510   3.672   6.480   8.857 -0.6344 -0.5633 -0.8530
  115MOL0     H15511   3.553   6.368   8.358 -1.4880  0.4103 -1.0151
  115MOL0     H15512   3.461   6.206   8.208  1.2179 -2.8749 -0.9130
  115MOL0     H15513   3.410   6.035   8.090  2.2957  0.3712  2.6006
  115MOL0     H15514   3.260   6.070   8.172  0.5033  0.7816 -1.3563
  115MOL0     H15515   3.227   5.805   8.151 -0.8155 -6.0970 -4.7887
  115MOL0     H15516   3.356   5.817   8.034 -0.7155 -1.2034  0.7338
  115MOL0     H15517   3.206   6.015   7.927 -0.8802  0.2214 -0.4338
  115MOL0     H15518   3.080   5.949   8.025  1.0876 -0.2039  3.3207
  115MOL0     H15519   3.254   5.794   7.831 -0.6752 -0.9528 -0.7535
  115MOL0     H15520   3.118   5.727   7.935 -1.1545  0.8396  1.1875
  115MOL0     H15521   2.928   5.785   7.596 -1.9330 -3.3234  3.0155
  115MOL0     H15522   3.454   5.911   8.491 -0.7028  0.1715 -0.8258
  115MOL0     H15523   3.529   5.926   8.711  5.0089 -0.2352 -2.6817
  115MOL0     H15524   3.612   6.069   8.778 -3.0407  3.8878  2.5934
  115MOL0     H15525   3.435   6.064   8.766 -1.0069 -1.4748  0.2407
  116MOL0     O15526   4.612   0.828   6.467  0.1950  0.9347  0.2331
  116MOL0     C15527   4.604   0.714   6.413 -0.1373  0.1474  0.2242
  116MOL0     O15528   4.716   0.632   6.403 -0.1612  0.3961  0.1689
  116MOL0     C15529   4.838   0.677   6.442 -0.0521  0.7016  0.5236
  116MOL0     C15530   4.928   0.731   6.353  0.2558 -0.2795  0.2257
  116MOL0     C15531   5.044   0.785   6.394  0.5791 -0.3764  0.8620
  116MOL0     C15532   5.080   0.775   6.526  0.1464  0.3767  0.2012
  116MOL0     O15533   5.201   0.837   6.568 -0.5620 -0.2033  0.1155
  116MOL0     C15534   5.267   0.802   6.698 -1.3302 -0.7306  0.3866
  116MOL0     C15535   5.395   0.883   6.716  1.2305  0.5146 -0.1049
  116MOL0     C15536   5.463   0.837   6.847 -0.2692  0.2851 -0.5229
  116MOL0     C15537   5.608   0.894   6.872  0.5146 -0.7124 -0.1155
  116MOL0     C15538   5.672   0.832   6.997  1.2721  1.2312  0.2430
  116MOL0     C15539   5.799   0.909   7.058  0.2869  0.7022  0.0960
  116MOL0     C15540   5.911   0.965   6.960 -0.4325 -0.2492 -0.9005
  116MOL0     C15541   5.964   0.852   6.874 -0.7243 -0.4860  0.7399
  116MOL0     N15542   6.084   0.787   6.924  0.4882  0.0815 -0.4968
  116MOL0     C15543   6.091   0.678   7.003 -0.0731 -0.5509 -0.3881
  116MOL0     C15544   6.211   0.658   7.052  0.0157 -0.4637  0.1394
  116MOL0     C15545   6.227   0.575   7.180 -0.3829  0.4957  0.2772
  116MOL0     C15546   6.377   0.563   7.219  0.5643 -0.7781  0.1719
  116MOL0     C15547   6.463   0.474   7.138 -0.0634 -0.1454 -0.4668
  116MOL0     C15548   6.573   0.419   7.221  0.2524 -0.3921  1.1686
  116MOL0     O15549   6.524   0.352   7.337  0.4821  1.1043  0.0461
  116MOL0     C15550   6.622   0.319   7.422  0.1437 -0.9146 -0.4363
  116MOL0     C15551   6.720   0.414   7.465  0.8072 -0.2526  0.9335
  116MOL0     C15552   6.804   0.378   7.566 -0.0559 -0.5197 -0.3489
  116MOL0     C15553   6.811   0.258   7.624 -0.1772 -0.1704 -0.8136
  116MOL0     C15554   6.919   0.218   7.730 -0.4713 -0.5828 -0.1022
  116MOL0     O15555   6.903   0.097   7.790  0.3313  0.4939  0.2042
  116MOL0     C15556   6.986   0.051   7.879 -0.0867  0.3055 -2.0326
  116MOL0     C15557   6.938   0.022   8.012 -0.8831 -0.5140  0.4109
  116MOL0     C15558   7.033  -0.017   8.103  1.0297 -0.8044 -0.3320
  116MOL0     C15559   7.170  -0.012   8.075 -0.6911  0.3566 -0.4679
  116MOL0     O15560   7.250  -0.026   8.184  0.1017 -0.2273 -0.2863
  116MOL0     C15561   7.360   0.067   8.193  0.1207  0.1083 -1.5791
  116MOL0     C15562   7.433   0.066   8.334  0.3999 -0.0149  1.1235
  116MOL0     C15563   7.327   0.110   8.444  0.4220  0.0098  0.0509
  116MOL0     C15564   7.374   0.112   8.586  0.0065  0.1297 -0.0765
  116MOL0     C15565   7.442  -0.024   8.636 -0.5567  1.1578 -1.0900
  116MOL0     C15566   7.520  -0.002   8.776  0.3004  0.8798 -0.0156
  116MOL0     C15567   7.555  -0.126   8.849  0.9857 -0.2729  0.5814
  116MOL0     C15568   7.655  -0.117   8.965 -0.3829  0.2667 -0.3392
  116MOL0    Cl15569   7.802  -0.102   8.872  0.0391  0.0062 -0.2939
  116MOL0     C15570   7.225   0.010   7.942  0.1913 -0.6459 -0.5238
  116MOL0     C15571   7.122   0.041   7.846 -0.1816 -0.2844  0.1402
  116MOL0     O15572   7.025   0.286   7.726  0.2262  0.9451 -0.5613
  116MOL0     C15573   6.707   0.166   7.591  0.4054  0.0402  0.5896
  116MOL0     C15574   6.621   0.191   7.480  1.4776 -0.1052  0.2570
  116MOL0     N15575   6.290   0.746   6.987 -0.3254 -0.3109  0.6400
  116MOL0     N15576   6.214   0.824   6.910 -0.1329  0.8803  0.7922
  116MOL0     C15577   4.999   0.703   6.614 -0.0094 -0.1011  0.1537
  116MOL0     C15578   4.874   0.667   6.569 -0.1680  0.5543 -0.4936
  116MOL0     C15579   4.495   0.681   6.327  0.4320 -0.2486  0.1015
  116MOL0     C15580   4.515   0.592   6.221 -0.1628 -0.7832 -0.0040
  116MOL0     C15581   4.412   0.569   6.129 -0.0594  0.5994 -0.4634
  116MOL0     C15582   4.282   0.627   6.151 -0.8082  0.0670  0.5380
  116MOL0     O15583   4.179   0.605   6.058  0.1533 -0.0989  0.3198
  116MOL0     C15584   4.045   0.648   6.081  0.6780  0.5683  0.2698
  116MOL0     C15585   3.953   0.571   5.978 -0.0130  0.3561 -0.7296
  116MOL0     C15586   3.966   0.605   5.829  0.1158 -0.3114 -0.0305
  116MOL0     C15587   3.898   0.516   5.737  0.2707 -0.4576  0.4339
  116MOL0     C15588   3.973   0.499   5.614 -0.7288 -0.2577 -0.6226
  116MOL0     C15589   4.044   0.461   5.528 -0.6651  0.1081 -0.1388
  116MOL0     C15590   4.266   0.708   6.257  0.1283 -0.2692 -0.2911
  116MOL0     C15591   4.368   0.745   6.348 -0.4589 -0.7545  0.5366
  116MOL0     C15592   4.325   0.828   6.462  0.2566  0.2983  0.5022
  116MOL0     H15593   4.888   0.741   6.253 -1.8059 -1.1484  0.9239
  116MOL0     H15594   5.106   0.832   6.317 -0.5766 -2.2595 -1.3370
  116MOL0     H15595   5.218   0.832   6.791 -2.1525  1.3926 -0.6648
  116MOL0     H15596   5.286   0.694   6.700 -1.5478 -0.7580  1.1992
  116MOL0     H15597   5.354   0.984   6.728  1.6422  0.5243  1.4675
  116MOL0     H15598   5.456   0.892   6.626 -0.8827  0.4754 -1.6175
  116MOL0     H15599   5.475   0.728   6.848  3.0180  0.5314  2.1016
  116MOL0     H15600   5.401   0.866   6.933  0.3321  2.6226 -0.8074
  116MOL0     H15601   5.659   0.878   6.776 -1.4810 -1.7767 -1.0699
  116MOL0     H15602   5.597   1.002   6.886 -0.9131 -0.3964 -2.9275
  116MOL0     H15603   5.594   0.831   7.074  1.6672  1.2624  0.6438
  116MOL0     H15604   5.695   0.729   6.969 -4.3727  0.1914 -1.9847
  116MOL0     H15605   5.772   1.000   7.113 -0.8811  1.1141 -1.1095
  116MOL0     H15606   5.845   0.835   7.124  0.7616  1.3030  0.4517
  116MOL0     H15607   5.996   0.999   7.019 -0.0432 -2.2597 -0.2471
  116MOL0     H15608   5.866   1.048   6.903 -2.9697 -1.6285 -1.0826
  116MOL0     H15609   5.887   0.779   6.846 -0.3619  0.0590 -1.9983
  116MOL0     H15610   5.985   0.909   6.783 -0.8012  4.9099  3.7040
  116MOL0     H15611   6.005   0.622   7.038  0.6030 -0.7730  0.9567
  116MOL0     H15612   6.161   0.623   7.253 -2.8288 -0.7825 -0.9681
  116MOL0     H15613   6.188   0.475   7.161 -1.2212  1.1115 -1.4327
  116MOL0     H15614   6.425   0.659   7.242  0.5609 -0.7729  0.1580
  116MOL0     H15615   6.372   0.519   7.319  3.4375 -1.4129  0.1259
  116MOL0     H15616   6.505   0.512   7.044 -0.7072  0.6965 -0.4231
  116MOL0     H15617   6.411   0.380   7.116 -0.7849  0.2595 -0.5269
  116MOL0     H15618   6.633   0.504   7.255  0.7841 -0.1764 -0.2229
  116MOL0     H15619   6.648   0.365   7.161  1.1409  1.5127  0.4933
  116MOL0     H15620   6.723   0.517   7.433  1.7053 -0.7847 -0.8667
  116MOL0     H15621   6.869   0.458   7.601 -1.5919  1.6302 -2.1417
  116MOL0     H15622   6.830   0.022   8.027 -1.2794 -0.6222 -1.9916
  116MOL0     H15623   6.986  -0.030   8.199 -5.8425  1.2749 -2.8137
  116MOL0     H15624   7.434   0.035   8.120  0.6182 -0.9725 -0.6292
  116MOL0     H15625   7.322   0.167   8.167 -0.2785 -0.3514 -2.7986
  116MOL0     H15626   7.476  -0.032   8.355  2.0349  0.8301  1.9609
  116MOL0     H15627   7.516   0.137   8.324 -1.0352  1.4538 -1.0657
  116MOL0     H15628   7.293   0.210   8.415  1.1651 -0.5269 -2.9435
  116MOL0     H15629   7.241   0.042   8.441  0.7463 -0.3716 -0.9027
  116MOL0     H15630   7.287   0.136   8.648 -0.3771 -1.6305  0.1390
  116MOL0     H15631   7.439   0.199   8.583 -1.7771  1.5312  0.4330
  116MOL0     H15632   7.515  -0.051   8.560 -1.5219  1.0232 -2.0010
  116MOL0     H15633   7.371  -0.106   8.653  0.4697 -0.4904 -4.0403
  116MOL0     H15634   7.599   0.072   8.758 -2.2788  3.5730 -1.2178
  116MOL0     H15635   7.464   0.054   8.852  2.4469  2.6295  0.3606
  116MOL0     H15636   7.594  -0.189   8.769 -1.4105 -0.3286 -0.6557
  116MOL0     H15637   7.466  -0.174   8.893  0.2992  0.8226  0.4239
  116MOL0     H15638   7.639  -0.035   9.036 -1.0555 -2.3130  2.7077
  116MOL0     H15639   7.655  -0.210   9.022  0.0229  0.3432 -0.2124
  116MOL0     H15640   7.331   0.011   7.919 -0.1499  2.3900 -2.6387
  116MOL0     H15641   7.171   0.052   7.750 -1.5319 -3.0033 -0.9680
  116MOL0     H15642   6.703   0.063   7.626  0.3620 -0.3555 -0.5420
  116MOL0     H15643   6.544   0.119   7.454 -0.0476  0.9663  1.6112
  116MOL0     H15644   5.033   0.689   6.716  1.4216  0.2878 -0.2348
  116MOL0     H15645   4.808   0.623   6.643 -0.7263 -1.6610 -2.1776
  116MOL0     H15646   4.615   0.553   6.205 -0.5556 -2.3769  1.1877
  116MOL0     H15647   4.433   0.489   6.059  1.0273  1.1422 -0.7624
  116MOL0     H15648   4.024   0.755   6.086 -1.3404  0.1720  2.8602
  116MOL0     H15649   4.020   0.613   6.182 -0.9562 -0.3123 -0.4155
  116MOL0     H15650   3.855   0.581   6.025  0.8065  1.2116  0.8672
  116MOL0     H15651   3.977   0.464   5.988  0.2781  0.2997 -1.8042
  116MOL0     H15652   4.072   0.615   5.804  0.7920  0.1614  2.6838
  116MOL0     H15653   3.919   0.702   5.814 -3.0846 -1.9261 -1.3344
  116MOL0     H15654   3.895   0.420   5.789  0.6022 -0.9131 -0.3516
  116MOL0     H15655   3.797   0.535   5.699  0.1033 -1.3838  0.3990
  116MOL0     H15656   4.107   0.436   5.445  0.6781 -0.1835  0.9496
  116MOL0     H15657   4.166   0.749   6.268 -0.2243 -0.5836 -1.9917
  116MOL0     H15658   4.225   0.804   6.497 -0.8227  2.4854 -0.8641
  116MOL0     H15659   4.387   0.800   6.548 -0.4527  3.9843  2.4177
  116MOL0     H15660   4.352   0.932   6.441 -0.1710  0.2603 -0.2547
  117MOL0     O15661   7.494   1.697   6.381 -0.0122  0.0386  0.0059
  117MOL0     C15662   7.588   1.733   6.452  0.6848  0.3864  0.0119
  117MOL0     O15663   7.705   1.667   6.455  0.1020 -0.6909  0.1997
  117MOL0     C15664   7.723   1.547   6.393 -0.3398  0.1896  0.4676
  117MOL0     C15665   7.811   1.543   6.289  0.8661 -0.0758 -0.2985
  117MOL0     C15666   7.864   1.420   6.252  0.1197  0.2163  0.1452
  117MOL0     C15667   7.795   1.299   6.297  0.8674  0.7140 -0.2465
  117MOL0     O15668   7.858   1.184   6.255 -0.0625  0.7837 -0.2018
  117MOL0     C15669   7.783   1.099   6.162  0.5148  0.5448 -0.0148
  117MOL0     C15670   7.729   0.972   6.231 -1.0450 -0.6854 -0.0053
  117MOL0     C15671   7.643   0.892   6.133 -0.6424  0.3611 -0.6309
  117MOL0     C15672   7.495   0.947   6.107 -0.0338  0.0527 -0.0186
  117MOL0     C15673   7.396   0.878   6.023  0.2148 -0.1847  0.4186
  117MOL0     C15674   7.457   0.857   5.883 -1.5168  0.4433 -0.0642
  117MOL0     C15675   7.351   0.804   5.783 -0.1374 -0.0859 -0.2484
  117MOL0     C15676   7.333   0.657   5.804  0.3922  0.0104 -0.4556
  117MOL0     N15677   7.196   0.610   5.796 -0.4853  0.4941 -0.1562
  117MOL0     C15678   7.137   0.611   5.674 -0.8462  0.3705 -0.6401
  117MOL0     C15679   7.064   0.497   5.679 -0.6761 -0.8481 -0.2590
  117MOL0     C15680   7.005   0.426   5.564  0.9570 -0.1861 -0.6898
  117MOL0     C15681   7.104   0.335   5.498 -0.1405 -0.6865 -0.8158
  117MOL0     C15682   7.057   0.299   5.352 -0.3862  0.3575 -0.1925
  117MOL0     C15683   7.088   0.416   5.254 -0.2002 -0.1205  0.3933
  117MOL0     O15684   7.222   0.395   5.199 -0.1259  0.1220 -1.1528
  117MOL0     C15685   7.325   0.409   5.289  0.0843  0.8699  0.8010
  117MOL0     C15686   7.348   0.536   5.342  0.1296  0.5011 -0.2809
  117MOL0     C15687   7.447   0.555   5.438  0.4875 -0.5948  0.2226
  117MOL0     C15688   7.542   0.455   5.463  0.0787  0.4361  0.1348
  117MOL0     C15689   7.654   0.477   5.558  1.0605  0.6203 -0.0302
  117MOL0     O15690   7.644   0.573   5.655 -0.6688 -0.0407  0.1404
  117MOL0     C15691   7.759   0.613   5.720  0.1323 -0.2475  0.1894
  117MOL0     C15692   7.759   0.606   5.859  0.3564  0.7749 -0.5094
  117MOL0     C15693   7.864   0.676   5.933  0.0740 -0.1357  0.0450
  117MOL0     C15694   7.956   0.752   5.861 -0.0944 -0.8676 -0.4517
  117MOL0     O15695   8.041   0.817   5.954  0.1677  0.9718  0.5686
  117MOL0     C15696   8.094   0.943   5.914 -0.7719  0.0156 -0.2067
  117MOL0     C15697   8.166   1.002   6.035  0.7362  0.9737 -1.3774
  117MOL0     C15698   8.261   1.112   5.998 -0.8057 -0.9988  0.7485
  117MOL0     C15699   8.364   1.155   6.107  0.1396 -0.2022  0.2957
  117MOL0     C15700   8.460   1.264   6.057  0.0870  0.0594  0.3396
  117MOL0     C15701   8.570   1.287   6.167  0.2750  0.1840  0.3028
  117MOL0     C15702   8.657   1.402   6.125 -1.0430  0.5458  0.1165
  117MOL0     C15703   8.589   1.542   6.135  0.1168 -0.4489  1.2805
  117MOL0    Cl15704   8.555   1.604   5.963 -0.0849 -0.3547 -0.0437
  117MOL0     C15705   7.955   0.758   5.718  0.9436 -0.1410 -0.7448
  117MOL0     C15706   7.853   0.690   5.650  1.0775  1.2494 -0.4602
  117MOL0     O15707   7.742   0.396   5.544 -0.7440 -0.2884 -0.1191
  117MOL0     C15708   7.525   0.332   5.390  0.3735 -0.0996 -0.5457
  117MOL0     C15709   7.419   0.309   5.305 -0.4398  0.2724 -0.6227
  117MOL0     N15710   7.053   0.450   5.812 -0.1030  0.4119 -0.5725
  117MOL0     N15711   7.127   0.531   5.887 -0.1386  0.3661  0.9212
  117MOL0     C15712   7.703   1.296   6.398  0.0989 -1.0274 -0.7656
  117MOL0     C15713   7.670   1.427   6.444 -0.1855  0.6883 -0.5834
  117MOL0     C15714   7.600   1.867   6.527  0.0298 -0.6067 -0.4479
  117MOL0     C15715   7.731   1.905   6.562  0.2744 -0.2274  0.6770
  117MOL0     C15716   7.749   2.026   6.629  0.1731 -0.1045  0.0973
  117MOL0     C15717   7.644   2.111   6.667  0.0572 -0.5035  0.3009
  117MOL0     O15718   7.647   2.231   6.729  0.0884  0.0257 -0.6842
  117MOL0     C15719   7.765   2.263   6.798  0.4902  0.6522 -0.5710
  117MOL0     C15720   7.715   2.348   6.911 -0.3288  0.7680 -1.1631
  117MOL0     C15721   7.817   2.459   6.948  0.2111  0.7599 -0.2103
  117MOL0     C15722   7.788   2.501   7.085  0.0029 -0.1746 -0.0835
  117MOL0     C15723   7.882   2.601   7.122  0.6557  0.0623 -0.3611
  117MOL0     C15724   7.953   2.698   7.132 -0.6550 -0.0090 -0.6436
  117MOL0     C15725   7.521   2.072   6.631 -0.2654  0.0784 -0.2168
  117MOL0     C15726   7.490   1.946   6.567 -0.4382 -1.0957 -0.2310
  117MOL0     C15727   7.340   1.921   6.550 -0.0670  0.5833 -0.6320
  117MOL0     H15728   7.862   1.631   6.252 -0.0237  0.2713 -0.7339
  117MOL0     H15729   7.944   1.407   6.180 -0.0279 -1.6109  0.2709
  117MOL0     H15730   7.703   1.154   6.111  0.1556 -2.4016 -2.9934
  117MOL0     H15731   7.852   1.081   6.080  0.4762 -0.7681  0.2185
  117MOL0     H15732   7.673   1.014   6.315 -0.0561  2.1025 -0.6362
  117MOL0     H15733   7.810   0.910   6.269  0.0107  1.1799  0.8919
  117MOL0     H15734   7.640   0.789   6.171 -0.4320  0.0422 -1.4387
  117MOL0     H15735   7.687   0.883   6.033 -3.7987  0.2630 -2.1385
  117MOL0     H15736   7.452   0.957   6.207  2.3547  0.5729  1.0381
  117MOL0     H15737   7.510   1.046   6.065 -2.3348  0.7625  0.7034
  117MOL0     H15738   7.362   0.784   6.066  3.9465 -2.7547 -1.6708
  117MOL0     H15739   7.320   0.956   6.017  0.1415 -0.3541 -1.0846
  117MOL0     H15740   7.503   0.947   5.839  1.0869 -1.7660 -2.2257
  117MOL0     H15741   7.532   0.778   5.878 -1.8325  0.1693 -0.6090
  117MOL0     H15742   7.384   0.811   5.679 -3.8711 -0.3637 -1.6127
  117MOL0     H15743   7.249   0.841   5.795  0.9457  2.3366  2.7073
  117MOL0     H15744   7.390   0.607   5.725  0.7258 -2.3821  1.1930
  117MOL0     H15745   7.378   0.628   5.900  2.9012  2.8241 -0.6336
  117MOL0     H15746   7.166   0.662   5.583  1.3234 -1.4409 -1.0533
  117MOL0     H15747   6.915   0.370   5.591  0.3750 -0.0672 -2.2901
  117MOL0     H15748   6.984   0.502   5.488 -0.2195 -2.1155 -2.3988
  117MOL0     H15749   7.205   0.378   5.500 -1.3451  2.4438  1.5525
  117MOL0     H15750   7.117   0.240   5.551 -3.2580 -1.6028 -1.5055
  117MOL0     H15751   6.949   0.280   5.348 -0.0223 -1.9658 -2.6081
  117MOL0     H15752   7.103   0.206   5.316 -1.3478  0.2873 -1.3173
  117MOL0     H15753   7.056   0.516   5.283 -4.1650 -1.0711 -0.1153
  117MOL0     H15754   7.028   0.397   5.165  1.9166  2.1972 -1.6845
  117MOL0     H15755   7.277   0.615   5.323 -2.4681 -0.9821  2.4012
  117MOL0     H15756   7.453   0.657   5.473 -1.4807  1.3213 -4.2578
  117MOL0     H15757   7.676   0.559   5.910  0.6904  1.0179  0.2820
  117MOL0     H15758   7.870   0.679   6.041 -1.3723  2.4011  0.1125
  117MOL0     H15759   8.176   0.923   5.844 -1.0934  1.3310 -0.9998
  117MOL0     H15760   8.019   1.005   5.863 -1.0381 -0.0462  0.1055
  117MOL0     H15761   8.099   1.043   6.111  0.9616 -1.3349  0.1678
  117MOL0     H15762   8.214   0.923   6.095 -0.3280  0.3926 -1.2599
  117MOL0     H15763   8.310   1.103   5.901 -0.7001  4.8387 -0.1264
  117MOL0     H15764   8.204   1.204   5.981  1.6468  0.5449  0.5399
  117MOL0     H15765   8.413   1.062   6.136  1.0883  0.3618  0.5720
  117MOL0     H15766   8.314   1.185   6.199  0.7535 -0.7996  0.8341
  117MOL0     H15767   8.397   1.353   6.055  0.4003  0.2765 -0.1775
  117MOL0     H15768   8.490   1.232   5.957 -2.7258 -0.1090 -0.5440
  117MOL0     H15769   8.529   1.301   6.267  1.1921 -0.0407  0.7198
  117MOL0     H15770   8.642   1.205   6.166 -0.0110 -0.0826 -1.0557
  117MOL0     H15771   8.703   1.397   6.026 -2.2389 -1.1163 -0.3869
  117MOL0     H15772   8.738   1.389   6.198 -2.1536 -0.2838  1.2384
  117MOL0     H15773   8.503   1.545   6.202 -1.5880  0.7898 -0.8264
  117MOL0     H15774   8.668   1.606   6.177 -0.1467  2.1637 -1.7692
  117MOL0     H15775   8.024   0.819   5.661 -0.4184  1.9486 -0.2754
  117MOL0     H15776   7.833   0.691   5.543 -0.8178  1.0519 -0.1465
  117MOL0     H15777   7.597   0.253   5.412  1.5514  1.5153  1.8454
  117MOL0     H15778   7.408   0.212   5.258 -1.0691 -1.1780  2.3048
  117MOL0     H15779   7.643   1.216   6.441 -0.2614 -0.5544 -0.3672
  117MOL0     H15780   7.595   1.436   6.521 -2.6734 -1.8223 -2.5445
  117MOL0     H15781   7.821   1.854   6.530 -0.9864 -1.0806 -1.7285
  117MOL0     H15782   7.853   2.054   6.641  0.5311 -0.9754 -0.8075
  117MOL0     H15783   7.831   2.319   6.731 -0.7610  3.1336  0.1488
  117MOL0     H15784   7.809   2.168   6.831  0.1395  0.8585  0.5357
  117MOL0     H15785   7.699   2.281   6.995  0.5167 -2.4754 -3.4008
  117MOL0     H15786   7.623   2.398   6.878 -1.9335  0.0428  1.9159
  117MOL0     H15787   7.802   2.549   6.888  2.5085  1.3493 -0.0032
  117MOL0     H15788   7.922   2.433   6.936 -0.0644 -0.7748  0.4174
  117MOL0     H15789   7.684   2.532   7.095 -0.0180 -0.1852 -0.2787
  117MOL0     H15790   7.804   2.415   7.151 -1.3361  1.4516  2.5289
  117MOL0     H15791   7.998   2.795   7.134 -0.6024 -0.0375 -0.4182
  117MOL0     H15792   7.437   2.126   6.674 -1.4310 -1.6006 -0.2869
  117MOL0     H15793   7.317   1.817   6.574  0.6175  0.6498  0.4275
  117MOL0     H15794   7.274   1.992   6.600 -1.6983 -2.0161  1.1155
  117MOL0     H15795   7.325   1.929   6.442  3.2712 -1.7409 -1.4662
  118MOL0     O15796   6.458   5.759   5.758 -0.4892  0.6882 -0.2359
  118MOL0     C15797   6.329   5.756   5.784 -0.3564 -0.2302 -0.2992
  118MOL0     O15798   6.273   5.676   5.864  0.4708  0.7588 -0.2677
  118MOL0     C15799   6.341   5.560   5.899  0.1436 -0.8930 -0.1714
  118MOL0     C15800   6.344   5.453   5.816 -0.1217  0.5014 -0.2183
  118MOL0     C15801   6.383   5.325   5.856  1.1307  0.3165  0.3292
  118MOL0     C15802   6.422   5.306   5.996 -0.1275 -0.2374  0.6070
  118MOL0     O15803   6.478   5.185   6.031 -0.2708  0.7094 -1.0940
  118MOL0     C15804   6.594   5.139   5.958 -0.0324  0.0963  0.0274
  118MOL0     C15805   6.718   5.204   6.013  0.4128 -0.3457  0.4740
  118MOL0     C15806   6.846   5.147   5.952  0.6808  1.1671 -0.4677
  118MOL0     C15807   6.873   5.193   5.814 -0.6578 -0.3167 -0.3940
  118MOL0     C15808   6.990   5.134   5.748 -0.5020  0.0492 -0.2289
  118MOL0     C15809   6.945   5.015   5.648  0.4289  0.6523 -0.9753
  118MOL0     C15810   7.050   4.967   5.567 -1.1826 -0.3298  0.5294
  118MOL0     C15811   6.996   4.889   5.453 -0.1089  0.6933 -1.2301
  118MOL0     N15812   6.965   4.745   5.482 -0.1438  0.7638  0.6004
  118MOL0     C15813   6.903   4.667   5.384  0.6003 -0.1932  0.4170
  118MOL0     C15814   6.884   4.543   5.444  0.0870 -1.0519 -0.0851
  118MOL0     C15815   6.807   4.430   5.382 -0.2933  0.4356 -0.2354
  118MOL0     C15816   6.707   4.362   5.481 -0.2205 -0.5252 -0.4625
  118MOL0     C15817   6.623   4.256   5.405  0.3904  0.1423  0.2938
  118MOL0     C15818   6.472   4.240   5.456 -1.6289 -0.1240  1.0562
  118MOL0     O15819   6.429   4.107   5.427 -0.4558 -0.1362  0.3296
  118MOL0     C15820   6.454   4.011   5.516 -0.2510  0.2527  0.0809
  118MOL0     C15821   6.364   3.905   5.507  0.5581 -0.0129  0.0806
  118MOL0     C15822   6.373   3.804   5.602  0.8904  0.1599  1.0637
  118MOL0     C15823   6.478   3.792   5.695 -0.6203  0.1359 -0.5265
  118MOL0     C15824   6.473   3.686   5.803 -0.4520  0.2588  0.3360
  118MOL0     O15825   6.536   3.716   5.918 -0.1535  0.2880 -0.4167
  118MOL0     C15826   6.511   3.627   6.025  0.4963 -0.8225 -0.2285
  118MOL0     C15827   6.541   3.496   6.019  0.3844  0.5113  0.7184
  118MOL0     C15828   6.538   3.419   6.133  0.0620  0.1827 -0.4079
  118MOL0     C15829   6.532   3.478   6.263 -0.0368  1.1631 -0.6305
  118MOL0     O15830   6.535   3.416   6.387 -0.8163 -0.1085  0.1764
  118MOL0     C15831   6.588   3.281   6.387 -0.0550 -0.3434 -0.7219
  118MOL0     C15832   6.591   3.240   6.533 -0.4084 -0.8978  0.2738
  118MOL0     C15833   6.680   3.109   6.545 -0.3949  0.0649  0.0350
  118MOL0     C15834   6.606   2.980   6.509 -0.3732  0.1084  0.7356
  118MOL0     C15835   6.696   2.857   6.504  0.0959 -0.7126  0.1050
  118MOL0     C15836   6.768   2.846   6.363  0.2098  0.1731  0.8347
  118MOL0     C15837   6.878   2.724   6.356  1.0782  0.0120 -1.1003
  118MOL0     C15838   6.911   2.660   6.224 -0.2923  0.1633  0.8413
  118MOL0    Cl15839   7.041   2.754   6.145 -0.0947  0.1394  0.1479
  118MOL0     C15840   6.492   3.604   6.270 -0.8773  0.3802 -0.9084
  118MOL0     C15841   6.486   3.683   6.154 -0.6429  0.2692 -0.0716
  118MOL0     O15842   6.391   3.593   5.786  0.1893 -0.0532  0.2237
  118MOL0     C15843   6.568   3.902   5.700 -0.0814  0.4062  0.4557
  118MOL0     C15844   6.561   4.009   5.610 -0.0915 -0.3343  0.4970
  118MOL0     N15845   6.949   4.544   5.565  0.6738 -0.4229 -0.4161
  118MOL0     N15846   6.981   4.677   5.601  0.3287  0.9413  0.7376
  118MOL0     C15847   6.420   5.414   6.084  0.5444 -0.6032  0.5243
  118MOL0     C15848   6.367   5.542   6.039 -0.6653  0.6315 -0.2662
  118MOL0     C15849   6.255   5.878   5.728  0.1630  1.4153 -0.2547
  118MOL0     C15850   6.192   5.961   5.812  0.9160  0.0546 -0.2013
  118MOL0     C15851   6.128   6.066   5.770 -0.4293 -1.3131 -0.1829
  118MOL0     C15852   6.109   6.101   5.636  0.4447  0.8254 -0.5540
  118MOL0     O15853   6.040   6.214   5.614 -0.2019 -0.5274  0.1745
  118MOL0     C15854   6.069   6.293   5.494 -0.0509 -0.1445  0.3907
  118MOL0     C15855   6.219   6.348   5.479  0.6730  0.0413 -0.3074
  118MOL0     C15856   6.268   6.460   5.577 -0.1949  1.1278  0.0668
  118MOL0     C15857   6.218   6.594   5.533 -0.0306  0.0116 -0.8640
  118MOL0     C15858   6.205   6.680   5.648  0.5595  0.6416  0.0637
  118MOL0     C15859   6.195   6.755   5.740 -0.9595 -0.3525 -0.3645
  118MOL0     C15860   6.166   6.016   5.539  0.5955 -0.4446  0.7746
  118MOL0     C15861   6.250   5.907   5.579  0.7162  0.7329  0.1396
  118MOL0     C15862   6.336   5.830   5.478 -0.0530 -0.3301  0.6523
  118MOL0     H15863   6.312   5.463   5.713  2.3109 -0.0289 -1.1077
  118MOL0     H15864   6.407   5.256   5.775  1.5564 -1.4896  1.9059
  118MOL0     H15865   6.613   5.032   5.960  0.9542  0.1839 -1.8365
  118MOL0     H15866   6.592   5.160   5.850  0.7309 -1.0690 -0.2295
  118MOL0     H15867   6.719   5.188   6.121 -1.2270 -3.3056  0.1480
  118MOL0     H15868   6.713   5.313   6.002  3.6529  0.0139  1.3318
  118MOL0     H15869   6.843   5.039   5.966  0.5590  0.8866 -2.3410
  118MOL0     H15870   6.927   5.189   6.013  1.7846 -0.8427 -0.4788
  118MOL0     H15871   6.791   5.175   5.743  0.0230 -0.2733 -1.2052
  118MOL0     H15872   6.883   5.301   5.827 -3.7279  0.1160 -0.7459
  118MOL0     H15873   7.021   5.211   5.677 -0.8937  0.4904  0.0749
  118MOL0     H15874   7.076   5.099   5.805  0.5074  2.4775 -0.1516
  118MOL0     H15875   6.906   4.933   5.709  3.4560 -0.0406  0.1940
  118MOL0     H15876   6.863   5.057   5.588  0.2327 -0.0964 -1.2430
  118MOL0     H15877   7.123   4.908   5.622  0.8196  0.8754 -0.7183
  118MOL0     H15878   7.100   5.055   5.524  1.0074 -1.7023  0.1247
  118MOL0     H15879   6.911   4.941   5.408  0.6773  3.4909  0.2238
  118MOL0     H15880   7.079   4.877   5.383  0.1556 -0.0489 -0.7997
  118MOL0     H15881   6.875   4.691   5.282  1.0851 -2.4647 -0.3015
  118MOL0     H15882   6.752   4.471   5.296 -2.1936  3.8191  2.3206
  118MOL0     H15883   6.866   4.344   5.351 -2.5401 -0.9498 -0.9163
  118MOL0     H15884   6.779   4.318   5.550  2.1550  1.9800 -1.2103
  118MOL0     H15885   6.640   4.432   5.532  1.6944 -1.3060  3.5284
  118MOL0     H15886   6.675   4.160   5.407 -0.3465 -0.4550 -3.1681
  118MOL0     H15887   6.615   4.292   5.302 -3.6610  2.6238  1.2610
  118MOL0     H15888   6.416   4.316   5.401  1.5556  0.7609 -1.2074
  118MOL0     H15889   6.472   4.260   5.564 -1.2473 -0.1383  1.0581
  118MOL0     H15890   6.283   3.895   5.435  0.9006  1.4025 -0.5225
  118MOL0     H15891   6.305   3.720   5.594  0.3776  0.7240 -3.0326
  118MOL0     H15892   6.567   3.453   5.923  3.2210  0.1665  1.5464
  118MOL0     H15893   6.567   3.315   6.119  0.2415  0.6242 -4.2653
  118MOL0     H15894   6.520   3.214   6.334 -0.6685 -0.5455  0.3083
  118MOL0     H15895   6.682   3.263   6.333  1.0325 -3.0882  1.8247
  118MOL0     H15896   6.650   3.305   6.599 -3.4840 -1.5676  4.0142
  118MOL0     H15897   6.491   3.241   6.578 -0.2001 -0.5546  0.7341
  118MOL0     H15898   6.768   3.116   6.481 -1.1633  0.0557 -1.0508
  118MOL0     H15899   6.708   3.097   6.650  0.9070 -0.1246 -0.3166
  118MOL0     H15900   6.557   2.998   6.413  0.1104 -0.5203  0.3671
  118MOL0     H15901   6.531   2.977   6.589 -0.6125  0.6787  0.5401
  118MOL0     H15902   6.638   2.771   6.536 -0.3288 -0.1602  0.8411
  118MOL0     H15903   6.773   2.866   6.581  0.6099 -1.9633 -0.2394
  118MOL0     H15904   6.691   2.834   6.286  0.2725 -0.0311  0.8026
  118MOL0     H15905   6.816   2.942   6.342  3.2408 -1.1647  1.1151
  118MOL0     H15906   6.836   2.652   6.426 -1.2527  3.3760  1.2764
  118MOL0     H15907   6.969   2.764   6.403  1.0569 -0.1406 -0.9316
  118MOL0     H15908   6.950   2.559   6.237 -0.5991 -0.2695 -1.1814
  118MOL0     H15909   6.819   2.659   6.164  0.4279 -1.6713 -0.3515
  118MOL0     H15910   6.483   3.630   6.375 -0.8300 -2.0331 -0.2570
  118MOL0     H15911   6.461   3.788   6.157 -0.6616  0.2694 -0.2210
  118MOL0     H15912   6.652   3.891   5.768  1.3623  0.4058 -1.2396
  118MOL0     H15913   6.626   4.095   5.614 -2.5093  1.7372 -1.1628
  118MOL0     H15914   6.443   5.415   6.190 -1.7340  0.2172  1.0599
  118MOL0     H15915   6.342   5.616   6.115 -0.1109 -0.8091  1.3861
  118MOL0     H15916   6.193   5.940   5.919  0.8584  0.2747 -0.1584
  118MOL0     H15917   6.071   6.128   5.839 -1.2004  0.8585 -2.6054
  118MOL0     H15918   6.009   6.380   5.467  1.9939  1.2135  0.0264
  118MOL0     H15919   6.052   6.229   5.406 -0.6774  0.4784  0.0466
  118MOL0     H15920   6.226   6.409   5.388  2.8104 -0.2797 -0.4091
  118MOL0     H15921   6.295   6.270   5.473 -0.3967 -1.1984  1.3478
  118MOL0     H15922   6.378   6.463   5.575 -0.1038  3.5220 -4.4370
  118MOL0     H15923   6.250   6.432   5.681 -3.7796  2.0570 -0.1861
  118MOL0     H15924   6.293   6.633   5.465 -2.0785  0.1355 -3.1691
  118MOL0     H15925   6.120   6.582   5.486  0.3462 -1.0016 -1.4304
  118MOL0     H15926   6.196   6.822   5.823  3.3395  2.4607 -2.2942
  118MOL0     H15927   6.130   6.038   5.439  0.3799  1.5638  1.2392
  118MOL0     H15928   6.397   5.762   5.538 -0.9259  0.3319  2.3620
  118MOL0     H15929   6.269   5.768   5.419  3.2002 -0.0673 -3.8178
  118MOL0     H15930   6.398   5.890   5.411  0.8559 -2.6127 -0.6391
  119MOL0     O15931  10.015   6.421  11.046  0.0764 -0.4572 -0.5330
  119MOL0     C15932  10.090   6.424  10.952  0.1648  0.7666  0.7287
  119MOL0     O15933  10.154   6.311  10.903  0.2092  0.8152  0.0858
  119MOL0     C15934  10.153   6.176  10.948 -0.8490  0.1799 -0.2117
  119MOL0     C15935  10.263   6.098  10.901 -0.0308  0.2006 -0.4075
  119MOL0     C15936  10.286   5.972  10.945  0.8055 -0.3654  0.1013
  119MOL0     C15937  10.207   5.919  11.048  0.7479 -0.4595  0.5358
  119MOL0     O15938  10.232   5.795  11.084 -0.1299 -0.3326  0.3225
  119MOL0     C15939  10.370   5.764  11.107  0.8362  0.2816 -0.1162
  119MOL0     C15940  10.369   5.652  11.211  0.2583  0.6403  0.2026
  119MOL0     C15941  10.301   5.687  11.342  0.3592  0.1460  0.3653
  119MOL0     C15942  10.327   5.580  11.454 -0.2342  0.4074 -0.8935
  119MOL0     C15943  10.248   5.603  11.583 -1.1158 -0.8900  0.1042
  119MOL0     C15944  10.105   5.566  11.566  0.7096  0.5864 -0.3452
  119MOL0     C15945  10.022   5.568  11.697  0.3141  0.0135 -1.0833
  119MOL0     C15946  10.086   5.480  11.820  0.2896  0.2654  1.0123
  119MOL0     N15947   9.996   5.470  11.932 -0.1680 -1.0311 -0.2651
  119MOL0     C15948   9.874   5.395  11.929  0.0033  0.0526  0.7627
  119MOL0     C15949   9.826   5.408  12.055  0.0673 -0.0903  0.9694
  119MOL0     C15950   9.707   5.337  12.104 -0.0273 -0.2169 -0.2545
  119MOL0     C15951   9.759   5.205  12.170  0.3984 -0.1845 -0.0133
  119MOL0     C15952   9.665   5.168  12.286 -0.1162  1.7230 -0.0241
  119MOL0     C15953   9.740   5.068  12.379  0.2966  0.0558 -0.5239
  119MOL0     O15954   9.650   5.057  12.497 -0.0440 -0.0114 -0.8478
  119MOL0     C15955   9.696   5.024  12.617 -0.2580 -0.8496  0.0779
  119MOL0     C15956   9.614   5.011  12.731  1.2483 -0.9795  0.2948
  119MOL0     C15957   9.660   4.990  12.866 -0.3799 -0.5288 -0.4012
  119MOL0     C15958   9.793   4.976  12.890  0.2124 -0.7230 -0.2323
  119MOL0     C15959   9.836   4.934  13.026 -0.7348  0.2082  0.2662
  119MOL0     O15960   9.745   4.871  13.111  0.0056 -0.0170 -1.3308
  119MOL0     C15961   9.779   4.852  13.236  0.3709  0.3161  0.3379
  119MOL0     C15962   9.834   4.956  13.324 -0.0604 -0.3690  0.3697
  119MOL0     C15963   9.860   4.919  13.459 -0.3658 -0.3523  0.2055
  119MOL0     C15964   9.809   4.793  13.508  0.9051  0.1308 -0.5156
  119MOL0     O15965   9.822   4.740  13.633 -0.3105 -0.3519 -0.1438
  119MOL0     C15966   9.855   4.838  13.735 -1.0671 -0.5581  1.1661
  119MOL0     C15967   9.863   4.778  13.871 -0.0111  0.8388 -0.0139
  119MOL0     C15968   9.957   4.663  13.887 -0.8334 -0.4042 -0.5759
  119MOL0     C15969  10.092   4.725  13.911 -0.5181  0.2002  0.2457
  119MOL0     C15970  10.197   4.610  13.937  0.5533 -0.0474  0.2576
  119MOL0     C15971  10.323   4.671  13.993  0.0940 -0.2860  0.2252
  119MOL0     C15972  10.417   4.567  14.049  0.5537  0.7572  0.6280
  119MOL0     C15973  10.565   4.615  14.078  0.7882  0.2969 -0.2439
  119MOL0    Cl15974  10.641   4.667  13.926 -0.0609 -0.1520 -0.0025
  119MOL0     C15975   9.738   4.706  13.419 -0.0561 -0.9033 -0.2761
  119MOL0     C15976   9.724   4.733  13.283 -0.6089 -0.4614  0.4994
  119MOL0     O15977   9.956   4.939  13.039 -0.3436  0.1866  0.1579
  119MOL0     C15978   9.881   4.978  12.780 -0.6713  0.5176 -0.5553
  119MOL0     C15979   9.832   5.006  12.651 -0.6401  0.2440 -0.2705
  119MOL0     N15980   9.922   5.474  12.134  0.1465  0.9510  0.0835
  119MOL0     N15981  10.026   5.502  12.061  0.1607 -0.4444 -0.1223
  119MOL0     C15982  10.103   5.998  11.110  0.1959  0.2220 -0.8687
  119MOL0     C15983  10.074   6.130  11.054 -0.2831  0.2990 -0.4986
  119MOL0     C15984  10.117   6.557  10.891 -0.0170 -0.1020 -0.8289
  119MOL0     C15985  10.055   6.660  10.954  0.8171 -0.1842  0.5736
  119MOL0     C15986  10.073   6.784  10.907  0.0646  0.3905  0.5071
  119MOL0     C15987  10.141   6.808  10.793 -0.1550 -0.5067 -0.1434
  119MOL0     O15988  10.157   6.927  10.739  0.2408 -0.0379  0.9460
  119MOL0     C15989  10.084   6.965  10.622 -0.7564  1.3690 -0.1170
  119MOL0     C15990  10.184   6.979  10.505  0.8176 -1.5736  1.0947
  119MOL0     C15991  10.298   7.082  10.533  0.7157  0.5344  0.5382
  119MOL0     C15992  10.393   7.089  10.413  0.1003 -0.6469  0.1478
  119MOL0     C15993  10.494   7.199  10.431  1.4612 -0.5792  0.1047
  119MOL0     C15994  10.568   7.296  10.438 -0.0168  0.6381  0.0757
  119MOL0     C15995  10.211   6.707  10.728  0.3252 -0.2040  0.0443
  119MOL0     C15996  10.201   6.578  10.784  0.3957  0.0496  0.4214
  119MOL0     C15997  10.288   6.479  10.709 -0.1928  0.5915 -0.0656
  119MOL0     H15998  10.326   6.139  10.822  1.5605 -0.9609  0.1949
  119MOL0     H15999  10.353   5.898  10.903 -0.8374 -1.6007 -0.4475
  119MOL0     H16000  10.422   5.742  11.013 -2.0812  0.9600 -2.0183
  119MOL0     H16001  10.427   5.850  11.145 -0.8322  1.2093  0.3671
  119MOL0     H16002  10.474   5.624  11.226 -0.4786 -1.4172  1.8703
  119MOL0     H16003  10.321   5.563  11.169  1.7876 -1.6440  2.9696
  119MOL0     H16004  10.194   5.698  11.323  1.0102  3.2310 -2.3325
  119MOL0     H16005  10.353   5.780  11.367  1.1035 -0.2445  0.3063
  119MOL0     H16006  10.305   5.477  11.424  2.3759 -1.4412  2.7116
  119MOL0     H16007  10.432   5.589  11.485 -0.9849  0.7349  1.8732
  119MOL0     H16008  10.279   5.540  11.667 -0.0329  0.0100  0.4146
  119MOL0     H16009  10.249   5.710  11.607 -2.2858 -0.6214 -0.9047
  119MOL0     H16010  10.056   5.626  11.489  0.4933 -0.4968 -1.0685
  119MOL0     H16011  10.095   5.467  11.521 -1.2492 -0.1837  1.6392
  119MOL0     H16012   9.922   5.536  11.668 -0.4668  0.2198  1.1753
  119MOL0     H16013  10.004   5.669  11.736 -0.1940 -0.1952 -0.7741
  119MOL0     H16014  10.098   5.376  11.791 -1.6299  0.5903 -1.1983
  119MOL0     H16015  10.181   5.526  11.851  0.6847  0.5920 -0.5872
  119MOL0     H16016   9.834   5.337  11.846 -0.3473 -0.9359  1.6095
  119MOL0     H16017   9.648   5.395  12.177  0.0844  0.3190 -0.5818
  119MOL0     H16018   9.646   5.307  12.018  2.3325  0.1564 -2.1592
  119MOL0     H16019   9.766   5.124  12.098 -0.6127 -1.7641  1.5795
  119MOL0     H16020   9.859   5.222  12.211  0.1741  0.6183  0.2340
  119MOL0     H16021   9.577   5.125  12.238  0.0962  3.4978 -2.1974
  119MOL0     H16022   9.637   5.254  12.347 -2.2379  1.7330 -0.9109
  119MOL0     H16023   9.843   5.100  12.398  1.2975 -3.0175 -0.2392
  119MOL0     H16024   9.749   4.974  12.324 -0.5284 -0.6234  0.4593
  119MOL0     H16025   9.506   5.025  12.723  1.1446 -0.3489  2.3169
  119MOL0     H16026   9.587   4.977  12.945  1.2377 -0.0510  1.2226
  119MOL0     H16027   9.869   5.045  13.273 -0.0170 -0.3409  0.4480
  119MOL0     H16028   9.914   4.998  13.510  1.2319 -0.5958 -1.0312
  119MOL0     H16029   9.951   4.886  13.712 -0.4743 -1.6427  1.3381
  119MOL0     H16030   9.782   4.920  13.738 -1.0620 -0.3538 -1.7126
  119MOL0     H16031   9.877   4.857  13.945 -0.9828  1.9420 -0.9646
  119MOL0     H16032   9.762   4.745  13.899  0.4654  0.7771  1.7038
  119MOL0     H16033   9.915   4.614  13.976 -2.1593  0.4553 -0.7023
  119MOL0     H16034   9.962   4.596  13.801  0.9188  0.5767 -1.2768
  119MOL0     H16035  10.082   4.782  14.003 -0.7139 -0.5185  0.6823
  119MOL0     H16036  10.131   4.795  13.837  1.7706  1.4260  2.4722
  119MOL0     H16037  10.220   4.552  13.847 -1.4523 -1.5382  0.6315
  119MOL0     H16038  10.144   4.542  14.004  0.7274 -2.7499 -2.1276
  119MOL0     H16039  10.363   4.734  13.912 -2.2863 -1.5228 -2.0833
  119MOL0     H16040  10.298   4.750  14.065  0.2489 -1.1653  1.2527
  119MOL0     H16041  10.428   4.490  13.972  2.9661  3.0214 -1.4556
  119MOL0     H16042  10.360   4.528  14.134 -0.3430  1.8394  0.5418
  119MOL0     H16043  10.568   4.698  14.149  3.6882  0.6355 -0.6432
  119MOL0     H16044  10.629   4.542  14.129  1.0568  1.4305  1.1106
  119MOL0     H16045   9.691   4.614  13.454 -0.6087 -0.8994 -0.9809
  119MOL0     H16046   9.660   4.670  13.222  3.6593 -3.9304 -0.9497
  119MOL0     H16047   9.984   4.948  12.796 -0.8833 -0.6531 -1.3303
  119MOL0     H16048   9.908   5.023  12.575  1.1189  3.7804  1.9885
  119MOL0     H16049  10.039   5.970  11.194 -0.9694  3.7154 -0.4315
  119MOL0     H16050   9.990   6.185  11.094  1.4496  3.3155 -0.6377
  119MOL0     H16051   9.979   6.648  11.031  0.1395  1.4433  0.1987
  119MOL0     H16052  10.006   6.858  10.950 -0.1735 -0.8586  2.3547
  119MOL0     H16053  10.046   7.062  10.655  2.1260  1.3323  4.0500
  119MOL0     H16054  10.006   6.890  10.607 -0.2233  1.2967 -3.2145
  119MOL0     H16055  10.117   7.019  10.429  1.1200 -3.4643 -0.2533
  119MOL0     H16056  10.217   6.883  10.464  0.4240 -0.9502 -0.7280
  119MOL0     H16057  10.347   7.066  10.630  1.2235  2.0153  0.5576
  119MOL0     H16058  10.248   7.179  10.537  0.2157  0.6967 -4.4312
  119MOL0     H16059  10.448   6.996  10.399  0.7065 -0.2223 -0.2869
  119MOL0     H16060  10.345   7.103  10.316 -1.4472  1.4470  1.1480
  119MOL0     H16061  10.631   7.383  10.434  2.7382 -1.2214  0.4938
  119MOL0     H16062  10.259   6.725  10.633 -2.3285  2.7769 -0.8984
  119MOL0     H16063  10.235   6.415  10.639  0.6548 -0.9012  0.6238
  119MOL0     H16064  10.367   6.520  10.645 -0.6703 -2.8192 -3.1754
  119MOL0     H16065  10.347   6.415  10.774  0.3914 -0.2398 -1.3630
  120MOL0     O16066   0.902   3.580   5.472 -0.4389  0.3033 -0.5762
  120MOL0     C16067   0.950   3.493   5.543 -0.4061  0.5599 -0.0511
  120MOL0     O16068   0.933   3.492   5.683  0.4667  0.0998 -1.0480
  120MOL0     C16069   0.844   3.564   5.750  0.5498  0.5871  0.1509
  120MOL0     C16070   0.714   3.596   5.697 -1.1751  0.3174  0.4533
  120MOL0     C16071   0.617   3.645   5.781 -0.2296 -0.2837  0.3216
  120MOL0     C16072   0.636   3.691   5.913  0.2936  0.3908 -0.2334
  120MOL0     O16073   0.522   3.745   5.973 -1.8658 -0.7711 -0.3715
  120MOL0     C16074   0.563   3.818   6.092  0.0424  0.7472 -0.4042
  120MOL0     C16075   0.437   3.881   6.152 -0.4400 -0.3604  0.3217
  120MOL0     C16076   0.460   3.936   6.292 -0.7649  0.1157  0.2691
  120MOL0     C16077   0.334   3.943   6.372  0.4117 -0.2170 -1.6115
  120MOL0     C16078   0.359   3.995   6.523 -0.5397  0.1209  0.2961
  120MOL0     C16079   0.358   4.142   6.535  0.2110  0.3280  0.3611
  120MOL0     C16080   0.428   4.186   6.662 -0.7519 -0.0565  0.1701
  120MOL0     C16081   0.356   4.289   6.743  0.1693  0.5590  1.3314
  120MOL0     N16082   0.439   4.357   6.846  1.0757  1.2721 -0.0327
  120MOL0     C16083   0.546   4.293   6.904 -1.1341 -0.4153 -0.4790
  120MOL0     C16084   0.571   4.370   7.010 -0.1287  0.1705 -0.0678
  120MOL0     C16085   0.673   4.356   7.117  0.4102 -1.0477 -0.1904
  120MOL0     C16086   0.710   4.215   7.143  0.6319  0.6089  0.8611
  120MOL0     C16087   0.793   4.211   7.273  0.9221  0.0917 -0.0662
  120MOL0     C16088   0.898   4.108   7.277 -0.7514  0.5754 -1.0351
  120MOL0     O16089   0.833   3.985   7.240 -0.7122 -0.0526 -0.3845
  120MOL0     C16090   0.788   3.891   7.336  0.5932  0.0934  1.1319
  120MOL0     C16091   0.728   3.774   7.282  0.1012 -0.5796 -0.1576
  120MOL0     C16092   0.700   3.666   7.369  0.0096  0.0717  0.3612
  120MOL0     C16093   0.715   3.678   7.504 -0.4300  0.7892  0.5434
  120MOL0     C16094   0.652   3.581   7.598 -0.5690 -0.4068  0.9787
  120MOL0     O16095   0.679   3.587   7.727  0.3698  0.4878  0.5893
  120MOL0     C16096   0.591   3.537   7.822  0.3576 -0.6486  0.0594
  120MOL0     C16097   0.490   3.619   7.878 -0.5420  0.5582 -0.4161
  120MOL0     C16098   0.406   3.586   7.992  0.3784  0.2150  0.1288
  120MOL0     C16099   0.417   3.451   8.047 -0.0686 -1.4844  0.4068
  120MOL0     O16100   0.341   3.404   8.139 -0.1341  0.1258  0.0488
  120MOL0     C16101   0.222   3.468   8.182 -0.5003 -1.1278  0.2063
  120MOL0     C16102   0.118   3.363   8.231  0.4974  0.3450 -0.1325
  120MOL0     C16103   0.162   3.313   8.371 -0.2883 -0.8221  0.3967
  120MOL0     C16104   0.084   3.198   8.426 -0.6736  0.0701 -0.0188
  120MOL0     C16105  -0.052   3.243   8.478 -0.4606 -0.4491  0.2526
  120MOL0     C16106  -0.139   3.145   8.546 -0.4920 -0.1268  0.0759
  120MOL0     C16107  -0.266   3.198   8.596  0.8328 -0.1793  0.5925
  120MOL0     C16108  -0.345   3.090   8.678  0.2879 -0.1236 -0.5889
  120MOL0    Cl16109  -0.503   3.134   8.762  0.4317  0.0414  0.6406
  120MOL0     C16110   0.517   3.373   7.982 -0.7974  0.2630  0.5910
  120MOL0     C16111   0.608   3.419   7.884  0.2376  0.9214 -0.1979
  120MOL0     O16112   0.572   3.509   7.545  0.2844  0.1762  0.2490
  120MOL0     C16113   0.773   3.792   7.553 -0.0941  0.0082  0.8730
  120MOL0     C16114   0.812   3.902   7.478  0.6053 -0.2509  0.2055
  120MOL0     N16115   0.487   4.477   7.022  0.1357  0.0362 -0.8603
  120MOL0     N16116   0.402   4.464   6.919 -0.2352  0.3635  1.5049
  120MOL0     C16117   0.756   3.649   5.970 -0.5110 -0.5683  0.5642
  120MOL0     C16118   0.856   3.593   5.887  0.1650 -0.0615  0.4656
  120MOL0     C16119   1.035   3.385   5.483 -0.2616 -0.8067  0.1119
  120MOL0     C16120   1.125   3.321   5.576 -0.2349  0.2588  0.3446
  120MOL0     C16121   1.208   3.216   5.540 -0.1102 -0.1533 -0.8560
  120MOL0     C16122   1.195   3.171   5.401  0.8753  0.5298 -0.8289
  120MOL0     O16123   1.263   3.065   5.350  0.0795 -1.0208  0.5522
  120MOL0     C16124   1.308   2.969   5.432 -0.0396  0.7398 -1.1689
  120MOL0     C16125   1.381   2.867   5.346  0.6810  1.0521 -0.3344
  120MOL0     C16126   1.306   2.804   5.237  0.3953  0.8164 -0.3270
  120MOL0     C16127   1.224   2.693   5.307 -0.1952 -0.3066 -0.1090
  120MOL0     C16128   1.155   2.629   5.193  0.9462  0.2471 -0.1288
  120MOL0     C16129   1.102   2.579   5.101  0.6940 -1.0080  0.7109
  120MOL0     C16130   1.117   3.240   5.315  0.9343  0.3461 -0.6140
  120MOL0     C16131   1.041   3.357   5.348 -0.3056 -0.1494  1.0207
  120MOL0     C16132   0.959   3.416   5.232  0.8872 -0.3177  0.0068
  120MOL0     H16133   0.687   3.574   5.594  2.3933  2.4510 -1.0974
  120MOL0     H16134   0.516   3.666   5.748 -1.3394  2.3441  4.5977
  120MOL0     H16135   0.610   3.751   6.165 -1.7362  0.1513  0.2526
  120MOL0     H16136   0.629   3.901   6.065  0.1636 -0.1260 -3.0686
  120MOL0     H16137   0.357   3.806   6.162  0.2298 -1.1166  0.1001
  120MOL0     H16138   0.398   3.963   6.090 -0.4676 -0.1646  0.5961
  120MOL0     H16139   0.500   4.038   6.293 -2.7719  0.9450  1.1905
  120MOL0     H16140   0.519   3.859   6.343  0.5147 -0.4044 -1.8534
  120MOL0     H16141   0.259   4.007   6.323 -0.1241 -0.1523 -0.7327
  120MOL0     H16142   0.297   3.840   6.374  0.4600 -0.2244 -0.5734
  120MOL0     H16143   0.288   3.962   6.600  1.4456 -0.2340  2.0974
  120MOL0     H16144   0.452   3.962   6.571 -0.3081  0.0851 -0.1754
  120MOL0     H16145   0.426   4.179   6.458 -0.1175 -2.5060 -1.4536
  120MOL0     H16146   0.261   4.188   6.516 -0.1609 -0.0892  1.2305
  120MOL0     H16147   0.522   4.234   6.633 -1.4079  0.4242 -1.2505
  120MOL0     H16148   0.457   4.102   6.724 -1.2104 -1.8435 -1.9043
  120MOL0     H16149   0.313   4.358   6.670  0.6131 -0.5842 -0.0543
  120MOL0     H16150   0.272   4.237   6.790  1.0033 -0.0294  2.2077
  120MOL0     H16151   0.599   4.200   6.882  0.7411  0.5090 -0.1072
  120MOL0     H16152   0.759   4.423   7.102 -0.8326  0.9234  1.1436
  120MOL0     H16153   0.627   4.396   7.207  1.3916  3.0260 -1.3145
  120MOL0     H16154   0.620   4.154   7.154  0.6763  0.3629 -0.0109
  120MOL0     H16155   0.767   4.174   7.059  0.8735  3.2557 -0.3782
  120MOL0     H16156   0.727   4.205   7.360  1.4679  1.1131  0.4431
  120MOL0     H16157   0.849   4.303   7.294  0.7719 -0.1766  1.6954
  120MOL0     H16158   0.953   4.113   7.372 -0.9286  0.3962 -0.9208
  120MOL0     H16159   0.977   4.126   7.204  3.0992 -3.6853  1.5283
  120MOL0     H16160   0.718   3.753   7.176  0.1382 -2.3478  0.1509
  120MOL0     H16161   0.677   3.570   7.324  1.4773 -0.4764  0.7340
  120MOL0     H16162   0.482   3.717   7.832 -0.5405  2.3362  3.0233
  120MOL0     H16163   0.327   3.653   8.025  0.0628  0.0379 -0.2529
  120MOL0     H16164   0.254   3.536   8.261  0.0388 -1.5940  0.3976
  120MOL0     H16165   0.174   3.525   8.102 -0.6890 -0.8303  0.5255
  120MOL0     H16166   0.013   3.393   8.233  0.0321 -1.2322  0.0579
  120MOL0     H16167   0.130   3.281   8.160  0.1434 -0.6327  0.9141
  120MOL0     H16168   0.266   3.284   8.358 -0.5209 -0.2749 -4.5712
  120MOL0     H16169   0.160   3.395   8.443  0.9165  0.3031 -0.7939
  120MOL0     H16170   0.138   3.145   8.504 -1.1704 -1.9491 -0.9908
  120MOL0     H16171   0.067   3.121   8.351  0.7578 -2.1351  1.7877
  120MOL0     H16172  -0.111   3.276   8.392 -0.1993 -1.7063 -0.4292
  120MOL0     H16173  -0.044   3.326   8.549 -0.0778 -0.4781  0.2434
  120MOL0     H16174  -0.146   3.070   8.467  2.2650 -1.8448  1.2881
  120MOL0     H16175  -0.078   3.096   8.623  0.8225  0.8008 -0.3423
  120MOL0     H16176  -0.338   3.229   8.519  0.0828  0.1925  1.4332
  120MOL0     H16177  -0.224   3.276   8.660  2.8132 -1.1875  0.6117
  120MOL0     H16178  -0.358   3.005   8.610  0.5006  0.2011 -1.0351
  120MOL0     H16179  -0.271   3.060   8.753  1.3365  0.2383 -1.4422
  120MOL0     H16180   0.552   3.273   8.005 -1.8497 -0.7006 -1.6002
  120MOL0     H16181   0.680   3.353   7.836  2.1705  2.8712 -0.1643
  120MOL0     H16182   0.789   3.793   7.661  0.3665 -2.0806  0.8599
  120MOL0     H16183   0.869   3.980   7.527  0.0532 -0.1996  0.7834
  120MOL0     H16184   0.779   3.655   6.076 -0.2265  1.7581  0.4282
  120MOL0     H16185   0.948   3.570   5.940 -0.9606  0.2493  2.6696
  120MOL0     H16186   1.136   3.348   5.681  4.0349 -2.9285  0.9984
  120MOL0     H16187   1.280   3.186   5.616 -1.8861  1.2994  1.5771
  120MOL0     H16188   1.221   2.921   5.477 -1.7349  1.9094 -3.0059
  120MOL0     H16189   1.367   3.007   5.516 -0.0663  0.1545 -0.8814
  120MOL0     H16190   1.430   2.785   5.401 -0.0639  0.4522 -0.5465
  120MOL0     H16191   1.459   2.923   5.294  2.1698 -0.6962 -0.0733
  120MOL0     H16192   1.383   2.760   5.172 -1.6800 -1.4248 -1.4587
  120MOL0     H16193   1.247   2.873   5.177 -0.4570 -0.3190 -0.8394
  120MOL0     H16194   1.275   2.629   5.379 -2.6453  0.9007  2.9250
  120MOL0     H16195   1.144   2.737   5.367 -1.2747 -1.6245 -0.5199
  120MOL0     H16196   1.051   2.543   5.013 -1.6939  3.0587  0.1642
  120MOL0     H16197   1.088   3.214   5.214 -1.4076  0.0722  0.0545
  120MOL0     H16198   0.854   3.421   5.262  1.0909 -3.2841  1.6530
  120MOL0     H16199   1.003   3.514   5.213  0.1062 -0.2657 -1.7375
  120MOL0     H16200   0.967   3.365   5.136 -0.6655 -1.2382  0.3275
  121MOL0     O16201   5.791   9.149   0.743 -0.2811 -0.6346 -0.6051
  121MOL0     C16202   5.784   9.044   0.798 -1.3367 -0.4927 -0.0475
  121MOL0     O16203   5.780   8.931   0.726 -0.1120  0.7502 -0.9871
  121MOL0     C16204   5.845   8.927   0.609 -0.0029  0.6915  0.3640
  121MOL0     C16205   5.785   8.965   0.491  1.3044 -0.9149  1.1727
  121MOL0     C16206   5.867   8.980   0.377 -0.1718  0.1499 -0.5140
  121MOL0     C16207   6.005   8.973   0.385  0.1030 -0.1319 -0.1979
  121MOL0     O16208   6.072   9.002   0.272 -0.0797  0.4092 -0.3704
  121MOL0     C16209   6.201   9.056   0.276  0.9194 -0.4099 -0.1626
  121MOL0     C16210   6.212   9.150   0.156  0.7284 -0.0247 -0.6078
  121MOL0     C16211   6.354   9.197   0.138  0.3342  0.2748 -0.9652
  121MOL0     C16212   6.369   9.321   0.228  0.7525  0.5741 -0.4310
  121MOL0     C16213   6.512   9.354   0.256 -0.8008  0.0034  0.6860
  121MOL0     C16214   6.551   9.399   0.400 -0.5753 -0.0875 -0.8460
  121MOL0     C16215   6.478   9.522   0.439 -0.6685  0.0399  0.2823
  121MOL0     C16216   6.518   9.578   0.572  0.0854  0.1395 -0.1900
  121MOL0     N16217   6.468   9.715   0.595 -0.0418 -0.6979 -0.0455
  121MOL0     C16218   6.340   9.774   0.557 -1.3566  1.2133 -0.6132
  121MOL0     C16219   6.350   9.891   0.624 -0.0072 -0.7633  0.3490
  121MOL0     C16220   6.257  10.003   0.619 -0.0786  0.8892 -0.5718
  121MOL0     C16221   6.195  10.035   0.752  0.4083 -0.2980  0.2445
  121MOL0     C16222   6.065  10.118   0.733  0.4100  0.2644  0.1921
  121MOL0     C16223   5.983  10.133   0.850  0.4986 -0.8398 -0.8216
  121MOL0     O16224   5.935  10.007   0.905  0.9204  0.1190  0.5141
  121MOL0     C16225   5.800   9.989   0.896  0.3793 -0.8088 -0.7076
  121MOL0     C16226   5.736   9.986   0.768  0.2991 -0.1657 -0.8813
  121MOL0     C16227   5.602   9.981   0.760 -0.2109 -0.0380  0.6457
  121MOL0     C16228   5.523   9.954   0.872 -0.7213 -1.1713  0.3629
  121MOL0     C16229   5.373   9.945   0.851 -0.2311  0.4958 -0.9128
  121MOL0     O16230   5.302   9.946   0.967 -1.4298 -0.6611  0.0239
  121MOL0     C16231   5.167   9.947   0.965 -0.2473  0.0774  0.2150
  121MOL0     C16232   5.092   9.837   0.922 -0.1083  0.3151 -0.3852
  121MOL0     C16233   4.953   9.846   0.911 -0.6169 -1.1417  0.3485
  121MOL0     C16234   4.886   9.968   0.939  1.3809  0.0544 -0.9578
  121MOL0     O16235   4.754   9.985   0.898  0.3338 -0.6297  0.1589
  121MOL0     C16236   4.674  10.076   0.972 -0.5511  0.2679 -0.6093
  121MOL0     C16237   4.521  10.043   0.960 -0.2986  0.9362 -0.2688
  121MOL0     C16238   4.437  10.169   0.994 -0.3088 -0.0171  0.3794
  121MOL0     C16239   4.295  10.143   1.038  0.0242  0.3087 -0.2695
  121MOL0     C16240   4.195  10.116   0.930 -0.2013  1.0549  0.2094
  121MOL0     C16241   4.063  10.053   0.987  0.2847 -0.5862  0.4115
  121MOL0     C16242   3.999  10.144   1.100  0.2444  0.4469  0.5696
  121MOL0     C16243   3.965  10.064   1.230 -0.3322 -0.7096  0.7200
  121MOL0    Cl16244   4.111  10.018   1.314  0.1946 -0.2809  0.5156
  121MOL0     C16245   4.959  10.065   0.986  0.8879 -0.5365  0.2805
  121MOL0     C16246   5.098  10.063   0.987  0.3773 -0.0952  0.8968
  121MOL0     O16247   5.330   9.973   0.743  0.1020 -0.2966 -0.4950
  121MOL0     C16248   5.586   9.947   1.000  0.7334  0.4498 -0.3693
  121MOL0     C16249   5.720   9.973   1.012 -0.4449 -0.0242  0.1530
  121MOL0     N16250   6.474   9.902   0.680 -0.1894  0.0795 -0.3404
  121MOL0     N16251   6.546   9.805   0.654 -0.2812  0.4644 -0.6601
  121MOL0     C16252   6.059   8.912   0.505  0.1580  0.0703 -0.0333
  121MOL0     C16253   5.980   8.893   0.618 -0.0788  0.6742  0.6246
  121MOL0     C16254   5.793   9.045   0.946  0.5957 -0.5054 -0.3662
  121MOL0     C16255   5.780   8.922   1.016  1.0439  0.6614 -0.6310
  121MOL0     C16256   5.766   8.917   1.150 -0.7436  1.0153  0.3426
  121MOL0     C16257   5.790   9.028   1.230 -0.5524  0.3245 -0.0677
  121MOL0     O16258   5.786   9.042   1.369  0.0854  0.1145  0.0596
  121MOL0     C16259   5.727   8.939   1.447  0.3774 -0.5081  0.9599
  121MOL0     C16260   5.726   8.972   1.593 -1.1522  0.4713  0.1509
  121MOL0     C16261   5.844   8.924   1.665 -0.0964 -0.1401 -0.3996
  121MOL0     C16262   5.957   9.025   1.683 -0.6353  0.2270 -0.0662
  121MOL0     C16263   6.042   8.981   1.792 -0.4694  1.3137  0.0297
  121MOL0     C16264   6.122   8.941   1.876 -0.1356  0.9162 -0.6339
  121MOL0     C16265   5.813   9.142   1.160  0.2060 -0.4435 -0.9324
  121MOL0     C16266   5.817   9.166   1.021 -0.2663 -0.0358  0.2531
  121MOL0     C16267   5.848   9.306   0.972  0.0477  0.4426 -0.4761
  121MOL0     H16268   5.677   8.972   0.482  1.5138  1.3908 -0.6516
  121MOL0     H16269   5.819   9.002   0.282 -1.5136 -1.3180 -0.2008
  121MOL0     H16270   6.230   9.115   0.364  1.9934 -0.5207 -0.4265
  121MOL0     H16271   6.279   8.979   0.268 -0.9924 -2.5599  0.6278
  121MOL0     H16272   6.148   9.234   0.184  0.3533  0.0280 -1.5942
  121MOL0     H16273   6.167   9.097   0.072 -0.0122  0.0339 -0.2599
  121MOL0     H16274   6.370   9.219   0.032  1.4426  3.4094 -0.2421
  121MOL0     H16275   6.425   9.120   0.167  2.1099  2.3537  0.4426
  121MOL0     H16276   6.310   9.402   0.184  0.0493 -0.5652 -1.6446
  121MOL0     H16277   6.326   9.306   0.327  0.3415 -1.0211 -0.8256
  121MOL0     H16278   6.571   9.265   0.231 -2.8914 -1.2295 -0.1300
  121MOL0     H16279   6.546   9.439   0.196 -1.7628 -0.0029  0.1076
  121MOL0     H16280   6.521   9.312   0.459  1.5504 -1.7446 -2.0755
  121MOL0     H16281   6.659   9.409   0.407 -0.2977 -2.9128  0.0449
  121MOL0     H16282   6.370   9.503   0.430 -1.0924  2.8573 -3.1685
  121MOL0     H16283   6.513   9.592   0.362  0.6786  0.3391  1.1352
  121MOL0     H16284   6.475   9.513   0.649 -0.5471 -1.1140 -1.5556
  121MOL0     H16285   6.627   9.583   0.573  0.1293 -0.5745 -0.5572
  121MOL0     H16286   6.264   9.735   0.490  3.7510 -1.8532 -5.4855
  121MOL0     H16287   6.302  10.098   0.589 -3.4534  2.9096  0.1528
  121MOL0     H16288   6.176   9.992   0.546  1.2595  0.6318 -2.0849
  121MOL0     H16289   6.156   9.952   0.811 -1.6384 -0.3495 -1.0584
  121MOL0     H16290   6.276  10.087   0.804 -0.5820  2.3971 -0.7176
  121MOL0     H16291   6.002  10.080   0.653  1.9221 -1.3424 -0.2965
  121MOL0     H16292   6.093  10.215   0.691 -1.5264  0.1478 -1.4844
  121MOL0     H16293   5.903  10.204   0.828  2.0462  1.1077 -0.4805
  121MOL0     H16294   6.044  10.192   0.919 -3.7878  1.0209  1.7621
  121MOL0     H16295   5.806  10.002   0.686  1.1065 -3.3431 -0.9497
  121MOL0     H16296   5.563   9.985   0.659 -0.5394 -1.3522  0.6955
  121MOL0     H16297   5.143   9.745   0.896  2.1386  0.5539  2.5800
  121MOL0     H16298   4.890   9.776   0.858 -2.0023  0.5260 -0.2933
  121MOL0     H16299   4.699  10.093   1.077 -0.1827 -0.1855 -0.6200
  121MOL0     H16300   4.691  10.178   0.937 -1.1307  0.3401 -0.6900
  121MOL0     H16301   4.499  10.004   0.860  1.0694 -0.3538 -0.0966
  121MOL0     H16302   4.512   9.955   1.024  0.2741 -0.5302 -2.1247
  121MOL0     H16303   4.489  10.221   1.076 -1.9925  1.4341  0.5909
  121MOL0     H16304   4.435  10.231   0.905 -2.0018  0.6880  0.8794
  121MOL0     H16305   4.268  10.243   1.074  2.2530  0.9671 -0.2754
  121MOL0     H16306   4.300  10.070   1.119  2.0834  1.1676  0.4399
  121MOL0     H16307   4.245  10.056   0.854  2.7900  0.6538  2.2898
  121MOL0     H16308   4.182  10.214   0.884 -2.1121  0.1293 -1.3618
  121MOL0     H16309   3.996  10.042   0.902 -0.5947 -0.5538  1.0832
  121MOL0     H16310   4.073   9.951   1.026 -3.6368 -0.7406  1.3910
  121MOL0     H16311   3.910  10.181   1.048  0.5484 -2.2740 -2.1893
  121MOL0     H16312   4.057  10.235   1.118  2.1471 -0.5285 -0.3347
  121MOL0     H16313   3.897  10.134   1.280  3.7315  4.0398  0.4648
  121MOL0     H16314   3.918   9.967   1.212  1.1296 -1.9305  2.9397
  121MOL0     H16315   4.912  10.162   0.995  1.5247 -0.1289 -0.6772
  121MOL0     H16316   5.157  10.143   1.030 -0.6045  1.2006 -0.1045
  121MOL0     H16317   5.526   9.934   1.089 -0.1285 -0.5123 -1.0697
  121MOL0     H16318   5.779   9.970   1.102 -0.5071  1.0832  0.2433
  121MOL0     H16319   6.167   8.902   0.516  0.5478  1.8571 -1.7034
  121MOL0     H16320   6.029   8.861   0.709 -3.4919 -2.3345  1.6547
  121MOL0     H16321   5.781   8.831   0.958  1.7537  0.1393  0.1800
  121MOL0     H16322   5.743   8.817   1.185 -1.1854  1.7554  2.2802
  121MOL0     H16323   5.772   8.841   1.430  0.3090 -1.1692  3.9266
  121MOL0     H16324   5.622   8.939   1.415  0.7984 -1.5223 -0.5188
  121MOL0     H16325   5.637   8.931   1.643 -2.3994  0.4643 -1.9409
  121MOL0     H16326   5.721   9.078   1.617  0.8160  0.5243  0.4977
  121MOL0     H16327   5.898   8.838   1.624  1.7539  1.5066 -1.6007
  121MOL0     H16328   5.798   8.899   1.761 -2.1595 -1.9839 -1.7700
  121MOL0     H16329   6.021   9.022   1.594  1.0764 -0.5540  1.1413
  121MOL0     H16330   5.925   9.130   1.692 -1.2580 -0.1746  5.3762
  121MOL0     H16331   6.196   8.898   1.940 -1.5049 -2.4311 -1.1056
  121MOL0     H16332   5.795   9.228   1.224 -4.0021  0.0105 -2.4653
  121MOL0     H16333   5.924   9.313   0.893  3.2787 -0.3553  2.3044
  121MOL0     H16334   5.753   9.356   0.952 -1.4894 -1.3598  1.7812
  121MOL0     H16335   5.895   9.363   1.053 -0.1137 -0.2896  0.1384
  122MOL0     O16336   2.622   4.849   9.973  0.2419 -0.4071  0.5032
  122MOL0     C16337   2.714   4.903  10.032 -0.0339  0.9302  0.3436
  122MOL0     O16338   2.707   4.969  10.160  0.5680 -0.3835  0.4011
  122MOL0     C16339   2.603   5.054  10.195 -0.4378  0.7103 -1.2673
  122MOL0     C16340   2.479   4.995  10.215 -0.9842  1.4915 -0.2209
  122MOL0     C16341   2.365   5.079  10.248 -0.6641  1.0385 -0.1560
  122MOL0     C16342   2.387   5.214  10.250  0.1359  0.3372 -0.2371
  122MOL0     O16343   2.277   5.287  10.293 -0.4746 -1.1270 -0.3489
  122MOL0     C16344   2.273   5.429  10.265 -0.8111  0.8656  0.2768
  122MOL0     C16345   2.131   5.476  10.257  0.6021  0.4909 -0.2857
  122MOL0     C16346   2.056   5.451  10.126 -0.2761 -0.1507 -0.8046
  122MOL0     C16347   1.922   5.535  10.143  0.3082  0.0499 -0.4375
  122MOL0     C16348   1.846   5.534  10.021  0.3909 -0.3903 -0.1260
  122MOL0     C16349   1.918   5.586   9.889 -0.5146  0.2231 -0.0446
  122MOL0     C16350   1.973   5.730   9.901  0.0584 -0.0072 -0.0565
  122MOL0     C16351   1.963   5.801   9.767 -0.2235  0.1312  0.1971
  122MOL0     N16352   1.966   5.952   9.778  0.2381  0.4594 -0.6740
  122MOL0     C16353   1.858   6.025   9.833 -0.3968 -0.1696  0.7611
  122MOL0     C16354   1.918   6.152   9.847 -0.8040  0.6438  0.7351
  122MOL0     C16355   1.847   6.264   9.910 -0.1885  0.0985  0.3427
  122MOL0     C16356   1.925   6.399   9.881  0.3121 -0.5218 -0.3210
  122MOL0     C16357   1.915   6.491  10.009  0.3522  0.8174 -1.0989
  122MOL0     C16358   1.772   6.538  10.021  0.5263 -0.0269  0.9226
  122MOL0     O16359   1.730   6.607   9.903 -0.4359  0.2616 -0.8837
  122MOL0     C16360   1.593   6.609   9.882  0.8089  0.4982 -0.5884
  122MOL0     C16361   1.514   6.668   9.986 -0.5916  0.2253 -0.6818
  122MOL0     C16362   1.377   6.685   9.963  0.4578 -0.2241  0.4025
  122MOL0     C16363   1.315   6.647   9.847  0.4062 -0.5395 -0.0998
  122MOL0     C16364   1.177   6.678   9.820 -0.1906 -0.3718 -0.6152
  122MOL0     O16365   1.114   6.730   9.929 -0.0006 -0.3687 -0.1483
  122MOL0     C16366   1.006   6.810   9.912  1.2557  0.1723  0.1683
  122MOL0     C16367   0.900   6.774   9.832  0.4881  0.3829 -1.1882
  122MOL0     C16368   0.788   6.855   9.817  0.1666  0.9123  0.1251
  122MOL0     C16369   0.791   6.981   9.888  0.3832  0.1492 -1.1432
  122MOL0     O16370   0.681   7.058   9.865  0.6678  0.0753  0.0901
  122MOL0     C16371   0.668   7.179   9.940  0.8095  0.1701  0.0386
  122MOL0     C16372   0.565   7.259   9.869  0.7252 -0.5120  0.0418
  122MOL0     C16373   0.564   7.400   9.937 -0.9509 -0.5300  0.4625
  122MOL0     C16374   0.498   7.389  10.069  1.1532  0.3046  0.3044
  122MOL0     C16375   0.466   7.527  10.126 -0.4045 -0.4031 -0.1396
  122MOL0     C16376   0.591   7.605  10.181 -0.0731  0.1854  0.3131
  122MOL0     C16377   0.552   7.743  10.232  0.5273  0.2973  0.3147
  122MOL0     C16378   0.680   7.831  10.221  0.7947 -0.4032  0.1684
  122MOL0    Cl16379   0.836   7.737  10.255 -0.4213  0.2217  0.2914
  122MOL0     C16380   0.899   7.023   9.967  0.4126  1.4415 -0.5175
  122MOL0     C16381   1.006   6.931   9.976 -0.7655  0.1174  0.7372
  122MOL0     O16382   1.142   6.670   9.705  0.4380  0.3205 -0.7607
  122MOL0     C16383   1.393   6.594   9.743 -0.8727 -0.6212  0.0509
  122MOL0     C16384   1.532   6.568   9.768  0.3593  0.2304 -0.3369
  122MOL0     N16385   2.051   6.143   9.796 -0.0131 -0.7159 -0.0135
  122MOL0     N16386   2.067   6.036   9.740  0.3092 -0.0001  0.3325
  122MOL0     C16387   2.510   5.266  10.229  0.2771  0.5175 -0.6433
  122MOL0     C16388   2.616   5.185  10.201  0.3982  0.1605 -0.2429
  122MOL0     C16389   2.850   4.898   9.977 -0.3779 -0.0457  0.7069
  122MOL0     C16390   2.947   4.991  10.019 -0.4712 -0.1121 -0.0589
  122MOL0     C16391   3.076   4.982   9.986 -0.1873  0.2801  0.4872
  122MOL0     C16392   3.119   4.879   9.902 -0.1085 -1.9576  0.7198
  122MOL0     O16393   3.254   4.871   9.848 -0.0560 -0.2986 -0.0261
  122MOL0     C16394   3.354   4.959   9.909  0.1465  0.6447 -1.1628
  122MOL0     C16395   3.485   4.921   9.849 -0.8227 -0.5482  0.4998
  122MOL0     C16396   3.482   4.924   9.692  0.0545 -0.1397 -1.3097
  122MOL0     C16397   3.433   5.037   9.617  0.0424 -0.2733 -0.6112
  122MOL0     C16398   3.509   5.165   9.636  0.0041  0.9914 -0.8191
  122MOL0     C16399   3.569   5.269   9.661 -0.0324 -0.6328  0.9050
  122MOL0     C16400   3.025   4.779   9.856 -0.4428 -0.6427  0.2472
  122MOL0     C16401   2.888   4.793   9.892 -0.3232  0.1287  0.4894
  122MOL0     C16402   2.800   4.679   9.834 -0.1400 -0.1495 -0.8892
  122MOL0     H16403   2.477   4.887  10.203  3.6273  1.3621 -1.4914
  122MOL0     H16404   2.266   5.034  10.252 -0.9171  0.9647 -3.9589
  122MOL0     H16405   2.312   5.495  10.342  0.1436  1.1106 -0.3976
  122MOL0     H16406   2.318   5.453  10.168 -0.8025  2.1558  0.5869
  122MOL0     H16407   2.133   5.584  10.279  0.3571  0.2224  1.2128
  122MOL0     H16408   2.082   5.428  10.342  1.8035  1.0376  0.7492
  122MOL0     H16409   2.031   5.344  10.120  2.9595 -1.1348  0.8934
  122MOL0     H16410   2.123   5.476  10.043  1.3016 -3.6261 -0.7605
  122MOL0     H16411   1.860   5.511  10.230  0.3996  0.4087 -0.2705
  122MOL0     H16412   1.958   5.637  10.157 -0.4085  0.4015 -1.1307
  122MOL0     H16413   1.820   5.428  10.014 -1.7044 -0.0528  1.5482
  122MOL0     H16414   1.750   5.585  10.034  1.0830  0.9024  0.0590
  122MOL0     H16415   1.991   5.510   9.863 -0.2224  0.3905  0.2808
  122MOL0     H16416   1.835   5.586   9.818 -1.2596  1.8247  0.7502
  122MOL0     H16417   2.077   5.732   9.935 -0.0220  0.0173  0.1966
  122MOL0     H16418   1.918   5.788   9.976 -0.5945 -1.5850  0.7228
  122MOL0     H16419   2.050   5.770   9.708 -1.2975 -0.9281 -0.8769
  122MOL0     H16420   1.870   5.766   9.720 -0.4787  0.1527  0.6831
  122MOL0     H16421   1.757   5.997   9.860 -0.3519 -2.2698 -1.0534
  122MOL0     H16422   1.742   6.273   9.883  0.5627 -0.0384 -3.0529
  122MOL0     H16423   1.855   6.240  10.016  1.6304  2.6466  0.8955
  122MOL0     H16424   2.031   6.374   9.865  0.8430 -2.1504  4.2149
  122MOL0     H16425   1.880   6.448   9.794  0.1491  0.7073  0.4296
  122MOL0     H16426   1.985   6.573   9.994 -0.7438  2.1064  0.5274
  122MOL0     H16427   1.940   6.421  10.090  1.7212 -0.9788 -2.9412
  122MOL0     H16428   1.765   6.605  10.107  1.9614 -1.3424  2.1276
  122MOL0     H16429   1.706   6.454  10.043  1.3640 -0.8003  0.5876
  122MOL0     H16430   1.567   6.714  10.068 -0.5993  1.2553 -1.2381
  122MOL0     H16431   1.322   6.730  10.044  1.3921  1.2640  0.2630
  122MOL0     H16432   0.896   6.692   9.760 -3.0146  0.0221 -0.7604
  122MOL0     H16433   0.705   6.819   9.758  0.6110  0.7366 -0.3955
  122MOL0     H16434   0.651   7.172  10.047 -2.9707  0.9097 -0.3734
  122MOL0     H16435   0.760   7.233   9.911  0.6559  2.1182  2.8257
  122MOL0     H16436   0.590   7.264   9.763 -0.2202  0.5175 -0.1556
  122MOL0     H16437   0.465   7.217   9.885  0.9099 -0.8835  0.2348
  122MOL0     H16438   0.666   7.440   9.947 -1.2806  0.2806  0.6567
  122MOL0     H16439   0.498   7.469   9.883 -0.9995 -0.9739 -0.0458
  122MOL0     H16440   0.575   7.351  10.137 -1.3365 -0.7748  2.6853
  122MOL0     H16441   0.402   7.336  10.070  1.1471  0.0288 -2.8786
  122MOL0     H16442   0.395   7.519  10.209  0.3659 -0.9423  0.4856
  122MOL0     H16443   0.418   7.590  10.051 -2.3506  0.1395  1.4712
  122MOL0     H16444   0.641   7.551  10.262  1.3405 -1.8690 -1.8092
  122MOL0     H16445   0.667   7.615  10.103  0.6212 -1.6416  0.6998
  122MOL0     H16446   0.514   7.748  10.335  2.1003 -1.4515  1.0348
  122MOL0     H16447   0.475   7.777  10.162 -1.6828 -3.9545  0.3423
  122MOL0     H16448   0.669   7.863  10.117  1.7380 -2.2966 -0.5623
  122MOL0     H16449   0.673   7.917  10.288  1.2435 -1.7489  2.0245
  122MOL0     H16450   0.896   7.118  10.020  1.5395  0.4362  1.4309
  122MOL0     H16451   1.091   6.965  10.033  0.8728 -2.1501 -0.1924
  122MOL0     H16452   1.362   6.570   9.642 -1.0873 -3.0317  0.6321
  122MOL0     H16453   1.598   6.552   9.683  2.9095  1.4090  1.2788
  122MOL0     H16454   2.523   5.371  10.254 -1.0577  0.1502  1.8827
  122MOL0     H16455   2.714   5.222  10.174 -0.5936  1.4044 -2.4563
  122MOL0     H16456   2.904   5.067  10.084 -2.1774 -1.2650  0.2433
  122MOL0     H16457   3.144   5.062  10.014  0.8911 -0.7741  0.9906
  122MOL0     H16458   3.367   4.929  10.013  2.1243  0.3456 -1.4523
  122MOL0     H16459   3.330   5.064   9.891 -1.8123  0.2662 -0.8979
  122MOL0     H16460   3.510   4.821   9.887  2.0174  0.1038  0.5766
  122MOL0     H16461   3.565   4.986   9.885 -1.2549  0.0369  0.4198
  122MOL0     H16462   3.417   4.841   9.665  1.1693 -1.8247  0.8529
  122MOL0     H16463   3.582   4.899   9.657 -0.0692 -1.8146 -0.5505
  122MOL0     H16464   3.434   5.006   9.512 -2.0622 -4.5357  0.3973
  122MOL0     H16465   3.328   5.063   9.631  0.1219  0.2792 -1.0343
  122MOL0     H16466   3.624   5.360   9.674 -0.2518 -0.6399  2.0313
  122MOL0     H16467   3.073   4.703   9.796  2.2971  1.2410 -0.1648
  122MOL0     H16468   2.866   4.609   9.783 -1.0038 -1.2295 -0.5700
  122MOL0     H16469   2.747   4.619   9.910  0.3748 -1.4216 -1.5079
  122MOL0     H16470   2.724   4.716   9.764  1.1193  2.5290 -0.9594
  123MOL0     O16471  10.057   2.656   3.222 -0.2424  0.2116  0.0440
  123MOL0     C16472  10.040   2.603   3.116  0.0263 -0.1132  0.5316
  123MOL0     O16473  10.134   2.536   3.030  0.8113 -0.3705 -0.6584
  123MOL0     C16474  10.264   2.514   3.077  0.1983  0.9044 -0.4741
  123MOL0     C16475  10.356   2.616   3.091  1.1787  0.6218  0.5938
  123MOL0     C16476  10.477   2.592   3.152  0.4864  0.3964  0.0649
  123MOL0     C16477  10.509   2.467   3.211 -0.0671  0.1467  0.4264
  123MOL0     O16478  10.619   2.458   3.297  0.3290 -0.7781 -0.6731
  123MOL0     C16479  10.630   2.323   3.350  0.3119  0.1257 -0.3284
  123MOL0     C16480  10.756   2.319   3.425 -0.9724 -0.5819 -0.3399
  123MOL0     C16481  10.797   2.182   3.478  0.4283  0.2019 -0.2071
  123MOL0     C16482  10.908   2.188   3.574 -0.2569 -0.3602  1.3854
  123MOL0     C16483  10.942   2.054   3.640 -0.2559 -0.2923  0.5101
  123MOL0     C16484  11.042   2.069   3.758 -0.6025  0.1736  0.4359
  123MOL0     C16485  11.091   1.931   3.805 -0.3435 -0.8878  0.2167
  123MOL0     C16486  11.181   1.945   3.939  0.2356 -0.2418 -0.8251
  123MOL0     N16487  11.248   1.819   3.981 -0.2833 -0.1568  0.1326
  123MOL0     C16488  11.245   1.770   4.111  0.2923 -0.0843  0.7041
  123MOL0     C16489  11.292   1.649   4.093 -0.2000 -0.0452  0.1501
  123MOL0     C16490  11.315   1.550   4.196 -0.0865  0.9066 -0.2465
  123MOL0     C16491  11.172   1.506   4.234  0.8191  0.8013 -0.0492
  123MOL0     C16492  11.083   1.455   4.118  0.1682  0.3591 -0.0544
  123MOL0     C16493  11.138   1.331   4.049  0.5195 -0.3735  0.6921
  123MOL0     O16494  11.037   1.269   3.961  0.4935  0.4751  0.1447
  123MOL0     C16495  11.037   1.294   3.825 -0.1490 -0.1854 -1.2516
  123MOL0     C16496  11.082   1.406   3.768  0.4552  0.5762 -0.1227
  123MOL0     C16497  11.076   1.424   3.628 -0.6478 -1.0872 -0.1857
  123MOL0     C16498  11.016   1.326   3.540 -0.7213  0.8441  0.3889
  123MOL0     C16499  11.014   1.347   3.393 -0.2760  0.7047  0.3891
  123MOL0     O16500  10.905   1.292   3.326 -1.0018 -0.2645  0.1554
  123MOL0     C16501  10.885   1.327   3.190 -0.8294 -0.2669  0.3603
  123MOL0     C16502  10.783   1.258   3.121  0.4640  0.4148  0.6273
  123MOL0     C16503  10.742   1.283   2.986 -0.7922  0.4618  0.6770
  123MOL0     C16504  10.814   1.380   2.916  1.2456  0.8053 -0.0884
  123MOL0     O16505  10.780   1.411   2.778 -0.8341 -0.2660  0.5323
  123MOL0     C16506  10.653   1.378   2.725 -0.0093 -1.2773 -0.5545
  123MOL0     C16507  10.587   1.508   2.691  0.0949  0.1708 -0.8540
  123MOL0     C16508  10.666   1.591   2.588  0.1958 -0.0074  0.4088
  123MOL0     C16509  10.593   1.679   2.493  0.6884  0.4380 -0.1196
  123MOL0     C16510  10.685   1.738   2.384 -0.3981 -0.0515 -1.1712
  123MOL0     C16511  10.599   1.816   2.286  0.6297  0.3270  1.1061
  123MOL0     C16512  10.656   1.821   2.147  0.3605 -0.3650  0.3832
  123MOL0     C16513  10.773   1.915   2.152 -0.1216  0.6914 -0.1411
  123MOL0    Cl16514  10.752   2.089   2.170  0.0891  0.2321  0.0475
  123MOL0     C16515  10.919   1.454   2.975  0.5219 -0.4121  0.0446
  123MOL0     C16516  10.946   1.431   3.110  0.2354  0.7578  0.0798
  123MOL0     O16517  11.119   1.390   3.342 -0.2591  0.5019 -0.3178
  123MOL0     C16518  10.961   1.218   3.602 -0.1989  0.7169  0.4045
  123MOL0     C16519  10.974   1.201   3.740 -1.4663 -0.1552  0.2703
  123MOL0     N16520  11.325   1.631   3.955  0.2348 -0.3671 -0.2404
  123MOL0     N16521  11.281   1.735   3.889 -0.4972 -1.2021 -0.3172
  123MOL0     C16522  10.417   2.356   3.186 -0.5787 -0.1369  0.4570
  123MOL0     C16523  10.293   2.391   3.120 -0.2647 -0.0096  0.1521
  123MOL0     C16524   9.909   2.610   3.051  0.6136 -0.9767 -0.3242
  123MOL0     C16525   9.888   2.591   2.914  0.2192  0.3830  0.9970
  123MOL0     C16526   9.769   2.599   2.839  0.2102 -0.3150 -0.7238
  123MOL0     C16527   9.647   2.627   2.914  0.0563 -0.1969  0.4652
  123MOL0     O16528   9.521   2.657   2.863 -0.1430  0.2504  0.2632
  123MOL0     C16529   9.495   2.633   2.728  0.7802  0.1637  0.8251
  123MOL0     C16530   9.485   2.484   2.686 -0.0031 -0.8024 -0.6403
  123MOL0     C16531   9.488   2.467   2.540 -0.6169 -0.3418 -0.7930
  123MOL0     C16532   9.371   2.535   2.466  0.1139 -0.3973 -0.1462
  123MOL0     C16533   9.239   2.493   2.527  0.5834 -0.2914 -0.0184
  123MOL0     C16534   9.140   2.467   2.600 -0.1357  0.9893 -0.1594
  123MOL0     C16535   9.657   2.636   3.051  0.7179 -0.5797 -0.1430
  123MOL0     C16536   9.785   2.631   3.119 -0.1009 -0.2957 -0.4730
  123MOL0     C16537   9.784   2.646   3.276  0.4350  0.4837  0.1914
  123MOL0     H16538  10.343   2.719   3.061  2.4801  0.1741 -1.7735
  123MOL0     H16539  10.550   2.670   3.171  1.0809  0.0365 -0.6926
  123MOL0     H16540  10.543   2.301   3.412  0.4225 -1.4633 -0.6927
  123MOL0     H16541  10.632   2.249   3.269  0.7496  0.7191 -0.8692
  123MOL0     H16542  10.749   2.382   3.515  1.7681 -2.0426  1.0292
  123MOL0     H16543  10.832   2.361   3.358 -3.3502  0.4433 -2.5705
  123MOL0     H16544  10.825   2.115   3.395 -2.6254  0.8352 -1.8904
  123MOL0     H16545  10.709   2.139   3.527 -0.0057  2.5933  1.2447
  123MOL0     H16546  10.990   2.235   3.520 -0.0406 -1.1977  0.9578
  123MOL0     H16547  10.886   2.260   3.653 -0.0063  0.2583  0.9031
  123MOL0     H16548  10.859   1.992   3.677 -2.0126 -0.1505 -2.8667
  123MOL0     H16549  10.989   1.992   3.564 -2.7619 -1.4532 -0.1831
  123MOL0     H16550  11.128   2.131   3.731  2.3446 -3.8510 -0.4786
  123MOL0     H16551  10.995   2.122   3.841 -0.2101  1.6712 -0.2709
  123MOL0     H16552  11.146   1.879   3.725 -0.4094 -1.8188  0.7536
  123MOL0     H16553  10.999   1.881   3.837 -2.0927  1.9522 -0.0532
  123MOL0     H16554  11.262   2.017   3.921 -1.2235  1.7444  0.1041
  123MOL0     H16555  11.116   1.992   4.014 -0.5050 -0.3485 -1.3853
  123MOL0     H16556  11.208   1.812   4.204 -1.3936  0.2430 -0.0673
  123MOL0     H16557  11.377   1.466   4.161  2.0453  2.1608  0.3297
  123MOL0     H16558  11.362   1.605   4.278  0.4824 -0.0890  0.1190
  123MOL0     H16559  11.181   1.433   4.314  1.0331  0.2713 -0.5477
  123MOL0     H16560  11.117   1.585   4.286  0.1507 -0.8824  1.9370
  123MOL0     H16561  11.050   1.526   4.041  1.5196 -1.6808 -2.6758
  123MOL0     H16562  10.986   1.428   4.161  1.3887 -4.1292  0.4112
  123MOL0     H16563  11.167   1.260   4.127 -2.3651  1.6683  3.8890
  123MOL0     H16564  11.231   1.359   3.998  0.6735 -1.3036  0.4474
  123MOL0     H16565  11.134   1.486   3.820  0.2943  2.1378 -2.2185
  123MOL0     H16566  11.094   1.524   3.592 -0.6585 -0.6958  0.8663
  123MOL0     H16567  10.721   1.196   3.185 -1.0721  2.0618  0.8293
  123MOL0     H16568  10.666   1.222   2.937 -1.4360  0.1827  1.9590
  123MOL0     H16569  10.676   1.315   2.638  2.0970 -2.0405  0.4874
  123MOL0     H16570  10.586   1.321   2.790 -1.7689  1.7550  0.4757
  123MOL0     H16571  10.499   1.488   2.630  1.5153 -0.5617 -2.7809
  123MOL0     H16572  10.571   1.572   2.779  1.5823  0.7834 -0.9892
  123MOL0     H16573  10.729   1.662   2.643 -3.1137  0.3900  4.0798
  123MOL0     H16574  10.723   1.512   2.538  1.8996  0.8788  0.8742
  123MOL0     H16575  10.531   1.758   2.537 -1.3288  1.1494 -3.8213
  123MOL0     H16576  10.515   1.612   2.455  0.6274 -1.2299  2.7123
  123MOL0     H16577  10.723   1.647   2.338  0.3415  0.9255 -2.5694
  123MOL0     H16578  10.767   1.800   2.423 -0.0284  0.7093 -3.0576
  123MOL0     H16579  10.501   1.770   2.270  0.5366  0.9906 -0.3967
  123MOL0     H16580  10.581   1.920   2.317  0.4580  1.8213 -3.3574
  123MOL0     H16581  10.577   1.849   2.077 -2.0831 -2.8593  1.9290
  123MOL0     H16582  10.697   1.728   2.106 -0.7630 -0.6487 -0.1247
  123MOL0     H16583  10.838   1.877   2.231 -0.9212  0.5372  0.4547
  123MOL0     H16584  10.829   1.907   2.059 -2.6031  2.1103 -1.8699
  123MOL0     H16585  10.993   1.517   2.926  1.9580 -1.5306  0.7021
  123MOL0     H16586  11.013   1.501   3.159  1.8264  1.2377 -2.5595
  123MOL0     H16587  10.904   1.155   3.535  4.6206 -2.1414 -1.5365
  123MOL0     H16588  10.931   1.112   3.785  2.3301 -1.1348  2.3721
  123MOL0     H16589  10.450   2.253   3.196  2.3350  0.2954 -2.8719
  123MOL0     H16590  10.212   2.319   3.112 -1.7618  1.2432  2.7823
  123MOL0     H16591   9.972   2.573   2.847 -0.1512 -0.1710  0.6715
  123MOL0     H16592   9.772   2.591   2.731 -1.9824  0.1538 -0.8817
  123MOL0     H16593   9.575   2.686   2.674  1.4140  1.4886  2.9371
  123MOL0     H16594   9.405   2.685   2.695  0.1846 -1.1542  0.3300
  123MOL0     H16595   9.390   2.441   2.721  0.6454 -0.2869  1.9576
  123MOL0     H16596   9.562   2.428   2.741 -1.5881 -1.1614  1.3531
  123MOL0     H16597   9.472   2.361   2.519 -2.2572 -0.0432 -1.2175
  123MOL0     H16598   9.583   2.505   2.502 -1.2445  0.5277 -1.5412
  123MOL0     H16599   9.382   2.644   2.479 -2.1319 -0.0137 -1.0108
  123MOL0     H16600   9.384   2.501   2.363 -0.5900 -3.8196  0.7833
  123MOL0     H16601   9.050   2.445   2.654 -0.2030 -1.5023 -1.1728
  123MOL0     H16602   9.558   2.658   3.089 -0.8846 -1.2240 -3.5362
  123MOL0     H16603   9.867   2.590   3.321  1.3817  0.9977 -0.8904
  123MOL0     H16604   9.790   2.750   3.308 -0.8871  0.1237  1.7612
  123MOL0     H16605   9.689   2.613   3.318  0.8916  2.3877  3.0072
  124MOL0     O16606   6.308   9.853   3.497  0.5872  0.2924  0.6627
  124MOL0     C16607   6.193   9.865   3.539  0.9605 -0.0956  0.4312
  124MOL0     O16608   6.076   9.871   3.463 -1.2340 -0.3365 -0.7916
  124MOL0     C16609   6.086   9.854   3.320 -0.7074  0.1743  0.9164
  124MOL0     C16610   6.165   9.937   3.240 -0.0421 -0.7023 -0.3829
  124MOL0     C16611   6.187   9.898   3.107  0.4467  0.0053  0.2768
  124MOL0     C16612   6.153   9.775   3.051  0.2583 -0.5540 -0.4032
  124MOL0     O16613   6.182   9.740   2.924 -0.2489  0.3085 -0.4168
  124MOL0     C16614   6.123   9.824   2.820 -0.2826 -0.5196 -0.5825
  124MOL0     C16615   6.093   9.732   2.700  0.0838  0.6905 -0.3430
  124MOL0     C16616   5.964   9.649   2.726 -0.1184  0.3276  0.1395
  124MOL0     C16617   5.828   9.711   2.696 -1.0012 -0.3761 -0.4643
  124MOL0     C16618   5.709   9.630   2.749 -0.5491  0.1439 -0.5876
  124MOL0     C16619   5.700   9.631   2.911  0.6491 -0.6138  0.5242
  124MOL0     C16620   5.564   9.599   2.966  0.2982 -0.3369  0.1428
  124MOL0     C16621   5.454   9.708   2.948  0.0036  0.2969 -0.6200
  124MOL0     N16622   5.329   9.680   3.023 -0.1805 -0.4292 -0.3154
  124MOL0     C16623   5.310   9.687   3.156  1.0038 -0.1947  0.5011
  124MOL0     C16624   5.184   9.641   3.178 -0.5053 -0.2961 -0.0920
  124MOL0     C16625   5.122   9.622   3.315  0.3578  0.8240 -0.1437
  124MOL0     C16626   4.980   9.551   3.309 -0.2918  0.5706 -0.0644
  124MOL0     C16627   4.885   9.591   3.419 -0.2959 -0.7947  0.1395
  124MOL0     C16628   4.899   9.517   3.558  0.2874 -0.7564  0.3993
  124MOL0     O16629   5.032   9.545   3.627  0.3360  0.0285  1.2341
  124MOL0     C16630   5.048   9.688   3.648  0.5657  0.0160  0.3553
  124MOL0     C16631   5.171   9.739   3.624  0.0890  0.4610 -0.7982
  124MOL0     C16632   5.191   9.880   3.654  0.7937 -0.0640  0.4687
  124MOL0     C16633   5.088   9.969   3.695 -0.2405 -0.5829 -0.4239
  124MOL0     C16634   5.121  10.105   3.753 -0.1112  0.1843  0.7590
  124MOL0     O16635   5.033  10.147   3.843  0.1826  0.5704 -0.1610
  124MOL0     C16636   5.025  10.273   3.885  0.5915 -0.9596 -1.3711
  124MOL0     C16637   4.889  10.316   3.917 -0.0601 -0.3317  0.0507
  124MOL0     C16638   4.865  10.446   3.965 -0.4007 -0.0533  0.2255
  124MOL0     C16639   4.971  10.530   4.002  0.9736 -0.4760 -0.4530
  124MOL0     O16640   4.936  10.660   4.061 -0.1117 -0.0502 -0.0594
  124MOL0     C16641   4.995  10.687   4.187 -0.1166 -0.7602 -0.0486
  124MOL0     C16642   4.909  10.625   4.305  0.0857  0.2569 -0.0213
  124MOL0     C16643   4.955  10.688   4.439  0.7512 -0.7137 -0.3612
  124MOL0     C16644   4.908  10.599   4.551  0.5060 -0.8855 -0.9810
  124MOL0     C16645   4.937  10.665   4.686 -0.1218  0.5660  0.2265
  124MOL0     C16646   4.917  10.571   4.802 -0.6681  0.1572  0.9563
  124MOL0     C16647   4.973  10.638   4.932  0.1614  0.4518 -0.1560
  124MOL0     C16648   5.092  10.572   4.996 -0.7580  0.1754  0.6625
  124MOL0    Cl16649   5.242  10.591   4.899 -0.0954 -0.2319 -0.3057
  124MOL0     C16650   5.102  10.481   3.981  0.2398 -0.0005 -0.6170
  124MOL0     C16651   5.133  10.356   3.920  0.7490  0.2729  0.5422
  124MOL0     O16652   5.209  10.171   3.703  0.0483  0.0538 -0.8231
  124MOL0     C16653   4.957   9.911   3.699 -0.6590 -0.4098 -0.0429
  124MOL0     C16654   4.941   9.774   3.690 -0.2875  0.1502  0.2109
  124MOL0     N16655   5.123   9.627   3.058 -0.2641  0.7440  0.0113
  124MOL0     N16656   5.211   9.645   2.965 -0.0981  0.8570  0.4117
  124MOL0     C16657   6.088   9.686   3.142  0.4329 -0.6558  0.0050
  124MOL0     C16658   6.050   9.734   3.268 -0.6722 -0.2387  0.9426
  124MOL0     C16659   6.176   9.883   3.691 -0.7344 -1.1820 -0.6898
  124MOL0     C16660   6.048   9.904   3.750  0.3832  1.3595  0.9886
  124MOL0     C16661   6.028   9.914   3.885 -0.5325 -0.7466 -0.1112
  124MOL0     C16662   6.129   9.923   3.979  0.9147 -0.8255  0.1792
  124MOL0     O16663   6.108   9.944   4.114 -0.4171  0.0807  0.3251
  124MOL0     C16664   6.140  10.071   4.176  0.7285  0.6225 -0.2558
  124MOL0     C16665   6.226  10.043   4.299  1.2570  0.0363  0.0314
  124MOL0     C16666   6.264  10.178   4.356 -0.4693  0.2636  0.0592
  124MOL0     C16667   6.334  10.163   4.486 -0.7936 -0.1301  0.1114
  124MOL0     C16668   6.311  10.281   4.557  0.8065  0.4952 -0.0976
  124MOL0     C16669   6.295  10.383   4.620 -0.0459 -0.5215 -0.3791
  124MOL0     C16670   6.256   9.900   3.925 -0.5749 -0.3609  0.3078
  124MOL0     C16671   6.282   9.891   3.785 -0.9525 -0.1876  0.0008
  124MOL0     C16672   6.428   9.888   3.748 -1.1968  0.0149  0.4422
  124MOL0     H16673   6.205  10.031   3.278  0.2928 -1.4582  1.1898
  124MOL0     H16674   6.237   9.965   3.037 -2.6114 -0.9860 -3.1811
  124MOL0     H16675   6.039   9.886   2.854  1.8265  3.1030 -1.5038
  124MOL0     H16676   6.205   9.891   2.792  0.3402 -0.0170  2.1746
  124MOL0     H16677   6.178   9.665   2.684  2.2871  2.9846  1.0033
  124MOL0     H16678   6.083   9.795   2.611  0.5025  0.1276 -0.7972
  124MOL0     H16679   5.965   9.615   2.830 -1.7829  4.2508  1.6400
  124MOL0     H16680   5.971   9.558   2.665 -2.1088  0.7585 -0.8176
  124MOL0     H16681   5.838   9.808   2.744  1.7382 -1.6660  1.9326
  124MOL0     H16682   5.821   9.722   2.588  2.0292 -1.0650 -0.8336
  124MOL0     H16683   5.619   9.679   2.712 -2.1162 -1.0932  1.3747
  124MOL0     H16684   5.709   9.527   2.714  3.1398  0.8125 -3.0695
  124MOL0     H16685   5.770   9.552   2.939  0.1118 -1.9897 -1.6858
  124MOL0     H16686   5.746   9.725   2.941  1.5362  0.4997 -3.5978
  124MOL0     H16687   5.569   9.568   3.071 -2.5819  0.4559  0.5900
  124MOL0     H16688   5.537   9.514   2.903  2.2039  0.6147 -2.1198
  124MOL0     H16689   5.488   9.802   2.994 -1.2824 -0.1661  1.3460
  124MOL0     H16690   5.433   9.716   2.841 -1.5112 -3.1339 -0.7062
  124MOL0     H16691   5.391   9.735   3.211  1.4977  2.2161 -2.0931
  124MOL0     H16692   5.185   9.564   3.382 -2.4963 -1.4309  0.8306
  124MOL0     H16693   5.095   9.723   3.349  1.9548  1.9498 -1.9778
  124MOL0     H16694   4.927   9.560   3.214 -0.7418  0.4829  0.1723
  124MOL0     H16695   4.996   9.443   3.304 -0.8759  0.5292 -1.2519
  124MOL0     H16696   4.791   9.563   3.371  0.0578 -0.4003 -0.8125
  124MOL0     H16697   4.882   9.700   3.427 -1.6648 -0.5020 -2.9476
  124MOL0     H16698   4.883   9.411   3.540 -1.3370 -0.2820 -1.2439
  124MOL0     H16699   4.819   9.541   3.628  0.9000  0.4001  0.7374
  124MOL0     H16700   5.249   9.668   3.598  2.3653  2.6974 -0.5321
  124MOL0     H16701   5.293   9.916   3.650  0.0186  2.3321  0.3626
  124MOL0     H16702   4.802  10.256   3.891  0.0281  0.5954 -2.7721
  124MOL0     H16703   4.760  10.468   3.980 -0.0177  0.4855  2.4141
  124MOL0     H16704   5.095  10.643   4.193  0.0083 -1.6296 -4.5388
  124MOL0     H16705   5.004  10.796   4.192 -0.1937 -0.5456 -2.8349
  124MOL0     H16706   4.809  10.669   4.302  0.1466  0.5607  1.5244
  124MOL0     H16707   4.900  10.517   4.293  0.2420  0.3497 -1.0403
  124MOL0     H16708   5.064  10.690   4.447  0.7622  1.1614 -0.4785
  124MOL0     H16709   4.906  10.784   4.456 -0.2187 -1.2275 -0.2158
  124MOL0     H16710   4.972  10.511   4.539  1.1022 -0.1028 -4.9423
  124MOL0     H16711   4.799  10.587   4.544  0.2167  0.2177  0.8759
  124MOL0     H16712   4.871  10.752   4.682 -3.3127 -1.6945 -0.7270
  124MOL0     H16713   5.041  10.691   4.666  0.4216 -2.2015 -1.1953
  124MOL0     H16714   4.809  10.559   4.815 -1.0006  1.6021 -0.1667
  124MOL0     H16715   4.980  10.483   4.787 -1.9356 -1.0679  2.4540
  124MOL0     H16716   4.887  10.639   5.000  0.1922 -1.9335  0.0286
  124MOL0     H16717   5.004  10.740   4.908 -0.7043  0.1557 -2.9344
  124MOL0     H16718   5.117  10.610   5.095  1.6332  2.3483 -0.6647
  124MOL0     H16719   5.063  10.469   5.019 -2.4758  1.1161  3.0918
  124MOL0     H16720   5.171  10.563   3.997 -0.5343  0.6327 -0.4540
  124MOL0     H16721   5.236  10.326   3.901  0.0808 -3.2181  1.6973
  124MOL0     H16722   4.861   9.956   3.721  0.5176  0.7830  3.4850
  124MOL0     H16723   4.842   9.731   3.695  0.2781 -1.7950 -2.6289
  124MOL0     H16724   6.054   9.591   3.105 -0.6981 -0.3689  0.2801
  124MOL0     H16725   6.002   9.656   3.325 -0.4342 -0.4461  0.8599
  124MOL0     H16726   5.971   9.929   3.678 -0.7323 -2.0438  0.8217
  124MOL0     H16727   5.928   9.928   3.925 -0.4354 -0.4965  0.0423
  124MOL0     H16728   6.039  10.108   4.197  0.2796  1.4753 -3.2995
  124MOL0     H16729   6.200  10.145   4.122  1.3983 -0.6108 -1.2437
  124MOL0     H16730   6.321   9.999   4.267  0.1605 -2.5355  0.0260
  124MOL0     H16731   6.177   9.975   4.369  3.4892 -2.2439 -0.4647
  124MOL0     H16732   6.166  10.226   4.357 -1.8736 -2.3473  2.8111
  124MOL0     H16733   6.324  10.250   4.298  0.1357 -1.0001 -0.9595
  124MOL0     H16734   6.291  10.084   4.548 -1.1317  1.6656  2.2837
  124MOL0     H16735   6.444  10.154   4.485 -0.8481 -0.8258 -0.2957
  124MOL0     H16736   6.275  10.471   4.679  3.7417 -1.7849  3.3194
  124MOL0     H16737   6.344   9.906   3.988  0.4362  0.4036 -1.1179
  124MOL0     H16738   6.447   9.956   3.664  3.8285 -4.0607 -2.3329
  124MOL0     H16739   6.501   9.920   3.823 -1.0113  0.4175  0.0959
  124MOL0     H16740   6.458   9.786   3.721  2.3284 -0.3271  4.5816
  125MOL0     O16741   3.805   8.378  10.331 -0.1132  0.1281  0.3235
  125MOL0     C16742   3.877   8.401  10.432 -1.3520  0.4845  0.0602
  125MOL0     O16743   4.008   8.433  10.417  0.2746  0.6433 -0.2776
  125MOL0     C16744   4.052   8.436  10.282  0.5330  0.1463  0.0103
  125MOL0     C16745   4.018   8.528  10.191  0.2608 -0.2671  0.5779
  125MOL0     C16746   4.070   8.524  10.056 -0.0727 -0.0754  0.5042
  125MOL0     C16747   4.149   8.417  10.015 -0.3443 -0.8227  0.3185
  125MOL0     O16748   4.200   8.399   9.892  0.0173  0.6413  0.1832
  125MOL0     C16749   4.114   8.341   9.784  0.2254  0.1400 -0.6436
  125MOL0     C16750   4.125   8.432   9.658  0.6330 -0.3497 -1.1757
  125MOL0     C16751   4.039   8.554   9.678  0.4831 -0.0855 -0.6303
  125MOL0     C16752   4.031   8.654   9.562  0.4410  0.4446  0.0120
  125MOL0     C16753   4.159   8.736   9.543  0.0689  0.1096 -0.3305
  125MOL0     C16754   4.123   8.870   9.485 -0.0437 -0.5863  0.3272
  125MOL0     C16755   4.242   8.931   9.411 -0.1488 -0.0691  0.7004
  125MOL0     C16756   4.216   9.075   9.360 -0.6684  0.0931  0.0963
  125MOL0     N16757   4.197   9.166   9.469 -0.1039 -0.5245 -0.1201
  125MOL0     C16758   4.298   9.234   9.531  0.5749 -0.0201 -1.2430
  125MOL0     C16759   4.230   9.314   9.622  0.6171 -0.5982  0.5436
  125MOL0     C16760   4.312   9.389   9.725 -0.1756  0.0077  0.5289
  125MOL0     C16761   4.315   9.536   9.696  0.1912 -1.2022  0.0168
  125MOL0     C16762   4.444   9.612   9.720 -0.3875  1.0083 -0.3342
  125MOL0     C16763   4.442   9.754   9.682  0.2307  0.4627  0.0482
  125MOL0     O16764   4.419   9.831   9.802 -0.4331  0.1031  0.2558
  125MOL0     C16765   4.325   9.928   9.803  1.0089  0.5290  1.0176
  125MOL0     C16766   4.352  10.063   9.829 -0.1898  0.1733  0.3565
  125MOL0     C16767   4.256  10.160   9.830  0.2743 -0.2150  0.7000
  125MOL0     C16768   4.119  10.122   9.806 -0.3841 -0.0126  0.1362
  125MOL0     C16769   4.001  10.206   9.813  0.3818 -0.9341  0.3591
  125MOL0     O16770   4.036  10.341   9.834  0.6822  0.8579 -0.2604
  125MOL0     C16771   3.949  10.442   9.798 -0.2813  0.3232  0.2950
  125MOL0     C16772   3.844  10.436   9.709  0.3378 -0.1851  0.0931
  125MOL0     C16773   3.760  10.548   9.686  0.0991 -0.9481  1.1753
  125MOL0     C16774   3.801  10.675   9.736  0.4690  0.3630 -0.1524
  125MOL0     O16775   3.728  10.797   9.727 -0.0963  0.2345 -0.2155
  125MOL0     C16776   3.590  10.801   9.706 -0.1732 -0.2278 -0.2416
  125MOL0     C16777   3.563  10.954   9.715  0.3269 -0.0194  1.1126
  125MOL0     C16778   3.555  11.014   9.854 -0.1130  0.4204  0.3082
  125MOL0     C16779   3.525  11.170   9.848  0.1419  0.3812  0.0095
  125MOL0     C16780   3.495  11.226   9.980  0.1274 -0.4561  0.4941
  125MOL0     C16781   3.617  11.253  10.053  0.1786 -0.8196 -0.3698
  125MOL0     C16782   3.593  11.256  10.206  0.1935  0.6908  0.8432
  125MOL0     C16783   3.595  11.123  10.273 -0.1385  0.6367  0.2880
  125MOL0    Cl16784   3.533  11.140  10.445  0.2869  0.4512 -0.0384
  125MOL0     C16785   3.915  10.687   9.817  1.0094  0.3728  0.3345
  125MOL0     C16786   3.988  10.570   9.852 -0.1103 -0.5072  0.1614
  125MOL0     O16787   3.894  10.162   9.781  0.2867 -0.1724 -0.1662
  125MOL0     C16788   4.095   9.983   9.771  0.0023 -0.1724 -1.1404
  125MOL0     C16789   4.202   9.893   9.766  0.0556  0.7098 -0.0796
  125MOL0     N16790   4.090   9.305   9.588 -0.1105  0.1210 -0.3627
  125MOL0     N16791   4.080   9.221   9.494  0.5488  0.3930 -0.1593
  125MOL0     C16792   4.175   8.317  10.108  0.0750  0.0193  0.4581
  125MOL0     C16793   4.135   8.332  10.240  0.0841 -0.4502  0.5918
  125MOL0     C16794   3.828   8.404  10.572  0.1965  1.0433 -0.1548
  125MOL0     C16795   3.924   8.368  10.670 -0.1099 -0.0102  0.4581
  125MOL0     C16796   3.899   8.359  10.805 -0.3424  0.5228 -0.3625
  125MOL0     C16797   3.773   8.401  10.847 -0.0849  0.0162  0.6596
  125MOL0     O16798   3.716   8.412  10.973 -0.3053  0.6827  0.4684
  125MOL0     C16799   3.771   8.322  11.080  0.1210 -0.5960  0.4064
  125MOL0     C16800   3.702   8.352  11.214 -0.1666  0.9125  0.9610
  125MOL0     C16801   3.778   8.457  11.300 -0.4865 -0.4587  0.8093
  125MOL0     C16802   3.710   8.475  11.441 -0.1890  0.0615  0.8169
  125MOL0     C16803   3.569   8.504  11.433 -0.1383 -1.2076  1.5267
  125MOL0     C16804   3.450   8.542  11.426  1.2922  0.6554  0.6166
  125MOL0     C16805   3.674   8.422  10.757 -0.1899 -0.5331  0.1762
  125MOL0     C16806   3.696   8.421  10.617 -0.3856 -0.1151 -0.7886
  125MOL0     C16807   3.592   8.474  10.520 -0.4086  0.2035 -0.3804
  125MOL0     H16808   3.959   8.608  10.232 -0.6320  0.3071 -1.6932
  125MOL0     H16809   4.043   8.589   9.973 -1.6869 -2.1578 -0.6884
  125MOL0     H16810   4.148   8.242   9.753 -0.8675 -0.7593  0.9040
  125MOL0     H16811   4.008   8.327   9.808 -0.0285 -0.5186 -2.1017
  125MOL0     H16812   4.086   8.380   9.570 -2.2989  0.6043 -0.5453
  125MOL0     H16813   4.228   8.463   9.635  0.2717  3.5843  1.4497
  125MOL0     H16814   4.081   8.610   9.761  2.2530 -0.7119 -1.0643
  125MOL0     H16815   3.937   8.520   9.702  0.9246 -0.3857  0.9206
  125MOL0     H16816   4.007   8.600   9.470 -0.4548 -1.2423  1.1824
  125MOL0     H16817   3.951   8.723   9.589 -1.1876 -1.5732  0.5845
  125MOL0     H16818   4.186   8.765   9.645 -2.9003 -0.2756  0.6745
  125MOL0     H16819   4.240   8.682   9.494  0.9937 -1.7375  2.9446
  125MOL0     H16820   4.033   8.862   9.422 -0.7019 -4.1554  1.4541
  125MOL0     H16821   4.093   8.938   9.566  0.1529 -2.7239  2.3174
  125MOL0     H16822   4.267   8.868   9.325  2.2111  0.4171  0.9588
  125MOL0     H16823   4.318   8.921   9.489 -0.2077 -0.4008  0.7187
  125MOL0     H16824   4.312   9.111   9.323 -1.4236  1.4905 -0.5760
  125MOL0     H16825   4.154   9.073   9.269  1.2869 -1.3833 -1.2942
  125MOL0     H16826   4.404   9.210   9.525  1.1308 -0.0294  4.0369
  125MOL0     H16827   4.260   9.389   9.821 -3.2534  2.4677 -0.9366
  125MOL0     H16828   4.413   9.348   9.721 -0.9221 -1.8509 -2.1653
  125MOL0     H16829   4.297   9.547   9.589 -0.4753  2.5040  0.4072
  125MOL0     H16830   4.232   9.581   9.750 -0.3099 -1.8933 -0.1665
  125MOL0     H16831   4.525   9.560   9.668 -0.4526 -0.6261  1.1338
  125MOL0     H16832   4.465   9.607   9.827 -0.6277  1.6284 -0.2571
  125MOL0     H16833   4.368   9.770   9.603 -0.5483  1.9861  1.0497
  125MOL0     H16834   4.535   9.795   9.643 -0.5293  0.2576 -2.1432
  125MOL0     H16835   4.457  10.082   9.849 -0.2713  0.1684  0.7982
  125MOL0     H16836   4.292  10.259   9.859 -2.3472  0.4694  1.9578
  125MOL0     H16837   3.816  10.345   9.658 -1.4951  0.9349 -1.0323
  125MOL0     H16838   3.674  10.546   9.620  0.5610 -1.9807  0.5778
  125MOL0     H16839   3.564  10.759   9.608 -1.3504  4.7853 -2.4259
  125MOL0     H16840   3.533  10.759   9.789  1.4956  1.9012  2.1252
  125MOL0     H16841   3.645  10.999   9.659 -0.4949 -0.9496 -0.9486
  125MOL0     H16842   3.466  10.966   9.666  2.0583 -0.8326 -2.9097
  125MOL0     H16843   3.479  10.959   9.911 -2.9778  0.7257 -2.8797
  125MOL0     H16844   3.648  10.992   9.906  0.0696  1.4150  0.4192
  125MOL0     H16845   3.436  11.182   9.786  0.1817 -1.8982 -0.6164
  125MOL0     H16846   3.613  11.213   9.799  0.2755  0.7102  0.5338
  125MOL0     H16847   3.441  11.151  10.039 -1.7703 -0.0001 -0.5768
  125MOL0     H16848   3.433  11.316   9.978 -0.7016 -1.0315 -0.2784
  125MOL0     H16849   3.696  11.182  10.030  2.3552  1.3896 -0.1098
  125MOL0     H16850   3.658  11.349  10.022  6.2059 -1.5703  3.5104
  125MOL0     H16851   3.505  11.312  10.240 -1.2423 -2.2421  2.4094
  125MOL0     H16852   3.679  11.310  10.248  0.1652  1.8924 -0.5909
  125MOL0     H16853   3.522  11.068  10.213  0.5787  0.1493 -0.1549
  125MOL0     H16854   3.697  11.084  10.263 -0.9511 -1.3484 -0.7014
  125MOL0     H16855   3.922  10.781   9.870 -0.4582  1.4131 -1.2005
  125MOL0     H16856   4.071  10.573   9.921  2.0102 -0.6407 -2.2396
  125MOL0     H16857   3.993   9.956   9.742 -2.4190  4.0026  2.2872
  125MOL0     H16858   4.179   9.787   9.755  2.9332  0.0007  0.1430
  125MOL0     H16859   4.224   8.230  10.066  2.4842  1.0822  0.8708
  125MOL0     H16860   4.148   8.257  10.317 -2.1852  1.0990  2.6203
  125MOL0     H16861   4.020   8.334  10.634  0.3910 -0.1700  1.8957
  125MOL0     H16862   3.985   8.335  10.866  0.9247  0.8211 -1.9718
  125MOL0     H16863   3.876   8.353  11.089 -0.5655  1.4620  2.0331
  125MOL0     H16864   3.776   8.214  11.064 -1.5826 -0.7578  0.8087
  125MOL0     H16865   3.693   8.253  11.258  1.0050 -0.4892 -1.6890
  125MOL0     H16866   3.599   8.379  11.186 -1.0826 -2.0541  1.1763
  125MOL0     H16867   3.786   8.551  11.245  4.6170 -1.8635 -1.4216
  125MOL0     H16868   3.876   8.412  11.317 -0.7504 -0.2722  3.3335
  125MOL0     H16869   3.708   8.384  11.503 -2.7267 -1.2336 -1.0058
  125MOL0     H16870   3.771   8.553  11.487  1.2859  1.1766 -2.6850
  125MOL0     H16871   3.349   8.576  11.440  0.2911 -0.4165 -3.0334
  125MOL0     H16872   3.574   8.443  10.796  0.6208  0.8683  1.6590
  125MOL0     H16873   3.495   8.486  10.568  1.0138 -0.4750  2.8839
  125MOL0     H16874   3.624   8.566  10.470 -2.5493  2.0626  1.4368
  125MOL0     H16875   3.562   8.401  10.443 -0.5676 -0.6852  0.5031
  126MOL0     O16876   1.743   1.747   3.645 -0.5506  0.3202 -0.2728
  126MOL0     C16877   1.787   1.668   3.737  1.2673 -1.5256 -0.3484
  126MOL0     O16878   1.717   1.624   3.843 -0.3836  0.6201  0.1054
  126MOL0     C16879   1.610   1.701   3.884  0.9353  0.1511 -0.9508
  126MOL0     C16880   1.474   1.683   3.845 -0.2984  0.1339 -0.9442
  126MOL0     C16881   1.368   1.754   3.905 -0.9091 -0.6588 -0.7861
  126MOL0     C16882   1.397   1.875   3.971 -0.2166 -0.0756 -0.0670
  126MOL0     O16883   1.301   1.975   4.002 -0.4291 -0.7392 -0.6309
  126MOL0     C16884   1.186   1.995   3.925  0.1486 -0.4463 -0.5070
  126MOL0     C16885   1.145   2.143   3.935 -0.0596 -0.0825  0.9796
  126MOL0     C16886   1.071   2.165   4.073  0.8531  0.2367  0.4280
  126MOL0     C16887   1.020   2.308   4.089 -0.4784  0.1241 -0.0300
  126MOL0     C16888   1.122   2.420   4.112  0.8499  0.3750 -0.2201
  126MOL0     C16889   1.068   2.551   4.175  0.1786  0.6575  0.4267
  126MOL0     C16890   1.180   2.650   4.196  0.1516  0.0098 -0.1987
  126MOL0     C16891   1.187   2.752   4.077 -0.4117  0.0849  0.7669
  126MOL0     N16892   1.273   2.879   4.091  0.3395 -0.8886 -0.6120
  126MOL0     C16893   1.418   2.884   4.080 -0.3720 -0.3483 -0.8863
  126MOL0     C16894   1.448   3.017   4.077  0.1616 -0.1556  0.5176
  126MOL0     C16895   1.580   3.076   4.050  0.1074  1.2824  0.3339
  126MOL0     C16896   1.698   3.012   4.113 -0.0722  0.2095  0.1940
  126MOL0     C16897   1.830   3.073   4.061  0.2917 -0.5421 -0.6601
  126MOL0     C16898   1.952   3.005   4.129 -0.6148 -0.3214  0.2278
  126MOL0     O16899   2.055   3.021   4.032 -0.2514 -0.1383 -0.1139
  126MOL0     C16900   2.185   3.009   4.072 -0.8089 -0.7806 -0.3258
  126MOL0     C16901   2.234   2.969   4.198 -0.5594 -0.1192  0.8161
  126MOL0     C16902   2.371   2.951   4.221 -0.2316  0.1530 -1.3533
  126MOL0     C16903   2.474   2.989   4.121  0.3014  0.0530 -0.1784
  126MOL0     C16904   2.618   2.974   4.144  1.0026  0.0917  0.1893
  126MOL0     O16905   2.651   2.901   4.258 -0.2071  0.4409 -0.1755
  126MOL0     C16906   2.787   2.909   4.296  1.3675  0.4845  0.2195
  126MOL0     C16907   2.852   2.786   4.321 -0.1795  0.1188  0.1728
  126MOL0     C16908   2.976   2.785   4.382 -0.2880  0.9234  0.2692
  126MOL0     C16909   3.036   2.897   4.426  1.3031 -0.2913  0.6234
  126MOL0     O16910   3.151   2.878   4.493 -0.0456 -0.6909 -0.1993
  126MOL0     C16911   3.216   2.993   4.552  0.3646 -0.4873  0.9481
  126MOL0     C16912   3.340   2.947   4.608 -0.4387  0.3040  0.2622
  126MOL0     C16913   3.315   2.842   4.725  0.3534 -0.0507 -0.1210
  126MOL0     C16914   3.447   2.767   4.773  0.1999 -0.6981 -0.2885
  126MOL0     C16915   3.409   2.656   4.864  0.9434  0.9496 -0.0430
  126MOL0     C16916   3.538   2.577   4.912  0.5871  0.5382  0.2166
  126MOL0     C16917   3.494   2.435   4.944  0.2059  1.6131 -0.4957
  126MOL0     C16918   3.600   2.345   5.004  0.3753 -0.6800 -0.8347
  126MOL0    Cl16919   3.643   2.396   5.183 -0.0701  0.0267 -0.2839
  126MOL0     C16920   2.969   3.020   4.394  0.1343 -0.4714 -0.3453
  126MOL0     C16921   2.846   3.027   4.328 -0.1975  1.1004  0.4123
  126MOL0     O16922   2.695   3.012   4.061 -0.0925  0.1844  0.1389
  126MOL0     C16923   2.417   3.036   4.006 -0.2116  0.0625  1.1940
  126MOL0     C16924   2.280   3.041   3.982  0.5472  0.7405 -0.1589
  126MOL0     N16925   1.323   3.088   4.098 -0.0274 -0.8771  0.3463
  126MOL0     N16926   1.223   3.003   4.120  0.4204 -0.1981  0.0146
  126MOL0     C16927   1.528   1.896   4.013  0.4617  0.5303 -0.0810
  126MOL0     C16928   1.632   1.810   3.976 -1.3591  0.0646  1.5223
  126MOL0     C16929   1.917   1.605   3.705 -0.0724 -0.2010  0.7322
  126MOL0     C16930   1.988   1.648   3.589  0.9733  1.2091  0.4253
  126MOL0     C16931   2.105   1.598   3.548 -0.4240  0.2458  0.5637
  126MOL0     C16932   2.172   1.498   3.625 -0.2064  0.0388  0.7885
  126MOL0     O16933   2.286   1.422   3.600 -0.3268 -0.4376  0.4592
  126MOL0     C16934   2.272   1.347   3.481 -0.2704  0.5047  0.0683
  126MOL0     C16935   2.392   1.373   3.400  0.6538  0.1977 -0.2862
  126MOL0     C16936   2.371   1.344   3.249 -0.5390  0.2653 -0.3354
  126MOL0     C16937   2.500   1.300   3.171 -0.0865  0.0437 -0.1917
  126MOL0     C16938   2.486   1.323   3.032 -0.0732 -0.8926  0.4903
  126MOL0     C16939   2.472   1.363   2.922 -0.2972 -0.1214  0.7710
  126MOL0     C16940   2.106   1.469   3.748  1.3497  0.7300  0.2112
  126MOL0     C16941   1.981   1.513   3.787 -0.2441 -0.1750 -0.4672
  126MOL0     C16942   1.927   1.461   3.921  0.7502 -0.2438  0.1873
  126MOL0     H16943   1.466   1.604   3.771 -0.2946 -2.9260  2.0938
  126MOL0     H16944   1.267   1.717   3.889 -0.9766 -1.1951  0.7227
  126MOL0     H16945   1.182   1.987   3.816 -1.3520  1.2986 -0.6346
  126MOL0     H16946   1.107   1.927   3.959 -0.2667 -0.9546 -2.3623
  126MOL0     H16947   1.076   2.174   3.855 -0.6175  1.1158  1.8814
  126MOL0     H16948   1.222   2.220   3.924 -0.1805 -0.1572 -0.6578
  126MOL0     H16949   1.148   2.161   4.151  0.1669 -2.4298  1.0738
  126MOL0     H16950   0.995   2.089   4.092 -0.3120  1.8970  3.0332
  126MOL0     H16951   0.958   2.340   4.005 -0.7109  5.8846  1.8314
  126MOL0     H16952   0.944   2.296   4.167 -2.4695 -0.2437 -1.9410
  126MOL0     H16953   1.194   2.377   4.182 -0.1063 -1.1292 -0.1254
  126MOL0     H16954   1.164   2.444   4.014 -0.6400  1.4462 -0.6323
  126MOL0     H16955   0.996   2.590   4.103 -0.1400 -0.2763  0.2293
  126MOL0     H16956   1.015   2.519   4.265  1.5950  0.7911  1.3369
  126MOL0     H16957   1.276   2.602   4.219 -0.3614 -0.9845 -0.0818
  126MOL0     H16958   1.152   2.706   4.286 -4.5115  1.6315 -2.3265
  126MOL0     H16959   1.236   2.690   4.001 -1.3292 -1.5534  1.4684
  126MOL0     H16960   1.085   2.784   4.051 -0.6615 -1.4966 -0.3815
  126MOL0     H16961   1.485   2.799   4.072 -2.7350 -2.1812 -2.5273
  126MOL0     H16962   1.577   3.080   3.940  0.0764  2.0907  0.3565
  126MOL0     H16963   1.585   3.181   4.081 -1.8720  1.1716  1.1406
  126MOL0     H16964   1.679   3.026   4.220  2.8363 -1.0761  0.9818
  126MOL0     H16965   1.705   2.903   4.102  0.4109  0.0660  1.6424
  126MOL0     H16966   1.831   3.182   4.074 -1.4689 -0.3841 -1.5195
  126MOL0     H16967   1.827   3.058   3.953 -2.6184 -1.6441 -0.5250
  126MOL0     H16968   1.933   2.902   4.158 -1.7651 -0.8896 -2.2638
  126MOL0     H16969   1.970   3.067   4.217  3.0306 -1.0492  0.1513
  126MOL0     H16970   2.155   2.951   4.270 -1.5370  1.0574  0.0843
  126MOL0     H16971   2.397   2.918   4.321 -1.1654  1.6200 -0.5964
  126MOL0     H16972   2.803   2.689   4.317  0.8813 -0.5859  2.4259
  126MOL0     H16973   3.012   2.683   4.393 -2.2106  0.1969  0.1286
  126MOL0     H16974   3.243   3.067   4.475  0.7573 -2.7102 -1.1830
  126MOL0     H16975   3.145   3.031   4.626  1.2340 -0.0079  1.5538
  126MOL0     H16976   3.403   2.902   4.531 -1.9024  0.7609 -1.2707
  126MOL0     H16977   3.398   3.033   4.642  0.2955 -0.9250  2.2603
  126MOL0     H16978   3.263   2.900   4.802 -0.3521  0.3465 -0.8741
  126MOL0     H16979   3.259   2.752   4.697  0.8105  0.1079 -1.6419
  126MOL0     H16980   3.508   2.850   4.810 -1.0949  0.7467 -1.3027
  126MOL0     H16981   3.498   2.724   4.687  2.5581  2.7034 -0.7610
  126MOL0     H16982   3.340   2.589   4.812  1.5118 -1.6581  2.3478
  126MOL0     H16983   3.360   2.702   4.950 -1.0021  2.1439 -1.6850
  126MOL0     H16984   3.606   2.558   4.829 -0.3422 -0.0837 -0.4161
  126MOL0     H16985   3.581   2.624   5.001  0.6997 -1.5145  1.3218
  126MOL0     H16986   3.470   2.394   4.846 -1.4901  0.2820  0.4441
  126MOL0     H16987   3.409   2.437   5.012  1.9674 -2.8896  2.2412
  126MOL0     H16988   3.563   2.242   5.003  3.0451 -1.7073 -1.7056
  126MOL0     H16989   3.687   2.368   4.942  3.6888 -2.2890  2.7889
  126MOL0     H16990   3.013   3.114   4.424  1.8789 -1.0562 -0.9566
  126MOL0     H16991   2.816   3.131   4.316 -3.6401  0.5910  2.8939
  126MOL0     H16992   2.475   3.063   3.918 -2.6413  0.3053 -0.4236
  126MOL0     H16993   2.255   3.057   3.878  2.5500 -4.0638 -1.6925
  126MOL0     H16994   1.553   1.990   4.060  2.4286  1.0355 -1.9446
  126MOL0     H16995   1.730   1.818   4.023 -0.7568 -0.8177  0.4529
  126MOL0     H16996   1.939   1.715   3.519 -2.1749  1.7105  2.8779
  126MOL0     H16997   2.149   1.640   3.458 -0.1094  2.1745  1.5808
  126MOL0     H16998   2.188   1.365   3.413  1.1943  3.2911 -1.1619
  126MOL0     H16999   2.268   1.243   3.515  0.6614  0.6732  0.7278
  126MOL0     H17000   2.484   1.327   3.437  2.9798  5.3360  1.3047
  126MOL0     H17001   2.416   1.480   3.396 -1.2896  0.6819  0.2313
  126MOL0     H17002   2.332   1.433   3.198 -2.1957 -0.9153 -1.2149
  126MOL0     H17003   2.300   1.264   3.226  1.5869 -1.6944 -0.3510
  126MOL0     H17004   2.578   1.371   3.201 -1.3342  1.1085  0.6582
  126MOL0     H17005   2.522   1.198   3.202  0.8931  0.4302  0.4474
  126MOL0     H17006   2.445   1.401   2.826 -2.7530 -1.7310  0.7433
  126MOL0     H17007   2.158   1.396   3.810  1.4607 -0.6900 -1.4932
  126MOL0     H17008   1.998   1.394   3.971 -3.0967 -2.8631  2.6310
  126MOL0     H17009   1.917   1.539   3.997  4.2333 -2.8439  3.7109
  126MOL0     H17010   1.840   1.398   3.904 -1.0036  2.1123  0.0180
  127MOL0     O17011   3.620   1.527   8.603 -0.3127  0.3380 -0.2585
  127MOL0     C17012   3.694   1.431   8.622 -0.6774 -0.5300  0.9582
  127MOL0     O17013   3.790   1.419   8.724 -0.0386  0.2816  0.7490
  127MOL0     C17014   3.820   1.525   8.803 -0.3694  0.3843  0.1969
  127MOL0     C17015   3.727   1.591   8.896  0.9560  0.0911 -0.4081
  127MOL0     C17016   3.768   1.705   8.971 -1.0483 -0.4493  0.2909
  127MOL0     C17017   3.905   1.747   8.963  0.4218 -0.0709 -0.0367
  127MOL0     O17018   3.966   1.857   9.017 -0.3238  0.1587 -0.1891
  127MOL0     C17019   3.887   1.929   9.107  1.2413  0.0114 -0.8001
  127MOL0     C17020   3.946   2.059   9.139 -0.7007 -0.9104  0.0159
  127MOL0     C17021   4.024   2.054   9.271  1.3463  0.1614  1.2143
  127MOL0     C17022   4.067   2.186   9.318  0.3887 -0.0712  0.4899
  127MOL0     C17023   3.966   2.279   9.372 -0.6832  0.1827  0.1864
  127MOL0     C17024   3.980   2.298   9.527 -0.3566  1.0226 -0.1277
  127MOL0     C17025   3.847   2.338   9.583 -0.3032  0.4233 -0.1985
  127MOL0     C17026   3.867   2.436   9.711 -0.5883  0.4552 -0.3369
  127MOL0     N17027   3.936   2.567   9.676  0.9693 -0.0869  0.1647
  127MOL0     C17028   3.895   2.650   9.574  0.1826 -1.2079  1.5220
  127MOL0     C17029   3.995   2.748   9.568  0.4943 -0.4044  0.3970
  127MOL0     C17030   3.971   2.866   9.481  0.6239  0.1262  0.8700
  127MOL0     C17031   4.089   2.939   9.440 -0.1044 -0.0950 -0.8712
  127MOL0     C17032   4.076   3.072   9.357 -0.6710  0.5664  0.0186
  127MOL0     C17033   3.997   3.179   9.429 -0.2288  0.3497  0.3215
  127MOL0     O17034   4.038   3.310   9.384  0.3067  0.2054 -0.1459
  127MOL0     C17035   3.981   3.365   9.272 -0.7218  0.6870 -0.4194
  127MOL0     C17036   3.854   3.332   9.221 -0.1345  0.7211 -0.0912
  127MOL0     C17037   3.793   3.402   9.118  0.7978 -1.0053 -0.2706
  127MOL0     C17038   3.856   3.515   9.062 -0.5264  0.4154  0.0012
  127MOL0     C17039   3.787   3.607   8.969 -0.1400  0.4996  0.6552
  127MOL0     O17040   3.841   3.711   8.908  0.0291 -0.0999 -0.0239
  127MOL0     C17041   3.759   3.793   8.833 -0.4764  0.0797 -0.2538
  127MOL0     C17042   3.756   3.805   8.688 -0.8840  0.3415 -0.6230
  127MOL0     C17043   3.693   3.901   8.620 -0.5562 -0.0060 -0.3061
  127MOL0     C17044   3.625   3.994   8.692  0.6253 -0.7251  0.8672
  127MOL0     O17045   3.553   4.071   8.597  0.6319 -0.1756 -0.6527
  127MOL0     C17046   3.477   4.181   8.640  0.3052  0.2955 -0.5750
  127MOL0     C17047   3.394   4.253   8.537  1.1723 -1.0384 -0.2627
  127MOL0     C17048   3.483   4.323   8.429 -0.4336  0.2087 -0.5274
  127MOL0     C17049   3.481   4.474   8.435 -0.1721 -0.2554  0.4894
  127MOL0     C17050   3.623   4.546   8.421  0.0010  1.4857  0.7572
  127MOL0     C17051   3.622   4.701   8.432 -0.2794 -0.4149  0.5570
  127MOL0     C17052   3.564   4.773   8.555 -0.7346 -0.2900  1.1084
  127MOL0     C17053   3.567   4.924   8.548  0.1569  0.0353 -0.7868
  127MOL0    Cl17054   3.430   4.986   8.461 -0.6378  0.4257 -0.4925
  127MOL0     C17055   3.625   4.005   8.835  0.2136  0.3337  0.4606
  127MOL0     C17056   3.699   3.904   8.903 -0.1407 -1.2676 -0.1045
  127MOL0     O17057   3.681   3.554   8.937 -0.4955 -0.3563 -0.7793
  127MOL0     C17058   3.987   3.554   9.099  0.5373  0.2857 -0.2654
  127MOL0     C17059   4.047   3.479   9.206 -0.5019 -0.0682 -0.2514
  127MOL0     N17060   4.084   2.718   9.668 -1.2494 -0.2648  1.0524
  127MOL0     N17061   4.052   2.614   9.737 -0.2343 -0.1936  0.0187
  127MOL0     C17062   3.990   1.676   8.873 -0.2383 -0.7805  0.4270
  127MOL0     C17063   3.951   1.568   8.800  0.1253 -0.3879 -1.2786
  127MOL0     C17064   3.692   1.342   8.503 -0.0787 -0.5642 -1.3300
  127MOL0     C17065   3.816   1.288   8.467  0.0877  0.0338 -0.6175
  127MOL0     C17066   3.829   1.215   8.350  1.0807  0.2703  0.5125
  127MOL0     C17067   3.729   1.181   8.272  0.0729  0.3466  0.5098
  127MOL0     O17068   3.759   1.122   8.157 -0.1258  0.0222  0.5026
  127MOL0     C17069   3.656   1.064   8.078  0.0785  0.5910 -0.6117
  127MOL0     C17070   3.687   1.013   7.932  0.4274 -0.6034 -0.9196
  127MOL0     C17071   3.775   0.896   7.930 -0.1516 -0.3014 -0.6588
  127MOL0     C17072   3.834   0.865   7.787  0.4630 -1.3356  0.7067
  127MOL0     C17073   3.719   0.846   7.693  0.4186 -0.4175 -0.6664
  127MOL0     C17074   3.634   0.809   7.612 -0.4102 -0.1720  0.0170
  127MOL0     C17075   3.602   1.231   8.312  0.0179  0.7832  0.0516
  127MOL0     C17076   3.576   1.313   8.418  0.3978  0.3651  0.1343
  127MOL0     C17077   3.435   1.351   8.446 -0.8864 -0.2217 -0.1035
  127MOL0     H17078   3.628   1.556   8.921  0.4709  2.1146  0.6927
  127MOL0     H17079   3.685   1.745   9.029 -0.7645 -1.9164  1.7743
  127MOL0     H17080   3.793   1.950   9.055  1.8108  0.4099 -1.6928
  127MOL0     H17081   3.855   1.877   9.198  0.6949  0.8592 -0.4911
  127MOL0     H17082   3.868   2.135   9.139  2.5739  2.9918 -3.5857
  127MOL0     H17083   4.006   2.087   9.051  0.1727  0.9414  1.1449
  127MOL0     H17084   4.116   1.998   9.252  0.7433 -1.0075  1.6229
  127MOL0     H17085   3.956   2.016   9.348 -0.5238  5.7601  2.8302
  127MOL0     H17086   4.147   2.174   9.392  1.1498  1.6314  0.0066
  127MOL0     H17087   4.118   2.233   9.233 -2.0450  0.5220 -0.7312
  127MOL0     H17088   3.968   2.379   9.326 -0.8943 -0.1759 -0.6194
  127MOL0     H17089   3.869   2.236   9.345 -0.2964 -0.6201  0.0598
  127MOL0     H17090   4.007   2.204   9.575 -1.3528  0.8832  0.1581
  127MOL0     H17091   4.064   2.363   9.555 -1.4830  2.2665  0.4814
  127MOL0     H17092   3.786   2.251   9.608 -0.3192  0.1725 -1.0801
  127MOL0     H17093   3.789   2.395   9.509  0.5550  1.9088  0.2247
  127MOL0     H17094   3.768   2.454   9.753 -0.9664 -1.4893 -0.2934
  127MOL0     H17095   3.928   2.378   9.781 -2.1255  2.2623  2.6876
  127MOL0     H17096   3.813   2.634   9.505 -1.5898  0.0960  3.2072
  127MOL0     H17097   3.921   2.820   9.395 -1.2180 -0.9949  2.4489
  127MOL0     H17098   3.903   2.937   9.528 -2.3476 -0.8017 -1.6912
  127MOL0     H17099   4.153   2.959   9.527 -0.0332  0.8576 -1.1267
  127MOL0     H17100   4.140   2.871   9.372 -5.1926 -0.7547 -4.6035
  127MOL0     H17101   4.019   3.037   9.270 -0.9901  0.1743  0.3831
  127MOL0     H17102   4.177   3.108   9.335 -0.5239  1.9092  2.5094
  127MOL0     H17103   4.020   3.179   9.536  2.2512  0.7921 -0.1444
  127MOL0     H17104   3.890   3.172   9.408  0.2311 -0.6435 -2.1029
  127MOL0     H17105   3.807   3.239   9.253  1.1145  0.3985  0.9185
  127MOL0     H17106   3.697   3.358   9.093  0.9690 -1.5846  0.0619
  127MOL0     H17107   3.811   3.734   8.627 -4.2063 -0.4306 -3.0138
  127MOL0     H17108   3.688   3.900   8.511 -0.2977 -2.6149 -0.3521
  127MOL0     H17109   3.404   4.138   8.709  1.3150  1.4760  1.3052
  127MOL0     H17110   3.538   4.243   8.706 -2.8716 -2.9564  6.5237
  127MOL0     H17111   3.329   4.181   8.486  1.8888 -1.9886  0.1351
  127MOL0     H17112   3.319   4.322   8.577  0.6991 -1.9870  0.5146
  127MOL0     H17113   3.583   4.290   8.460 -0.5152 -1.2392 -1.6802
  127MOL0     H17114   3.457   4.285   8.330  2.4750  3.4349 -2.7595
  127MOL0     H17115   3.427   4.512   8.522 -1.2136 -1.8165  0.5722
  127MOL0     H17116   3.425   4.507   8.346  0.6868  3.0810  1.0631
  127MOL0     H17117   3.673   4.521   8.327 -0.4439 -0.1031  0.9211
  127MOL0     H17118   3.683   4.499   8.499  0.9193 -0.2414 -0.9088
  127MOL0     H17119   3.722   4.744   8.422 -1.8684  3.6478  0.1823
  127MOL0     H17120   3.567   4.749   8.351  0.5351  0.0495  0.2602
  127MOL0     H17121   3.633   4.748   8.636  1.2969 -1.8588 -0.9784
  127MOL0     H17122   3.465   4.738   8.582 -1.1662  0.3682  0.4285
  127MOL0     H17123   3.546   4.962   8.648  0.3696 -2.2109  0.1687
  127MOL0     H17124   3.665   4.967   8.523  0.6414  1.2521  2.7182
  127MOL0     H17125   3.564   4.081   8.885 -1.7244 -0.0049 -1.2585
  127MOL0     H17126   3.712   3.929   9.008 -2.6488  2.6026 -0.4905
  127MOL0     H17127   4.040   3.641   9.062  2.3647  1.6825  4.8543
  127MOL0     H17128   4.144   3.515   9.237  0.8125  0.4587 -4.4062
  127MOL0     H17129   4.094   1.706   8.882 -0.8528  0.9230  2.8033
  127MOL0     H17130   4.013   1.501   8.741  0.8394 -1.8113  0.9855
  127MOL0     H17131   3.903   1.302   8.531 -1.5019  2.5442  1.1815
  127MOL0     H17132   3.928   1.178   8.325  0.4889 -1.7995  1.1285
  127MOL0     H17133   3.576   1.138   8.069 -0.0269  0.2539 -3.3854
  127MOL0     H17134   3.613   0.978   8.130  1.6331  0.6804  0.8823
  127MOL0     H17135   3.721   1.102   7.879  1.0572  0.7384  1.5781
  127MOL0     H17136   3.586   0.987   7.899 -0.2172 -1.4663  1.5242
  127MOL0     H17137   3.734   0.804   7.972  0.7922 -0.2020  0.5389
  127MOL0     H17138   3.861   0.916   7.995  2.2172 -0.7465 -3.4165
  127MOL0     H17139   3.894   0.948   7.748 -0.8291 -0.0664  1.3500
  127MOL0     H17140   3.902   0.779   7.787  1.2437 -0.7698 -1.0016
  127MOL0     H17141   3.557   0.780   7.544  1.2338 -4.5194 -0.2874
  127MOL0     H17142   3.517   1.195   8.255  0.4028 -1.1580  0.6439
  127MOL0     H17143   3.362   1.294   8.388  0.6244 -2.3387 -0.0276
  127MOL0     H17144   3.406   1.345   8.552 -1.7510 -1.0669 -0.3755
  127MOL0     H17145   3.429   1.458   8.424 -1.0950 -0.4025 -0.9435
  128MOL0     O17146   9.239   3.534   4.669  0.3901 -0.1869 -0.0768
  128MOL0     C17147   9.339   3.598   4.688  0.1500  0.8601  0.7902
  128MOL0     O17148   9.437   3.567   4.768 -0.4584  0.4028  0.0845
  128MOL0     C17149   9.423   3.461   4.853  0.2392  0.2095 -0.9185
  128MOL0     C17150   9.522   3.366   4.869 -0.3622 -0.7909  0.6318
  128MOL0     C17151   9.505   3.250   4.945 -0.8261 -0.6913  0.3650
  128MOL0     C17152   9.385   3.236   5.022 -0.2552 -0.1537  0.7109
  128MOL0     O17153   9.378   3.120   5.096  0.8584  0.1685  0.5183
  128MOL0     C17154   9.320   3.129   5.222 -0.2161  0.0090  0.4403
  128MOL0     C17155   9.340   2.994   5.275 -0.4472 -0.1324 -1.5644
  128MOL0     C17156   9.291   2.968   5.422 -0.6220  0.8174  0.0608
  128MOL0     C17157   9.385   3.039   5.523  0.4148 -0.0819 -0.7014
  128MOL0     C17158   9.409   2.956   5.653 -0.0763  0.3635  0.4170
  128MOL0     C17159   9.274   2.929   5.729 -0.1137  0.1220 -0.4098
  128MOL0     C17160   9.292   2.890   5.873  0.2738 -0.7583 -0.4173
  128MOL0     C17161   9.400   2.962   5.955 -0.0348 -0.1602  0.4259
  128MOL0     N17162   9.376   2.902   6.085  0.4990 -0.7174  0.0741
  128MOL0     C17163   9.312   2.976   6.178 -0.0302  0.0292 -0.2151
  128MOL0     C17164   9.300   2.892   6.287 -0.6105 -0.2329 -0.2758
  128MOL0     C17165   9.219   2.905   6.419  0.2881 -0.1744  0.4960
  128MOL0     C17166   9.171   3.047   6.459 -0.8713 -0.3430  0.9571
  128MOL0     C17167   9.070   3.047   6.574 -0.5296  0.0895 -0.3319
  128MOL0     C17168   9.053   3.182   6.648 -0.2297  0.5485  0.1762
  128MOL0     O17169   9.011   3.297   6.576 -0.3738 -0.6630 -0.3295
  128MOL0     C17170   9.015   3.422   6.633  1.0089  0.0186  0.9763
  128MOL0     C17171   8.988   3.526   6.546 -0.4294  0.1386  0.1245
  128MOL0     C17172   8.990   3.659   6.594 -0.3478 -0.0605 -1.0137
  128MOL0     C17173   9.009   3.689   6.724  0.0300 -0.5950 -0.1578
  128MOL0     C17174   8.997   3.832   6.762  0.2022  0.0943  0.5315
  128MOL0     O17175   9.008   3.923   6.661  0.6281 -0.2865 -0.1280
  128MOL0     C17176   8.985   4.055   6.687  0.9872  0.2399  0.3662
  128MOL0     C17177   9.069   4.138   6.602  0.2487  0.4240  0.2390
  128MOL0     C17178   9.070   4.273   6.610 -0.6220 -0.8819  0.9658
  128MOL0     C17179   8.974   4.341   6.696 -0.2160 -0.6024 -0.2317
  128MOL0     O17180   8.989   4.482   6.703 -0.2066 -0.4043  0.2468
  128MOL0     C17181   8.869   4.553   6.667  0.4048 -0.0662  0.3413
  128MOL0     C17182   8.876   4.577   6.514 -0.3607  0.1529 -0.2214
  128MOL0     C17183   8.981   4.686   6.482 -0.3494  0.2667 -0.3743
  128MOL0     C17184   9.124   4.631   6.475  0.3211  0.3045 -0.0146
  128MOL0     C17185   9.224   4.748   6.438  0.5329  0.7099  0.3473
  128MOL0     C17186   9.267   4.818   6.573 -0.0445 -0.3489  0.6317
  128MOL0     C17187   9.373   4.931   6.547 -0.5319  0.0190  0.8481
  128MOL0     C17188   9.310   5.072   6.516 -0.2039 -0.0094 -0.8544
  128MOL0    Cl17189   9.430   5.193   6.481  0.2664  0.0669 -0.4499
  128MOL0     C17190   8.897   4.261   6.782  0.4492 -0.0042 -0.0294
  128MOL0     C17191   8.900   4.119   6.782  0.0899 -0.6026 -0.3812
  128MOL0     O17192   8.990   3.858   6.881 -0.6702  0.1570  0.6459
  128MOL0     C17193   9.040   3.584   6.813 -0.2181 -0.7239 -0.5644
  128MOL0     C17194   9.057   3.447   6.761 -0.2607  0.3783  0.1027
  128MOL0     N17195   9.357   2.765   6.246  0.4833 -0.4401  0.2751
  128MOL0     N17196   9.405   2.783   6.131 -0.3889 -0.2879 -0.5936
  128MOL0     C17197   9.290   3.340   5.017 -0.1228  1.0210 -0.2120
  128MOL0     C17198   9.311   3.450   4.944 -0.4498  0.8180  1.4171
  128MOL0     C17199   9.356   3.724   4.617 -0.4260 -0.4256  1.0297
  128MOL0     C17200   9.430   3.828   4.672  0.1400 -0.3618 -0.3148
  128MOL0     C17201   9.449   3.956   4.603 -0.0678 -0.0072  0.1327
  128MOL0     C17202   9.398   3.965   4.476  0.9993 -1.0216  0.7947
  128MOL0     O17203   9.431   4.066   4.387  0.3346 -0.0940  0.1290
  128MOL0     C17204   9.382   4.199   4.418  0.2181 -0.4840  0.4065
  128MOL0     C17205   9.369   4.269   4.283 -0.2758  0.2333  0.4649
  128MOL0     C17206   9.283   4.191   4.187 -0.0361  0.0915  0.1812
  128MOL0     C17207   9.184   4.288   4.119  0.0717 -0.0875 -1.1256
  128MOL0     C17208   9.254   4.364   4.022  0.2326 -0.4120  0.1730
  128MOL0     C17209   9.285   4.424   3.917 -1.0610 -0.0635 -0.3233
  128MOL0     C17210   9.326   3.865   4.419  0.0938 -0.0401  0.3330
  128MOL0     C17211   9.303   3.746   4.484 -0.1257 -0.3254 -0.2459
  128MOL0     C17212   9.242   3.636   4.396 -0.4129 -0.9811  0.2698
  128MOL0     H17213   9.610   3.366   4.805  0.4895 -2.6326  1.7270
  128MOL0     H17214   9.565   3.160   4.937  0.9737  0.5297 -0.8564
  128MOL0     H17215   9.370   3.203   5.286  1.7379 -0.4762 -0.4639
  128MOL0     H17216   9.213   3.150   5.226 -0.7312 -2.2380 -0.3305
  128MOL0     H17217   9.446   2.967   5.267 -0.0985  0.2906  0.7772
  128MOL0     H17218   9.284   2.923   5.214 -2.5826  0.3505 -0.2413
  128MOL0     H17219   9.286   2.860   5.438 -4.6986  0.1830 -3.6173
  128MOL0     H17220   9.192   3.011   5.441 -1.1467 -1.2464  2.5132
  128MOL0     H17221   9.482   3.056   5.476  0.2819  1.7296 -0.3840
  128MOL0     H17222   9.347   3.136   5.557 -2.8618 -2.2007  2.4452
  128MOL0     H17223   9.472   2.867   5.642  1.5318  1.6585 -2.0465
  128MOL0     H17224   9.480   3.014   5.713 -0.6067  0.8820  0.5428
  128MOL0     H17225   9.228   3.027   5.716  0.8150  0.6844  0.3926
  128MOL0     H17226   9.209   2.853   5.685  1.6857 -3.9572  3.1785
  128MOL0     H17227   9.321   2.784   5.875  1.3480 -0.5895  4.2645
  128MOL0     H17228   9.190   2.903   5.910 -0.0954 -0.9497 -1.3412
  128MOL0     H17229   9.501   2.931   5.925 -0.3336  0.1314 -0.9644
  128MOL0     H17230   9.378   3.069   5.957 -3.0902 -0.7022  0.7519
  128MOL0     H17231   9.257   3.068   6.160 -2.2383 -1.3307 -0.6940
  128MOL0     H17232   9.124   2.853   6.401 -0.4130  1.2416 -0.0592
  128MOL0     H17233   9.259   2.866   6.513  1.6113  3.4247  1.5587
  128MOL0     H17234   9.254   3.116   6.471 -1.0697  0.9481 -3.4683
  128MOL0     H17235   9.126   3.087   6.368  0.1469 -0.0840  0.5541
  128MOL0     H17236   9.110   2.984   6.654  2.8412 -0.3961 -2.2090
  128MOL0     H17237   8.978   3.018   6.524 -1.1543  1.1599  0.1610
  128MOL0     H17238   9.148   3.209   6.695  2.0462 -0.4067 -3.4191
  128MOL0     H17239   8.977   3.164   6.725 -0.6529  3.5942  0.5768
  128MOL0     H17240   8.968   3.501   6.442 -4.7934  3.5492 -0.1838
  128MOL0     H17241   8.961   3.717   6.507 -0.8773 -2.8748 -2.8704
  128MOL0     H17242   9.125   4.085   6.526 -3.2359 -1.8229 -1.0203
  128MOL0     H17243   9.152   4.322   6.559 -0.5443 -1.3957  0.5931
  128MOL0     H17244   8.782   4.489   6.684  0.6920 -1.0323 -1.4843
  128MOL0     H17245   8.857   4.642   6.729 -1.0832  0.2063 -0.2911
  128MOL0     H17246   8.888   4.486   6.453 -0.4101 -1.0270  1.4481
  128MOL0     H17247   8.777   4.623   6.509 -1.3820 -1.3494  3.1136
  128MOL0     H17248   8.945   4.732   6.389  1.1664  0.2567 -0.9935
  128MOL0     H17249   8.969   4.755   6.566 -1.3465  0.0410 -0.3102
  128MOL0     H17250   9.135   4.562   6.390  0.0201 -0.2080  0.3539
  128MOL0     H17251   9.146   4.584   6.571 -0.9877 -0.6368 -0.1424
  128MOL0     H17252   9.178   4.821   6.371 -0.8377  0.8092  1.3599
  128MOL0     H17253   9.303   4.703   6.378  1.2048  2.9019 -0.5018
  128MOL0     H17254   9.188   4.862   6.635 -0.0137 -0.1913  0.5587
  128MOL0     H17255   9.309   4.734   6.629  0.3660  1.9248  4.0469
  128MOL0     H17256   9.431   4.903   6.459  0.3549  0.6810  1.2071
  128MOL0     H17257   9.448   4.935   6.627  0.6256  1.3662 -0.2590
  128MOL0     H17258   9.247   5.062   6.427 -0.9945  2.5043 -0.6577
  128MOL0     H17259   9.242   5.095   6.599  0.2545 -1.5447 -0.0039
  128MOL0     H17260   8.816   4.303   6.841  1.2683  1.8673 -0.1711
  128MOL0     H17261   8.823   4.065   6.837 -4.2685  4.7900 -0.2446
  128MOL0     H17262   9.067   3.598   6.917 -0.3325 -2.8297 -0.2081
  128MOL0     H17263   9.090   3.366   6.824  1.9585  1.7335  0.7728
  128MOL0     H17264   9.195   3.321   5.067  0.8596  0.1090  1.4093
  128MOL0     H17265   9.240   3.531   4.940 -0.4817  0.8404  2.2792
  128MOL0     H17266   9.462   3.829   4.775 -3.9094 -0.8961  1.1256
  128MOL0     H17267   9.504   4.042   4.639  0.8612 -0.5834  0.1174
  128MOL0     H17268   9.453   4.249   4.486 -2.0724  1.9022  1.1990
  128MOL0     H17269   9.281   4.193   4.460 -0.7293  0.1316 -1.6865
  128MOL0     H17270   9.475   4.273   4.258  1.1351 -2.2649  4.8595
  128MOL0     H17271   9.321   4.365   4.303  1.9187  1.1697  1.5324
  128MOL0     H17272   9.225   4.108   4.228  0.7161 -0.0650  0.9670
  128MOL0     H17273   9.356   4.164   4.111  1.0451  3.9314 -0.3961
  128MOL0     H17274   9.104   4.233   4.068 -0.5152 -1.4977  1.1710
  128MOL0     H17275   9.135   4.352   4.193  1.5246 -1.4056  1.1007
  128MOL0     H17276   9.293   4.479   3.825  1.0745 -0.8256 -0.6285
  128MOL0     H17277   9.293   3.882   4.317  0.3823  0.2516  0.2857
  128MOL0     H17278   9.141   3.602   4.420 -0.3752 -1.1567  0.1820
  128MOL0     H17279   9.234   3.677   4.295 -2.3463  2.8138  1.7468
  128MOL0     H17280   9.311   3.552   4.389  1.2934  0.4407 -0.9600
  129MOL0     O17281   4.684   5.348   4.922 -0.1235  0.2290 -1.1630
  129MOL0     C17282   4.774   5.271   4.958 -0.1036  1.6471  0.8548
  129MOL0     O17283   4.798   5.158   4.894  0.0126  0.4081 -0.2789
  129MOL0     C17284   4.711   5.088   4.804 -0.4615  0.2069  0.0654
  129MOL0     C17285   4.704   5.126   4.673  0.7938  0.3882 -0.8077
  129MOL0     C17286   4.594   5.071   4.587 -0.9026  0.5378 -0.3489
  129MOL0     C17287   4.510   4.968   4.647  0.2958 -0.2697  0.5468
  129MOL0     O17288   4.426   4.895   4.571 -0.2933 -0.6481 -0.7334
  129MOL0     C17289   4.284   4.919   4.581  0.1074  0.3251 -0.5037
  129MOL0     C17290   4.192   4.836   4.490 -0.4939  0.5434 -0.3906
  129MOL0     C17291   4.271   4.802   4.359  0.3804  0.0696  0.5189
  129MOL0     C17292   4.171   4.766   4.246 -0.7935  0.1296 -0.7298
  129MOL0     C17293   4.241   4.701   4.120 -0.3026  0.3420 -0.2657
  129MOL0     C17294   4.148   4.705   3.992 -0.7083  0.5815  0.0391
  129MOL0     C17295   4.195   4.620   3.876  0.0781  0.1019  0.7579
  129MOL0     C17296   4.145   4.683   3.745  0.1569  0.8526  0.0509
  129MOL0     N17297   3.995   4.663   3.744 -0.4172 -0.0248  0.3970
  129MOL0     C17298   3.923   4.567   3.681 -0.3580 -0.8367  0.4625
  129MOL0     C17299   3.797   4.617   3.671  0.4079 -0.6149 -0.2860
  129MOL0     C17300   3.669   4.556   3.604  0.2861  0.9846  0.4831
  129MOL0     C17301   3.687   4.536   3.454 -0.7816 -0.7412 -0.4767
  129MOL0     C17302   3.552   4.494   3.382  0.1377 -0.2845 -0.2651
  129MOL0     C17303   3.562   4.487   3.232  0.5176 -0.9693 -0.3266
  129MOL0     O17304   3.676   4.405   3.204  0.0870 -0.7618  0.4428
  129MOL0     C17305   3.764   4.448   3.104  0.0810  0.3083  0.6117
  129MOL0     C17306   3.891   4.494   3.130  0.3680 -0.6499  0.3534
  129MOL0     C17307   3.975   4.533   3.024 -0.3154  0.7929  0.8444
  129MOL0     C17308   3.932   4.514   2.884  0.5610 -0.0623 -0.3845
  129MOL0     C17309   4.028   4.547   2.776  0.0719  0.6699  0.6774
  129MOL0     O17310   3.964   4.549   2.653  0.1273 -0.1786 -0.4555
  129MOL0     C17311   4.031   4.558   2.532  0.1071  0.1122 -0.5794
  129MOL0     C17312   4.163   4.516   2.506  0.0287 -0.3768 -0.7147
  129MOL0     C17313   4.215   4.509   2.374 -0.2916 -0.0376  0.7370
  129MOL0     C17314   4.129   4.530   2.266 -0.5434 -0.0350  0.9717
  129MOL0     O17315   4.186   4.511   2.141 -0.3815  0.1415 -0.3352
  129MOL0     C17316   4.104   4.491   2.023 -0.4532  0.8802  0.1036
  129MOL0     C17317   4.179   4.480   1.890 -0.2869  0.7319 -0.2883
  129MOL0     C17318   4.283   4.366   1.905 -0.8965  0.6486  0.6123
  129MOL0     C17319   4.339   4.347   1.767  0.3204  0.7487 -0.1812
  129MOL0     C17320   4.472   4.266   1.761 -0.0410 -0.4865  0.1479
  129MOL0     C17321   4.506   4.224   1.618 -0.2837  0.1385  0.3510
  129MOL0     C17322   4.632   4.299   1.564  0.7504 -0.5588  0.2948
  129MOL0     C17323   4.607   4.447   1.551  0.6044  0.8016 -0.5886
  129MOL0    Cl17324   4.488   4.507   1.423 -0.5726  0.0234  0.2003
  129MOL0     C17325   3.993   4.563   2.294  0.0246  0.2176  0.1325
  129MOL0     C17326   3.949   4.572   2.424 -0.6876  0.4200  0.6687
  129MOL0     O17327   4.150   4.564   2.788  0.1913  0.7809 -0.8555
  129MOL0     C17328   3.803   4.489   2.863 -0.2643  0.7707  0.8087
  129MOL0     C17329   3.721   4.450   2.978  0.5756 -0.3528 -0.5466
  129MOL0     N17330   3.794   4.739   3.743 -0.1089  0.5343  0.2319
  129MOL0     N17331   3.912   4.765   3.786 -0.3923  0.0851  0.2534
  129MOL0     C17332   4.535   4.928   4.779 -0.2144 -0.7927  0.2565
  129MOL0     C17333   4.637   4.984   4.857  0.0631 -0.5344 -0.7423
  129MOL0     C17334   4.838   5.289   5.085 -0.0223 -0.8950 -1.0112
  129MOL0     C17335   4.909   5.183   5.142 -1.2043  0.4845 -0.2609
  129MOL0     C17336   4.960   5.197   5.268  0.5423  0.7520  0.3864
  129MOL0     C17337   4.942   5.308   5.342 -0.9639  0.2863 -0.3948
  129MOL0     O17338   4.982   5.309   5.482 -0.4446 -0.4219  0.7625
  129MOL0     C17339   4.941   5.417   5.568  0.1907 -1.1846 -0.3594
  129MOL0     C17340   4.950   5.374   5.716 -0.0812 -0.7158 -0.4137
  129MOL0     C17341   4.933   5.467   5.832  1.3569  0.0588 -0.8019
  129MOL0     C17342   4.976   5.616   5.827  0.1548  0.5388  0.1237
  129MOL0     C17343   4.913   5.703   5.720 -0.0839 -0.7114  0.5037
  129MOL0     C17344   4.868   5.786   5.641  0.2226  0.5468 -0.5461
  129MOL0     C17345   4.865   5.423   5.280 -0.6442  0.3758 -0.7210
  129MOL0     C17346   4.831   5.423   5.151 -0.2065  0.4195 -1.1519
  129MOL0     C17347   4.775   5.549   5.106  1.0991  0.6049 -0.4064
  129MOL0     H17348   4.762   5.213   4.642 -0.4201  2.6307  2.6289
  129MOL0     H17349   4.591   5.097   4.482  1.8090  1.1568 -0.3645
  129MOL0     H17350   4.265   4.905   4.688  1.1648  3.4036  0.1918
  129MOL0     H17351   4.265   5.022   4.549  2.3543  0.6178 -1.0402
  129MOL0     H17352   4.111   4.902   4.459 -0.5577  0.4293 -0.4647
  129MOL0     H17353   4.152   4.747   4.540  0.6939 -0.5416 -1.3107
  129MOL0     H17354   4.343   4.721   4.368 -1.1912 -1.9835 -3.1274
  129MOL0     H17355   4.323   4.893   4.331 -0.6047  1.4253  2.7603
  129MOL0     H17356   4.097   4.700   4.292 -1.2537 -0.5509 -2.3639
  129MOL0     H17357   4.126   4.863   4.224 -0.3503  1.0883  2.1914
  129MOL0     H17358   4.339   4.745   4.101 -0.2969  2.2303  3.2226
  129MOL0     H17359   4.246   4.598   4.158  0.3805  0.1696 -0.8084
  129MOL0     H17360   4.049   4.671   4.023  0.0951 -0.4385  1.6497
  129MOL0     H17361   4.151   4.812   3.968  2.8609  0.4295 -0.7422
  129MOL0     H17362   4.167   4.516   3.891  0.7040  0.1886  2.7588
  129MOL0     H17363   4.304   4.627   3.883  0.1420 -1.7068  2.1818
  129MOL0     H17364   4.158   4.791   3.748  1.7255  0.6857  0.5159
  129MOL0     H17365   4.194   4.635   3.659 -1.7629 -1.5634  0.2027
  129MOL0     H17366   3.959   4.480   3.627 -0.8244 -1.9780  1.9201
  129MOL0     H17367   3.659   4.457   3.649  1.7496  0.1872 -0.8481
  129MOL0     H17368   3.586   4.621   3.634  0.3988  0.7251  1.3997
  129MOL0     H17369   3.703   4.636   3.412 -3.0015 -0.9757 -2.0920
  129MOL0     H17370   3.762   4.462   3.426 -0.0702  0.1349 -0.9307
  129MOL0     H17371   3.465   4.552   3.412  0.7266 -0.0488  1.0706
  129MOL0     H17372   3.528   4.396   3.423  0.2680  0.6336  2.1881
  129MOL0     H17373   3.568   4.589   3.193  0.8225 -2.2461 -4.0069
  129MOL0     H17374   3.467   4.456   3.187  0.6610 -0.0260 -1.3386
  129MOL0     H17375   3.916   4.503   3.235 -0.2652 -2.4543  0.6908
  129MOL0     H17376   4.079   4.561   3.033  0.2560 -1.0286  0.3201
  129MOL0     H17377   4.234   4.491   2.584 -2.2459 -2.3007  0.8786
  129MOL0     H17378   4.313   4.466   2.354  0.5250  1.7672  0.6156
  129MOL0     H17379   4.037   4.406   2.038 -1.2365  1.6835  1.5069
  129MOL0     H17380   4.043   4.582   2.025 -0.3230  0.9996 -1.1253
  129MOL0     H17381   4.112   4.469   1.804 -0.0919  1.4664 -0.5475
  129MOL0     H17382   4.234   4.574   1.876  0.6160 -0.0760 -2.7996
  129MOL0     H17383   4.366   4.402   1.967 -1.7923 -1.4714  3.1897
  129MOL0     H17384   4.249   4.272   1.949  2.8972 -0.6384  1.1360
  129MOL0     H17385   4.368   4.445   1.728  2.6739  1.1215  2.2084
  129MOL0     H17386   4.274   4.285   1.704  0.4343 -3.5373  3.4411
  129MOL0     H17387   4.457   4.175   1.820 -3.1917  1.5048  2.7041
  129MOL0     H17388   4.554   4.320   1.809 -1.1636  0.4191  1.0859
  129MOL0     H17389   4.523   4.116   1.626  0.7522  0.0794 -1.8304
  129MOL0     H17390   4.419   4.249   1.555 -0.6224  0.7524  1.0396
  129MOL0     H17391   4.659   4.269   1.462 -1.3444 -3.9978  0.5755
  129MOL0     H17392   4.713   4.268   1.631  1.3844 -0.8041 -0.5705
  129MOL0     H17393   4.579   4.486   1.649  1.2266  0.9128 -0.4522
  129MOL0     H17394   4.701   4.483   1.509  0.1040  0.1926 -2.3035
  129MOL0     H17395   3.924   4.572   2.211 -2.8141 -5.8428  1.3339
  129MOL0     H17396   3.849   4.609   2.445 -0.0875  1.5870  1.5602
  129MOL0     H17397   3.755   4.485   2.766  1.1143 -1.5029  0.1477
  129MOL0     H17398   3.619   4.414   2.968  0.9113 -1.9700  1.2078
  129MOL0     H17399   4.474   4.843   4.806  0.4225 -3.0394 -4.2971
  129MOL0     H17400   4.669   4.960   4.958 -1.1377  1.6208  0.2479
  129MOL0     H17401   4.918   5.080   5.106 -2.9559  0.4497 -0.7194
  129MOL0     H17402   5.010   5.109   5.306 -3.6992 -3.3201 -2.3499
  129MOL0     H17403   4.836   5.445   5.557 -0.0260 -1.8103  0.1073
  129MOL0     H17404   5.007   5.504   5.556  0.6351 -1.2002  1.5769
  129MOL0     H17405   5.051   5.333   5.730  2.1821  3.5044 -2.4909
  129MOL0     H17406   4.865   5.308   5.736  0.5766 -0.3009  5.4013
  129MOL0     H17407   4.981   5.421   5.919  3.6108 -0.1192 -2.0680
  129MOL0     H17408   4.828   5.468   5.865  2.2683 -0.9138  2.5604
  129MOL0     H17409   4.958   5.650   5.930 -2.3873  1.1377 -0.4331
  129MOL0     H17410   5.083   5.625   5.806  0.0396  1.6155 -0.1056
  129MOL0     H17411   4.819   5.860   5.580 -1.0043  0.8796  0.7875
  129MOL0     H17412   4.836   5.509   5.340 -0.6854 -0.2657  0.1977
  129MOL0     H17413   4.808   5.635   5.164  2.3036 -0.9396  1.3126
  129MOL0     H17414   4.797   5.573   5.001 -0.2481 -0.9498 -1.0916
  129MOL0     H17415   4.668   5.525   5.108  1.2474 -0.5593 -2.9859
  130MOL0     O17416   3.643   1.676  10.147  0.5001  1.3902 -0.4958
  130MOL0     C17417   3.739   1.734  10.113  0.4233 -0.7536 -0.6581
  130MOL0     O17418   3.800   1.837  10.185  0.2816  0.1392  1.1386
  130MOL0     C17419   3.781   1.836  10.317 -0.4708  0.1703 -0.0497
  130MOL0     C17420   3.874   1.763  10.397  1.0787 -1.5841  0.0673
  130MOL0     C17421   3.867   1.785  10.538  0.0658 -0.5237  0.5083
  130MOL0     C17422   3.775   1.883  10.590 -0.7392  0.2476 -0.6677
  130MOL0     O17423   3.771   1.905  10.726  0.4179  0.1357 -0.0854
  130MOL0     C17424   3.676   1.809  10.794  0.2714  0.5422 -0.4484
  130MOL0     C17425   3.528   1.833  10.798 -0.2539 -0.1813 -0.4861
  130MOL0     C17426   3.471   1.909  10.914  0.3167  0.4395  0.1784
  130MOL0     C17427   3.432   1.817  11.031 -0.0834 -0.4063  1.0442
  130MOL0     C17428   3.428   1.890  11.167 -0.4434 -0.0548 -0.0103
  130MOL0     C17429   3.417   1.800  11.278 -0.0304  0.5092  0.7310
  130MOL0     C17430   3.432   1.880  11.405  0.2334  0.2462 -0.0064
  130MOL0     C17431   3.427   1.790  11.537 -0.4505  0.6316 -0.3679
  130MOL0     N17432   3.325   1.682  11.554 -0.5636  0.5382  0.7650
  130MOL0     C17433   3.302   1.658  11.689  0.3732  0.2108  0.1993
  130MOL0     C17434   3.284   1.529  11.707 -0.3405  0.1395  1.1259
  130MOL0     C17435   3.258   1.461  11.837 -0.1289 -0.4291  0.0081
  130MOL0     C17436   3.143   1.519  11.919  0.5518 -0.1675 -0.1711
  130MOL0     C17437   3.005   1.511  11.846 -0.0498 -0.1821 -0.2002
  130MOL0     C17438   2.899   1.602  11.913  0.4159 -0.0265  0.0404
  130MOL0     O17439   2.916   1.740  11.948 -0.5163 -0.0437 -1.0609
  130MOL0     C17440   2.939   1.829  11.846 -0.5408  0.7983  0.0802
  130MOL0     C17441   3.052   1.917  11.858  0.4285  0.9480  0.0255
  130MOL0     C17442   3.084   1.993  11.754  0.0249 -0.3566 -0.3435
  130MOL0     C17443   3.015   1.974  11.632 -0.0016 -0.6101  0.4043
  130MOL0     C17444   3.044   2.055  11.503 -0.1839 -0.2800 -0.4143
  130MOL0     O17445   2.977   2.029  11.381  0.3477 -1.4783 -0.3253
  130MOL0     C17446   3.003   2.091  11.258 -1.2755  0.8380 -0.0859
  130MOL0     C17447   3.124   2.132  11.205  0.0038 -0.6892 -0.3545
  130MOL0     C17448   3.130   2.184  11.073  1.0379 -0.3185  0.0067
  130MOL0     C17449   3.016   2.186  10.990 -0.6921 -0.4241  0.4442
  130MOL0     O17450   3.015   2.237  10.856  0.6185 -0.5418  0.3225
  130MOL0     C17451   3.143   2.252  10.787  0.9228 -1.4213 -0.1484
  130MOL0     C17452   3.097   2.244  10.641  0.7558 -1.1773 -0.1529
  130MOL0     C17453   3.074   2.388  10.597  0.6574  0.1058 -0.2202
  130MOL0     C17454   3.024   2.370  10.450  1.2111 -0.8236  0.5145
  130MOL0     C17455   3.048   2.498  10.361 -1.1414 -0.0864  0.1807
  130MOL0     C17456   3.008   2.482  10.218 -1.1038  0.2768 -0.3646
  130MOL0     C17457   3.131   2.427  10.136 -0.3760  0.6488  0.8811
  130MOL0     C17458   3.093   2.418   9.987 -1.0868 -0.0051 -0.4094
  130MOL0    Cl17459   2.979   2.290   9.930  0.1026 -0.0431  0.7201
  130MOL0     C17460   2.893   2.129  11.040  0.8906  0.3293  0.3086
  130MOL0     C17461   2.896   2.081  11.171 -0.9027  0.2110 -0.4255
  130MOL0     O17462   3.131   2.133  11.521 -0.1107 -0.3776  0.9113
  130MOL0     C17463   2.900   1.895  11.624  0.0427 -0.2596  0.4755
  130MOL0     C17464   2.876   1.812  11.730 -0.4751 -0.5586  0.7169
  130MOL0     N17465   3.291   1.469  11.578  0.0772  1.2265 -0.6787
  130MOL0     N17466   3.319   1.557  11.479  0.5573 -0.8529  0.0092
  130MOL0     C17467   3.681   1.942  10.510  0.1466 -1.3108 -0.2574
  130MOL0     C17468   3.682   1.932  10.370  0.4725 -0.0430 -0.6120
  130MOL0     C17469   3.775   1.710   9.971  0.2923  0.4678 -0.5629
  130MOL0     C17470   3.675   1.729   9.868  0.5852 -0.4230 -0.0895
  130MOL0     C17471   3.696   1.707   9.737  0.2086 -0.2543 -0.6610
  130MOL0     C17472   3.820   1.663   9.697  0.1497  1.0689 -0.7634
  130MOL0     O17473   3.845   1.635   9.567 -0.1158  0.4446 -0.7291
  130MOL0     C17474   3.923   1.742   9.521  0.7142  0.0094 -0.6350
  130MOL0     C17475   4.023   1.670   9.431  0.9060 -0.6773  0.9334
  130MOL0     C17476   3.957   1.574   9.323  0.5893  0.1265 -0.2894
  130MOL0     C17477   4.058   1.537   9.219 -0.1933  0.3594  0.0328
  130MOL0     C17478   3.997   1.434   9.134 -0.4823  0.4887 -0.2220
  130MOL0     C17479   3.937   1.351   9.065  0.2497 -0.3303  0.4996
  130MOL0     C17480   3.921   1.634   9.796 -0.1489 -0.3820  0.8461
  130MOL0     C17481   3.898   1.660   9.936 -0.1214  1.0687  0.9098
  130MOL0     C17482   3.999   1.609  10.030 -0.1816 -0.9299  0.6515
  130MOL0     H17483   3.938   1.688  10.351 -0.7916 -2.2838 -1.5461
  130MOL0     H17484   3.916   1.718  10.608  1.0231  0.4090  0.7464
  130MOL0     H17485   3.670   1.717  10.735 -4.8883  0.6093 -0.5064
  130MOL0     H17486   3.705   1.769  10.892 -0.2832 -2.7852 -1.5004
  130MOL0     H17487   3.474   1.738  10.802 -3.1002  1.2884 -0.6561
  130MOL0     H17488   3.503   1.890  10.707 -2.1622  0.2809  0.2683
  130MOL0     H17489   3.379   1.963  10.891 -1.1657 -1.2073  1.8679
  130MOL0     H17490   3.553   1.971  10.952  2.5159 -1.8542 -0.5041
  130MOL0     H17491   3.336   1.767  11.019 -1.8379  2.6194  1.4301
  130MOL0     H17492   3.509   1.739  11.035  2.2597  1.7167  0.1883
  130MOL0     H17493   3.529   1.930  11.180 -0.3317 -0.4493  0.3733
  130MOL0     H17494   3.361   1.977  11.162 -0.6781 -0.2910 -2.7909
  130MOL0     H17495   3.319   1.750  11.274 -0.6957  1.8325 -0.8728
  130MOL0     H17496   3.498   1.727  11.280 -0.2084  0.2621  3.5713
  130MOL0     H17497   3.354   1.955  11.414  2.0542  2.2029  0.3459
  130MOL0     H17498   3.529   1.927  11.385 -0.9460  2.1755 -1.4291
  130MOL0     H17499   3.525   1.741  11.535 -0.0917  1.3355 -0.2938
  130MOL0     H17500   3.419   1.863  11.619  3.1639  0.2966  0.4582
  130MOL0     H17501   3.297   1.722  11.777 -1.2262 -1.0545  1.0995
  130MOL0     H17502   3.232   1.356  11.821 -2.1254 -0.6201  3.4505
  130MOL0     H17503   3.349   1.457  11.897 -1.5001 -1.2256  2.1646
  130MOL0     H17504   3.134   1.457  12.009 -0.9139  2.3466  1.5240
  130MOL0     H17505   3.161   1.621  11.954 -0.0624  0.0721 -0.5308
  130MOL0     H17506   2.964   1.413  11.821  0.7169 -0.2334 -1.3234
  130MOL0     H17507   3.024   1.555  11.748  0.4880 -0.9499 -0.4522
  130MOL0     H17508   2.881   1.542  12.003  1.3099 -1.5200 -0.7342
  130MOL0     H17509   2.806   1.593  11.857  1.4460 -2.2234 -1.4565
  130MOL0     H17510   3.106   1.913  11.953 -0.1947 -0.5532  0.3573
  130MOL0     H17511   3.169   2.061  11.757 -2.2114  2.6795  2.6166
  130MOL0     H17512   3.213   2.134  11.268 -0.5593  0.4307  0.4472
  130MOL0     H17513   3.228   2.219  11.042  1.0572 -0.6380 -0.2915
  130MOL0     H17514   3.194   2.346  10.810  2.5119 -1.5872 -2.5701
  130MOL0     H17515   3.210   2.167  10.800  2.2842  0.0271  3.5730
  130MOL0     H17516   3.177   2.208  10.576 -0.4030 -0.4415 -2.0743
  130MOL0     H17517   3.006   2.184  10.635  0.2927 -0.6015  0.8254
  130MOL0     H17518   3.008   2.432  10.672 -1.3745 -3.1078  0.0554
  130MOL0     H17519   3.160   2.454  10.588 -1.2253  2.6977 -0.3786
  130MOL0     H17520   2.922   2.330  10.444  1.5897 -1.7171 -0.1527
  130MOL0     H17521   3.080   2.289  10.403 -0.0146  0.1676 -2.9185
  130MOL0     H17522   3.155   2.521  10.368 -0.1841 -4.1513  3.7984
  130MOL0     H17523   3.010   2.581  10.422  1.4116  1.2421  0.0918
  130MOL0     H17524   2.929   2.408  10.203 -0.9107 -0.3110  1.2376
  130MOL0     H17525   2.971   2.575  10.174 -0.3456 -0.2455 -2.1911
  130MOL0     H17526   3.176   2.336  10.177 -0.2102  0.5342  0.4566
  130MOL0     H17527   3.200   2.511  10.140  1.1666 -0.4174 -1.2588
  130MOL0     H17528   3.052   2.513   9.951 -2.3868  0.4146  2.0108
  130MOL0     H17529   3.191   2.414   9.939 -1.1344  1.8330 -0.7116
  130MOL0     H17530   2.806   2.142  10.976  1.4771 -2.6587 -1.2854
  130MOL0     H17531   2.797   2.049  11.203  0.1990 -4.0482 -0.6614
  130MOL0     H17532   2.852   1.885  11.528  1.6008 -3.8246 -0.0913
  130MOL0     H17533   2.785   1.753  11.727 -1.0923  0.3440 -2.8042
  130MOL0     H17534   3.598   1.999  10.551 -0.0708 -1.3748 -0.6040
  130MOL0     H17535   3.614   1.980  10.300 -1.3028 -0.7129  0.5649
  130MOL0     H17536   3.575   1.756   9.901  1.0811  3.4503 -1.3033
  130MOL0     H17537   3.614   1.717   9.666  0.1619 -1.8319 -0.8724
  130MOL0     H17538   3.949   1.825   9.588  0.2504  2.6719 -3.5057
  130MOL0     H17539   3.849   1.806   9.472 -4.0249 -2.4326  2.4487
  130MOL0     H17540   4.089   1.615   9.499  0.9258  2.3163  3.6135
  130MOL0     H17541   4.086   1.745   9.383 -1.1347  0.9984  0.7265
  130MOL0     H17542   3.866   1.617   9.280 -0.1565 -1.1046  0.0130
  130MOL0     H17543   3.931   1.484   9.379  2.1859 -1.1027 -1.4120
  130MOL0     H17544   4.081   1.629   9.166 -1.7852  1.4387  1.1144
  130MOL0     H17545   4.151   1.499   9.263  0.3365  2.3034  0.6915
  130MOL0     H17546   3.885   1.286   8.996  1.1009 -1.2532  0.7117
  130MOL0     H17547   4.010   1.592   9.751 -1.8049  1.5131 -5.1392
  130MOL0     H17548   4.053   1.517  10.009 -0.5806 -0.5602 -2.3698
  130MOL0     H17549   4.065   1.696  10.031  0.0427 -1.0435 -1.1942
  130MOL0     H17550   3.963   1.609  10.133 -2.2322  3.8261  0.2133
  131MOL0     O17551   9.551  10.298   3.014  0.0909  0.2971  0.1011
  131MOL0     C17552   9.473  10.209   3.031 -0.2139  0.2783  0.1499
  131MOL0     O17553   9.489  10.102   3.120  0.0681  0.3348  0.5823
  131MOL0     C17554   9.599  10.107   3.203 -0.0430 -0.1753  0.0530
  131MOL0     C17555   9.599  10.200   3.304  0.2274  0.3860 -0.7208
  131MOL0     C17556   9.707  10.216   3.386 -0.2656  0.2862  0.1005
  131MOL0     C17557   9.816  10.132   3.381 -0.3517  0.4604 -0.0450
  131MOL0     O17558   9.907  10.152   3.488 -0.6955  0.2741  0.3323
  131MOL0     C17559  10.018  10.076   3.486 -0.3309  0.4746  0.0379
  131MOL0     C17560  10.114  10.110   3.597  0.6813 -0.1404  0.4023
  131MOL0     C17561  10.173  10.248   3.581 -0.1941 -0.0831  0.1533
  131MOL0     C17562  10.284  10.273   3.680 -1.1159  0.2865 -0.5853
  131MOL0     C17563  10.365  10.406   3.672 -0.6642  0.4053 -0.0799
  131MOL0     C17564  10.462  10.437   3.789 -0.2010  1.1346  0.2398
  131MOL0     C17565  10.538  10.558   3.758  1.1174  0.2775  0.4176
  131MOL0     C17566  10.634  10.571   3.876  0.1626 -0.1574  0.3515
  131MOL0     N17567  10.716  10.699   3.886 -0.4610  0.8277  0.3230
  131MOL0     C17568  10.712  10.772   4.001 -0.4823 -0.3996 -0.7224
  131MOL0     C17569  10.810  10.858   3.997 -0.2465 -0.5864 -1.8976
  131MOL0     C17570  10.822  10.974   4.088  0.5391  0.3829 -0.0826
  131MOL0     C17571  10.795  10.947   4.236  0.9879 -1.0946 -0.0940
  131MOL0     C17572  10.835  11.067   4.317 -0.0806  0.5408  0.0379
  131MOL0     C17573  10.743  11.189   4.309  0.3470  0.5430  0.2025
  131MOL0     O17574  10.607  11.177   4.351 -0.0764  0.2664  0.1581
  131MOL0     C17575  10.566  11.290   4.407  0.6548 -0.2623 -0.1112
  131MOL0     C17576  10.452  11.273   4.477  0.3434  0.5341  0.5607
  131MOL0     C17577  10.394  11.377   4.551  0.3429 -0.1190  1.3758
  131MOL0     C17578  10.435  11.510   4.527  0.4944 -0.1554 -0.1703
  131MOL0     C17579  10.368  11.626   4.584 -1.1386 -0.2983 -0.4414
  131MOL0     O17580  10.418  11.751   4.547 -0.6463  0.8840  0.1164
  131MOL0     C17581  10.415  11.858   4.633  0.4229 -0.1649  0.1222
  131MOL0     C17582  10.452  11.984   4.569 -0.1475  0.7324  0.4455
  131MOL0     C17583  10.474  12.096   4.634  0.0021  0.2785  0.7713
  131MOL0     C17584  10.426  12.102   4.764  0.1914  0.1132  0.3122
  131MOL0     O17585  10.396  12.218   4.832  0.3936  0.8326  0.2418
  131MOL0     C17586  10.402  12.354   4.775 -0.0365  0.3383  0.1054
  131MOL0     C17587  10.262  12.415   4.753  0.4159  0.7217  0.1793
  131MOL0     C17588  10.219  12.403   4.604 -0.7998 -0.3668  0.4143
  131MOL0     C17589  10.082  12.464   4.573 -0.3509 -1.1106 -0.0243
  131MOL0     C17590  10.034  12.451   4.427 -0.5879 -0.1037  0.3513
  131MOL0     C17591  10.138  12.503   4.324 -1.1146  0.7098 -0.2805
  131MOL0     C17592  10.088  12.482   4.185 -0.2820  0.6469 -1.2299
  131MOL0     C17593  10.194  12.509   4.078  0.3474 -0.9779 -0.4751
  131MOL0    Cl17594  10.259  12.673   4.104  0.2114  0.4502  0.6394
  131MOL0     C17595  10.385  11.984   4.830  0.0623  0.1392 -0.0319
  131MOL0     C17596  10.392  11.863   4.770 -0.1689  0.8654  0.0354
  131MOL0     O17597  10.280  11.604   4.666  1.3366  0.2214 -0.3813
  131MOL0     C17598  10.536  11.534   4.419  0.1069  0.4427  0.0580
  131MOL0     C17599  10.599  11.424   4.363  0.2267 -0.6854  1.1244
  131MOL0     N17600  10.893  10.819   3.895 -0.5178  0.1105 -0.1302
  131MOL0     N17601  10.838  10.727   3.830 -0.3017  0.6806 -0.1343
  131MOL0     C17602   9.824  10.035   3.274 -0.4736  0.3991 -0.5092
  131MOL0     C17603   9.710  10.029   3.188  0.8176  0.6785  0.9567
  131MOL0     C17604   9.340  10.204   2.961  0.4083  0.1961 -1.2688
  131MOL0     C17605   9.241  10.112   3.009  0.5009  0.4369  0.2499
  131MOL0     C17606   9.108  10.108   2.960  0.6416 -0.3610 -0.0745
  131MOL0     C17607   9.077  10.199   2.856 -0.3941 -0.0217  0.5076
  131MOL0     O17608   8.949  10.212   2.805  0.0360 -0.1317 -0.6742
  131MOL0     C17609   8.832  10.234   2.891  0.3104 -1.1875 -0.6824
  131MOL0     C17610   8.838  10.366   2.968  0.3859 -0.0362 -0.3501
  131MOL0     C17611   8.930  10.368   3.089  0.1422  0.0244 -0.3695
  131MOL0     C17612   8.917  10.485   3.185 -0.3426 -0.1065  0.4102
  131MOL0     C17613   8.944  10.446   3.319  0.0243  1.0166 -0.6117
  131MOL0     C17614   8.978  10.406   3.429  0.1398  0.5158 -0.3360
  131MOL0     C17615   9.175  10.284   2.809 -0.0851  0.5148  0.7125
  131MOL0     C17616   9.305  10.288   2.849  0.0943 -0.2585 -0.9446
  131MOL0     C17617   9.406  10.373   2.768  0.1265 -1.2355 -0.2844
  131MOL0     H17618   9.516  10.269   3.319  0.7860  1.0827 -0.7521
  131MOL0     H17619   9.699  10.295   3.460  1.4723 -0.7482  1.4752
  131MOL0     H17620   9.994   9.971   3.506 -0.4033  0.7616  1.5919
  131MOL0     H17621  10.070  10.087   3.391 -2.0324 -0.5790 -1.0862
  131MOL0     H17622  10.197  10.040   3.609  0.4799  0.0819  5.0885
  131MOL0     H17623  10.054  10.110   3.688 -0.7808 -1.0253 -0.5408
  131MOL0     H17624  10.090  10.317   3.597 -1.4827 -1.6747  0.6432
  131MOL0     H17625  10.202  10.261   3.476 -4.6385  2.1001 -1.0136
  131MOL0     H17626  10.230  10.270   3.775 -0.8551 -2.6097 -0.4337
  131MOL0     H17627  10.362  10.196   3.680  0.9126  2.2413 -1.1614
  131MOL0     H17628  10.421  10.399   3.578  0.0732  0.1864  0.3697
  131MOL0     H17629  10.294  10.488   3.659 -1.6393 -0.2507  0.8682
  131MOL0     H17630  10.413  10.450   3.886 -2.0074 -1.2173 -0.2886
  131MOL0     H17631  10.531  10.353   3.802 -1.0344  0.6587  1.6846
  131MOL0     H17632  10.476  10.647   3.747 -1.1071 -0.9133  2.4023
  131MOL0     H17633  10.611  10.552   3.677  2.4822 -3.0491  1.7187
  131MOL0     H17634  10.589  10.563   3.976 -0.1259 -2.3839  0.0966
  131MOL0     H17635  10.697  10.482   3.868 -1.4938 -1.4636  1.2156
  131MOL0     H17636  10.625  10.758   4.065 -1.3503  0.9825 -1.5516
  131MOL0     H17637  10.927  11.004   4.080  1.3909 -2.1670  0.6155
  131MOL0     H17638  10.745  11.047   4.062  1.0399  0.9964  0.1266
  131MOL0     H17639  10.686  10.935   4.241  0.6579  0.2534 -2.3082
  131MOL0     H17640  10.844  10.859   4.278  0.6333 -0.3692  1.9618
  131MOL0     H17641  10.940  11.091   4.295 -0.5626  0.7367 -2.2655
  131MOL0     H17642  10.820  11.038   4.422 -2.5938  0.4951 -0.2662
  131MOL0     H17643  10.734  11.217   4.203 -2.1349  0.7693  0.4224
  131MOL0     H17644  10.805  11.264   4.360  2.9193 -0.6423 -0.9667
  131MOL0     H17645  10.426  11.170   4.496  1.6812  0.6986  4.0627
  131MOL0     H17646  10.312  11.356   4.619 -0.8742 -0.8015 -0.2443
  131MOL0     H17647  10.476  11.977   4.463 -4.6517  0.8791 -0.8075
  131MOL0     H17648  10.529  12.173   4.580  0.1140  1.4243  2.4483
  131MOL0     H17649  10.449  12.425   4.844  3.5123 -0.9570 -0.7102
  131MOL0     H17650  10.463  12.366   4.685 -1.3508 -1.1715 -1.0311
  131MOL0     H17651  10.197  12.356   4.818 -0.5678 -1.3926 -2.5244
  131MOL0     H17652  10.273  12.520   4.782 -2.2457  1.6850 -1.7973
  131MOL0     H17653  10.299  12.449   4.546  0.9710 -1.5863  1.7650
  131MOL0     H17654  10.211  12.296   4.581 -2.8339  0.2613 -2.2051
  131MOL0     H17655  10.083  12.571   4.599 -1.7415 -0.9315 -0.6022
  131MOL0     H17656  10.007  12.427   4.643 -2.2181  2.4314  0.1069
  131MOL0     H17657   9.949  12.518   4.414 -0.9997 -0.6560  0.1655
  131MOL0     H17658  10.003  12.350   4.400 -1.2407 -0.0049  0.7195
  131MOL0     H17659  10.172  12.603   4.351 -2.9966  2.0690 -2.5490
  131MOL0     H17660  10.217  12.429   4.341 -3.4390 -1.7068  0.8038
  131MOL0     H17661  10.000  12.545   4.168 -1.8353 -1.1739 -0.3835
  131MOL0     H17662  10.055  12.378   4.176  1.0391  0.1707 -0.7576
  131MOL0     H17663  10.286  12.450   4.079  1.8062  1.2082 -0.8716
  131MOL0     H17664  10.156  12.494   3.976 -1.9445  1.7290 -0.1570
  131MOL0     H17665  10.352  11.981   4.933 -1.4471  1.8404 -0.4276
  131MOL0     H17666  10.366  11.770   4.819  4.9325  0.1930  2.1707
  131MOL0     H17667  10.577  11.632   4.396  4.4127 -1.5306 -1.6890
  131MOL0     H17668  10.668  11.444   4.281 -2.3078  0.6352 -0.8617
  131MOL0     H17669   9.892   9.951   3.264 -0.0748  0.5572  0.6927
  131MOL0     H17670   9.703   9.951   3.112  0.7348  1.0573  0.5734
  131MOL0     H17671   9.258  10.035   3.083  1.6700 -1.4609 -1.8620
  131MOL0     H17672   9.033  10.051   3.014 -1.1616  1.2709 -0.7240
  131MOL0     H17673   8.818  10.152   2.962  0.1637 -0.0626  0.6319
  131MOL0     H17674   8.741  10.241   2.830 -0.5305 -5.1788 -0.1378
  131MOL0     H17675   8.738  10.401   2.997  1.6686  1.2633  3.0818
  131MOL0     H17676   8.880  10.445   2.905  1.2829  0.6421  1.0320
  131MOL0     H17677   9.036  10.364   3.062  0.1028  0.2776 -0.5742
  131MOL0     H17678   8.913  10.271   3.136 -2.9802 -1.1780 -3.5050
  131MOL0     H17679   8.999  10.551   3.157  1.0781 -2.4796 -1.4083
  131MOL0     H17680   8.817  10.530   3.174  0.3137  0.8722 -2.4829
  131MOL0     H17681   9.033  10.357   3.507  1.7181  3.5606  0.6645
  131MOL0     H17682   9.133  10.350   2.733 -1.8675 -0.8573  0.4272
  131MOL0     H17683   9.510  10.346   2.783 -0.0252 -1.8837 -0.3564
  131MOL0     H17684   9.387  10.374   2.661  4.2338 -0.5787 -1.1434
  131MOL0     H17685   9.405  10.478   2.798  3.6970 -0.7165 -1.6209
  132MOL0     O17686   1.594   2.702   0.837 -0.5895 -0.7901  0.1372
  132MOL0     C17687   1.584   2.629   0.929 -0.0831  0.5300 -0.9680
  132MOL0     O17688   1.679   2.539   0.974 -0.0581  0.2407  0.1530
  132MOL0     C17689   1.807   2.535   0.924 -0.2565  0.9181  0.1956
  132MOL0     C17690   1.878   2.619   0.834  0.3447 -0.2000 -0.2080
  132MOL0     C17691   2.015   2.597   0.804  0.8617 -0.2721 -0.5397
  132MOL0     C17692   2.083   2.486   0.858  1.7791  0.4374 -0.2193
  132MOL0     O17693   2.218   2.480   0.867  0.0166 -0.7466  0.6309
  132MOL0     C17694   2.297   2.544   0.757  0.9942 -0.2711 -0.9961
  132MOL0     C17695   2.442   2.488   0.762  0.1398  0.3179 -1.0847
  132MOL0     C17696   2.504   2.519   0.893  0.4930  0.4659 -0.2679
  132MOL0     C17697   2.655   2.480   0.910  0.0466 -0.2443  0.7506
  132MOL0     C17698   2.711   2.547   1.035 -0.5960 -0.0232 -0.4239
  132MOL0     C17699   2.850   2.494   1.071 -0.5678  0.5812  0.2249
  132MOL0     C17700   2.949   2.532   0.968 -0.7308 -0.8617  0.2332
  132MOL0     C17701   3.089   2.523   1.021 -0.8038  0.5250 -0.0979
  132MOL0     N17702   3.192   2.575   0.929 -0.6661  0.1876  0.0219
  132MOL0     C17703   3.205   2.549   0.792  1.1480  0.3231 -0.1453
  132MOL0     C17704   3.297   2.632   0.746  0.2845  0.4485  0.6233
  132MOL0     C17705   3.351   2.628   0.608  1.0867  0.2567 -0.5581
  132MOL0     C17706   3.495   2.649   0.595  1.3985 -0.6172  1.2999
  132MOL0     C17707   3.593   2.540   0.649 -0.2239 -0.4692 -0.5995
  132MOL0     C17708   3.744   2.549   0.606  0.0820 -0.2029 -0.3046
  132MOL0     O17709   3.828   2.449   0.669 -0.6276 -0.0626  0.7445
  132MOL0     C17710   3.863   2.335   0.593 -0.1953  0.2982 -0.9304
  132MOL0     C17711   3.928   2.230   0.661 -0.6455  0.2503  0.0409
  132MOL0     C17712   3.985   2.116   0.597  0.7578 -0.5164 -0.6531
  132MOL0     C17713   3.990   2.109   0.458 -0.3472  0.0917 -0.4100
  132MOL0     C17714   4.050   1.990   0.396  0.3410  0.2388  0.5898
  132MOL0     O17715   4.100   1.891   0.474 -0.1615 -1.0001  0.4505
  132MOL0     C17716   4.137   1.766   0.417 -0.1867 -0.2733  0.1949
  132MOL0     C17717   4.228   1.762   0.310  0.1950  0.5224 -0.1824
  132MOL0     C17718   4.253   1.645   0.238 -0.2977 -1.2016 -1.7457
  132MOL0     C17719   4.201   1.527   0.283  0.4161  0.3448  0.5106
  132MOL0     O17720   4.249   1.401   0.243 -0.0896 -0.1144 -0.1153
  132MOL0     C17721   4.212   1.357   0.117 -0.1477  0.1946 -0.2674
  132MOL0     C17722   4.262   1.212   0.103 -0.3533 -0.1191  0.2088
  132MOL0     C17723   4.242   1.157  -0.043 -0.3137  0.9571  1.0763
  132MOL0     C17724   4.255   1.007  -0.033  0.0449 -0.2564 -0.3447
  132MOL0     C17725   4.250   0.942  -0.173  0.6004 -0.0568  0.0044
  132MOL0     C17726   4.288   0.793  -0.190 -0.4704 -0.0459  1.6151
  132MOL0     C17727   4.255   0.731  -0.330  0.1720 -0.1658  0.2761
  132MOL0     C17728   4.201   0.585  -0.310 -0.5230 -0.8918  0.5603
  132MOL0    Cl17729   4.291   0.490  -0.198 -0.0475  0.6661  0.1849
  132MOL0     C17730   4.129   1.525   0.403  0.2107 -0.8952 -0.2211
  132MOL0     C17731   4.095   1.647   0.470  0.2684 -0.4900 -0.0256
  132MOL0     O17732   4.043   1.979   0.268  0.4818  0.1407 -0.7568
  132MOL0     C17733   3.907   2.196   0.393 -0.5845  0.0124  0.2836
  132MOL0     C17734   3.857   2.313   0.454  0.0056  0.3512 -0.9250
  132MOL0     N17735   3.354   2.687   0.855  0.3583 -0.0989 -0.5620
  132MOL0     N17736   3.288   2.663   0.967 -0.1557 -0.7999  0.6313
  132MOL0     C17737   2.009   2.394   0.931  0.5342  0.1977  0.7380
  132MOL0     C17738   1.876   2.420   0.975  0.4302 -0.6694  0.8500
  132MOL0     C17739   1.458   2.625   1.013  0.3884 -0.2486 -0.0322
  132MOL0     C17740   1.449   2.541   1.125 -0.1682  0.7362 -1.5980
  132MOL0     C17741   1.331   2.526   1.205 -0.0461  0.0010  0.4879
  132MOL0     C17742   1.219   2.601   1.171  0.4935  0.3621 -0.1542
  132MOL0     O17743   1.101   2.608   1.240 -0.2680  0.2463  0.4989
  132MOL0     C17744   1.090   2.576   1.382  0.0048 -0.0087  0.8888
  132MOL0     C17745   0.961   2.640   1.435  0.9430 -0.2268  0.0548
  132MOL0     C17746   0.974   2.786   1.470 -0.2475  0.2331 -0.8424
  132MOL0     C17747   1.063   2.878   1.380  0.3041  1.0213  1.0239
  132MOL0     C17748   1.049   3.017   1.430 -0.6059  0.2022 -0.0965
  132MOL0     C17749   1.038   3.127   1.483 -0.4002  0.2915 -0.7188
  132MOL0     C17750   1.233   2.693   1.059  0.0363  0.0023  0.6823
  132MOL0     C17751   1.345   2.706   0.980 -0.3332  0.4770 -0.4170
  132MOL0     C17752   1.323   2.786   0.853 -0.7288 -1.2896 -0.6257
  132MOL0     H17753   1.840   2.708   0.786  0.8876 -0.7491 -1.7008
  132MOL0     H17754   2.076   2.674   0.758 -0.6210  1.4857  0.3079
  132MOL0     H17755   2.253   2.527   0.658 -1.3913 -1.3269  0.1515
  132MOL0     H17756   2.289   2.651   0.774 -0.7818 -0.6736  1.2694
  132MOL0     H17757   2.496   2.525   0.674  1.1667  0.9850 -0.2056
  132MOL0     H17758   2.438   2.379   0.756  1.5790  0.2143 -0.5136
  132MOL0     H17759   2.441   2.470   0.968 -3.4709  1.0821 -2.9074
  132MOL0     H17760   2.501   2.628   0.905  3.3172  0.4896  1.1990
  132MOL0     H17761   2.661   2.370   0.915  2.8062 -0.1733  0.7705
  132MOL0     H17762   2.704   2.508   0.817  0.1445  0.7588  1.0999
  132MOL0     H17763   2.714   2.655   1.018 -0.8764  0.1737  0.7222
  132MOL0     H17764   2.641   2.534   1.118  0.6521 -0.4962  0.5814
  132MOL0     H17765   2.885   2.504   1.174 -0.5761 -0.8900  0.4053
  132MOL0     H17766   2.843   2.384   1.071 -0.0269  0.5089  1.8733
  132MOL0     H17767   2.934   2.636   0.937  0.1947 -1.0348 -0.8118
  132MOL0     H17768   2.933   2.467   0.882 -2.7101 -1.5125  1.0206
  132MOL0     H17769   3.090   2.589   1.108 -2.5102 -0.3638  0.6497
  132MOL0     H17770   3.106   2.420   1.054  1.0761  0.0704 -2.2428
  132MOL0     H17771   3.157   2.475   0.729 -1.1156  0.8906  0.8137
  132MOL0     H17772   3.333   2.530   0.561 -1.4745 -1.0733  2.7893
  132MOL0     H17773   3.294   2.707   0.559  0.2277  0.1034  0.1742
  132MOL0     H17774   3.516   2.653   0.488 -1.1368 -0.7701  0.7269
  132MOL0     H17775   3.525   2.742   0.645  2.1143  0.6684 -1.3832
  132MOL0     H17776   3.552   2.441   0.625 -2.2342  0.5393 -1.6181
  132MOL0     H17777   3.582   2.555   0.757 -2.7961 -1.3657 -0.6652
  132MOL0     H17778   3.787   2.648   0.618  1.9144 -0.9507 -0.3709
  132MOL0     H17779   3.750   2.536   0.498  2.0649 -0.6596 -0.1711
  132MOL0     H17780   3.930   2.244   0.768  1.0646  0.3647  0.0272
  132MOL0     H17781   4.038   2.050   0.666  0.3641  2.2830  2.5829
  132MOL0     H17782   4.279   1.857   0.297  0.5416  0.5264  1.0963
  132MOL0     H17783   4.334   1.652   0.167  0.4330 -0.0470 -0.8199
  132MOL0     H17784   4.105   1.368   0.099 -0.0669 -1.3477 -1.9962
  132MOL0     H17785   4.249   1.424   0.039 -0.2647 -1.8591 -2.1729
  132MOL0     H17786   4.370   1.211   0.115 -0.2184  0.3693 -0.8310
  132MOL0     H17787   4.220   1.147   0.180 -0.6104 -2.1910 -1.5824
  132MOL0     H17788   4.149   1.192  -0.089 -0.3604  2.2827  2.1140
  132MOL0     H17789   4.320   1.197  -0.108 -1.6635 -0.6127 -1.7156
  132MOL0     H17790   4.173   0.974   0.031  0.3716  0.8780  0.6949
  132MOL0     H17791   4.349   0.982   0.015 -0.4054  1.5001  1.5968
  132MOL0     H17792   4.325   0.997  -0.230  0.2461  0.7801  0.3344
  132MOL0     H17793   4.151   0.961  -0.216  0.8011 -1.2583 -1.0582
  132MOL0     H17794   4.394   0.770  -0.178 -0.7170 -2.0106  0.4796
  132MOL0     H17795   4.241   0.733  -0.111 -3.0008 -1.2546 -0.6370
  132MOL0     H17796   4.344   0.745  -0.391 -0.6356  1.7518 -0.5403
  132MOL0     H17797   4.190   0.798  -0.386 -2.5227 -2.2876  0.6224
  132MOL0     H17798   4.103   0.593  -0.261  0.2159 -2.1834  2.3526
  132MOL0     H17799   4.190   0.538  -0.408 -0.1646  2.1416 -1.0407
  132MOL0     H17800   4.101   1.433   0.453 -1.4952  1.3652  3.4448
  132MOL0     H17801   4.043   1.653   0.565  0.4812  0.0184  0.0608
  132MOL0     H17802   3.892   2.195   0.286  2.0673  2.5097 -0.2394
  132MOL0     H17803   3.803   2.384   0.393 -2.8208 -0.7756  0.0927
  132MOL0     H17804   2.066   2.309   0.968 -1.4875 -1.2193  0.7769
  132MOL0     H17805   1.831   2.359   1.054  1.5465 -0.9690  1.2805
  132MOL0     H17806   1.539   2.485   1.148 -0.7933 -0.4131 -1.8275
  132MOL0     H17807   1.336   2.464   1.293  1.8493 -0.5965 -0.0117
  132MOL0     H17808   1.180   2.605   1.437  1.4378  0.1071 -1.4239
  132MOL0     H17809   1.069   2.469   1.389 -3.5436  0.5110  0.1417
  132MOL0     H17810   0.928   2.575   1.516 -1.4233 -0.6000 -1.1225
  132MOL0     H17811   0.885   2.629   1.358  0.2694 -1.4169  0.8658
  132MOL0     H17812   1.010   2.798   1.573 -6.3596 -0.4235  1.7926
  132MOL0     H17813   0.869   2.817   1.474 -0.1029  0.9362  4.3900
  132MOL0     H17814   1.168   2.849   1.376  1.2994  4.3144 -2.5325
  132MOL0     H17815   1.041   2.873   1.273  3.3055 -1.7599  0.3668
  132MOL0     H17816   1.040   3.219   1.538  0.7550 -0.7756  1.1292
  132MOL0     H17817   1.137   2.733   1.028  0.5312 -1.3988 -3.2053
  132MOL0     H17818   1.346   2.725   0.765  1.0753  0.6315 -1.5666
  132MOL0     H17819   1.221   2.825   0.856  0.4723  2.5106  4.2270
  132MOL0     H17820   1.387   2.873   0.837 -1.8957  0.0142  1.4041
  133MOL0     O17821   9.554   8.228   4.809  0.8784 -0.0523 -0.8560
  133MOL0     C17822   9.555   8.280   4.922 -0.4275  1.4677 -0.2906
  133MOL0     O17823   9.504   8.224   5.036 -0.3937  0.0168 -0.7453
  133MOL0     C17824   9.394   8.144   5.020 -0.7738 -1.0436 -0.6863
  133MOL0     C17825   9.271   8.206   5.013  0.3206  0.3110  0.6676
  133MOL0     C17826   9.158   8.123   4.998  0.0163  0.2899  0.7042
  133MOL0     C17827   9.169   7.988   4.958 -0.0750 -0.2956 -0.0048
  133MOL0     O17828   9.050   7.924   4.930 -0.1065  0.5582  0.3502
  133MOL0     C17829   9.058   7.786   4.893 -0.1419 -0.6979  0.5720
  133MOL0     C17830   8.923   7.717   4.859  0.4712  0.4296  0.5244
  133MOL0     C17831   8.947   7.577   4.789  0.1817  0.3563 -0.1344
  133MOL0     C17832   8.840   7.475   4.832  0.5046  0.1609  0.7745
  133MOL0     C17833   8.707   7.513   4.765 -1.0026  0.4379 -0.6257
  133MOL0     C17834   8.626   7.384   4.732 -0.1924 -0.8264  0.3401
  133MOL0     C17835   8.553   7.336   4.866 -0.0635 -0.9277 -0.4090
  133MOL0     C17836   8.494   7.199   4.829 -0.0685  0.5977  0.4981
  133MOL0     N17837   8.413   7.133   4.940  0.3581 -1.0713  0.5042
  133MOL0     C17838   8.283   7.097   4.950  0.3465  0.3401  0.0415
  133MOL0     C17839   8.276   7.012   5.058 -1.4003  0.6455 -0.0720
  133MOL0     C17840   8.149   6.940   5.103 -0.1273  0.0934 -0.2970
  133MOL0     C17841   8.188   6.847   5.224  0.7742  0.0945 -0.2461
  133MOL0     C17842   8.245   6.706   5.176  0.8367 -0.1427 -0.1426
  133MOL0     C17843   8.291   6.627   5.301  0.5117  0.4876 -0.4126
  133MOL0     O17844   8.171   6.588   5.377 -1.1443  0.4927  0.3239
  133MOL0     C17845   8.144   6.643   5.500  0.0297  0.0809 -0.6721
  133MOL0     C17846   8.248   6.680   5.588  0.0160 -0.2674  0.1977
  133MOL0     C17847   8.208   6.741   5.712  1.3218  0.7492  0.0584
  133MOL0     C17848   8.069   6.743   5.750 -0.1531 -0.8133 -0.3551
  133MOL0     C17849   8.025   6.804   5.884  0.2490 -0.0283 -0.2243
  133MOL0     O17850   8.122   6.861   5.959 -0.2733  0.9170 -0.0478
  133MOL0     C17851   8.104   6.893   6.086  0.8767  0.5655  0.5522
  133MOL0     C17852   8.213   6.880   6.179 -0.0635 -1.0496 -0.5973
  133MOL0     C17853   8.212   6.918   6.311  0.1340 -0.6246  0.2673
  133MOL0     C17854   8.095   6.978   6.358 -0.7161 -0.5394 -0.1766
  133MOL0     O17855   8.072   7.006   6.486  0.4389 -0.4280  0.0674
  133MOL0     C17856   8.175   7.073   6.564 -0.0503 -0.8216  0.6523
  133MOL0     C17857   8.106   7.204   6.617  0.2625 -0.0625 -0.5337
  133MOL0     C17858   8.219   7.279   6.683 -0.1550 -0.1281 -0.4137
  133MOL0     C17859   8.178   7.428   6.710  0.7168  0.5918  0.0250
  133MOL0     C17860   8.259   7.490   6.829 -0.1218 -0.8970 -1.4081
  133MOL0     C17861   8.414   7.475   6.820  0.2472 -0.6316  0.7241
  133MOL0     C17862   8.487   7.580   6.907 -0.1111 -0.3015  0.4952
  133MOL0     C17863   8.638   7.574   6.898 -0.1300  0.1028 -0.0903
  133MOL0    Cl17864   8.698   7.658   7.044  0.7227  0.5487  0.2667
  133MOL0     C17865   7.997   7.002   6.268  0.2931 -0.3974 -0.0487
  133MOL0     C17866   7.993   6.956   6.137  0.9987 -0.8709  0.4791
  133MOL0     O17867   7.905   6.803   5.916  0.2058  0.1316  0.3207
  133MOL0     C17868   7.973   6.716   5.655 -0.2566  0.5718 -0.7085
  133MOL0     C17869   8.011   6.655   5.532  0.8567 -0.1290  0.9416
  133MOL0     N17870   8.412   6.988   5.092  0.1432  0.8987  0.2674
  133MOL0     N17871   8.485   7.062   5.027  0.0379 -0.4487  0.8747
  133MOL0     C17872   9.297   7.925   4.963  0.1157 -1.4071  1.2888
  133MOL0     C17873   9.409   8.009   4.995 -0.7418  0.0953  0.0494
  133MOL0     C17874   9.648   8.391   4.938  0.0769  0.0164 -0.3657
  133MOL0     C17875   9.721   8.415   5.067  0.4567 -0.3647  0.1545
  133MOL0     C17876   9.789   8.526   5.086 -0.1315 -0.1161  1.6371
  133MOL0     C17877   9.805   8.619   4.989 -0.4603  0.2614 -0.6091
  133MOL0     O17878   9.883   8.724   5.036  0.0023 -0.6299 -0.1519
  133MOL0     C17879   9.978   8.789   4.951  0.4838 -1.5089 -0.1782
  133MOL0     C17880  10.011   8.916   5.009 -0.1975  0.6140 -0.3843
  133MOL0     C17881  10.154   8.966   4.954  0.2173  0.8924 -0.3274
  133MOL0     C17882  10.127   9.089   4.863  0.4811 -0.1190 -0.2607
  133MOL0     C17883  10.086   9.212   4.940 -0.5730 -0.3441  0.1229
  133MOL0     C17884  10.049   9.300   5.024  0.8704 -0.1746  0.1867
  133MOL0     C17885   9.739   8.604   4.870 -0.5136  1.0415  0.5101
  133MOL0     C17886   9.660   8.488   4.833  0.9940  0.6850  0.0223
  133MOL0     C17887   9.600   8.483   4.697  0.6989  0.1541  0.8329
  133MOL0     H17888   9.267   8.314   5.023  2.3583  1.1284 -4.2723
  133MOL0     H17889   9.058   8.161   5.018 -0.4127 -2.1200  4.1044
  133MOL0     H17890   9.122   7.785   4.804  2.2403 -0.2432  2.2083
  133MOL0     H17891   9.120   7.728   4.961  0.7563 -1.2525 -0.6684
  133MOL0     H17892   8.876   7.787   4.790 -1.5054 -2.4567 -1.3303
  133MOL0     H17893   8.863   7.706   4.950  1.6721  1.3204  1.4345
  133MOL0     H17894   9.045   7.528   4.798 -0.2217 -0.4819 -0.2015
  133MOL0     H17895   8.935   7.604   4.684 -0.0068  2.7433  0.4537
  133MOL0     H17896   8.877   7.373   4.821  1.6969  0.7879 -2.1053
  133MOL0     H17897   8.823   7.480   4.940 -0.2597 -0.6201  0.6971
  133MOL0     H17898   8.654   7.589   4.823  0.3528  2.3763 -1.8349
  133MOL0     H17899   8.728   7.565   4.671  2.4822  0.3345 -0.0624
  133MOL0     H17900   8.550   7.408   4.656 -1.2202 -2.2405  0.8851
  133MOL0     H17901   8.688   7.300   4.700 -0.6193 -0.3751 -1.9126
  133MOL0     H17902   8.471   7.405   4.886 -1.4332 -2.1480 -1.6296
  133MOL0     H17903   8.622   7.324   4.950 -0.3491  1.1973  0.1941
  133MOL0     H17904   8.433   7.203   4.738  2.3038 -1.9329 -1.3340
  133MOL0     H17905   8.577   7.133   4.804 -1.9119 -1.1409 -1.4823
  133MOL0     H17906   8.195   7.127   4.893 -1.3920 -1.6515  1.5239
  133MOL0     H17907   8.073   7.012   5.133 -2.5471 -2.6333  0.5139
  133MOL0     H17908   8.111   6.889   5.015  2.7731  2.5457 -3.2263
  133MOL0     H17909   8.259   6.891   5.295  1.2329  0.3996 -0.8943
  133MOL0     H17910   8.096   6.816   5.276  0.2096  1.0085 -0.6699
  133MOL0     H17911   8.323   6.718   5.100  0.9493 -0.0885 -0.0208
  133MOL0     H17912   8.161   6.647   5.140  2.5413 -1.0861 -2.9121
  133MOL0     H17913   8.366   6.681   5.359 -0.1685  0.5869  0.3981
  133MOL0     H17914   8.337   6.533   5.273 -0.9415 -0.3421 -0.1228
  133MOL0     H17915   8.351   6.666   5.556  1.3968  2.1481  3.1078
  133MOL0     H17916   8.274   6.789   5.783 -0.9604  3.3601  0.5679
  133MOL0     H17917   8.310   6.844   6.144 -0.0783  0.1385 -1.9584
  133MOL0     H17918   8.299   6.893   6.371  0.2028 -3.2952 -0.8141
  133MOL0     H17919   8.201   7.006   6.647  1.4989 -0.2956  0.6321
  133MOL0     H17920   8.263   7.095   6.503 -2.0277  1.4151 -1.6183
  133MOL0     H17921   8.075   7.266   6.532  0.7294 -2.0474 -2.2514
  133MOL0     H17922   8.022   7.193   6.687  2.2488 -1.2351  1.8107
  133MOL0     H17923   8.243   7.220   6.772 -1.5118 -0.3970 -0.2051
  133MOL0     H17924   8.317   7.272   6.633 -0.3558 -0.0621 -0.8200
  133MOL0     H17925   8.070   7.426   6.728 -0.3364 -5.4978 -3.8943
  133MOL0     H17926   8.191   7.475   6.612 -0.1610 -0.4427 -0.6139
  133MOL0     H17927   8.236   7.444   6.925  6.3205  3.6601  3.1344
  133MOL0     H17928   8.238   7.597   6.840  1.5029 -0.7723  1.1686
  133MOL0     H17929   8.442   7.374   6.850  5.0983 -0.4016 -2.0318
  133MOL0     H17930   8.447   7.486   6.716 -2.4545 -0.2908 -0.1618
  133MOL0     H17931   8.458   7.564   7.011  1.0410  1.9093  1.2004
  133MOL0     H17932   8.446   7.680   6.890  2.5745  1.5653  3.7912
  133MOL0     H17933   8.677   7.472   6.895  0.1229 -0.0188  3.3252
  133MOL0     H17934   8.674   7.638   6.816 -1.1080 -0.1572 -0.7319
  133MOL0     H17935   7.912   7.054   6.311  2.0550  0.4564  2.6979
  133MOL0     H17936   7.908   6.976   6.073  2.2956 -3.4486 -2.2809
  133MOL0     H17937   7.867   6.723   5.676 -0.0736 -1.9752  1.4131
  133MOL0     H17938   7.935   6.610   5.469  0.2348 -3.1597  3.5708
  133MOL0     H17939   9.318   7.823   4.931  0.3707 -0.8076 -0.5741
  133MOL0     H17940   9.509   7.967   4.993 -1.0115 -0.5461 -2.3838
  133MOL0     H17941   9.726   8.333   5.139  0.0731 -2.4114 -2.0157
  133MOL0     H17942   9.846   8.542   5.177  0.4330  2.3572  0.9250
  133MOL0     H17943   9.934   8.804   4.852 -5.5034  4.9987  2.6084
  133MOL0     H17944  10.056   8.713   4.947  0.1119 -2.0326  1.5108
  133MOL0     H17945   9.999   8.903   5.117 -4.5687  0.7394 -0.6918
  133MOL0     H17946   9.925   8.980   4.988 -1.5142 -1.6531 -2.4503
  133MOL0     H17947  10.211   8.881   4.917  0.5230  0.4345  1.1238
  133MOL0     H17948  10.213   8.993   5.043 -1.0112  0.0356  0.7877
  133MOL0     H17949  10.211   9.112   4.796 -0.4740  0.1598 -1.4072
  133MOL0     H17950  10.052   9.065   4.788 -0.2382 -0.7905  0.6546
  133MOL0     H17951  10.018   9.373   5.096  0.3076  0.3363 -0.5702
  133MOL0     H17952   9.740   8.687   4.801 -1.1890 -1.0983 -2.2401
  133MOL0     H17953   9.491   8.499   4.696  0.2933 -2.2644  1.2619
  133MOL0     H17954   9.649   8.556   4.632  0.5859 -3.1602 -3.3806
  133MOL0     H17955   9.634   8.384   4.667  3.4653 -0.1850  4.4096
  134MOL0     O17956   5.674   1.878   2.686  0.6965  0.4192 -0.3018
  134MOL0     C17957   5.629   1.903   2.577 -0.5408 -0.4653 -0.0123
  134MOL0     O17958   5.616   2.036   2.513 -0.3733  0.1752 -0.4287
  134MOL0     C17959   5.644   2.151   2.588  0.5080  0.6098  0.3058
  134MOL0     C17960   5.705   2.174   2.713  0.1180  0.4865 -0.4027
  134MOL0     C17961   5.710   2.301   2.768  0.1259  0.3398  0.6293
  134MOL0     C17962   5.660   2.412   2.694 -0.1113  0.3266  0.1945
  134MOL0     O17963   5.659   2.543   2.745  0.1647  0.1552 -0.2057
  134MOL0     C17964   5.725   2.557   2.875  0.2875  0.2311  0.3089
  134MOL0     C17965   5.719   2.699   2.930 -0.4999  0.6467 -0.1819
  134MOL0     C17966   5.773   2.793   2.830  0.2348 -0.3709 -0.0024
  134MOL0     C17967   5.817   2.926   2.897 -0.7469 -0.7733 -0.5400
  134MOL0     C17968   5.904   3.020   2.814 -0.1760  1.0548  0.4967
  134MOL0     C17969   5.963   3.131   2.906  0.6447  0.2174  0.8647
  134MOL0     C17970   6.051   3.233   2.836 -1.2015  1.2182  0.3091
  134MOL0     C17971   6.096   3.345   2.931 -0.0217  0.0504  0.1573
  134MOL0     N17972   5.994   3.440   2.966  0.9956 -0.1273 -0.2963
  134MOL0     C17973   5.964   3.555   2.897 -0.0426 -0.3884  1.5661
  134MOL0     C17974   5.851   3.600   2.958  0.6259  0.3594 -1.0077
  134MOL0     C17975   5.781   3.723   2.925  0.1619  1.0748 -1.3686
  134MOL0     C17976   5.641   3.702   2.920  0.7739 -0.1344 -0.1172
  134MOL0     C17977   5.561   3.825   2.884  0.4717 -0.3972 -0.6513
  134MOL0     C17978   5.579   3.877   2.740  0.2921 -0.4636 -0.0165
  134MOL0     O17979   5.503   3.992   2.705  0.9251 -0.5926  0.9296
  134MOL0     C17980   5.540   4.115   2.756  0.6678 -0.4353 -0.2832
  134MOL0     C17981   5.462   4.231   2.725 -0.0685  0.3182 -0.0911
  134MOL0     C17982   5.496   4.364   2.746 -0.3559  0.5578  1.2140
  134MOL0     C17983   5.616   4.384   2.823 -0.8376  1.6557  0.6915
  134MOL0     C17984   5.676   4.512   2.833  0.3900 -0.8606 -0.3045
  134MOL0     O17985   5.791   4.536   2.915 -0.3264 -0.5461 -0.0961
  134MOL0     C17986   5.818   4.669   2.951 -0.1964  0.0062 -0.4333
  134MOL0     C17987   5.734   4.754   3.013 -0.2074 -0.0267 -0.2829
  134MOL0     C17988   5.767   4.886   3.043 -0.8079 -0.4311 -0.0385
  134MOL0     C17989   5.897   4.940   3.020 -0.1659  0.2898 -0.2691
  134MOL0     O17990   5.927   5.062   3.069 -0.4278 -0.1710  0.4965
  134MOL0     C17991   6.017   5.145   3.002 -0.5686 -0.4126  0.7372
  134MOL0     C17992   6.017   5.293   3.056 -0.3889 -0.2140  0.2955
  134MOL0     C17993   6.117   5.395   2.987 -0.1273 -0.2669  1.1499
  134MOL0     C17994   6.040   5.505   2.936  0.0295  0.3458 -0.3753
  134MOL0     C17995   6.132   5.616   2.881  0.4641  0.2159 -0.5332
  134MOL0     C17996   6.050   5.733   2.836 -0.1088  1.1141  0.6081
  134MOL0     C17997   6.130   5.850   2.780  0.2592 -0.3837 -0.9063
  134MOL0     C17998   6.062   5.968   2.711 -1.0614  0.0298  0.1942
  134MOL0    Cl17999   5.902   6.003   2.797  0.5168 -0.0377  0.0975
  134MOL0     C18000   5.981   4.854   2.964  0.6805  0.1653  0.5758
  134MOL0     C18001   5.947   4.721   2.930  0.3898 -0.3712 -0.0590
  134MOL0     O18002   5.627   4.607   2.769 -0.2892 -0.2346  0.0065
  134MOL0     C18003   5.692   4.281   2.866  0.4096  0.1504 -0.6621
  134MOL0     C18004   5.654   4.146   2.838 -0.9320  1.1418  0.6629
  134MOL0     N18005   5.819   3.527   3.070 -0.0674 -0.4877  0.5070
  134MOL0     N18006   5.902   3.427   3.066  0.1349  0.2946 -0.0513
  134MOL0     C18007   5.605   2.392   2.569 -0.7460  0.8651  0.4621
  134MOL0     C18008   5.605   2.263   2.519  0.8486 -1.0856 -0.0337
  134MOL0     C18009   5.601   1.780   2.500 -1.2377 -0.2975  0.2720
  134MOL0     C18010   5.653   1.777   2.370 -0.2059  0.0566  0.8448
  134MOL0     C18011   5.619   1.665   2.296  1.1394  0.4914 -0.2733
  134MOL0     C18012   5.544   1.555   2.352 -0.1509  0.5740  0.7281
  134MOL0     O18013   5.517   1.431   2.292  1.5589 -0.1673 -0.1598
  134MOL0     C18014   5.514   1.413   2.148  1.0782  0.0378  0.1631
  134MOL0     C18015   5.449   1.272   2.122 -0.6780  0.4383 -0.1273
  134MOL0     C18016   5.419   1.247   1.971  0.4480 -0.5715  0.3259
  134MOL0     C18017   5.366   1.112   1.938 -0.5412 -0.1128  0.0406
  134MOL0     C18018   5.326   1.118   1.796  0.2027 -0.1686 -0.5354
  134MOL0     C18019   5.298   1.121   1.679  0.6192  0.0465  0.6807
  134MOL0     C18020   5.498   1.563   2.478  0.8258  0.4201 -0.9760
  134MOL0     C18021   5.519   1.672   2.556 -0.4680 -0.0418  0.8435
  134MOL0     C18022   5.473   1.659   2.700  0.2751 -0.0212  0.1353
  134MOL0     H18023   5.749   2.087   2.761  1.1460  0.6521 -1.0269
  134MOL0     H18024   5.749   2.294   2.869 -1.0007 -2.4265  0.9518
  134MOL0     H18025   5.671   2.492   2.945  0.4327 -1.9771 -1.5143
  134MOL0     H18026   5.827   2.519   2.871 -0.5687 -2.2235 -0.0367
  134MOL0     H18027   5.775   2.702   3.024 -0.1195  4.2346 -0.3912
  134MOL0     H18028   5.617   2.736   2.948  0.1526  3.2153 -1.3642
  134MOL0     H18029   5.708   2.813   2.744  1.4900 -0.0125 -0.8868
  134MOL0     H18030   5.867   2.745   2.801 -0.0249 -2.7084  2.6289
  134MOL0     H18031   5.726   2.984   2.914  1.9570  3.7628  0.2095
  134MOL0     H18032   5.866   2.901   2.991  0.6436 -0.8466 -1.2544
  134MOL0     H18033   5.979   2.962   2.759  1.7706  2.9578  1.0102
  134MOL0     H18034   5.844   3.064   2.734 -0.9142  0.7808  0.8931
  134MOL0     H18035   5.883   3.179   2.964  0.5073  0.1015  0.7729
  134MOL0     H18036   6.026   3.080   2.979  1.1094  1.3458  1.2751
  134MOL0     H18037   6.000   3.286   2.755  1.3154  2.9660 -0.2579
  134MOL0     H18038   6.140   3.190   2.791 -0.1891  2.7719  0.7128
  134MOL0     H18039   6.131   3.294   3.021  2.7231  0.0336 -0.8341
  134MOL0     H18040   6.175   3.398   2.878  0.5566 -0.5719  0.3859
  134MOL0     H18041   6.005   3.605   2.810 -4.0899 -1.6236 -1.3104
  134MOL0     H18042   5.812   3.792   3.004  1.0667 -0.8728  0.0887
  134MOL0     H18043   5.816   3.754   2.826  0.6942  0.2883 -1.4427
  134MOL0     H18044   5.603   3.620   2.858  0.9459  1.4460 -2.4365
  134MOL0     H18045   5.626   3.688   3.028  1.5921  3.1118  0.5431
  134MOL0     H18046   5.577   3.901   2.961 -1.2568  0.2280 -0.8677
  134MOL0     H18047   5.455   3.800   2.882  0.2155  0.2614  1.4827
  134MOL0     H18048   5.551   3.807   2.661 -2.7709  1.7952 -1.1676
  134MOL0     H18049   5.684   3.895   2.718  0.5074  2.7945  2.7095
  134MOL0     H18050   5.375   4.206   2.665  1.0949 -2.4137 -0.7727
  134MOL0     H18051   5.445   4.447   2.699 -0.6095  0.1433  0.7383
  134MOL0     H18052   5.637   4.712   3.034 -0.8601  1.7376  0.3784
  134MOL0     H18053   5.693   4.951   3.087  0.7831  0.8153  0.9120
  134MOL0     H18054   6.119   5.107   3.007 -1.0728 -1.9676 -0.0353
  134MOL0     H18055   6.003   5.149   2.894 -0.9305  0.2910  0.8019
  134MOL0     H18056   5.917   5.336   3.049  0.0804  0.8443 -0.1051
  134MOL0     H18057   6.049   5.293   3.160 -0.9858  1.4807  0.5094
  134MOL0     H18058   6.184   5.423   3.068  0.3133 -1.0096  1.0534
  134MOL0     H18059   6.181   5.365   2.904 -4.1491 -3.1928 -1.2580
  134MOL0     H18060   5.988   5.554   3.019  1.1682  1.6985 -0.4227
  134MOL0     H18061   5.966   5.472   2.863 -2.0315  1.5851  1.0544
  134MOL0     H18062   6.184   5.591   2.788 -1.0303  0.3010 -1.4161
  134MOL0     H18063   6.211   5.649   2.949 -0.3821 -1.1928  1.2113
  134MOL0     H18064   5.977   5.700   2.762  0.1555 -1.9419  1.5776
  134MOL0     H18065   5.991   5.760   2.924 -0.3760 -1.2833  1.2398
  134MOL0     H18066   6.220   5.818   2.726  0.5597 -0.5897 -0.2915
  134MOL0     H18067   6.162   5.889   2.876 -0.4568 -0.7181 -0.5240
  134MOL0     H18068   6.139   6.046   2.709  0.6881 -1.6440 -0.2566
  134MOL0     H18069   6.047   5.947   2.605  0.0897  0.5028 -0.0762
  134MOL0     H18070   6.085   4.876   2.943  0.4860 -1.1214 -2.0967
  134MOL0     H18071   6.024   4.652   2.894  1.5451  2.6606 -4.2065
  134MOL0     H18072   5.786   4.291   2.921 -0.9538 -0.6269  1.9776
  134MOL0     H18073   5.714   4.065   2.877 -2.4359  0.4359  1.5539
  134MOL0     H18074   5.584   2.471   2.499  6.2823  0.8202 -2.5919
  134MOL0     H18075   5.549   2.242   2.429 -2.0254  0.1230  1.3357
  134MOL0     H18076   5.710   1.856   2.322 -0.3095 -1.0421 -1.2161
  134MOL0     H18077   5.634   1.658   2.188 -0.5850 -0.5339 -0.4934
  134MOL0     H18078   5.614   1.410   2.105  0.4292 -3.9768 -1.5424
  134MOL0     H18079   5.449   1.485   2.097 -2.7863 -0.4050  3.8537
  134MOL0     H18080   5.354   1.262   2.176  1.8609 -0.8915  4.7096
  134MOL0     H18081   5.508   1.191   2.167 -0.6700 -0.2877 -1.4066
  134MOL0     H18082   5.500   1.273   1.901 -0.3303 -0.6025 -0.6057
  134MOL0     H18083   5.329   1.307   1.956 -0.7664 -1.7903  2.3883
  134MOL0     H18084   5.441   1.034   1.954  0.0511  0.6859  1.3901
  134MOL0     H18085   5.278   1.086   1.999  0.5896 -1.8228  1.0366
  134MOL0     H18086   5.271   1.124   1.576 -1.2750 -1.0888  1.0960
  134MOL0     H18087   5.441   1.475   2.507  0.8457  0.5139 -0.6473
  134MOL0     H18088   5.464   1.750   2.760  1.8287 -0.6473  1.3796
  134MOL0     H18089   5.375   1.612   2.713 -0.0719  0.9145  0.9875
  134MOL0     H18090   5.545   1.598   2.755 -2.5409 -0.2446  3.9270
  135MOL0     O18091   3.581   4.773   5.004 -0.1412 -0.4410  0.3926
  135MOL0     C18092   3.527   4.824   4.904 -0.7211 -0.2291 -0.1233
  135MOL0     O18093   3.490   4.954   4.891 -0.9764  0.2379 -0.2928
  135MOL0     C18094   3.544   5.056   4.972  0.8353 -0.4273  0.4245
  135MOL0     C18095   3.589   5.045   5.108 -0.4172  0.3020 -0.2653
  135MOL0     C18096   3.635   5.151   5.177 -1.0455  0.8247  0.7752
  135MOL0     C18097   3.655   5.276   5.113  0.0529  0.3262 -0.0282
  135MOL0     O18098   3.725   5.381   5.164  0.2673 -0.4674  0.4190
  135MOL0     C18099   3.783   5.374   5.297 -0.1035  0.4897 -0.3558
  135MOL0     C18100   3.876   5.496   5.329 -1.0494  0.4499 -0.7173
  135MOL0     C18101   3.982   5.533   5.226 -0.3361  0.0866  0.3007
  135MOL0     C18102   4.030   5.683   5.246 -0.4994 -0.8065 -0.8690
  135MOL0     C18103   4.066   5.747   5.111 -0.3751  0.1079 -0.5187
  135MOL0     C18104   4.125   5.889   5.117  0.5544 -0.5744  0.4753
  135MOL0     C18105   4.173   5.943   4.977 -0.2216  0.6365 -0.0258
  135MOL0     C18106   4.200   6.096   4.979  0.3067  0.4049 -0.8114
  135MOL0     N18107   4.080   6.163   5.028 -0.9785 -0.5306 -0.2528
  135MOL0     C18108   3.973   6.182   4.955  1.2203  0.0008 -0.1025
  135MOL0     C18109   3.892   6.271   5.022  0.1034 -0.1135 -0.8175
  135MOL0     C18110   3.760   6.335   4.986 -0.4890 -0.0437 -0.2686
  135MOL0     C18111   3.760   6.487   5.012 -0.6375 -1.2680  0.4318
  135MOL0     C18112   3.853   6.573   4.918 -0.9458  0.8055  0.2383
  135MOL0     C18113   3.846   6.565   4.768  0.0252 -0.4811 -0.3974
  135MOL0     O18114   3.966   6.633   4.727  0.9266 -0.4672  0.0919
  135MOL0     C18115   3.971   6.741   4.638 -0.0172 -0.8590  0.0471
  135MOL0     C18116   3.861   6.759   4.558  0.2742 -0.1244  1.0536
  135MOL0     C18117   3.860   6.863   4.465  1.0225 -0.1223  0.0670
  135MOL0     C18118   3.966   6.954   4.452  0.1119  0.5775  0.4550
  135MOL0     C18119   3.954   7.064   4.357  0.6968 -0.2728 -0.2579
  135MOL0     O18120   3.837   7.070   4.280  0.3921 -0.4247  0.0952
  135MOL0     C18121   3.806   7.171   4.193  0.7653  0.5508 -0.2303
  135MOL0     C18122   3.846   7.305   4.194 -0.6175  1.3099  0.3766
  135MOL0     C18123   3.805   7.392   4.089  0.3674  0.1270 -0.1880
  135MOL0     C18124   3.724   7.353   3.981  0.5180  1.1363 -0.8288
  135MOL0     O18125   3.691   7.450   3.893  0.1565  0.1506  0.2241
  135MOL0     C18126   3.707   7.405   3.756  0.8428 -0.2629 -0.2916
  135MOL0     C18127   3.729   7.530   3.666 -0.0267 -1.1052  0.0184
  135MOL0     C18128   3.849   7.629   3.706 -0.0155 -0.0856  0.3523
  135MOL0     C18129   3.863   7.732   3.594 -0.6528  0.1024  0.2827
  135MOL0     C18130   3.840   7.878   3.641 -1.0028  0.4496 -0.1003
  135MOL0     C18131   3.901   7.974   3.529  0.3975  0.3241  0.0684
  135MOL0     C18132   3.850   8.111   3.559 -0.2725 -0.4120  0.4753
  135MOL0     C18133   3.882   8.198   3.444 -0.5170  0.3081  1.0336
  135MOL0    Cl18134   3.807   8.362   3.493 -0.1858 -0.1847 -0.4442
  135MOL0     C18135   3.682   7.220   3.989 -0.0079  0.5580  0.5938
  135MOL0     C18136   3.718   7.127   4.093  1.0559 -0.7620  0.0809
  135MOL0     O18137   4.048   7.153   4.367  0.6176  0.2122 -0.3054
  135MOL0     C18138   4.079   6.935   4.544  0.1167  0.1532 -0.8460
  135MOL0     C18139   4.085   6.828   4.636  1.2115 -1.1131 -0.1511
  135MOL0     N18140   3.958   6.295   5.147  0.2471  0.5827  0.3801
  135MOL0     N18141   4.074   6.228   5.152  0.0182  0.3863 -1.0097
  135MOL0     C18142   3.617   5.289   4.982  0.7450 -0.4195  1.0297
  135MOL0     C18143   3.554   5.185   4.908  0.3698  0.6142 -0.4095
  135MOL0     C18144   3.467   4.732   4.800 -0.7581 -0.2104 -0.4463
  135MOL0     C18145   3.339   4.758   4.752  0.7037 -0.4566 -0.7632
  135MOL0     C18146   3.276   4.667   4.671 -0.0448 -0.7782  0.1042
  135MOL0     C18147   3.342   4.561   4.610  0.0757  0.3233  0.6066
  135MOL0     O18148   3.268   4.469   4.531  0.3045 -0.2270 -0.0464
  135MOL0     C18149   3.333   4.393   4.437 -0.4651  1.1312  0.4810
  135MOL0     C18150   3.242   4.359   4.317 -0.2697  0.6710 -0.3103
  135MOL0     C18151   3.107   4.291   4.374  0.1739  0.3123  0.2837
  135MOL0     C18152   3.128   4.150   4.436  0.0274 -0.2824 -0.8376
  135MOL0     C18153   3.144   4.039   4.350 -0.2646 -0.0603  0.1330
  135MOL0     C18154   3.168   3.967   4.254  0.2877 -0.5879 -0.7618
  135MOL0     C18155   3.475   4.537   4.647  0.1184  0.1498 -0.5618
  135MOL0     C18156   3.537   4.615   4.748 -0.3443 -0.2515  0.2541
  135MOL0     C18157   3.678   4.586   4.784  0.7589 -0.1305  0.4460
  135MOL0     H18158   3.571   4.955   5.166  0.0809  0.1341 -0.3659
  135MOL0     H18159   3.666   5.136   5.280  2.4120  0.4688 -0.1824
  135MOL0     H18160   3.694   5.369   5.361 -3.3555  1.4831 -4.3848
  135MOL0     H18161   3.847   5.285   5.295 -0.3746  0.3002 -0.8747
  135MOL0     H18162   3.919   5.473   5.427 -0.6710 -0.1670 -1.0218
  135MOL0     H18163   3.799   5.573   5.344  0.1327  1.9849 -2.1900
  135MOL0     H18164   3.945   5.529   5.123  1.5973 -1.8981 -0.3942
  135MOL0     H18165   4.065   5.462   5.213 -0.3744  0.3858 -2.2006
  135MOL0     H18166   3.970   5.757   5.300  2.3351  0.8168  0.2789
  135MOL0     H18167   4.121   5.678   5.307  1.0762 -1.7403 -3.1492
  135MOL0     H18168   4.150   5.685   5.076  2.1639  2.1144  1.5655
  135MOL0     H18169   3.991   5.746   5.032 -0.3035 -2.5487 -0.6737
  135MOL0     H18170   4.039   5.950   5.147 -1.1107 -0.5855 -3.5791
  135MOL0     H18171   4.201   5.883   5.195 -0.9707 -0.9882  2.0151
  135MOL0     H18172   4.100   5.917   4.899  2.6216  0.1558 -2.7378
  135MOL0     H18173   4.265   5.892   4.950 -0.3403  1.3374 -1.9081
  135MOL0     H18174   4.283   6.118   5.047 -0.1808 -0.7193  0.1837
  135MOL0     H18175   4.226   6.137   4.881 -0.2118  0.4910 -0.9141
  135MOL0     H18176   3.949   6.124   4.866  0.8333  2.3573 -1.6160
  135MOL0     H18177   3.748   6.321   4.878  0.0750 -0.0756 -0.3290
  135MOL0     H18178   3.684   6.279   5.041  1.2958 -0.8787  1.4336
  135MOL0     H18179   3.658   6.523   4.994  0.4850  2.4204  0.6145
  135MOL0     H18180   3.793   6.517   5.112  0.3522 -0.0420 -0.2381
  135MOL0     H18181   3.954   6.539   4.942 -1.5391 -0.3400  1.1855
  135MOL0     H18182   3.847   6.680   4.941  0.4102  1.6262 -2.6063
  135MOL0     H18183   3.759   6.623   4.735  1.7433  0.3592 -4.0849
  135MOL0     H18184   3.839   6.462   4.734 -0.1999 -0.4988 -0.3015
  135MOL0     H18185   3.775   6.694   4.543 -1.1615  1.8078  0.5117
  135MOL0     H18186   3.769   6.873   4.407  0.7164 -4.4613 -0.4853
  135MOL0     H18187   3.914   7.343   4.269  2.4326 -0.3778 -1.3777
  135MOL0     H18188   3.842   7.494   4.082 -0.3688  0.3949 -0.3473
  135MOL0     H18189   3.799   7.348   3.743  2.1860  1.5486  0.8457
  135MOL0     H18190   3.624   7.339   3.726  0.9646 -1.8452  2.4470
  135MOL0     H18191   3.742   7.492   3.564 -2.5185 -2.3208  0.0634
  135MOL0     H18192   3.638   7.591   3.663  1.8607  1.8903 -2.8135
  135MOL0     H18193   3.841   7.686   3.799  0.4048  2.1123 -0.8913
  135MOL0     H18194   3.938   7.566   3.706  0.3822  0.3276 -2.7424
  135MOL0     H18195   3.800   7.695   3.513  0.0198 -2.3485  0.8140
  135MOL0     H18196   3.965   7.720   3.559 -1.1372 -0.8106 -0.8436
  135MOL0     H18197   3.898   7.897   3.732  1.4246  0.1598 -1.5021
  135MOL0     H18198   3.736   7.902   3.666 -0.3742  2.4698  0.8282
  135MOL0     H18199   4.009   7.965   3.518  0.8753  3.4320  1.1228
  135MOL0     H18200   3.862   7.937   3.434  0.3677 -3.2323  1.3048
  135MOL0     H18201   3.901   8.161   3.642  0.1158 -3.3174  2.1378
  135MOL0     H18202   3.746   8.113   3.594 -2.4828 -0.2232 -5.0368
  135MOL0     H18203   3.990   8.192   3.427 -0.9650 -2.9534 -1.8865
  135MOL0     H18204   3.840   8.152   3.354  4.1883 -4.9268  0.9501
  135MOL0     H18205   3.617   7.178   3.913 -2.0756  1.0899  1.9743
  135MOL0     H18206   3.675   7.029   4.104 -0.2653 -0.1162  0.8704
  135MOL0     H18207   4.170   6.995   4.548  1.1116 -1.3563  2.2017
  135MOL0     H18208   4.161   6.813   4.712  2.6611 -2.4548 -1.7802
  135MOL0     H18209   3.630   5.386   4.935 -0.6032 -1.6763 -2.2935
  135MOL0     H18210   3.521   5.182   4.805 -0.5196  2.5920 -0.2162
  135MOL0     H18211   3.291   4.844   4.797  1.6616 -0.3557  0.1113
  135MOL0     H18212   3.177   4.695   4.637 -0.9541 -0.0908  3.0600
  135MOL0     H18213   3.381   4.307   4.484  2.4889  1.3698 -1.8282
  135MOL0     H18214   3.406   4.460   4.390 -0.3517 -0.2009 -1.3156
  135MOL0     H18215   3.291   4.292   4.246 -1.1000 -1.5068  1.0741
  135MOL0     H18216   3.215   4.449   4.260 -2.1610  0.6021  0.4204
  135MOL0     H18217   3.042   4.290   4.286  0.7719  0.5822 -0.1608
  135MOL0     H18218   3.046   4.359   4.435 -1.4730  0.7591 -1.7435
  135MOL0     H18219   3.222   4.156   4.491  0.6308 -3.9312 -1.2531
  135MOL0     H18220   3.042   4.150   4.504  1.4351  2.0322  1.1254
  135MOL0     H18221   3.179   3.911   4.163 -0.8476  0.4568 -1.5888
  135MOL0     H18222   3.518   4.451   4.597 -0.3328  0.3351 -1.2771
  135MOL0     H18223   3.705   4.482   4.764 -1.8734 -0.5683 -1.2721
  135MOL0     H18224   3.747   4.649   4.726  1.3084 -3.3461 -2.7382
  135MOL0     H18225   3.702   4.611   4.888 -1.2046  2.4433  0.3737
  136MOL0     O18226   0.837   4.859   9.593 -0.0350 -0.3465 -1.0606
  136MOL0     C18227   0.891   4.753   9.612 -0.0796  0.2325 -0.4240
  136MOL0     O18228   1.029   4.730   9.615 -0.4190 -0.8450  0.6263
  136MOL0     C18229   1.112   4.828   9.550  1.1838 -0.0131 -0.4613
  136MOL0     C18230   1.186   4.925   9.625 -0.5909 -0.0961 -0.7325
  136MOL0     C18231   1.287   4.995   9.558  0.8168 -0.6154  1.1533
  136MOL0     C18232   1.304   4.984   9.418  1.2170  0.1214 -0.3685
  136MOL0     O18233   1.402   5.066   9.367 -0.1015  0.6254 -0.2141
  136MOL0     C18234   1.420   5.060   9.223 -0.2840  0.1439  0.1294
  136MOL0     C18235   1.523   5.174   9.205 -0.0320  0.1088 -0.4246
  136MOL0     C18236   1.583   5.178   9.062 -0.1134  0.0132 -0.0602
  136MOL0     C18237   1.732   5.188   9.065 -0.4383 -0.1756 -0.4888
  136MOL0     C18238   1.767   5.334   9.065 -0.0631 -0.6625 -0.5693
  136MOL0     C18239   1.914   5.372   9.050  0.2054  0.4769  1.1442
  136MOL0     C18240   1.929   5.525   9.051 -0.3147  0.2479  1.0640
  136MOL0     C18241   2.083   5.555   9.033  0.0927 -0.3444 -0.3120
  136MOL0     N18242   2.096   5.697   9.040  0.5778 -0.3101  0.3462
  136MOL0     C18243   2.058   5.774   9.144  1.2507 -0.5380  0.1234
  136MOL0     C18244   2.071   5.906   9.104  0.8633  0.4802  0.6718
  136MOL0     C18245   2.060   6.033   9.195  0.2184 -0.3135 -0.4972
  136MOL0     C18246   2.201   6.063   9.248  0.5756  0.8295 -0.2905
  136MOL0     C18247   2.201   6.191   9.323 -0.1033  1.0931  0.1795
  136MOL0     C18248   2.111   6.193   9.447 -0.6906  0.5075 -0.5301
  136MOL0     O18249   2.037   6.320   9.468 -0.1045 -0.4680  0.1992
  136MOL0     C18250   1.907   6.324   9.429 -0.1490 -0.1170  0.6400
  136MOL0     C18251   1.799   6.276   9.507  1.2490  0.1740  0.3025
  136MOL0     C18252   1.668   6.263   9.461 -0.2113 -0.1649  0.1421
  136MOL0     C18253   1.633   6.315   9.340 -0.4820  0.2472  0.8133
  136MOL0     C18254   1.498   6.319   9.294 -0.0918  0.4213  1.3056
  136MOL0     O18255   1.469   6.393   9.173 -0.4078 -0.6266 -0.3559
  136MOL0     C18256   1.340   6.435   9.131 -0.1627  0.8520 -0.1260
  136MOL0     C18257   1.219   6.431   9.208  0.3911 -0.3844 -1.2000
  136MOL0     C18258   1.093   6.465   9.152 -0.5439  0.2250  0.2249
  136MOL0     C18259   1.093   6.508   9.014 -0.1080 -0.3564 -0.4113
  136MOL0     O18260   0.973   6.530   8.951  0.3402 -0.6109  0.7180
  136MOL0     C18261   0.970   6.644   8.861  0.5130  0.6845  0.7141
  136MOL0     C18262   0.819   6.682   8.834  0.0062  0.2929 -0.6228
  136MOL0     C18263   0.735   6.681   8.969 -0.1601 -0.6750 -0.0863
  136MOL0     C18264   0.765   6.789   9.067  0.1118 -0.6241  0.3301
  136MOL0     C18265   0.773   6.733   9.214 -0.1613  0.3570 -0.6543
  136MOL0     C18266   0.866   6.813   9.312 -0.0004  0.4889 -0.0455
  136MOL0     C18267   1.017   6.756   9.297  0.2553  0.4353 -0.4815
  136MOL0     C18268   1.099   6.821   9.404 -0.7552  0.1581  0.1984
  136MOL0    Cl18269   1.117   6.995   9.370 -0.1836  0.1012  0.2509
  136MOL0     C18270   1.219   6.513   8.954 -0.5368  0.1340  0.0859
  136MOL0     C18271   1.338   6.479   9.007 -0.4886 -0.2205 -0.6347
  136MOL0     O18272   1.416   6.263   9.356  0.2696 -0.1072  0.2064
  136MOL0     C18273   1.737   6.364   9.261  0.4038 -0.7488  0.3338
  136MOL0     C18274   1.868   6.368   9.301  0.9239  1.2956 -0.6266
  136MOL0     N18275   2.133   5.899   8.970  0.3102 -0.3591 -0.2086
  136MOL0     N18276   2.142   5.773   8.940  0.7658 -0.0411  0.2692
  136MOL0     C18277   1.226   4.893   9.346  0.1606  0.3973  0.0497
  136MOL0     C18278   1.132   4.812   9.411  0.6218  0.7380  0.5052
  136MOL0     C18279   0.801   4.637   9.642 -0.4620 -0.3982 -0.2692
  136MOL0     C18280   0.656   4.650   9.632  0.7337  0.6378  0.2604
  136MOL0     C18281   0.564   4.544   9.646 -0.0831  0.4558  0.3868
  136MOL0     C18282   0.610   4.413   9.677  0.1003 -0.5868 -0.3728
  136MOL0     O18283   0.542   4.298   9.695 -0.4619  0.0055 -0.3993
  136MOL0     C18284   0.407   4.297   9.736 -0.3674  0.3391 -1.0684
  136MOL0     C18285   0.330   4.214   9.638  1.3641 -0.2409 -0.3215
  136MOL0     C18286   0.361   4.069   9.671  0.1061 -0.8743  0.4260
  136MOL0     C18287   0.365   3.976   9.553  0.8549  1.0305 -0.0905
  136MOL0     C18288   0.412   3.844   9.595  0.0669 -0.0127 -0.1683
  136MOL0     C18289   0.423   3.723   9.628 -0.4493  0.5397  0.4746
  136MOL0     C18290   0.749   4.400   9.684 -0.6096  0.1909  0.1070
  136MOL0     C18291   0.847   4.501   9.664 -0.2043 -0.2272  0.4777
  136MOL0     C18292   0.989   4.473   9.675  0.3858  0.1626  0.1028
  136MOL0     H18293   1.167   4.930   9.732  0.6010 -0.3178 -0.4912
  136MOL0     H18294   1.339   5.077   9.604  2.4464 -1.1145  0.2796
  136MOL0     H18295   1.454   4.964   9.184 -0.5867  0.7198 -1.6440
  136MOL0     H18296   1.333   5.077   9.159 -1.4533 -2.1099  1.0121
  136MOL0     H18297   1.603   5.161   9.278  1.0258  1.3030 -1.3305
  136MOL0     H18298   1.464   5.265   9.215 -2.3783 -1.0695 -2.3689
  136MOL0     H18299   1.533   5.260   9.009 -0.0669  0.6370  0.8195
  136MOL0     H18300   1.567   5.086   9.005  0.6122  0.3640 -0.8531
  136MOL0     H18301   1.776   5.139   9.152 -1.9521 -0.3482  0.2193
  136MOL0     H18302   1.774   5.140   8.976 -2.8678 -1.9663 -0.7908
  136MOL0     H18303   1.717   5.385   8.981  2.2076  0.7754 -1.1431
  136MOL0     H18304   1.724   5.393   9.146 -2.4370 -1.9096 -0.8429
  136MOL0     H18305   1.981   5.313   9.114  0.2458 -1.0457 -0.2319
  136MOL0     H18306   1.949   5.331   8.954 -1.4735  0.2826  0.5794
  136MOL0     H18307   1.883   5.572   9.139 -0.0870  1.0636  0.7528
  136MOL0     H18308   1.878   5.567   8.963 -0.1249 -0.8692  0.3989
  136MOL0     H18309   2.142   5.503   9.109 -1.6365  0.3364  1.5913
  136MOL0     H18310   2.107   5.507   8.938 -3.1204 -2.6699 -0.1397
  136MOL0     H18311   2.012   5.755   9.241 -2.4725  0.7941 -1.2133
  136MOL0     H18312   2.020   6.115   9.135  1.5555 -1.5439 -3.2443
  136MOL0     H18313   1.990   6.018   9.278  1.5508  0.0131  0.7285
  136MOL0     H18314   2.240   5.982   9.310  0.8290  0.0122 -1.4893
  136MOL0     H18315   2.278   6.075   9.171  3.1169  1.6057  2.1928
  136MOL0     H18316   2.156   6.265   9.257  0.2784 -0.5283 -2.0093
  136MOL0     H18317   2.299   6.229   9.352  0.2574  1.1762 -1.0851
  136MOL0     H18318   2.180   6.170   9.528  0.5709 -0.9190 -1.9367
  136MOL0     H18319   2.030   6.120   9.444 -0.7537  0.4783  1.1862
  136MOL0     H18320   1.820   6.250   9.610  0.8855 -0.6524  0.1678
  136MOL0     H18321   1.586   6.219   9.517 -0.0264  1.1318  1.4961
  136MOL0     H18322   1.211   6.395   9.310 -2.0712  1.2679 -0.7073
  136MOL0     H18323   0.995   6.463   9.198 -1.9804  2.4727 -2.3901
  136MOL0     H18324   1.025   6.731   8.898 -0.4131  1.8834 -0.5934
  136MOL0     H18325   1.012   6.615   8.764  0.3670 -3.5971  1.7345
  136MOL0     H18326   0.806   6.767   8.767 -0.2781  2.4914  2.0590
  136MOL0     H18327   0.770   6.600   8.779 -0.5233  0.7273 -0.8114
  136MOL0     H18328   0.631   6.685   8.936  0.3095  1.7927 -1.4949
  136MOL0     H18329   0.752   6.588   9.024  0.8059  0.2915  1.3234
  136MOL0     H18330   0.696   6.873   9.057 -0.9949 -1.4020  1.2476
  136MOL0     H18331   0.861   6.833   9.037 -2.0605  3.4950 -1.3243
  136MOL0     H18332   0.809   6.630   9.220  3.1203  1.3679 -1.0947
  136MOL0     H18333   0.672   6.732   9.257  0.1735  1.8745  0.2190
  136MOL0     H18334   0.871   6.916   9.275 -1.6002  1.1567  1.4866
  136MOL0     H18335   0.840   6.822   9.417 -0.1010  1.3381 -0.1433
  136MOL0     H18336   1.061   6.783   9.200 -0.6654  1.1191 -0.7245
  136MOL0     H18337   1.018   6.648   9.312  2.7435  0.4472 -0.2017
  136MOL0     H18338   1.044   6.812   9.498 -1.6340  0.1191 -0.3096
  136MOL0     H18339   1.199   6.777   9.406 -0.4810  0.7667  0.3778
  136MOL0     H18340   1.217   6.533   8.848 -1.2286 -1.9776 -0.3275
  136MOL0     H18341   1.429   6.477   8.948  1.8509  2.4999  2.4758
  136MOL0     H18342   1.725   6.412   9.165  1.9589 -0.0997  0.4398
  136MOL0     H18343   1.943   6.416   9.239  3.1330 -0.9655  0.1022
  136MOL0     H18344   1.244   4.869   9.242  2.1228 -2.0852  0.8560
  136MOL0     H18345   1.069   4.744   9.353 -1.6836  2.7656  0.4390
  136MOL0     H18346   0.612   4.744   9.600 -0.7632 -0.1677 -0.1723
  136MOL0     H18347   0.460   4.545   9.616  0.0611  0.9327 -0.1148
  136MOL0     H18348   0.366   4.397   9.748  4.9828  2.8135 -0.6276
  136MOL0     H18349   0.401   4.249   9.834 -1.2589  0.4130 -1.0757
  136MOL0     H18350   0.350   4.233   9.532 -0.8062 -0.0087 -0.7347
  136MOL0     H18351   0.223   4.233   9.649  1.5943  1.2932 -0.5714
  136MOL0     H18352   0.290   4.022   9.741  1.6424 -0.4847  2.3466
  136MOL0     H18353   0.450   4.061   9.734 -0.4914 -0.6679  1.3365
  136MOL0     H18354   0.276   3.967   9.490 -0.8621 -0.7784  2.4063
  136MOL0     H18355   0.441   4.025   9.491  2.0378 -1.0015 -0.3296
  136MOL0     H18356   0.416   3.624   9.668 -0.3334  0.8012  1.1597
  136MOL0     H18357   0.780   4.297   9.697 -2.3456 -0.2290  1.1609
  136MOL0     H18358   1.044   4.462   9.580 -0.4645 -2.0027 -0.2029
  136MOL0     H18359   1.032   4.549   9.741  0.8635  0.7591 -0.8678
  136MOL0     H18360   0.990   4.380   9.732 -0.1231 -1.0456 -1.7679
  137MOL0     O18361   2.647   4.019   1.253 -0.5889  0.1683 -0.5491
  137MOL0     C18362   2.528   4.030   1.274  1.0333 -0.2058 -0.3552
  137MOL0     O18363   2.468   3.981   1.384  0.4235 -0.3998  0.9845
  137MOL0     C18364   2.535   3.922   1.484  0.6638  0.7023 -0.7464
  137MOL0     C18365   2.513   3.958   1.609 -0.1838  0.7656 -0.2189
  137MOL0     C18366   2.565   3.883   1.721 -0.0499  1.0097 -0.1391
  137MOL0     C18367   2.616   3.750   1.693 -0.5942  0.3259 -0.5346
  137MOL0     O18368   2.653   3.674   1.806  0.1509 -0.0509  0.4314
  137MOL0     C18369   2.702   3.543   1.771 -0.2474 -0.3143 -0.2358
  137MOL0     C18370   2.764   3.485   1.903 -0.5974  1.4411  0.1148
  137MOL0     C18371   2.734   3.337   1.919  0.1775 -0.1987 -0.2968
  137MOL0     C18372   2.796   3.272   2.050 -0.9865  0.4570 -0.7482
  137MOL0     C18373   2.794   3.128   2.035  0.0138  0.0991  0.9045
  137MOL0     C18374   2.845   3.038   2.149 -1.0746  0.4922 -0.1403
  137MOL0     C18375   2.763   3.009   2.275  0.6843  0.3203 -0.4128
  137MOL0     C18376   2.846   2.964   2.396 -0.4322 -0.6026 -0.2587
  137MOL0     N18377   2.908   2.831   2.364  0.1998 -0.1007 -0.2633
  137MOL0     C18378   2.933   2.723   2.454 -0.0149 -2.1801  0.0801
  137MOL0     C18379   3.023   2.645   2.389  0.7593 -0.5058 -0.3953
  137MOL0     C18380   3.066   2.519   2.460 -1.3958 -0.1882 -0.8531
  137MOL0     C18381   2.985   2.397   2.405  0.0445  0.5616  0.6463
  137MOL0     C18382   3.036   2.268   2.482 -0.8389  0.2094 -0.0056
  137MOL0     C18383   2.932   2.158   2.512 -0.1515 -0.7851 -0.1823
  137MOL0     O18384   2.989   2.065   2.602  0.0779  0.7416 -0.5838
  137MOL0     C18385   2.993   2.080   2.743  0.0480 -0.4492  1.3259
  137MOL0     C18386   2.917   2.185   2.797 -0.0690  0.3034  0.2522
  137MOL0     C18387   2.943   2.222   2.929  0.5717  0.8396  0.3876
  137MOL0     C18388   3.030   2.150   3.012 -0.0826  0.3536  0.3386
  137MOL0     C18389   3.068   2.195   3.151 -0.7298  0.4964  0.1876
  137MOL0     O18390   3.163   2.123   3.212  0.1783 -0.3500 -0.1562
  137MOL0     C18391   3.227   2.188   3.320 -0.5026  0.2647  0.8740
  137MOL0     C18392   3.328   2.290   3.291 -1.0817  0.3738 -0.7076
  137MOL0     C18393   3.383   2.367   3.396  0.3206 -1.0182  0.3082
  137MOL0     C18394   3.338   2.353   3.527 -0.1566  0.1399  0.4058
  137MOL0     O18395   3.388   2.425   3.635 -0.3438  0.8808 -0.0938
  137MOL0     C18396   3.466   2.545   3.627  1.3285 -1.4522  0.0599
  137MOL0     C18397   3.443   2.648   3.737 -0.5382 -0.0659  0.2069
  137MOL0     C18398   3.500   2.610   3.871 -0.4201 -0.6939  0.8442
  137MOL0     C18399   3.648   2.637   3.896  0.7490  0.4568  0.5090
  137MOL0     C18400   3.688   2.563   4.021 -0.5463  0.4938 -1.2823
  137MOL0     C18401   3.822   2.614   4.076 -0.3278 -0.4966 -0.3135
  137MOL0     C18402   3.878   2.527   4.187  0.5783  0.5493  0.6855
  137MOL0     C18403   4.006   2.584   4.248 -0.7782 -0.1835  0.2162
  137MOL0    Cl18404   4.089   2.465   4.363  0.1299  0.4364 -0.0886
  137MOL0     C18405   3.237   2.254   3.548  0.0289  0.7084  0.4518
  137MOL0     C18406   3.189   2.167   3.451 -0.5578  0.5248 -0.6273
  137MOL0     O18407   2.998   2.286   3.192 -0.2414  0.3309 -0.5359
  137MOL0     C18408   3.105   2.048   2.953  0.1887  0.7821 -0.2774
  137MOL0     C18409   3.081   2.007   2.822 -0.1355  0.6782  0.3252
  137MOL0     N18410   3.060   2.714   2.275 -0.4113  0.5311  0.1997
  137MOL0     N18411   2.987   2.816   2.253  0.0162  0.3788 -0.2600
  137MOL0     C18412   2.634   3.713   1.558  0.2473 -0.3665 -0.5191
  137MOL0     C18413   2.599   3.798   1.453 -0.0554  0.7791 -0.3512
  137MOL0     C18414   2.443   4.099   1.165 -1.0034  0.5906 -0.0533
  137MOL0     C18415   2.508   4.167   1.062  0.2454 -0.0775  0.9738
  137MOL0     C18416   2.440   4.247   0.964  0.5598 -0.9570  0.3175
  137MOL0     C18417   2.300   4.242   0.954  0.8688  0.6645 -1.1101
  137MOL0     O18418   2.232   4.309   0.853  0.3750  0.1410  0.6709
  137MOL0     C18419   2.099   4.258   0.802 -0.3468 -0.1203  0.2053
  137MOL0     C18420   2.126   4.151   0.696 -0.3629 -0.5399 -0.1587
  137MOL0     C18421   2.003   4.098   0.622 -0.4949  0.0685  0.1215
  137MOL0     C18422   1.940   4.184   0.518  0.7003 -0.6818  0.4262
  137MOL0     C18423   1.798   4.148   0.484 -0.2243  0.4888 -0.0858
  137MOL0     C18424   1.683   4.118   0.466 -0.2407  0.2071  0.2944
  137MOL0     C18425   2.236   4.189   1.067  0.2619  0.5946 -0.0941
  137MOL0     C18426   2.304   4.104   1.157  0.3353  0.5222 -0.9628
  137MOL0     C18427   2.219   4.039   1.263 -0.2021  1.1572 -0.6403
  137MOL0     H18428   2.471   4.058   1.617  3.8489  2.5888  0.2379
  137MOL0     H18429   2.570   3.921   1.822  3.3984 -2.6757  1.3321
  137MOL0     H18430   2.628   3.484   1.716 -0.3230  0.8053 -1.3860
  137MOL0     H18431   2.789   3.557   1.706  1.0759 -1.5914  1.2050
  137MOL0     H18432   2.724   3.528   1.995  0.0481  1.0006  0.6129
  137MOL0     H18433   2.871   3.508   1.902 -0.6303  2.4770 -4.3561
  137MOL0     H18434   2.767   3.283   1.829 -1.0038 -2.7621  0.6858
  137MOL0     H18435   2.626   3.340   1.934  0.4491  2.6503  1.8396
  137MOL0     H18436   2.901   3.301   2.051 -1.0534  0.7259  1.2860
  137MOL0     H18437   2.756   3.304   2.146  2.3351 -0.2991  1.0370
  137MOL0     H18438   2.689   3.095   2.034 -0.4089  1.3974  1.2343
  137MOL0     H18439   2.829   3.096   1.937 -1.5729 -2.5849  1.1120
  137MOL0     H18440   2.877   2.942   2.106  0.2857  0.8516  0.0275
  137MOL0     H18441   2.934   3.086   2.193 -1.3663  1.0280 -0.1310
  137MOL0     H18442   2.689   2.932   2.254  0.4377  0.6604 -0.8109
  137MOL0     H18443   2.702   3.094   2.308 -1.8621 -2.7053  3.6381
  137MOL0     H18444   2.925   3.037   2.416 -1.2461 -0.0692  1.1081
  137MOL0     H18445   2.782   2.958   2.484 -1.3302  0.3902 -0.8252
  137MOL0     H18446   2.879   2.716   2.547 -4.2243 -1.2901 -2.0513
  137MOL0     H18447   3.172   2.506   2.438 -0.3023  0.8347  3.0032
  137MOL0     H18448   3.048   2.535   2.567  1.0073  2.0517 -0.6782
  137MOL0     H18449   2.880   2.421   2.418  0.4680  2.8748  0.3321
  137MOL0     H18450   3.004   2.384   2.298 -3.1138 -0.8884  0.1642
  137MOL0     H18451   3.056   2.305   2.583 -0.4868 -0.4152  0.1566
  137MOL0     H18452   3.126   2.228   2.435 -1.3655 -2.2429  0.9196
  137MOL0     H18453   2.937   2.120   2.409 -0.4549  2.4786 -1.4932
  137MOL0     H18454   2.832   2.193   2.536  0.3778  2.3143 -2.0324
  137MOL0     H18455   2.836   2.237   2.748 -1.0579  0.9414  2.4292
  137MOL0     H18456   2.869   2.294   2.964  0.4254  1.3441 -0.9166
  137MOL0     H18457   3.337   2.311   3.185  0.3398  1.7046 -0.3619
  137MOL0     H18458   3.465   2.435   3.376 -0.7986  1.0815  2.3745
  137MOL0     H18459   3.574   2.525   3.629  1.9118  1.2849 -0.4800
  137MOL0     H18460   3.439   2.604   3.539 -1.5473 -1.8842  0.5798
  137MOL0     H18461   3.495   2.742   3.714  0.4781 -0.2652  1.5577
  137MOL0     H18462   3.336   2.661   3.749 -0.9782 -1.3752 -1.8282
  137MOL0     H18463   3.439   2.666   3.943 -1.1056 -1.4913  0.9001
  137MOL0     H18464   3.478   2.503   3.878 -0.1388 -1.3225 -4.4220
  137MOL0     H18465   3.665   2.745   3.887  1.9084  0.3937  1.6241
  137MOL0     H18466   3.714   2.592   3.822  0.2726 -0.5208  0.6623
  137MOL0     H18467   3.700   2.459   3.988 -2.5403  0.8893 -3.5914
  137MOL0     H18468   3.619   2.573   4.104  2.4103 -3.0292  1.9699
  137MOL0     H18469   3.895   2.600   3.996  0.2571  2.2126 -0.3504
  137MOL0     H18470   3.813   2.715   4.118  3.8823 -0.8122  1.8587
  137MOL0     H18471   3.884   2.420   4.162 -0.2849 -0.0149  2.6845
  137MOL0     H18472   3.797   2.534   4.260  1.5695 -0.8940  1.9739
  137MOL0     H18473   4.077   2.620   4.172  1.2541 -2.9860  0.6399
  137MOL0     H18474   3.974   2.671   4.307  1.9207  1.0980 -0.0192
  137MOL0     H18475   3.188   2.220   3.638  0.1886 -2.1748 -0.4487
  137MOL0     H18476   3.107   2.100   3.472  0.1897 -0.2716 -0.1544
  137MOL0     H18477   3.180   1.990   3.005 -0.8642  0.2953  0.7466
  137MOL0     H18478   3.154   1.935   2.787  0.3510  1.8541 -1.1646
  137MOL0     H18479   2.687   3.627   1.517 -2.0293 -0.6733 -3.0512
  137MOL0     H18480   2.608   3.764   1.350 -1.9394 -0.6101 -0.1294
  137MOL0     H18481   2.614   4.177   1.041 -0.0458 -2.2880 -2.1653
  137MOL0     H18482   2.485   4.314   0.892 -1.0396  0.7514  0.8231
  137MOL0     H18483   2.052   4.340   0.747 -4.3380 -2.1416  0.1967
  137MOL0     H18484   2.029   4.231   0.882 -3.1546 -3.0756 -2.9172
  137MOL0     H18485   2.177   4.077   0.759 -3.0977 -2.5048 -0.0797
  137MOL0     H18486   2.206   4.187   0.631 -0.2541 -1.5141 -0.5814
  137MOL0     H18487   1.927   4.086   0.698  0.7878  0.9604  1.6056
  137MOL0     H18488   2.025   4.003   0.572 -1.7833  0.0674 -0.4677
  137MOL0     H18489   1.939   4.289   0.548  2.5521  0.3389 -2.6515
  137MOL0     H18490   1.987   4.171   0.420  0.7809  3.5344 -0.3051
  137MOL0     H18491   1.583   4.099   0.434 -0.0429 -0.3866  0.0209
  137MOL0     H18492   2.129   4.197   1.082  0.1330  1.9561 -1.4270
  137MOL0     H18493   2.221   4.088   1.361  3.2699  0.8842 -0.4628
  137MOL0     H18494   2.116   4.034   1.226 -0.2723  4.8044 -1.2738
  137MOL0     H18495   2.251   3.936   1.285 -0.0774  1.2705 -0.2894
  138MOL0     O18496   7.941   7.957   7.176  0.6239  0.3147 -0.3619
  138MOL0     C18497   8.044   7.984   7.231 -0.2290  0.4099  0.7383
  138MOL0     O18498   8.074   7.966   7.369 -0.0234 -0.6344  0.1898
  138MOL0     C18499   7.973   7.941   7.452  0.9775 -0.2529 -0.5641
  138MOL0     C18500   7.939   7.824   7.508  0.5997  0.1801 -0.5835
  138MOL0     C18501   7.848   7.825   7.619 -0.7995 -0.2297  1.0045
  138MOL0     C18502   7.776   7.940   7.645  0.3694 -0.0750 -0.2353
  138MOL0     O18503   7.673   7.945   7.737  0.1832 -0.3389  0.4270
  138MOL0     C18504   7.572   7.844   7.717  0.1825 -0.1958  0.3169
  138MOL0     C18505   7.478   7.848   7.835  0.7628  0.1891 -0.7718
  138MOL0     C18506   7.543   7.834   7.981  0.1741  0.4588 -1.1755
  138MOL0     C18507   7.452   7.873   8.093  0.0211  1.1862  0.5654
  138MOL0     C18508   7.522   7.895   8.224 -0.0705 -0.7221  0.1036
  138MOL0     C18509   7.577   7.769   8.286  0.6012 -0.4868 -0.3028
  138MOL0     C18510   7.693   7.821   8.373 -0.8689 -0.2235  0.1886
  138MOL0     C18511   7.761   7.702   8.441  0.7730 -0.6511  0.5342
  138MOL0     N18512   7.873   7.744   8.520 -1.2673  0.6193  0.7846
  138MOL0     C18513   7.863   7.774   8.646 -0.0189 -0.5218  0.7472
  138MOL0     C18514   7.989   7.781   8.685  0.4656 -0.4534  0.3390
  138MOL0     C18515   8.027   7.792   8.828 -0.2852  0.0490 -0.1416
  138MOL0     C18516   8.161   7.715   8.858 -0.0842  1.3725  0.9100
  138MOL0     C18517   8.142   7.558   8.847  0.2943 -0.1887  0.6368
  138MOL0     C18518   8.042   7.497   8.937 -0.2251  0.3095  0.2620
  138MOL0     O18519   7.920   7.489   8.864  0.3195 -0.4806  0.4827
  138MOL0     C18520   7.808   7.454   8.937 -0.8646 -0.2597  0.1149
  138MOL0     C18521   7.797   7.429   9.076  0.6046 -0.7830  0.4980
  138MOL0     C18522   7.679   7.414   9.141 -0.4587 -0.3993 -0.2877
  138MOL0     C18523   7.561   7.434   9.072 -0.3828 -0.8585 -0.5643
  138MOL0     C18524   7.439   7.398   9.161 -0.2210 -0.1830  0.2601
  138MOL0     O18525   7.318   7.388   9.094 -1.0943  0.1737  0.1620
  138MOL0     C18526   7.204   7.386   9.160  0.5499 -0.5404  0.1000
  138MOL0     C18527   7.171   7.489   9.250  1.1618  0.7326  0.2955
  138MOL0     C18528   7.040   7.488   9.307  0.3885 -0.1079  0.9902
  138MOL0     C18529   6.947   7.386   9.281  0.7186  0.8234 -0.2901
  138MOL0     O18530   6.829   7.356   9.348  0.2320  0.5111 -1.3040
  138MOL0     C18531   6.775   7.470   9.413  0.6093 -0.0702 -0.0748
  138MOL0     C18532   6.646   7.432   9.483 -0.4170  0.3931 -0.2157
  138MOL0     C18533   6.562   7.549   9.537 -0.1829  0.6353  0.6966
  138MOL0     C18534   6.468   7.519   9.655 -0.0670  0.1439 -0.3564
  138MOL0     C18535   6.386   7.648   9.703  0.5442 -0.4920 -0.8223
  138MOL0     C18536   6.287   7.692   9.592 -0.2890 -0.4518  0.5335
  138MOL0     C18537   6.185   7.791   9.649 -0.0654  0.1285  0.2830
  138MOL0     C18538   6.085   7.851   9.543  0.0051 -0.3259  0.2944
  138MOL0    Cl18539   6.157   7.980   9.441 -0.0307  0.0829  0.1734
  138MOL0     C18540   6.978   7.283   9.193 -1.0798  0.1494 -0.1972
  138MOL0     C18541   7.109   7.285   9.133  0.6056 -0.5071 -0.4147
  138MOL0     O18542   7.453   7.399   9.281 -0.8976  0.0286  0.0621
  138MOL0     C18543   7.561   7.462   8.938  0.3157 -0.1700  0.3596
  138MOL0     C18544   7.685   7.458   8.871 -0.7988  1.0973 -0.0130
  138MOL0     N18545   8.069   7.776   8.571 -0.5784  0.7593  0.3839
  138MOL0     N18546   7.996   7.751   8.464  0.3337  0.2502  0.5030
  138MOL0     C18547   7.800   8.060   7.575  0.4823  0.1285 -1.3732
  138MOL0     C18548   7.906   8.061   7.486  0.2343  0.6419  0.8086
  138MOL0     C18549   8.162   8.033   7.153  0.2402  0.4776 -0.5055
  138MOL0     C18550   8.268   8.106   7.220 -0.4301 -0.2620  0.6666
  138MOL0     C18551   8.393   8.138   7.159 -0.6577  0.6651  0.4317
  138MOL0     C18552   8.415   8.086   7.030 -0.4740  0.8524  0.1576
  138MOL0     O18553   8.533   8.100   6.961 -0.7328 -0.0849 -0.1557
  138MOL0     C18554   8.647   8.036   7.024  0.0300  0.7513  0.7977
  138MOL0     C18555   8.772   8.023   6.949 -0.3032  0.3146 -1.0614
  138MOL0     C18556   8.877   8.135   6.983 -0.6836  0.6893  0.1658
  138MOL0     C18557   8.940   8.133   7.125 -0.2574  0.2804  0.1345
  138MOL0     C18558   8.958   7.999   7.173 -0.2928 -0.3330 -0.4588
  138MOL0     C18559   9.005   7.892   7.205  0.8345  0.1246  0.2609
  138MOL0     C18560   8.309   8.020   6.962  0.3293  0.2113  0.3252
  138MOL0     C18561   8.185   7.994   7.023 -0.5279 -0.2302  0.1721
  138MOL0     C18562   8.084   7.928   6.931 -0.3783 -0.4210 -0.1913
  138MOL0     H18563   7.993   7.733   7.486 -1.0799 -0.9047 -0.4280
  138MOL0     H18564   7.824   7.729   7.662  3.3446 -0.8872  2.3581
  138MOL0     H18565   7.523   7.861   7.621  1.3792 -2.3770 -0.7605
  138MOL0     H18566   7.613   7.743   7.716  0.6659  0.0050 -0.4239
  138MOL0     H18567   7.398   7.774   7.824 -0.7114  1.5805  0.1345
  138MOL0     H18568   7.431   7.946   7.821  2.1382  1.1777  1.0690
  138MOL0     H18569   7.635   7.893   7.975  3.1644 -3.8877 -2.2502
  138MOL0     H18570   7.576   7.733   8.005  2.8852  1.4662 -0.2516
  138MOL0     H18571   7.397   7.964   8.067  0.2723  0.7333 -1.8011
  138MOL0     H18572   7.378   7.794   8.074 -2.4703  3.2795  0.9148
  138MOL0     H18573   7.592   7.978   8.221  0.0235 -0.6643  2.3381
  138MOL0     H18574   7.448   7.940   8.291  1.1565  2.3754 -0.4422
  138MOL0     H18575   7.504   7.721   8.352 -0.6211  0.4514 -0.9125
  138MOL0     H18576   7.617   7.707   8.206 -0.9516  1.8401 -3.0749
  138MOL0     H18577   7.654   7.895   8.443  0.5834  1.3612 -0.6028
  138MOL0     H18578   7.766   7.867   8.305  1.0972 -1.5168  1.3101
  138MOL0     H18579   7.691   7.659   8.514  0.6550  1.6186  1.8712
  138MOL0     H18580   7.779   7.627   8.364 -2.4205 -0.8459 -0.1529
  138MOL0     H18581   7.773   7.774   8.706 -0.4462 -0.0183  0.1087
  138MOL0     H18582   8.046   7.897   8.852 -0.3852 -0.0292  0.2999
  138MOL0     H18583   7.937   7.767   8.886  0.2743  2.2187  1.7806
  138MOL0     H18584   8.238   7.743   8.785  0.4708 -3.1209 -0.5112
  138MOL0     H18585   8.189   7.739   8.961  0.6904 -0.7231  1.2396
  138MOL0     H18586   8.243   7.520   8.869  0.3691 -0.2479  0.1884
  138MOL0     H18587   8.114   7.532   8.745  0.8994 -2.2060  0.9398
  138MOL0     H18588   8.039   7.552   9.031 -0.2318 -1.5731  1.4018
  138MOL0     H18589   8.067   7.393   8.959 -3.6324 -1.0625 -1.5936
  138MOL0     H18590   7.889   7.431   9.135 -0.6468  0.0099  2.5276
  138MOL0     H18591   7.688   7.397   9.248  2.6312 -0.1462 -0.4193
  138MOL0     H18592   7.245   7.566   9.275  2.7776 -0.7727  0.3496
  138MOL0     H18593   7.006   7.561   9.380 -0.1585  0.5325  0.1214
  138MOL0     H18594   6.828   7.516   9.497 -2.8523  0.9290  1.7942
  138MOL0     H18595   6.743   7.543   9.339 -1.1833  0.7821  1.4403
  138MOL0     H18596   6.586   7.362   9.424 -0.2107  0.6554 -0.7415
  138MOL0     H18597   6.676   7.378   9.573 -2.1301  0.9798  0.7484
  138MOL0     H18598   6.636   7.625   9.563 -2.1454  2.0472  2.5860
  138MOL0     H18599   6.492   7.586   9.461  0.5053  3.1362  1.1856
  138MOL0     H18600   6.527   7.470   9.733 -0.5479  2.4349  1.5590
  138MOL0     H18601   6.390   7.444   9.634 -1.1449  0.2176  2.8434
  138MOL0     H18602   6.448   7.732   9.736 -1.4309  0.6981  0.0415
  138MOL0     H18603   6.331   7.628   9.796  0.2394  4.1821  0.2335
  138MOL0     H18604   6.338   7.743   9.510 -0.6630  0.1705  0.6806
  138MOL0     H18605   6.237   7.606   9.546  1.0769 -1.2045  0.4031
  138MOL0     H18606   6.234   7.876   9.698  1.6807  0.2117 -1.4744
  138MOL0     H18607   6.127   7.739   9.726 -1.3495 -1.8159 -1.8741
  138MOL0     H18608   6.028   7.784   9.479 -0.5125  0.5868 -0.2185
  138MOL0     H18609   5.999   7.891   9.598 -2.2014 -0.3158 -2.8957
  138MOL0     H18610   6.900   7.214   9.161  1.8391 -4.7443  2.0525
  138MOL0     H18611   7.129   7.210   9.058 -0.9558 -1.1859 -0.2057
  138MOL0     H18612   7.467   7.465   8.883 -0.5611  0.9195  1.8112
  138MOL0     H18613   7.687   7.456   8.762  2.5949 -2.2530 -0.0930
  138MOL0     H18614   7.751   8.148   7.617  1.9734  0.4310 -0.1753
  138MOL0     H18615   7.930   8.156   7.441 -1.4314  1.4001  1.4470
  138MOL0     H18616   8.255   8.134   7.324  0.8603 -0.8520  1.0174
  138MOL0     H18617   8.477   8.175   7.217  2.9962  0.5713 -4.2037
  138MOL0     H18618   8.629   7.931   7.050  1.6718  0.5683  1.3277
  138MOL0     H18619   8.666   8.082   7.121  1.0742 -0.8640  1.4007
  138MOL0     H18620   8.754   8.036   6.842 -0.4371  2.8602 -0.7917
  138MOL0     H18621   8.818   7.925   6.965  0.0010  0.1049 -2.9593
  138MOL0     H18622   8.829   8.229   6.954 -1.9532 -0.7111 -2.7181
  138MOL0     H18623   8.960   8.130   6.911 -0.0216 -1.8584  1.0167
  138MOL0     H18624   9.036   8.185   7.128  0.4464 -1.0060  1.1690
  138MOL0     H18625   8.880   8.183   7.201 -1.6285 -0.0879 -0.6692
  138MOL0     H18626   9.046   7.795   7.226 -1.4234 -0.8027  0.7530
  138MOL0     H18627   8.321   7.983   6.861 -0.6715  0.5479  0.0620
  138MOL0     H18628   7.988   7.980   6.927 -0.1562 -0.0395 -3.2922
  138MOL0     H18629   8.115   7.928   6.826  1.2907  0.9365  0.2500
  138MOL0     H18630   8.068   7.823   6.956 -0.9427 -0.3309 -0.1711
  139MOL0     O18631  10.493   1.089   8.170  0.6557 -0.1137 -0.5837
  139MOL0     C18632  10.563   1.012   8.110  0.6053 -0.1266 -0.3520
  139MOL0     O18633  10.528   0.888   8.074  0.1333 -0.3244 -0.2502
  139MOL0     C18634  10.411   0.821   8.116 -0.6763 -0.8197 -0.4011
  139MOL0     C18635  10.357   0.710   8.040  1.0669  0.1421  0.4246
  139MOL0     C18636  10.258   0.623   8.087  0.6478  0.1302  0.1186
  139MOL0     C18637  10.196   0.638   8.217 -0.5285  0.4496  0.4804
  139MOL0     O18638  10.109   0.540   8.270  0.2207 -0.1766 -0.2457
  139MOL0     C18639  10.057   0.552   8.405  0.4661 -0.4870 -0.2583
  139MOL0     C18640   9.961   0.438   8.434  0.1306 -0.8106  0.2354
  139MOL0     C18641   9.904   0.449   8.576  0.3535 -0.1665  0.6674
  139MOL0     C18642   9.844   0.585   8.615 -0.1015 -0.6295 -1.0198
  139MOL0     C18643   9.763   0.584   8.752  0.0346  0.7034 -0.1939
  139MOL0     C18644   9.703   0.725   8.770  0.4829  1.0087  0.1801
  139MOL0     C18645   9.587   0.752   8.866 -0.9752  0.6749 -0.9649
  139MOL0     C18646   9.448   0.793   8.809 -0.4358  0.6011 -0.3590
  139MOL0     N18647   9.454   0.930   8.752 -1.2623 -0.5336 -0.8366
  139MOL0     C18648   9.481   1.045   8.825 -0.5706 -0.5804  0.4085
  139MOL0     C18649   9.487   1.142   8.738 -1.0690 -0.5664  1.3136
  139MOL0     C18650   9.509   1.285   8.774 -0.9903 -0.6689  0.9845
  139MOL0     C18651   9.613   1.317   8.882 -0.4572  0.2445 -0.1953
  139MOL0     C18652   9.760   1.271   8.829  0.8533 -0.8946 -0.6133
  139MOL0     C18653   9.887   1.274   8.921 -0.5053  0.2629 -0.6721
  139MOL0     O18654   9.877   1.177   9.013  0.5824  0.4413  0.2705
  139MOL0     C18655   9.933   1.055   8.998 -0.8126 -0.2088  1.0654
  139MOL0     C18656   9.986   1.005   8.880 -0.5788  0.3545 -0.6668
  139MOL0     C18657  10.052   0.880   8.879 -0.2256  0.7073  0.2118
  139MOL0     C18658  10.074   0.799   8.992  1.2873 -0.4297 -0.7827
  139MOL0     C18659  10.145   0.676   8.965 -0.2193  0.7530 -0.5028
  139MOL0     O18660  10.168   0.607   9.081 -0.4048 -0.0866  0.1138
  139MOL0     C18661  10.246   0.495   9.066  0.3111  0.0675  0.4100
  139MOL0     C18662  10.386   0.495   9.053 -0.4092 -0.1557  0.3512
  139MOL0     C18663  10.461   0.374   9.036 -0.0828  0.5172  1.0225
  139MOL0     C18664  10.403   0.246   9.053  0.5326 -0.9120  0.1883
  139MOL0     O18665  10.480   0.137   9.060  1.2641  0.1020 -0.0770
  139MOL0     C18666  10.427   0.020   8.995  0.3397  0.3972  0.8539
  139MOL0     C18667  10.547  -0.076   8.960  0.3108  0.3085  0.7013
  139MOL0     C18668  10.631  -0.026   8.843 -0.0573 -0.4327 -0.7894
  139MOL0     C18669  10.760  -0.104   8.813 -0.1273  0.8808  0.2407
  139MOL0     C18670  10.867  -0.014   8.746 -0.7408  0.0743 -0.1762
  139MOL0     C18671  10.828   0.012   8.596 -0.2992  0.2576  0.5534
  139MOL0     C18672  10.931   0.098   8.527 -0.5236 -0.7151  0.0595
  139MOL0     C18673  10.870   0.154   8.391 -0.7350  0.0006 -0.3227
  139MOL0    Cl18674  10.722   0.251   8.433 -0.0126 -0.3583  0.1863
  139MOL0     C18675  10.268   0.244   9.074 -0.8673 -0.9229 -0.0451
  139MOL0     C18676  10.187   0.367   9.072  0.8582  0.3400  0.4185
  139MOL0     O18677  10.167   0.642   8.853 -0.1287 -0.2043 -0.4465
  139MOL0     C18678  10.024   0.855   9.111  0.2619  0.5476  0.5675
  139MOL0     C18679   9.958   0.974   9.111 -0.3911  0.2427  0.0427
  139MOL0     N18680   9.462   1.085   8.614 -0.1788  0.8556  0.8784
  139MOL0     N18681   9.442   0.959   8.619  0.0254  0.3199 -0.2700
  139MOL0     C18682  10.240   0.756   8.276  0.0655 -0.1862 -0.4799
  139MOL0     C18683  10.346   0.840   8.241 -0.4957  0.2794 -0.4037
  139MOL0     C18684  10.676   1.067   8.042  0.0185 -0.3120 -0.7653
  139MOL0     C18685  10.715   1.202   8.058 -0.6622  0.4109  0.9022
  139MOL0     C18686  10.828   1.264   7.998  0.2860  0.8525 -0.6713
  139MOL0     C18687  10.894   1.190   7.915 -0.4609  0.1979  0.4654
  139MOL0     O18688  10.976   1.258   7.832 -1.0695 -0.2921 -0.1702
  139MOL0     C18689  10.941   1.295   7.703  0.4790 -0.9686  0.0479
  139MOL0     C18690  10.947   1.444   7.667  0.2789 -0.5264  0.4640
  139MOL0     C18691  11.056   1.537   7.730 -0.0269  0.0216  0.2418
  139MOL0     C18692  11.184   1.536   7.646  0.0024  0.3295  0.8422
  139MOL0     C18693  11.300   1.616   7.701 -0.4072  0.1844  0.5235
  139MOL0     C18694  11.395   1.688   7.742 -0.3307  0.8574  0.4992
  139MOL0     C18695  10.860   1.056   7.884  0.1569  0.6940  0.6470
  139MOL0     C18696  10.753   0.989   7.941 -0.0067  0.2080  0.2332
  139MOL0     C18697  10.721   0.849   7.870  0.1244 -0.2248 -0.0434
  139MOL0     H18698  10.388   0.710   7.936  1.5820  2.5376  0.5063
  139MOL0     H18699  10.217   0.538   8.034  2.6847 -0.9015  0.0917
  139MOL0     H18700  10.135   0.560   8.481 -0.6377  1.6342  0.7437
  139MOL0     H18701  10.006   0.649   8.409 -0.4471 -0.9677  0.1572
  139MOL0     H18702  10.018   0.345   8.423 -0.7154 -1.7004  2.7352
  139MOL0     H18703   9.877   0.449   8.365 -0.3510  0.7778  1.0190
  139MOL0     H18704   9.983   0.412   8.642 -1.1720 -2.0867  1.5314
  139MOL0     H18705   9.818   0.381   8.583  2.4044 -2.8593  1.6469
  139MOL0     H18706   9.917   0.666   8.610 -1.1920  0.3358 -2.0917
  139MOL0     H18707   9.778   0.607   8.530  1.0968  1.6117 -1.4547
  139MOL0     H18708   9.683   0.511   8.762  3.5744 -3.4626  0.7470
  139MOL0     H18709   9.826   0.558   8.838 -2.2382  2.6091  2.2424
  139MOL0     H18710   9.777   0.801   8.795  0.9909 -0.1070  2.3785
  139MOL0     H18711   9.660   0.747   8.672 -0.2342 -1.8755 -0.2627
  139MOL0     H18712   9.622   0.833   8.930 -0.5806 -0.5734  0.4724
  139MOL0     H18713   9.589   0.658   8.923  2.5365 -0.6629 -2.9335
  139MOL0     H18714   9.418   0.724   8.730 -2.0620  0.1695  0.5970
  139MOL0     H18715   9.374   0.782   8.888 -1.1925  2.4226 -0.7714
  139MOL0     H18716   9.490   1.063   8.932  0.1692  1.4975  0.0380
  139MOL0     H18717   9.551   1.333   8.685 -1.8228 -4.3069 -1.6038
  139MOL0     H18718   9.413   1.329   8.803 -2.0677 -0.8561 -1.9649
  139MOL0     H18719   9.623   1.424   8.905 -1.4544 -0.3821  3.8889
  139MOL0     H18720   9.585   1.267   8.975 -0.3180  1.6425  0.6319
  139MOL0     H18721   9.788   1.338   8.747  0.4978 -0.2481 -0.2134
  139MOL0     H18722   9.756   1.167   8.795 -2.2504 -1.4287  0.9946
  139MOL0     H18723   9.879   1.369   8.976  0.1157  0.4557 -0.9128
  139MOL0     H18724   9.982   1.277   8.867  1.2681  3.1551  2.2072
  139MOL0     H18725   9.979   1.045   8.779  2.4356  2.2334 -0.2664
  139MOL0     H18726  10.084   0.850   8.780 -4.1266 -2.7001 -0.3179
  139MOL0     H18727  10.436   0.591   9.040  1.5139 -1.2652 -0.8279
  139MOL0     H18728  10.567   0.378   9.014  0.0263 -0.1297  1.4256
  139MOL0     H18729  10.373  -0.027   9.077 -1.3934  0.3146 -0.2705
  139MOL0     H18730  10.368   0.040   8.904  1.4081  1.5246  0.3824
  139MOL0     H18731  10.610  -0.082   9.050 -2.7660  1.5134  3.1455
  139MOL0     H18732  10.518  -0.179   8.938 -0.5100  0.6502  0.1260
  139MOL0     H18733  10.563  -0.038   8.759  1.5317 -0.0629 -2.1973
  139MOL0     H18734  10.655   0.080   8.855  0.6069 -0.4103 -2.1527
  139MOL0     H18735  10.735  -0.194   8.756  0.0356  1.7958 -1.3271
  139MOL0     H18736  10.795  -0.138   8.911  0.7365  2.3163  0.4718
  139MOL0     H18737  10.968  -0.057   8.753 -1.9750 -3.3128 -1.2687
  139MOL0     H18738  10.863   0.086   8.789 -0.8734  1.5257 -3.3397
  139MOL0     H18739  10.830  -0.086   8.548  0.2840  0.4178  0.2341
  139MOL0     H18740  10.725   0.048   8.591  0.4548  2.4934 -0.3134
  139MOL0     H18741  11.023   0.047   8.499 -0.0133  0.0943  0.2375
  139MOL0     H18742  10.949   0.185   8.592 -0.8427 -0.1030 -0.6527
  139MOL0     H18743  10.944   0.216   8.340  5.6985 -3.6145  3.3043
  139MOL0     H18744  10.853   0.068   8.325 -0.4550 -0.3168  0.0156
  139MOL0     H18745  10.212   0.153   9.098 -1.0580 -0.6009  0.7637
  139MOL0     H18746  10.080   0.367   9.087  0.7880  0.6833 -0.0496
  139MOL0     H18747  10.031   0.806   9.208 -1.0091  1.2271  1.0374
  139MOL0     H18748   9.913   1.005   9.205  0.3446  0.1612  0.4212
  139MOL0     H18749  10.191   0.776   8.371  3.9438 -3.5065  2.6059
  139MOL0     H18750  10.385   0.915   8.309  1.6949 -0.5168 -0.7183
  139MOL0     H18751  10.651   1.266   8.119  1.1751  1.8579  1.4110
  139MOL0     H18752  10.854   1.367   8.021 -0.0069  1.0976 -1.4160
  139MOL0     H18753  10.837   1.270   7.679  0.2382  1.1508 -1.3705
  139MOL0     H18754  11.001   1.250   7.624 -3.4953 -2.3635 -2.5205
  139MOL0     H18755  10.846   1.479   7.688  0.1718  0.4269 -1.3736
  139MOL0     H18756  10.954   1.452   7.558  1.0467  0.6908  0.5781
  139MOL0     H18757  11.065   1.506   7.835  0.0280  2.8494  1.1571
  139MOL0     H18758  11.017   1.637   7.748  0.1209  0.0369  0.4920
  139MOL0     H18759  11.224   1.440   7.614  0.9857  1.1287 -0.4786
  139MOL0     H18760  11.161   1.583   7.549  1.4274  0.7009  0.6562
  139MOL0     H18761  11.476   1.746   7.781 -0.6620  2.7814 -1.4253
  139MOL0     H18762  10.928   1.011   7.811  0.6118 -0.5079  1.7723
  139MOL0     H18763  10.618   0.846   7.831 -0.1285  2.5045  0.1889
  139MOL0     H18764  10.780   0.826   7.781  0.1187  1.5010 -0.5307
  139MOL0     H18765  10.737   0.776   7.949 -0.6121 -0.5821 -0.2175
  140MOL0     O18766  11.216   5.745   0.313  0.6427  0.0528  0.0812
  140MOL0     C18767  11.197   5.829   0.396 -0.2538 -0.0235 -0.7844
  140MOL0     O18768  11.303   5.908   0.456 -0.1263  0.1119  0.7240
  140MOL0     C18769  11.430   5.863   0.428  0.9843  0.2974 -0.0120
  140MOL0     C18770  11.495   5.876   0.309  0.5215 -0.1601 -0.0128
  140MOL0     C18771  11.632   5.847   0.302 -0.3460  0.0668 -1.3398
  140MOL0     C18772  11.705   5.801   0.414 -1.2024 -0.2251  0.7022
  140MOL0     O18773  11.832   5.759   0.386 -0.0210 -0.3662  0.3269
  140MOL0     C18774  11.872   5.636   0.451  0.1114 -0.8389  0.1055
  140MOL0     C18775  11.981   5.666   0.553  0.3065  0.3072 -0.5596
  140MOL0     C18776  12.119   5.711   0.490  0.4902  0.6821  0.4385
  140MOL0     C18777  12.238   5.684   0.583  0.1504  0.0006  0.0120
  140MOL0     C18778  12.371   5.671   0.489  0.9389  0.0344  0.2050
  140MOL0     C18779  12.470   5.573   0.561 -0.6198 -0.0977 -0.0991
  140MOL0     C18780  12.597   5.531   0.475  0.1528 -0.2956 -0.2715
  140MOL0     C18781  12.702   5.633   0.463 -0.1242 -0.0282  0.3653
  140MOL0     N18782  12.806   5.586   0.380 -0.2791 -0.9882  0.0781
  140MOL0     C18783  12.813   5.628   0.242  0.8933  0.4125 -0.6901
  140MOL0     C18784  12.928   5.561   0.204  1.1761  0.4857  0.2915
  140MOL0     C18785  13.000   5.566   0.069  0.5420 -0.1419  0.4036
  140MOL0     C18786  13.137   5.493   0.067 -0.0783  0.4347 -0.0292
  140MOL0     C18787  13.102   5.339   0.059  0.0405  0.0375 -0.2914
  140MOL0     C18788  13.217   5.263  -0.019  0.5520 -0.4408  0.6474
  140MOL0     O18789  13.223   5.292  -0.166  0.0949 -0.9429 -0.2769
  140MOL0     C18790  13.341   5.347  -0.219  1.1290 -0.0641 -0.7696
  140MOL0     C18791  13.381   5.304  -0.345  0.0025  0.4541  0.0802
  140MOL0     C18792  13.503   5.348  -0.405  0.3062  0.3334 -0.6318
  140MOL0     C18793  13.577   5.447  -0.337  0.0899  0.4209  0.3368
  140MOL0     C18794  13.698   5.510  -0.385  0.9459 -0.3624  0.2136
  140MOL0     O18795  13.739   5.630  -0.325 -0.4152 -0.4879 -0.2937
  140MOL0     C18796  13.862   5.686  -0.360  0.4714 -0.5265  0.6214
  140MOL0     C18797  13.957   5.737  -0.272 -0.1511  0.2582 -0.2682
  140MOL0     C18798  14.065   5.808  -0.327  0.4928  0.8734  0.8241
  140MOL0     C18799  14.090   5.818  -0.464 -0.4524 -0.4749 -0.6130
  140MOL0     O18800  14.216   5.878  -0.489  0.1636  0.1751  0.8792
  140MOL0     C18801  14.257   5.912  -0.629 -0.0288 -0.5609 -0.6956
  140MOL0     C18802  14.396   5.963  -0.616  0.5871 -0.7247  0.3760
  140MOL0     C18803  14.420   6.081  -0.519 -0.9799  0.4897 -0.1706
  140MOL0     C18804  14.570   6.064  -0.464  0.1915  0.0411 -0.5076
  140MOL0     C18805  14.615   6.165  -0.356  0.2084 -0.9241 -0.5734
  140MOL0     C18806  14.738   6.124  -0.278  1.2689 -1.2657 -0.3235
  140MOL0     C18807  14.859   6.122  -0.366 -0.9274  0.1497 -1.0878
  140MOL0     C18808  14.988   6.104  -0.272 -0.0104 -0.8228  0.5572
  140MOL0    Cl18809  15.134   6.086  -0.360  0.1419 -0.5115  0.2672
  140MOL0     C18810  14.008   5.756  -0.557 -0.2489 -0.5604  0.4169
  140MOL0     C18811  13.880   5.706  -0.504  0.0299 -0.3661  0.5035
  140MOL0     O18812  13.762   5.449  -0.467  0.4436 -0.1408 -0.8210
  140MOL0     C18813  13.535   5.492  -0.215 -0.3173 -0.7092 -0.2510
  140MOL0     C18814  13.417   5.449  -0.151  0.2410 -0.6224 -0.1256
  140MOL0     N18815  12.961   5.464   0.304  0.4239  0.3241  0.8986
  140MOL0     N18816  12.883   5.481   0.402  0.5675 -0.5540  0.1499
  140MOL0     C18817  11.638   5.792   0.531  0.4314  0.2923  0.1189
  140MOL0     C18818  11.502   5.818   0.539 -0.3479  0.1863 -1.5219
  140MOL0     C18819  11.065   5.866   0.448 -0.2149 -0.4762  0.2003
  140MOL0     C18820  11.059   5.993   0.511  0.7941  0.3133  0.0239
  140MOL0     C18821  10.936   6.038   0.551  0.4343  0.5259 -0.1022
  140MOL0     C18822  10.819   5.969   0.532 -0.2237 -0.7516  0.0511
  140MOL0     O18823  10.700   6.035   0.548 -0.2989  0.0679 -0.4877
  140MOL0     C18824  10.583   5.961   0.541 -0.5883 -0.8290 -0.1997
  140MOL0     C18825  10.460   6.039   0.589 -0.4490  1.0903  0.1580
  140MOL0     C18826  10.481   6.104   0.721 -0.0023  0.1013 -0.4782
  140MOL0     C18827  10.443   5.995   0.824 -0.0613 -0.7527 -0.0142
  140MOL0     C18828  10.479   6.033   0.963 -0.9097 -0.3767 -0.1157
  140MOL0     C18829  10.507   6.057   1.078 -0.4782  0.6059  1.2687
  140MOL0     C18830  10.824   5.837   0.473 -0.9366  1.0267 -0.3742
  140MOL0     C18831  10.946   5.781   0.428  0.6212  0.0826 -0.1041
  140MOL0     C18832  10.943   5.651   0.354  0.4147  0.5563 -0.4498
  140MOL0     H18833  11.458   5.902   0.211  1.6192 -2.6809 -1.1942
  140MOL0     H18834  11.676   5.838   0.203  0.7772 -1.2298 -0.7488
  140MOL0     H18835  11.785   5.582   0.492 -0.7627  0.1645 -0.3749
  140MOL0     H18836  11.907   5.563   0.378 -0.4222 -1.8575  0.8480
  140MOL0     H18837  11.991   5.587   0.628  0.2571 -0.0589 -0.9344
  140MOL0     H18838  11.956   5.760   0.604  2.9728  0.5311  0.5559
  140MOL0     H18839  12.125   5.817   0.464  2.9928 -0.0080 -2.4404
  140MOL0     H18840  12.132   5.671   0.389  0.1843  1.1632  0.2086
  140MOL0     H18841  12.238   5.765   0.657 -3.6801 -0.1269  0.3440
  140MOL0     H18842  12.213   5.591   0.635  1.9494 -0.0698  0.8414
  140MOL0     H18843  12.346   5.639   0.387 -0.0083  1.9769 -0.2374
  140MOL0     H18844  12.408   5.773   0.476  0.3967  0.2529  0.3183
  140MOL0     H18845  12.498   5.626   0.652 -0.5453  0.2390 -0.3150
  140MOL0     H18846  12.422   5.478   0.586  2.3027 -2.0619 -1.3628
  140MOL0     H18847  12.561   5.502   0.376 -1.0635 -0.9606  0.3454
  140MOL0     H18848  12.640   5.436   0.505  2.8475  0.3456 -1.7887
  140MOL0     H18849  12.654   5.720   0.417 -0.4289 -0.7344 -0.6754
  140MOL0     H18850  12.739   5.662   0.562  1.1747  1.7224 -0.5622
  140MOL0     H18851  12.745   5.694   0.189 -0.3319  0.1827  0.5541
  140MOL0     H18852  12.934   5.529  -0.011 -1.1130  1.4571  0.9425
  140MOL0     H18853  13.031   5.668   0.044  2.6750 -0.3653  1.8992
  140MOL0     H18854  13.186   5.522  -0.026 -0.0108  1.5503  0.3469
  140MOL0     H18855  13.194   5.514   0.157  0.3346 -4.7445  1.2673
  140MOL0     H18856  13.008   5.318   0.007 -0.5363  0.9622  0.3495
  140MOL0     H18857  13.097   5.300   0.161 -0.9863 -0.4239 -0.5101
  140MOL0     H18858  13.194   5.157  -0.004  3.8800 -1.2392  0.8105
  140MOL0     H18859  13.315   5.274   0.027  0.5219 -2.2223  1.2275
  140MOL0     H18860  13.312   5.231  -0.385 -2.0152  0.4722  3.1925
  140MOL0     H18861  13.538   5.312  -0.502  0.9607  1.8781 -1.0139
  140MOL0     H18862  13.947   5.732  -0.164  1.7225 -1.4268 -0.1215
  140MOL0     H18863  14.120   5.860  -0.249 -0.3797 -1.1714  2.9156
  140MOL0     H18864  14.252   5.829  -0.701 -0.3861  0.1177 -1.4691
  140MOL0     H18865  14.186   5.986  -0.667 -0.2024 -1.3074 -1.8998
  140MOL0     H18866  14.468   5.888  -0.581  0.1201 -1.3791 -0.0480
  140MOL0     H18867  14.434   5.992  -0.715  1.5577  1.6503  1.3687
  140MOL0     H18868  14.409   6.177  -0.568 -1.7325  1.5340  1.9125
  140MOL0     H18869  14.349   6.077  -0.435 -2.5568  2.1510 -1.3716
  140MOL0     H18870  14.642   6.059  -0.546  2.4920 -1.1281  1.4931
  140MOL0     H18871  14.567   5.971  -0.407 -2.7591  1.7381  2.4717
  140MOL0     H18872  14.532   6.185  -0.288  0.2693 -0.9396 -0.4937
  140MOL0     H18873  14.637   6.260  -0.406 -1.8227 -2.3071 -4.4611
  140MOL0     H18874  14.764   6.185  -0.191  0.5576  0.4952 -1.2858
  140MOL0     H18875  14.716   6.029  -0.230 -0.8195 -0.7661 -0.2270
  140MOL0     H18876  14.852   6.216  -0.422 -0.7796  0.5129 -0.4975
  140MOL0     H18877  14.835   6.035  -0.428  4.4018 -0.9779 -2.0967
  140MOL0     H18878  15.005   6.183  -0.198  0.3243 -2.1352  1.9390
  140MOL0     H18879  14.977   6.013  -0.211  0.3218  0.2786  2.3429
  140MOL0     H18880  14.025   5.771  -0.663 -0.4413 -2.6301  0.0580
  140MOL0     H18881  13.808   5.656  -0.569 -1.1852 -1.2685  2.4735
  140MOL0     H18882  13.594   5.565  -0.160 -2.3086 -0.7272  2.0707
  140MOL0     H18883  13.390   5.490  -0.054 -0.1133  2.3008 -1.3471
  140MOL0     H18884  11.689   5.762   0.622 -1.7990  0.8814  1.6483
  140MOL0     H18885  11.462   5.796   0.637  5.1794 -2.1015  0.6544
  140MOL0     H18886  11.142   6.059   0.535  2.2780  0.4572 -4.5320
  140MOL0     H18887  10.942   6.134   0.602 -0.9410  0.7257 -0.2685
  140MOL0     H18888  10.586   5.879   0.614  1.4205 -0.3335  0.3387
  140MOL0     H18889  10.562   5.913   0.445 -1.0043 -0.8316 -0.1107
  140MOL0     H18890  10.378   5.968   0.602 -0.5374  0.9169 -1.2151
  140MOL0     H18891  10.433   6.110   0.511  0.3038  2.6801  1.2815
  140MOL0     H18892  10.416   6.190   0.735  1.8741  1.1854  2.7008
  140MOL0     H18893  10.583   6.140   0.740 -0.5594  1.2980  0.3483
  140MOL0     H18894  10.334   5.983   0.833 -0.0897  0.3649  1.7132
  140MOL0     H18895  10.480   5.897   0.795  2.1727  1.0421 -3.9788
  140MOL0     H18896  10.539   6.088   1.176 -0.4640  0.7869  1.2077
  140MOL0     H18897  10.746   5.763   0.458 -0.1193  0.0647 -0.0357
  140MOL0     H18898  10.982   5.660   0.252 -1.5316  0.7084 -1.2358
  140MOL0     H18899  11.005   5.575   0.402 -2.6814  0.1527  3.4192
  140MOL0     H18900  10.849   5.595   0.348  1.0791 -0.5533 -0.7085
  141MOL0     O18901   1.107   2.424   9.267  0.3225  0.6182 -0.9469
  141MOL0     C18902   1.024   2.338   9.238  0.1335  0.1068 -0.0408
  141MOL0     O18903   0.893   2.358   9.245  0.0850  0.2078  0.6639
  141MOL0     C18904   0.851   2.444   9.345 -0.4164 -0.1378 -1.2240
  141MOL0     C18905   0.775   2.389   9.449 -0.3248 -0.0441  0.4034
  141MOL0     C18906   0.698   2.460   9.532  1.3476 -1.4998 -0.6830
  141MOL0     C18907   0.693   2.604   9.530 -0.0797 -0.0050 -0.1013
  141MOL0     O18908   0.621   2.677   9.622 -0.1598 -0.2850 -0.4958
  141MOL0     C18909   0.647   2.822   9.642 -0.3579 -0.0630 -0.1817
  141MOL0     C18910   0.603   2.859   9.781 -0.6038  1.0630 -0.9023
  141MOL0     C18911   0.668   2.993   9.836  1.5101  0.1508 -0.0428
  141MOL0     C18912   0.592   3.041   9.957 -1.3016 -0.1008 -0.1406
  141MOL0     C18913   0.660   3.165  10.024  0.2428 -0.3483 -0.3204
  141MOL0     C18914   0.796   3.131  10.091 -0.8340 -0.4532  0.0116
  141MOL0     C18915   0.775   3.102  10.250 -0.4759 -0.2689  0.2900
  141MOL0     C18916   0.681   3.195  10.324  0.5450 -1.1321  0.6604
  141MOL0     N18917   0.700   3.185  10.472 -0.1188 -0.1536  0.1390
  141MOL0     C18918   0.686   3.070  10.547  0.2812 -0.3927 -0.6774
  141MOL0     C18919   0.691   3.121  10.678 -1.0996 -0.1038  0.0562
  141MOL0     C18920   0.673   3.042  10.803  0.2595 -0.4813 -1.0082
  141MOL0     C18921   0.807   2.966  10.819 -0.2942  0.8510 -0.2740
  141MOL0     C18922   0.824   2.871  10.927  0.3820  0.7708 -0.4621
  141MOL0     C18923   0.719   2.766  10.910 -0.4030 -1.0464 -0.4388
  141MOL0     O18924   0.769   2.674  10.820 -0.4159 -0.4545  0.3242
  141MOL0     C18925   0.684   2.610  10.748  0.2774 -0.8610  0.6207
  141MOL0     C18926   0.639   2.483  10.788  0.9249  0.0408 -0.1038
  141MOL0     C18927   0.549   2.410  10.709  0.0729 -0.3527 -0.6126
  141MOL0     C18928   0.488   2.472  10.605  1.1516  0.7886  0.4866
  141MOL0     C18929   0.398   2.387  10.521 -0.1429  0.2854  0.4660
  141MOL0     O18930   0.342   2.448  10.413 -0.1818 -0.2981 -0.1292
  141MOL0     C18931   0.224   2.400  10.355 -0.2416  0.2256  0.4760
  141MOL0     C18932   0.108   2.482  10.351  0.7455 -0.8940  0.3053
  141MOL0     C18933  -0.010   2.435  10.307  0.4747  0.3911 -0.1961
  141MOL0     C18934  -0.015   2.308  10.237 -0.2487 -0.9048  0.1423
  141MOL0     O18935  -0.135   2.263  10.182 -0.5440 -0.1275  0.1672
  141MOL0     C18936  -0.251   2.345  10.188 -0.5677  0.1221  0.9068
  141MOL0     C18937  -0.368   2.282  10.113 -0.0236  0.1127  0.3189
  141MOL0     C18938  -0.432   2.172  10.201 -0.7503 -0.0049 -0.1980
  141MOL0     C18939  -0.339   2.057  10.234  0.4961 -0.7553  0.0681
  141MOL0     C18940  -0.416   1.925  10.267  0.1220  0.6013 -0.3889
  141MOL0     C18941  -0.324   1.803  10.236 -0.6347 -0.3866 -0.3051
  141MOL0     C18942  -0.343   1.772  10.083  0.2039 -0.1044 -1.1611
  141MOL0     C18943  -0.212   1.747  10.010 -0.6076 -0.3443  0.2582
  141MOL0    Cl18944  -0.094   1.620  10.083 -0.1222 -0.0011  0.6621
  141MOL0     C18945   0.092   2.231  10.222  0.4855 -0.3642 -0.2403
  141MOL0     C18946   0.216   2.271  10.284 -0.5036 -0.1900 -1.2444
  141MOL0     O18947   0.367   2.271  10.560  0.3427 -0.1236  0.0106
  141MOL0     C18948   0.528   2.589  10.563 -0.6583 -0.0328  0.9663
  141MOL0     C18949   0.628   2.665  10.627 -0.2955  0.9273  0.8954
  141MOL0     N18950   0.712   3.250  10.666 -0.4588 -0.3235 -1.4175
  141MOL0     N18951   0.723   3.294  10.549  0.7955  0.0224 -0.5525
  141MOL0     C18952   0.776   2.660   9.427  0.1503 -0.7157  0.3624
  141MOL0     C18953   0.853   2.583   9.335  0.4740 -0.1012 -0.8711
  141MOL0     C18954   1.076   2.211   9.181  0.1506 -0.3589 -0.5617
  141MOL0     C18955   0.993   2.157   9.073  0.2712 -0.2002  0.4406
  141MOL0     C18956   1.017   2.036   9.010  0.3980 -0.2081 -0.1991
  141MOL0     C18957   1.135   1.959   9.038  0.8627 -1.1123  0.8567
  141MOL0     O18958   1.165   1.833   8.990  0.4391 -0.0439  0.6605
  141MOL0     C18959   1.086   1.776   8.884  0.0049 -0.4853  0.1921
  141MOL0     C18960   1.151   1.656   8.832 -0.6058 -0.2936 -0.8945
  141MOL0     C18961   1.089   1.615   8.700  0.0719  0.7248  0.7648
  141MOL0     C18962   0.933   1.598   8.709 -0.7239 -1.1176  0.0915
  141MOL0     C18963   0.881   1.494   8.807 -0.3920  0.2002  0.9966
  141MOL0     C18964   0.833   1.429   8.895 -1.0913  0.8268 -0.7210
  141MOL0     C18965   1.215   2.012   9.139  0.0608 -0.9473 -0.4362
  141MOL0     C18966   1.189   2.133   9.206 -1.0223 -0.2023 -0.0988
  141MOL0     C18967   1.283   2.170   9.322  0.6583 -0.3261 -0.2103
  141MOL0     H18968   0.773   2.281   9.447 -1.1168 -0.0279  0.0690
  141MOL0     H18969   0.642   2.405   9.607  1.0311  0.0851  0.2825
  141MOL0     H18970   0.756   2.827   9.647 -0.2554 -0.8740 -1.2260
  141MOL0     H18971   0.602   2.884   9.564  1.6052  0.0491 -1.2703
  141MOL0     H18972   0.608   2.773   9.848  1.4005  0.4562 -1.7551
  141MOL0     H18973   0.495   2.880   9.780 -0.3588  2.7080  0.6310
  141MOL0     H18974   0.655   3.065   9.755 -0.7988  0.2381  0.3472
  141MOL0     H18975   0.773   2.969   9.853  0.7672 -1.9029  2.1368
  141MOL0     H18976   0.503   3.072   9.903  0.4707 -0.5667 -3.6165
  141MOL0     H18977   0.581   2.961  10.031 -1.4249  0.8301  0.8873
  141MOL0     H18978   0.670   3.237   9.942 -1.3115  1.2531  0.8080
  141MOL0     H18979   0.591   3.200  10.101 -0.9583  0.7059 -1.8036
  141MOL0     H18980   0.839   3.045  10.039  2.7423 -0.7825  3.0510
  141MOL0     H18981   0.862   3.217  10.079 -2.0582  0.4514 -0.4090
  141MOL0     H18982   0.874   3.110  10.295 -0.3827  0.5964 -0.0560
  141MOL0     H18983   0.725   3.004  10.253 -1.6845  0.2803 -0.8584
  141MOL0     H18984   0.701   3.296  10.287 -0.2802 -1.4931 -0.8465
  141MOL0     H18985   0.577   3.164  10.315  0.3122  0.0389 -1.1118
  141MOL0     H18986   0.672   2.968  10.512 -2.1911 -0.3560 -0.0021
  141MOL0     H18987   0.665   3.109  10.888  1.4568  0.7443 -1.8155
  141MOL0     H18988   0.584   2.981  10.783 -1.0113  2.0231 -3.7906
  141MOL0     H18989   0.828   2.914  10.726  2.7947 -1.9598  1.7520
  141MOL0     H18990   0.881   3.044  10.837  0.4890  0.4788 -1.7653
  141MOL0     H18991   0.795   2.928  11.016 -3.1451 -0.6749 -0.5534
  141MOL0     H18992   0.925   2.829  10.940  0.4651  0.3375 -2.2186
  141MOL0     H18993   0.621   2.809  10.888 -0.6445 -0.8242  0.9379
  141MOL0     H18994   0.690   2.712  11.001 -2.0066 -0.2757 -0.4597
  141MOL0     H18995   0.662   2.436  10.882 -0.9869 -4.0082 -1.4386
  141MOL0     H18996   0.517   2.314  10.746 -3.4364  0.3799 -1.3811
  141MOL0     H18997   0.111   2.577  10.403  2.5081 -0.9912  0.4368
  141MOL0     H18998  -0.103   2.489  10.323 -0.7653 -0.5392 -3.5182
  141MOL0     H18999  -0.280   2.371  10.290  1.3581  2.5789  0.9144
  141MOL0     H19000  -0.227   2.435  10.131 -0.7315 -0.6065 -0.3585
  141MOL0     H19001  -0.451   2.352  10.101 -2.2591 -2.4155 -0.0265
  141MOL0     H19002  -0.344   2.236  10.017 -0.3748  1.2097 -0.3151
  141MOL0     H19003  -0.480   2.210  10.291 -0.3054 -0.5439  0.2739
  141MOL0     H19004  -0.521   2.130  10.153 -1.0864  1.5681 -1.0156
  141MOL0     H19005  -0.272   2.080  10.318 -0.2166 -0.9835  0.7075
  141MOL0     H19006  -0.281   2.047  10.141 -0.5591 -0.2412 -0.6696
  141MOL0     H19007  -0.508   1.916  10.209  0.1520  1.1748 -0.5350
  141MOL0     H19008  -0.432   1.921  10.375  4.0578  1.8598  0.4409
  141MOL0     H19009  -0.217   1.816  10.256 -0.5127 -0.0410 -1.1305
  141MOL0     H19010  -0.358   1.722  10.301 -0.4402 -0.4111 -0.2334
  141MOL0     H19011  -0.392   1.860  10.040  0.9244  0.8232 -0.1459
  141MOL0     H19012  -0.408   1.684  10.078  1.2446 -0.9648 -0.1637
  141MOL0     H19013  -0.229   1.712   9.908  1.1993  0.9556 -0.5563
  141MOL0     H19014  -0.158   1.842  10.018  0.1001 -0.8961  3.2031
  141MOL0     H19015   0.085   2.143  10.158  0.5515 -1.2814  0.9871
  141MOL0     H19016   0.300   2.202  10.283 -1.8774 -2.4398  3.7707
  141MOL0     H19017   0.478   2.644  10.484 -0.5343 -0.7874  0.3470
  141MOL0     H19018   0.663   2.752  10.573 -1.5418 -0.5437 -2.5218
  141MOL0     H19019   0.761   2.765   9.406 -1.8955 -1.2201 -1.0070
  141MOL0     H19020   0.896   2.635   9.250  0.8156 -1.3242 -1.4869
  141MOL0     H19021   0.906   2.213   9.041  2.6299  3.8126  0.3350
  141MOL0     H19022   0.931   2.003   8.953  0.5109  0.1861 -0.6021
  141MOL0     H19023   1.080   1.858   8.812  1.2665 -1.9838 -1.7333
  141MOL0     H19024   0.986   1.748   8.919  0.0305  0.5632  1.1707
  141MOL0     H19025   1.147   1.585   8.916  2.0373 -0.3985 -0.7684
  141MOL0     H19026   1.255   1.672   8.805 -0.3967 -2.3224 -1.5090
  141MOL0     H19027   1.140   1.526   8.663  0.1950  1.2610 -0.3793
  141MOL0     H19028   1.116   1.697   8.634  0.4144 -0.4095 -0.5495
  141MOL0     H19029   0.886   1.690   8.744  0.8010 -0.2023 -0.1710
  141MOL0     H19030   0.897   1.594   8.605 -3.1928 -3.4300  0.9146
  141MOL0     H19031   0.803   1.367   8.977  4.1531  0.2682  1.1425
  141MOL0     H19032   1.293   1.951   9.184  1.4352  0.6032 -0.5810
  141MOL0     H19033   1.252   2.262   9.374  2.1681 -1.7013  3.4177
  141MOL0     H19034   1.290   2.098   9.403 -3.2324  0.3217  0.8800
  141MOL0     H19035   1.386   2.185   9.287  0.4324  0.9693 -0.3740
  142MOL0     O19036   9.223   0.532   8.139  0.0910 -0.0391 -0.8156
  142MOL0     C19037   9.338   0.525   8.105 -0.3067 -0.4228  0.0755
  142MOL0     O19038   9.385   0.447   8.013 -0.2533 -0.9236  0.2366
  142MOL0     C19039   9.292   0.417   7.915 -0.3592 -0.5481 -0.3830
  142MOL0     C19040   9.292   0.496   7.803  0.3786 -0.8828  1.0031
  142MOL0     C19041   9.224   0.462   7.687 -0.4939 -0.3696 -0.4700
  142MOL0     C19042   9.157   0.341   7.679  0.7289  0.2600  0.1887
  142MOL0     O19043   9.093   0.303   7.566 -0.4899 -0.1051 -0.2440
  142MOL0     C19044   9.026   0.408   7.496 -0.0125  0.1767 -0.2689
  142MOL0     C19045   8.939   0.344   7.396 -0.4187  0.6648  0.1620
  142MOL0     C19046   9.014   0.241   7.307 -0.0036 -0.0216  0.6480
  142MOL0     C19047   8.930   0.191   7.189 -1.0860  0.7749  0.2789
  142MOL0     C19048   8.839   0.069   7.222  0.6781 -0.2051 -0.1108
  142MOL0     C19049   8.761   0.028   7.105 -0.4167  0.1834  0.8251
  142MOL0     C19050   8.709  -0.113   7.096 -0.1731  0.5122  0.4984
  142MOL0     C19051   8.563  -0.114   7.060 -0.4579 -0.1191  0.6564
  142MOL0     N19052   8.499  -0.248   7.057 -0.2074 -0.7076 -0.3781
  142MOL0     C19053   8.390  -0.286   7.133 -0.6071 -0.4245  1.1630
  142MOL0     C19054   8.343  -0.395   7.069 -0.5034 -0.2379  0.5132
  142MOL0     C19055   8.223  -0.467   7.104  0.4198  1.0640 -0.1060
  142MOL0     C19056   8.115  -0.473   7.010 -0.1953 -0.6908  0.3776
  142MOL0     C19057   8.001  -0.559   7.057 -0.5682  0.0661  0.4410
  142MOL0     C19058   7.884  -0.522   6.961  0.4774 -0.2707  0.0183
  142MOL0     O19059   7.763  -0.587   7.000  0.0503 -0.3952 -0.2821
  142MOL0     C19060   7.682  -0.605   6.895  0.2970 -0.7126  0.7285
  142MOL0     C19061   7.613  -0.497   6.842  0.5707 -0.3018 -0.4051
  142MOL0     C19062   7.519  -0.516   6.735  0.4711 -0.0427  0.1047
  142MOL0     C19063   7.503  -0.647   6.680  0.2062  0.4409 -0.4388
  142MOL0     C19064   7.408  -0.660   6.571  1.0510  0.7760 -0.1215
  142MOL0     O19065   7.374  -0.791   6.538  0.3189  0.5461  0.2595
  142MOL0     C19066   7.346  -0.826   6.409 -0.3346 -0.1609 -0.8548
  142MOL0     C19067   7.265  -0.937   6.387  0.2006 -0.7679 -0.9954
  142MOL0     C19068   7.249  -0.981   6.249  0.6516  1.1581 -0.4593
  142MOL0     C19069   7.307  -0.921   6.140  0.2633  0.2728  0.1461
  142MOL0     O19070   7.301  -0.958   6.007  0.1427  0.4022 -0.2947
  142MOL0     C19071   7.197  -1.049   5.976 -0.5121  0.6150 -0.4472
  142MOL0     C19072   7.213  -1.062   5.827 -0.2417 -0.5516 -0.0430
  142MOL0     C19073   7.128  -1.185   5.785  0.0865  0.1235  0.2087
  142MOL0     C19074   6.986  -1.144   5.740 -0.1949  0.0589 -0.0758
  142MOL0     C19075   6.907  -1.269   5.697 -0.0813  0.7169 -0.0002
  142MOL0     C19076   6.884  -1.365   5.816 -0.5676 -0.4913  0.6217
  142MOL0     C19077   6.755  -1.452   5.799 -0.2425  0.3216  0.6394
  142MOL0     C19078   6.731  -1.564   5.897  0.0169  0.8418  0.4994
  142MOL0    Cl19079   6.647  -1.511   6.045  0.2303 -0.5282  0.4479
  142MOL0     C19080   7.382  -0.809   6.172 -0.4954 -0.1745  0.3578
  142MOL0     C19081   7.406  -0.767   6.294 -0.7166  0.2325 -0.3004
  142MOL0     O19082   7.381  -0.559   6.506  0.0566  0.3520 -0.0923
  142MOL0     C19083   7.570  -0.757   6.732 -0.0192 -1.0024 -0.2409
  142MOL0     C19084   7.650  -0.732   6.846 -0.7495 -0.7782  1.3235
  142MOL0     N19085   8.433  -0.432   6.973  0.2696 -0.2238 -0.4885
  142MOL0     N19086   8.524  -0.344   6.968  0.3202 -0.8047 -0.1009
  142MOL0     C19087   9.158   0.254   7.794 -0.1998 -0.7564 -0.0927
  142MOL0     C19088   9.228   0.292   7.905  0.9614 -1.0707 -0.4917
  142MOL0     C19089   9.438   0.596   8.181 -0.9358 -0.2159 -0.5726
  142MOL0     C19090   9.573   0.565   8.176  0.3404  0.6933 -0.7976
  142MOL0     C19091   9.678   0.630   8.242 -0.6403 -0.7031  0.0092
  142MOL0     C19092   9.654   0.734   8.329 -0.2060  0.7969  0.0755
  142MOL0     O19093   9.760   0.795   8.396  0.6485  0.0643  0.3070
  142MOL0     C19094   9.728   0.928   8.451  0.2373  1.3254 -0.0811
  142MOL0     C19095   9.859   0.985   8.490  0.2319  0.2227  0.2039
  142MOL0     C19096   9.941   1.020   8.356 -0.4040  0.2880 -0.4456
  142MOL0     C19097  10.060   1.116   8.385 -0.4698  1.0907 -0.3003
  142MOL0     C19098  10.157   1.057   8.480  0.3746 -0.5565  0.3822
  142MOL0     C19099  10.225   0.990   8.555  0.3338  0.8140  0.3706
  142MOL0     C19100   9.519   0.765   8.345  0.3691  0.4576  0.5476
  142MOL0     C19101   9.409   0.708   8.271 -0.5946 -0.0460  0.4383
  142MOL0     C19102   9.273   0.763   8.294  0.3510 -0.4689  0.0832
  142MOL0     H19103   9.349   0.588   7.789 -0.0585 -0.7115  0.2532
  142MOL0     H19104   9.234   0.518   7.595  4.3765  0.2779  0.1798
  142MOL0     H19105   8.970   0.472   7.565 -0.7795 -2.0904  1.3546
  142MOL0     H19106   9.095   0.465   7.433  0.0250 -0.7904 -1.1365
  142MOL0     H19107   8.893   0.417   7.329 -1.9567 -2.0489 -1.9120
  142MOL0     H19108   8.856   0.295   7.447 -2.0272  1.2340 -1.8111
  142MOL0     H19109   9.043   0.159   7.373 -0.2165  0.1417  0.9482
  142MOL0     H19110   9.098   0.296   7.264  1.0914 -2.5810 -0.6706
  142MOL0     H19111   8.875   0.279   7.154  1.8118  3.0082  0.9524
  142MOL0     H19112   8.997   0.167   7.107  0.9485  0.8499  1.8466
  142MOL0     H19113   8.899  -0.022   7.240 -1.2994 -0.7553  5.6235
  142MOL0     H19114   8.766   0.074   7.303  0.1322 -0.2971 -0.5878
  142MOL0     H19115   8.685   0.107   7.104  1.6880  2.3449 -1.1845
  142MOL0     H19116   8.828   0.036   7.020 -0.6874  0.2362  0.6155
  142MOL0     H19117   8.732  -0.169   7.187  0.7537 -1.8414 -1.0825
  142MOL0     H19118   8.760  -0.170   7.018  0.5442  1.0243  0.5917
  142MOL0     H19119   8.503  -0.055   7.130 -4.7056 -1.0929 -1.7663
  142MOL0     H19120   8.540  -0.065   6.965 -2.8415 -1.1523  0.6061
  142MOL0     H19121   8.338  -0.232   7.211  2.2628 -0.7412  3.4556
  142MOL0     H19122   8.237  -0.575   7.118 -3.5596  0.2827 -0.8463
  142MOL0     H19123   8.188  -0.436   7.203 -2.4123  3.2609 -1.6661
  142MOL0     H19124   8.067  -0.378   6.984 -1.5621 -0.8274  2.1573
  142MOL0     H19125   8.164  -0.515   6.922 -2.0206  1.0869 -1.6150
  142MOL0     H19126   7.976  -0.537   7.161 -1.2263  0.5706  0.1842
  142MOL0     H19127   8.025  -0.666   7.052  2.4536  0.6818  0.2814
  142MOL0     H19128   7.915  -0.567   6.867  2.5598 -1.3497  1.1347
  142MOL0     H19129   7.875  -0.417   6.934 -1.7827 -0.6685 -0.9431
  142MOL0     H19130   7.620  -0.395   6.880  1.3012  0.3266 -2.1240
  142MOL0     H19131   7.458  -0.438   6.691  0.0860 -2.4610 -4.2329
  142MOL0     H19132   7.225  -0.981   6.478  1.8381  0.3210  0.3127
  142MOL0     H19133   7.188  -1.069   6.229  0.5232  1.1787 -0.1663
  142MOL0     H19134   7.208  -1.143   6.030 -3.6503 -1.6916 -3.3392
  142MOL0     H19135   7.101  -1.004   6.004 -0.9304  0.3855 -1.4381
  142MOL0     H19136   7.163  -0.975   5.784 -0.7996 -0.9489 -0.2098
  142MOL0     H19137   7.317  -1.083   5.799 -0.0733  0.1902  0.0100
  142MOL0     H19138   7.182  -1.245   5.711 -1.7251 -0.4105 -0.7183
  142MOL0     H19139   7.111  -1.246   5.874  2.2650  2.4945  2.4214
  142MOL0     H19140   6.998  -1.075   5.657  1.1665  2.8886  2.2909
  142MOL0     H19141   6.937  -1.098   5.826 -0.5719  0.0781 -0.2981
  142MOL0     H19142   6.961  -1.333   5.627 -1.5140  1.2066 -1.6412
  142MOL0     H19143   6.809  -1.248   5.652  0.4537  3.0230 -0.1846
  142MOL0     H19144   6.970  -1.433   5.821 -1.2743 -1.3350  2.2950
  142MOL0     H19145   6.877  -1.297   5.901 -0.3119  0.2106  0.0819
  142MOL0     H19146   6.738  -1.489   5.697  1.8140 -0.6834  0.6111
  142MOL0     H19147   6.673  -1.381   5.813  1.6057  2.9318 -0.8731
  142MOL0     H19148   6.670  -1.645   5.857  1.8271 -0.5030  0.3554
  142MOL0     H19149   6.822  -1.613   5.932 -1.0210 -2.4256 -1.0259
  142MOL0     H19150   7.431  -0.761   6.088  3.3308 -2.1245  1.2275
  142MOL0     H19151   7.478  -0.687   6.310 -2.4921  1.5913  1.4317
  142MOL0     H19152   7.572  -0.860   6.696 -3.6619 -1.0206 -0.7161
  142MOL0     H19153   7.698  -0.823   6.879  0.2081 -0.2476  1.4170
  142MOL0     H19154   9.114   0.155   7.785  0.5101 -1.1154  0.2634
  142MOL0     H19155   9.223   0.217   7.983  2.1954 -0.4305  0.2366
  142MOL0     H19156   9.607   0.482   8.115 -1.1840 -0.5918  0.0170
  142MOL0     H19157   9.778   0.591   8.223 -0.9722 -1.8264  0.4677
  142MOL0     H19158   9.656   0.915   8.532 -1.4041  1.5684 -1.4267
  142MOL0     H19159   9.688   0.991   8.371  4.4364  2.2548 -1.6942
  142MOL0     H19160   9.912   0.909   8.548 -1.2203 -0.7420  0.3330
  142MOL0     H19161   9.839   1.071   8.556  0.0614  1.5294 -1.4769
  142MOL0     H19162   9.872   1.052   8.278 -0.0684  0.6212 -0.6131
  142MOL0     H19163   9.984   0.928   8.316 -2.8152 -0.4364 -1.5625
  142MOL0     H19164  10.104   1.136   8.287 -0.2141  3.2901  0.2134
  142MOL0     H19165  10.030   1.212   8.428  0.8622  0.7361  1.5424
  142MOL0     H19166  10.290   0.939   8.622  1.3880  1.7630  0.1143
  142MOL0     H19167   9.489   0.846   8.411 -0.2396  0.2523  0.5247
  142MOL0     H19168   9.216   0.783   8.203  1.0662  0.3284 -0.2010
  142MOL0     H19169   9.215   0.687   8.347 -2.4906 -0.9404 -3.3415
  142MOL0     H19170   9.260   0.847   8.362 -3.2456  0.7797 -1.8521
  143MOL0     O19171   9.233   0.495  10.382  0.9551  0.3629 -1.0572
  143MOL0     C19172   9.229   0.541  10.268  0.1779 -0.6277 -0.3945
  143MOL0     O19173   9.309   0.635  10.223 -0.2217  0.2269  0.1402
  143MOL0     C19174   9.404   0.698  10.299 -0.1842  0.1884 -0.2847
  143MOL0     C19175   9.490   0.634  10.390 -0.4639  0.3012 -1.1167
  143MOL0     C19176   9.591   0.706  10.460  0.7883 -0.7405 -0.7705
  143MOL0     C19177   9.595   0.848  10.437 -0.4691 -0.2608 -0.2758
  143MOL0     O19178   9.693   0.926  10.505 -0.0118 -0.2929  0.6232
  143MOL0     C19179   9.627   0.972  10.621  0.1096 -0.3538  1.5516
  143MOL0     C19180   9.549   1.107  10.588  0.2365 -0.1892 -0.3223
  143MOL0     C19181   9.620   1.218  10.503 -1.3053 -0.5497  0.4293
  143MOL0     C19182   9.585   1.360  10.530 -0.5901 -0.2277 -0.7163
  143MOL0     C19183   9.443   1.398  10.479  0.0305 -0.2939  0.2932
  143MOL0     C19184   9.412   1.368  10.331 -0.3817 -0.8772 -1.0775
  143MOL0     C19185   9.516   1.444  10.231  0.5121  0.4482  0.1591
  143MOL0     C19186   9.471   1.593  10.209  0.3972 -0.1346  0.0919
  143MOL0     N19187   9.448   1.681  10.312 -0.1138 -0.7506 -0.8976
  143MOL0     C19188   9.553   1.736  10.390 -1.3791 -0.1505  0.1177
  143MOL0     C19189   9.478   1.809  10.479 -0.3833 -0.5708 -0.9266
  143MOL0     C19190   9.546   1.892  10.590  0.6220  0.0211  1.0918
  143MOL0     C19191   9.530   1.832  10.730 -0.0599  0.6789 -0.4840
  143MOL0     C19192   9.619   1.917  10.824 -0.5256  0.4453  1.0324
  143MOL0     C19193   9.617   1.856  10.956 -0.4552 -0.8153 -0.4624
  143MOL0     O19194   9.711   1.931  11.043  0.2139  0.9770  0.2322
  143MOL0     C19195   9.727   1.896  11.172  0.0688 -0.7822 -0.6061
  143MOL0     C19196   9.664   1.781  11.232 -0.2930 -0.7647  0.1325
  143MOL0     C19197   9.684   1.757  11.367  0.3509 -0.2069 -1.0166
  143MOL0     C19198   9.780   1.846  11.445  0.1809  0.9915  0.0505
  143MOL0     C19199   9.812   1.830  11.590 -0.0904 -0.0272 -0.2515
  143MOL0     O19200   9.763   1.713  11.651 -0.0909  0.4998  0.4203
  143MOL0     C19201   9.813   1.669  11.776 -0.7690 -0.0280  0.7523
  143MOL0     C19202   9.838   1.535  11.789 -0.4519 -0.3498  0.3917
  143MOL0     C19203   9.883   1.485  11.910 -0.8781 -0.1016  0.4024
  143MOL0     C19204   9.916   1.570  12.018  1.1554  0.3451  0.4548
  143MOL0     O19205   9.948   1.503  12.135  0.4547  0.5031 -0.1314
  143MOL0     C19206   9.965   1.562  12.264  0.5724 -0.5868 -0.0639
  143MOL0     C19207  10.019   1.452  12.360 -0.9387  1.4844 -0.3753
  143MOL0     C19208  10.017   1.495  12.507  0.1968 -0.1673  0.0386
  143MOL0     C19209  10.149   1.553  12.542  0.2310  0.6612 -0.7312
  143MOL0     C19210  10.148   1.648  12.661 -0.0295 -0.3646 -0.4275
  143MOL0     C19211  10.090   1.591  12.786  0.0218 -1.1166  0.5697
  143MOL0     C19212  10.078   1.686  12.897 -0.5608 -0.0810  1.0123
  143MOL0     C19213  10.217   1.750  12.921  0.0207  0.4145 -0.2579
  143MOL0    Cl19214  10.222   1.907  12.841  0.0824 -0.0314 -0.0621
  143MOL0     C19215   9.897   1.704  12.002 -0.2086 -0.3808 -0.9675
  143MOL0     C19216   9.837   1.759  11.885 -1.3887  0.9919 -0.1604
  143MOL0     O19217   9.877   1.916  11.647 -0.4167  0.0967 -0.3864
  143MOL0     C19218   9.858   1.946  11.374 -0.6614  0.5909  0.7868
  143MOL0     C19219   9.822   1.966  11.244 -0.0582  0.3194 -0.0032
  143MOL0     N19220   9.342   1.808  10.454 -0.8831 -0.2752  0.0642
  143MOL0     N19221   9.324   1.729  10.348 -0.9237  0.0552  0.3711
  143MOL0     C19222   9.511   0.901  10.344  0.2293 -0.1346 -0.3593
  143MOL0     C19223   9.425   0.832  10.269  0.0562  0.1876 -0.1854
  143MOL0     C19224   9.173   0.449  10.165 -0.3437 -0.8988  0.4678
  143MOL0     C19225   9.226   0.453  10.035 -0.2433 -0.3569  0.6601
  143MOL0     C19226   9.187   0.367   9.932  0.5844 -1.0726 -0.9223
  143MOL0     C19227   9.076   0.275   9.946  0.3608 -0.7109 -0.9160
  143MOL0     O19228   9.033   0.209   9.840 -0.0889 -0.3301  0.0438
  143MOL0     C19229   9.015   0.066   9.851 -0.5676  0.5547 -0.3489
  143MOL0     C19230   9.151  -0.020   9.861  0.9866  0.0617  0.6722
  143MOL0     C19231   9.127  -0.160   9.799  0.4401  0.3521 -0.9207
  143MOL0     C19232   9.030  -0.251   9.881  0.4153 -0.2597  1.1990
  143MOL0     C19233   9.089  -0.259  10.014 -0.8899  0.6133  0.5862
  143MOL0     C19234   9.138  -0.265  10.122 -0.6121  0.2543 -0.3592
  143MOL0     C19235   9.040   0.265  10.084 -0.3425  0.0811 -0.1490
  143MOL0     C19236   9.084   0.346  10.189 -1.0245  0.0865  0.5695
  143MOL0     C19237   9.016   0.311  10.326  0.7468 -0.5370  0.7881
  143MOL0     H19238   9.480   0.528  10.410  1.2972  0.4205  0.7103
  143MOL0     H19239   9.655   0.659  10.535  0.2213  2.4159  1.9070
  143MOL0     H19240   9.572   0.892  10.672 -0.3305 -2.6921 -2.1528
  143MOL0     H19241   9.699   1.000  10.699  0.1341  0.2055  1.3284
  143MOL0     H19242   9.518   1.151  10.684 -1.8184 -2.7361  0.2882
  143MOL0     H19243   9.454   1.082  10.541 -0.8589  0.5804  1.3960
  143MOL0     H19244   9.594   1.207  10.397  0.3901 -0.2392 -0.0561
  143MOL0     H19245   9.729   1.209  10.514 -1.2530 -4.0824 -1.3280
  143MOL0     H19246   9.579   1.372  10.639 -2.7860  0.6967 -0.8814
  143MOL0     H19247   9.657   1.428  10.483  0.1428 -2.0695 -2.4230
  143MOL0     H19248   9.372   1.341  10.541 -0.5733  0.6163  0.4580
  143MOL0     H19249   9.419   1.503  10.494  0.9754  0.3815 -2.3629
  143MOL0     H19250   9.415   1.260  10.320 -0.3112 -1.0705  0.5340
  143MOL0     H19251   9.318   1.415  10.301  0.9634  1.7621 -1.5432
  143MOL0     H19252   9.515   1.383  10.140  1.8550 -3.0665  2.2985
  143MOL0     H19253   9.617   1.431  10.272  0.6359 -1.6637 -0.6464
  143MOL0     H19254   9.562   1.628  10.158  0.3037 -1.3126 -0.9144
  143MOL0     H19255   9.388   1.612  10.141  1.7466 -0.0112 -1.5900
  143MOL0     H19256   9.660   1.721  10.379 -1.9624 -4.1771 -2.0178
  143MOL0     H19257   9.646   1.922  10.556  0.3617 -1.6490 -1.3779
  143MOL0     H19258   9.494   1.988  10.594  1.1343  0.3599 -0.1294
  143MOL0     H19259   9.424   1.853  10.746 -0.0541  0.5786 -0.3116
  143MOL0     H19260   9.551   1.725  10.739 -0.9361  0.6367  1.4997
  143MOL0     H19261   9.574   2.017  10.817  2.7781  1.9162 -1.9006
  143MOL0     H19262   9.721   1.932  10.788  0.4265  2.8786  4.2379
  143MOL0     H19263   9.643   1.752  10.935  0.6314 -0.6169 -0.1403
  143MOL0     H19264   9.515   1.852  10.996 -0.4967  0.1302 -0.4401
  143MOL0     H19265   9.604   1.718  11.168 -0.7206  1.6405 -2.0090
  143MOL0     H19266   9.625   1.687  11.427 -1.0832  2.2052  0.5567
  143MOL0     H19267   9.819   1.478  11.699  2.9036  0.3151 -0.9224
  143MOL0     H19268   9.908   1.380  11.914  2.2716  0.4323 -1.9308
  143MOL0     H19269  10.034   1.647  12.257 -0.0023 -0.1701 -0.8161
  143MOL0     H19270   9.867   1.592  12.302 -0.2268 -0.9041 -1.7995
  143MOL0     H19271   9.959   1.360  12.349  1.2011  0.0900 -0.9748
  143MOL0     H19272  10.120   1.425  12.329 -0.3112  1.7811  1.3200
  143MOL0     H19273   9.944   1.574  12.521 -1.5577 -0.9892 -3.4885
  143MOL0     H19274   9.987   1.405  12.563  0.3682 -1.8721 -2.4556
  143MOL0     H19275  10.196   1.606  12.458  2.1678  3.1063  1.7161
  143MOL0     H19276  10.228   1.483  12.569  0.6643  1.5059  0.2572
  143MOL0     H19277  10.093   1.741  12.647 -2.3914 -0.6551  4.5628
  143MOL0     H19278  10.255   1.668  12.667 -0.2927  1.2215 -0.6136
  143MOL0     H19279   9.991   1.545  12.773  0.7817 -2.4371 -0.8445
  143MOL0     H19280  10.159   1.515  12.823  0.8069  0.3040  2.1916
  143MOL0     H19281  10.047   1.634  12.988 -3.3789 -0.6942 -0.2063
  143MOL0     H19282  10.004   1.760  12.866 -2.3373 -1.8747  0.7783
  143MOL0     H19283  10.236   1.751  13.028  2.6227 -1.6368 -0.6129
  143MOL0     H19284  10.298   1.689  12.882  0.2820  1.2492 -1.0678
  143MOL0     H19285   9.909   1.770  12.088 -0.5618 -2.4651  0.7747
  143MOL0     H19286   9.815   1.865  11.887 -0.4798  1.1819  1.5326
  143MOL0     H19287   9.923   2.013  11.429  0.3592  0.8610 -0.7095
  143MOL0     H19288   9.855   2.065  11.214  0.7039 -0.1410 -0.7090
  143MOL0     H19289   9.512   1.008  10.324  0.4956  0.0523  0.5895
  143MOL0     H19290   9.369   0.884  10.192  0.1173  0.9248  0.2539
  143MOL0     H19291   9.306   0.520  10.006  0.5015 -2.3207 -2.2443
  143MOL0     H19292   9.222   0.393   9.833 -1.1196 -0.7420 -1.4662
  143MOL0     H19293   8.972   0.047   9.753 -1.6551 -0.0435  0.2280
  143MOL0     H19294   8.944   0.029   9.926 -1.5125 -1.8872 -2.3196
  143MOL0     H19295   9.186  -0.026   9.965 -1.4889 -3.2942  1.4823
  143MOL0     H19296   9.235   0.031   9.812  0.8299  0.5219  0.8770
  143MOL0     H19297   9.227  -0.206   9.803 -0.0398 -1.1323  5.7171
  143MOL0     H19298   9.095  -0.161   9.694 -1.7926 -2.4660 -0.3374
  143MOL0     H19299   8.934  -0.200   9.895  1.9346  2.9021  0.8529
  143MOL0     H19300   9.013  -0.351   9.840 -2.2998  0.6231 -0.0873
  143MOL0     H19301   9.181  -0.267  10.220 -0.8343  0.2881 -0.2624
  143MOL0     H19302   8.957   0.196  10.096  0.4019 -1.1954 -1.7541
  143MOL0     H19303   8.939   0.236  10.307 -1.8525  2.1029  0.2669
  143MOL0     H19304   9.087   0.260  10.392 -1.4478 -1.3029  2.6703
  143MOL0     H19305   8.974   0.396  10.380 -2.5048 -2.2046  1.1079
  144MOL0     O19306  11.188   5.702   4.312 -0.3208  0.2244 -0.1358
  144MOL0     C19307  11.259   5.762   4.398 -0.0805  0.4070 -0.2721
  144MOL0     O19308  11.378   5.832   4.376 -0.2237  0.1501  0.1038
  144MOL0     C19309  11.432   5.853   4.252  0.5565 -0.5242 -0.2950
  144MOL0     C19310  11.397   5.796   4.124 -0.1225 -0.1004 -0.1866
  144MOL0     C19311  11.484   5.815   4.012 -0.8093  0.1534 -0.4244
  144MOL0     C19312  11.600   5.899   4.028 -0.0212  0.0319 -0.0288
  144MOL0     O19313  11.692   5.924   3.928  0.1637  0.1815  0.5067
  144MOL0     C19314  11.651   5.981   3.798 -0.0540  0.3806 -0.1602
  144MOL0     C19315  11.606   6.132   3.807 -0.9296  1.2307 -0.2041
  144MOL0     C19316  11.456   6.165   3.833 -0.7774  0.1692  0.1698
  144MOL0     C19317  11.355   6.120   3.722 -0.2503  0.3298 -0.0198
  144MOL0     C19318  11.200   6.113   3.771 -1.2657 -0.0765  0.2219
  144MOL0     C19319  11.120   6.092   3.639  0.6402 -0.0479 -0.6397
  144MOL0     C19320  10.974   6.051   3.669  0.1047  0.5481 -0.3061
  144MOL0     C19321  10.885   6.043   3.538  0.7819  0.5466  0.3993
  144MOL0     N19322  10.739   6.087   3.553  0.1391  0.2186  0.2263
  144MOL0     C19323  10.672   6.185   3.633 -0.1633  0.5787 -0.7349
  144MOL0     C19324  10.540   6.186   3.590  0.6802  0.0444 -0.0621
  144MOL0     C19325  10.434   6.274   3.649 -0.8115  0.6821  0.3573
  144MOL0     C19326  10.467   6.422   3.601  0.1747 -0.3805  0.2810
  144MOL0     C19327  10.437   6.439   3.454  0.5533  0.0998 -1.0466
  144MOL0     C19328  10.466   6.569   3.390 -1.1070  0.2029 -0.1433
  144MOL0     O19329  10.418   6.675   3.466 -0.1992 -0.0861  0.2212
  144MOL0     C19330  10.399   6.798   3.415 -0.9670 -1.1229  0.3407
  144MOL0     C19331  10.490   6.853   3.325  0.1931 -0.7775 -0.0913
  144MOL0     C19332  10.467   6.981   3.286 -0.3675  0.7651  0.4568
  144MOL0     C19333  10.367   7.068   3.334 -0.4800 -0.2289 -0.4800
  144MOL0     C19334  10.341   7.200   3.277 -0.0812 -0.0789  0.7855
  144MOL0     O19335  10.431   7.253   3.195 -0.0499 -0.3603  0.8297
  144MOL0     C19336  10.425   7.384   3.141  0.3336 -0.2164  0.7182
  144MOL0     C19337  10.394   7.506   3.214  0.2484  0.8117 -0.2321
  144MOL0     C19338  10.403   7.631   3.156  1.4292 -0.2275 -0.6325
  144MOL0     C19339  10.457   7.632   3.026 -1.1767  0.3203  0.2849
  144MOL0     O19340  10.474   7.761   2.986 -0.3798  0.2875  0.8330
  144MOL0     C19341  10.610   7.780   2.937  0.5113 -0.7263  0.0900
  144MOL0     C19342  10.620   7.928   2.908 -0.2176  0.0093  0.0242
  144MOL0     C19343  10.536   7.972   2.779  0.3573  0.7534  0.0378
  144MOL0     C19344  10.601   7.915   2.648  0.4670  0.2017 -0.6010
  144MOL0     C19345  10.749   7.962   2.628  1.3019 -0.0895 -0.7192
  144MOL0     C19346  10.779   7.958   2.483 -1.2384 -1.5354 -0.1393
  144MOL0     C19347  10.750   8.095   2.431 -0.5784  0.5172  0.0758
  144MOL0     C19348  10.757   8.098   2.279  0.7997 -1.1779  0.1905
  144MOL0    Cl19349  10.914   8.046   2.210 -0.2667 -0.2317 -0.0730
  144MOL0     C19350  10.492   7.519   2.958  0.3742 -0.0208 -0.9314
  144MOL0     C19351  10.483   7.397   3.014 -0.3300  0.3126 -0.2301
  144MOL0     O19352  10.245   7.261   3.316 -0.3476  0.3009 -0.7169
  144MOL0     C19353  10.296   7.016   3.439  0.7054 -0.5776 -0.0114
  144MOL0     C19354  10.316   6.889   3.478 -0.4039  0.6606 -0.1715
  144MOL0     N19355  10.534   6.090   3.492  0.0880 -0.6899 -0.1529
  144MOL0     N19356  10.656   6.051   3.451  0.4235 -0.2869  0.0247
  144MOL0     C19357  11.635   5.953   4.150 -0.0130 -0.6989  0.5635
  144MOL0     C19358  11.556   5.924   4.264  0.0770  0.7892 -1.5255
  144MOL0     C19359  11.234   5.769   4.537 -1.3172 -0.5801  0.0622
  144MOL0     C19360  11.332   5.694   4.606 -0.9553  0.4463 -0.3341
  144MOL0     C19361  11.322   5.692   4.742 -0.4940  0.5041  0.5356
  144MOL0     C19362  11.229   5.764   4.821 -0.6155 -0.2198  0.5914
  144MOL0     O19363  11.243   5.746   4.954 -0.3562  0.2116  0.6200
  144MOL0     C19364  11.154   5.812   5.038 -0.2273 -0.5174 -0.2049
  144MOL0     C19365  11.011   5.752   5.053  0.2855 -0.1669  0.4535
  144MOL0     C19366  10.900   5.867   5.050  0.6631  0.0846  0.0746
  144MOL0     C19367  10.762   5.824   5.107 -1.0965  0.2114 -1.7672
  144MOL0     C19368  10.669   5.933   5.103  0.5136 -0.1023 -0.1673
  144MOL0     C19369  10.582   6.014   5.092  0.2828  0.0814 -0.7326
  144MOL0     C19370  11.142   5.833   4.744  0.0001 -0.1646  0.1268
  144MOL0     C19371  11.131   5.830   4.600  0.3861 -0.2075 -1.0050
  144MOL0     C19372  11.022   5.909   4.536  0.4662  0.3432  0.0351
  144MOL0     H19373  11.311   5.732   4.111 -1.3085  1.1971  0.9520
  144MOL0     H19374  11.479   5.760   3.918  0.7799 -0.5363 -0.1423
  144MOL0     H19375  11.729   5.960   3.724 -1.2273 -2.3938 -0.7184
  144MOL0     H19376  11.568   5.919   3.764  0.3630  1.0440 -2.5617
  144MOL0     H19377  11.649   6.174   3.715  3.8116 -3.2646 -0.5390
  144MOL0     H19378  11.663   6.165   3.894 -2.8309 -1.7558  2.4170
  144MOL0     H19379  11.448   6.273   3.845  2.2630  0.5278 -0.4034
  144MOL0     H19380  11.431   6.118   3.928 -0.1832  3.2700  1.9985
  144MOL0     H19381  11.367   6.197   3.645 -2.4847  2.1570  1.3356
  144MOL0     H19382  11.393   6.023   3.688  0.3108 -0.5707  2.9473
  144MOL0     H19383  11.192   6.023   3.833 -1.5249  0.7710  1.4442
  144MOL0     H19384  11.165   6.202   3.823 -0.8689  0.3424 -0.2112
  144MOL0     H19385  11.120   6.181   3.575  2.5694 -0.0162 -0.6510
  144MOL0     H19386  11.179   6.018   3.583  0.3722 -1.2533  0.6290
  144MOL0     H19387  10.930   6.131   3.729  3.0946 -0.4189  3.5235
  144MOL0     H19388  10.981   5.952   3.715  2.0925  0.9561  0.3547
  144MOL0     H19389  10.927   6.098   3.454  0.0404 -1.0786 -1.0922
  144MOL0     H19390  10.890   5.943   3.495 -0.9253  0.2493  0.8229
  144MOL0     H19391  10.710   6.239   3.718 -2.9403 -0.2466  1.1649
  144MOL0     H19392  10.335   6.245   3.614 -0.7484 -0.9184  1.3882
  144MOL0     H19393  10.431   6.267   3.758  0.3828 -2.5923  0.3079
  144MOL0     H19394  10.398   6.486   3.657  0.8928  2.0278 -1.4491
  144MOL0     H19395  10.570   6.454   3.621  1.5983 -3.0365 -2.0548
  144MOL0     H19396  10.329   6.434   3.442  0.6332 -0.4189 -1.5864
  144MOL0     H19397  10.476   6.351   3.403  3.7555 -1.0313  2.8460
  144MOL0     H19398  10.434   6.557   3.286  1.0261 -0.7531 -0.7558
  144MOL0     H19399  10.576   6.570   3.390 -1.0887 -0.6853  0.1829
  144MOL0     H19400  10.561   6.787   3.276  0.2181 -0.7224 -0.1291
  144MOL0     H19401  10.538   6.998   3.206 -0.0499 -1.5194  0.1830
  144MOL0     H19402  10.372   7.497   3.320 -2.6073  0.4287 -0.7702
  144MOL0     H19403  10.366   7.721   3.203 -1.6028 -1.8309  0.2839
  144MOL0     H19404  10.680   7.760   3.020 -1.0018 -0.3594  1.5144
  144MOL0     H19405  10.634   7.726   2.845 -2.8265  1.1022 -2.0334
  144MOL0     H19406  10.586   7.987   2.993  0.2482  0.1951  0.0839
  144MOL0     H19407  10.723   7.962   2.897 -0.4939  1.1941  0.9207
  144MOL0     H19408  10.440   7.919   2.780  1.1134 -0.6722  1.1323
  144MOL0     H19409  10.521   8.080   2.773  0.9518  0.7488 -4.5643
  144MOL0     H19410  10.526   7.947   2.575 -2.2774 -3.0584  0.5611
  144MOL0     H19411  10.593   7.806   2.648 -2.1836  0.2019  3.7152
  144MOL0     H19412  10.814   7.883   2.669 -1.4826 -3.0188 -1.5650
  144MOL0     H19413  10.780   8.055   2.676  1.4702  0.4739 -1.8827
  144MOL0     H19414  10.886   7.940   2.469  0.4382  2.6784  4.4843
  144MOL0     H19415  10.712   7.890   2.431 -0.8852 -1.1994 -1.0627
  144MOL0     H19416  10.817   8.165   2.482 -1.1417  1.7407 -0.8206
  144MOL0     H19417  10.649   8.129   2.454 -0.2177  1.1608  0.7662
  144MOL0     H19418  10.689   8.024   2.236  1.9737 -0.8353 -2.4671
  144MOL0     H19419  10.726   8.194   2.236 -1.1208 -2.4877 -1.5366
  144MOL0     H19420  10.539   7.518   2.860  0.5236 -0.2879 -0.8574
  144MOL0     H19421  10.518   7.309   2.960  0.6607 -0.1577  1.1085
  144MOL0     H19422  10.222   7.082   3.483 -0.2288  0.3488 -2.7735
  144MOL0     H19423  10.261   6.842   3.559  0.9243 -2.2027 -0.7964
  144MOL0     H19424  11.719   6.021   4.152 -2.5019  2.6292  1.0656
  144MOL0     H19425  11.599   5.949   4.360  1.4590 -5.9920  0.1825
  144MOL0     H19426  11.409   5.641   4.552 -3.0706 -1.6311 -1.5024
  144MOL0     H19427  11.388   5.628   4.799 -0.0013  2.4405  2.2734
  144MOL0     H19428  11.146   5.912   4.995  2.3384  0.3316  1.1196
  144MOL0     H19429  11.199   5.814   5.137 -0.9093 -0.6530  0.1108
  144MOL0     H19430  11.013   5.706   5.152 -0.5559 -1.3859 -0.0735
  144MOL0     H19431  11.005   5.669   4.982  0.2030  1.0312 -0.9961
  144MOL0     H19432  10.882   5.898   4.947  1.0794  0.0891  0.0016
  144MOL0     H19433  10.919   5.967   5.088  1.9444 -0.0860 -0.0818
  144MOL0     H19434  10.718   5.751   5.038 -1.9384 -0.5771 -0.4408
  144MOL0     H19435  10.770   5.788   5.210  2.2817  1.9737 -1.2662
  144MOL0     H19436  10.518   6.099   5.082  1.3699  1.5848  3.3250
  144MOL0     H19437  11.059   5.887   4.788 -1.3330 -0.2809 -2.0924
  144MOL0     H19438  11.009   5.858   4.440  2.7074  0.6462 -0.4871
  144MOL0     H19439  10.934   5.914   4.601  0.5400 -2.8276  0.4923
  144MOL0     H19440  11.055   6.012   4.519  1.8731 -0.6255 -4.7974
  145MOL0     O19441   2.003   8.258   3.380  0.0076 -0.9088  0.4001
  145MOL0     C19442   2.048   8.308   3.279 -0.3089 -0.4149  0.1112
  145MOL0     O19443   1.976   8.394   3.207  0.5300 -0.5367  0.2603
  145MOL0     C19444   1.851   8.419   3.251 -0.1932 -0.3979  0.5379
  145MOL0     C19445   1.821   8.521   3.341  0.6807 -0.7162  0.2110
  145MOL0     C19446   1.696   8.571   3.364 -0.2783  0.2688  0.0704
  145MOL0     C19447   1.587   8.504   3.298  0.2329 -0.6947 -0.2016
  145MOL0     O19448   1.450   8.535   3.314  0.1343  0.3170 -0.2709
  145MOL0     C19449   1.406   8.572   3.452 -0.8936  0.0106 -0.0946
  145MOL0     C19450   1.385   8.456   3.537 -0.9463  0.7234 -1.2040
  145MOL0     C19451   1.241   8.409   3.515  0.8716 -0.4862  0.3976
  145MOL0     C19452   1.199   8.282   3.591 -0.6861  0.7681 -0.6119
  145MOL0     C19453   1.244   8.142   3.547 -0.1861 -0.1839  0.2860
  145MOL0     C19454   1.167   8.039   3.622 -0.1994  0.4604 -0.5382
  145MOL0     C19455   1.194   7.905   3.558  0.2180 -0.9765 -0.2203
  145MOL0     C19456   1.335   7.852   3.530 -1.4486 -0.1272  0.0149
  145MOL0     N19457   1.338   7.702   3.507  0.1248 -0.8198  0.0028
  145MOL0     C19458   1.352   7.643   3.385 -1.3000  0.5185  0.0420
  145MOL0     C19459   1.351   7.513   3.412  0.0689  0.3492 -0.1726
  145MOL0     C19460   1.358   7.420   3.289 -0.2408  0.3345 -0.2818
  145MOL0     C19461   1.229   7.409   3.219  0.5546  0.3030 -0.3840
  145MOL0     C19462   1.125   7.333   3.310 -0.0349 -0.7034 -0.7669
  145MOL0     C19463   0.986   7.366   3.261 -0.1405  0.0710  0.9571
  145MOL0     O19464   0.966   7.506   3.251 -0.0153  0.0700 -0.2589
  145MOL0     C19465   0.901   7.571   3.350 -0.3757  0.3945  0.7419
  145MOL0     C19466   0.761   7.556   3.352  0.0220  0.0847 -1.2139
  145MOL0     C19467   0.696   7.615   3.462 -0.9004  0.0011 -0.2053
  145MOL0     C19468   0.760   7.671   3.566  0.9541  0.5329 -0.7719
  145MOL0     C19469   0.680   7.734   3.680  0.0511 -1.0212  0.0195
  145MOL0     O19470   0.544   7.751   3.658 -0.4955 -0.0665  0.5116
  145MOL0     C19471   0.446   7.813   3.734  0.8578 -1.4385  0.1671
  145MOL0     C19472   0.334   7.850   3.654 -1.0123  0.5890  0.1770
  145MOL0     C19473   0.232   7.920   3.700 -1.2667  0.6651  0.0030
  145MOL0     C19474   0.235   7.958   3.838  0.3626 -0.7396 -1.1653
  145MOL0     O19475   0.111   8.018   3.881  0.1533  1.1273 -0.6834
  145MOL0     C19476   0.123   8.143   3.940 -0.6582  1.0446  0.3664
  145MOL0     C19477  -0.011   8.199   3.961  1.1921  0.3740 -0.8509
  145MOL0     C19478  -0.077   8.268   3.837 -0.7542 -0.2792  0.2051
  145MOL0     C19479  -0.116   8.175   3.721 -0.3522 -0.8872 -1.2759
  145MOL0     C19480  -0.218   8.060   3.769 -0.1600 -1.0674  0.6918
  145MOL0     C19481  -0.303   8.003   3.647 -0.4067 -0.2692 -0.2542
  145MOL0     C19482  -0.216   7.974   3.528  0.1545  0.8120  0.7487
  145MOL0     C19483  -0.296   7.904   3.424 -0.1447  0.8788  0.4279
  145MOL0    Cl19484  -0.213   7.921   3.261  0.4636 -0.4938  0.0731
  145MOL0     C19485   0.343   7.929   3.917 -1.2602 -0.0918  1.0142
  145MOL0     C19486   0.453   7.856   3.865  0.0831  0.2776 -0.2856
  145MOL0     O19487   0.732   7.761   3.790 -0.2655 -0.0924 -0.9206
  145MOL0     C19488   0.903   7.665   3.576 -0.9997 -0.8013 -0.5683
  145MOL0     C19489   0.977   7.626   3.456  0.3990  0.4039  0.3534
  145MOL0     N19490   1.341   7.486   3.549 -0.3428 -0.3494 -0.4872
  145MOL0     N19491   1.336   7.603   3.600 -0.3397  0.5099  0.5997
  145MOL0     C19492   1.615   8.405   3.203  0.3204  0.2498 -0.2814
  145MOL0     C19493   1.751   8.370   3.174 -0.3003 -0.2751  0.2899
  145MOL0     C19494   2.166   8.237   3.229 -0.1589 -0.7717 -0.1668
  145MOL0     C19495   2.265   8.204   3.317 -0.3253  1.1621  0.3844
  145MOL0     C19496   2.381   8.134   3.281 -0.7733 -0.2572  0.0418
  145MOL0     C19497   2.384   8.082   3.153  0.1241 -0.2651  0.1934
  145MOL0     O19498   2.482   7.994   3.099  0.5006  0.1890 -0.0715
  145MOL0     C19499   2.573   7.911   3.182 -0.2827 -0.9398 -0.0359
  145MOL0     C19500   2.625   7.809   3.084 -0.1242  0.9145 -0.2475
  145MOL0     C19501   2.712   7.705   3.160 -0.7770 -0.3271 -0.1033
  145MOL0     C19502   2.829   7.679   3.071 -0.5944  0.3642  0.3119
  145MOL0     C19503   2.805   7.613   2.937 -0.5568  0.4023 -0.7278
  145MOL0     C19504   2.799   7.558   2.830 -0.3092 -0.0175  0.2121
  145MOL0     C19505   2.294   8.124   3.052 -0.0597  0.0958 -0.7949
  145MOL0     C19506   2.181   8.199   3.089 -0.5288 -1.0534  0.1743
  145MOL0     C19507   2.072   8.226   2.982  0.6461 -1.0230  0.5390
  145MOL0     H19508   1.903   8.575   3.387  1.3241 -1.1128 -0.4568
  145MOL0     H19509   1.681   8.663   3.420 -2.2280 -0.6191  1.1210
  145MOL0     H19510   1.480   8.635   3.502 -1.9262 -0.9319  2.8557
  145MOL0     H19511   1.312   8.627   3.441 -0.3283  1.2594  1.1078
  145MOL0     H19512   1.409   8.471   3.643  1.6533  0.0734 -1.6358
  145MOL0     H19513   1.449   8.376   3.501 -0.1660  0.0802  1.3576
  145MOL0     H19514   1.237   8.381   3.409 -0.9779  0.5986  0.1432
  145MOL0     H19515   1.169   8.488   3.536 -0.0150 -1.2539  0.3362
  145MOL0     H19516   1.248   8.300   3.687 -0.7468  1.7231 -0.7501
  145MOL0     H19517   1.095   8.282   3.624 -0.0677  0.4808  1.5099
  145MOL0     H19518   1.224   8.137   3.439  1.1446 -0.0577  0.0137
  145MOL0     H19519   1.352   8.128   3.557  0.4125  3.0332 -0.5075
  145MOL0     H19520   1.212   8.031   3.722 -0.6121  0.6362 -0.3390
  145MOL0     H19521   1.058   8.041   3.617 -0.1694  0.2144 -1.4847
  145MOL0     H19522   1.129   7.879   3.474 -0.1838  1.0249 -0.5633
  145MOL0     H19523   1.155   7.837   3.635  0.0609 -1.5956 -0.8315
  145MOL0     H19524   1.400   7.909   3.462  2.1543 -0.5928  2.7288
  145MOL0     H19525   1.382   7.864   3.628 -1.9795  0.4556  0.1978
  145MOL0     H19526   1.358   7.676   3.282  1.0181 -2.9003 -1.0809
  145MOL0     H19527   1.438   7.450   3.220  1.9861 -2.8148  0.7505
  145MOL0     H19528   1.394   7.320   3.315  0.3220  0.6953  0.3602
  145MOL0     H19529   1.197   7.511   3.199  0.6164  0.4538  0.2471
  145MOL0     H19530   1.250   7.371   3.119 -1.6291 -2.2766  0.0134
  145MOL0     H19531   1.134   7.368   3.414  1.6292  1.2660 -1.4847
  145MOL0     H19532   1.146   7.226   3.314  0.3541 -0.5976  0.7222
  145MOL0     H19533   0.908   7.319   3.321 -1.7824  3.6139  1.8289
  145MOL0     H19534   0.968   7.330   3.159 -0.2578 -1.2034  1.4178
  145MOL0     H19535   0.715   7.507   3.267  1.8744 -1.7945 -1.2085
  145MOL0     H19536   0.587   7.610   3.460 -0.8872 -0.2216 -0.3790
  145MOL0     H19537   0.327   7.810   3.553  4.4936 -3.4394  0.9044
  145MOL0     H19538   0.141   7.929   3.642 -0.8729  0.4545 -0.6632
  145MOL0     H19539   0.167   8.138   4.040  1.8617 -2.3537 -0.7054
  145MOL0     H19540   0.190   8.206   3.881 -0.3484  2.3858  2.0847
  145MOL0     H19541  -0.081   8.123   3.997 -0.7823  1.5287 -2.0603
  145MOL0     H19542  -0.007   8.276   4.038  0.5146 -0.1504 -0.2821
  145MOL0     H19543  -0.165   8.323   3.870  0.9571  0.7145  3.6067
  145MOL0     H19544  -0.010   8.345   3.798 -1.7928  0.3439 -0.3913
  145MOL0     H19545  -0.028   8.129   3.676 -1.2129 -2.7655 -1.1415
  145MOL0     H19546  -0.162   8.228   3.637  1.6502 -2.0104 -3.1798
  145MOL0     H19547  -0.287   8.097   3.845  0.3834  2.3713 -0.2999
  145MOL0     H19548  -0.158   7.975   3.803  0.2801 -1.2702 -0.5352
  145MOL0     H19549  -0.336   7.903   3.675 -3.4537  0.3311 -1.2620
  145MOL0     H19550  -0.390   8.067   3.628 -0.7364 -0.8984 -0.9315
  145MOL0     H19551  -0.133   7.907   3.551 -1.5692 -1.5275  0.4934
  145MOL0     H19552  -0.178   8.060   3.473 -1.6979  0.9179 -0.4833
  145MOL0     H19553  -0.287   7.796   3.442 -1.4205  1.0892  2.5651
  145MOL0     H19554  -0.395   7.949   3.422  0.0498  1.3088  0.2678
  145MOL0     H19555   0.345   7.960   4.021  0.3250  1.9127  0.4535
  145MOL0     H19556   0.535   7.815   3.923 -0.6391  0.3606  0.8283
  145MOL0     H19557   0.951   7.721   3.655  1.6017 -0.8392 -2.0228
  145MOL0     H19558   1.084   7.644   3.446  0.0777  1.5613 -1.4866
  145MOL0     H19559   1.539   8.377   3.131  1.7998 -3.5203 -0.5939
  145MOL0     H19560   1.776   8.291   3.104  3.8684  2.3654 -1.5855
  145MOL0     H19561   2.258   8.211   3.425 -2.6650 -3.2821  0.7496
  145MOL0     H19562   2.463   8.109   3.347  1.0482 -1.9199 -2.6568
  145MOL0     H19563   2.531   7.863   3.272  2.5806 -4.1351 -0.2082
  145MOL0     H19564   2.661   7.962   3.223 -2.2970  1.7399  1.2901
  145MOL0     H19565   2.688   7.859   3.011 -1.2512  0.7931 -1.3418
  145MOL0     H19566   2.545   7.761   3.026  0.3517 -2.4722  1.6121
  145MOL0     H19567   2.667   7.608   3.184  1.1666 -1.9662 -2.5041
  145MOL0     H19568   2.746   7.761   3.247 -2.0868  3.9210 -2.0141
  145MOL0     H19569   2.887   7.767   3.043  0.1985 -0.7910 -1.8803
  145MOL0     H19570   2.903   7.619   3.126 -0.5727  0.2102  0.1159
  145MOL0     H19571   2.779   7.517   2.733 -1.8290 -2.7218  1.5529
  145MOL0     H19572   2.315   8.085   2.953  1.7731 -2.1017  0.3683
  145MOL0     H19573   2.118   8.195   2.887 -3.0224 -2.0370 -1.0733
  145MOL0     H19574   1.981   8.168   3.001 -2.6538  3.4804  0.0496
  145MOL0     H19575   2.038   8.330   2.984  3.1681  0.0114 -2.4516
  146MOL0     O19576   8.505  10.763   7.787 -0.3361  0.6323  0.6397
  146MOL0     C19577   8.569  10.796   7.891 -0.7983  0.6280  0.8601
  146MOL0     O19578   8.517  10.844   8.001 -0.0382 -1.2138 -0.1880
  146MOL0     C19579   8.390  10.887   8.000  0.5646 -0.4400  0.1449
  146MOL0     C19580   8.289  10.795   7.993 -0.5162  0.5164  0.1637
  146MOL0     C19581   8.151  10.836   7.983 -0.9513 -0.0755 -0.0291
  146MOL0     C19582   8.125  10.973   7.981 -0.1099 -0.0474  0.5466
  146MOL0     O19583   7.998  11.007   7.948 -0.4518  0.1919 -0.5408
  146MOL0     C19584   7.964  11.142   7.930  0.3607  0.0191 -0.4258
  146MOL0     C19585   7.820  11.168   7.879  0.4029  0.9756  0.3673
  146MOL0     C19586   7.714  11.075   7.940 -0.6547 -0.6481 -0.0113
  146MOL0     C19587   7.692  11.090   8.100  0.2119 -0.3394  0.3018
  146MOL0     C19588   7.552  11.030   8.142 -0.4881  1.3439 -0.1702
  146MOL0     C19589   7.442  11.131   8.139  0.6091  0.0963  0.4088
  146MOL0     C19590   7.317  11.051   8.113  0.2170 -0.3462  1.2051
  146MOL0     C19591   7.187  11.141   8.119 -0.3669 -0.5599  0.7838
  146MOL0     N19592   7.060  11.071   8.122  0.3505  0.2383  0.4046
  146MOL0     C19593   6.956  11.115   8.050  0.6286 -0.0146 -0.1553
  146MOL0     C19594   6.858  11.035   8.088  0.5293  0.1129 -0.2554
  146MOL0     C19595   6.711  11.064   8.076 -0.1178 -0.2104  0.4525
  146MOL0     C19596   6.654  11.051   8.210  0.8702 -0.2395  0.5308
  146MOL0     C19597   6.513  11.115   8.227  0.4351 -0.8027  0.6983
  146MOL0     C19598   6.447  11.073   8.360  0.4383  0.3151 -0.3345
  146MOL0     O19599   6.533  11.100   8.472  0.5391 -0.2768  0.5446
  146MOL0     C19600   6.530  11.223   8.532  0.3825 -0.6341  1.0686
  146MOL0     C19601   6.627  11.240   8.629  0.1423  0.6070  0.1818
  146MOL0     C19602   6.625  11.339   8.720  0.5484 -0.1005 -0.4932
  146MOL0     C19603   6.517  11.428   8.727 -0.8510 -0.4955 -0.6833
  146MOL0     C19604   6.516  11.536   8.824 -0.2584  0.1622 -0.2108
  146MOL0     O19605   6.632  11.594   8.860 -0.2889  0.7454 -0.0641
  146MOL0     C19606   6.618  11.682   8.965  0.5361 -0.5787  0.0583
  146MOL0     C19607   6.582  11.816   8.939 -0.1608  0.6790  0.1075
  146MOL0     C19608   6.559  11.910   9.049 -0.4658 -0.2360  0.4865
  146MOL0     C19609   6.589  11.873   9.178 -0.1815 -0.1936  0.8908
  146MOL0     O19610   6.582  11.974   9.266  0.1856 -0.2028 -1.1423
  146MOL0     C19611   6.528  11.951   9.392 -0.5675  0.7712 -0.4976
  146MOL0     C19612   6.431  12.074   9.440 -0.7887  0.7332  0.0582
  146MOL0     C19613   6.295  12.073   9.353 -0.9783  0.8054  0.1615
  146MOL0     C19614   6.235  12.210   9.294 -0.2308  0.6960 -0.8512
  146MOL0     C19615   6.345  12.289   9.216 -0.3831  0.0428  0.1920
  146MOL0     C19616   6.288  12.410   9.141 -0.0353 -0.7686  0.2258
  146MOL0     C19617   6.193  12.498   9.233 -0.0309  0.5970  0.7888
  146MOL0     C19618   6.168  12.640   9.173  0.6097  0.2931  0.1827
  146MOL0    Cl19619   6.082  12.744   9.294 -0.0524  0.4278 -0.1725
  146MOL0     C19620   6.633  11.740   9.205 -0.0208  0.4035  0.3724
  146MOL0     C19621   6.638  11.645   9.102 -0.1326  0.3373  0.3292
  146MOL0     O19622   6.405  11.579   8.856  0.6908 -0.6975 -0.0870
  146MOL0     C19623   6.423  11.417   8.622  0.5017 -0.6629 -1.1859
  146MOL0     C19624   6.423  11.308   8.531  0.0727  1.0611 -0.7633
  146MOL0     N19625   6.915  10.938   8.168 -0.0623 -0.0584  0.3157
  146MOL0     N19626   7.033  10.966   8.193 -0.3938  0.9102  0.9400
  146MOL0     C19627   8.230  11.063   8.005  0.0882  0.1262  0.0263
  146MOL0     C19628   8.361  11.021   8.012 -0.0994  0.3801  0.7206
  146MOL0     C19629   8.718  10.787   7.911  0.0497  0.1648  0.8985
  146MOL0     C19630   8.773  10.760   8.032  0.3266 -0.2376  0.6800
  146MOL0     C19631   8.911  10.735   8.044  0.0864 -0.9623 -1.0418
  146MOL0     C19632   8.994  10.748   7.933 -0.9790 -0.1853 -0.0984
  146MOL0     O19633   9.131  10.719   7.948  0.0176  0.4825  0.1964
  146MOL0     C19634   9.209  10.693   7.826  0.2508 -0.4296 -0.0389
  146MOL0     C19635   9.362  10.670   7.852  0.3598 -0.3455 -0.1933
  146MOL0     C19636   9.407  10.534   7.912  0.1432  0.8274  0.2872
  146MOL0     C19637   9.563  10.518   7.895  0.3539  0.1152  0.4078
  146MOL0     C19638   9.627  10.384   7.925  0.4245  0.1722 -0.2603
  146MOL0     C19639   9.687  10.276   7.936 -0.4261  0.1489 -0.1784
  146MOL0     C19640   8.945  10.796   7.814 -0.1245  0.3110  0.8570
  146MOL0     C19641   8.809  10.798   7.796  0.4655 -0.3846 -0.0620
  146MOL0     C19642   8.757  10.824   7.655  0.1288 -0.2891 -0.2736
  146MOL0     H19643   8.328  10.696   7.974  5.4353  2.6355 -0.7996
  146MOL0     H19644   8.073  10.761   7.976  0.4496 -1.6993  0.9677
  146MOL0     H19645   7.960  11.189   8.029  0.0163 -1.0128  0.0753
  146MOL0     H19646   8.028  11.191   7.857 -0.4907  1.1882 -0.4038
  146MOL0     H19647   7.809  11.146   7.772 -0.2971 -0.4371  0.6964
  146MOL0     H19648   7.799  11.275   7.886  0.3841  1.5458 -4.5378
  146MOL0     H19649   7.724  10.972   7.906 -6.3194 -0.8805 -2.0504
  146MOL0     H19650   7.624  11.109   7.888  0.9280  1.0088 -1.8226
  146MOL0     H19651   7.766  11.034   8.158 -0.9662  0.1582  2.4231
  146MOL0     H19652   7.693  11.192   8.140 -0.0994  0.4346 -1.5794
  146MOL0     H19653   7.533  10.941   8.083 -0.0515 -1.2474  3.2801
  146MOL0     H19654   7.561  11.000   8.247 -2.5323  2.2571  0.3138
  146MOL0     H19655   7.445  11.181   8.236 -1.2097 -1.2722  1.2308
  146MOL0     H19656   7.456  11.212   8.066  0.6831 -0.0420  0.2695
  146MOL0     H19657   7.304  10.970   8.185 -0.3139 -1.2092  0.1822
  146MOL0     H19658   7.319  11.007   8.012 -0.8105  3.0949 -0.4713
  146MOL0     H19659   7.187  11.211   8.202 -1.3187 -1.7218  1.7976
  146MOL0     H19660   7.190  11.209   8.033 -4.1017 -4.1569 -2.6985
  146MOL0     H19661   6.944  11.201   7.985 -0.9640 -0.4260 -0.4476
  146MOL0     H19662   6.710  11.168   8.042 -0.8977 -0.5801 -0.7042
  146MOL0     H19663   6.659  11.007   7.999 -1.9041  1.4587  0.3495
  146MOL0     H19664   6.670  10.944   8.230  4.0920  0.3644  1.8833
  146MOL0     H19665   6.718  11.107   8.279  2.0323 -1.1999  0.2619
  146MOL0     H19666   6.444  11.080   8.150 -0.1507  1.9506 -0.1591
  146MOL0     H19667   6.509  11.224   8.215 -0.7053 -0.6158  2.5041
  146MOL0     H19668   6.424  10.966   8.357  1.0099  0.1732  0.1120
  146MOL0     H19669   6.352  11.127   8.360 -0.1080 -0.5938  0.8368
  146MOL0     H19670   6.716  11.178   8.629  0.6714  1.3346  0.9143
  146MOL0     H19671   6.703  11.361   8.792  0.9424 -0.2466 -0.8693
  146MOL0     H19672   6.555  11.849   8.839  1.4439  0.1824 -0.5196
  146MOL0     H19673   6.543  12.014   9.021  3.1690 -0.3993 -3.2395
  146MOL0     H19674   6.474  11.856   9.401 -3.1811  2.2182  0.2082
  146MOL0     H19675   6.607  11.944   9.467 -1.4156 -0.1278  0.3433
  146MOL0     H19676   6.413  12.076   9.548 -0.2004  1.9978  0.1482
  146MOL0     H19677   6.498  12.160   9.433 -0.1540  0.3727  1.3452
  146MOL0     H19678   6.301  12.008   9.265 -1.5388  2.4525 -1.1411
  146MOL0     H19679   6.224  12.023   9.419 -1.9720  0.5299 -1.0899
  146MOL0     H19680   6.197  12.280   9.369  0.3457  1.1045 -0.9317
  146MOL0     H19681   6.145  12.191   9.236 -1.2004  4.3749 -0.7552
  146MOL0     H19682   6.397  12.224   9.145 -1.5157 -0.2512 -0.3892
  146MOL0     H19683   6.416  12.335   9.286  0.4869 -0.5373 -0.2859
  146MOL0     H19684   6.362  12.481   9.101 -0.0482  1.0429  3.1331
  146MOL0     H19685   6.226  12.365   9.064 -1.7636 -3.2454  2.8866
  146MOL0     H19686   6.236  12.514   9.332  0.7568 -0.5317  0.6553
  146MOL0     H19687   6.107  12.431   9.236  0.7014 -0.4281 -0.1574
  146MOL0     H19688   6.271  12.674   9.155  1.0902 -0.8031  0.7463
  146MOL0     H19689   6.111  12.630   9.080  0.5420  1.2647  0.1113
  146MOL0     H19690   6.651  11.723   9.311 -0.1528 -1.2320  0.1639
  146MOL0     H19691   6.669  11.545   9.132 -0.9969 -0.7459 -2.0800
  146MOL0     H19692   6.351  11.498   8.622  4.2127  2.9325 -1.6743
  146MOL0     H19693   6.348  11.284   8.457 -0.6099 -4.1112  1.1778
  146MOL0     H19694   8.208  11.168   8.025 -1.7555 -0.8373  4.0839
  146MOL0     H19695   8.442  11.091   8.028 -1.3184  1.6428  1.7163
  146MOL0     H19696   8.700  10.746   8.111  0.3557 -2.7997  0.3331
  146MOL0     H19697   8.951  10.705   8.141 -0.7617 -0.7219 -0.6117
  146MOL0     H19698   9.207  10.775   7.754  0.7967 -0.8268 -0.5034
  146MOL0     H19699   9.173  10.603   7.775 -2.3234  1.2685 -1.4323
  146MOL0     H19700   9.406  10.747   7.916 -0.1482 -2.8525  3.5198
  146MOL0     H19701   9.399  10.669   7.750 -0.5741  0.5920 -0.5632
  146MOL0     H19702   9.356  10.450   7.865 -0.0630  1.9412 -1.6341
  146MOL0     H19703   9.378  10.542   8.017 -4.2059  0.2603 -0.7008
  146MOL0     H19704   9.585  10.548   7.792 -0.3127  1.0046  0.5077
  146MOL0     H19705   9.617  10.581   7.966  5.1312 -3.7313  0.6971
  146MOL0     H19706   9.730  10.178   7.944  0.7889  0.3135 -3.3490
  146MOL0     H19707   9.003  10.816   7.724 -2.8085  4.5256 -0.2434
  146MOL0     H19708   8.838  10.827   7.581  3.7289 -0.0383  3.3210
  146MOL0     H19709   8.691  10.743   7.623  1.1378 -2.8615  3.5075
  146MOL0     H19710   8.704  10.920   7.658  1.6504  0.5627  1.9253
  147MOL0     O19711   7.721   8.742   0.568 -0.8451 -0.8065  0.3236
  147MOL0     C19712   7.657   8.706   0.673  0.1983 -0.5005  0.4532
  147MOL0     O19713   7.666   8.760   0.795  0.0607 -0.1554  0.8339
  147MOL0     C19714   7.755   8.865   0.807 -0.9884  0.0773  0.0040
  147MOL0     C19715   7.888   8.875   0.749 -0.0427 -0.7637 -0.4880
  147MOL0     C19716   7.966   8.993   0.768 -0.0096 -1.0623 -0.1846
  147MOL0     C19717   7.923   9.104   0.839  0.7668  0.6737 -0.5960
  147MOL0     O19718   8.003   9.210   0.853 -0.6094 -0.5538  0.2666
  147MOL0     C19719   7.955   9.339   0.899  0.2346  0.4168  0.2912
  147MOL0     C19720   7.952   9.425   0.770  0.2563 -0.5552 -0.1785
  147MOL0     C19721   7.826   9.407   0.677 -0.2901  0.0362 -0.8289
  147MOL0     C19722   7.843   9.498   0.552  0.0994  0.0403  0.6551
  147MOL0     C19723   7.740   9.460   0.435  0.3501 -0.5882 -0.2236
  147MOL0     C19724   7.771   9.552   0.315 -0.2778  0.4296  0.0839
  147MOL0     C19725   7.654   9.536   0.211  0.6656  0.9370 -0.0429
  147MOL0     C19726   7.652   9.395   0.143 -0.7717  0.9020  1.0400
  147MOL0     N19727   7.690   9.413  -0.001  0.6898 -0.8398  0.1617
  147MOL0     C19728   7.793   9.351  -0.063  0.4772 -0.5825  0.6499
  147MOL0     C19729   7.784   9.397  -0.192  0.7014 -0.4519  0.2196
  147MOL0     C19730   7.889   9.357  -0.295  0.2860  0.2897  0.5196
  147MOL0     C19731   7.863   9.433  -0.436  0.6786 -0.6342 -0.8895
  147MOL0     C19732   7.963   9.386  -0.547 -0.6100 -0.9233  0.5228
  147MOL0     C19733   7.927   9.404  -0.697  0.4412 -0.5978 -0.9934
  147MOL0     O19734   7.790   9.365  -0.725  0.0521  0.2847 -0.1714
  147MOL0     C19735   7.777   9.238  -0.785 -0.2027  0.7617  0.3513
  147MOL0     C19736   7.758   9.123  -0.710 -1.0215  0.6421  0.7396
  147MOL0     C19737   7.757   8.995  -0.777 -0.0021  0.8814 -0.7259
  147MOL0     C19738   7.777   8.998  -0.917  0.5605 -0.2464  0.3799
  147MOL0     C19739   7.774   8.870  -0.990  0.3575 -0.1468  0.7770
  147MOL0     O19740   7.742   8.880  -1.127 -0.8033 -0.1661 -0.0751
  147MOL0     C19741   7.764   8.762  -1.202 -0.3479 -0.9328 -0.2304
  147MOL0     C19742   7.873   8.772  -1.291 -0.2868  0.0108  0.1108
  147MOL0     C19743   7.904   8.662  -1.377  0.8915  0.5504  0.0859
  147MOL0     C19744   7.819   8.547  -1.370 -0.3297  0.2105  0.1507
  147MOL0     O19745   7.833   8.434  -1.454 -0.3344 -0.2592 -0.2186
  147MOL0     C19746   7.962   8.418  -1.523 -0.3222  0.6999  0.2328
  147MOL0     C19747   7.970   8.274  -1.592  0.1533 -0.2522 -0.0496
  147MOL0     C19748   7.852   8.180  -1.568  0.2002  0.3422 -0.2113
  147MOL0     C19749   7.883   8.036  -1.618  0.7694 -0.5360  0.5028
  147MOL0     C19750   7.902   8.024  -1.762 -0.3834 -0.7368  1.0573
  147MOL0     C19751   7.913   7.876  -1.796 -0.3409 -0.7600 -0.0949
  147MOL0     C19752   8.059   7.817  -1.813  0.6165  0.9354 -0.1776
  147MOL0     C19753   8.045   7.671  -1.839  0.0387 -0.2658 -0.6420
  147MOL0    Cl19754   8.218   7.605  -1.855 -0.4650  0.2358  0.2330
  147MOL0     C19755   7.715   8.542  -1.288 -0.1199  0.1163  0.1108
  147MOL0     C19756   7.676   8.651  -1.209 -0.4642  0.0709 -0.2484
  147MOL0     O19757   7.795   8.767  -0.927 -0.0714 -1.3371  0.1646
  147MOL0     C19758   7.798   9.115  -0.980 -0.6382 -0.4472 -0.3340
  147MOL0     C19759   7.793   9.234  -0.924 -0.6638 -1.0491  0.0339
  147MOL0     N19760   7.667   9.476  -0.200  0.8251  1.0015 -0.2276
  147MOL0     N19761   7.607   9.471  -0.088 -0.3158 -0.4254 -0.3058
  147MOL0     C19762   7.796   9.090   0.894 -0.2184  0.8811 -0.0683
  147MOL0     C19763   7.714   8.977   0.883 -0.0318 -0.6230  0.1867
  147MOL0     C19764   7.560   8.600   0.652  0.3419 -0.1282  0.2785
  147MOL0     C19765   7.455   8.621   0.558  1.2018  0.4160 -0.5454
  147MOL0     C19766   7.379   8.517   0.521 -0.1820 -0.5397 -0.5053
  147MOL0     C19767   7.392   8.392   0.586 -0.0941  0.1691 -0.1979
  147MOL0     O19768   7.305   8.288   0.547  0.3472 -0.8581 -0.1378
  147MOL0     C19769   7.354   8.153   0.535 -1.0907 -0.4890  0.8448
  147MOL0     C19770   7.471   8.118   0.444 -0.6959  0.1561  0.8112
  147MOL0     C19771   7.505   7.968   0.449 -1.1043  0.6115  0.6525
  147MOL0     C19772   7.637   7.941   0.374 -0.0156 -0.2376 -0.5179
  147MOL0     C19773   7.637   7.811   0.304 -0.4897  0.6628 -0.1284
  147MOL0     C19774   7.615   7.717   0.231  0.1638  0.2435  0.4667
  147MOL0     C19775   7.504   8.365   0.674  0.5630 -0.1433  0.0910
  147MOL0     C19776   7.589   8.472   0.705  0.3715  0.0552  0.6075
  147MOL0     C19777   7.708   8.440   0.791  0.8290  0.5777  0.3165
  147MOL0     H19778   7.925   8.793   0.689  1.9229 -0.7874  0.6723
  147MOL0     H19779   8.061   9.005   0.716  0.8847 -0.9333  1.4113
  147MOL0     H19780   7.849   9.339   0.925  0.1699 -0.9775  0.1255
  147MOL0     H19781   8.013   9.383   0.980 -1.2488  2.3980  0.3525
  147MOL0     H19782   8.048   9.415   0.719 -0.8599 -2.6695 -2.0266
  147MOL0     H19783   7.952   9.523   0.819  0.7632 -0.8820  0.5020
  147MOL0     H19784   7.730   9.428   0.725 -0.5504 -1.8465 -0.4728
  147MOL0     H19785   7.821   9.301   0.651 -1.7522 -0.8964  2.7338
  147MOL0     H19786   7.848   9.603   0.581  3.4055 -0.1763  1.2717
  147MOL0     H19787   7.942   9.480   0.508  1.1512  2.7271  1.6974
  147MOL0     H19788   7.759   9.355   0.412 -1.5516 -1.4009  1.5760
  147MOL0     H19789   7.642   9.471   0.482  0.7745  1.8628  0.2580
  147MOL0     H19790   7.768   9.659   0.339 -0.7035  1.0486 -2.4208
  147MOL0     H19791   7.872   9.528   0.280  0.2864 -4.2018  3.8822
  147MOL0     H19792   7.666   9.609   0.131 -1.3890  1.0719 -0.2675
  147MOL0     H19793   7.555   9.545   0.257  0.2415 -1.8929 -0.1931
  147MOL0     H19794   7.720   9.318   0.180  2.0886  2.0193 -1.4889
  147MOL0     H19795   7.548   9.360   0.149 -0.3062 -0.9156 -0.6490
  147MOL0     H19796   7.876   9.301  -0.015  0.9599  1.8082  2.5068
  147MOL0     H19797   7.987   9.371  -0.248 -0.3327 -3.0233  3.2458
  147MOL0     H19798   7.871   9.250  -0.308 -0.0814  0.2853  0.9973
  147MOL0     H19799   7.769   9.394  -0.474  1.1243 -2.3567 -0.3330
  147MOL0     H19800   7.859   9.541  -0.420 -1.9765 -0.5853 -1.5739
  147MOL0     H19801   7.991   9.284  -0.516 -0.7321 -0.3800  2.5922
  147MOL0     H19802   8.047   9.451  -0.521  0.2358 -1.5625 -0.5389
  147MOL0     H19803   8.000   9.346  -0.753  3.7517  1.7347  0.5713
  147MOL0     H19804   7.934   9.510  -0.724  0.1501 -1.0205 -2.8645
  147MOL0     H19805   7.749   9.138  -0.603 -1.6635  0.5477  0.7007
  147MOL0     H19806   7.749   8.904  -0.719  1.1156 -0.9670 -3.2733
  147MOL0     H19807   7.931   8.864  -1.288 -0.2263 -0.0523  0.8854
  147MOL0     H19808   7.987   8.682  -1.443  0.2060  0.9792 -0.6733
  147MOL0     H19809   7.963   8.479  -1.614  0.4039 -1.6668 -1.4408
  147MOL0     H19810   8.048   8.435  -1.458  0.4659 -0.3881 -0.4884
  147MOL0     H19811   7.973   8.300  -1.698  0.4581 -0.0359  0.0138
  147MOL0     H19812   8.067   8.238  -1.555  1.0062  3.5041  1.8415
  147MOL0     H19813   7.810   8.179  -1.467  0.9187 -3.3386  0.1773
  147MOL0     H19814   7.767   8.218  -1.627 -0.1943  1.0144  0.7728
  147MOL0     H19815   7.792   7.977  -1.606 -1.8373  2.4028 -2.8500
  147MOL0     H19816   7.961   7.986  -1.560  2.9095  1.2066 -0.6899
  147MOL0     H19817   7.999   8.070  -1.781 -0.6860  0.4396  2.2047
  147MOL0     H19818   7.824   8.069  -1.823 -1.5329 -2.7800  0.9562
  147MOL0     H19819   7.846   7.820  -1.731 -1.1802 -0.4567 -0.6819
  147MOL0     H19820   7.854   7.864  -1.887 -3.8912  0.9900  1.7864
  147MOL0     H19821   8.120   7.816  -1.722  0.7943 -1.3945 -0.2658
  147MOL0     H19822   8.109   7.875  -1.891  2.4602 -1.7497 -1.1364
  147MOL0     H19823   7.982   7.619  -1.767 -1.9381  0.3358 -1.8653
  147MOL0     H19824   7.993   7.663  -1.934  1.2714 -1.6043 -1.2398
  147MOL0     H19825   7.650   8.456  -1.302 -2.1012  1.9839 -3.6450
  147MOL0     H19826   7.590   8.645  -1.144 -2.8798  0.3691 -3.2149
  147MOL0     H19827   7.818   9.110  -1.087  1.7831  0.0687  0.0206
  147MOL0     H19828   7.809   9.325  -0.981  0.0476 -0.1025  1.6680
  147MOL0     H19829   7.745   9.166   0.952 -0.1467  1.6932 -1.0396
  147MOL0     H19830   7.622   8.977   0.940  0.5655  4.6935  1.7331
  147MOL0     H19831   7.436   8.721   0.521 -2.7895  0.0414  0.0952
  147MOL0     H19832   7.303   8.535   0.446  0.4388 -0.1805 -1.0629
  147MOL0     H19833   7.273   8.102   0.483 -0.4225  0.0586 -0.8089
  147MOL0     H19834   7.371   8.106   0.632  4.3311  1.8960  1.4170
  147MOL0     H19835   7.556   8.175   0.485 -2.6923  3.7506  0.4071
  147MOL0     H19836   7.439   8.165   0.351 -1.4322  0.4532  1.1986
  147MOL0     H19837   7.428   7.906   0.401 -1.7416  2.3689 -0.7299
  147MOL0     H19838   7.515   7.938   0.553 -2.2104  0.3254  0.6871
  147MOL0     H19839   7.642   8.028   0.308 -2.1126 -1.7379 -2.8157
  147MOL0     H19840   7.723   7.945   0.441  0.1312 -0.2447 -0.7023
  147MOL0     H19841   7.597   7.640   0.159  2.7318  0.0613 -0.0645
  147MOL0     H19842   7.520   8.269   0.723 -1.0543  0.0888  1.1517
  147MOL0     H19843   7.672   8.376   0.873  1.2360  2.5321  2.1259
  147MOL0     H19844   7.776   8.387   0.723 -2.9108 -0.3479 -3.0719
  147MOL0     H19845   7.755   8.527   0.838 -0.9854  2.4559 -1.2217
  148MOL0     O19846   5.225   7.899   5.478 -0.1677 -0.0329 -0.3500
  148MOL0     C19847   5.326   7.941   5.540  0.1524  1.2472  0.3527
  148MOL0     O19848   5.368   8.066   5.559 -0.4419 -0.1022 -0.7292
  148MOL0     C19849   5.317   8.159   5.472 -0.7686 -0.4170 -0.2501
  148MOL0     C19850   5.340   8.295   5.515 -0.3456  0.6940 -0.7780
  148MOL0     C19851   5.331   8.401   5.421 -0.0192 -0.2054  0.0047
  148MOL0     C19852   5.293   8.376   5.285 -0.0633 -0.5387  0.1999
  148MOL0     O19853   5.267   8.484   5.204 -0.1975  0.1773  0.6021
  148MOL0     C19854   5.194   8.460   5.078  0.0767  0.4712  0.0857
  148MOL0     C19855   5.288   8.411   4.963 -0.9694  0.7376  0.2338
  148MOL0     C19856   5.226   8.313   4.863  0.4674  0.4688 -0.0881
  148MOL0     C19857   5.321   8.297   4.732  0.4323  0.3225 -0.3934
  148MOL0     C19858   5.274   8.171   4.660  0.0095 -0.5328  0.6005
  148MOL0     C19859   5.398   8.127   4.585  0.4601  1.0860 -0.3646
  148MOL0     C19860   5.394   7.971   4.538 -0.8447  0.3682 -0.8403
  148MOL0     C19861   5.400   7.860   4.652 -1.0017  0.7052  0.7927
  148MOL0     N19862   5.553   7.856   4.681  1.1693 -0.0659  0.7688
  148MOL0     C19863   5.648   7.811   4.599 -0.1393 -0.7144 -0.0233
  148MOL0     C19864   5.764   7.841   4.660  0.1565 -0.1598  0.2058
  148MOL0     C19865   5.894   7.835   4.607 -1.0515  0.4028 -0.1849
  148MOL0     C19866   5.996   7.942   4.648 -0.7663 -0.7820  0.3313
  148MOL0     C19867   6.078   7.997   4.524  0.0073 -0.5377 -0.2697
  148MOL0     C19868   6.173   8.117   4.540  1.1111 -0.9277  0.2466
  148MOL0     O19869   6.272   8.077   4.638 -0.1173 -0.2084  0.1421
  148MOL0     C19870   6.385   8.154   4.659  0.4260  0.2360  0.1724
  148MOL0     C19871   6.458   8.129   4.781  0.9788 -0.8217 -0.4076
  148MOL0     C19872   6.576   8.200   4.813 -0.7296 -1.2736  0.3593
  148MOL0     C19873   6.625   8.308   4.726 -0.3281 -0.5181  0.3626
  148MOL0     C19874   6.751   8.379   4.747  0.2673 -0.3937 -1.1802
  148MOL0     O19875   6.791   8.464   4.658 -0.3845 -0.0650  0.5163
  148MOL0     C19876   6.911   8.527   4.656  0.3849 -0.0681 -0.4221
  148MOL0     C19877   6.984   8.527   4.539  0.1670 -0.3163  0.0608
  148MOL0     C19878   7.091   8.608   4.526  0.0848 -0.3021  0.4306
  148MOL0     C19879   7.143   8.687   4.624 -0.2634 -0.5402 -0.1752
  148MOL0     O19880   7.255   8.753   4.593  0.2659 -0.2061 -0.0517
  148MOL0     C19881   7.295   8.870   4.664  0.2113  0.7973  0.0266
  148MOL0     C19882   7.400   8.946   4.586 -0.4055  0.3944 -0.2553
  148MOL0     C19883   7.441   9.070   4.653 -0.5271 -1.0520  0.1978
  148MOL0     C19884   7.572   9.126   4.595 -0.1173  0.5499 -0.4484
  148MOL0     C19885   7.604   9.263   4.649  0.4077  0.6984 -0.0718
  148MOL0     C19886   7.606   9.275   4.801  1.0178 -0.3681  0.3602
  148MOL0     C19887   7.641   9.416   4.848 -0.4147  1.0414  1.2554
  148MOL0     C19888   7.662   9.422   4.984  0.6034 -0.3004 -0.2810
  148MOL0    Cl19889   7.716   9.599   5.026  0.0119 -0.1948  0.1668
  148MOL0     C19890   7.079   8.668   4.747 -0.3600  0.2223 -0.3820
  148MOL0     C19891   6.965   8.592   4.768  0.0435  0.3999  0.0454
  148MOL0     O19892   6.815   8.337   4.848 -0.4057 -0.6656  0.4102
  148MOL0     C19893   6.535   8.339   4.620 -0.4778  0.3744 -0.2857
  148MOL0     C19894   6.429   8.261   4.586 -0.2191 -0.4027 -0.0001
  148MOL0     N19895   5.734   7.910   4.781 -0.4091 -0.7221  0.0188
  148MOL0     N19896   5.610   7.915   4.790  0.4353  0.2536  0.2232
  148MOL0     C19897   5.272   8.244   5.245 -0.2154  0.8377 -0.1752
  148MOL0     C19898   5.279   8.142   5.337 -0.4934  0.0600 -0.2293
  148MOL0     C19899   5.395   7.822   5.613 -0.9940  0.4865 -0.2408
  148MOL0     C19900   5.319   7.715   5.655  0.3706 -0.2227  0.1447
  148MOL0     C19901   5.368   7.621   5.740 -0.9052 -0.6006  0.6851
  148MOL0     C19902   5.506   7.616   5.774  0.3002  0.3310  0.3155
  148MOL0     O19903   5.543   7.508   5.852 -0.2048 -0.0511 -0.7028
  148MOL0     C19904   5.682   7.498   5.892 -0.0078  0.6052 -0.0333
  148MOL0     C19905   5.676   7.387   5.984  0.4052  0.9207 -0.2234
  148MOL0     C19906   5.815   7.335   6.017  0.2406 -0.8641  0.5988
  148MOL0     C19907   5.881   7.238   5.909  0.0946 -0.2351 -0.5203
  148MOL0     C19908   6.029   7.209   5.922  0.9172  0.8755 -0.7472
  148MOL0     C19909   6.148   7.192   5.938 -1.0043  0.5125 -0.1388
  148MOL0     C19910   5.596   7.717   5.732  0.5388 -1.0328 -0.0680
  148MOL0     C19911   5.539   7.824   5.654 -0.0290  0.2409 -0.3961
  148MOL0     C19912   5.619   7.949   5.645  0.7904 -0.4012  0.4639
  148MOL0     H19913   5.372   8.319   5.616 -0.0522 -0.5377 -0.5521
  148MOL0     H19914   5.353   8.499   5.462  1.5151 -0.5675  0.1018
  148MOL0     H19915   5.110   8.395   5.106 -0.0335  1.5838  2.5903
  148MOL0     H19916   5.144   8.547   5.033  1.7019  1.3001 -0.1846
  148MOL0     H19917   5.369   8.356   5.012 -0.2954 -0.0326 -1.6506
  148MOL0     H19918   5.327   8.497   4.907 -0.7662  0.1547 -0.5357
  148MOL0     H19919   5.125   8.346   4.838 -0.0866 -0.3338  1.0040
  148MOL0     H19920   5.218   8.209   4.898  4.0244 -0.4723 -1.5689
  148MOL0     H19921   5.327   8.381   4.663 -0.3010  2.2706  1.7878
  148MOL0     H19922   5.420   8.291   4.778  0.1753  0.1937  0.1652
  148MOL0     H19923   5.232   8.094   4.726 -0.3683 -1.3965 -0.6078
  148MOL0     H19924   5.195   8.175   4.583 -0.1784  0.0853  0.8217
  148MOL0     H19925   5.408   8.186   4.494  0.5549  0.5686 -0.6952
  148MOL0     H19926   5.481   8.146   4.653  0.3692 -0.0805  0.1028
  148MOL0     H19927   5.477   7.968   4.467 -0.1497 -1.0955 -0.0122
  148MOL0     H19928   5.311   7.962   4.467 -3.2660  0.4829  1.7966
  148MOL0     H19929   5.340   7.895   4.736 -0.3154 -0.3213  1.7337
  148MOL0     H19930   5.364   7.761   4.624 -0.0779 -0.6724  4.1062
  148MOL0     H19931   5.639   7.780   4.495  0.1188 -4.1061  0.8440
  148MOL0     H19932   5.943   7.744   4.643 -1.9386 -0.5778 -1.3531
  148MOL0     H19933   5.875   7.833   4.499 -2.6936  1.1470  0.0627
  148MOL0     H19934   5.950   8.032   4.692  0.9448 -0.2278  1.0877
  148MOL0     H19935   6.070   7.908   4.721  0.9355 -0.8998 -1.3738
  148MOL0     H19936   6.013   8.037   4.445  2.0382 -1.4476 -2.5179
  148MOL0     H19937   6.146   7.922   4.482 -1.3284 -0.6037 -2.5223
  148MOL0     H19938   6.119   8.204   4.578  0.5700 -1.5382  0.9013
  148MOL0     H19939   6.221   8.138   4.444 -1.3107 -1.4243 -1.1480
  148MOL0     H19940   6.416   8.052   4.846  2.1287 -0.3432  0.9733
  148MOL0     H19941   6.627   8.179   4.907 -0.2344  1.2367  0.7212
  148MOL0     H19942   6.931   8.490   4.452 -0.6312  6.0659 -2.6664
  148MOL0     H19943   7.127   8.626   4.425  1.7206  0.2458  1.0694
  148MOL0     H19944   7.204   8.930   4.672 -1.6932 -1.9574  0.4739
  148MOL0     H19945   7.336   8.838   4.760  0.0102 -4.2093 -1.2664
  148MOL0     H19946   7.482   8.874   4.579 -2.3704 -1.9200 -0.8259
  148MOL0     H19947   7.379   8.973   4.482 -0.6871 -1.1613 -0.6255
  148MOL0     H19948   7.349   9.127   4.636 -0.0078  0.2443  1.5548
  148MOL0     H19949   7.465   9.046   4.757 -1.2696  1.1545  0.9268
  148MOL0     H19950   7.571   9.125   4.486 -2.0004  0.7705 -0.4675
  148MOL0     H19951   7.657   9.067   4.631 -0.0471  2.4060  2.8305
  148MOL0     H19952   7.524   9.328   4.613  0.6353 -0.3091 -2.6443
  148MOL0     H19953   7.698   9.297   4.604 -0.3734  1.6110 -1.0583
  148MOL0     H19954   7.505   9.254   4.836  0.0237  2.7691 -0.3342
  148MOL0     H19955   7.679   9.208   4.848  2.8649  1.2728 -0.0257
  148MOL0     H19956   7.560   9.482   4.814 -2.2175 -1.2908  0.8069
  148MOL0     H19957   7.736   9.450   4.806 -0.8879  2.8429  1.5211
  148MOL0     H19958   7.582   9.398   5.055  0.8209 -2.2743 -0.6388
  148MOL0     H19959   7.735   9.348   5.018  0.8644  0.2980  0.4866
  148MOL0     H19960   7.106   8.729   4.833  1.2284  3.4147 -2.9062
  148MOL0     H19961   6.908   8.594   4.860 -1.2730 -0.3256 -0.7216
  148MOL0     H19962   6.559   8.417   4.549 -1.4936  0.7517 -0.2350
  148MOL0     H19963   6.376   8.284   4.494 -0.4162  1.9070  0.6277
  148MOL0     H19964   5.232   8.220   5.147 -0.5750  3.0634 -0.6423
  148MOL0     H19965   5.266   8.045   5.289 -0.9631 -0.5329  1.0496
  148MOL0     H19966   5.212   7.718   5.634  0.2738 -3.2918 -0.1371
  148MOL0     H19967   5.308   7.534   5.762 -0.3424 -1.0666  0.4105
  148MOL0     H19968   5.727   7.581   5.948  3.1598 -1.7246  1.1797
  148MOL0     H19969   5.747   7.480   5.806  1.7578 -2.2646  1.7201
  148MOL0     H19970   5.625   7.310   5.924  2.3386  0.7735 -1.7754
  148MOL0     H19971   5.635   7.412   6.082  2.2804  0.1485  0.8007
  148MOL0     H19972   5.812   7.280   6.111 -2.3113  4.8331  4.3911
  148MOL0     H19973   5.888   7.412   6.042 -0.6140 -0.8484  3.3220
  148MOL0     H19974   5.810   7.155   5.909 -2.8386  2.1064  0.9900
  148MOL0     H19975   5.869   7.274   5.806  0.2373 -0.5193 -0.6382
  148MOL0     H19976   6.254   7.174   5.941 -0.6612  2.5055  1.1202
  148MOL0     H19977   5.693   7.734   5.778 -0.0001  2.2804  0.1197
  148MOL0     H19978   5.575   8.043   5.679  1.6634 -0.0998  0.7749
  148MOL0     H19979   5.710   7.930   5.703  1.4104 -2.1432 -0.9847
  148MOL0     H19980   5.657   7.967   5.544  1.1726  2.5545  1.0395
  149MOL0     O19981   4.204   8.051   5.757 -0.9141 -0.2046 -0.5840
  149MOL0     C19982   4.175   7.943   5.706 -0.0236 -0.8871  1.3457
  149MOL0     O19983   4.053   7.881   5.713 -0.2216  0.6706 -1.3303
  149MOL0     C19984   3.974   7.917   5.824  0.3502 -0.7746  0.3634
  149MOL0     C19985   3.921   8.044   5.854 -0.1452  0.5714  0.4745
  149MOL0     C19986   3.858   8.076   5.980 -0.9156 -0.1430  0.0443
  149MOL0     C19987   3.842   7.971   6.073  0.3278  0.0740 -0.0111
  149MOL0     O19988   3.789   7.982   6.196  0.1365 -0.0706 -0.4172
  149MOL0     C19989   3.802   8.107   6.270 -0.7330 -0.3120  0.3625
  149MOL0     C19990   3.704   8.109   6.390 -0.3962  0.3853  0.8525
  149MOL0     C19991   3.737   8.004   6.502  0.6845  0.0301  1.1554
  149MOL0     C19992   3.853   8.037   6.589 -0.4967 -0.1498 -0.1571
  149MOL0     C19993   3.829   8.129   6.708  0.2483  0.5258 -0.0326
  149MOL0     C19994   3.946   8.142   6.814 -1.4203 -0.3861  0.5368
  149MOL0     C19995   3.895   8.203   6.953 -0.3185 -0.6335 -0.1321
  149MOL0     C19996   3.891   8.357   6.936 -0.7809 -0.2071 -0.1667
  149MOL0     N19997   3.939   8.407   7.066 -0.0274 -0.0149 -0.2159
  149MOL0     C19998   3.857   8.464   7.168  0.4982  0.2204 -1.1079
  149MOL0     C19999   3.952   8.471   7.270  1.5601 -0.2851  0.3310
  149MOL0     C20000   3.918   8.524   7.404 -0.5649 -0.6085 -0.0783
  149MOL0     C20001   4.046   8.509   7.508  0.4343 -0.8078  0.3709
  149MOL0     C20002   3.983   8.489   7.650  0.0309  1.3197 -0.8721
  149MOL0     C20003   4.078   8.431   7.754  0.0790  0.3455  0.8803
  149MOL0     O20004   3.999   8.431   7.872  0.6909  0.5780 -0.2946
  149MOL0     C20005   4.040   8.358   7.985 -1.2509 -0.9935  0.2688
  149MOL0     C20006   4.153   8.257   7.987  0.0378  0.0715 -0.1747
  149MOL0     C20007   4.199   8.193   8.105  0.4302 -0.0453 -0.1723
  149MOL0     C20008   4.132   8.225   8.225  0.3652 -0.3317  0.9395
  149MOL0     C20009   4.177   8.173   8.356  0.1772 -0.5052  0.1407
  149MOL0     O20010   4.255   8.067   8.351 -0.8141  0.1995 -0.4269
  149MOL0     C20011   4.288   8.019   8.472  0.0294  0.5757 -0.2965
  149MOL0     C20012   4.381   8.088   8.555  0.8340  0.7427  1.0121
  149MOL0     C20013   4.426   8.021   8.669 -0.6482 -0.7166  0.7547
  149MOL0     C20014   4.388   7.888   8.703  0.0989  0.0769  0.7517
  149MOL0     O20015   4.433   7.822   8.810  0.1287 -0.4559  0.4937
  149MOL0     C20016   4.520   7.885   8.909  0.5860  0.2575  0.1175
  149MOL0     C20017   4.535   7.793   9.028 -0.2392  0.1051 -1.0944
  149MOL0     C20018   4.402   7.780   9.113 -0.3289 -0.3731  0.0731
  149MOL0     C20019   4.392   7.647   9.191 -0.1740 -0.0075  1.0089
  149MOL0     C20020   4.403   7.517   9.096  0.0112  0.1456 -0.2822
  149MOL0     C20021   4.325   7.528   8.956  0.1161 -0.0214  0.6479
  149MOL0     C20022   4.172   7.524   8.978  0.5411  0.0791  0.3058
  149MOL0     C20023   4.087   7.616   8.886  0.5165  1.0160 -0.5635
  149MOL0    Cl20024   3.929   7.630   8.960 -0.3302 -0.4909  0.0877
  149MOL0     C20025   4.303   7.823   8.619 -0.1768 -0.3987 -0.4206
  149MOL0     C20026   4.252   7.886   8.501 -0.1568  0.3273  0.5472
  149MOL0     O20027   4.128   8.214   8.454 -0.3238  0.7743  0.1310
  149MOL0     C20028   4.013   8.309   8.216  0.4602  0.2431  0.1166
  149MOL0     C20029   3.975   8.376   8.097 -0.2863 -0.4194  0.0742
  149MOL0     N20030   4.078   8.452   7.222  0.3405  0.1271 -0.2297
  149MOL0     N20031   4.068   8.416   7.099 -0.0751 -0.0599 -0.3475
  149MOL0     C20032   3.894   7.841   6.039  0.4710 -0.3620 -0.4361
  149MOL0     C20033   3.952   7.813   5.916  0.5978  0.0500  0.3410
  149MOL0     C20034   4.287   7.874   5.624  0.1154  0.3477 -0.7694
  149MOL0     C20035   4.264   7.764   5.542 -0.8074  0.0780  0.3831
  149MOL0     C20036   4.353   7.696   5.459  0.5365 -0.0752 -0.1919
  149MOL0     C20037   4.489   7.735   5.450 -0.2589 -0.2748 -0.9196
  149MOL0     O20038   4.577   7.663   5.375  0.0184 -0.2277  0.8651
  149MOL0     C20039   4.724   7.676   5.394 -0.2084  0.7512  0.0149
  149MOL0     C20040   4.777   7.602   5.516 -0.0575 -0.2846  0.4233
  149MOL0     C20041   4.840   7.696   5.612 -0.1635 -0.4781 -0.4527
  149MOL0     C20042   4.905   7.628   5.727 -0.4473 -0.2666 -0.0806
  149MOL0     C20043   4.801   7.571   5.814 -0.0421  0.4296  0.4837
  149MOL0     C20044   4.713   7.510   5.875 -0.0954 -0.2556  0.3175
  149MOL0     C20045   4.514   7.857   5.507 -0.0341  0.0129 -0.3505
  149MOL0     C20046   4.421   7.919   5.604  0.6970  1.0577  0.5834
  149MOL0     C20047   4.477   8.034   5.679 -0.4902 -0.0578  0.0692
  149MOL0     H20048   3.937   8.123   5.781 -4.1956  1.3705  0.2342
  149MOL0     H20049   3.830   8.178   6.002 -0.3526 -0.3385  1.7544
  149MOL0     H20050   3.905   8.128   6.302 -1.3950 -0.4752  2.8498
  149MOL0     H20051   3.780   8.190   6.202 -0.9209 -1.4712 -1.0345
  149MOL0     H20052   3.600   8.096   6.356 -0.1633  1.0284 -0.1618
  149MOL0     H20053   3.703   8.210   6.431 -4.2484  0.0621  1.9840
  149MOL0     H20054   3.751   7.905   6.457 -1.7775  0.4488 -0.7534
  149MOL0     H20055   3.648   7.994   6.566 -0.8473 -1.3118 -1.0378
  149MOL0     H20056   3.879   7.945   6.642  0.7100  1.2405  1.7703
  149MOL0     H20057   3.931   8.075   6.522  0.5574 -0.0228  1.1072
  149MOL0     H20058   3.799   8.228   6.670 -1.5679 -0.4444 -1.2963
  149MOL0     H20059   3.743   8.088   6.762  0.5989 -1.5032 -0.9241
  149MOL0     H20060   3.999   8.047   6.827  0.7753  1.0022  2.5669
  149MOL0     H20061   4.034   8.198   6.780 -1.6300 -0.1435  0.3919
  149MOL0     H20062   3.969   8.159   7.021 -2.1642 -5.8749 -0.9916
  149MOL0     H20063   3.803   8.156   6.990 -0.8725  1.4533  1.2799
  149MOL0     H20064   3.947   8.406   6.855 -1.7162  0.8591 -0.1941
  149MOL0     H20065   3.791   8.396   6.916  1.1847  6.6389  0.8494
  149MOL0     H20066   3.750   8.476   7.176  0.3474 -0.9223 -1.1564
  149MOL0     H20067   3.882   8.625   7.383 -1.3668 -0.8584  0.0726
  149MOL0     H20068   3.838   8.466   7.450  1.5265 -1.5911  2.6229
  149MOL0     H20069   4.092   8.415   7.476 -2.5711 -1.5693 -2.2706
  149MOL0     H20070   4.110   8.597   7.505  5.1228 -3.8914  0.4696
  149MOL0     H20071   3.904   8.413   7.648 -0.7579  1.9561  1.7971
  149MOL0     H20072   3.946   8.584   7.691 -1.3948 -0.1370  1.4934
  149MOL0     H20073   4.176   8.479   7.762  0.3376  0.4645 -1.9708
  149MOL0     H20074   4.101   8.326   7.735 -0.8122  0.0174  1.5384
  149MOL0     H20075   4.219   8.239   7.903  1.2570 -1.8663  1.1341
  149MOL0     H20076   4.289   8.133   8.111  0.4430  0.0480  0.5886
  149MOL0     H20077   4.410   8.189   8.528  3.2696 -0.5942 -2.0351
  149MOL0     H20078   4.482   8.082   8.740  0.9551 -1.4728  0.1920
  149MOL0     H20079   4.623   7.905   8.877  1.6878  0.1997  3.2284
  149MOL0     H20080   4.469   7.975   8.945  0.0410 -0.1424  0.3728
  149MOL0     H20081   4.570   7.702   8.979 -0.5584  1.5495 -4.2394
  149MOL0     H20082   4.611   7.825   9.100  0.5500 -0.9010 -1.4528
  149MOL0     H20083   4.407   7.856   9.191 -0.7652  0.8026 -0.9999
  149MOL0     H20084   4.316   7.797   9.046 -0.6032 -1.4306  0.1475
  149MOL0     H20085   4.303   7.646   9.255 -0.1085  0.2225  1.1039
  149MOL0     H20086   4.479   7.641   9.257  0.1020 -1.1133  0.5733
  149MOL0     H20087   4.378   7.433   9.161  1.0085 -0.2626 -0.4045
  149MOL0     H20088   4.507   7.491   9.076 -0.0639 -0.0229 -0.4563
  149MOL0     H20089   4.357   7.624   8.916 -0.9364  0.1406  0.1505
  149MOL0     H20090   4.347   7.438   8.898  2.3036  0.6126  0.4140
  149MOL0     H20091   4.158   7.558   9.081 -0.5807  0.1845  0.1308
  149MOL0     H20092   4.126   7.425   8.964 -2.1989  1.2366  0.4098
  149MOL0     H20093   4.137   7.713   8.884  3.9848 -0.5727  0.2718
  149MOL0     H20094   4.078   7.582   8.782  1.7647 -2.9066  0.4061
  149MOL0     H20095   4.276   7.721   8.648 -0.3034 -0.7755 -1.8156
  149MOL0     H20096   4.187   7.836   8.430  1.0553 -0.0888 -0.2907
  149MOL0     H20097   3.941   8.329   8.295 -1.5202 -0.2502 -1.4907
  149MOL0     H20098   3.884   8.435   8.101 -0.2265 -0.3062 -0.2324
  149MOL0     H20099   3.872   7.764   6.113 -1.3235 -0.3305 -0.8795
  149MOL0     H20100   3.982   7.711   5.892  0.9897  0.4925 -1.2065
  149MOL0     H20101   4.163   7.722   5.542  0.4586 -3.3195  1.7674
  149MOL0     H20102   4.336   7.603   5.406  1.1056 -0.7549  0.8056
  149MOL0     H20103   4.767   7.776   5.385  0.3995  0.7205  2.0488
  149MOL0     H20104   4.759   7.623   5.305 -3.5428  2.3065 -2.4544
  149MOL0     H20105   4.863   7.544   5.481 -0.1950  1.6452 -3.7024
  149MOL0     H20106   4.703   7.543   5.571  2.0703 -0.4817  3.3034
  149MOL0     H20107   4.755   7.758   5.640  2.7916  2.6572  2.5483
  149MOL0     H20108   4.910   7.760   5.558  0.4903  1.5986  2.5987
  149MOL0     H20109   4.972   7.547   5.698 -2.9506 -1.1048 -4.2910
  149MOL0     H20110   4.949   7.713   5.780  1.3257 -0.7008 -0.7880
  149MOL0     H20111   4.644   7.442   5.922 -0.6641  0.4089  0.4742
  149MOL0     H20112   4.607   7.912   5.497 -0.6871  1.7936  2.3189
  149MOL0     H20113   4.436   8.133   5.656 -3.4016 -0.8977  1.1882
  149MOL0     H20114   4.435   8.029   5.780 -4.4976  1.4758 -1.3408
  149MOL0     H20115   4.585   8.041   5.694 -0.8709  1.5829  2.8008
  150MOL0     O20116   1.631   5.108   7.791 -0.3748 -0.0738  0.0353
  150MOL0     C20117   1.613   5.228   7.784 -0.4784  0.1463 -0.2146
  150MOL0     O20118   1.670   5.315   7.692  0.2184 -0.5721  1.1988
  150MOL0     C20119   1.733   5.255   7.586 -0.6572  1.0330 -0.4391
  150MOL0     C20120   1.866   5.296   7.577  0.7477 -1.0276  0.1585
  150MOL0     C20121   1.952   5.242   7.489  0.9041  1.0812  0.2720
  150MOL0     C20122   1.902   5.151   7.395 -0.4186 -0.1361  0.5029
  150MOL0     O20123   1.982   5.102   7.297 -0.0438 -0.2453 -0.7117
  150MOL0     C20124   2.046   5.199   7.204  0.6987  0.7248 -0.2827
  150MOL0     C20125   2.128   5.120   7.096  0.0246  0.1675  0.8166
  150MOL0     C20126   2.226   5.209   7.018  0.0074  0.1339 -0.8038
  150MOL0     C20127   2.263   5.148   6.879  0.3324  0.3552 -0.4650
  150MOL0     C20128   2.328   5.001   6.888  0.2426  0.1642  0.6611
  150MOL0     C20129   2.436   5.000   6.999  0.1726 -0.1064 -0.9557
  150MOL0     C20130   2.555   5.096   6.968  0.1502  0.4285  0.9422
  150MOL0     C20131   2.663   5.064   7.081  0.7022  0.7606  0.0682
  150MOL0     N20132   2.735   4.952   7.043 -0.1940  0.4639  0.3673
  150MOL0     C20133   2.802   4.935   6.917 -0.8665  0.2176 -0.3015
  150MOL0     C20134   2.887   4.830   6.934  0.5877  0.9040 -0.3700
  150MOL0     C20135   3.005   4.790   6.856 -0.1180  0.4775 -0.8573
  150MOL0     C20136   3.133   4.809   6.942 -0.0218  0.0599  0.1034
  150MOL0     C20137   3.137   4.951   6.991  0.1384  0.4164  0.4895
  150MOL0     C20138   3.241   4.965   7.108 -0.0589 -0.0532  0.6579
  150MOL0     O20139   3.361   4.911   7.058  0.0181  0.2031 -0.8989
  150MOL0     C20140   3.460   4.880   7.161 -0.1935 -0.3829 -0.2042
  150MOL0     C20141   3.591   4.845   7.113 -0.0820 -0.0925 -0.0182
  150MOL0     C20142   3.688   4.796   7.205 -0.3014  0.4692  0.4026
  150MOL0     C20143   3.666   4.799   7.350  0.4481 -1.3974 -0.3181
  150MOL0     C20144   3.762   4.753   7.450  0.1189  0.0651 -0.3893
  150MOL0     O20145   3.742   4.793   7.580 -0.0513  0.4202  0.2798
  150MOL0     C20146   3.823   4.730   7.676 -0.1204 -1.3698 -0.8660
  150MOL0     C20147   3.809   4.595   7.707  0.0150  0.6387 -0.4856
  150MOL0     C20148   3.879   4.539   7.817  0.4285 -0.5630  0.9433
  150MOL0     C20149   3.966   4.620   7.899 -0.1508 -0.7320  0.1290
  150MOL0     O20150   4.021   4.556   8.012 -1.2558 -0.5496 -0.4539
  150MOL0     C20151   4.148   4.583   8.065  0.5845 -0.1233  0.8049
  150MOL0     C20152   4.231   4.462   8.017 -0.2773  0.3420 -0.6811
  150MOL0     C20153   4.368   4.501   7.968 -0.4569 -0.4466 -0.7287
  150MOL0     C20154   4.483   4.399   8.003 -0.6161  0.6458  0.0711
  150MOL0     C20155   4.629   4.453   7.976  0.7695  0.2199  0.1278
  150MOL0     C20156   4.653   4.492   7.825  0.9272  0.7094 -0.1897
  150MOL0     C20157   4.605   4.374   7.745 -0.6981  0.0395 -0.0965
  150MOL0     C20158   4.638   4.365   7.600 -0.4597 -0.0706  0.5611
  150MOL0    Cl20159   4.546   4.241   7.512 -0.4380 -0.5707  0.5405
  150MOL0     C20160   3.986   4.755   7.870 -0.1756  0.5282 -0.5005
  150MOL0     C20161   3.912   4.809   7.756  0.0760  0.0416 -0.3843
  150MOL0     O20162   3.856   4.679   7.407 -0.0517  0.1582  1.2641
  150MOL0     C20163   3.539   4.842   7.392 -0.0494 -0.5284 -0.0208
  150MOL0     C20164   3.443   4.877   7.298  0.2903 -0.5028  0.1157
  150MOL0     N20165   2.855   4.778   7.056 -0.7440 -0.4662 -0.2871
  150MOL0     N20166   2.771   4.852   7.129 -0.0835 -0.5653  0.8180
  150MOL0     C20167   1.771   5.103   7.400  0.0311 -0.4942 -0.8084
  150MOL0     C20168   1.694   5.151   7.503  0.5148 -0.3179  0.3415
  150MOL0     C20169   1.536   5.291   7.894  0.1251  1.3990 -0.5018
  150MOL0     C20170   1.563   5.423   7.931 -0.9065  0.1858  0.5241
  150MOL0     C20171   1.483   5.502   8.004  0.5914  0.3818 -0.1135
  150MOL0     C20172   1.371   5.448   8.065  0.8530 -0.1234 -0.3751
  150MOL0     O20173   1.293   5.511   8.164  0.0234  0.2748  0.4095
  150MOL0     C20174   1.286   5.659   8.155 -0.3560 -0.7867 -0.1154
  150MOL0     C20175   1.251   5.731   8.021  0.8357  0.3718 -0.2456
  150MOL0     C20176   1.097   5.705   7.982 -0.6726 -0.2161 -0.3039
  150MOL0     C20177   1.061   5.785   7.854 -0.2686 -0.5130 -0.5040
  150MOL0     C20178   0.923   5.758   7.821 -0.7668 -0.4530 -0.3029
  150MOL0     C20179   0.807   5.726   7.802 -0.1103  0.0241  0.2301
  150MOL0     C20180   1.347   5.304   8.049  0.0639 -0.7822  0.7696
  150MOL0     C20181   1.430   5.230   7.958  0.5052  0.2050  0.1706
  150MOL0     C20182   1.384   5.090   7.942 -0.9922  0.2293  0.1453
  150MOL0     H20183   1.891   5.382   7.638 -0.5579 -1.3757  1.2642
  150MOL0     H20184   2.055   5.278   7.479  0.4907  1.9449 -1.2792
  150MOL0     H20185   1.969   5.262   7.159 -1.6372 -0.1473  2.2493
  150MOL0     H20186   2.125   5.252   7.257  1.1236 -0.9198  0.7890
  150MOL0     H20187   2.060   5.073   7.024 -0.0405 -0.9946  1.6097
  150MOL0     H20188   2.181   5.038   7.145  2.5535  0.5367 -1.1143
  150MOL0     H20189   2.316   5.235   7.073  1.1250 -1.9855 -1.4983
  150MOL0     H20190   2.186   5.308   6.993  0.3282 -0.0247 -2.0129
  150MOL0     H20191   2.178   5.143   6.810 -0.2354  2.2630  0.0340
  150MOL0     H20192   2.338   5.202   6.821 -1.8074  0.7649 -3.0598
  150MOL0     H20193   2.255   4.920   6.895 -1.8019  1.2811 -3.7898
  150MOL0     H20194   2.375   4.984   6.791  1.0324  1.6953  0.7434
  150MOL0     H20195   2.397   5.047   7.090  1.9997  0.3166 -0.3479
  150MOL0     H20196   2.477   4.900   7.015  0.9941  0.2372 -0.8603
  150MOL0     H20197   2.517   5.197   6.984 -0.2409  0.0701  2.4846
  150MOL0     H20198   2.585   5.081   6.864  2.7489  0.1628  1.6549
  150MOL0     H20199   2.735   5.145   7.091 -1.3482  2.8371 -0.9893
  150MOL0     H20200   2.623   5.055   7.183 -2.1411 -2.2337 -1.1195
  150MOL0     H20201   2.810   5.001   6.831  3.3977 -1.0720 -1.1389
  150MOL0     H20202   2.986   4.689   6.818 -0.2924  0.5406 -0.9411
  150MOL0     H20203   3.005   4.844   6.761 -1.5854 -1.6424 -2.1589
  150MOL0     H20204   3.125   4.743   7.029 -0.7401 -0.1479 -0.1074
  150MOL0     H20205   3.220   4.781   6.883  1.5086  1.2826  1.6787
  150MOL0     H20206   3.039   4.982   7.029 -1.3612 -0.2314 -2.6058
  150MOL0     H20207   3.177   5.011   6.909 -0.2111  0.7400  0.5527
  150MOL0     H20208   3.198   4.914   7.194 -0.1906 -0.7486  0.1838
  150MOL0     H20209   3.260   5.072   7.125  4.7049 -0.4891 -0.5107
  150MOL0     H20210   3.617   4.845   7.007  0.0448  2.0152 -0.0153
  150MOL0     H20211   3.773   4.742   7.165 -0.6763  0.0368  0.1884
  150MOL0     H20212   3.730   4.544   7.654 -0.1886  0.7998 -0.3392
  150MOL0     H20213   3.862   4.438   7.853 -2.4972 -1.4253 -2.3792
  150MOL0     H20214   4.192   4.675   8.025  4.5445 -2.2866 -0.4221
  150MOL0     H20215   4.148   4.584   8.174 -0.3785 -2.1247  0.8568
  150MOL0     H20216   4.244   4.393   8.101  1.9002  1.0444 -0.3846
  150MOL0     H20217   4.178   4.407   7.938 -3.7155 -0.0837  1.7126
  150MOL0     H20218   4.355   4.523   7.862 -0.7399  4.3673  0.0775
  150MOL0     H20219   4.411   4.586   8.022  2.1086 -1.5129 -0.9275
  150MOL0     H20220   4.458   4.301   7.963  3.8636  0.4361 -2.8357
  150MOL0     H20221   4.472   4.403   8.112 -0.5423 -1.4748  0.1897
  150MOL0     H20222   4.709   4.384   8.003  1.7460  1.1962 -0.1947
  150MOL0     H20223   4.648   4.534   8.046 -1.6720  1.0192 -0.0224
  150MOL0     H20224   4.598   4.586   7.817  1.5292  1.0757 -0.1401
  150MOL0     H20225   4.761   4.504   7.810  0.8383  1.6828 -0.1542
  150MOL0     H20226   4.497   4.384   7.737 -0.5680  3.5535  0.9868
  150MOL0     H20227   4.632   4.281   7.796 -2.0481 -1.8373 -2.5467
  150MOL0     H20228   4.630   4.467   7.562  2.0897 -0.0965 -0.2154
  150MOL0     H20229   4.741   4.328   7.600  0.0573  0.8513 -3.7945
  150MOL0     H20230   4.044   4.812   7.942  0.6425 -1.0985  0.1674
  150MOL0     H20231   3.917   4.915   7.731  1.4970 -0.2965 -1.6640
  150MOL0     H20232   3.517   4.844   7.498  1.8334  1.0521  0.4107
  150MOL0     H20233   3.347   4.904   7.340  0.7719  1.3182  0.1286
  150MOL0     H20234   1.725   5.029   7.336 -0.0705 -0.1768 -1.1057
  150MOL0     H20235   1.598   5.100   7.512 -0.0199  0.8317  1.5881
  150MOL0     H20236   1.647   5.472   7.884 -0.1876 -2.4238 -1.1562
  150MOL0     H20237   1.512   5.606   8.010  0.2273  0.6210 -1.9082
  150MOL0     H20238   1.378   5.713   8.179 -0.6767 -0.1548 -0.2950
  150MOL0     H20239   1.208   5.703   8.218 -2.7759 -0.8926 -2.8375
  150MOL0     H20240   1.323   5.702   7.944  3.1219 -0.2598  1.9910
  150MOL0     H20241   1.260   5.835   8.052 -1.1129  1.2531 -2.3715
  150MOL0     H20242   1.039   5.742   8.067 -0.0669  1.1153 -0.4457
  150MOL0     H20243   1.080   5.599   7.963  0.1815 -0.2589 -0.9020
  150MOL0     H20244   1.081   5.887   7.887  2.7138 -0.7110 -1.4249
  150MOL0     H20245   1.127   5.760   7.770  1.7701 -0.0518  0.9047
  150MOL0     H20246   0.705   5.698   7.784  0.4139 -1.1120 -1.1823
  150MOL0     H20247   1.285   5.255   8.123  2.9324  1.1541  4.8061
  150MOL0     H20248   1.304   5.048   8.005 -0.2327 -3.0346 -0.8620
  150MOL0     H20249   1.347   5.077   7.840 -3.4419  0.4950  0.9354
  150MOL0     H20250   1.476   5.034   7.963 -0.6415  1.4373  2.1112
  151MOL0     O20251   6.190   2.990   1.606 -0.1121 -0.5974 -0.4011
  151MOL0     C20252   6.232   3.109   1.591 -0.2551  0.9946  0.3226
  151MOL0     O20253   6.205   3.190   1.490  0.3975 -0.4811  0.1391
  151MOL0     C20254   6.129   3.138   1.385 -0.5159 -0.4294 -0.3311
  151MOL0     C20255   6.206   3.060   1.296 -0.6053  0.6661 -1.0233
  151MOL0     C20256   6.140   2.989   1.193  0.1588  0.3768 -0.6419
  151MOL0     C20257   5.999   3.015   1.175 -0.1184 -0.4903 -0.1343
  151MOL0     O20258   5.932   2.974   1.063 -0.3423  0.0475  0.3878
  151MOL0     C20259   5.897   2.841   1.063  0.5514  0.3917  0.4242
  151MOL0     C20260   5.838   2.805   0.920 -0.3150 -0.1189 -0.2733
  151MOL0     C20261   5.694   2.847   0.920  0.1368  0.6328  0.5546
  151MOL0     C20262   5.683   3.002   0.893 -0.6183  0.8554  0.0705
  151MOL0     C20263   5.538   3.060   0.907 -0.1494  0.5045 -0.2335
  151MOL0     C20264   5.552   3.220   0.900 -0.6425  0.3137 -0.2648
  151MOL0     C20265   5.561   3.288   0.760 -0.1830 -0.7127 -0.3735
  151MOL0     C20266   5.450   3.248   0.673 -0.4019  0.3805  0.6522
  151MOL0     N20267   5.475   3.138   0.582 -0.5433  0.4364 -0.5502
  151MOL0     C20268   5.590   3.131   0.514  1.1670  0.0760  0.3390
  151MOL0     C20269   5.598   3.002   0.478  0.0511 -0.0778  0.2243
  151MOL0     C20270   5.711   2.950   0.384 -0.2309 -0.1810 -0.3482
  151MOL0     C20271   5.842   2.914   0.456 -0.5182 -1.1057 -0.5408
  151MOL0     C20272   5.968   2.884   0.367 -0.2055  0.5443  0.0008
  151MOL0     C20273   5.968   2.756   0.285  0.5039 -0.2021 -0.8753
  151MOL0     O20274   6.031   2.642   0.353 -0.0458 -0.0924  0.2515
  151MOL0     C20275   6.013   2.518   0.306 -0.0400 -0.0057  0.1267
  151MOL0     C20276   5.968   2.410   0.381  0.0013  0.0499  0.2415
  151MOL0     C20277   5.952   2.279   0.333 -0.5803  0.7176 -0.6499
  151MOL0     C20278   6.002   2.245   0.208  0.3722 -1.5983 -0.2378
  151MOL0     C20279   5.984   2.108   0.154  0.0153 -0.3822  0.1037
  151MOL0     O20280   5.910   2.027   0.217  0.1175  0.3379  0.5267
  151MOL0     C20281   5.895   1.891   0.201 -0.0807 -0.0530  0.4717
  151MOL0     C20282   5.952   1.806   0.093  0.5571 -0.1852  0.0734
  151MOL0     C20283   5.911   1.671   0.077  0.2218 -0.8122 -0.0785
  151MOL0     C20284   5.811   1.613   0.154  1.4277 -0.2409 -0.1686
  151MOL0     O20285   5.764   1.481   0.141 -0.5253  0.1896 -0.0027
  151MOL0     C20286   5.830   1.387   0.059  0.0850 -0.2343 -0.0030
  151MOL0     C20287   5.958   1.332   0.130 -1.0622 -0.8580  0.6804
  151MOL0     C20288   6.006   1.195   0.094 -0.0455  0.3422 -0.1267
  151MOL0     C20289   6.005   1.171  -0.064  0.1786  0.4156  0.6703
  151MOL0     C20290   6.061   1.025  -0.090 -0.4996  0.4674  0.2560
  151MOL0     C20291   6.063   0.954  -0.235  0.4785 -0.3358 -0.2111
  151MOL0     C20292   6.119   0.815  -0.244  0.0721  0.6708 -0.6653
  151MOL0     C20293   6.092   0.774  -0.388  0.0648 -0.3259 -0.0417
  151MOL0    Cl20294   6.139   0.608  -0.437  0.3909 -0.2642 -0.4523
  151MOL0     C20295   5.778   1.687   0.266  0.2813 -0.0898  0.0621
  151MOL0     C20296   5.819   1.822   0.287 -0.3747  0.6652  0.7277
  151MOL0     O20297   6.040   2.081   0.044 -0.6527  0.2692 -0.3231
  151MOL0     C20298   6.056   2.357   0.134 -0.3094 -0.1533 -1.1639
  151MOL0     C20299   6.058   2.487   0.179  0.3708 -0.2824  0.2416
  151MOL0     N20300   5.514   2.920   0.542  0.1484 -0.1340  1.0759
  151MOL0     N20301   5.436   3.006   0.598  0.3933 -0.3324 -0.4235
  151MOL0     C20302   5.930   3.094   1.265  0.6920 -0.7419 -0.2254
  151MOL0     C20303   5.993   3.161   1.370  0.4172  0.1310  0.4028
  151MOL0     C20304   6.328   3.162   1.699 -0.1545 -0.4689 -0.4020
  151MOL0     C20305   6.322   3.307   1.713  0.0839  0.3335  0.3367
  151MOL0     C20306   6.402   3.371   1.804 -0.5286  0.2470  0.9105
  151MOL0     C20307   6.482   3.286   1.876  0.7872 -1.0031 -0.6731
  151MOL0     O20308   6.583   3.327   1.962  0.4156 -0.4805  0.1945
  151MOL0     C20309   6.672   3.447   1.949 -0.7702  0.3685 -0.3352
  151MOL0     C20310   6.791   3.448   2.043 -0.3423 -0.6474  1.1160
  151MOL0     C20311   6.909   3.363   1.981 -0.8494 -0.1161 -0.8121
  151MOL0     C20312   7.030   3.368   2.079  0.6510 -0.5312  0.7599
  151MOL0     C20313   7.142   3.287   2.047  0.5733 -0.2589 -0.0794
  151MOL0     C20314   7.228   3.210   2.005 -0.1134  0.3778 -0.7062
  151MOL0     C20315   6.488   3.148   1.861  0.8109 -0.0379  0.8985
  151MOL0     C20316   6.407   3.083   1.775 -0.6181 -0.3738 -0.3334
  151MOL0     C20317   6.418   2.928   1.770  0.6480 -0.6774 -0.0688
  151MOL0     H20318   6.310   3.046   1.321 -1.0746  1.1258  1.4951
  151MOL0     H20319   6.195   2.948   1.109  2.8503  0.2134  1.0979
  151MOL0     H20320   5.986   2.782   1.088  0.6584  1.4709  2.8176
  151MOL0     H20321   5.818   2.839   1.138 -1.1432  0.2601 -1.2738
  151MOL0     H20322   5.827   2.698   0.899  0.0076  0.4239 -4.0330
  151MOL0     H20323   5.902   2.852   0.844 -0.7495  1.2487  0.1687
  151MOL0     H20324   5.633   2.818   1.005 -0.3543 -1.7437 -0.5265
  151MOL0     H20325   5.644   2.800   0.835 -2.1499 -2.4799  3.3674
  151MOL0     H20326   5.744   3.060   0.963 -1.6272 -0.4616  2.1411
  151MOL0     H20327   5.740   3.029   0.804  2.7235  0.6816  1.9818
  151MOL0     H20328   5.470   3.008   0.839 -3.7868  2.5192  1.5527
  151MOL0     H20329   5.496   3.035   1.005 -3.4575 -1.2730 -1.9438
  151MOL0     H20330   5.461   3.255   0.948 -0.4757  2.1713 -1.2098
  151MOL0     H20331   5.636   3.246   0.965 -0.1960  1.0418 -1.0939
  151MOL0     H20332   5.654   3.267   0.707 -2.7060 -1.5799 -4.9240
  151MOL0     H20333   5.562   3.395   0.782  0.6377 -0.9310  0.7926
  151MOL0     H20334   5.355   3.228   0.725 -0.6650  2.1157  0.8957
  151MOL0     H20335   5.445   3.332   0.603  3.8195 -0.4118 -0.8709
  151MOL0     H20336   5.652   3.215   0.485  1.8479  0.0384  1.6411
  151MOL0     H20337   5.666   2.859   0.343 -0.6213 -0.1870  0.0798
  151MOL0     H20338   5.737   3.026   0.309  2.1425 -0.0211  0.5404
  151MOL0     H20339   5.872   2.998   0.520  3.6473 -1.3956 -1.7589
  151MOL0     H20340   5.822   2.825   0.516  0.1723 -0.3536  0.8509
  151MOL0     H20341   6.044   2.868   0.443  0.0312  1.4683 -0.0280
  151MOL0     H20342   5.999   2.973   0.311 -2.6558 -1.4208 -5.0802
  151MOL0     H20343   6.006   2.771   0.183  0.8041 -1.2536 -0.9312
  151MOL0     H20344   5.862   2.730   0.274 -0.5006  1.5850  2.9168
  151MOL0     H20345   5.933   2.426   0.482 -1.4623 -2.1576  0.1311
  151MOL0     H20346   5.901   2.202   0.391 -3.4803  1.1325 -2.4808
  151MOL0     H20347   6.027   1.842   0.024  1.2945  1.8298  1.8064
  151MOL0     H20348   5.956   1.621  -0.008  1.0960  2.1070 -1.4498
  151MOL0     H20349   5.763   1.303   0.038 -0.2366 -0.4883  1.8945
  151MOL0     H20350   5.854   1.423  -0.042 -2.3973  0.6619 -0.3707
  151MOL0     H20351   6.045   1.392   0.101 -0.6464 -1.7815 -0.0592
  151MOL0     H20352   5.962   1.323   0.239  2.1423 -4.5669  0.4917
  151MOL0     H20353   6.110   1.205   0.127  0.9356  1.8316 -3.2744
  151MOL0     H20354   5.956   1.108   0.137  0.4272 -1.9237 -3.6810
  151MOL0     H20355   6.068   1.248  -0.108 -1.4523  1.0762 -0.6158
  151MOL0     H20356   5.901   1.184  -0.097 -0.0744  0.3552  1.4063
  151MOL0     H20357   6.001   0.959  -0.026 -3.7838  1.2856 -1.7301
  151MOL0     H20358   6.164   1.018  -0.055  0.3750 -0.6630 -2.3410
  151MOL0     H20359   5.968   0.944  -0.287  1.9404 -3.2680 -2.6304
  151MOL0     H20360   6.122   1.021  -0.299 -1.6730  3.0446  1.0891
  151MOL0     H20361   6.072   0.742  -0.176 -1.7301  0.1750 -2.3627
  151MOL0     H20362   6.226   0.812  -0.224 -0.1926 -1.4779  0.8847
  151MOL0     H20363   5.982   0.775  -0.388  0.0595  1.0009  0.2424
  151MOL0     H20364   6.143   0.844  -0.454  0.6278  0.6944  1.4059
  151MOL0     H20365   5.725   1.642   0.350  0.1108  1.6129  0.9044
  151MOL0     H20366   5.778   1.874   0.373 -1.2036  0.9643  0.1705
  151MOL0     H20367   6.100   2.335   0.037  0.0326 -0.2428 -0.9919
  151MOL0     H20368   6.099   2.562   0.113  0.4549 -0.3251  0.2458
  151MOL0     H20369   5.822   3.107   1.265  0.6354 -1.1905 -0.8434
  151MOL0     H20370   5.950   3.223   1.447 -1.5204  0.1036 -0.5852
  151MOL0     H20371   6.268   3.361   1.636  0.6342 -1.8546 -1.6903
  151MOL0     H20372   6.413   3.479   1.799  2.7273  0.0964  2.2127
  151MOL0     H20373   6.617   3.537   1.976 -1.0534  0.9249 -2.5374
  151MOL0     H20374   6.718   3.462   1.851 -1.0905  2.5160 -0.2052
  151MOL0     H20375   6.763   3.423   2.146  0.2836  0.6660  1.6296
  151MOL0     H20376   6.832   3.549   2.041  0.6521 -1.0547  0.0715
  151MOL0     H20377   6.949   3.406   1.889  0.6896  2.1562  0.8087
  151MOL0     H20378   6.879   3.259   1.963  1.5993 -1.2979  1.1241
  151MOL0     H20379   7.058   3.472   2.099  3.1400 -1.3748  2.1546
  151MOL0     H20380   6.984   3.331   2.171 -1.9413  3.7253  1.4228
  151MOL0     H20381   7.292   3.139   1.957  1.2510 -0.5849  2.2996
  151MOL0     H20382   6.559   3.090   1.918  0.8201  0.7077  1.6683
  151MOL0     H20383   6.461   2.902   1.672  4.0295  0.4195  0.9978
  151MOL0     H20384   6.473   2.887   1.855  2.0743 -2.3726 -1.7136
  151MOL0     H20385   6.322   2.876   1.783  0.4559 -0.4284 -0.4609
  152MOL0     O20386  10.972   5.247  10.369 -0.3090 -0.0896 -0.0690
  152MOL0     C20387  11.037   5.150  10.411 -0.2711 -0.3521 -0.1352
  152MOL0     O20388  10.990   5.023  10.416  0.8126  0.8075 -0.0340
  152MOL0     C20389  10.876   5.002  10.337 -0.4276  0.1170  0.0195
  152MOL0     C20390  10.747   5.019  10.389 -0.5077  0.2673 -0.0971
  152MOL0     C20391  10.628   4.987  10.323 -0.3029 -0.2549  0.1780
  152MOL0     C20392  10.637   4.946  10.188 -0.6471  0.6474  0.7950
  152MOL0     O20393  10.539   4.900  10.107 -0.9117  0.2794  0.3366
  152MOL0     C20394  10.402   4.924  10.132  0.3732 -0.3845  0.1128
  152MOL0     C20395  10.327   4.823  10.047  1.2528  0.4771  0.2994
  152MOL0     C20396  10.196   4.771  10.116 -0.6165 -0.2041  0.1317
  152MOL0     C20397  10.092   4.893  10.109 -0.9537 -0.2594 -0.6804
  152MOL0     C20398   9.960   4.833  10.159 -0.9117 -1.2139 -0.9931
  152MOL0     C20399   9.847   4.934  10.139 -0.1937  0.4554 -0.5214
  152MOL0     C20400   9.717   4.878  10.199 -0.0915 -1.0114 -0.9678
  152MOL0     C20401   9.598   4.957  10.142  0.0146  0.5850 -0.1971
  152MOL0     N20402   9.475   4.900  10.210  0.5056  0.7420  0.3277
  152MOL0     C20403   9.381   4.833  10.138 -0.1684  0.1877 -0.4854
  152MOL0     C20404   9.285   4.812  10.229  0.8596 -0.1469  0.2220
  152MOL0     C20405   9.165   4.723  10.208  0.4586  0.5604 -0.1514
  152MOL0     C20406   9.032   4.803  10.218  1.1331 -1.0725 -0.1312
  152MOL0     C20407   8.895   4.731  10.186  0.2851  0.1275 -0.6261
  152MOL0     C20408   8.772   4.829  10.198 -0.5462 -0.3077 -0.3223
  152MOL0     O20409   8.655   4.750  10.232  1.1967  0.3270  0.4546
  152MOL0     C20410   8.563   4.805  10.313  0.8715 -0.2202  0.7755
  152MOL0     C20411   8.537   4.944  10.340  0.2845 -0.3929  0.2310
  152MOL0     C20412   8.424   4.976  10.427  0.1881  0.4113  0.9956
  152MOL0     C20413   8.345   4.870  10.487  0.0962 -0.1738 -0.8598
  152MOL0     C20414   8.231   4.894  10.578  0.5562 -0.2519  0.3085
  152MOL0     O20415   8.214   4.794  10.663  0.1873 -0.1560  0.2525
  152MOL0     C20416   8.132   4.814  10.772  1.5441  0.0806  0.1224
  152MOL0     C20417   8.071   4.699  10.831  0.6059  0.4343 -0.4442
  152MOL0     C20418   7.982   4.698  10.942 -0.3388 -0.4025  0.3542
  152MOL0     C20419   7.943   4.821  11.001 -0.1077 -0.2652  0.5384
  152MOL0     O20420   7.855   4.832  11.104 -0.4277 -0.6919 -0.9777
  152MOL0     C20421   7.878   4.736  11.210  0.2867 -0.1629  0.8201
  152MOL0     C20422   7.985   4.780  11.305 -0.7771  0.1015 -0.6418
  152MOL0     C20423   8.043   4.673  11.406 -0.4031 -0.2552 -0.3119
  152MOL0     C20424   8.132   4.742  11.508  0.9107  0.3302 -0.4207
  152MOL0     C20425   8.218   4.661  11.601  0.0961  0.8182 -1.2725
  152MOL0     C20426   8.283   4.750  11.716 -0.0765  1.2379  0.7026
  152MOL0     C20427   8.349   4.660  11.830 -0.5344 -0.0977  0.2559
  152MOL0     C20428   8.456   4.747  11.907 -0.2658 -0.3138 -0.0081
  152MOL0    Cl20429   8.544   4.639  12.015 -0.5820  0.2066  0.4673
  152MOL0     C20430   7.990   4.937  10.936  0.8139  0.7775 -0.3766
  152MOL0     C20431   8.084   4.933  10.834 -0.1517  0.0316 -0.5754
  152MOL0     O20432   8.174   4.999  10.575 -0.2879 -0.2724  0.4306
  152MOL0     C20433   8.384   4.736  10.461  0.3311  0.0610  0.3788
  152MOL0     C20434   8.493   4.711  10.384  0.9076  0.2251  0.0015
  152MOL0     N20435   9.325   4.874  10.353 -0.1274 -0.8229 -0.5343
  152MOL0     N20436   9.436   4.926  10.338 -0.8473  0.3196  0.9273
  152MOL0     C20437  10.761   4.931  10.125  0.7846 -0.4050 -0.2919
  152MOL0     C20438  10.883   4.954  10.200  0.3111 -0.3109 -1.0198
  152MOL0     C20439  11.177   5.167  10.473 -0.4768  0.3968 -0.5802
  152MOL0     C20440  11.228   5.063  10.557 -0.1661 -0.0886 -0.0246
  152MOL0     C20441  11.357   5.060  10.610 -0.2011 -0.4601  0.0921
  152MOL0     C20442  11.446   5.172  10.580  0.4971 -0.2022  0.3688
  152MOL0     O20443  11.580   5.171  10.592 -0.0022 -0.3287  0.2693
  152MOL0     C20444  11.640   5.054  10.645  0.9203  1.0408  0.0067
  152MOL0     C20445  11.776   5.041  10.567 -0.2954  0.7407  0.1346
  152MOL0     C20446  11.861   4.913  10.574 -0.9812  0.1352 -0.2671
  152MOL0     C20447  11.969   4.919  10.464  0.5326  0.7677  0.0606
  152MOL0     C20448  11.910   4.893  10.330 -0.0822  1.0285  0.6675
  152MOL0     C20449  11.844   4.878  10.225 -0.3022  0.2182  0.1138
  152MOL0     C20450  11.402   5.269  10.494 -0.7823  0.8249  0.2485
  152MOL0     C20451  11.275   5.264  10.438  0.7555  0.6039  0.7975
  152MOL0     C20452  11.246   5.380  10.347  0.1054  0.1770 -0.0328
  152MOL0     H20453  10.743   5.048  10.493  1.4854 -0.9423  0.3657
  152MOL0     H20454  10.535   5.015  10.371  0.6048 -0.1758  1.9684
  152MOL0     H20455  10.388   4.898  10.238 -0.4360 -1.1342 -0.1653
  152MOL0     H20456  10.360   5.022  10.108  1.8927  0.2143 -0.2065
  152MOL0     H20457  10.391   4.737  10.029  0.7678  0.0424  0.6395
  152MOL0     H20458  10.290   4.870   9.955  0.2079 -0.9374 -0.0382
  152MOL0     H20459  10.206   4.733  10.218 -0.8954 -1.7194 -0.3840
  152MOL0     H20460  10.140   4.692  10.066 -4.1972  0.7040  2.3071
  152MOL0     H20461  10.115   4.986  10.161  0.2006  0.5263 -2.4815
  152MOL0     H20462  10.076   4.927  10.006 -0.9507  0.8710 -0.3194
  152MOL0     H20463   9.938   4.738  10.110 -2.0070 -1.3350 -0.2861
  152MOL0     H20464   9.969   4.816  10.266  0.3273 -0.1951 -0.9116
  152MOL0     H20465   9.887   5.027  10.181  5.2392 -1.8494  0.2484
  152MOL0     H20466   9.831   4.943  10.031  0.7086 -0.3294 -0.7283
  152MOL0     H20467   9.719   4.875  10.308 -1.9929 -2.0426 -0.9105
  152MOL0     H20468   9.711   4.780  10.153  1.7559 -2.0715  0.8630
  152MOL0     H20469   9.608   5.065  10.161 -3.4542  0.7856  1.1137
  152MOL0     H20470   9.589   4.939  10.035 -0.7832  0.5017 -0.1179
  152MOL0     H20471   9.391   4.811  10.033  1.7218 -0.4849 -0.2161
  152MOL0     H20472   9.168   4.666  10.115  0.7905  0.6042 -0.1683
  152MOL0     H20473   9.174   4.646  10.286 -1.2451 -1.1153 -1.5141
  152MOL0     H20474   9.044   4.855  10.314  2.0015 -0.7721 -0.3903
  152MOL0     H20475   9.024   4.883  10.143  0.9492 -2.4344 -1.6179
  152MOL0     H20476   8.888   4.639  10.245  0.7386  0.9618  0.7855
  152MOL0     H20477   8.902   4.697  10.082 -1.5000  1.0446 -1.0873
  152MOL0     H20478   8.771   4.896  10.112  1.8978  2.5955  1.7082
  152MOL0     H20479   8.789   4.900  10.279  4.2915 -2.1644  0.6179
  152MOL0     H20480   8.585   5.025  10.287 -0.9386  0.2621  0.0948
  152MOL0     H20481   8.389   5.076  10.453 -0.2347 -0.4297  4.0301
  152MOL0     H20482   8.094   4.602  10.789 -0.3617 -0.5411  1.1802
  152MOL0     H20483   7.940   4.602  10.970 -1.3465 -0.1262 -0.1788
  152MOL0     H20484   7.780   4.717  11.255 -1.3646  3.2367 -0.9369
  152MOL0     H20485   7.897   4.635  11.172 -2.9484 -0.9465  0.9498
  152MOL0     H20486   8.070   4.830  11.258 -0.4238  0.0935 -0.0257
  152MOL0     H20487   7.934   4.851  11.370  3.1808  0.2938  2.6209
  152MOL0     H20488   7.954   4.629  11.451 -2.7333  2.9203 -1.4555
  152MOL0     H20489   8.099   4.589  11.366 -0.4509 -1.4868  2.0262
  152MOL0     H20490   8.061   4.797  11.570 -0.3530 -2.7088  1.0844
  152MOL0     H20491   8.201   4.808  11.457  3.1919 -0.3104  1.6349
  152MOL0     H20492   8.301   4.605  11.557 -0.5208  0.2051 -1.6635
  152MOL0     H20493   8.150   4.586  11.643 -0.0926  0.1111 -2.7904
  152MOL0     H20494   8.357   4.810  11.662 -0.6202 -0.3048 -1.9151
  152MOL0     H20495   8.200   4.808  11.757 -0.4054 -0.5841  2.8302
  152MOL0     H20496   8.395   4.574  11.780 -0.5271  0.5309 -0.8537
  152MOL0     H20497   8.280   4.614  11.901 -0.4979 -1.6921 -0.6723
  152MOL0     H20498   8.517   4.807  11.838 -0.3289  0.2812  0.4386
  152MOL0     H20499   8.412   4.830  11.964  1.6053 -0.1533  1.3221
  152MOL0     H20500   7.968   5.038  10.968  2.7502  1.1936 -0.2122
  152MOL0     H20501   8.130   5.029  10.812  2.5203 -0.9016  0.6095
  152MOL0     H20502   8.323   4.649  10.487 -0.1617 -0.6663 -2.7649
  152MOL0     H20503   8.506   4.609  10.349  0.7905  1.9755 -6.3790
  152MOL0     H20504  10.764   4.919  10.017 -0.1738 -0.4082 -0.3245
  152MOL0     H20505  10.978   4.935  10.152 -1.7831 -2.6828 -4.6685
  152MOL0     H20506  11.151   4.991  10.585 -2.0089  1.5551 -0.6272
  152MOL0     H20507  11.379   4.967  10.661 -3.0388 -2.7564 -2.4616
  152MOL0     H20508  11.586   4.960  10.627  1.0638  1.3873 -2.5130
  152MOL0     H20509  11.642   5.053  10.755 -1.3224  1.2110  0.1095
  152MOL0     H20510  11.844   5.119  10.601  1.9521 -1.8010  1.8683
  152MOL0     H20511  11.744   5.044  10.463  1.3590 -2.7147 -0.5924
  152MOL0     H20512  11.793   4.828  10.567 -2.5517  1.0763  2.1148
  152MOL0     H20513  11.922   4.908  10.666 -2.4876  0.8314  0.8100
  152MOL0     H20514  12.018   5.017  10.462  0.1729  1.0621  2.7803
  152MOL0     H20515  12.037   4.837  10.492  0.0225  0.8127  1.4684
  152MOL0     H20516  11.785   4.839  10.145 -0.6409 -3.9051  2.0846
  152MOL0     H20517  11.483   5.325  10.448 -2.7811  1.8288 -2.2859
  152MOL0     H20518  11.320   5.455  10.376  0.6862 -1.6078  3.7315
  152MOL0     H20519  11.261   5.356  10.241 -0.0925  1.1557 -0.2880
  152MOL0     H20520  11.157   5.438  10.372 -0.5378  0.1915 -2.1054
  153MOL0     O20521  11.279   7.883   1.518  0.6016  0.3087  0.0975
  153MOL0     C20522  11.217   7.943   1.601  1.1996  0.0869 -0.9396
  153MOL0     O20523  11.088   7.963   1.599 -0.5345  0.5266 -0.3151
  153MOL0     C20524  11.005   7.870   1.542 -0.2235  1.1697  0.5984
  153MOL0     C20525  10.899   7.900   1.452  0.1330 -0.1981  0.6021
  153MOL0     C20526  10.820   7.802   1.388 -0.6839 -0.6692  0.1024
  153MOL0     C20527  10.833   7.665   1.418  0.1388  0.5177 -0.2980
  153MOL0     O20528  10.753   7.563   1.369 -0.0781 -0.2393 -0.2070
  153MOL0     C20529  10.707   7.569   1.236 -0.0198 -0.8477 -0.4102
  153MOL0     C20530  10.602   7.465   1.204  0.3715 -0.0359 -0.2786
  153MOL0     C20531  10.479   7.498   1.274  0.0197 -0.4106  0.6818
  153MOL0     C20532  10.365   7.418   1.218 -0.0686  0.1634  0.0085
  153MOL0     C20533  10.257   7.492   1.147 -0.0227  0.7821  0.0958
  153MOL0     C20534  10.307   7.541   1.009 -0.0170 -0.3864  0.1674
  153MOL0     C20535  10.182   7.615   0.946 -0.4222 -0.1619 -0.2418
  153MOL0     C20536  10.191   7.615   0.795 -1.1139 -0.1010  0.4200
  153MOL0     N20537  10.304   7.700   0.742  0.5149 -0.2675 -0.4055
  153MOL0     C20538  10.315   7.834   0.745  0.5127 -0.1437 -0.3338
  153MOL0     C20539  10.428   7.867   0.679 -0.0704  0.3911  0.3669
  153MOL0     C20540  10.483   7.999   0.659 -0.1053  0.3481  0.1354
  153MOL0     C20541  10.433   8.060   0.522  0.2925 -0.0064 -0.2086
  153MOL0     C20542  10.480   7.992   0.391 -0.4049  0.0426 -0.2492
  153MOL0     C20543  10.364   7.984   0.290  0.0573  0.2755 -0.7083
  153MOL0     O20544  10.305   8.108   0.273 -0.3120 -0.4874  0.7665
  153MOL0     C20545  10.206   8.128   0.175 -0.7872 -0.9450  0.4161
  153MOL0     C20546  10.084   8.060   0.176  0.8969  0.0138  0.0974
  153MOL0     C20547   9.980   8.081   0.072 -0.4436 -1.1855  0.0965
  153MOL0     C20548  10.010   8.187  -0.014  1.6974 -0.9032 -0.0891
  153MOL0     C20549   9.901   8.214  -0.115 -0.3643 -0.5765 -0.1249
  153MOL0     O20550   9.773   8.201  -0.074 -0.2016 -0.0141 -0.6937
  153MOL0     C20551   9.676   8.257  -0.159 -1.1096  0.8220  0.2991
  153MOL0     C20552   9.700   8.387  -0.203  0.9237 -0.2245 -0.2798
  153MOL0     C20553   9.618   8.457  -0.295  0.9928 -0.2205 -1.0553
  153MOL0     C20554   9.502   8.384  -0.344 -0.8409 -0.1344 -0.1673
  153MOL0     O20555   9.403   8.450  -0.415  0.8100  0.3562 -0.1811
  153MOL0     C20556   9.428   8.482  -0.549 -0.5592  0.1969  0.4748
  153MOL0     C20557   9.399   8.355  -0.634 -0.2655 -0.6168  0.6081
  153MOL0     C20558   9.466   8.368  -0.775  0.2849 -0.5898  0.1651
  153MOL0     C20559   9.614   8.341  -0.779 -0.3505  1.1322  0.5633
  153MOL0     C20560   9.652   8.363  -0.924 -0.2691  0.1067  1.1091
  153MOL0     C20561   9.806   8.404  -0.940  0.2505  0.0943  0.2387
  153MOL0     C20562   9.845   8.465  -1.074  0.8519 -0.3640  0.1912
  153MOL0     C20563   9.992   8.444  -1.102 -0.6601 -0.2641 -0.4031
  153MOL0    Cl20564  10.034   8.525  -1.265 -0.2867  0.0333  0.3495
  153MOL0     C20565   9.474   8.258  -0.296  0.1133 -0.3813  0.4298
  153MOL0     C20566   9.562   8.193  -0.209  0.3313 -0.9741  0.0846
  153MOL0     O20567   9.939   8.251  -0.229  0.3226 -0.3416 -0.2376
  153MOL0     C20568  10.135   8.251  -0.019 -0.5062  0.2284  0.3175
  153MOL0     C20569  10.234   8.220   0.073 -0.2091  0.5395  0.7746
  153MOL0     N20570  10.500   7.746   0.659 -0.1188 -0.3938 -0.3786
  153MOL0     N20571  10.424   7.646   0.700  0.7520 -0.1976  0.4261
  153MOL0     C20572  10.931   7.633   1.510 -0.6138  0.8481  0.1370
  153MOL0     C20573  11.018   7.728   1.566  0.3677  0.6078 -0.0465
  153MOL0     C20574  11.298   8.005   1.703 -0.4077  0.7222  0.2664
  153MOL0     C20575  11.283   7.960   1.831 -0.3288  0.6848  0.4220
  153MOL0     C20576  11.373   8.003   1.929 -0.0060  0.3522 -0.3955
  153MOL0     C20577  11.460   8.108   1.910 -0.2051  1.0565 -0.0408
  153MOL0     O20578  11.558   8.140   2.005  0.0748 -0.7230  0.9742
  153MOL0     C20579  11.563   8.081   2.135  0.8298 -0.6138 -0.4239
  153MOL0     C20580  11.666   8.143   2.225  0.2226 -0.2782 -0.1140
  153MOL0     C20581  11.607   8.271   2.278  1.8004 -0.1959  0.3222
  153MOL0     C20582  11.697   8.364   2.364  0.9151  0.4717 -0.2696
  153MOL0     C20583  11.825   8.398   2.294  0.2514 -0.8920 -0.1569
  153MOL0     C20584  11.926   8.421   2.233  0.5338 -0.5685 -0.4455
  153MOL0     C20585  11.469   8.162   1.777 -0.1960  0.1799 -1.0419
  153MOL0     C20586  11.382   8.113   1.673 -1.0457  0.9382 -0.2756
  153MOL0     C20587  11.401   8.176   1.538  0.6009 -0.1979  0.8241
  153MOL0     H20588  10.878   8.003   1.426 -0.7537 -1.0481 -2.4234
  153MOL0     H20589  10.738   7.831   1.323 -1.1192 -0.3947  0.7627
  153MOL0     H20590  10.665   7.668   1.215  3.9655  1.8190  2.7075
  153MOL0     H20591  10.785   7.552   1.162 -0.2653  1.3462 -1.2289
  153MOL0     H20592  10.635   7.363   1.226 -0.1486  0.1311  1.3774
  153MOL0     H20593  10.575   7.465   1.098  0.1838 -0.9776 -0.2471
  153MOL0     H20594  10.458   7.602   1.246  1.9532  0.2483  1.5003
  153MOL0     H20595  10.494   7.493   1.383  4.2895  5.1554  0.8263
  153MOL0     H20596  10.403   7.342   1.149  0.0486  2.5956 -2.8096
  153MOL0     H20597  10.313   7.369   1.301 -1.9574  1.1749 -0.5104
  153MOL0     H20598  10.172   7.425   1.134 -1.5094  1.6032  3.9393
  153MOL0     H20599  10.214   7.579   1.199 -1.4860  0.9015 -1.2236
  153MOL0     H20600  10.399   7.599   1.021 -0.1035 -0.6473  2.4004
  153MOL0     H20601  10.337   7.459   0.942 -3.1521 -2.2116  0.8053
  153MOL0     H20602  10.181   7.716   0.988  0.5443 -0.6874  1.1204
  153MOL0     H20603  10.091   7.562   0.976 -1.8221  2.5201  0.6662
  153MOL0     H20604  10.204   7.510   0.764 -0.5592 -0.8437  2.9152
  153MOL0     H20605  10.101   7.647   0.742 -1.4883 -0.8510  0.5797
  153MOL0     H20606  10.240   7.904   0.781  0.4414 -0.8347  0.9329
  153MOL0     H20607  10.444   8.055   0.745 -2.8744 -1.8669  0.4943
  153MOL0     H20608  10.591   7.987   0.666  0.3203  2.4538 -1.7675
  153MOL0     H20609  10.323   8.063   0.522  0.2975  2.8997  0.0593
  153MOL0     H20610  10.468   8.163   0.531 -0.0380  0.1743 -0.9217
  153MOL0     H20611  10.507   7.892   0.428  0.0535  0.9781  2.1081
  153MOL0     H20612  10.573   8.029   0.347 -0.2180 -0.6004 -0.4091
  153MOL0     H20613  10.296   7.910   0.333  0.0417 -0.1035 -1.3659
  153MOL0     H20614  10.400   7.945   0.194  2.6305  0.1452  0.2235
  153MOL0     H20615  10.055   7.980   0.244 -2.4324  0.7260 -0.3413
  153MOL0     H20616   9.889   8.022   0.074 -0.9656 -0.4021 -0.0702
  153MOL0     H20617   9.775   8.438  -0.145 -2.4544  0.7437  3.7024
  153MOL0     H20618   9.630   8.561  -0.323  0.8995 -0.4784 -2.0994
  153MOL0     H20619   9.363   8.568  -0.570 -0.7564  0.9094  3.5064
  153MOL0     H20620   9.530   8.520  -0.560 -0.3634 -1.0194 -3.7619
  153MOL0     H20621   9.417   8.265  -0.575 -1.5016 -0.6654  0.9360
  153MOL0     H20622   9.294   8.363  -0.661  0.1230  0.9270 -0.6334
  153MOL0     H20623   9.401   8.312  -0.843  0.8181 -1.4916  0.3981
  153MOL0     H20624   9.447   8.469  -0.815  1.0061  0.3376  2.0632
  153MOL0     H20625   9.648   8.242  -0.747  0.3550  1.9811  2.5663
  153MOL0     H20626   9.659   8.417  -0.714 -2.3929  0.9677  2.3007
  153MOL0     H20627   9.593   8.445  -0.965 -1.1942 -1.9030 -1.9336
  153MOL0     H20628   9.621   8.282  -0.991 -0.5929  0.2461  1.0917
  153MOL0     H20629   9.830   8.478  -0.863 -1.2942  0.3320  0.5377
  153MOL0     H20630   9.866   8.319  -0.906  0.5526  0.6920  1.2621
  153MOL0     H20631   9.827   8.572  -1.059  1.0628 -0.3935  0.6808
  153MOL0     H20632   9.776   8.431  -1.152 -0.3869 -2.7561  2.1993
  153MOL0     H20633  10.051   8.487  -1.021  1.9563 -0.1122 -2.2667
  153MOL0     H20634  10.018   8.338  -1.092 -2.2292 -0.5635  1.1224
  153MOL0     H20635   9.380   8.213  -0.324 -1.0362 -0.6922  4.1701
  153MOL0     H20636   9.530   8.096  -0.174 -3.5764  0.7219  1.8368
  153MOL0     H20637  10.156   8.322  -0.099  0.9369  1.6161  1.8475
  153MOL0     H20638  10.330   8.270   0.068  1.1628 -1.8371  1.5707
  153MOL0     H20639  10.958   7.530   1.531  2.7252  1.3861 -0.7977
  153MOL0     H20640  11.095   7.688   1.631  0.9605 -2.9138 -2.6179
  153MOL0     H20641  11.213   7.887   1.871  0.1848  0.1140  0.2930
  153MOL0     H20642  11.353   7.951   2.022 -0.7118 -1.6860 -1.6232
  153MOL0     H20643  11.596   7.977   2.126  0.1915 -0.9222  0.5272
  153MOL0     H20644  11.463   8.094   2.180  0.6431 -0.3966 -0.8973
  153MOL0     H20645  11.757   8.163   2.168  0.5288 -1.7383 -0.1730
  153MOL0     H20646  11.699   8.084   2.312  0.2463  0.5873  0.4798
  153MOL0     H20647  11.524   8.241   2.343  0.3195  3.4193  0.3354
  153MOL0     H20648  11.558   8.328   2.199  2.6176  0.1465  0.0468
  153MOL0     H20649  11.650   8.462   2.377  0.9477  0.4343  0.1324
  153MOL0     H20650  11.706   8.303   2.454  1.0122  2.3533  1.0725
  153MOL0     H20651  12.012   8.448   2.176  1.8406  0.1717  1.7293
  153MOL0     H20652  11.532   8.250   1.766 -1.7032  1.7968  2.0838
  153MOL0     H20653  11.368   8.110   1.457  3.0415 -1.2231  0.5873
  153MOL0     H20654  11.328   8.257   1.525  0.4217 -0.2643  1.3959
  153MOL0     H20655  11.501   8.209   1.509  0.7149 -3.1095 -2.8145
  154MOL0     O20656   1.210   1.607   6.349 -0.0400 -0.2869 -0.6139
  154MOL0     C20657   1.236   1.710   6.287 -1.0729 -0.0437  0.2128
  154MOL0     O20658   1.278   1.830   6.345 -0.2118 -0.6865 -0.2506
  154MOL0     C20659   1.269   1.847   6.483 -0.3895 -0.2143  0.5156
  154MOL0     C20660   1.321   1.762   6.584 -0.6737 -0.3456 -0.3702
  154MOL0     C20661   1.298   1.793   6.712 -0.5086  0.0842 -0.3042
  154MOL0     C20662   1.229   1.908   6.743  0.3646  0.6593  0.1156
  154MOL0     O20663   1.182   1.932   6.871 -0.0665 -0.0516  0.1863
  154MOL0     C20664   1.243   1.870   6.988  0.4398 -0.1724  0.2056
  154MOL0     C20665   1.372   1.947   7.010 -0.9027 -0.1983 -1.0037
  154MOL0     C20666   1.448   1.905   7.135 -0.1260 -0.5787 -0.9841
  154MOL0     C20667   1.513   1.760   7.124  0.0122 -0.4788 -0.8859
  154MOL0     C20668   1.642   1.756   7.206 -0.4316  0.5945  0.3922
  154MOL0     C20669   1.727   1.631   7.180 -0.0945  0.7899  0.0447
  154MOL0     C20670   1.865   1.635   7.253  0.9208  0.2785 -0.1101
  154MOL0     C20671   1.938   1.507   7.232 -0.4973  0.1968  0.4710
  154MOL0     N20672   2.090   1.527   7.230 -0.3363 -0.1359 -0.3401
  154MOL0     C20673   2.165   1.562   7.347 -0.4928  0.5904 -0.7588
  154MOL0     C20674   2.283   1.569   7.297  0.3490  0.4058 -0.1523
  154MOL0     C20675   2.413   1.584   7.361 -1.1032 -0.3133 -0.4692
  154MOL0     C20676   2.517   1.466   7.338  1.0775  1.0284 -0.2343
  154MOL0     C20677   2.635   1.492   7.239  0.9780  0.4382  0.7471
  154MOL0     C20678   2.708   1.365   7.182 -0.5294  0.5325 -0.0591
  154MOL0     O20679   2.623   1.248   7.172 -0.9561  0.5743  0.2028
  154MOL0     C20680   2.538   1.220   7.067  0.5913 -0.1730 -0.8981
  154MOL0     C20681   2.537   1.297   6.947 -0.4686 -0.3414 -0.3141
  154MOL0     C20682   2.446   1.269   6.845  0.1594  0.9515  0.1687
  154MOL0     C20683   2.385   1.147   6.838  0.2806  0.5547  0.7579
  154MOL0     C20684   2.314   1.124   6.706  0.0268  0.4216  0.0662
  154MOL0     O20685   2.206   1.048   6.709  0.6091  0.0722  0.4370
  154MOL0     C20686   2.142   1.010   6.596  0.3666  0.6612 -0.8321
  154MOL0     C20687   2.163   0.884   6.538 -0.4945  0.3755 -0.7111
  154MOL0     C20688   2.101   0.839   6.419  0.5204  0.0226 -0.2551
  154MOL0     C20689   2.017   0.926   6.347 -0.7029 -0.0043 -0.7926
  154MOL0     O20690   1.959   0.876   6.241  0.4910 -0.4549 -0.0995
  154MOL0     C20691   1.814   0.896   6.223  0.5639 -0.3823 -0.1542
  154MOL0     C20692   1.789   0.849   6.077  0.1498  0.4110  0.1988
  154MOL0     C20693   1.760   0.702   6.081  0.0508  0.4971  0.6171
  154MOL0     C20694   1.691   0.649   5.954  0.5206  1.0027  0.1757
  154MOL0     C20695   1.646   0.500   5.973 -0.6714  0.1035 -0.3634
  154MOL0     C20696   1.763   0.400   5.959 -0.0085 -0.8758  0.8609
  154MOL0     C20697   1.732   0.270   6.034  0.0647  0.5482 -0.0873
  154MOL0     C20698   1.846   0.180   6.027 -0.7896 -0.6362 -0.1826
  154MOL0    Cl20699   1.983   0.230   6.123  0.5210 -0.8811  0.2381
  154MOL0     C20700   2.007   1.059   6.389 -0.0625 -1.3240 -0.6340
  154MOL0     C20701   2.062   1.102   6.516  1.2739  0.3458  0.1708
  154MOL0     O20702   2.364   1.182   6.606 -0.3600  0.0936 -0.2108
  154MOL0     C20703   2.375   1.080   6.954  0.3009  0.1307  0.3303
  154MOL0     C20704   2.452   1.103   7.074 -0.3709 -0.0413  1.0991
  154MOL0     N20705   2.287   1.543   7.162 -0.4251  0.5375  0.4223
  154MOL0     N20706   2.168   1.523   7.118  0.2262  0.0617 -0.1398
  154MOL0     C20707   1.193   2.000   6.653  0.2870  0.9687  0.8967
  154MOL0     C20708   1.216   1.965   6.521 -0.0000 -0.3132  0.4226
  154MOL0     C20709   1.222   1.707   6.139  0.2643 -0.2627 -0.7941
  154MOL0     C20710   1.125   1.632   6.078  0.4227  0.3225  0.9410
  154MOL0     C20711   1.106   1.634   5.936 -0.1613 -0.0995 -0.8705
  154MOL0     C20712   1.188   1.714   5.857 -0.1975  0.2137  0.3768
  154MOL0     O20713   1.181   1.717   5.722  0.1951  0.5086  0.5734
  154MOL0     C20714   1.113   1.821   5.664 -0.2155 -0.2737  0.4058
  154MOL0     C20715   1.109   1.791   5.522 -1.0696 -0.0323 -0.8164
  154MOL0     C20716   1.052   1.911   5.439  0.0442  0.1895  0.1810
  154MOL0     C20717   1.131   1.963   5.317 -0.7800 -0.1683 -0.4736
  154MOL0     C20718   1.086   2.090   5.264  0.6940 -0.0669 -0.8247
  154MOL0     C20719   1.055   2.200   5.220  0.6578  0.4081  0.4961
  154MOL0     C20720   1.287   1.794   5.916 -1.0655  0.1209 -0.2421
  154MOL0     C20721   1.308   1.784   6.055  0.1185 -0.1386 -0.5444
  154MOL0     C20722   1.435   1.863   6.098 -0.8784 -0.8863  0.1729
  154MOL0     H20723   1.371   1.666   6.571  0.2794 -0.0601  0.9802
  154MOL0     H20724   1.333   1.727   6.791  1.9692  0.2331 -1.1936
  154MOL0     H20725   1.174   1.875   7.073  0.0960 -3.5098  0.2526
  154MOL0     H20726   1.263   1.763   6.977 -0.6112 -0.9580  4.1745
  154MOL0     H20727   1.340   2.051   7.018 -0.4300  0.2312 -3.7172
  154MOL0     H20728   1.438   1.937   6.923 -1.4764  0.0730 -1.4775
  154MOL0     H20729   1.393   1.918   7.229 -0.2627  1.8081 -1.3394
  154MOL0     H20730   1.529   1.977   7.147 -0.1906 -0.5130 -0.9380
  154MOL0     H20731   1.434   1.697   7.164  0.7189 -0.1307  1.1783
  154MOL0     H20732   1.541   1.735   7.022  2.0150  0.0644 -0.5246
  154MOL0     H20733   1.701   1.845   7.182  0.8595 -0.1778  0.6302
  154MOL0     H20734   1.617   1.767   7.312 -2.9070 -0.1337 -0.0437
  154MOL0     H20735   1.675   1.546   7.226  1.8253  0.7323  2.3303
  154MOL0     H20736   1.741   1.607   7.074 -1.2941 -0.6590  0.1803
  154MOL0     H20737   1.856   1.658   7.360 -1.4832  0.1374 -0.2223
  154MOL0     H20738   1.904   1.726   7.207 -4.1092  2.7759 -0.0608
  154MOL0     H20739   1.926   1.439   7.317 -0.4954 -1.2290 -0.6332
  154MOL0     H20740   1.909   1.452   7.142 -1.0944 -2.3267  2.1136
  154MOL0     H20741   2.134   1.566   7.450 -1.9471 -0.6813 -1.1176
  154MOL0     H20742   2.462   1.681   7.358  3.0045 -1.9908  2.5151
  154MOL0     H20743   2.387   1.585   7.467  1.0865  0.6118  0.1005
  154MOL0     H20744   2.561   1.419   7.426  0.8641  0.6883 -0.3084
  154MOL0     H20745   2.454   1.388   7.294 -0.2037  2.1665 -0.5078
  154MOL0     H20746   2.707   1.567   7.272  1.5220 -1.1197  3.3752
  154MOL0     H20747   2.595   1.525   7.142 -1.7701 -2.4590  0.7324
  154MOL0     H20748   2.789   1.332   7.248 -1.6598 -2.7274 -0.1014
  154MOL0     H20749   2.757   1.381   7.085 -1.0771 -3.9812 -1.3417
  154MOL0     H20750   2.594   1.389   6.952 -3.1253  1.4322 -0.6604
  154MOL0     H20751   2.444   1.340   6.763 -1.3516  0.6186 -0.1069
  154MOL0     H20752   2.218   0.813   6.599 -1.2112 -0.9110 -1.4985
  154MOL0     H20753   2.112   0.736   6.385 -1.7778 -0.0897 -0.8037
  154MOL0     H20754   1.750   0.847   6.296  0.6320  0.0168  0.1778
  154MOL0     H20755   1.791   1.003   6.226 -1.4085 -0.7760  0.1783
  154MOL0     H20756   1.717   0.919   6.035  2.3813  1.7298 -1.6737
  154MOL0     H20757   1.879   0.863   6.017 -0.5838  2.5074 -0.4836
  154MOL0     H20758   1.844   0.642   6.116 -0.8484  0.0596  2.1362
  154MOL0     H20759   1.689   0.686   6.163  0.9837 -2.2791  0.9975
  154MOL0     H20760   1.757   0.659   5.867  0.3968  3.1958  0.2615
  154MOL0     H20761   1.600   0.708   5.936 -0.0827 -0.6911 -2.9664
  154MOL0     H20762   1.561   0.479   5.908  0.3938  0.4279 -1.9007
  154MOL0     H20763   1.607   0.480   6.074  1.6033 -1.3202  0.3177
  154MOL0     H20764   1.764   0.378   5.852 -0.8549  1.1810  0.3891
  154MOL0     H20765   1.856   0.448   5.991 -0.9519  1.4051  0.3836
  154MOL0     H20766   1.655   0.219   5.975  0.8724 -0.4407 -0.3239
  154MOL0     H20767   1.717   0.283   6.141 -2.1018 -0.8544 -0.1694
  154MOL0     H20768   1.818   0.081   6.064  0.3057 -0.0570  2.4114
  154MOL0     H20769   1.871   0.167   5.921  1.7984 -3.0141  0.6076
  154MOL0     H20770   1.941   1.120   6.329 -1.1686 -0.5165  1.3071
  154MOL0     H20771   2.036   1.202   6.550 -0.2490  1.3144 -3.3520
  154MOL0     H20772   2.312   0.991   6.953  3.6005 -2.4168 -1.3825
  154MOL0     H20773   2.450   1.046   7.166 -0.8612 -0.4929  0.8145
  154MOL0     H20774   1.145   2.089   6.693 -3.5174 -1.3619  2.1236
  154MOL0     H20775   1.191   2.049   6.457 -0.4523  0.3460  1.4373
  154MOL0     H20776   1.054   1.575   6.135  2.8439 -1.5260  2.3055
  154MOL0     H20777   1.025   1.574   5.898 -0.4208 -1.6304  1.8578
  154MOL0     H20778   1.156   1.920   5.684  1.1276 -1.4912  4.6189
  154MOL0     H20779   1.011   1.840   5.700  0.0883  0.4155  0.9322
  154MOL0     H20780   1.047   1.702   5.510 -1.8024 -0.7602  5.4328
  154MOL0     H20781   1.206   1.755   5.485  2.1325  1.8845  4.5942
  154MOL0     H20782   1.052   1.996   5.509 -0.2813  2.9468 -2.9093
  154MOL0     H20783   0.948   1.891   5.413 -2.4076  5.0801  4.1827
  154MOL0     H20784   1.233   1.967   5.357 -0.6227 -1.4069 -0.7317
  154MOL0     H20785   1.136   1.887   5.239  1.2800 -2.0406  1.3375
  154MOL0     H20786   1.038   2.302   5.191 -1.7650  0.7852  2.8964
  154MOL0     H20787   1.349   1.865   5.863 -0.8246  0.4414  0.4601
  154MOL0     H20788   1.519   1.863   6.028 -0.7681  0.6716  0.2844
  154MOL0     H20789   1.421   1.961   6.144 -1.6798 -0.8853 -0.0518
  154MOL0     H20790   1.470   1.800   6.180 -1.3933  0.6359  1.6188
  155MOL0     O20791   9.154   6.220   2.647 -0.6676  0.2588  0.4285
  155MOL0     C20792   9.134   6.103   2.673 -0.6311  0.0283 -0.1659
  155MOL0     O20793   9.034   6.015   2.607 -0.2860 -1.9582  0.4716
  155MOL0     C20794   8.988   6.074   2.499  0.8283 -0.4663 -0.6839
  155MOL0     C20795   8.855   6.114   2.507  0.2505  0.3655  0.3903
  155MOL0     C20796   8.788   6.156   2.396 -0.3469  0.1456 -0.3098
  155MOL0     C20797   8.860   6.161   2.278 -0.0586  1.3638  0.1235
  155MOL0     O20798   8.784   6.204   2.180 -0.5789 -0.1943  0.0949
  155MOL0     C20799   8.849   6.264   2.065  0.4826  0.7500  0.8779
  155MOL0     C20800   8.730   6.323   1.972  0.0826 -0.3157  0.2379
  155MOL0     C20801   8.720   6.252   1.838 -0.6957  0.0915 -0.4392
  155MOL0     C20802   8.685   6.101   1.843 -0.5319 -0.4612 -0.9098
  155MOL0     C20803   8.615   6.057   1.715  0.6138  0.1732 -0.6467
  155MOL0     C20804   8.592   5.904   1.693 -0.5231 -0.3879 -0.1082
  155MOL0     C20805   8.497   5.838   1.808 -0.7360 -1.0077 -0.8685
  155MOL0     C20806   8.361   5.877   1.781  0.6130 -0.7676  0.6729
  155MOL0     N20807   8.294   5.833   1.656  0.1166  0.0498 -0.8424
  155MOL0     C20808   8.288   5.899   1.538 -0.0011 -0.0697 -0.3512
  155MOL0     C20809   8.261   5.811   1.442 -0.5052  0.4853  0.0740
  155MOL0     C20810   8.288   5.806   1.288  0.2475  0.3029 -0.7679
  155MOL0     C20811   8.161   5.746   1.222  0.4837 -0.2327  0.9202
  155MOL0     C20812   8.168   5.773   1.065 -0.5259  0.7690 -0.9253
  155MOL0     C20813   8.040   5.738   0.985 -0.1973  0.1794  0.3585
  155MOL0     O20814   8.012   5.604   0.949 -0.4464 -0.3463 -0.3680
  155MOL0     C20815   7.908   5.539   1.006 -0.6076 -0.1591  0.3793
  155MOL0     C20816   7.884   5.414   0.958 -1.2060  0.3684 -0.4565
  155MOL0     C20817   7.779   5.339   1.004  0.4751  0.7836 -0.6103
  155MOL0     C20818   7.679   5.394   1.096  0.2375  0.7029 -0.8792
  155MOL0     C20819   7.553   5.327   1.116 -0.3272  1.0519  0.0181
  155MOL0     O20820   7.554   5.196   1.070  0.1109 -0.6777 -0.7906
  155MOL0     C20821   7.439   5.122   1.030 -0.7365 -0.4691 -0.8068
  155MOL0     C20822   7.462   4.983   1.028 -1.4610 -0.8084 -0.2519
  155MOL0     C20823   7.370   4.893   0.980 -0.3507  0.5023  0.4475
  155MOL0     C20824   7.241   4.943   0.948 -0.0468  0.5164 -0.2489
  155MOL0     O20825   7.143   4.858   0.903 -0.2225 -0.6605 -0.2459
  155MOL0     C20826   7.178   4.759   0.809 -0.6259  0.2992 -0.1557
  155MOL0     C20827   7.065   4.771   0.704 -0.3302 -1.0569 -0.1485
  155MOL0     C20828   7.083   4.906   0.626 -0.0757 -0.5983  0.6828
  155MOL0     C20829   6.988   4.929   0.516 -0.2483  0.2948  0.2195
  155MOL0     C20830   6.840   4.925   0.558  0.3685  0.5174  0.3846
  155MOL0     C20831   6.754   5.006   0.463 -0.5141 -0.0256 -0.0749
  155MOL0     C20832   6.609   5.036   0.511 -0.6637  0.5290  0.7976
  155MOL0     C20833   6.525   4.907   0.529  0.4007 -0.4859  0.0668
  155MOL0    Cl20834   6.494   4.825   0.371  0.8062 -0.0444 -0.1252
  155MOL0     C20835   7.216   5.072   0.959  0.6939 -0.5800 -0.7348
  155MOL0     C20836   7.315   5.166   0.999  0.0657 -1.1755  0.6303
  155MOL0     O20837   7.449   5.381   1.156  0.1367  0.3715 -0.1596
  155MOL0     C20838   7.720   5.507   1.164  0.2215  0.0767  0.1386
  155MOL0     C20839   7.830   5.579   1.121 -0.4220 -0.2922  0.6501
  155MOL0     N20840   8.235   5.690   1.509  0.3425  0.1671 -0.5883
  155MOL0     N20841   8.244   5.711   1.641  0.1915 -0.9835 -0.0132
  155MOL0     C20842   9.002   6.130   2.263  0.0880  0.1747 -0.2464
  155MOL0     C20843   9.062   6.082   2.382 -0.4802 -0.7016  0.3413
  155MOL0     C20844   9.227   6.041   2.777 -0.9648  0.1780  0.9147
  155MOL0     C20845   9.171   5.937   2.848  0.6056  0.7370 -0.8086
  155MOL0     C20846   9.231   5.865   2.953  0.4640  0.0763 -0.4766
  155MOL0     C20847   9.375   5.891   2.961 -0.6252  0.4494 -0.5237
  155MOL0     O20848   9.464   5.824   3.040  0.5534 -0.4586  0.3979
  155MOL0     C20849   9.406   5.740   3.151 -0.2763 -0.5392  0.7227
  155MOL0     C20850   9.502   5.736   3.278 -0.8086 -0.7088 -0.0956
  155MOL0     C20851   9.624   5.657   3.247 -0.2084 -1.3311  0.0471
  155MOL0     C20852   9.596   5.509   3.243 -0.2691  0.4264 -0.9598
  155MOL0     C20853   9.729   5.447   3.249 -0.7060 -0.1109 -0.1582
  155MOL0     C20854   9.849   5.408   3.240 -0.2893  0.0084  0.3126
  155MOL0     C20855   9.435   6.004   2.897  0.0226 -0.9576  0.5603
  155MOL0     C20856   9.359   6.087   2.801 -0.4693 -0.1666  0.1680
  155MOL0     C20857   9.426   6.203   2.737  0.2343  0.0904  1.1457
  155MOL0     H20858   8.795   6.093   2.596 -0.4735  0.0195 -0.1723
  155MOL0     H20859   8.683   6.184   2.401 -1.0580 -2.3288 -0.0722
  155MOL0     H20860   8.899   6.355   2.099 -0.1815  1.5161 -0.1136
  155MOL0     H20861   8.919   6.203   2.007 -1.3345 -2.6285  1.9542
  155MOL0     H20862   8.757   6.427   1.955  0.7374 -0.5801 -0.3923
  155MOL0     H20863   8.631   6.318   2.018 -0.8304  0.8217 -1.4978
  155MOL0     H20864   8.813   6.264   1.782  0.3393 -1.9339  0.7532
  155MOL0     H20865   8.637   6.300   1.786  2.4942  3.9477 -2.5717
  155MOL0     H20866   8.767   6.032   1.866 -0.9608  0.3177  3.8992
  155MOL0     H20867   8.621   6.084   1.930  1.8537 -1.8469  0.7053
  155MOL0     H20868   8.522   6.114   1.710  1.1711  1.0137 -1.6957
  155MOL0     H20869   8.671   6.104   1.634  1.4078  0.8179  0.2664
  155MOL0     H20870   8.556   5.880   1.592  0.5793  1.4643 -0.9892
  155MOL0     H20871   8.684   5.846   1.707  0.8514  1.5435 -0.7029
  155MOL0     H20872   8.539   5.861   1.906  0.3577 -3.2462 -0.7528
  155MOL0     H20873   8.513   5.732   1.790 -0.1377 -0.7650 -1.8455
  155MOL0     H20874   8.295   5.850   1.864 -0.0521  0.5190  0.5941
  155MOL0     H20875   8.354   5.986   1.789 -0.9410 -0.9706  5.2824
  155MOL0     H20876   8.304   6.006   1.522 -3.8583  1.9267  5.5330
  155MOL0     H20877   8.311   5.904   1.245  0.8007  1.2852  1.6528
  155MOL0     H20878   8.369   5.739   1.261  1.0140 -0.8342  3.6818
  155MOL0     H20879   8.164   5.637   1.234  3.0992 -0.1036  2.2220
  155MOL0     H20880   8.069   5.792   1.261  0.6530  2.4008 -1.4462
  155MOL0     H20881   8.248   5.706   1.032 -0.7035 -0.1871  0.4693
  155MOL0     H20882   8.192   5.880   1.060 -1.2203  1.1238  1.6206
  155MOL0     H20883   8.047   5.791   0.889 -0.9274  2.6235  1.5500
  155MOL0     H20884   7.956   5.781   1.040 -0.8424  0.6358 -0.9245
  155MOL0     H20885   7.954   5.382   0.882 -0.8363 -0.6045  0.2674
  155MOL0     H20886   7.770   5.239   0.962 -0.5685 -0.0760  1.5248
  155MOL0     H20887   7.564   4.951   1.044 -0.9135 -1.3118 -3.9298
  155MOL0     H20888   7.398   4.790   0.960 -2.3938  0.0908 -0.5696
  155MOL0     H20889   7.277   4.779   0.767  0.2570 -2.7180  0.1960
  155MOL0     H20890   7.190   4.655   0.842  0.8577 -0.4558 -2.7356
  155MOL0     H20891   7.082   4.692   0.631 -0.1134 -1.2187  0.0758
  155MOL0     H20892   6.968   4.771   0.756  1.3931  3.6983  3.9640
  155MOL0     H20893   7.084   4.992   0.695 -0.8517 -2.1283  2.6978
  155MOL0     H20894   7.179   4.899   0.574 -1.4568 -0.3011 -2.0504
  155MOL0     H20895   6.999   4.853   0.439 -0.9517  1.4342 -1.0460
  155MOL0     H20896   7.028   5.026   0.486 -0.8388  0.9881  1.5462
  155MOL0     H20897   6.831   4.953   0.663  0.6465 -1.4547  0.9716
  155MOL0     H20898   6.802   4.823   0.566 -2.1724  1.4637  1.5412
  155MOL0     H20899   6.803   5.102   0.441 -0.3778 -1.1658 -6.5708
  155MOL0     H20900   6.761   4.962   0.364 -0.6842  0.3388 -0.2535
  155MOL0     H20901   6.576   5.101   0.430  2.9575  0.5218 -0.8493
  155MOL0     H20902   6.613   5.084   0.610 -2.8277  0.6556  0.8703
  155MOL0     H20903   6.568   4.831   0.594 -2.4966 -1.6568  0.7681
  155MOL0     H20904   6.429   4.932   0.576 -0.4169 -2.3839 -0.4950
  155MOL0     H20905   7.115   5.098   0.929  0.1747 -1.7409 -0.0307
  155MOL0     H20906   7.294   5.272   0.992  1.4410 -0.9814 -1.1086
  155MOL0     H20907   7.676   5.563   1.246 -0.0271  1.9365 -1.2019
  155MOL0     H20908   7.859   5.676   1.161  2.8603  0.5094 -3.0415
  155MOL0     H20909   9.063   6.136   2.173  0.2462  0.9506 -0.0951
  155MOL0     H20910   9.168   6.064   2.395  0.3220  3.3025  0.5549
  155MOL0     H20911   9.076   5.895   2.818  2.9316 -3.1962 -3.6793
  155MOL0     H20912   9.186   5.778   2.999  3.0282 -1.5946 -0.8980
  155MOL0     H20913   9.378   5.641   3.115 -1.3480  0.2063 -0.5550
  155MOL0     H20914   9.311   5.784   3.184 -0.3150 -0.1508  0.1040
  155MOL0     H20915   9.447   5.692   3.362 -2.1611  1.3197  0.1350
  155MOL0     H20916   9.533   5.837   3.305 -0.5755 -0.8708  0.2553
  155MOL0     H20917   9.699   5.680   3.323 -1.0191  0.1614  0.4098
  155MOL0     H20918   9.673   5.705   3.162  1.8994  0.4775  2.1552
  155MOL0     H20919   9.528   5.464   3.316  0.6409 -0.8566 -0.8772
  155MOL0     H20920   9.559   5.487   3.143  0.4817 -0.4331 -1.0622
  155MOL0     H20921   9.945   5.359   3.237  0.5136  1.5089  0.3325
  155MOL0     H20922   9.537   6.040   2.908 -0.9888  4.1009 -3.1528
  155MOL0     H20923   9.396   6.208   2.632 -0.8437 -0.0799  1.4312
  155MOL0     H20924   9.400   6.293   2.793 -0.0941  0.1068  0.9718
  155MOL0     H20925   9.532   6.178   2.745  0.2855  0.8351  3.4693
  156MOL0     O20926   8.335   0.942   8.327 -0.4727 -0.1659 -0.4231
  156MOL0     C20927   8.238   1.019   8.333  0.7720 -0.6219 -0.1427
  156MOL0     O20928   8.115   0.979   8.351 -0.0365  0.4398  0.0868
  156MOL0     C20929   8.080   0.846   8.336  0.2127 -0.6286 -0.8144
  156MOL0     C20930   8.147   0.743   8.404 -1.0408 -0.0938  0.7923
  156MOL0     C20931   8.119   0.611   8.363  0.6981 -0.6549 -0.0437
  156MOL0     C20932   8.009   0.582   8.290  0.2944  0.5667  0.4456
  156MOL0     O20933   7.976   0.446   8.267 -0.0078 -0.2718 -0.7699
  156MOL0     C20934   7.860   0.402   8.201  0.5953  0.3506 -0.3390
  156MOL0     C20935   7.741   0.431   8.290 -0.5869 -0.0081  1.1332
  156MOL0     C20936   7.746   0.330   8.409  0.7291  0.0941 -0.1830
  156MOL0     C20937   7.818   0.374   8.534  0.3602 -0.9954 -0.2803
  156MOL0     C20938   7.765   0.304   8.659  0.1687 -1.0128 -0.7008
  156MOL0     C20939   7.836   0.363   8.784 -0.7904 -0.7265  0.2872
  156MOL0     C20940   7.761   0.316   8.902 -0.4231 -0.7103 -0.7522
  156MOL0     C20941   7.793   0.384   9.035 -0.6136 -0.0166 -0.4087
  156MOL0     N20942   7.717   0.330   9.146 -0.4581 -0.2479 -0.2191
  156MOL0     C20943   7.584   0.355   9.156  0.6141  0.7523 -0.0343
  156MOL0     C20944   7.550   0.294   9.280 -0.3860 -1.2141  0.9162
  156MOL0     C20945   7.418   0.277   9.350 -0.0228  0.3406  1.1822
  156MOL0     C20946   7.412   0.387   9.464  0.0917  0.2693  0.2728
  156MOL0     C20947   7.435   0.525   9.400  0.4412 -0.5815  0.0524
  156MOL0     C20948   7.462   0.633   9.517  0.5667  1.1451 -0.2065
  156MOL0     O20949   7.519   0.754   9.472  0.2811  0.3449  0.0700
  156MOL0     C20950   7.456   0.863   9.429  0.2019  0.0788  0.8138
  156MOL0     C20951   7.520   0.990   9.439  0.3378 -0.8384 -0.3054
  156MOL0     C20952   7.466   1.107   9.385 -0.5846 -0.4855  0.2021
  156MOL0     C20953   7.329   1.109   9.345  0.1664 -0.2840  0.0563
  156MOL0     C20954   7.259   1.234   9.299 -0.5642 -0.4252  0.8922
  156MOL0     O20955   7.142   1.217   9.253  0.2047  0.7568 -0.2800
  156MOL0     C20956   7.060   1.326   9.227  0.8161 -0.4558  0.3619
  156MOL0     C20957   6.996   1.407   9.328  0.3797 -0.1942 -0.4854
  156MOL0     C20958   6.905   1.508   9.299 -0.1188  0.1118  0.9737
  156MOL0     C20959   6.877   1.534   9.157 -0.6490 -0.4621 -0.5918
  156MOL0     O20960   6.799   1.638   9.115  0.1420 -0.1616  0.3305
  156MOL0     C20961   6.786   1.759   9.206 -0.7689  0.7320  0.3382
  156MOL0     C20962   6.712   1.862   9.127 -0.4524 -0.6583  0.3848
  156MOL0     C20963   6.803   1.909   9.003  0.4493  0.0916  0.3518
  156MOL0     C20964   6.758   2.056   8.970  0.4645  0.2470  0.0190
  156MOL0     C20965   6.833   2.122   8.858 -1.0191 -0.4731  0.1396
  156MOL0     C20966   6.823   2.273   8.853 -0.4128 -0.6297 -0.0277
  156MOL0     C20967   6.677   2.323   8.870  0.3484 -0.4423 -0.3623
  156MOL0     C20968   6.654   2.466   8.909  0.9447 -0.0219  0.3610
  156MOL0    Cl20969   6.734   2.486   9.072  0.0477  0.2040 -0.5137
  156MOL0     C20970   6.947   1.456   9.058  0.1919 -0.1473  0.3220
  156MOL0     C20971   7.029   1.356   9.096  0.4613  0.0248  0.8268
  156MOL0     O20972   7.318   1.343   9.301 -0.2231  0.8059 -0.2680
  156MOL0     C20973   7.252   0.998   9.368 -0.0643 -0.4863  0.6405
  156MOL0     C20974   7.318   0.870   9.395 -0.5123 -0.6274 -0.3520
  156MOL0     N20975   7.671   0.247   9.330  0.2640 -0.1823  0.2222
  156MOL0     N20976   7.773   0.266   9.250  0.7550  0.3793 -0.2540
  156MOL0     C20977   7.942   0.687   8.225 -0.1016 -0.2777  0.3425
  156MOL0     C20978   7.982   0.817   8.247  0.0192 -0.2138 -0.3017
  156MOL0     C20979   8.252   1.168   8.326  0.0417  0.7006 -0.6124
  156MOL0     C20980   8.147   1.248   8.280 -0.2683  0.8111  0.6545
  156MOL0     C20981   8.167   1.391   8.289  0.2570 -0.5255 -0.3659
  156MOL0     C20982   8.275   1.449   8.360  0.2057 -0.6252  0.1043
  156MOL0     O20983   8.277   1.583   8.387  0.4620 -0.2464 -0.6942
  156MOL0     C20984   8.237   1.665   8.277 -1.0106  0.5041 -0.4918
  156MOL0     C20985   8.257   1.803   8.326  0.2886 -0.9712  1.1146
  156MOL0     C20986   8.399   1.853   8.377  0.2245 -0.5825 -0.2828
  156MOL0     C20987   8.399   1.893   8.531  0.5119 -0.0640  0.1064
  156MOL0     C20988   8.321   2.015   8.553 -0.0898 -0.7784 -0.5450
  156MOL0     C20989   8.256   2.118   8.578  0.3026  1.7069  0.6408
  156MOL0     C20990   8.381   1.370   8.392 -0.2502 -0.1442 -0.5084
  156MOL0     C20991   8.372   1.231   8.385 -0.2823 -0.6283 -0.1344
  156MOL0     C20992   8.470   1.149   8.445  0.4868 -0.8336  0.2717
  156MOL0     H20993   8.242   0.772   8.448 -1.4613 -0.0338  1.6721
  156MOL0     H20994   8.182   0.528   8.394  0.7916 -1.0137 -1.1291
  156MOL0     H20995   7.846   0.444   8.101 -3.5964  0.6407  0.2327
  156MOL0     H20996   7.856   0.293   8.189 -0.5308  0.3621 -0.1214
  156MOL0     H20997   7.649   0.426   8.231  1.4599 -0.0900 -2.2955
  156MOL0     H20998   7.749   0.534   8.325 -1.2622  0.6451 -0.5596
  156MOL0     H20999   7.795   0.237   8.380  2.5476 -0.4162  3.7963
  156MOL0     H21000   7.643   0.310   8.443  1.0367 -0.6704  0.3473
  156MOL0     H21001   7.925   0.353   8.530  1.6014  2.3592  4.5225
  156MOL0     H21002   7.827   0.481   8.557  1.5611 -1.6224  2.6233
  156MOL0     H21003   7.655   0.304   8.665  0.2101 -1.9722  0.9467
  156MOL0     H21004   7.789   0.197   8.666  1.4509 -0.6606  1.0154
  156MOL0     H21005   7.935   0.318   8.770 -0.4592  0.3991 -1.2691
  156MOL0     H21006   7.840   0.472   8.780 -0.5502 -0.7081  0.8660
  156MOL0     H21007   7.776   0.209   8.915  1.8758 -0.5446 -1.6302
  156MOL0     H21008   7.660   0.350   8.878  0.3655  0.1628 -3.0927
  156MOL0     H21009   7.898   0.391   9.066 -1.6240  3.2513  2.9024
  156MOL0     H21010   7.764   0.488   9.018  1.3712  0.2838 -2.3890
  156MOL0     H21011   7.524   0.414   9.088  0.5549  1.2709  0.4720
  156MOL0     H21012   7.337   0.292   9.278  1.2207 -1.6024 -0.7331
  156MOL0     H21013   7.416   0.179   9.397 -1.5939  0.1673  0.8239
  156MOL0     H21014   7.313   0.384   9.509  0.4421 -1.9573  0.9997
  156MOL0     H21015   7.494   0.370   9.535 -0.4414 -0.8501  0.6371
  156MOL0     H21016   7.354   0.558   9.335  0.9895 -2.1915 -1.5369
  156MOL0     H21017   7.525   0.519   9.337  1.0575 -0.3446  0.8830
  156MOL0     H21018   7.524   0.582   9.591 -0.8338 -2.2140 -1.1545
  156MOL0     H21019   7.370   0.646   9.575 -0.9434 -1.3860 -1.8009
  156MOL0     H21020   7.618   0.999   9.485 -1.9322 -2.3299  5.7969
  156MOL0     H21021   7.516   1.201   9.363 -1.0823 -0.6833 -1.9742
  156MOL0     H21022   7.024   1.382   9.430 -1.2714 -0.1620  0.0143
  156MOL0     H21023   6.852   1.558   9.379 -1.4978  0.4227 -0.0902
  156MOL0     H21024   6.734   1.727   9.296  1.7690  3.2868  2.9622
  156MOL0     H21025   6.885   1.791   9.240 -0.5573 -0.4634  0.9217
  156MOL0     H21026   6.612   1.837   9.090 -0.6386  1.9939 -1.2072
  156MOL0     H21027   6.700   1.941   9.202 -1.4215 -0.2828 -0.1367
  156MOL0     H21028   6.902   1.919   9.049 -1.9499 -1.0284  6.7938
  156MOL0     H21029   6.804   1.846   8.913  1.3614  1.4370 -0.6332
  156MOL0     H21030   6.770   2.122   9.056  4.6652  0.7436 -0.7195
  156MOL0     H21031   6.653   2.039   8.943  0.9570 -2.7840 -0.4032
  156MOL0     H21032   6.796   2.078   8.765 -0.0359 -1.3469  0.1388
  156MOL0     H21033   6.932   2.087   8.888 -0.0771  2.5835  0.9532
  156MOL0     H21034   6.869   2.296   8.950 -1.9222 -2.5249  1.2057
  156MOL0     H21035   6.871   2.329   8.772 -1.0272 -0.7787 -0.5067
  156MOL0     H21036   6.611   2.268   8.938  0.5061  2.2192  2.1090
  156MOL0     H21037   6.628   2.320   8.772 -0.8906 -2.4695  0.2370
  156MOL0     H21038   6.717   2.518   8.836  4.3430 -2.9614  0.9379
  156MOL0     H21039   6.547   2.491   8.908  1.2504  1.7826  2.8926
  156MOL0     H21040   6.938   1.486   8.954 -1.5653 -1.1559  0.1387
  156MOL0     H21041   7.062   1.299   9.010  2.0256  0.8850  0.8192
  156MOL0     H21042   7.144   0.987   9.365  0.1082 -2.5976 -1.4451
  156MOL0     H21043   7.257   0.782   9.412 -2.0225  0.7570  2.0466
  156MOL0     H21044   7.867   0.657   8.152  0.2195 -0.0240 -0.0949
  156MOL0     H21045   7.935   0.904   8.203 -0.7268 -0.0441  0.8065
  156MOL0     H21046   8.065   1.194   8.233  1.2299 -0.7313 -0.2918
  156MOL0     H21047   8.094   1.451   8.235  1.9905  2.1369  0.0685
  156MOL0     H21048   8.132   1.653   8.251 -1.8003  1.8694  1.7734
  156MOL0     H21049   8.306   1.645   8.194  2.7932 -2.9594  3.0911
  156MOL0     H21050   8.183   1.819   8.405 -0.3599 -0.3202  0.3860
  156MOL0     H21051   8.219   1.873   8.251  0.2648  0.0292  2.0385
  156MOL0     H21052   8.435   1.948   8.335  0.2142  0.0068  0.9685
  156MOL0     H21053   8.472   1.774   8.360  0.2120 -0.7876  0.5359
  156MOL0     H21054   8.364   1.812   8.595  2.2763 -1.5938 -0.7756
  156MOL0     H21055   8.503   1.912   8.560  0.8310 -1.5490  0.0258
  156MOL0     H21056   8.189   2.197   8.602 -1.8435 -0.6357  3.0129
  156MOL0     H21057   8.467   1.423   8.429 -0.6473 -0.0683  0.3372
  156MOL0     H21058   8.533   1.216   8.504  1.1050 -0.3899 -0.8534
  156MOL0     H21059   8.412   1.081   8.507  2.2549 -0.8958  1.9392
  156MOL0     H21060   8.531   1.100   8.368 -0.0406  1.4407 -1.6947
  157MOL0     O21061   6.112   7.163   3.135  0.1079  0.3272 -0.2056
  157MOL0     C21062   6.152   7.051   3.177  0.0986  0.0022  0.3272
  157MOL0     O21063   6.210   7.026   3.294 -0.0505  1.3593 -0.3845
  157MOL0     C21064   6.266   7.131   3.363  1.3272 -0.0879 -1.3722
  157MOL0     C21065   6.402   7.122   3.400 -0.6610  0.1828 -1.0726
  157MOL0     C21066   6.456   7.225   3.480  0.4294  0.9073 -0.4665
  157MOL0     C21067   6.374   7.328   3.521 -0.0718  1.1098 -0.5890
  157MOL0     O21068   6.418   7.418   3.612 -0.0220 -0.4564  0.6057
  157MOL0     C21069   6.344   7.439   3.730  0.5361 -0.1165 -0.2159
  157MOL0     C21070   6.306   7.591   3.743 -0.0932  0.0112  0.6985
  157MOL0     C21071   6.258   7.627   3.889 -1.1408  0.1002 -0.5958
  157MOL0     C21072   6.207   7.765   3.891 -0.1423  0.1129 -0.2418
  157MOL0     C21073   6.313   7.870   3.871 -0.1546  0.3293 -0.8978
  157MOL0     C21074   6.284   8.012   3.929 -0.2576  0.0947  0.5793
  157MOL0     C21075   6.157   8.083   3.897 -0.9991  0.1121  0.2108
  157MOL0     C21076   6.163   8.139   3.756 -0.2700  0.0015  0.1275
  157MOL0     N21077   6.038   8.207   3.725 -0.6947  0.9543  0.3606
  157MOL0     C21078   6.025   8.339   3.711 -0.4465  0.4809  0.1638
  157MOL0     C21079   5.892   8.353   3.705 -0.2154 -0.7676 -0.0936
  157MOL0     C21080   5.835   8.492   3.694  0.2147  0.2435 -0.0246
  157MOL0     C21081   5.723   8.513   3.790  0.4990 -0.3349  0.8839
  157MOL0     C21082   5.774   8.527   3.940  0.2389  1.4005  0.0727
  157MOL0     C21083   5.653   8.493   4.042  0.3230 -0.1785  0.4897
  157MOL0     O21084   5.645   8.346   4.062  0.3669  0.1234  0.1825
  157MOL0     C21085   5.522   8.302   4.118 -0.1667  0.0792  0.0297
  157MOL0     C21086   5.490   8.170   4.099  0.5681  0.9566 -0.1799
  157MOL0     C21087   5.360   8.120   4.140  0.2536  0.2198 -0.1183
  157MOL0     C21088   5.274   8.207   4.201  0.9554 -1.0571  0.8357
  157MOL0     C21089   5.154   8.146   4.262  0.1402 -0.5714  0.1446
  157MOL0     O21090   5.111   8.029   4.219 -0.1127 -1.1570  0.3530
  157MOL0     C21091   5.008   7.973   4.287  0.0710 -0.2631 -0.0390
  157MOL0     C21092   4.878   7.993   4.246  0.5749  0.9928 -0.6748
  157MOL0     C21093   4.770   7.924   4.315  0.4150  0.3091  0.7444
  157MOL0     C21094   4.794   7.841   4.426 -0.1325 -1.1634  1.0872
  157MOL0     O21095   4.707   7.781   4.514 -0.5928 -0.8648  0.2322
  157MOL0     C21096   4.568   7.812   4.516  0.4213 -0.1202 -0.8881
  157MOL0     C21097   4.528   7.877   4.654 -0.9603 -0.2064  0.2884
  157MOL0     C21098   4.559   7.768   4.763 -0.2722 -0.1661 -0.1171
  157MOL0     C21099   4.548   7.836   4.901 -0.0394  0.0556 -0.4428
  157MOL0     C21100   4.551   7.737   5.011 -0.7684 -0.6722 -0.0963
  157MOL0     C21101   4.420   7.661   5.011 -0.0709  0.7608 -0.4300
  157MOL0     C21102   4.289   7.738   5.011  0.2328  0.1504  0.2975
  157MOL0     C21103   4.172   7.637   4.988 -0.7235 -0.9034 -0.6060
  157MOL0    Cl21104   4.155   7.518   5.127  0.1837 -0.3846  0.5878
  157MOL0     C21105   4.932   7.835   4.459 -0.7224  0.8464  0.0808
  157MOL0     C21106   5.032   7.900   4.402 -0.6517 -0.8901 -0.4328
  157MOL0     O21107   5.111   8.207   4.356 -0.4424  0.6145  0.0166
  157MOL0     C21108   5.299   8.343   4.204  0.1840  1.0244  0.3806
  157MOL0     C21109   5.421   8.385   4.167 -0.4305 -0.2864 -0.1118
  157MOL0     N21110   5.826   8.229   3.695 -0.1054 -0.0695 -0.1065
  157MOL0     N21111   5.917   8.147   3.718  0.1570  0.5327  0.0821
  157MOL0     C21112   6.238   7.340   3.474  0.3430  0.4337 -1.2185
  157MOL0     C21113   6.182   7.234   3.402  0.2779  0.2029  0.7009
  157MOL0     C21114   6.098   6.923   3.122 -0.0660  0.1746  0.6458
  157MOL0     C21115   6.088   6.807   3.201  0.0615 -0.1884 -0.0573
  157MOL0     C21116   6.048   6.682   3.145  0.5031 -0.0393 -0.1507
  157MOL0     C21117   6.012   6.676   3.011  0.2107 -0.0444 -1.4788
  157MOL0     O21118   5.950   6.555   2.962  0.5527 -0.2556 -0.3239
  157MOL0     C21119   5.975   6.480   2.840 -0.2984 -0.8670  0.2453
  157MOL0     C21120   6.073   6.366   2.856  0.0080 -0.2203  0.2044
  157MOL0     C21121   6.218   6.399   2.909 -0.0770 -0.1711  0.6322
  157MOL0     C21122   6.327   6.294   2.851 -0.4336 -0.4777 -0.7759
  157MOL0     C21123   6.329   6.167   2.931  0.5844  0.5200 -0.1394
  157MOL0     C21124   6.345   6.067   3.000  0.2240 -0.2209  0.5209
  157MOL0     C21125   6.032   6.787   2.934 -0.6283  0.6165  0.0408
  157MOL0     C21126   6.078   6.906   2.985 -0.0828  0.0780 -0.3853
  157MOL0     C21127   6.089   7.016   2.884 -0.2775 -0.8405  0.0965
  157MOL0     H21128   6.470   7.047   3.361  0.6375  0.4750  0.5358
  157MOL0     H21129   6.557   7.227   3.520 -0.1031  0.4156  0.9665
  157MOL0     H21130   6.261   7.369   3.742  0.8104 -0.0174  3.0169
  157MOL0     H21131   6.412   7.414   3.812  2.6071 -0.0731 -1.8244
  157MOL0     H21132   6.232   7.619   3.667  0.3431 -1.3525 -0.2703
  157MOL0     H21133   6.398   7.648   3.727  0.3906 -0.9171  0.0781
  157MOL0     H21134   6.341   7.607   3.958 -1.4070 -1.0776 -0.5932
  157MOL0     H21135   6.182   7.552   3.913 -0.8212 -0.3316 -0.9075
  157MOL0     H21136   6.116   7.769   3.831 -1.5355  0.7498  1.7911
  157MOL0     H21137   6.164   7.787   3.989  1.4062 -1.8587  0.9613
  157MOL0     H21138   6.415   7.851   3.905  0.2261  2.1725 -0.8857
  157MOL0     H21139   6.320   7.885   3.763  1.0261  1.5700 -0.6795
  157MOL0     H21140   6.283   7.999   4.037  2.4687 -0.6473  0.5677
  157MOL0     H21141   6.366   8.083   3.915  0.1694  0.0301  2.4983
  157MOL0     H21142   6.140   8.168   3.964 -2.5369  1.3365 -1.6170
  157MOL0     H21143   6.076   8.013   3.918 -1.0542  0.6627  1.9971
  157MOL0     H21144   6.255   8.198   3.748  0.1735 -0.7209 -0.2649
  157MOL0     H21145   6.162   8.056   3.685 -1.4291 -0.2479  0.4108
  157MOL0     H21146   6.105   8.412   3.712 -0.0251  0.2911 -3.8115
  157MOL0     H21147   5.913   8.568   3.704 -2.1311  2.7091  0.9310
  157MOL0     H21148   5.800   8.498   3.591 -0.7574 -0.1147  0.2660
  157MOL0     H21149   5.661   8.597   3.758 -0.5848 -1.7890 -1.0122
  157MOL0     H21150   5.666   8.420   3.794 -1.4345  0.8092  5.0472
  157MOL0     H21151   5.815   8.628   3.947  4.6052  0.0535 -2.2122
  157MOL0     H21152   5.851   8.452   3.959  1.0248  1.4896 -2.4435
  157MOL0     H21153   5.565   8.524   3.985  1.2546  2.0903  0.2139
  157MOL0     H21154   5.674   8.545   4.136 -0.2584  1.1703 -0.1121
  157MOL0     H21155   5.565   8.099   4.064 -2.4321 -1.0404 -3.1395
  157MOL0     H21156   5.354   8.012   4.144 -0.6225  0.2916  1.9778
  157MOL0     H21157   4.863   8.044   4.152 -1.2452 -0.7048 -1.3742
  157MOL0     H21158   4.669   7.931   4.276  0.8194  1.9567 -0.1266
  157MOL0     H21159   4.546   7.877   4.430 -0.0046 -1.6340 -1.9574
  157MOL0     H21160   4.506   7.722   4.515  0.7680 -0.4209  1.4176
  157MOL0     H21161   4.610   7.946   4.678 -0.4020  0.4271 -2.9633
  157MOL0     H21162   4.426   7.915   4.661 -1.0068 -0.0329 -1.1024
  157MOL0     H21163   4.494   7.681   4.748 -0.4168  0.1075 -1.1880
  157MOL0     H21164   4.663   7.733   4.758  0.9597  3.0862 -0.2421
  157MOL0     H21165   4.467   7.909   4.902  1.8084  2.2196  0.6109
  157MOL0     H21166   4.632   7.903   4.921 -0.5636  0.2688  1.1993
  157MOL0     H21167   4.535   7.805   5.095 -5.4839 -0.7969 -0.6193
  157MOL0     H21168   4.633   7.665   5.010 -2.2058 -2.3709  0.1175
  157MOL0     H21169   4.419   7.595   4.924  0.1367  1.1648 -0.7448
  157MOL0     H21170   4.421   7.606   5.106  1.3352  1.9866  0.3133
  157MOL0     H21171   4.284   7.822   4.942  0.2304 -0.5339 -0.5516
  157MOL0     H21172   4.264   7.774   5.111  0.8164  2.6645 -0.3979
  157MOL0     H21173   4.077   7.690   4.987  0.0584  0.6797  1.2995
  157MOL0     H21174   4.186   7.584   4.893 -0.7208  0.4341 -1.3845
  157MOL0     H21175   4.952   7.766   4.541 -0.5372  0.9598  0.1308
  157MOL0     H21176   5.135   7.886   4.431  0.7771  1.5110 -3.7209
  157MOL0     H21177   5.241   8.416   4.261 -0.1913  2.0696 -1.2816
  157MOL0     H21178   5.425   8.493   4.165 -1.8026 -0.2254 -0.0269
  157MOL0     H21179   6.180   7.427   3.501 -0.1000 -0.0377 -0.6293
  157MOL0     H21180   6.076   7.233   3.381  0.7702 -0.6125 -2.1031
  157MOL0     H21181   6.100   6.813   3.309 -4.5398 -3.3127  0.9132
  157MOL0     H21182   6.040   6.596   3.210  0.6552  1.2272  1.6336
  157MOL0     H21183   6.014   6.540   2.758 -3.4408 -0.4796 -1.1276
  157MOL0     H21184   5.882   6.431   2.809  2.1485 -3.9563 -3.0590
  157MOL0     H21185   6.076   6.331   2.753 -3.4281  0.6125 -0.2886
  157MOL0     H21186   6.040   6.297   2.934 -0.0940  2.6555  2.9124
  157MOL0     H21187   6.222   6.398   3.018  2.2970  2.8731  0.7155
  157MOL0     H21188   6.244   6.499   2.874  1.0372 -1.0976 -1.4247
  157MOL0     H21189   6.306   6.260   2.748 -1.4380 -0.4647 -0.5902
  157MOL0     H21190   6.427   6.337   2.857 -1.0655  0.8241  1.6574
  157MOL0     H21191   6.365   5.985   3.066 -2.6814 -0.3901  1.3408
  157MOL0     H21192   6.020   6.781   2.827  1.0848 -1.0869 -0.0945
  157MOL0     H21193   6.163   7.090   2.915  1.7158 -1.1754 -3.3609
  157MOL0     H21194   6.117   6.978   2.785 -1.7365  0.9540 -1.0903
  157MOL0     H21195   5.989   7.059   2.868 -0.0677 -0.5999 -0.6189
  158MOL0     O21196   0.084   1.825   9.543 -0.1886  0.3512 -0.4564
  158MOL0     C21197   0.124   1.711   9.569 -0.0611  0.0709  0.4698
  158MOL0     O21198   0.150   1.654   9.698  0.2618  0.2656 -1.3988
  158MOL0     C21199   0.214   1.740   9.780 -0.1576  0.3847  0.9608
  158MOL0     C21200   0.328   1.826   9.739 -0.2621 -0.4851  0.0938
  158MOL0     C21201   0.385   1.917   9.839  1.1461 -0.8412 -0.1852
  158MOL0     C21202   0.329   1.923   9.967  0.5780  0.1480 -0.3576
  158MOL0     O21203   0.389   1.977  10.082 -0.4055 -0.7325  0.7716
  158MOL0     C21204   0.531   1.948  10.092 -0.2725  0.6275 -0.6177
  158MOL0     C21205   0.570   1.944  10.237 -0.0425 -0.0592  0.8486
  158MOL0     C21206   0.587   2.096  10.285 -0.3436  0.4193 -0.3753
  158MOL0     C21207   0.718   2.143  10.346  0.7653  0.0807  0.1999
  158MOL0     C21208   0.703   2.273  10.429 -0.1490  0.5675 -0.3367
  158MOL0     C21209   0.838   2.318  10.495  0.1441 -0.3048 -0.3019
  158MOL0     C21210   0.904   2.424  10.405  0.5090  0.1556 -0.6967
  158MOL0     C21211   0.972   2.536  10.487 -1.2355  0.2078 -0.4049
  158MOL0     N21212   0.986   2.653  10.392  0.4713  0.8854  0.3352
  158MOL0     C21213   1.033   2.636  10.267 -1.3705  0.5370  0.1996
  158MOL0     C21214   1.031   2.761  10.213 -0.0282  0.3164 -0.3131
  158MOL0     C21215   1.070   2.805  10.075  0.5511 -0.3180 -0.1566
  158MOL0     C21216   1.204   2.879  10.092 -0.7490  0.2057  0.7771
  158MOL0     C21217   1.309   2.810   9.997  0.1262 -0.7414 -0.2177
  158MOL0     C21218   1.444   2.891   9.974 -0.1398 -0.1070 -0.1566
  158MOL0     O21219   1.532   2.854   9.869 -0.7302  1.2976  0.0676
  158MOL0     C21220   1.608   2.742   9.896 -0.3975  1.3513  0.1893
  158MOL0     C21221   1.669   2.693   9.778 -0.7026  0.1020 -0.3468
  158MOL0     C21222   1.764   2.586   9.776 -0.5856 -0.6547  0.3620
  158MOL0     C21223   1.789   2.516   9.896  0.0524 -1.2040  0.3194
  158MOL0     C21224   1.892   2.412   9.888 -0.4884 -1.6628  0.0856
  158MOL0     O21225   1.984   2.424   9.781  0.1816 -0.3379  0.1858
  158MOL0     C21226   2.056   2.310   9.763  0.3813  0.0465 -0.8145
  158MOL0     C21227   2.180   2.300   9.826 -0.1575 -0.4355 -0.1373
  158MOL0     C21228   2.246   2.181   9.820 -0.0833 -0.7850 -0.7582
  158MOL0     C21229   2.194   2.070   9.753 -0.1404 -0.1476 -0.1323
  158MOL0     O21230   2.242   1.940   9.752 -0.6901  0.2084  0.3147
  158MOL0     C21231   2.365   1.916   9.828 -0.1879  0.8416  0.2456
  158MOL0     C21232   2.413   1.769   9.833 -0.8329 -0.1407 -0.5730
  158MOL0     C21233   2.301   1.684   9.891  0.2553 -0.8288 -0.3680
  158MOL0     C21234   2.330   1.533   9.866  0.6223  0.3896 -1.0215
  158MOL0     C21235   2.201   1.464   9.907 -0.5414 -0.8198  0.3288
  158MOL0     C21236   2.204   1.312   9.899  0.1774  0.5702  0.4226
  158MOL0     C21237   2.296   1.246  10.000  0.3432  0.2473  0.1543
  158MOL0     C21238   2.338   1.103   9.951 -0.0846 -0.1368 -0.2712
  158MOL0    Cl21239   2.436   1.093   9.802  0.5408 -0.0300 -0.2320
  158MOL0     C21240   2.075   2.089   9.681  0.3146 -0.5702 -0.2387
  158MOL0     C21241   2.000   2.215   9.679  0.6482  1.2985 -0.7183
  158MOL0     O21242   1.896   2.323   9.976  1.0161  0.0816  0.4037
  158MOL0     C21243   1.729   2.560  10.020  0.4766 -0.0342 -0.4935
  158MOL0     C21244   1.640   2.674  10.015  0.4131  0.7978 -0.2578
  158MOL0     N21245   0.974   2.844  10.307  0.4010  0.0874 -0.9808
  158MOL0     N21246   0.950   2.778  10.412  0.5227  0.4652  0.2042
  158MOL0     C21247   0.218   1.843   9.999 -0.0194 -0.6715 -0.7143
  158MOL0     C21248   0.164   1.756   9.905 -0.5982 -0.4282 -0.4144
  158MOL0     C21249   0.156   1.622   9.445  0.6621 -0.5003 -0.6258
  158MOL0     C21250   0.171   1.490   9.473  0.6041 -0.4673 -0.0344
  158MOL0     C21251   0.185   1.403   9.372 -0.8744 -0.9699  0.4329
  158MOL0     C21252   0.196   1.441   9.241  0.1927  0.1879  0.4086
  158MOL0     O21253   0.216   1.353   9.154  0.2111 -0.3987  0.1661
  158MOL0     C21254   0.095   1.318   9.076 -0.4875 -1.0859 -0.6474
  158MOL0     C21255   0.033   1.188   9.130  0.4591  0.6191  1.1882
  158MOL0     C21256   0.143   1.097   9.166 -0.8871  0.3747  0.1700
  158MOL0     C21257   0.090   0.955   9.215 -1.2137 -0.2652 -0.2947
  158MOL0     C21258   0.178   0.836   9.209 -0.3667 -0.3188 -0.2346
  158MOL0     C21259   0.245   0.738   9.211  0.0820  0.2894  0.5071
  158MOL0     C21260   0.185   1.571   9.213  0.2225 -0.1109  0.0984
  158MOL0     C21261   0.162   1.669   9.316 -0.1399  0.3295  0.7063
  158MOL0     C21262   0.176   1.819   9.276  0.2258 -0.4584 -0.2681
  158MOL0     H21263   0.378   1.807   9.644 -2.3689  2.7043 -1.8792
  158MOL0     H21264   0.475   1.974   9.823  0.7332  0.3323  1.4319
  158MOL0     H21265   0.562   1.852  10.049 -0.8039 -0.2161  0.8219
  158MOL0     H21266   0.581   2.025  10.033  1.0644 -1.2038 -1.9932
  158MOL0     H21267   0.659   1.882  10.252 -0.6609 -0.9833  0.8150
  158MOL0     H21268   0.494   1.889  10.293  0.3150 -0.1500  1.2433
  158MOL0     H21269   0.511   2.107  10.363  0.3470  0.3398  0.3199
  158MOL0     H21270   0.579   2.160  10.196 -0.1708 -1.6385 -1.9647
  158MOL0     H21271   0.743   2.063  10.417 -1.5494 -0.3594  0.5725
  158MOL0     H21272   0.795   2.156  10.269 -0.1026  3.1905 -0.2799
  158MOL0     H21273   0.653   2.348  10.367  0.6017 -0.3265 -2.1002
  158MOL0     H21274   0.639   2.247  10.513 -1.8266 -0.5531 -1.8773
  158MOL0     H21275   0.823   2.356  10.596  1.7878 -0.1898 -0.0761
  158MOL0     H21276   0.903   2.230  10.495  0.5506 -0.1224  3.2194
  158MOL0     H21277   0.822   2.465  10.346 -0.7300 -4.3165 -2.4096
  158MOL0     H21278   0.960   2.367  10.330  0.0255 -2.1089  0.5888
  158MOL0     H21279   0.906   2.578  10.564 -1.9001 -0.6772 -0.4708
  158MOL0     H21280   1.066   2.505  10.532 -2.0780 -0.3522  1.0372
  158MOL0     H21281   1.071   2.546  10.220 -1.6156  0.5753 -0.0710
  158MOL0     H21282   1.065   2.707  10.027 -0.9289 -0.8837  1.0521
  158MOL0     H21283   0.997   2.878  10.039 -0.1491 -1.1221 -0.3966
  158MOL0     H21284   1.182   2.983  10.063  1.8739  0.6406  0.0519
  158MOL0     H21285   1.237   2.888  10.195 -1.9418  1.1934  1.1066
  158MOL0     H21286   1.252   2.805   9.904 -4.5561 -0.0579  2.3416
  158MOL0     H21287   1.337   2.709  10.027  2.0804 -0.0557  0.4453
  158MOL0     H21288   1.499   2.894  10.069 -0.8681 -1.4891  0.3395
  158MOL0     H21289   1.420   2.995   9.951 -3.9127 -0.5888  0.9297
  158MOL0     H21290   1.659   2.741   9.681 -0.0595 -0.6440 -0.7970
  158MOL0     H21291   1.808   2.554   9.683 -1.5513  0.0816 -0.3823
  158MOL0     H21292   2.219   2.386   9.879 -3.0567  1.5290 -0.9612
  158MOL0     H21293   2.344   2.182   9.866  0.9511  2.4188 -2.6589
  158MOL0     H21294   2.441   1.977   9.776 -0.9397  2.0218  0.4951
  158MOL0     H21295   2.365   1.954   9.930  3.8107  0.0269  0.7265
  158MOL0     H21296   2.447   1.740   9.733  4.9988  1.8362  0.4932
  158MOL0     H21297   2.502   1.766   9.896 -0.7603  2.7687 -0.4399
  158MOL0     H21298   2.296   1.694  10.000 -0.7112 -2.4033 -0.2418
  158MOL0     H21299   2.206   1.722   9.853 -0.8415 -2.2861  0.7815
  158MOL0     H21300   2.414   1.501   9.928  0.1669  1.1008 -0.0075
  158MOL0     H21301   2.359   1.519   9.761 -0.9102 -0.4589 -1.3635
  158MOL0     H21302   2.115   1.496   9.848 -1.9172 -1.5763  1.8408
  158MOL0     H21303   2.188   1.489  10.012  0.1918  0.1220  0.2013
  158MOL0     H21304   2.100   1.280   9.913 -0.3796  0.9876 -2.3180
  158MOL0     H21305   2.233   1.275   9.801  2.5371 -1.9462  1.9152
  158MOL0     H21306   2.241   1.247  10.094 -0.3559  3.0110 -0.1914
  158MOL0     H21307   2.379   1.315  10.020 -0.6765  1.4349  0.4002
  158MOL0     H21308   2.385   1.054  10.037 -1.6908  0.0655  0.7665
  158MOL0     H21309   2.243   1.051   9.940 -2.1847  3.7250 -2.6784
  158MOL0     H21310   2.033   2.007   9.623 -2.2323 -0.0322  0.7178
  158MOL0     H21311   1.903   2.240   9.637 -0.3586 -0.9645  0.1355
  158MOL0     H21312   1.739   2.511  10.116 -2.5338 -2.6920 -1.3337
  158MOL0     H21313   1.587   2.721  10.097  2.6248 -1.0976  2.4519
  158MOL0     H21314   0.179   1.862  10.098  1.4225 -2.6680  0.2997
  158MOL0     H21315   0.071   1.722   9.951 -0.3249  1.4482  1.6895
  158MOL0     H21316   0.157   1.454   9.574 -0.1821 -1.8108 -0.5842
  158MOL0     H21317   0.186   1.304   9.414 -0.5951  0.1702  3.3165
  158MOL0     H21318   0.135   1.304   8.976  0.7760  2.7178 -0.8192
  158MOL0     H21319   0.023   1.400   9.080  0.0511 -0.6100 -0.4770
  158MOL0     H21320  -0.033   1.156   9.049  1.9998  1.2282 -0.3640
  158MOL0     H21321  -0.028   1.213   9.218 -0.3670  0.0294  0.8057
  158MOL0     H21322   0.216   1.127   9.242 -2.8299 -2.6724  3.5700
  158MOL0     H21323   0.205   1.082   9.078 -1.7476  0.9624 -0.5578
  158MOL0     H21324   0.054   0.955   9.319 -0.8926  1.5821 -0.1421
  158MOL0     H21325   0.010   0.922   9.149 -0.8871 -0.5530 -0.5477
  158MOL0     H21326   0.321   0.664   9.221 -0.4913 -0.7012 -1.8684
  158MOL0     H21327   0.202   1.599   9.110 -1.5124 -1.9447 -0.7493
  158MOL0     H21328   0.082   1.874   9.265  0.5870  0.9568  2.8197
  158MOL0     H21329   0.240   1.872   9.348 -4.2678  0.8347  3.2482
  158MOL0     H21330   0.222   1.836   9.178 -1.0924 -0.8596 -0.9704
  159MOL0     O21331   7.488  10.808   9.551  0.1112 -0.2033  0.6512
  159MOL0     C21332   7.419  10.700   9.573 -0.3755 -0.4018 -0.1219
  159MOL0     O21333   7.422  10.624   9.684 -0.1190  0.1659 -0.1556
  159MOL0     C21334   7.509  10.656   9.787 -0.3194 -0.7168 -0.0103
  159MOL0     C21335   7.649  10.650   9.762  1.4465  1.1853  0.3107
  159MOL0     C21336   7.739  10.681   9.860 -1.1616 -0.3020  0.4968
  159MOL0     C21337   7.682  10.727   9.982  0.4159 -0.3108  0.0376
  159MOL0     O21338   7.754  10.767  10.098 -0.1083 -0.0845  0.4823
  159MOL0     C21339   7.875  10.698  10.140 -0.7542 -0.4716  0.4235
  159MOL0     C21340   7.993  10.736  10.057 -0.9276 -0.0398 -0.3605
  159MOL0     C21341   8.068  10.856  10.103  0.0311  1.1308 -0.5515
  159MOL0     C21342   7.987  10.993  10.104 -0.5740  0.5051  0.0285
  159MOL0     C21343   8.071  11.123  10.099  0.0727  0.2354 -0.1699
  159MOL0     C21344   8.163  11.134  10.213  0.2685 -0.1631  0.0377
  159MOL0     C21345   8.254  11.253  10.222 -0.3611  0.0103  0.2790
  159MOL0     C21346   8.348  11.266  10.346  0.1014  0.2231 -0.9012
  159MOL0     N21347   8.273  11.303  10.470  0.6548 -0.3239  0.1683
  159MOL0     C21348   8.205  11.421  10.494 -0.0307  0.1358 -0.0244
  159MOL0     C21349   8.165  11.425  10.622 -0.0723 -0.4508 -0.2917
  159MOL0     C21350   8.095  11.534  10.691  0.5227  0.7796  0.5386
  159MOL0     C21351   7.951  11.539  10.632 -0.1435  0.2888 -0.2890
  159MOL0     C21352   7.865  11.627  10.714  0.1288 -0.4834 -0.1950
  159MOL0     C21353   7.734  11.628  10.642  0.4863  0.4046 -0.0010
  159MOL0     O21354   7.738  11.705  10.523  0.5596 -0.0709 -0.1178
  159MOL0     C21355   7.689  11.832  10.528  0.6780 -0.1708  0.7929
  159MOL0     C21356   7.765  11.938  10.483 -1.0696  1.0728 -0.5682
  159MOL0     C21357   7.708  12.068  10.479 -0.3287  0.3850  0.1392
  159MOL0     C21358   7.574  12.092  10.539  0.4044  0.4117 -0.5565
  159MOL0     C21359   7.509  12.225  10.540 -0.3698  0.7637 -0.3370
  159MOL0     O21360   7.572  12.338  10.487 -0.1302  0.2915  0.5850
  159MOL0     C21361   7.506  12.457  10.511 -0.2742 -0.0803 -0.0326
  159MOL0     C21362   7.374  12.474  10.457 -0.7393 -0.5525  0.2310
  159MOL0     C21363   7.304  12.597  10.484 -1.1891 -0.1532  0.1504
  159MOL0     C21364   7.362  12.714  10.539 -0.2279  0.1853 -0.1101
  159MOL0     O21365   7.291  12.838  10.571  0.3939 -0.3742 -0.0480
  159MOL0     C21366   7.144  12.823  10.567 -0.8924  0.1215 -0.1608
  159MOL0     C21367   7.080  12.948  10.629  0.6997 -0.3356  0.4659
  159MOL0     C21368   7.108  12.977  10.780  0.6014 -0.6726  0.1334
  159MOL0     C21369   7.177  13.112  10.797  0.4833 -0.3584 -0.9221
  159MOL0     C21370   7.219  13.138  10.950 -0.1222  0.0529 -0.9964
  159MOL0     C21371   7.239  13.284  10.985  0.4718  0.4541  1.1439
  159MOL0     C21372   7.305  13.305  11.127 -0.0921 -0.1647 -0.1099
  159MOL0     C21373   7.315  13.449  11.178 -0.4342  0.0158 -0.9232
  159MOL0    Cl21374   7.150  13.522  11.187  0.1185 -0.0846 -0.5079
  159MOL0     C21375   7.504  12.689  10.580  0.8125  1.0051 -1.3073
  159MOL0     C21376   7.572  12.564  10.567 -0.7286 -0.9401 -0.1495
  159MOL0     O21377   7.396  12.220  10.579 -0.0813  0.0092 -0.6242
  159MOL0     C21378   7.503  11.981  10.583 -0.8784 -0.0956  0.5190
  159MOL0     C21379   7.559  11.851  10.578 -0.7227  1.1786 -1.2205
  159MOL0     N21380   8.192  11.300  10.667 -0.4638 -0.1881  0.0045
  159MOL0     N21381   8.263  11.234  10.584  0.6554  0.4663  0.5292
  159MOL0     C21382   7.544  10.731  10.012 -0.4389  0.0898 -0.0424
  159MOL0     C21383   7.464  10.685   9.906  0.4964 -0.4634  0.6320
  159MOL0     C21384   7.343  10.642   9.466  0.0128  0.3946 -0.1696
  159MOL0     C21385   7.349  10.503   9.454 -0.2200 -0.0119  0.4648
  159MOL0     C21386   7.298  10.443   9.329  0.6220 -0.0690 -0.1203
  159MOL0     C21387   7.223  10.504   9.236  1.0716 -0.0552 -0.0276
  159MOL0     O21388   7.165  10.436   9.135  0.3105  0.1080 -0.3339
  159MOL0     C21389   7.034  10.379   9.177  0.5746  0.3985 -0.0292
  159MOL0     C21390   6.930  10.395   9.068  0.2859  0.3199  0.0524
  159MOL0     C21391   6.903  10.542   9.025 -0.1114 -0.0356  0.4516
  159MOL0     C21392   6.765  10.560   8.953  0.2092  0.3591  0.4362
  159MOL0     C21393   6.753  10.471   8.837 -0.1023 -0.2632 -0.0360
  159MOL0     C21394   6.749  10.383   8.745 -0.7277 -1.0769  0.5239
  159MOL0     C21395   7.195  10.637   9.263  0.5772 -0.1786 -0.4576
  159MOL0     C21396   7.262  10.710   9.365 -0.2511 -0.0808  0.4291
  159MOL0     C21397   7.247  10.862   9.362  0.3861  0.3680  0.3035
  159MOL0     H21398   7.681  10.622   9.662  0.9400  2.4498 -0.2399
  159MOL0     H21399   7.842  10.666   9.829 -1.2114 -0.4904  0.4245
  159MOL0     H21400   7.894  10.714  10.246 -0.7063  1.8724  0.1350
  159MOL0     H21401   7.859  10.591  10.126  2.9262 -1.0185 -0.7472
  159MOL0     H21402   7.966  10.769   9.956 -0.0431  0.4714 -0.4333
  159MOL0     H21403   8.063  10.653  10.046  0.8449  1.6702 -2.9999
  159MOL0     H21404   8.156  10.854  10.038 -0.1600 -1.3342 -0.8533
  159MOL0     H21405   8.106  10.831  10.203 -1.1755 -3.1246 -0.9532
  159MOL0     H21406   7.922  10.999  10.016 -0.8092  3.5667  0.2986
  159MOL0     H21407   7.930  10.995  10.197 -0.1504  0.2850  0.2955
  159MOL0     H21408   8.139  11.119  10.013  0.0094 -2.7886 -0.1772
  159MOL0     H21409   8.008  11.212  10.107 -1.1242 -0.7368  2.1594
  159MOL0     H21410   8.100  11.130  10.302 -2.0788  0.7154 -1.4866
  159MOL0     H21411   8.223  11.043  10.206  0.2906 -0.0622 -4.8556
  159MOL0     H21412   8.197  11.346  10.210  2.7951  2.3849  2.0653
  159MOL0     H21413   8.317  11.266  10.134  0.3876 -0.5902  0.7162
  159MOL0     H21414   8.398  11.174  10.378 -2.9042 -0.9470  0.7881
  159MOL0     H21415   8.424  11.343  10.328  0.7131 -0.7767 -2.8879
  159MOL0     H21416   8.212  11.508  10.431  0.7640  0.5525  0.6193
  159MOL0     H21417   8.089  11.509  10.797  0.0156  2.8125  1.0449
  159MOL0     H21418   8.158  11.623  10.678  2.3033 -0.2433  1.7566
  159MOL0     H21419   7.949  11.552  10.523  2.1005  2.5582 -0.1635
  159MOL0     H21420   7.914  11.437  10.649  0.8693  0.0285  0.4248
  159MOL0     H21421   7.906  11.728  10.702  1.7189 -1.1787 -0.9555
  159MOL0     H21422   7.867  11.598  10.819  0.4969 -1.6730 -0.5114
  159MOL0     H21423   7.657  11.656  10.715 -0.3694  0.8852 -1.0665
  159MOL0     H21424   7.718  11.525  10.609  0.8789 -0.7468  3.0210
  159MOL0     H21425   7.865  11.912  10.451 -1.3214 -0.1966 -0.3492
  159MOL0     H21426   7.749  12.156  10.429 -3.0710 -0.2880 -3.7160
  159MOL0     H21427   7.311  12.395  10.419 -3.2770  0.2023  2.5562
  159MOL0     H21428   7.203  12.591  10.445 -0.8250  0.8859 -0.9955
  159MOL0     H21429   7.105  12.825  10.465 -1.4732 -1.3740  0.0005
  159MOL0     H21430   7.115  12.727  10.611 -3.3018  0.0311 -1.7140
  159MOL0     H21431   7.111  13.033  10.567 -1.1040 -0.7333 -1.0810
  159MOL0     H21432   6.974  12.930  10.611  0.8565  2.2478 -5.7576
  159MOL0     H21433   7.018  12.979  10.841  0.7385 -0.7606  0.3421
  159MOL0     H21434   7.174  12.893  10.805 -0.3193 -1.8027 -1.0343
  159MOL0     H21435   7.107  13.192  10.771 -0.2598 -0.2802  1.0976
  159MOL0     H21436   7.269  13.108  10.739  1.8504  2.8168  0.7977
  159MOL0     H21437   7.311  13.083  10.969 -0.3413 -0.1494 -0.4909
  159MOL0     H21438   7.144  13.092  11.015  2.1115 -0.8218  1.1053
  159MOL0     H21439   7.310  13.313  10.906 -0.7319 -0.7172 -0.4426
  159MOL0     H21440   7.150  13.347  10.980  0.2366  0.0672  0.3239
  159MOL0     H21441   7.408  13.268  11.123 -0.0869 -0.2838  0.8107
  159MOL0     H21442   7.252  13.238  11.196 -1.4733  1.1140  0.1156
  159MOL0     H21443   7.356  13.448  11.280 -0.9437 -0.2424 -0.7095
  159MOL0     H21444   7.369  13.524  11.120  2.8027 -0.7758  0.8140
  159MOL0     H21445   7.554  12.770  10.630  1.9156 -0.3511 -0.1398
  159MOL0     H21446   7.676  12.555  10.598 -0.1949  1.6927 -0.9687
  159MOL0     H21447   7.398  11.972  10.608 -0.7416 -2.7589  0.3878
  159MOL0     H21448   7.509  11.755  10.590  3.1936 -0.7867  1.8459
  159MOL0     H21449   7.505  10.749  10.112 -1.8527 -1.3007 -0.3100
  159MOL0     H21450   7.357  10.681   9.924  0.4185  2.0400  0.9977
  159MOL0     H21451   7.406  10.434   9.515 -0.6499 -0.7302  0.0749
  159MOL0     H21452   7.321  10.341   9.302 -2.6354 -1.2190  0.9898
  159MOL0     H21453   6.997  10.429   9.267  0.3224  0.8112 -0.3558
  159MOL0     H21454   7.032  10.271   9.193 -1.8737  0.5622  1.4117
  159MOL0     H21455   6.842  10.339   9.100 -1.5451  3.1013  0.2458
  159MOL0     H21456   6.970  10.343   8.980 -0.7798 -0.6028  0.0961
  159MOL0     H21457   6.974  10.578   8.949  1.1085 -2.7966  0.1482
  159MOL0     H21458   6.893  10.614   9.107 -1.8063  1.6699 -1.1541
  159MOL0     H21459   6.688  10.548   9.030 -0.3263 -3.2554 -0.4907
  159MOL0     H21460   6.758  10.663   8.914  1.0666  1.0855  2.1063
  159MOL0     H21461   6.733  10.312   8.667  1.0362  0.6697 -1.5534
  159MOL0     H21462   7.115  10.682   9.203 -0.4886 -0.7508  0.5036
  159MOL0     H21463   7.198  10.898   9.453  0.0062  1.1711 -0.2094
  159MOL0     H21464   7.346  10.907   9.353  1.1019 -0.8545  1.6115
  159MOL0     H21465   7.187  10.886   9.274  1.0891  2.3827  0.3349
  160MOL0     O21466   5.329   2.403   7.552  0.3075  0.4572  0.8756
  160MOL0     C21467   5.388   2.342   7.465  0.7266  0.1206 -0.4017
  160MOL0     O21468   5.328   2.243   7.384 -0.1899 -0.0584 -0.7599
  160MOL0     C21469   5.202   2.197   7.424 -0.4105  0.2732 -0.9788
  160MOL0     C21470   5.096   2.184   7.334  0.3640  0.0106 -0.4809
  160MOL0     C21471   4.967   2.151   7.378  0.0142  0.2473  0.1601
  160MOL0     C21472   4.952   2.108   7.509 -0.1911  0.1549 -0.1097
  160MOL0     O21473   4.833   2.066   7.560  0.3294  0.1852 -0.2430
  160MOL0     C21474   4.733   2.165   7.562  0.5401  0.1966 -0.5671
  160MOL0     C21475   4.624   2.128   7.665  0.3164 -0.1905 -0.6165
  160MOL0     C21476   4.504   2.223   7.664 -0.7443 -0.5335 -0.4109
  160MOL0     C21477   4.404   2.186   7.775  0.0426  0.6226  0.3604
  160MOL0     C21478   4.269   2.246   7.774  0.1991  0.2418  0.2867
  160MOL0     C21479   4.269   2.395   7.822  0.1647  0.5658  0.3778
  160MOL0     C21480   4.114   2.440   7.835 -0.1684 -0.2922 -0.3021
  160MOL0     C21481   4.066   2.484   7.694  0.6815  1.1054  0.4758
  160MOL0     N21482   4.139   2.594   7.641  0.5723 -1.1635  0.0306
  160MOL0     C21483   4.137   2.726   7.695  1.2570 -0.4157 -0.6909
  160MOL0     C21484   4.212   2.797   7.610  0.6112  1.0340  0.3272
  160MOL0     C21485   4.209   2.951   7.611 -0.0270 -0.4383 -0.0995
  160MOL0     C21486   4.226   3.015   7.739 -0.8021 -0.0140 -0.2242
  160MOL0     C21487   4.376   3.003   7.779 -1.5469 -0.0882 -0.6264
  160MOL0     C21488   4.391   3.044   7.929 -0.8728  0.0104 -0.4565
  160MOL0     O21489   4.521   3.039   7.979  0.4467 -0.2471 -0.2345
  160MOL0     C21490   4.552   3.092   8.101 -0.0429 -0.1832  0.1799
  160MOL0     C21491   4.677   3.083   8.147 -0.3041 -0.1167 -0.6678
  160MOL0     C21492   4.719   3.131   8.277  0.7559  0.1282  0.2024
  160MOL0     C21493   4.623   3.185   8.362  1.2257 -0.8632 -0.1851
  160MOL0     C21494   4.658   3.223   8.497 -0.1467 -0.1045 -0.3853
  160MOL0     O21495   4.780   3.208   8.539  0.1639  0.4725  0.2181
  160MOL0     C21496   4.836   3.286   8.618 -0.1493  0.2317 -0.5912
  160MOL0     C21497   4.942   3.372   8.587  0.7572  0.0967  0.1627
  160MOL0     C21498   5.015   3.438   8.686 -0.1876 -0.3135  1.0131
  160MOL0     C21499   4.987   3.426   8.821 -0.2162 -0.1379  0.5099
  160MOL0     O21500   5.081   3.478   8.912 -0.6620  0.1703 -0.5840
  160MOL0     C21501   5.051   3.467   9.043 -0.1735  0.2724 -1.0599
  160MOL0     C21502   5.186   3.488   9.117  0.5194 -0.2645  0.6765
  160MOL0     C21503   5.282   3.376   9.144 -0.7074 -0.1214 -0.3573
  160MOL0     C21504   5.340   3.316   9.010  0.0969  0.3058 -1.4353
  160MOL0     C21505   5.468   3.240   9.033  0.6633  0.1452  0.1146
  160MOL0     C21506   5.438   3.093   9.085  0.6450  0.5041  0.4802
  160MOL0     C21507   5.572   3.019   9.074 -0.5492 -0.3620 -1.0495
  160MOL0     C21508   5.556   2.872   9.116 -1.1343 -0.7681  1.4479
  160MOL0    Cl21509   5.681   2.774   9.028  0.2685  0.2216 -0.4304
  160MOL0     C21510   4.874   3.350   8.854  0.1311 -0.2698 -1.1435
  160MOL0     C21511   4.797   3.282   8.760 -0.4451 -0.2345  0.2352
  160MOL0     O21512   4.578   3.297   8.550  0.5727  0.5960  0.6878
  160MOL0     C21513   4.489   3.184   8.326  0.3967  0.0204 -0.1915
  160MOL0     C21514   4.452   3.144   8.196  0.1290 -0.5632  0.2781
  160MOL0     N21515   4.273   2.715   7.520  0.8074 -0.2733 -0.6722
  160MOL0     N21516   4.236   2.594   7.546  0.6725 -0.5779  0.0219
  160MOL0     C21517   5.060   2.112   7.597  0.8452  0.5452 -1.4682
  160MOL0     C21518   5.187   2.148   7.556  0.3434 -1.6051  1.5215
  160MOL0     C21519   5.534   2.364   7.455 -0.3041  0.1622  0.5158
  160MOL0     C21520   5.606   2.257   7.396  0.0619  0.6164 -0.0841
  160MOL0     C21521   5.743   2.271   7.370  0.2364  0.1192 -0.3371
  160MOL0     C21522   5.819   2.377   7.434 -0.7671  0.2316  0.1867
  160MOL0     O21523   5.958   2.382   7.434  0.8913  0.1408 -0.2997
  160MOL0     C21524   6.038   2.259   7.445  0.0838 -0.0197 -0.7035
  160MOL0     C21525   6.180   2.296   7.425  0.3861 -1.0281  0.1219
  160MOL0     C21526   6.200   2.319   7.263  0.1820 -0.2173  0.0301
  160MOL0     C21527   6.349   2.338   7.225  0.1831  0.5496 -0.4008
  160MOL0     C21528   6.415   2.433   7.305 -0.4423  0.1854 -1.1036
  160MOL0     C21529   6.490   2.504   7.371 -0.2197 -0.5473 -0.6608
  160MOL0     C21530   5.751   2.480   7.495  0.3779 -0.5841  0.1861
  160MOL0     C21531   5.608   2.473   7.502 -0.1834 -0.8323  0.2494
  160MOL0     C21532   5.547   2.601   7.559 -1.6350  0.5360 -0.0521
  160MOL0     H21533   5.132   2.213   7.235  3.1958 -1.2060  0.0875
  160MOL0     H21534   4.880   2.133   7.315 -1.7553  1.8490  2.0207
  160MOL0     H21535   4.788   2.259   7.575 -0.5896  1.3487 -3.4434
  160MOL0     H21536   4.694   2.177   7.461 -0.1659  0.7247 -0.2384
  160MOL0     H21537   4.668   2.141   7.764 -0.6963 -0.1176 -0.1551
  160MOL0     H21538   4.594   2.023   7.656 -0.3837 -0.2308  1.4922
  160MOL0     H21539   4.447   2.227   7.571 -2.4845  1.5734  0.6549
  160MOL0     H21540   4.528   2.328   7.681 -2.1837 -0.3389  0.7005
  160MOL0     H21541   4.396   2.076   7.776  3.5089  0.1885 -1.9998
  160MOL0     H21542   4.456   2.211   7.868  3.6752 -0.3366 -1.2019
  160MOL0     H21543   4.209   2.223   7.686 -2.3458 -0.2380  2.0446
  160MOL0     H21544   4.224   2.196   7.860 -0.0508  1.3665  0.8256
  160MOL0     H21545   4.314   2.396   7.921  0.0375 -1.7524  0.5135
  160MOL0     H21546   4.337   2.456   7.763  2.1513 -2.3377 -0.5254
  160MOL0     H21547   4.091   2.527   7.898 -1.4366 -0.7023 -0.1578
  160MOL0     H21548   4.060   2.351   7.870 -0.2621 -0.4866 -0.9379
  160MOL0     H21549   4.064   2.406   7.617 -0.2331 -0.3938  1.9492
  160MOL0     H21550   3.960   2.509   7.698 -0.6296 -3.4245  0.5070
  160MOL0     H21551   4.078   2.774   7.773  1.2603  2.5077 -2.3386
  160MOL0     H21552   4.284   2.987   7.539 -1.8293  2.6238 -0.6488
  160MOL0     H21553   4.119   2.987   7.561  0.8501  2.3815  0.1162
  160MOL0     H21554   4.213   3.122   7.724  0.4595 -0.0095 -1.5084
  160MOL0     H21555   4.166   2.983   7.825  1.0063 -1.9856  0.3952
  160MOL0     H21556   4.443   3.060   7.714  1.6312  0.6031  2.9034
  160MOL0     H21557   4.411   2.899   7.779 -0.5259  0.2131  1.1041
  160MOL0     H21558   4.323   2.987   7.993 -3.1819  2.2682 -0.7384
  160MOL0     H21559   4.354   3.147   7.928 -2.2318 -0.4448 -1.6130
  160MOL0     H21560   4.767   3.052   8.093  4.2832  2.4347  4.5331
  160MOL0     H21561   4.821   3.119   8.311  1.3622 -0.6983 -1.7740
  160MOL0     H21562   4.971   3.388   8.484 -2.4383 -0.9344 -1.0229
  160MOL0     H21563   5.102   3.496   8.655  0.0084  0.3764  2.7256
  160MOL0     H21564   4.972   3.531   9.083 -0.1682  1.5197 -2.9261
  160MOL0     H21565   5.023   3.362   9.052  0.9831 -0.0903 -1.4646
  160MOL0     H21566   5.241   3.573   9.076 -1.2206 -0.0135 -1.3308
  160MOL0     H21567   5.156   3.531   9.213  3.6887 -0.8417  2.0580
  160MOL0     H21568   5.360   3.423   9.205 -0.0836 -1.0912 -0.3935
  160MOL0     H21569   5.237   3.305   9.215  2.1720 -2.1904 -0.4141
  160MOL0     H21570   5.358   3.390   8.932  0.3667  0.2343 -1.4424
  160MOL0     H21571   5.269   3.243   8.972 -0.8679  0.3031  0.2437
  160MOL0     H21572   5.536   3.297   9.097  0.7750  0.9877 -0.7284
  160MOL0     H21573   5.525   3.230   8.941  0.0889 -1.8450 -0.0631
  160MOL0     H21574   5.398   3.082   9.186  0.6931 -0.8145  0.3715
  160MOL0     H21575   5.373   3.059   9.004  1.4137  1.6719 -0.6767
  160MOL0     H21576   5.646   3.076   9.130 -2.2375  1.3494 -0.4650
  160MOL0     H21577   5.606   3.021   8.970  1.3024  0.0200 -0.4592
  160MOL0     H21578   5.569   2.871   9.225 -0.9971 -0.5904  1.4335
  160MOL0     H21579   5.455   2.835   9.099 -0.8713 -1.3896  1.1985
  160MOL0     H21580   4.850   3.327   8.957  1.7639 -1.7564 -1.0469
  160MOL0     H21581   4.708   3.229   8.792  1.6604 -3.2938  1.4099
  160MOL0     H21582   4.420   3.221   8.400 -1.4239 -4.6176  0.7239
  160MOL0     H21583   4.346   3.153   8.175  0.0767  3.1332  1.3785
  160MOL0     H21584   5.051   2.081   7.700  2.1070  1.0024 -1.2017
  160MOL0     H21585   5.273   2.134   7.620  0.1547 -1.2447  1.8616
  160MOL0     H21586   5.548   2.170   7.368 -2.3268  2.1449 -0.1936
  160MOL0     H21587   5.796   2.199   7.309  0.8674  0.1532  0.1604
  160MOL0     H21588   6.002   2.196   7.363  1.5449 -1.6188 -0.1777
  160MOL0     H21589   6.037   2.210   7.542 -1.1194  0.7193 -0.3161
  160MOL0     H21590   6.239   2.210   7.457  0.6592 -1.1196 -0.6086
  160MOL0     H21591   6.224   2.378   7.482  4.6446 -1.5282 -2.0926
  160MOL0     H21592   6.136   2.404   7.237 -0.6212 -0.1130  2.1364
  160MOL0     H21593   6.158   2.233   7.211 -0.7250 -1.0746  2.0527
  160MOL0     H21594   6.397   2.242   7.247  0.4214  0.9066  0.7052
  160MOL0     H21595   6.355   2.363   7.119  4.2779 -0.1674 -0.5065
  160MOL0     H21596   6.547   2.562   7.442  1.4715 -1.3131 -1.3296
  160MOL0     H21597   5.817   2.562   7.519 -0.7310  0.0828  1.0500
  160MOL0     H21598   5.467   2.640   7.496 -4.8554 -2.6563  1.6777
  160MOL0     H21599   5.521   2.578   7.663  2.3244 -2.4315  0.4871
  160MOL0     H21600   5.623   2.679   7.567 -0.1720 -0.3859 -3.2572
  161MOL0     O21601   9.372   8.944   3.006 -0.0400  0.0930  0.6158
  161MOL0     C21602   9.491   8.937   3.027 -0.5351 -0.6870 -1.0747
  161MOL0     O21603   9.583   8.854   2.964 -0.1768  0.4426  0.2856
  161MOL0     C21604   9.516   8.742   2.923  0.0644  1.1670  1.1587
  161MOL0     C21605   9.482   8.709   2.790 -0.5079 -0.3178 -0.6429
  161MOL0     C21606   9.420   8.586   2.746 -0.2284  1.0951  0.1054
  161MOL0     C21607   9.392   8.489   2.843  0.3088 -0.8074 -1.0437
  161MOL0     O21608   9.309   8.379   2.830 -0.5761 -0.1176 -0.6181
  161MOL0     C21609   9.265   8.352   2.694 -0.0937  0.9941 -0.6123
  161MOL0     C21610   9.211   8.207   2.689  0.1032  0.3023  0.5537
  161MOL0     C21611   9.067   8.200   2.728  0.1827  0.5702 -0.4797
  161MOL0     C21612   9.028   8.053   2.708  0.0628  0.2456  0.2894
  161MOL0     C21613   8.874   8.037   2.700  0.4700  0.1001  0.0688
  161MOL0     C21614   8.823   7.902   2.651 -0.0424 -0.4439  0.1823
  161MOL0     C21615   8.887   7.779   2.703  0.0940 -0.1464 -0.0262
  161MOL0     C21616   8.798   7.655   2.687 -0.0971  0.1556 -0.4635
  161MOL0     N21617   8.781   7.626   2.544 -0.4261 -0.8657 -0.6893
  161MOL0     C21618   8.872   7.564   2.461 -0.3738 -0.5810 -0.3940
  161MOL0     C21619   8.812   7.577   2.337  1.1791 -0.7108  0.2653
  161MOL0     C21620   8.866   7.524   2.212  0.0590  0.0863  0.3498
  161MOL0     C21621   8.937   7.637   2.115 -0.6298  0.2063  1.4424
  161MOL0     C21622   8.815   7.711   2.046 -0.4004 -0.0941  0.5306
  161MOL0     C21623   8.842   7.861   2.037  0.7966 -0.2558  0.5651
  161MOL0     O21624   8.728   7.921   1.968  0.3980  0.1138  0.7992
  161MOL0     C21625   8.608   7.928   2.040  0.2228 -0.1297  0.8793
  161MOL0     C21626   8.500   7.960   1.957 -0.2683 -0.3753  0.0476
  161MOL0     C21627   8.375   7.976   2.011  0.2670  0.0563  0.2584
  161MOL0     C21628   8.349   7.951   2.147 -0.4566  0.2655  0.1928
  161MOL0     C21629   8.218   7.984   2.207 -0.2760 -0.0899 -0.3786
  161MOL0     O21630   8.212   7.973   2.348 -0.0886  0.1525 -0.0617
  161MOL0     C21631   8.116   8.045   2.416  0.4493  0.1058  1.5373
  161MOL0     C21632   8.065   8.168   2.364 -0.6847 -0.1867 -1.1808
  161MOL0     C21633   7.943   8.216   2.408  1.2565  0.0749  0.8546
  161MOL0     C21634   7.885   8.159   2.518  0.9647  0.3233 -0.2740
  161MOL0     O21635   7.766   8.223   2.561  0.0194  0.0261 -0.8879
  161MOL0     C21636   7.683   8.153   2.656  0.1041 -0.2426  0.3198
  161MOL0     C21637   7.573   8.243   2.694 -0.8222  1.0631 -0.3750
  161MOL0     C21638   7.456   8.225   2.602 -0.2121 -0.2235  0.7615
  161MOL0     C21639   7.332   8.303   2.623 -0.5886 -0.0519 -0.3107
  161MOL0     C21640   7.225   8.262   2.515  0.5192  0.6724  0.6435
  161MOL0     C21641   7.269   8.326   2.382  0.2492  0.2000 -0.9137
  161MOL0     C21642   7.167   8.290   2.268  0.1055 -0.0853 -0.0792
  161MOL0     C21643   7.220   8.325   2.129  0.3582 -0.0993  0.3227
  161MOL0    Cl21644   7.082   8.319   2.016 -0.1481 -0.3803 -0.0004
  161MOL0     C21645   7.934   8.043   2.571 -0.1213  0.9512  0.2961
  161MOL0     C21646   8.051   7.982   2.523 -0.8341  0.1182 -1.0654
  161MOL0     O21647   8.126   8.014   2.135 -0.0317 -0.5061  0.1635
  161MOL0     C21648   8.453   7.905   2.226 -0.4338  1.0693 -0.9410
  161MOL0     C21649   8.587   7.893   2.175 -0.5417  0.5632 -0.1929
  161MOL0     N21650   8.687   7.634   2.353  0.5252 -0.5833 -0.0141
  161MOL0     N21651   8.666   7.670   2.474  0.7134  0.5016 -0.1433
  161MOL0     C21652   9.420   8.517   2.979 -0.4795 -0.6764  0.0029
  161MOL0     C21653   9.486   8.643   3.019 -0.2124  0.6359  0.4770
  161MOL0     C21654   9.561   9.020   3.129  1.8454 -0.6424  0.6261
  161MOL0     C21655   9.628   8.950   3.239  0.2582 -0.6822 -0.1514
  161MOL0     C21656   9.686   9.017   3.344  0.1294 -0.4472 -0.2629
  161MOL0     C21657   9.681   9.165   3.349  0.1389 -0.0476 -0.1157
  161MOL0     O21658   9.717   9.245   3.455  0.4977 -0.2183  0.0992
  161MOL0     C21659   9.788   9.184   3.563  0.4062 -0.0821  0.3775
  161MOL0     C21660   9.820   9.300   3.662  0.0006  0.2102 -0.1662
  161MOL0     C21661   9.698   9.356   3.728 -0.2427 -0.8410 -0.5478
  161MOL0     C21662   9.699   9.473   3.828 -0.2408  0.0004 -0.3375
  161MOL0     C21663   9.748   9.604   3.781  0.8080 -0.4515  0.5388
  161MOL0     C21664   9.801   9.702   3.727 -0.0337  0.3847 -0.7617
  161MOL0     C21665   9.619   9.229   3.241  0.3848  0.0793 -0.0036
  161MOL0     C21666   9.553   9.156   3.141 -0.4342 -0.8001  0.0113
  161MOL0     C21667   9.498   9.254   3.034  0.3266  0.2547 -0.0479
  161MOL0     H21668   9.524   8.780   2.719 -0.9591  2.9801  2.1667
  161MOL0     H21669   9.381   8.562   2.647 -1.3981 -2.0249  1.2080
  161MOL0     H21670   9.179   8.408   2.657 -1.4855 -0.9056 -0.4419
  161MOL0     H21671   9.352   8.353   2.628 -0.5728 -1.3081 -1.3695
  161MOL0     H21672   9.274   8.147   2.756  1.6416  1.2471 -0.0074
  161MOL0     H21673   9.212   8.182   2.583  2.0579 -0.6676  0.7589
  161MOL0     H21674   9.003   8.258   2.659 -0.1830 -2.0372 -2.4751
  161MOL0     H21675   9.060   8.226   2.834  1.2545  0.5894 -0.4039
  161MOL0     H21676   9.071   8.026   2.612  2.0849  0.7197  1.0274
  161MOL0     H21677   9.079   7.986   2.778  0.7454 -1.3935 -1.6776
  161MOL0     H21678   8.838   8.048   2.802 -0.1836  1.0613 -0.2488
  161MOL0     H21679   8.835   8.119   2.639  1.5513  1.0972  0.6624
  161MOL0     H21680   8.716   7.905   2.675  0.2332  2.5861  1.4253
  161MOL0     H21681   8.827   7.910   2.542  0.6378  0.0241  0.2362
  161MOL0     H21682   8.916   7.781   2.808  1.6253 -1.0661 -0.3936
  161MOL0     H21683   8.980   7.762   2.647  2.0658  2.1294  2.3173
  161MOL0     H21684   8.848   7.568   2.732 -3.2964 -0.5193  2.1896
  161MOL0     H21685   8.695   7.656   2.724 -0.1735 -2.1662 -0.4742
  161MOL0     H21686   8.973   7.527   2.468  0.6258  2.0817  0.2817
  161MOL0     H21687   8.951   7.461   2.240 -0.1597 -0.5195 -0.2904
  161MOL0     H21688   8.793   7.470   2.149 -0.6158  2.0906 -0.6766
  161MOL0     H21689   9.006   7.697   2.176  1.8451 -1.9766  0.9743
  161MOL0     H21690   9.004   7.598   2.038 -2.9210  2.3718 -1.9506
  161MOL0     H21691   8.719   7.683   2.092  0.8280 -3.9832  1.1023
  161MOL0     H21692   8.812   7.679   1.942 -0.2625  1.8618 -0.1171
  161MOL0     H21693   8.933   7.877   1.978 -1.1511 -0.3394 -2.7174
  161MOL0     H21694   8.861   7.901   2.137  1.7186 -0.1669  0.3691
  161MOL0     H21695   8.536   7.971   1.855 -0.3811 -2.3264 -0.2445
  161MOL0     H21696   8.312   8.017   1.932  3.5086 -1.2088 -3.2808
  161MOL0     H21697   8.122   8.206   2.279  0.3479  2.2933  0.4751
  161MOL0     H21698   7.886   8.289   2.352 -0.1832 -2.0190 -0.5749
  161MOL0     H21699   7.647   8.057   2.618  2.2871 -1.4639  1.1656
  161MOL0     H21700   7.749   8.136   2.741  1.2722  1.4240 -0.1925
  161MOL0     H21701   7.543   8.212   2.794 -1.4552 -1.4467 -1.2578
  161MOL0     H21702   7.601   8.348   2.706  0.5222  0.5434  1.5078
  161MOL0     H21703   7.490   8.235   2.498 -1.7182 -4.8747 -0.4546
  161MOL0     H21704   7.421   8.121   2.596 -1.9217  0.3042  1.1334
  161MOL0     H21705   7.348   8.411   2.617 -2.3159  0.1224 -3.1451
  161MOL0     H21706   7.305   8.294   2.729 -0.3112  2.9661  0.1253
  161MOL0     H21707   7.125   8.295   2.543  0.5680  0.3024  1.2588
  161MOL0     H21708   7.217   8.153   2.510 -2.3358  0.8229 -0.2099
  161MOL0     H21709   7.265   8.435   2.390  0.1428  0.2383 -1.4291
  161MOL0     H21710   7.368   8.293   2.350  0.4040 -2.3886  1.8444
  161MOL0     H21711   7.073   8.345   2.280 -0.6823 -0.9297 -1.9393
  161MOL0     H21712   7.145   8.183   2.274  1.4909 -0.5327 -1.9350
  161MOL0     H21713   7.257   8.428   2.130  0.4770 -0.1233  2.2935
  161MOL0     H21714   7.297   8.258   2.089  1.5123  0.3059  1.7905
  161MOL0     H21715   7.887   7.998   2.658 -3.8611  0.2219 -1.8782
  161MOL0     H21716   8.099   7.895   2.566 -1.5937  0.5619  0.7428
  161MOL0     H21717   8.435   7.879   2.330 -1.0729  0.0374 -1.2891
  161MOL0     H21718   8.654   7.851   2.250 -0.4408  2.0537  0.6024
  161MOL0     H21719   9.404   8.437   3.052  1.5958  0.2710  1.5994
  161MOL0     H21720   9.509   8.655   3.124  1.6953  0.2996  0.1288
  161MOL0     H21721   9.607   8.844   3.252 -2.9321 -0.0956  0.4379
  161MOL0     H21722   9.735   8.960   3.423 -2.7373  1.3425  3.0970
  161MOL0     H21723   9.889   9.150   3.540  1.0987  2.2221 -0.2569
  161MOL0     H21724   9.733   9.098   3.602  0.3099 -0.5591 -0.7983
  161MOL0     H21725   9.869   9.374   3.598  2.9890 -1.9804 -0.6425
  161MOL0     H21726   9.898   9.280   3.736 -0.3187  2.0544  0.7370
  161MOL0     H21727   9.637   9.278   3.775 -0.7054 -1.8354 -2.7082
  161MOL0     H21728   9.635   9.392   3.647  0.5685 -0.9541 -1.2358
  161MOL0     H21729   9.605   9.482   3.882 -1.3568 -2.5613 -1.7066
  161MOL0     H21730   9.772   9.442   3.904 -1.5322 -1.4377  0.3643
  161MOL0     H21731   9.830   9.795   3.682  0.4922 -0.0968 -1.4166
  161MOL0     H21732   9.615   9.337   3.228  2.4427 -0.1064 -3.7205
  161MOL0     H21733   9.413   9.305   3.079  1.0361 -0.2959  2.0108
  161MOL0     H21734   9.579   9.315   2.993  1.3000  1.5455  3.5065
  161MOL0     H21735   9.465   9.185   2.955  1.0273 -0.7772  0.5362
  162MOL0     O21736   4.342   8.976   1.596 -0.7694 -0.5582  0.3447
  162MOL0     C21737   4.392   9.050   1.515  0.7428  0.1714 -0.6583
  162MOL0     O21738   4.416   9.179   1.527  0.3848  0.0525 -0.2063
  162MOL0     C21739   4.341   9.247   1.627 -0.7777 -0.8244  0.2839
  162MOL0     C21740   4.384   9.253   1.762  0.1309  0.6500  0.9068
  162MOL0     C21741   4.303   9.315   1.851 -0.0010 -0.3804 -0.0172
  162MOL0     C21742   4.177   9.370   1.823 -0.0537  0.1438 -0.5293
  162MOL0     O21743   4.106   9.429   1.928  1.8636 -0.0262 -0.1357
  162MOL0     C21744   3.997   9.529   1.893  0.3794  0.1267  0.5676
  162MOL0     C21745   3.933   9.599   2.018 -0.1085  0.7759  1.1161
  162MOL0     C21746   3.839   9.699   1.959  0.3767  0.3442 -0.1739
  162MOL0     C21747   3.733   9.736   2.057 -0.6514 -0.3031 -0.2525
  162MOL0     C21748   3.602   9.667   2.016 -0.7694  0.6943  0.8991
  162MOL0     C21749   3.546   9.743   1.896  1.1121 -0.1048 -0.0602
  162MOL0     C21750   3.408   9.687   1.858 -0.5417  0.4584 -0.2250
  162MOL0     C21751   3.334   9.773   1.760  0.1233  0.6178 -0.2383
  162MOL0     N21752   3.421   9.801   1.639 -0.2854  0.7025  0.1286
  162MOL0     C21753   3.430   9.734   1.524  0.4107 -0.0129 -0.7297
  162MOL0     C21754   3.497   9.812   1.440  0.4195  0.3072  0.0384
  162MOL0     C21755   3.543   9.774   1.306  0.5536 -0.5016  0.8479
  162MOL0     C21756   3.574   9.627   1.277 -0.4292 -0.7572  0.6682
  162MOL0     C21757   3.602   9.601   1.136 -0.1102  0.1753  0.5658
  162MOL0     C21758   3.659   9.456   1.110  0.3022  0.6144 -1.2234
  162MOL0     O21759   3.554   9.371   1.072 -0.3546  0.2290  0.1603
  162MOL0     C21760   3.598   9.253   1.035 -0.7801  0.3132  0.5531
  162MOL0     C21761   3.726   9.202   1.007  0.5129  0.7515 -0.2415
  162MOL0     C21762   3.749   9.063   0.991 -0.6895 -0.2428  0.7780
  162MOL0     C21763   3.636   8.987   0.952  0.6068  0.5687  0.4038
  162MOL0     C21764   3.650   8.845   0.910 -0.2650  0.1305  1.0004
  162MOL0     O21765   3.536   8.768   0.894  0.0145 -0.2346  0.2480
  162MOL0     C21766   3.550   8.638   0.872  0.3670  0.0668 -0.3148
  162MOL0     C21767   3.501   8.578   0.751 -0.6595  0.2092 -0.9094
  162MOL0     C21768   3.530   8.447   0.723  0.4051 -0.2399  0.4128
  162MOL0     C21769   3.603   8.367   0.820 -0.4070  1.2396  0.5594
  162MOL0     O21770   3.656   8.246   0.767  0.2900  0.3344 -0.1231
  162MOL0     C21771   3.740   8.172   0.853  0.4345 -0.1413  0.0912
  162MOL0     C21772   3.749   8.029   0.791  0.9909 -0.6897 -0.9400
  162MOL0     C21773   3.787   8.023   0.643 -0.5147 -0.4875  1.1029
  162MOL0     C21774   3.941   8.044   0.631  1.0732  0.6876  0.9373
  162MOL0     C21775   3.982   8.052   0.479  0.3782  0.6679  0.1612
  162MOL0     C21776   4.132   8.075   0.462 -1.1017 -0.1144  0.7704
  162MOL0     C21777   4.171   8.099   0.317  0.3723 -0.1974  0.9827
  162MOL0     C21778   4.324   8.069   0.310 -0.4090 -0.1755 -1.1324
  162MOL0    Cl21779   4.385   7.896   0.348 -0.0284  0.5034  0.0073
  162MOL0     C21780   3.643   8.432   0.940  0.7320 -0.5328 -0.4291
  162MOL0     C21781   3.617   8.566   0.971  0.2227  0.1589 -0.1974
  162MOL0     O21782   3.764   8.796   0.917 -0.4744 -0.2467 -0.0456
  162MOL0     C21783   3.503   9.039   0.963 -0.3529 -0.3116 -0.6937
  162MOL0     C21784   3.487   9.168   1.003 -0.0529  0.6084 -0.8243
  162MOL0     N21785   3.546   9.922   1.510  0.0744 -0.3065 -1.3253
  162MOL0     N21786   3.488   9.918   1.631 -0.0859 -0.3694 -0.2338
  162MOL0     C21787   4.141   9.373   1.686  0.2232 -0.4669 -0.8823
  162MOL0     C21788   4.220   9.301   1.597  0.3031  0.7590  0.4838
  162MOL0     C21789   4.428   9.000   1.379 -0.0916 -0.5176 -0.4396
  162MOL0     C21790   4.467   9.081   1.275 -0.0372 -0.6695  0.7939
  162MOL0     C21791   4.517   9.036   1.147  0.0068 -0.7996 -0.0282
  162MOL0     C21792   4.516   8.898   1.108  0.3611 -0.6401 -0.4710
  162MOL0     O21793   4.534   8.844   0.985  0.8796  0.7227  0.2546
  162MOL0     C21794   4.485   8.920   0.872  0.6195 -0.0875  0.1770
  162MOL0     C21795   4.501   8.850   0.739  0.6159 -0.2363  0.2043
  162MOL0     C21796   4.651   8.858   0.708 -0.8441  0.6609  0.7893
  162MOL0     C21797   4.707   8.734   0.631  0.0231  0.6269  0.1482
  162MOL0     C21798   4.636   8.718   0.508  0.1260 -0.4240 -0.0621
  162MOL0     C21799   4.582   8.707   0.405  0.4727  0.0648  1.0626
  162MOL0     C21800   4.474   8.816   1.217 -0.1791  0.4466  0.8592
  162MOL0     C21801   4.436   8.854   1.341  1.2118 -0.3629 -0.5907
  162MOL0     C21802   4.401   8.750   1.449  0.5851  0.0753 -0.1962
  162MOL0     H21803   4.483   9.218   1.789  0.4840  1.1311  0.2699
  162MOL0     H21804   4.327   9.318   1.957  0.5383 -0.5047 -0.1339
  162MOL0     H21805   4.038   9.596   1.817  3.6500  0.1759  2.2149
  162MOL0     H21806   3.918   9.475   1.840  0.4780  2.9963 -2.8804
  162MOL0     H21807   4.024   9.632   2.069  1.5395  2.1424 -2.4011
  162MOL0     H21808   3.881   9.530   2.085 -1.8795  2.2447  1.3445
  162MOL0     H21809   3.797   9.665   1.864  1.0093  2.7449 -1.3811
  162MOL0     H21810   3.878   9.796   1.926 -1.2406  2.0712  2.5593
  162MOL0     H21811   3.764   9.701   2.155 -2.0005 -0.9223 -0.0213
  162MOL0     H21812   3.723   9.845   2.056  1.9792  0.0215  0.3706
  162MOL0     H21813   3.622   9.564   1.987 -2.2167  0.7661 -0.5140
  162MOL0     H21814   3.543   9.649   2.106  2.8797 -1.5622  3.0580
  162MOL0     H21815   3.527   9.848   1.918  2.2249 -0.4817  3.1834
  162MOL0     H21816   3.604   9.732   1.803 -1.4400 -1.5435 -1.5992
  162MOL0     H21817   3.342   9.677   1.945  1.5502  0.7145  1.4820
  162MOL0     H21818   3.420   9.589   1.809  0.0690  2.7352 -5.2541
  162MOL0     H21819   3.240   9.721   1.736  1.5344 -2.2955  0.1911
  162MOL0     H21820   3.312   9.871   1.805  2.0488  1.7777 -1.6504
  162MOL0     H21821   3.386   9.636   1.505  2.1757 -0.4082 -3.2354
  162MOL0     H21822   3.466   9.813   1.239  1.7077  0.0886 -0.1849
  162MOL0     H21823   3.635   9.830   1.285 -0.8765  0.9186 -2.2812
  162MOL0     H21824   3.657   9.602   1.344 -2.4152 -0.1984  3.5399
  162MOL0     H21825   3.486   9.572   1.312 -0.4726  0.0807  2.0008
  162MOL0     H21826   3.687   9.660   1.100  0.7302 -2.5138 -2.2356
  162MOL0     H21827   3.509   9.620   1.082 -0.9766  2.4804  2.6498
  162MOL0     H21828   3.717   9.418   1.194 -1.1575  0.3257 -0.3221
  162MOL0     H21829   3.724   9.464   1.022  1.5554  0.3355 -0.3397
  162MOL0     H21830   3.811   9.270   1.012  1.1854 -0.1329  0.9343
  162MOL0     H21831   3.852   9.029   0.980 -1.7294 -3.3632 -0.2614
  162MOL0     H21832   3.436   8.638   0.688  0.6269  1.4225 -1.1449
  162MOL0     H21833   3.497   8.406   0.629  1.0978  1.6470 -0.7051
  162MOL0     H21834   3.842   8.210   0.863  0.0949  0.7386  0.3641
  162MOL0     H21835   3.700   8.164   0.955  0.2913 -2.7865 -0.1065
  162MOL0     H21836   3.834   7.976   0.834  2.1823  0.5980 -1.6465
  162MOL0     H21837   3.663   7.971   0.825  1.6599 -1.7016 -0.9496
  162MOL0     H21838   3.754   7.930   0.596 -0.6717 -0.5181  1.2718
  162MOL0     H21839   3.731   8.092   0.578 -0.6771 -1.4056  0.2452
  162MOL0     H21840   3.998   7.964   0.678  3.4947  1.1567 -0.9890
  162MOL0     H21841   3.980   8.134   0.680 -0.5691  1.9232  0.0881
  162MOL0     H21842   3.923   8.125   0.423 -0.6301 -1.3148 -1.5034
  162MOL0     H21843   3.958   7.956   0.432 -0.0995  0.1148  1.4878
  162MOL0     H21844   4.150   8.170   0.513 -1.2031  0.1637  0.2971
  162MOL0     H21845   4.193   8.003   0.517  1.8316  0.5301 -1.3662
  162MOL0     H21846   4.157   8.202   0.283  3.2895 -0.6416 -2.0997
  162MOL0     H21847   4.111   8.036   0.251 -1.9988  0.8706  1.9989
  162MOL0     H21848   4.350   8.097   0.207  0.8392 -0.2501 -0.8575
  162MOL0     H21849   4.385   8.132   0.375 -0.1983 -0.9874 -0.5193
  162MOL0     H21850   3.714   8.381   1.004 -2.1879 -2.4864  1.5238
  162MOL0     H21851   3.655   8.621   1.056 -1.3202 -0.9859  1.3198
  162MOL0     H21852   3.413   8.979   0.950  1.5187 -3.0847 -1.6652
  162MOL0     H21853   3.384   9.201   1.006 -0.7333 -1.2038 -2.3500
  162MOL0     H21854   4.046   9.414   1.653 -0.7589 -0.8674  1.2365
  162MOL0     H21855   4.173   9.294   1.499  0.0573  0.4407  0.6255
  162MOL0     H21856   4.463   9.189   1.288 -0.4696 -0.5955  0.1277
  162MOL0     H21857   4.553   9.115   1.082 -2.1682 -0.7157 -1.2247
  162MOL0     H21858   4.526   9.021   0.866 -3.1160  1.4989 -2.7305
  162MOL0     H21859   4.377   8.932   0.888  0.5028 -1.0341  0.1742
  162MOL0     H21860   4.450   8.902   0.658  2.3579  0.0630 -0.7423
  162MOL0     H21861   4.459   8.749   0.741 -0.1871  0.1020  1.2183
  162MOL0     H21862   4.712   8.872   0.798  0.7388 -0.5749 -0.0422
  162MOL0     H21863   4.651   8.952   0.652  0.4003  0.9184  1.1864
  162MOL0     H21864   4.814   8.757   0.626 -0.5179  3.2759 -0.9852
  162MOL0     H21865   4.696   8.645   0.694  2.0814 -1.0145 -1.6708
  162MOL0     H21866   4.539   8.687   0.309  1.5185  2.3465  0.0404
  162MOL0     H21867   4.479   8.708   1.203  0.7071  0.5679  0.1624
  162MOL0     H21868   4.410   8.649   1.409 -1.1363  0.4666 -1.6834
  162MOL0     H21869   4.454   8.768   1.543  0.7905 -0.6244 -0.1723
  162MOL0     H21870   4.296   8.751   1.479  0.4656 -1.2784 -0.4972
  163MOL0     O21871   7.021   7.768   1.695 -0.1259 -0.2842  0.9772
  163MOL0     C21872   6.997   7.782   1.571  0.5734  1.4707  0.5468
  163MOL0     O21873   7.016   7.692   1.469 -0.2908 -0.1843  0.5346
  163MOL0     C21874   7.056   7.572   1.509  0.0662 -0.1734  0.1518
  163MOL0     C21875   6.954   7.471   1.523 -0.1357  0.1887 -0.5893
  163MOL0     C21876   6.972   7.335   1.546  0.0779  0.0769 -0.0992
  163MOL0     C21877   7.104   7.291   1.566 -0.9420 -0.2324  0.4336
  163MOL0     O21878   7.149   7.163   1.586 -0.6699 -0.2057  0.4211
  163MOL0     C21879   7.052   7.057   1.593 -0.7120  0.6772  0.3338
  163MOL0     C21880   7.137   6.927   1.614 -0.4302  0.2740  0.5590
  163MOL0     C21881   7.023   6.823   1.647  0.1433  1.1439 -0.0680
  163MOL0     C21882   6.932   6.792   1.533  0.9659 -0.3402  1.2521
  163MOL0     C21883   6.842   6.677   1.581 -0.0706  1.0301 -0.2474
  163MOL0     C21884   6.772   6.609   1.451  0.2783  0.1939  0.3003
  163MOL0     C21885   6.852   6.500   1.394 -0.0697  0.1427  0.4478
  163MOL0     C21886   6.774   6.441   1.277  0.0616  0.0880 -0.5795
  163MOL0     N21887   6.847   6.343   1.196 -0.4936 -0.3127 -0.1262
  163MOL0     C21888   6.963   6.284   1.235 -0.3526 -0.3339  0.5813
  163MOL0     C21889   6.995   6.192   1.140 -0.1252 -0.8722 -0.2206
  163MOL0     C21890   7.129   6.123   1.141 -0.9267 -1.1478  0.2729
  163MOL0     C21891   7.242   6.212   1.094  0.4316 -0.6967 -0.4499
  163MOL0     C21892   7.216   6.272   0.956 -0.3188 -0.2244  0.6023
  163MOL0     C21893   7.323   6.386   0.928  0.1945  0.2450 -0.4006
  163MOL0     O21894   7.439   6.324   0.901 -0.0630 -0.4919  0.0528
  163MOL0     C21895   7.451   6.274   0.773  0.3723  0.0768  0.1528
  163MOL0     C21896   7.406   6.329   0.651  0.1120 -0.0250  0.1492
  163MOL0     C21897   7.431   6.266   0.530 -0.2293  0.1637 -0.4267
  163MOL0     C21898   7.510   6.146   0.518  0.2146 -0.4029  0.3348
  163MOL0     C21899   7.547   6.090   0.390  0.0974 -0.0209  0.1832
  163MOL0     O21900   7.592   5.957   0.389  0.5026 -0.0289  0.2331
  163MOL0     C21901   7.683   5.931   0.288  0.8399  0.7385 -0.0250
  163MOL0     C21902   7.775   6.022   0.237  0.5722  0.4505 -0.5826
  163MOL0     C21903   7.857   5.995   0.130  1.0381 -0.0242 -0.4201
  163MOL0     C21904   7.844   5.864   0.068 -0.6902 -0.1444  1.3977
  163MOL0     O21905   7.917   5.832  -0.041  0.2502 -0.4079 -0.2502
  163MOL0     C21906   8.060   5.874  -0.038 -0.0933  0.3861  0.4726
  163MOL0     C21907   8.154   5.785   0.041  0.1462 -0.7450 -0.2336
  163MOL0     C21908   8.149   5.643   0.012 -1.2223 -0.4545 -1.2569
  163MOL0     C21909   8.130   5.615  -0.140 -0.1028 -0.0661  0.5714
  163MOL0     C21910   8.156   5.467  -0.164  0.2507  1.1072 -0.0721
  163MOL0     C21911   8.105   5.369  -0.076 -0.7822 -0.2748 -1.5830
  163MOL0     C21912   8.101   5.221  -0.127 -0.0412 -0.0364 -0.9079
  163MOL0     C21913   8.078   5.110  -0.021 -0.9041 -0.1646 -1.0515
  163MOL0    Cl21914   8.211   5.097   0.085  0.0900 -0.1178  0.5966
  163MOL0     C21915   7.753   5.763   0.116 -0.2960  0.6865  0.1611
  163MOL0     C21916   7.675   5.803   0.225 -0.7315  0.3507 -0.5033
  163MOL0     O21917   7.541   6.163   0.290 -0.4518 -0.8850 -1.1964
  163MOL0     C21918   7.551   6.093   0.641  0.7931 -0.2507 -0.1084
  163MOL0     C21919   7.514   6.152   0.760 -1.1776 -1.3929 -0.5796
  163MOL0     N21920   6.889   6.194   1.046 -0.9049  0.1818  0.1108
  163MOL0     N21921   6.805   6.277   1.088  0.1564  0.3165 -0.4638
  163MOL0     C21922   7.204   7.387   1.569 -0.3146  0.1493  0.7465
  163MOL0     C21923   7.181   7.521   1.531  0.6055 -0.6080 -0.1197
  163MOL0     C21924   6.949   7.913   1.510 -0.5844 -0.0372 -1.3524
  163MOL0     C21925   6.964   7.940   1.369 -0.2386  0.4673  0.0750
  163MOL0     C21926   6.919   8.053   1.301 -0.1123 -0.0427  0.3363
  163MOL0     C21927   6.840   8.142   1.371 -0.6102 -0.0881 -0.3139
  163MOL0     O21928   6.790   8.253   1.311  0.2067  0.7370 -0.1555
  163MOL0     C21929   6.709   8.238   1.193 -0.5627  0.4000 -0.2268
  163MOL0     C21930   6.612   8.119   1.178 -1.2622  0.5072 -0.0279
  163MOL0     C21931   6.508   8.117   1.300 -0.8602  0.1497 -0.2790
  163MOL0     C21932   6.458   8.253   1.358  0.3395  0.1645 -0.5455
  163MOL0     C21933   6.362   8.311   1.255 -0.0246 -0.2109  0.4456
  163MOL0     C21934   6.295   8.348   1.160  0.3022  0.1750 -0.5819
  163MOL0     C21935   6.818   8.117   1.510 -0.6212 -0.3448  0.4382
  163MOL0     C21936   6.886   8.014   1.580 -0.4914  1.2034 -0.2167
  163MOL0     C21937   6.856   8.013   1.724  0.0818  0.2893  0.7044
  163MOL0     H21938   6.852   7.508   1.515  0.1101  0.7514 -1.1897
  163MOL0     H21939   6.885   7.270   1.545 -3.0627  3.8848  0.8581
  163MOL0     H21940   6.991   7.076   1.682  1.9705  2.0064  2.0497
  163MOL0     H21941   6.997   7.052   1.499 -1.3870  1.3854  0.6828
  163MOL0     H21942   7.199   6.946   1.702 -3.3886 -3.1330  3.7560
  163MOL0     H21943   7.192   6.903   1.523 -2.1430 -0.8123 -0.2426
  163MOL0     H21944   6.965   6.855   1.734 -2.4858 -1.4821 -0.7240
  163MOL0     H21945   7.068   6.725   1.665 -3.2849 -1.0963 -2.4747
  163MOL0     H21946   6.859   6.866   1.499  0.0653 -1.7316 -0.0211
  163MOL0     H21947   6.985   6.768   1.441  0.5245  5.1370 -0.8099
  163MOL0     H21948   6.899   6.593   1.620  0.5273  1.1859 -0.7712
  163MOL0     H21949   6.770   6.714   1.655 -2.5882 -2.6582 -0.5552
  163MOL0     H21950   6.673   6.570   1.475  0.3191  0.1813  0.4464
  163MOL0     H21951   6.758   6.684   1.373  0.7274 -0.0562 -0.0239
  163MOL0     H21952   6.885   6.424   1.466 -1.2636 -1.1334 -0.2934
  163MOL0     H21953   6.932   6.558   1.346 -2.6579  0.8239 -3.5557
  163MOL0     H21954   6.685   6.385   1.307  0.5937 -1.4941 -1.8050
  163MOL0     H21955   6.736   6.518   1.208 -0.3175 -0.7085 -1.2876
  163MOL0     H21956   7.020   6.297   1.326  2.1639 -0.7542 -0.8205
  163MOL0     H21957   7.158   6.091   1.241  1.4166 -1.8879 -0.5810
  163MOL0     H21958   7.113   6.043   1.069 -1.1130  0.9530 -2.1630
  163MOL0     H21959   7.263   6.290   1.168 -1.8181 -1.6486  1.3050
  163MOL0     H21960   7.329   6.150   1.070  1.1214  0.9609 -2.5356
  163MOL0     H21961   7.120   6.323   0.946  0.5296  0.9391 -3.9909
  163MOL0     H21962   7.200   6.191   0.883 -0.1598 -1.0802  1.4963
  163MOL0     H21963   7.346   6.437   1.022  0.9154  0.1052 -0.5013
  163MOL0     H21964   7.296   6.456   0.849 -0.4506 -3.2296 -3.5219
  163MOL0     H21965   7.344   6.418   0.649  0.4496  0.2721  1.6341
  163MOL0     H21966   7.387   6.311   0.441 -2.0356 -2.1873 -0.8391
  163MOL0     H21967   7.812   6.109   0.291  1.6601  0.5658 -1.4866
  163MOL0     H21968   7.915   6.072   0.080  1.2150 -1.3634 -2.4233
  163MOL0     H21969   8.074   5.871  -0.146 -0.8415 -1.1667  0.3877
  163MOL0     H21970   8.076   5.977  -0.004  0.1794 -0.1329  1.9968
  163MOL0     H21971   8.252   5.831   0.022  1.9743 -3.1257  2.4678
  163MOL0     H21972   8.121   5.804   0.144 -2.0618  0.2820 -1.0771
  163MOL0     H21973   8.243   5.596   0.041  1.0828  2.6460 -3.0469
  163MOL0     H21974   8.068   5.604   0.075 -2.8741  3.6823 -0.4817
  163MOL0     H21975   8.186   5.677  -0.210 -1.0351 -0.9778 -1.0713
  163MOL0     H21976   8.025   5.631  -0.165 -0.0830  0.6418  0.9449
  163MOL0     H21977   8.262   5.451  -0.187 -0.3221 -2.0042 -1.0981
  163MOL0     H21978   8.120   5.429  -0.260  2.7102  0.4525 -0.8192
  163MOL0     H21979   8.159   5.376   0.019  1.1944  1.0128 -2.7280
  163MOL0     H21980   8.006   5.407  -0.047  0.2330  2.0249 -0.8500
  163MOL0     H21981   8.195   5.200  -0.178  0.3334  1.0486 -0.6740
  163MOL0     H21982   8.023   5.209  -0.203  0.3082 -0.9374 -1.1404
  163MOL0     H21983   7.990   5.118   0.043  1.9210 -2.5586  3.6284
  163MOL0     H21984   8.083   5.018  -0.080 -0.5531 -1.5161  0.9899
  163MOL0     H21985   7.748   5.661   0.080 -0.7699  0.5470  0.5954
  163MOL0     H21986   7.607   5.729   0.266  1.2533 -1.3619 -0.1233
  163MOL0     H21987   7.599   5.996   0.651  3.2134  0.8234 -0.4854
  163MOL0     H21988   7.545   6.104   0.852 -0.4543 -1.3693 -0.8020
  163MOL0     H21989   7.308   7.365   1.586 -0.4392  2.0572  5.1402
  163MOL0     H21990   7.257   7.594   1.507  0.3025 -0.0358  0.6023
  163MOL0     H21991   7.014   7.876   1.297  1.1169  2.2801 -0.6608
  163MOL0     H21992   6.947   8.072   1.198  3.2062  0.3487  1.1679
  163MOL0     H21993   6.772   8.228   1.104 -3.1553  1.5721 -2.3131
  163MOL0     H21994   6.670   8.336   1.164  2.4235  1.3143 -1.6541
  163MOL0     H21995   6.666   8.024   1.182  2.5912  2.5439  2.3734
  163MOL0     H21996   6.562   8.143   1.084 -0.9230  3.2740  0.3990
  163MOL0     H21997   6.555   8.065   1.384  1.6157 -1.2951 -2.4081
  163MOL0     H21998   6.423   8.056   1.268 -0.7840 -0.0089 -0.1781
  163MOL0     H21999   6.414   8.253   1.458 -2.1309  0.4364 -1.5656
  163MOL0     H22000   6.536   8.330   1.355  1.1887 -0.7037 -1.4562
  163MOL0     H22001   6.222   8.374   1.086 -0.9295 -0.8435  0.2377
  163MOL0     H22002   6.756   8.193   1.556 -0.3359  1.3985 -1.8343
  163MOL0     H22003   6.816   8.113   1.737  1.7061  1.4007 -2.0709
  163MOL0     H22004   6.778   7.943   1.756 -0.9442  1.7680  1.5405
  163MOL0     H22005   6.945   7.995   1.785  1.2670  1.7915 -0.5275
  164MOL0     O22006   1.664   9.901   1.047 -0.6106 -0.2456  0.2265
  164MOL0     C22007   1.574   9.976   1.084 -0.3273 -0.9752 -0.3538
  164MOL0     O22008   1.439   9.959   1.056 -0.4648 -0.1255  0.5857
  164MOL0     C22009   1.397   9.930   0.921 -1.0192 -0.9415  0.0190
  164MOL0     C22010   1.300   9.830   0.892 -0.1525 -0.5431 -1.2878
  164MOL0     C22011   1.269   9.784   0.768 -1.0957 -0.8992  0.3195
  164MOL0     C22012   1.318   9.848   0.657 -0.2255 -0.9947  0.6704
  164MOL0     O22013   1.302   9.814   0.532 -0.2742  0.5090  0.1626
  164MOL0     C22014   1.298   9.676   0.515  0.4445  0.3857  0.0450
  164MOL0     C22015   1.374   9.614   0.395 -0.0417 -0.1780 -0.7989
  164MOL0     C22016   1.307   9.653   0.262 -0.8317 -0.2316  0.1079
  164MOL0     C22017   1.199   9.538   0.205 -0.3522  0.4726  0.2407
  164MOL0     C22018   1.258   9.408   0.163 -0.3790  0.1259  0.1338
  164MOL0     C22019   1.183   9.344   0.053 -1.1623 -1.2974  0.4805
  164MOL0     C22020   1.033   9.331   0.063 -0.2689 -0.6507 -0.5484
  164MOL0     C22021   0.974   9.231  -0.036 -0.3966  0.0114  0.1250
  164MOL0     N22022   0.954   9.321  -0.151  0.2064 -0.0085 -0.6440
  164MOL0     C22023   0.830   9.362  -0.188  0.0426  0.3538  0.0668
  164MOL0     C22024   0.844   9.439  -0.291  0.8771  0.3019  1.2756
  164MOL0     C22025   0.725   9.504  -0.356  0.2101 -0.2033 -0.4792
  164MOL0     C22026   0.694   9.651  -0.297 -0.3070 -0.3352 -0.1340
  164MOL0     C22027   0.659   9.632  -0.142 -0.6335 -0.9608  1.3312
  164MOL0     C22028   0.582   9.749  -0.090 -0.5181  0.1720 -0.7989
  164MOL0     O22029   0.452   9.759  -0.157 -0.8685 -0.1058  0.2367
  164MOL0     C22030   0.372   9.830  -0.065 -0.3503 -0.1767 -0.9368
  164MOL0     C22031   0.230   9.798  -0.061  0.2691 -0.2356  0.6796
  164MOL0     C22032   0.146   9.872   0.017  0.0769  0.1566  0.1619
  164MOL0     C22033   0.196   9.976   0.085  0.3692 -0.0926  0.1072
  164MOL0     C22034   0.091  10.047   0.169  1.1360  0.1467  0.0692
  164MOL0     O22035  -0.038   9.997   0.169 -0.4799 -0.6530 -0.3046
  164MOL0     C22036  -0.155  10.060   0.205 -0.6848 -0.0978  0.2956
  164MOL0     C22037  -0.257   9.976   0.251 -0.1122 -0.1003  0.0303
  164MOL0     C22038  -0.381  10.030   0.293 -0.2649  0.2370  1.1088
  164MOL0     C22039  -0.407  10.161   0.289 -0.5987 -0.4125  0.1163
  164MOL0     O22040  -0.529  10.215   0.327 -0.4019  0.7795 -0.3189
  164MOL0     C22041  -0.521  10.300   0.441 -0.2839  0.6924  0.1449
  164MOL0     C22042  -0.491  10.219   0.571  0.2453  0.9246 -0.5332
  164MOL0     C22043  -0.622  10.154   0.624 -0.6551 -0.0609  0.3339
  164MOL0     C22044  -0.672  10.231   0.753  0.4923  0.6282 -0.2212
  164MOL0     C22045  -0.791  10.180   0.831 -0.4095  0.2885 -0.1478
  164MOL0     C22046  -0.822  10.253   0.960 -0.4464  0.5604  0.7778
  164MOL0     C22047  -0.956  10.217   1.023  0.0014 -1.0531  0.8063
  164MOL0     C22048  -0.933  10.214   1.180  0.2731  0.2031 -1.2843
  164MOL0    Cl22049  -0.921  10.385   1.235  0.4264  0.2334 -0.1195
  164MOL0     C22050  -0.301  10.245   0.236 -0.5749 -0.4933 -0.2018
  164MOL0     C22051  -0.186  10.194   0.188  1.6063  0.1765 -0.0916
  164MOL0     O22052   0.118  10.155   0.219 -0.2738 -0.1597 -0.1159
  164MOL0     C22053   0.326  10.012   0.087 -0.2962 -0.1704  0.1180
  164MOL0     C22054   0.421   9.948   0.008  0.1155  0.3141  1.0404
  164MOL0     N22055   0.970   9.421  -0.345 -0.4870 -0.2124 -0.2885
  164MOL0     N22056   1.036   9.347  -0.259  0.6182 -0.3519  0.1519
  164MOL0     C22057   1.405   9.956   0.674 -0.4994 -0.0298  0.2693
  164MOL0     C22058   1.459   9.993   0.805  0.6112 -0.5430 -0.1119
  164MOL0     C22059   1.615  10.087   1.175 -0.4655 -0.8433  0.2343
  164MOL0     C22060   1.530  10.200   1.172  0.2262  0.2291  0.3417
  164MOL0     C22061   1.543  10.305   1.263  1.1653 -0.1497  0.4250
  164MOL0     C22062   1.640  10.299   1.351  0.7319 -0.1629  0.6267
  164MOL0     O22063   1.638  10.402   1.443  0.6236 -0.6587 -0.4998
  164MOL0     C22064   1.763  10.410   1.518  0.1509  0.1328 -0.1882
  164MOL0     C22065   1.764  10.531   1.615  0.4824  0.0532  0.0923
  164MOL0     C22066   1.846  10.643   1.563 -0.8205  0.2743  0.1469
  164MOL0     C22067   1.800  10.710   1.438 -0.9092  0.5107  1.1119
  164MOL0     C22068   1.895  10.787   1.363 -0.4325 -0.4376  0.2123
  164MOL0     C22069   1.977  10.825   1.284  0.7817  0.6921  0.0271
  164MOL0     C22070   1.730  10.190   1.348 -0.0064  0.5436  0.8968
  164MOL0     C22071   1.721  10.078   1.265 -0.7768 -0.1767  0.0602
  164MOL0     C22072   1.816   9.955   1.296  0.9191  0.0543  0.3418
  164MOL0     H22073   1.258   9.786   0.981 -1.8581  1.9924 -0.7215
  164MOL0     H22074   1.207   9.696   0.757 -0.0624 -1.6549  0.2781
  164MOL0     H22075   1.341   9.622   0.600  1.2917  2.8871  1.3283
  164MOL0     H22076   1.195   9.641   0.501  0.2504  1.1867 -0.5900
  164MOL0     H22077   1.363   9.506   0.408 -2.5222  0.0156 -0.8058
  164MOL0     H22078   1.476   9.651   0.412 -0.7508  0.2159  3.9561
  164MOL0     H22079   1.387   9.641   0.188 -2.3712  0.5642 -1.7726
  164MOL0     H22080   1.261   9.752   0.253  0.9317  0.4307 -3.6532
  164MOL0     H22081   1.125   9.514   0.282 -1.1030  1.9444  0.0178
  164MOL0     H22082   1.148   9.585   0.120  3.0151  3.9782 -0.1501
  164MOL0     H22083   1.354   9.435   0.116 -0.0370 -1.5327 -0.1802
  164MOL0     H22084   1.270   9.337   0.245  2.6718  2.2055  1.6931
  164MOL0     H22085   1.207   9.401  -0.037  1.8326 -0.6273  1.5760
  164MOL0     H22086   1.228   9.245   0.036 -1.1965 -1.1697 -0.4034
  164MOL0     H22087   1.001   9.436   0.064  0.9885 -0.0967  3.9042
  164MOL0     H22088   1.016   9.303   0.168  2.4007 -0.2651  0.0624
  164MOL0     H22089   1.050   9.155  -0.056 -1.0414 -0.3345 -1.0511
  164MOL0     H22090   0.882   9.189   0.006  0.6881 -0.7209  1.8667
  164MOL0     H22091   0.740   9.323  -0.141 -0.7937 -0.2679 -1.9114
  164MOL0     H22092   0.734   9.506  -0.465 -0.8160 -0.1155 -0.5787
  164MOL0     H22093   0.637   9.441  -0.337  0.9090 -1.7126 -1.9867
  164MOL0     H22094   0.785   9.711  -0.304 -0.4318 -0.0613  0.5184
  164MOL0     H22095   0.609   9.693  -0.351 -0.6484 -0.7146  0.1066
  164MOL0     H22096   0.750   9.623  -0.082  1.0825 -4.5082 -1.4679
  164MOL0     H22097   0.593   9.546  -0.130 -3.3120  0.7393 -0.2105
  164MOL0     H22098   0.632   9.843  -0.115  0.0882  0.4843  1.3818
  164MOL0     H22099   0.575   9.742   0.019  0.5174  0.6047 -0.6991
  164MOL0     H22100   0.186   9.714  -0.114 -1.1502  1.8846 -1.6798
  164MOL0     H22101   0.045   9.836   0.026  0.9810 -2.7360 -0.2535
  164MOL0     H22102  -0.240   9.868   0.256  2.3209  0.2438  0.3490
  164MOL0     H22103  -0.465   9.969   0.325  1.2332 -1.3484  2.2114
  164MOL0     H22104  -0.456  10.387   0.432  1.7406 -0.5443  1.7505
  164MOL0     H22105  -0.620  10.344   0.460 -1.5964 -1.5721 -1.0066
  164MOL0     H22106  -0.425  10.135   0.544 -0.1487  1.4957 -3.6386
  164MOL0     H22107  -0.448  10.284   0.648 -1.5863  1.6059 -0.0388
  164MOL0     H22108  -0.700  10.146   0.548 -1.5238  1.0852  1.0846
  164MOL0     H22109  -0.596  10.052   0.656  2.0989  0.6241  0.5492
  164MOL0     H22110  -0.704  10.333   0.731 -2.0964 -0.0095  0.2538
  164MOL0     H22111  -0.594  10.235   0.830  1.5041 -0.1162 -1.1776
  164MOL0     H22112  -0.772  10.077   0.861  2.8038  0.5530 -0.8342
  164MOL0     H22113  -0.879  10.188   0.767 -0.6760  1.9197  0.3638
  164MOL0     H22114  -0.741  10.222   1.026 -1.4017  1.2561  2.3328
  164MOL0     H22115  -0.825  10.360   0.939  1.6193  0.6220  0.6380
  164MOL0     H22116  -0.999  10.120   0.994  0.9391 -1.3605  0.4017
  164MOL0     H22117  -1.030  10.290   0.991  1.0702 -0.7105 -0.9789
  164MOL0     H22118  -1.020  10.161   1.221  3.0055 -0.4209  4.6401
  164MOL0     H22119  -0.842  10.167   1.216  1.8344  0.9253 -3.9920
  164MOL0     H22120  -0.328  10.349   0.218 -3.1966 -0.9311  0.7625
  164MOL0     H22121  -0.103  10.260   0.161  0.9284  1.7583  1.4723
  164MOL0     H22122   0.357  10.090   0.156 -0.2813 -2.0288  2.3522
  164MOL0     H22123   0.523   9.986   0.002 -0.8579  2.8539 -1.4915
  164MOL0     H22124   1.426  10.008   0.581 -2.1508 -0.3784 -0.3310
  164MOL0     H22125   1.533  10.071   0.819 -1.4892  1.2360  1.7653
  164MOL0     H22126   1.455  10.206   1.093  1.8723 -2.3393 -1.5719
  164MOL0     H22127   1.464  10.378   1.248 -0.5949 -1.5099  2.6181
  164MOL0     H22128   1.850  10.418   1.453 -1.1479  0.5953 -1.9503
  164MOL0     H22129   1.775  10.317   1.574  0.8742 -1.6075 -3.0582
  164MOL0     H22130   1.814  10.498   1.707  0.4449  2.5415  1.0729
  164MOL0     H22131   1.663  10.568   1.632 -0.7442 -2.8189 -0.3012
  164MOL0     H22132   1.945  10.603   1.539 -1.4808 -1.0385 -0.4692
  164MOL0     H22133   1.857  10.724   1.636 -0.8483  0.2946  0.1281
  164MOL0     H22134   1.763  10.630   1.374 -0.7867  0.8839  0.5651
  164MOL0     H22135   1.713  10.768   1.472  0.1372  1.8376  1.6433
  164MOL0     H22136   2.042  10.851   1.203  1.3454 -0.1670  0.1912
  164MOL0     H22137   1.800  10.164   1.427  0.1457  1.5437  1.0992
  164MOL0     H22138   1.877   9.919   1.212  0.3554  1.7478 -0.8467
  164MOL0     H22139   1.891   9.987   1.369  0.0873 -0.2844  1.3626
  164MOL0     H22140   1.752   9.877   1.339 -1.8253  2.7290  1.4529
  165MOL0     O22141   3.817   7.684  11.136 -0.1217  0.3819 -1.4540
  165MOL0     C22142   3.842   7.617  11.235  0.0541 -0.0696 -0.5033
  165MOL0     O22143   3.965   7.562  11.254  0.1716 -0.6633  0.9066
  165MOL0     C22144   4.053   7.567  11.149  0.2504  1.2928  0.5696
  165MOL0     C22145   4.162   7.648  11.170  0.0935  0.5145  0.1352
  165MOL0     C22146   4.242   7.676  11.055 -0.7636  0.0110  0.0001
  165MOL0     C22147   4.226   7.614  10.934  0.3860 -0.1713  0.2897
  165MOL0     O22148   4.319   7.650  10.836 -0.0246 -0.2866 -0.6331
  165MOL0     C22149   4.317   7.570  10.722 -0.0869 -0.6108 -0.9370
  165MOL0     C22150   4.449   7.629  10.639 -0.2065  0.3433  0.1025
  165MOL0     C22151   4.470   7.554  10.506  0.2963  0.1508 -0.0115
  165MOL0     C22152   4.603   7.614  10.436  0.4750  0.4151  0.4129
  165MOL0     C22153   4.575   7.712  10.325 -1.3907  0.2669 -0.5046
  165MOL0     C22154   4.694   7.757  10.238  0.6655  0.0990 -0.7414
  165MOL0     C22155   4.815   7.798  10.328 -0.3166 -0.1810  0.2866
  165MOL0     C22156   4.925   7.885  10.272 -0.0520 -0.5319  0.6799
  165MOL0     N22157   5.056   7.880  10.343 -0.0324 -0.8586  0.5038
  165MOL0     C22158   5.089   7.948  10.456  0.0139 -0.7751 -0.8441
  165MOL0     C22159   5.230   7.919  10.482 -0.9394  0.7859  0.9611
  165MOL0     C22160   5.321   7.973  10.588  0.1763  0.0619  0.1893
  165MOL0     C22161   5.453   7.893  10.608  0.1925 -0.0631 -0.6595
  165MOL0     C22162   5.428   7.769  10.692 -0.3897  0.9077  0.3731
  165MOL0     C22163   5.562   7.719  10.755 -0.0540 -0.4334 -0.0511
  165MOL0     O22164   5.538   7.601  10.832 -0.1615  0.4672  0.4683
  165MOL0     C22165   5.647   7.536  10.885  1.0371 -0.3195 -0.7343
  165MOL0     C22166   5.605   7.420  10.950  0.1132 -0.8554 -0.8627
  165MOL0     C22167   5.698   7.343  11.027  0.2124 -0.7218  0.7003
  165MOL0     C22168   5.839   7.377  11.015 -0.0055  0.2638  0.3161
  165MOL0     C22169   5.935   7.296  11.086 -0.5218 -0.5337 -0.3827
  165MOL0     O22170   6.063   7.300  11.040 -0.1282 -0.0863  0.6996
  165MOL0     C22171   6.163   7.243  11.109  0.2402  0.2697  0.4809
  165MOL0     C22172   6.209   7.302  11.228  0.0378 -0.4008 -0.1322
  165MOL0     C22173   6.298   7.233  11.317 -1.3420  0.5155 -0.0303
  165MOL0     C22174   6.357   7.114  11.267 -0.8112  0.2590  0.0085
  165MOL0     O22175   6.452   7.044  11.335 -0.3219  0.7121 -0.2044
  165MOL0     C22176   6.535   7.102  11.445  0.0889  0.2578 -0.0231
  165MOL0     C22177   6.659   7.173  11.396 -0.4013 -0.6995 -0.4054
  165MOL0     C22178   6.758   7.083  11.318 -0.0006  0.3786 -0.0783
  165MOL0     C22179   6.855   7.168  11.232  0.0183  0.0932 -0.5160
  165MOL0     C22180   6.969   7.084  11.180 -0.4641 -0.9689  0.4688
  165MOL0     C22181   7.091   7.155  11.145 -0.6039  0.1554  0.1246
  165MOL0     C22182   7.073   7.269  11.037  0.3812  0.6984 -0.2447
  165MOL0     C22183   7.209   7.302  10.983  1.4261 -0.2752  1.0639
  165MOL0    Cl22184   7.315   7.365  11.112  0.2806  0.1284 -0.2163
  165MOL0     C22185   6.310   7.062  11.147  0.6856  0.0191  0.8570
  165MOL0     C22186   6.211   7.121  11.074  0.7438  1.0395  0.3303
  165MOL0     O22187   5.898   7.249  11.192 -0.4053  0.2026 -0.0243
  165MOL0     C22188   5.873   7.489  10.937  0.3284 -0.2432 -0.0968
  165MOL0     C22189   5.777   7.580  10.885  0.0653 -0.0297  0.0129
  165MOL0     N22190   5.267   7.852  10.362 -0.6699 -0.2869  0.1032
  165MOL0     N22191   5.170   7.827  10.287 -0.5818 -1.1938  0.2818
  165MOL0     C22192   4.110   7.530  10.922 -0.1793  0.0942 -0.0267
  165MOL0     C22193   4.027   7.502  11.026  0.1595 -1.0408  0.1155
  165MOL0     C22194   3.744   7.600  11.345 -0.0216  0.1947 -0.3050
  165MOL0     C22195   3.611   7.613  11.304 -0.1116  0.6181 -0.9162
  165MOL0     C22196   3.510   7.583  11.392  0.6440  0.3519 -0.1429
  165MOL0     C22197   3.537   7.547  11.529  0.1144 -0.1773 -0.0280
  165MOL0     O22198   3.418   7.522  11.600 -0.6118 -0.0115 -0.2634
  165MOL0     C22199   3.419   7.443  11.719 -0.6895 -0.1888 -0.3713
  165MOL0     C22200   3.285   7.367  11.726 -0.0019  0.4179  0.6354
  165MOL0     C22201   3.186   7.467  11.779 -0.6323  0.1539 -0.7755
  165MOL0     C22202   3.045   7.404  11.764  0.1395 -0.6602  0.5601
  165MOL0     C22203   2.954   7.513  11.791 -0.6432  0.1711  0.2251
  165MOL0     C22204   2.888   7.613  11.808  0.1968  0.4728  0.7018
  165MOL0     C22205   3.669   7.533  11.564 -0.1274  0.0408 -0.8628
  165MOL0     C22206   3.774   7.555  11.482  0.5658  0.1206  0.7011
  165MOL0     C22207   3.919   7.532  11.535  0.3232  0.4514  0.0566
  165MOL0     H22208   4.174   7.709  11.259  1.8904 -2.7742  2.3744
  165MOL0     H22209   4.323   7.748  11.057 -0.1185 -0.7163  0.7502
  165MOL0     H22210   4.336   7.466  10.750 -0.6270 -0.5979 -0.5147
  165MOL0     H22211   4.220   7.582  10.673  0.0779  2.4700 -0.7061
  165MOL0     H22212   4.538   7.614  10.702 -1.5595  0.6314  2.1939
  165MOL0     H22213   4.428   7.734  10.617 -0.8573  0.1264 -0.3122
  165MOL0     H22214   4.374   7.562  10.455 -0.8829 -1.4762  1.8070
  165MOL0     H22215   4.478   7.446  10.519 -0.6816  0.0872  0.2013
  165MOL0     H22216   4.667   7.665  10.508 -1.7051  1.2993  1.8065
  165MOL0     H22217   4.654   7.532  10.385  1.4656  1.4062 -0.2570
  165MOL0     H22218   4.500   7.668  10.258  0.1526 -2.0838 -0.8087
  165MOL0     H22219   4.543   7.795  10.388 -0.2918 -1.1711  2.1307
  165MOL0     H22220   4.714   7.670  10.175 -0.2181 -2.5529  2.3739
  165MOL0     H22221   4.674   7.844  10.174  1.1287  1.0679  0.3840
  165MOL0     H22222   4.864   7.709  10.367 -1.2695  0.0113  2.0379
  165MOL0     H22223   4.792   7.858  10.417  1.3624  2.5749 -0.9947
  165MOL0     H22224   4.948   7.850  10.170  2.3031  0.7562  0.6856
  165MOL0     H22225   4.891   7.988  10.283  1.3559 -0.0987  1.1652
  165MOL0     H22226   5.034   8.016  10.521  0.3862 -1.2668  0.0014
  165MOL0     H22227   5.353   8.075  10.565  2.5606 -0.8986 -1.0825
  165MOL0     H22228   5.262   7.977  10.680 -0.4476  1.8142 -0.2536
  165MOL0     H22229   5.504   7.862  10.517  1.6523  0.9036 -0.2054
  165MOL0     H22230   5.520   7.951  10.672  0.8982 -0.8944 -0.6240
  165MOL0     H22231   5.390   7.685  10.634  0.4177  0.5558  0.3430
  165MOL0     H22232   5.352   7.790  10.768 -0.6267  4.7169 -0.7110
  165MOL0     H22233   5.584   7.801  10.823  0.0977  2.8241 -3.6879
  165MOL0     H22234   5.645   7.702  10.685 -1.3317  1.7999 -2.2831
  165MOL0     H22235   5.499   7.398  10.959  0.2026 -1.6359 -1.6476
  165MOL0     H22236   5.671   7.257  11.088  0.6762 -0.2902  1.5373
  165MOL0     H22237   6.162   7.396  11.254  0.6285  0.2220 -1.2387
  165MOL0     H22238   6.329   7.264  11.416  1.8228 -3.1829  0.3553
  165MOL0     H22239   6.478   7.173  11.505 -1.4417 -1.2534  0.4233
  165MOL0     H22240   6.571   7.016  11.502 -3.2730 -2.8532 -2.0622
  165MOL0     H22241   6.636   7.265  11.341  2.3730 -0.2962 -1.0539
  165MOL0     H22242   6.712   7.222  11.478 -3.7469 -3.0056  3.5086
  165MOL0     H22243   6.807   7.012  11.385 -1.4517 -1.1716 -0.5563
  165MOL0     H22244   6.715   7.009  11.250 -0.2685  1.9948 -1.7625
  165MOL0     H22245   6.893   7.244  11.302 -2.5223 -0.3366  1.5033
  165MOL0     H22246   6.809   7.227  11.153  0.5558  0.0833 -0.8445
  165MOL0     H22247   6.929   7.031  11.093 -1.2571  1.1109 -0.4815
  165MOL0     H22248   6.990   7.007  11.255 -0.0803 -1.6952 -0.3647
  165MOL0     H22249   7.141   7.188  11.237 -0.6063 -0.6373  0.4139
  165MOL0     H22250   7.158   7.074  11.113  0.7189  1.5295 -0.7239
  165MOL0     H22251   7.029   7.356  11.085 -3.5604 -2.2164  2.0842
  165MOL0     H22252   7.012   7.230  10.955  0.8676  2.9241 -1.7357
  165MOL0     H22253   7.256   7.215  10.938  0.6213 -0.4502  0.5295
  165MOL0     H22254   7.194   7.376  10.904 -1.2771  0.8049  2.4386
  165MOL0     H22255   6.364   6.971  11.121 -0.1154 -0.6956  1.6350
  165MOL0     H22256   6.188   7.080  10.976  2.3441  1.3101 -0.1870
  165MOL0     H22257   5.978   7.510  10.916 -0.7031  4.3301 -1.6379
  165MOL0     H22258   5.807   7.674  10.838 -3.6314  1.9322  1.1267
  165MOL0     H22259   4.120   7.470  10.832  1.8648  0.4265 -0.0793
  165MOL0     H22260   3.952   7.425  11.032 -0.3594 -0.5261  0.3345
  165MOL0     H22261   3.591   7.648  11.203  0.4141 -2.6132 -2.2727
  165MOL0     H22262   3.406   7.605  11.367  0.3196 -1.0337 -0.0840
  165MOL0     H22263   3.436   7.503  11.809 -0.6212 -1.8717  0.7828
  165MOL0     H22264   3.502   7.373  11.718  0.8074  1.2486  3.4535
  165MOL0     H22265   3.305   7.282  11.792 -0.7717 -0.2523  0.0131
  165MOL0     H22266   3.272   7.321  11.628  1.6356  1.1117  0.0570
  165MOL0     H22267   3.192   7.563  11.727  0.0596  0.1891 -0.6416
  165MOL0     H22268   3.216   7.483  11.883  1.3633 -3.9029 -0.5024
  165MOL0     H22269   3.028   7.353  11.669  1.9836  0.8002 -0.6114
  165MOL0     H22270   3.028   7.320  11.833  6.3000 -1.5590  1.5736
  165MOL0     H22271   2.820   7.696  11.818 -1.3623 -0.3080 -2.3523
  165MOL0     H22272   3.681   7.514  11.670  1.1832 -0.7333 -1.1290
  165MOL0     H22273   3.954   7.432  11.509 -0.2787 -0.3901  2.2726
  165MOL0     H22274   3.984   7.605  11.486 -0.5673 -0.5508 -2.8399
  165MOL0     H22275   3.923   7.545  11.644 -1.3082 -1.5320  0.4059
  166MOL0     O22276  11.494   2.156   3.456  0.5026 -0.4094  0.1405
  166MOL0     C22277  11.541   2.078   3.539  0.6291 -0.7320 -0.6769
  166MOL0     O22278  11.592   2.116   3.657  0.4686 -0.0793  0.0831
  166MOL0     C22279  11.578   2.250   3.695  0.4019 -0.1424 -1.0726
  166MOL0     C22280  11.647   2.358   3.628 -0.3985 -0.3102 -0.8657
  166MOL0     C22281  11.620   2.494   3.659  0.1407  0.4405 -0.5299
  166MOL0     C22282  11.531   2.519   3.767  0.3963  0.5556  0.4634
  166MOL0     O22283  11.503   2.651   3.792  0.8564 -0.0966  0.2283
  166MOL0     C22284  11.364   2.688   3.808  0.7001  0.0085 -0.1473
  166MOL0     C22285  11.343   2.837   3.823  0.3842  0.5318 -0.2530
  166MOL0     C22286  11.415   2.898   3.697  0.1961  0.5003  0.3688
  166MOL0     C22287  11.465   3.043   3.730  0.7664  0.9758  0.0072
  166MOL0     C22288  11.512   3.099   3.590 -0.2034  0.1366  0.5399
  166MOL0     C22289  11.561   3.245   3.597 -0.5121 -0.1426  0.1809
  166MOL0     C22290  11.581   3.299   3.452 -0.0034 -0.0753  0.2153
  166MOL0     C22291  11.643   3.435   3.459  0.4535 -0.8568 -0.0550
  166MOL0     N22292  11.786   3.420   3.447  0.1435  0.4726 -0.3849
  166MOL0     C22293  11.842   3.358   3.341  1.3016  0.4930  0.4366
  166MOL0     C22294  11.954   3.300   3.388  0.6246  0.6748  0.5600
  166MOL0     C22295  12.071   3.251   3.292  0.8196  0.7005 -0.0265
  166MOL0     C22296  12.195   3.179   3.355 -0.0758  0.1397  0.2931
  166MOL0     C22297  12.154   3.036   3.425 -0.9573  0.0413 -0.0730
  166MOL0     C22298  12.285   2.946   3.436  0.2397  1.0088 -0.4401
  166MOL0     O22299  12.261   2.845   3.334  0.2345  0.0721 -0.1140
  166MOL0     C22300  12.345   2.748   3.327 -0.7786  1.8783 -0.6012
  166MOL0     C22301  12.326   2.669   3.215  0.0616  0.1924 -0.0366
  166MOL0     C22302  12.422   2.571   3.177  0.2437  0.2061  0.0873
  166MOL0     C22303  12.537   2.540   3.261 -0.3808  0.3419  0.9493
  166MOL0     C22304  12.628   2.431   3.221 -0.3537  0.2517 -0.4595
  166MOL0     O22305  12.611   2.377   3.090  0.6795  0.5419 -0.2604
  166MOL0     C22306  12.697   2.285   3.043  0.2519  0.0602 -0.4291
  166MOL0     C22307  12.724   2.297   2.903 -0.7737  0.9604 -0.7368
  166MOL0     C22308  12.810   2.209   2.837 -0.3528  0.2140 -0.3606
  166MOL0     C22309  12.863   2.100   2.906 -0.2321  0.2802  0.1264
  166MOL0     O22310  12.931   2.009   2.830  0.5283 -0.3307 -0.6509
  166MOL0     C22311  12.936   1.877   2.873 -0.6344  0.6989 -0.0901
  166MOL0     C22312  12.906   1.789   2.746  0.5523  0.6965  0.0317
  166MOL0     C22313  12.763   1.781   2.700 -0.6080 -0.0629  0.0245
  166MOL0     C22314  12.678   1.692   2.779 -0.3479  0.9950  0.1904
  166MOL0     C22315  12.546   1.753   2.823  0.0850 -0.1100  0.2152
  166MOL0     C22316  12.452   1.749   2.695 -0.1237 -0.4874 -0.0888
  166MOL0     C22317  12.353   1.867   2.712  0.5972 -0.2122 -0.4717
  166MOL0     C22318  12.250   1.855   2.601 -0.2977 -0.6544  0.5476
  166MOL0    Cl22319  12.167   1.696   2.581  0.5701 -0.1050  0.4402
  166MOL0     C22320  12.836   2.084   3.045  0.6758 -0.0700  0.2900
  166MOL0     C22321  12.761   2.181   3.112 -0.3446 -0.9595  0.6777
  166MOL0     O22322  12.727   2.414   3.290 -0.2586  0.0945  0.3241
  166MOL0     C22323  12.546   2.609   3.383 -0.9426  0.2016 -0.3757
  166MOL0     C22324  12.452   2.707   3.412 -0.1587 -0.4285 -0.3267
  166MOL0     N22325  11.961   3.335   3.520 -0.5687  0.9422  0.6293
  166MOL0     N22326  11.871   3.414   3.556 -0.2287  0.3440  0.6196
  166MOL0     C22327  11.456   2.419   3.835 -0.0052  0.1632 -0.4783
  166MOL0     C22328  11.474   2.281   3.794  0.4183 -0.7328  0.4468
  166MOL0     C22329  11.551   1.930   3.508 -0.1428 -0.2985 -0.7309
  166MOL0     C22330  11.469   1.840   3.576 -0.1979 -0.1353  0.6539
  166MOL0     C22331  11.481   1.703   3.534 -0.6228 -0.1127 -0.1368
  166MOL0     C22332  11.563   1.656   3.430  0.6320  0.0303 -0.0009
  166MOL0     O22333  11.538   1.533   3.392 -0.7719 -0.3025  0.7851
  166MOL0     C22334  11.611   1.495   3.270  0.3325 -0.4812  0.7012
  166MOL0     C22335  11.541   1.523   3.139 -0.2465 -0.4409 -0.2084
  166MOL0     C22336  11.406   1.454   3.122 -0.0343 -0.9048 -0.0728
  166MOL0     C22337  11.336   1.476   2.985  0.0225 -0.7437  0.1901
  166MOL0     C22338  11.407   1.387   2.896  1.1962 -0.4952  0.0313
  166MOL0     C22339  11.473   1.297   2.842  0.7423 -0.2747  0.0334
  166MOL0     C22340  11.635   1.760   3.356  0.1521 -0.6990 -0.4874
  166MOL0     C22341  11.630   1.892   3.404  0.4369 -1.0196  0.6066
  166MOL0     C22342  11.708   1.997   3.326  0.5253  0.7891  0.0568
  166MOL0     H22343  11.708   2.321   3.546 -1.5289  0.8377 -2.2808
  166MOL0     H22344  11.653   2.577   3.598 -0.8971  0.2946 -1.3205
  166MOL0     H22345  11.315   2.668   3.712 -3.8742  0.7656  1.7979
  166MOL0     H22346  11.323   2.634   3.893  2.6766  1.7431  2.0539
  166MOL0     H22347  11.395   2.872   3.913  0.9974  3.7183 -1.7185
  166MOL0     H22348  11.241   2.866   3.848  0.3396  1.2478 -1.1861
  166MOL0     H22349  11.338   2.909   3.621  1.7853 -0.0358 -1.3760
  166MOL0     H22350  11.489   2.837   3.644 -1.6986 -1.1573 -0.4921
  166MOL0     H22351  11.380   3.091   3.781 -0.7791 -2.0364  0.4982
  166MOL0     H22352  11.544   3.032   3.805 -0.7860  1.0081  1.7157
  166MOL0     H22353  11.590   3.032   3.552 -1.1090 -1.3224  1.1374
  166MOL0     H22354  11.444   3.084   3.505  2.0917 -0.3277 -1.3222
  166MOL0     H22355  11.491   3.313   3.648 -0.1684  0.2402  0.1498
  166MOL0     H22356  11.661   3.241   3.640 -0.7244 -2.9823  0.5591
  166MOL0     H22357  11.486   3.308   3.398 -1.8979 -0.0416  3.3114
  166MOL0     H22358  11.636   3.224   3.396 -2.7389 -0.5316 -2.1184
  166MOL0     H22359  11.614   3.500   3.377  1.5050  1.1235  1.0745
  166MOL0     H22360  11.600   3.478   3.549  0.7417 -0.9222  0.1162
  166MOL0     H22361  11.805   3.367   3.240  0.4862 -0.4917  0.6304
  166MOL0     H22362  12.035   3.190   3.209 -1.1646 -0.8710  1.8526
  166MOL0     H22363  12.102   3.349   3.254  0.6305  1.2299  1.1398
  166MOL0     H22364  12.275   3.171   3.281  1.3933  0.1606  1.8314
  166MOL0     H22365  12.225   3.242   3.439  0.2882  0.4573 -0.0697
  166MOL0     H22366  12.081   2.994   3.355 -0.2375  0.3579 -1.0302
  166MOL0     H22367  12.122   3.050   3.529  1.7809  1.6461  0.6461
  166MOL0     H22368  12.288   2.902   3.536 -1.0893 -0.4660 -1.0127
  166MOL0     H22369  12.365   3.018   3.415 -3.2015  5.1865 -0.5671
  166MOL0     H22370  12.236   2.697   3.160 -1.0378  0.1242  1.6520
  166MOL0     H22371  12.421   2.531   3.077  1.8569 -0.0893  0.1684
  166MOL0     H22372  12.675   2.376   2.846  1.3791  1.7901 -1.5240
  166MOL0     H22373  12.825   2.215   2.730  0.2964 -0.8108 -0.3470
  166MOL0     H22374  13.025   1.846   2.929  1.4843  1.0808 -3.0007
  166MOL0     H22375  12.854   1.853   2.942  0.3430  1.2301  1.2981
  166MOL0     H22376  12.964   1.825   2.661 -0.8105 -1.0744 -1.7684
  166MOL0     H22377  12.944   1.690   2.772 -0.7679 -0.1565 -1.0921
  166MOL0     H22378  12.721   1.882   2.692  0.3843  0.2962 -1.0910
  166MOL0     H22379  12.772   1.741   2.599  2.3314  1.4374 -0.4439
  166MOL0     H22380  12.730   1.661   2.870 -2.4447 -0.6866  0.8910
  166MOL0     H22381  12.664   1.607   2.713  1.8642  2.6048 -2.5858
  166MOL0     H22382  12.565   1.856   2.854  0.9800  0.5002 -2.1032
  166MOL0     H22383  12.508   1.695   2.907  2.7233 -0.0520  1.5436
  166MOL0     H22384  12.509   1.788   2.609  2.5100  0.7181  2.0455
  166MOL0     H22385  12.408   1.649   2.685 -3.9181  0.9047  0.9925
  166MOL0     H22386  12.389   1.970   2.703 -3.6936  1.5788  0.2621
  166MOL0     H22387  12.304   1.865   2.810 -2.9427 -0.2582 -2.0860
  166MOL0     H22388  12.173   1.927   2.629 -0.9188 -1.5517  1.2105
  166MOL0     H22389  12.289   1.875   2.501  0.4379 -0.5117  0.8582
  166MOL0     H22390  12.881   2.002   3.100  1.1639 -0.3339 -0.4879
  166MOL0     H22391  12.758   2.176   3.220 -0.0130 -0.9142  0.6918
  166MOL0     H22392  12.628   2.580   3.448  0.9757  5.7790  0.2534
  166MOL0     H22393  12.455   2.759   3.507 -1.3181 -0.8620 -0.0299
  166MOL0     H22394  11.389   2.436   3.919 -0.1568 -0.4821 -0.4663
  166MOL0     H22395  11.422   2.193   3.832  2.1757 -1.1128  2.1465
  166MOL0     H22396  11.408   1.868   3.661 -3.6637 -2.6205 -0.7796
  166MOL0     H22397  11.406   1.638   3.579 -1.1716  0.8795  0.4087
  166MOL0     H22398  11.616   1.387   3.254 -0.9066 -0.4656  0.0725
  166MOL0     H22399  11.710   1.542   3.260  0.1694 -0.5719 -3.0444
  166MOL0     H22400  11.612   1.484   3.065 -0.9504 -0.6701 -0.7773
  166MOL0     H22401  11.518   1.629   3.129  0.7019 -0.1109  0.9783
  166MOL0     H22402  11.343   1.485   3.205 -1.2979  1.7087 -1.8596
  166MOL0     H22403  11.415   1.348   3.147  0.2447 -0.1023  3.8970
  166MOL0     H22404  11.229   1.454   2.997 -0.1779 -0.1346 -0.4101
  166MOL0     H22405  11.341   1.575   2.939  1.2396 -0.1644  1.5051
  166MOL0     H22406  11.530   1.227   2.783 -1.0444 -0.2991 -1.7819
  166MOL0     H22407  11.701   1.735   3.274 -0.2071 -1.2432 -0.6174
  166MOL0     H22408  11.769   1.938   3.257  0.3713 -1.4713  1.7321
  166MOL0     H22409  11.645   2.063   3.267 -0.4821  0.2921  0.5635
  166MOL0     H22410  11.782   2.040   3.395  2.1202 -1.7041  0.0500
  167MOL0     O22411  10.682   5.957   4.795  0.1039 -0.6395  0.2316
  167MOL0     C22412  10.583   6.018   4.762  0.5310 -0.1138  0.6562
  167MOL0     O22413  10.452   5.980   4.772 -0.6314  0.4243  0.2336
  167MOL0     C22414  10.407   5.854   4.811  0.2960 -0.2471  0.6254
  167MOL0     C22415  10.279   5.855   4.874  0.0458 -0.5016 -0.0276
  167MOL0     C22416  10.202   5.731   4.895 -0.4321 -0.2432 -1.1059
  167MOL0     C22417  10.257   5.608   4.856 -0.6165 -0.0090 -0.9340
  167MOL0     O22418  10.183   5.497   4.864  0.4067  0.0960 -0.2271
  167MOL0     C22419  10.182   5.439   4.998  0.4153 -0.1030 -0.4703
  167MOL0     C22420  10.177   5.285   5.005  0.1073  0.3980  0.0034
  167MOL0     C22421  10.117   5.228   5.131 -0.4649 -0.8328 -0.3370
  167MOL0     C22422  10.209   5.237   5.254  0.8104  0.2586  1.1009
  167MOL0     C22423  10.138   5.168   5.364 -0.0069 -0.0665  0.2893
  167MOL0     C22424  10.238   5.126   5.476 -0.0654 -0.5615 -0.2272
  167MOL0     C22425  10.176   5.056   5.592  0.8102  0.3003 -0.6769
  167MOL0     C22426  10.127   4.920   5.565 -0.4550 -0.6432 -0.3148
  167MOL0     N22427  10.071   4.841   5.679  0.3080 -0.4725 -0.4788
  167MOL0     C22428  10.133   4.816   5.794 -1.3645 -0.0991 -0.5445
  167MOL0     C22429  10.056   4.740   5.875 -0.5618  0.3218  1.6389
  167MOL0     C22430  10.084   4.695   6.013 -0.3479  0.0387  0.0837
  167MOL0     C22431  10.169   4.567   6.002  0.9428 -0.0105  0.5349
  167MOL0     C22432  10.217   4.517   6.135 -0.8295  0.6292 -0.0104
  167MOL0     C22433  10.337   4.594   6.194  1.3712  0.5233  0.1695
  167MOL0     O22434  10.463   4.559   6.136 -0.4600  0.1629  0.4338
  167MOL0     C22435  10.539   4.652   6.062 -0.7639 -0.3100  0.6458
  167MOL0     C22436  10.530   4.651   5.923  0.1446  0.3529  0.0223
  167MOL0     C22437  10.585   4.758   5.849 -0.0552  0.6205  0.7445
  167MOL0     C22438  10.663   4.852   5.909 -0.5484  0.5524  0.2707
  167MOL0     C22439  10.715   4.964   5.833  0.2077 -0.7611  0.4054
  167MOL0     O22440  10.816   5.033   5.901  0.6057 -0.1714  0.8580
  167MOL0     C22441  10.887   5.141   5.853  0.9047 -0.9534  0.1926
  167MOL0     C22442  11.008   5.181   5.913  0.0478 -0.6791 -0.4287
  167MOL0     C22443  11.077   5.295   5.885  0.0612  0.2141  0.6097
  167MOL0     C22444  11.034   5.388   5.788  0.3755  0.0027  0.4780
  167MOL0     O22445  11.090   5.507   5.781  0.2867  0.2863  0.3423
  167MOL0     C22446  11.058   5.602   5.671 -0.6906 -0.3866  0.3320
  167MOL0     C22447  10.951   5.713   5.718  0.1320  0.4795 -0.7015
  167MOL0     C22448  10.886   5.784   5.608 -0.0224  0.0954  0.3403
  167MOL0     C22449  10.757   5.849   5.654 -0.4659  0.8585  0.1533
  167MOL0     C22450  10.708   5.939   5.541 -0.4036  0.8130  0.7055
  167MOL0     C22451  10.748   6.097   5.562  0.1283  0.2335 -1.3854
  167MOL0     C22452  10.719   6.169   5.436 -0.7173  0.1556 -0.3760
  167MOL0     C22453  10.859   6.161   5.353  0.4665  0.3567 -0.3502
  167MOL0    Cl22454  10.849   6.248   5.199  0.0232  0.4035 -0.1722
  167MOL0     C22455  10.911   5.354   5.716 -0.8223 -1.0449 -0.6998
  167MOL0     C22456  10.840   5.239   5.755  1.1133  0.4350  0.2761
  167MOL0     O22457  10.675   4.994   5.721 -0.0156  0.0743 -0.1603
  167MOL0     C22458  10.689   4.837   6.052 -0.3481  0.3568 -0.5599
  167MOL0     C22459  10.633   4.730   6.126 -0.3791 -0.4490  0.7966
  167MOL0     N22460   9.939   4.726   5.802  0.7297 -0.4680 -0.0256
  167MOL0     N22461   9.947   4.786   5.681  0.5926 -0.1509  0.3655
  167MOL0     C22462  10.389   5.611   4.799 -0.3654  0.0038  0.4931
  167MOL0     C22463  10.445   5.737   4.762  0.1109  0.0479  0.8599
  167MOL0     C22464  10.621   6.131   4.690 -0.1926  0.1188 -0.4014
  167MOL0     C22465  10.559   6.155   4.568 -0.7635  0.1179  0.0653
  167MOL0     C22466  10.606   6.255   4.487 -0.1778 -0.7315 -0.3087
  167MOL0     C22467  10.696   6.352   4.540  0.3144 -0.1625  0.6299
  167MOL0     O22468  10.743   6.461   4.472 -0.0533  0.0380 -0.1239
  167MOL0     C22469  10.699   6.490   4.345 -0.4148  0.8461  0.3973
  167MOL0     C22470  10.782   6.618   4.305  0.8051  0.1008  0.8629
  167MOL0     C22471  10.725   6.669   4.161 -0.1169  0.5187 -0.2902
  167MOL0     C22472  10.802   6.796   4.113  0.1507 -0.8267  0.3462
  167MOL0     C22473  10.757   6.841   3.987 -0.0508 -0.0749  0.4222
  167MOL0     C22474  10.719   6.884   3.882 -0.1591 -0.4465  0.2563
  167MOL0     C22475  10.748   6.327   4.663 -1.1141  0.6203 -0.0684
  167MOL0     C22476  10.727   6.212   4.733 -0.3058  0.9997 -0.1723
  167MOL0     C22477  10.816   6.192   4.847  0.0373 -0.4305 -0.3466
  167MOL0     H22478  10.234   5.951   4.897  0.7453 -0.0518 -0.4720
  167MOL0     H22479  10.103   5.740   4.938 -0.1562  0.8510 -0.6568
  167MOL0     H22480  10.264   5.481   5.057 -2.5562  5.9391  0.1767
  167MOL0     H22481  10.094   5.491   5.038  0.4401 -0.8306  0.5594
  167MOL0     H22482  10.282   5.255   5.000 -0.2363 -1.6128  2.7121
  167MOL0     H22483  10.139   5.244   4.911  0.1834 -0.7431  0.4583
  167MOL0     H22484  10.111   5.124   5.100 -0.9035 -0.9130 -0.0012
  167MOL0     H22485  10.017   5.264   5.156 -0.0328 -1.2040  2.2184
  167MOL0     H22486  10.306   5.194   5.228  1.3459  1.5798  0.8131
  167MOL0     H22487  10.235   5.337   5.289 -1.0510 -0.2239  4.2397
  167MOL0     H22488  10.053   5.227   5.400 -0.9714 -2.1721  1.6711
  167MOL0     H22489  10.081   5.078   5.339 -2.8458  0.3854  4.1739
  167MOL0     H22490  10.316   5.066   5.429  0.8702 -1.5936  2.4681
  167MOL0     H22491  10.286   5.220   5.507  0.3077 -1.4893  2.2079
  167MOL0     H22492  10.093   5.113   5.636  0.1160  1.6747 -3.5210
  167MOL0     H22493  10.248   5.044   5.672  0.1257 -2.4042 -0.3884
  167MOL0     H22494  10.060   4.929   5.479 -1.9950 -2.1216  0.6454
  167MOL0     H22495  10.215   4.858   5.548  0.1789  0.6006 -1.7179
  167MOL0     H22496  10.233   4.854   5.808  0.4098 -3.8536 -1.7301
  167MOL0     H22497  10.138   4.772   6.067 -0.0315  1.0189 -1.5491
  167MOL0     H22498   9.989   4.672   6.062 -1.2266  0.7298 -1.2336
  167MOL0     H22499  10.110   4.493   5.947  0.0637  0.5348  0.7212
  167MOL0     H22500  10.243   4.593   5.927  0.6121  0.6579  0.4384
  167MOL0     H22501  10.246   4.414   6.116 -0.4354  1.2206 -3.2451
  167MOL0     H22502  10.136   4.521   6.208  0.3204  0.5503  1.3197
  167MOL0     H22503  10.351   4.570   6.300 -1.5176 -2.4986  0.0253
  167MOL0     H22504  10.323   4.703   6.196  0.6654  0.4550  2.5073
  167MOL0     H22505  10.476   4.568   5.879  0.0218 -0.2106  1.2032
  167MOL0     H22506  10.567   4.759   5.742  3.8702 -0.0580 -0.0790
  167MOL0     H22507  11.042   5.115   5.991 -3.5750 -0.5695  1.4339
  167MOL0     H22508  11.170   5.306   5.941  1.3078 -1.3681 -1.0037
  167MOL0     H22509  11.156   5.651   5.666 -0.2955 -1.0841  0.9944
  167MOL0     H22510  11.038   5.545   5.579  0.2574 -0.4306  0.1345
  167MOL0     H22511  10.878   5.653   5.773  0.5398 -0.1839 -0.8771
  167MOL0     H22512  11.001   5.789   5.778  1.4860  0.8635 -2.2483
  167MOL0     H22513  10.956   5.860   5.570  1.2113 -1.0638  0.2139
  167MOL0     H22514  10.866   5.713   5.527  2.6682  0.5882 -0.8933
  167MOL0     H22515  10.762   5.907   5.747 -4.5281  1.8463 -0.0542
  167MOL0     H22516  10.678   5.779   5.684 -0.4780  1.3000  1.1869
  167MOL0     H22517  10.600   5.927   5.526  0.0087  0.1288 -2.3228
  167MOL0     H22518  10.738   5.901   5.443 -1.1932 -0.5517  0.9682
  167MOL0     H22519  10.680   6.141   5.635  0.3581  2.3809 -2.3884
  167MOL0     H22520  10.851   6.106   5.598 -0.5311  1.5643  0.2805
  167MOL0     H22521  10.701   6.274   5.460 -0.3838  0.6158 -1.9932
  167MOL0     H22522  10.629   6.132   5.385 -1.0802  0.8666 -0.2653
  167MOL0     H22523  10.936   6.210   5.412  2.6933 -2.0979 -1.0309
  167MOL0     H22524  10.882   6.055   5.333 -1.6382 -0.2861  0.3881
  167MOL0     H22525  10.877   5.426   5.642 -0.9785 -0.5138 -0.1140
  167MOL0     H22526  10.743   5.220   5.711  0.6540 -0.6521  1.7033
  167MOL0     H22527  10.742   4.907   6.115  2.3938 -3.0851  1.3081
  167MOL0     H22528  10.635   4.727   6.234  1.9674  1.6881  0.9086
  167MOL0     H22529  10.416   5.510   4.768  2.5426  0.6540  0.5811
  167MOL0     H22530  10.534   5.747   4.700 -0.6459 -2.4339 -0.7819
  167MOL0     H22531  10.475   6.093   4.538  0.7520 -1.6902 -0.6894
  167MOL0     H22532  10.559   6.281   4.393 -2.8559  1.1901  1.4163
  167MOL0     H22533  10.592   6.511   4.352 -0.4144  0.3679  2.5394
  167MOL0     H22534  10.707   6.403   4.279 -1.9534  2.1638 -1.6096
  167MOL0     H22535  10.884   6.581   4.297  0.1265 -1.6158 -0.5117
  167MOL0     H22536  10.765   6.695   4.381 -1.0838  0.4269  0.1688
  167MOL0     H22537  10.617   6.681   4.169  0.1905  3.8757  0.3493
  167MOL0     H22538  10.754   6.589   4.092  2.9968  0.9935  0.2937
  167MOL0     H22539  10.780   6.880   4.180  0.0232  0.8299 -1.6671
  167MOL0     H22540  10.909   6.775   4.114 -0.0395 -1.8951 -0.5127
  167MOL0     H22541  10.695   6.921   3.785  1.1950  0.0804  0.1025
  167MOL0     H22542  10.808   6.409   4.701 -1.2616  1.1149 -0.8875
  167MOL0     H22543  10.900   6.139   4.801 -1.5449 -1.6590 -1.8919
  167MOL0     H22544  10.851   6.287   4.889 -1.9253  1.3268 -2.4306
  167MOL0     H22545  10.773   6.131   4.927 -1.2331 -0.7388 -1.2414
  168MOL0     O22546   6.187   1.965   7.326  0.8311 -0.7718 -0.3662
  168MOL0     C22547   6.227   1.858   7.292 -0.5628 -0.9386  0.6923
  168MOL0     O22548   6.336   1.836   7.202  0.3340 -0.1484 -0.8193
  168MOL0     C22549   6.426   1.934   7.166  0.0075  0.5117 -0.2358
  168MOL0     C22550   6.526   1.985   7.256 -0.2598  0.1643 -0.1908
  168MOL0     C22551   6.606   2.087   7.201  0.0514  0.9600  0.2597
  168MOL0     C22552   6.599   2.134   7.070 -0.0673  0.2418 -0.1600
  168MOL0     O22553   6.687   2.233   7.023 -0.3905 -0.0329 -0.2339
  168MOL0     C22554   6.810   2.256   7.103 -0.0779 -0.1144 -1.1380
  168MOL0     C22555   6.891   2.364   7.045  0.9809 -0.1915 -0.5334
  168MOL0     C22556   6.958   2.471   7.136  0.0574  0.1378  0.0714
  168MOL0     C22557   6.853   2.568   7.186  0.0785 -0.0595 -0.0039
  168MOL0     C22558   6.923   2.693   7.238 -0.9643 -0.0802 -1.1238
  168MOL0     C22559   6.811   2.769   7.312  0.0782 -0.4188  0.2975
  168MOL0     C22560   6.849   2.905   7.380 -0.6076 -0.4481 -0.5456
  168MOL0     C22561   6.731   3.003   7.388 -0.2069  0.1127 -0.1279
  168MOL0     N22562   6.610   2.931   7.433 -0.8112  0.3277  0.5498
  168MOL0     C22563   6.494   2.888   7.373  0.3299  0.0407  0.2290
  168MOL0     C22564   6.411   2.852   7.471  0.3570  0.2536 -1.2235
  168MOL0     C22565   6.267   2.808   7.454  1.9696 -0.3031  0.2439
  168MOL0     C22566   6.198   2.756   7.592  0.4606  0.8211 -1.2497
  168MOL0     C22567   6.046   2.725   7.569  0.0903 -0.4012 -0.4113
  168MOL0     C22568   5.971   2.696   7.704 -0.0611 -0.5940  0.0477
  168MOL0     O22569   6.023   2.565   7.729 -1.4321 -0.1560 -0.5374
  168MOL0     C22570   5.985   2.507   7.850  0.0011 -0.8035 -0.3264
  168MOL0     C22571   5.943   2.584   7.964  0.3264  0.5453  0.6380
  168MOL0     C22572   5.927   2.521   8.086  0.1205  0.5499  0.1376
  168MOL0     C22573   5.938   2.384   8.104  0.1506  0.0622 -0.1589
  168MOL0     C22574   5.922   2.325   8.233  0.1426 -0.2175 -0.8553
  168MOL0     O22575   5.971   2.196   8.262 -0.1618  0.8983  0.0148
  168MOL0     C22576   5.930   2.134   8.377  0.3542  0.6948 -0.3493
  168MOL0     C22577   5.801   2.087   8.409  0.1032  0.0967  0.2689
  168MOL0     C22578   5.765   2.037   8.540 -0.9714 -0.0963 -1.4935
  168MOL0     C22579   5.861   2.024   8.639  0.2526 -0.3134  0.5091
  168MOL0     O22580   5.828   1.976   8.757 -0.6305  0.1010 -0.4794
  168MOL0     C22581   5.919   2.006   8.864 -1.0621 -0.2299 -0.5165
  168MOL0     C22582   5.863   1.989   9.003  0.3938 -0.0346  0.5211
  168MOL0     C22583   5.855   1.844   9.042  0.7149 -1.2336 -0.4755
  168MOL0     C22584   5.770   1.828   9.169 -0.3260 -1.3504 -0.0175
  168MOL0     C22585   5.817   1.695   9.234 -0.2929  0.6604 -0.0620
  168MOL0     C22586   5.775   1.683   9.377 -0.2764  0.1563 -0.7990
  168MOL0     C22587   5.797   1.544   9.451 -1.8177 -0.9629  0.1529
  168MOL0     C22588   5.752   1.556   9.593 -0.8637  0.0270 -0.4446
  168MOL0    Cl22589   5.889   1.630   9.674  0.6410  0.5974 -0.1862
  168MOL0     C22590   5.990   2.047   8.600  0.3479  1.1471 -0.2416
  168MOL0     C22591   6.021   2.095   8.472  0.6730 -0.4730  0.2222
  168MOL0     O22592   5.868   2.395   8.314 -0.2483  0.3921 -0.4990
  168MOL0     C22593   5.972   2.307   7.979  0.3986 -0.4786 -0.0621
  168MOL0     C22594   6.005   2.373   7.862  0.4639 -0.7855 -1.1031
  168MOL0     N22595   6.486   2.860   7.591  0.4384 -0.3201  0.2125
  168MOL0     N22596   6.607   2.893   7.565 -0.4700  0.0168  0.0145
  168MOL0     C22597   6.497   2.081   6.988  0.3697  0.9021 -0.1022
  168MOL0     C22598   6.412   1.982   7.037 -0.3298 -0.3195 -0.0902
  168MOL0     C22599   6.142   1.738   7.324  0.1263 -0.4518 -0.1695
  168MOL0     C22600   6.007   1.771   7.358  0.7250  0.3601  0.0762
  168MOL0     C22601   5.914   1.668   7.372 -0.6583  0.5383 -0.2177
  168MOL0     C22602   5.944   1.527   7.348 -0.0508 -0.1290  0.3556
  168MOL0     O22603   5.834   1.456   7.363  0.9315  0.2077 -0.1798
  168MOL0     C22604   5.847   1.315   7.332 -0.2526 -0.2946 -0.5548
  168MOL0     C22605   5.827   1.288   7.185  1.0899  0.0307  0.2576
  168MOL0     C22606   5.722   1.369   7.119  0.6804  0.2582  0.3095
  168MOL0     C22607   5.585   1.313   7.151  0.8067  0.5311 -0.0394
  168MOL0     C22608   5.472   1.373   7.078  0.4097  0.2561  0.4586
  168MOL0     C22609   5.369   1.423   7.026 -0.1354 -0.3526 -0.7214
  168MOL0     C22610   6.082   1.492   7.337 -0.6032  0.0311 -0.6856
  168MOL0     C22611   6.174   1.598   7.325  0.4228 -0.3251  0.4573
  168MOL0     C22612   6.310   1.559   7.295  0.0626  0.6974  0.1481
  168MOL0     H22613   6.532   1.948   7.358 -1.6613 -1.7907 -0.7567
  168MOL0     H22614   6.680   2.122   7.273 -1.3706 -1.0706  2.8840
  168MOL0     H22615   6.794   2.267   7.210  0.2841  3.3247 -1.3131
  168MOL0     H22616   6.877   2.170   7.099  1.9505  1.3388 -0.2139
  168MOL0     H22617   6.820   2.414   6.978  0.5728 -0.5886 -0.4078
  168MOL0     H22618   6.962   2.317   6.977  0.6120 -0.7481 -0.5440
  168MOL0     H22619   7.033   2.522   7.075  0.5420 -1.8279 -1.0522
  168MOL0     H22620   7.026   2.437   7.214  1.0778  1.9294  0.0295
  168MOL0     H22621   6.798   2.605   7.100  0.7017 -2.1991 -1.4247
  168MOL0     H22622   6.785   2.525   7.261  0.3394  0.3095  0.4470
  168MOL0     H22623   7.004   2.671   7.308 -0.9924 -0.8985 -1.3326
  168MOL0     H22624   6.978   2.737   7.154 -0.1378 -1.0393 -1.1018
  168MOL0     H22625   6.736   2.800   7.238  1.2151  3.8056  0.6383
  168MOL0     H22626   6.763   2.706   7.387  1.7432 -1.7356  0.3200
  168MOL0     H22627   6.921   2.966   7.325  0.7497 -0.2195  1.4082
  168MOL0     H22628   6.891   2.887   7.479  0.9798 -2.7567 -1.5432
  168MOL0     H22629   6.752   3.086   7.456 -1.1958  0.2135  0.0658
  168MOL0     H22630   6.705   3.047   7.291  1.7879  0.3591 -0.5838
  168MOL0     H22631   6.473   2.903   7.267  1.8492  1.2049  0.0576
  168MOL0     H22632   6.209   2.892   7.414 -0.0553 -0.8373  1.9200
  168MOL0     H22633   6.272   2.727   7.380 -1.0100  0.5847 -1.1010
  168MOL0     H22634   6.239   2.660   7.626 -0.5402 -0.6540 -3.8827
  168MOL0     H22635   6.206   2.828   7.673  0.2450 -2.4512  1.9304
  168MOL0     H22636   6.024   2.644   7.499  0.2403 -0.5675 -0.2666
  168MOL0     H22637   6.006   2.819   7.528 -1.3997 -0.8699 -0.0777
  168MOL0     H22638   5.863   2.696   7.686 -0.1346 -1.4089  0.4427
  168MOL0     H22639   6.000   2.768   7.780 -0.5110 -0.8706  0.4883
  168MOL0     H22640   5.920   2.689   7.950  2.3126  0.7839 -1.5567
  168MOL0     H22641   5.891   2.576   8.173 -3.0138 -2.2634  0.8165
  168MOL0     H22642   5.733   2.104   8.326  0.8122  1.2069 -0.1158
  168MOL0     H22643   5.661   2.005   8.549 -1.2505  1.1964  0.2719
  168MOL0     H22644   6.000   1.935   8.844  0.0052  0.6939  0.3364
  168MOL0     H22645   5.957   2.107   8.849  4.3823 -2.0783 -1.5163
  168MOL0     H22646   5.925   2.044   9.075  0.8149  0.8293 -0.4785
  168MOL0     H22647   5.759   2.017   9.023 -0.1262  0.1858 -2.1351
  168MOL0     H22648   5.801   1.793   8.961 -3.0489  1.8449 -0.1596
  168MOL0     H22649   5.956   1.803   9.056  1.4934  1.3237  2.4292
  168MOL0     H22650   5.667   1.837   9.134 -0.5486 -0.2955  0.8575
  168MOL0     H22651   5.800   1.914   9.229  3.5080 -1.0874 -2.0223
  168MOL0     H22652   5.923   1.674   9.218 -0.6329 -0.4560 -1.0037
  168MOL0     H22653   5.781   1.605   9.184  1.4256 -0.5667  0.7847
  168MOL0     H22654   5.817   1.763   9.439  1.9615 -1.1953 -0.4695
  168MOL0     H22655   5.667   1.701   9.379 -0.2541  0.4065 -1.4213
  168MOL0     H22656   5.901   1.511   9.437 -2.4616 -2.4920 -1.4472
  168MOL0     H22657   5.750   1.461   9.397  1.7586 -1.1510 -3.1550
  168MOL0     H22658   5.670   1.626   9.611 -0.6676 -0.0267  0.7305
  168MOL0     H22659   5.736   1.456   9.634  2.4760 -0.3102  0.3471
  168MOL0     H22660   6.068   2.025   8.672 -0.6716 -2.8946 -0.1005
  168MOL0     H22661   6.122   2.130   8.450 -0.6053  1.6076 -3.1215
  168MOL0     H22662   5.985   2.199   7.985  0.9679 -0.3387  2.0973
  168MOL0     H22663   6.045   2.317   7.778  0.1134  0.7519 -2.3302
  168MOL0     H22664   6.487   2.116   6.886  1.9033  0.4606 -0.4223
  168MOL0     H22665   6.343   1.940   6.965 -0.2811  0.9297 -0.8939
  168MOL0     H22666   5.973   1.874   7.360  1.3083  0.5486  0.5351
  168MOL0     H22667   5.810   1.694   7.389 -1.6185 -1.4426 -2.4922
  168MOL0     H22668   5.755   1.274   7.374 -0.3141 -1.0027 -1.3489
  168MOL0     H22669   5.939   1.277   7.378 -0.6551  0.6262  1.0718
  168MOL0     H22670   5.823   1.180   7.170 -0.8692  0.4007 -2.9271
  168MOL0     H22671   5.915   1.325   7.132 -0.9401  0.5118 -3.0993
  168MOL0     H22672   5.722   1.354   7.011 -3.4665 -1.1100  0.3084
  168MOL0     H22673   5.727   1.476   7.138  0.6855  0.2159  0.5532
  168MOL0     H22674   5.592   1.206   7.127  2.9205  1.0008 -1.8243
  168MOL0     H22675   5.573   1.321   7.260  0.6702 -0.5960  0.0468
  168MOL0     H22676   5.286   1.477   6.985 -1.3198 -0.7938  0.9923
  168MOL0     H22677   6.115   1.389   7.334 -1.4395 -0.3875  2.1791
  168MOL0     H22678   6.378   1.614   7.362  4.2573 -0.4310 -2.7965
  168MOL0     H22679   6.322   1.452   7.314  0.9583  0.9368  0.9798
  168MOL0     H22680   6.326   1.588   7.191 -0.3625 -1.2827 -0.5163
  169MOL0     O22681   9.266   4.421   4.952  0.2710 -0.8859 -0.1169
  169MOL0     C22682   9.355   4.474   5.019 -0.4090 -0.0694  0.0005
  169MOL0     O22683   9.465   4.537   4.965  0.3877 -0.2262  0.2638
  169MOL0     C22684   9.471   4.580   4.829 -0.7632 -0.7846  0.6165
  169MOL0     C22685   9.373   4.663   4.774 -0.1916 -1.0318  0.6507
  169MOL0     C22686   9.390   4.713   4.649  0.7108 -0.3994  0.5638
  169MOL0     C22687   9.496   4.665   4.559 -0.4283  0.3367 -0.7208
  169MOL0     O22688   9.519   4.711   4.431  0.0870 -0.5959  0.7718
  169MOL0     C22689   9.440   4.813   4.360  0.2777 -1.1485  0.0544
  169MOL0     C22690   9.308   4.763   4.297  0.1558 -0.0021 -0.2805
  169MOL0     C22691   9.302   4.804   4.151  0.2363 -0.3937 -0.1198
  169MOL0     C22692   9.177   4.745   4.070 -0.6408 -0.2841 -0.3315
  169MOL0     C22693   9.226   4.740   3.927  0.4783  0.7701  0.8610
  169MOL0     C22694   9.225   4.880   3.860 -0.1357  0.4257 -0.7396
  169MOL0     C22695   9.248   4.884   3.708 -0.3667  0.1500 -0.6102
  169MOL0     C22696   9.389   4.827   3.673  0.3045  0.1833 -0.1886
  169MOL0     N22697   9.401   4.850   3.531 -0.4040 -0.0355  0.4217
  169MOL0     C22698   9.487   4.945   3.474  0.4151  0.7459  0.1126
  169MOL0     C22699   9.481   4.921   3.334  0.5574 -0.2398 -0.8641
  169MOL0     C22700   9.520   5.018   3.235  0.3772 -0.5532 -0.6024
  169MOL0     C22701   9.602   4.963   3.122  0.7588 -0.2153 -0.1565
  169MOL0     C22702   9.665   5.082   3.048  0.1879  0.5322 -0.2371
  169MOL0     C22703   9.563   5.151   2.950  0.0715  0.6294 -0.8160
  169MOL0     O22704   9.478   5.234   3.025  0.2263 -0.0493 -0.1899
  169MOL0     C22705   9.377   5.311   2.979 -0.1833  0.0297 -0.4611
  169MOL0     C22706   9.279   5.365   3.067 -1.8246 -0.1777 -0.7151
  169MOL0     C22707   9.174   5.434   3.013 -0.5681  0.2577  0.7756
  169MOL0     C22708   9.160   5.455   2.869  0.5262  0.5951  0.5086
  169MOL0     C22709   9.042   5.514   2.807  0.8708  0.8973  0.4553
  169MOL0     O22710   9.041   5.525   2.677 -1.1603  0.8158  0.7505
  169MOL0     C22711   8.931   5.568   2.609  0.1502 -0.0646 -0.5333
  169MOL0     C22712   8.882   5.506   2.503 -0.4217  0.2353 -0.2358
  169MOL0     C22713   8.788   5.561   2.417 -0.0008  0.6464 -0.6043
  169MOL0     C22714   8.739   5.690   2.438 -0.7227 -0.6047 -0.5274
  169MOL0     O22715   8.638   5.725   2.348 -0.4045  0.3058 -0.1419
  169MOL0     C22716   8.566   5.848   2.384  1.4169 -0.1586  0.4975
  169MOL0     C22717   8.471   5.893   2.269 -0.2849  0.4689  0.9409
  169MOL0     C22718   8.382   6.022   2.302  0.3310  0.8300 -1.2038
  169MOL0     C22719   8.311   6.067   2.174 -0.3154 -0.0017 -0.4409
  169MOL0     C22720   8.221   6.184   2.185  0.6896 -0.1960 -0.5387
  169MOL0     C22721   8.103   6.165   2.279  0.3534 -0.0633  0.6773
  169MOL0     C22722   8.003   6.284   2.276 -0.0308 -0.7108 -0.4620
  169MOL0     C22723   7.876   6.267   2.361  1.2241 -0.2250 -0.1450
  169MOL0    Cl22724   7.896   6.302   2.537  0.0720  0.3385 -0.4985
  169MOL0     C22725   8.785   5.757   2.553 -0.5822 -0.8570 -0.2461
  169MOL0     C22726   8.882   5.695   2.638 -0.0267 -0.3580  0.7987
  169MOL0     O22727   8.957   5.546   2.879 -0.4538 -0.0244 -0.7756
  169MOL0     C22728   9.262   5.396   2.791  0.3491 -0.6364  0.1721
  169MOL0     C22729   9.374   5.339   2.841 -0.2024  0.7708  0.5714
  169MOL0     N22730   9.399   4.811   3.312  0.7077  1.2326 -0.3185
  169MOL0     N22731   9.354   4.780   3.428  0.7553  0.8945 -0.2020
  169MOL0     C22732   9.590   4.582   4.615 -0.6045 -0.7257  0.3474
  169MOL0     C22733   9.583   4.545   4.752  0.0314  0.5595  0.2414
  169MOL0     C22734   9.347   4.477   5.171 -0.0681  0.0693 -0.9965
  169MOL0     C22735   9.459   4.523   5.247  0.3163  0.2214  0.3867
  169MOL0     C22736   9.455   4.524   5.385 -0.2494  0.0093  0.1521
  169MOL0     C22737   9.348   4.480   5.453 -0.1925 -0.4238 -0.8385
  169MOL0     O22738   9.357   4.506   5.591  0.5468 -0.1303  0.0922
  169MOL0     C22739   9.253   4.441   5.669  0.3167  0.8238  0.2983
  169MOL0     C22740   9.298   4.480   5.806  0.9951 -0.7824 -0.3353
  169MOL0     C22741   9.205   4.419   5.911 -0.2539  0.9423 -0.9263
  169MOL0     C22742   9.208   4.474   6.060 -0.0713  0.5595 -0.1103
  169MOL0     C22743   9.114   4.397   6.150 -0.0708  0.2597 -0.0766
  169MOL0     C22744   9.042   4.341   6.232  0.1688 -0.5192 -0.1690
  169MOL0     C22745   9.238   4.427   5.381 -0.4945 -0.7022  0.0966
  169MOL0     C22746   9.233   4.433   5.243  0.1084 -0.2716  0.0048
  169MOL0     C22747   9.098   4.400   5.181 -0.0611 -0.0882 -0.0844
  169MOL0     H22748   9.297   4.707   4.837 -0.0077  1.0017 -0.4428
  169MOL0     H22749   9.322   4.783   4.601  3.9090  1.3122 -1.8907
  169MOL0     H22750   9.412   4.895   4.426 -0.6246 -0.3022 -1.3158
  169MOL0     H22751   9.493   4.861   4.277 -0.6486  0.3679  0.3171
  169MOL0     H22752   9.230   4.819   4.349  1.6218  2.9821 -1.0719
  169MOL0     H22753   9.291   4.656   4.317 -5.3826  0.9733  1.9402
  169MOL0     H22754   9.392   4.764   4.104  1.8238  1.5707  1.0996
  169MOL0     H22755   9.318   4.912   4.143  1.6944 -0.6165 -0.4217
  169MOL0     H22756   9.154   4.642   4.098 -0.9565  0.5266  2.7103
  169MOL0     H22757   9.090   4.811   4.081  0.1660  0.4338  2.8605
  169MOL0     H22758   9.326   4.697   3.927  0.0751 -0.2146  1.3413
  169MOL0     H22759   9.164   4.660   3.883 -0.5945  2.2147 -0.3867
  169MOL0     H22760   9.124   4.919   3.874  0.4564  2.7694 -2.4128
  169MOL0     H22761   9.297   4.946   3.910  0.3491  1.5516 -2.7909
  169MOL0     H22762   9.236   4.974   3.648  1.3066 -0.5968 -2.1663
  169MOL0     H22763   9.173   4.818   3.663  0.5137 -0.4937 -1.1796
  169MOL0     H22764   9.469   4.858   3.741  1.4771 -2.1871 -0.3556
  169MOL0     H22765   9.396   4.718   3.680 -2.5805 -0.1255 -0.8436
  169MOL0     H22766   9.547   5.025   3.515  0.7266  2.0097 -2.5865
  169MOL0     H22767   9.431   5.073   3.203 -0.1029 -2.0361 -1.9853
  169MOL0     H22768   9.577   5.097   3.285 -2.2635  1.0925 -0.0126
  169MOL0     H22769   9.682   4.898   3.160  0.1566  0.3947  2.3223
  169MOL0     H22770   9.549   4.896   3.055  0.2688 -0.5396  0.5427
  169MOL0     H22771   9.748   5.039   2.993 -1.6835 -1.8485 -1.4261
  169MOL0     H22772   9.704   5.154   3.121  2.6817 -1.2326  0.3068
  169MOL0     H22773   9.500   5.081   2.894 -1.5153  1.7181 -0.4447
  169MOL0     H22774   9.618   5.213   2.878  0.0321  0.4672 -0.9880
  169MOL0     H22775   9.296   5.327   3.167 -0.9518 -2.1964 -1.5545
  169MOL0     H22776   9.104   5.479   3.083  2.3057 -0.3963  4.4199
  169MOL0     H22777   8.932   5.414   2.476 -0.5224  0.3384 -0.7852
  169MOL0     H22778   8.756   5.499   2.335 -0.9910 -2.7759  2.1414
  169MOL0     H22779   8.513   5.824   2.477 -1.2145 -3.3462 -1.6103
  169MOL0     H22780   8.629   5.937   2.394 -0.9040  1.4802  1.4964
  169MOL0     H22781   8.533   5.912   2.181 -0.0575  0.9657  1.2061
  169MOL0     H22782   8.412   5.805   2.240  1.4341 -0.7455  0.9868
  169MOL0     H22783   8.316   6.003   2.387 -0.2239  0.1442 -1.7791
  169MOL0     H22784   8.445   6.106   2.334  0.3604 -0.2547  1.9135
  169MOL0     H22785   8.241   5.986   2.150 -2.1557  1.0781  0.9808
  169MOL0     H22786   8.387   6.091   2.099 -1.2543  1.8533 -0.8604
  169MOL0     H22787   8.178   6.199   2.085  1.7787 -3.0192 -1.5196
  169MOL0     H22788   8.290   6.266   2.209  1.8183 -0.6247 -2.1730
  169MOL0     H22789   8.047   6.073   2.261 -0.0615  0.0160  1.5089
  169MOL0     H22790   8.143   6.157   2.381  0.1839  1.8715  0.9474
  169MOL0     H22791   7.969   6.304   2.174  1.2280  0.7889 -0.6208
  169MOL0     H22792   8.048   6.369   2.327  1.1370 -1.5481 -0.0502
  169MOL0     H22793   7.797   6.336   2.331  0.1884 -0.4335  1.9243
  169MOL0     H22794   7.841   6.165   2.339  0.5468 -0.1220  0.4300
  169MOL0     H22795   8.757   5.860   2.572 -1.6637 -0.2600 -4.1943
  169MOL0     H22796   8.920   5.755   2.720  2.6704 -0.2841 -0.3878
  169MOL0     H22797   9.272   5.415   2.684  1.1005 -3.9141 -0.4321
  169MOL0     H22798   9.455   5.296   2.782 -2.6999 -1.6972 -1.3882
  169MOL0     H22799   9.677   4.584   4.551 -0.0242  0.9834  1.1301
  169MOL0     H22800   9.660   4.476   4.785 -0.8391 -1.1367 -1.1319
  169MOL0     H22801   9.542   4.561   5.187 -0.3382  1.5290  0.2652
  169MOL0     H22802   9.540   4.582   5.420  0.4350  0.1218 -1.5943
  169MOL0     H22803   9.260   4.334   5.647 -1.2860  0.6347  0.5926
  169MOL0     H22804   9.150   4.467   5.644  0.1195 -1.2623 -1.3110
  169MOL0     H22805   9.284   4.589   5.803 -2.5628 -1.1331 -0.1035
  169MOL0     H22806   9.401   4.453   5.833  2.0388  0.8003 -2.3871
  169MOL0     H22807   9.215   4.311   5.920 -1.8203  0.9356  5.6791
  169MOL0     H22808   9.105   4.448   5.877  0.4982  2.5205 -1.8922
  169MOL0     H22809   9.315   4.466   6.081  0.9608 -0.4401 -4.5883
  169MOL0     H22810   9.175   4.578   6.066 -0.8695  0.2600  0.9844
  169MOL0     H22811   8.996   4.287   6.312 -1.5101  0.8868 -0.1282
  169MOL0     H22812   9.154   4.382   5.433 -0.1630 -2.0164 -0.4561
  169MOL0     H22813   9.094   4.307   5.124 -2.8051 -0.5443  0.6930
  169MOL0     H22814   9.015   4.383   5.251 -0.8562  0.3506 -0.8930
  169MOL0     H22815   9.067   4.486   5.121  0.4721  0.5345  0.5186
  170MOL0     O22816   7.838   4.603   1.722 -0.5094 -0.0177  0.6397
  170MOL0     C22817   7.816   4.538   1.621 -0.0276  0.8132 -0.9906
  170MOL0     O22818   7.911   4.460   1.548 -0.3696 -0.5656  0.2203
  170MOL0     C22819   8.038   4.465   1.582 -0.4418  0.6273 -0.4820
  170MOL0     C22820   8.082   4.459   1.716  0.2227 -1.0104 -0.0965
  170MOL0     C22821   8.216   4.473   1.755 -1.0152  0.3092  0.3355
  170MOL0     C22822   8.307   4.489   1.659  0.0733 -0.3264  0.3473
  170MOL0     O22823   8.437   4.471   1.685  0.6349  0.0860  0.2980
  170MOL0     C22824   8.493   4.581   1.757 -0.5332 -0.2557  0.0095
  170MOL0     C22825   8.623   4.633   1.676  0.2505  0.1611  0.1587
  170MOL0     C22826   8.577   4.755   1.580  0.6455 -0.2396  0.6785
  170MOL0     C22827   8.664   4.781   1.459  0.5794  0.1493 -0.1457
  170MOL0     C22828   8.618   4.900   1.373 -0.5165 -0.7289 -1.5854
  170MOL0     C22829   8.482   4.882   1.314  0.5857  0.0625  0.0963
  170MOL0     C22830   8.507   4.896   1.164  0.3183  0.7489  0.6795
  170MOL0     C22831   8.380   4.894   1.072 -0.6138 -0.2559  0.1482
  170MOL0     N22832   8.308   5.018   1.105  0.2541 -0.2331 -0.3416
  170MOL0     C22833   8.216   5.023   1.200 -0.3302 -0.9362  0.3148
  170MOL0     C22834   8.176   5.152   1.192 -0.1786  0.2341  0.6293
  170MOL0     C22835   8.064   5.209   1.269  0.2029 -0.1585 -0.2494
  170MOL0     C22836   8.121   5.274   1.400  0.6944  0.8203  0.2030
  170MOL0     C22837   8.011   5.297   1.496  0.7793 -0.9094 -1.0706
  170MOL0     C22838   8.077   5.364   1.618 -1.0812 -0.0238  0.0285
  170MOL0     O22839   8.002   5.322   1.738  0.2719  0.2089 -0.0637
  170MOL0     C22840   8.024   5.387   1.851  0.0889 -0.5401 -0.2078
  170MOL0     C22841   7.982   5.316   1.965 -0.1187  0.9722  0.0022
  170MOL0     C22842   7.994   5.369   2.095 -0.3322  0.2467  0.4939
  170MOL0     C22843   8.046   5.498   2.108 -0.4636 -0.3982  0.4641
  170MOL0     C22844   8.039   5.555   2.248 -0.0248 -1.0631 -0.1825
  170MOL0     O22845   8.066   5.688   2.256 -0.4903  0.1110  0.3298
  170MOL0     C22846   8.081   5.748   2.379  0.6211  0.4318 -0.1646
  170MOL0     C22847   8.188   5.713   2.458 -0.1803  0.4978  0.3367
  170MOL0     C22848   8.210   5.760   2.587  0.8772 -0.2800  0.2330
  170MOL0     C22849   8.117   5.851   2.634 -0.3744 -0.8934 -0.5337
  170MOL0     O22850   8.119   5.904   2.764 -1.0918 -0.8306 -0.3775
  170MOL0     C22851   8.155   5.817   2.863  0.6978 -0.2021 -0.3766
  170MOL0     C22852   8.119   5.891   2.993 -0.5474  0.7860 -0.3368
  170MOL0     C22853   8.104   5.795   3.109  0.9906 -0.5160  1.1806
  170MOL0     C22854   7.957   5.757   3.123  0.2972  0.1966  0.3045
  170MOL0     C22855   7.916   5.711   3.255 -0.3391 -0.2444  0.0416
  170MOL0     C22856   7.763   5.702   3.274 -0.0477 -0.0052 -0.2507
  170MOL0     C22857   7.727   5.666   3.419  1.2206  0.2473 -0.5100
  170MOL0     C22858   7.583   5.686   3.462 -0.0715 -0.2081  0.3280
  170MOL0    Cl22859   7.529   5.850   3.445 -0.1811 -0.1167  0.6755
  170MOL0     C22860   7.995   5.876   2.567  0.0866 -0.1632 -0.5054
  170MOL0     C22861   7.979   5.833   2.435  0.2948  1.4455  0.3084
  170MOL0     O22862   7.990   5.490   2.339  0.1806  0.0982 -0.9238
  170MOL0     C22863   8.092   5.576   1.988 -0.0060  1.1402  0.0232
  170MOL0     C22864   8.076   5.512   1.868 -0.4551 -0.7281 -0.4622
  170MOL0     N22865   8.233   5.211   1.084 -0.3427  0.0836  0.2933
  170MOL0     N22866   8.315   5.128   1.022 -0.2737 -0.0299  0.0660
  170MOL0     C22867   8.269   4.501   1.525 -0.0550  0.0634 -0.0707
  170MOL0     C22868   8.139   4.487   1.487  0.9361 -1.0597 -0.9654
  170MOL0     C22869   7.668   4.539   1.582  0.1288  0.3016  0.3883
  170MOL0     C22870   7.636   4.522   1.443 -0.9178 -0.1217 -0.1133
  170MOL0     C22871   7.505   4.537   1.401  0.9496  0.6990 -0.6781
  170MOL0     C22872   7.406   4.565   1.497  0.5520  0.0035 -0.2432
  170MOL0     O22873   7.276   4.565   1.455  0.4742  0.4976  0.0887
  170MOL0     C22874   7.249   4.666   1.360  0.7847 -0.5228 -0.1712
  170MOL0     C22875   7.216   4.805   1.425  1.0294 -0.1868 -0.1824
  170MOL0     C22876   7.202   4.917   1.310  0.4248 -0.7776 -0.5572
  170MOL0     C22877   7.271   5.050   1.321 -0.3719  0.4878 -0.2760
  170MOL0     C22878   7.236   5.100   1.450  0.4689 -0.8290  1.5938
  170MOL0     C22879   7.209   5.142   1.557  0.4377  0.7251  0.4705
  170MOL0     C22880   7.431   4.570   1.638  0.1709 -0.5490  1.2586
  170MOL0     C22881   7.564   4.563   1.675  0.0461  0.6936  0.6101
  170MOL0     C22882   7.573   4.584   1.826 -0.3381 -0.0254 -0.0662
  170MOL0     H22883   8.005   4.442   1.790  1.8173  0.2491  1.9462
  170MOL0     H22884   8.245   4.464   1.859  2.9033 -1.5798 -0.7185
  170MOL0     H22885   8.425   4.664   1.776  1.3075  1.4709 -0.5492
  170MOL0     H22886   8.526   4.543   1.854 -1.5643 -3.3049 -0.7269
  170MOL0     H22887   8.649   4.547   1.613 -3.3721  0.5087 -2.1029
  170MOL0     H22888   8.711   4.665   1.733  0.2047  1.2407 -0.3478
  170MOL0     H22889   8.553   4.841   1.644 -0.2684  0.6810 -0.8331
  170MOL0     H22890   8.478   4.723   1.545 -0.2335  3.3130 -0.4788
  170MOL0     H22891   8.758   4.817   1.501 -0.4682 -0.1411  2.6169
  170MOL0     H22892   8.671   4.683   1.409 -0.4999  0.8380 -1.7460
  170MOL0     H22893   8.610   4.989   1.436 -1.0232 -2.3326  0.7389
  170MOL0     H22894   8.687   4.926   1.293  1.3527  0.6111  0.3501
  170MOL0     H22895   8.430   4.793   1.350 -2.0795  2.2620  2.2371
  170MOL0     H22896   8.414   4.964   1.341 -2.5938 -2.5174  0.5580
  170MOL0     H22897   8.557   4.803   1.136 -1.4544  0.5219 -2.1942
  170MOL0     H22898   8.569   4.978   1.128 -3.0598  3.5408  0.6464
  170MOL0     H22899   8.395   4.903   0.964 -2.1089  1.6422  0.0394
  170MOL0     H22900   8.333   4.797   1.087  0.3162 -0.7713 -0.1927
  170MOL0     H22901   8.176   4.945   1.264 -0.1411  1.0182  2.9850
  170MOL0     H22902   8.015   5.284   1.206 -1.8057 -1.8341 -0.7744
  170MOL0     H22903   7.987   5.136   1.293 -0.9933  1.8438  2.5485
  170MOL0     H22904   8.189   5.204   1.449  0.3645  0.9926  0.9092
  170MOL0     H22905   8.189   5.353   1.368  2.8191 -0.7304  0.6641
  170MOL0     H22906   7.986   5.195   1.524  1.3803 -1.2835 -1.8493
  170MOL0     H22907   7.934   5.355   1.446  0.6241 -1.2987 -1.2813
  170MOL0     H22908   8.068   5.472   1.614 -0.8842  0.0898  1.7823
  170MOL0     H22909   8.183   5.341   1.635 -1.1739 -0.7046 -0.2569
  170MOL0     H22910   7.951   5.212   1.950 -1.2399  1.0345  1.6853
  170MOL0     H22911   7.963   5.301   2.173  2.4680 -2.2226 -0.3691
  170MOL0     H22912   8.251   5.644   2.403 -1.9283 -0.7055 -0.2313
  170MOL0     H22913   8.298   5.740   2.647  0.1096  1.4236  2.0435
  170MOL0     H22914   8.104   5.720   2.856  0.8236 -0.2637 -0.4244
  170MOL0     H22915   8.260   5.791   2.877  0.2054 -2.7349 -0.9531
  170MOL0     H22916   8.205   5.955   3.020 -0.4845 -0.1597  2.0051
  170MOL0     H22917   8.035   5.957   2.974 -0.4946  0.7214 -0.7921
  170MOL0     H22918   8.151   5.700   3.085 -1.6078 -1.4693 -0.6107
  170MOL0     H22919   8.139   5.839   3.203  2.8465 -0.1395  0.3596
  170MOL0     H22920   7.937   5.688   3.040 -3.7920 -0.8617  1.9183
  170MOL0     H22921   7.890   5.840   3.098  0.7135  0.3301 -0.3953
  170MOL0     H22922   7.942   5.795   3.321 -0.5817  1.5051 -2.0119
  170MOL0     H22923   7.969   5.619   3.285 -0.6888  0.2093  2.2660
  170MOL0     H22924   7.724   5.801   3.244  1.6055 -0.2643 -3.7845
  170MOL0     H22925   7.717   5.632   3.203 -4.4298  2.5162 -0.2995
  170MOL0     H22926   7.791   5.714   3.494 -1.7528  0.4474  2.1280
  170MOL0     H22927   7.741   5.558   3.430  0.1752  0.2130  0.8677
  170MOL0     H22928   7.518   5.629   3.396  1.4780  1.4123 -2.8154
  170MOL0     H22929   7.565   5.646   3.563 -2.7192 -1.0884 -0.4064
  170MOL0     H22930   7.916   5.928   2.620 -1.4984 -1.8868 -1.0819
  170MOL0     H22931   7.882   5.837   2.385  1.5852 -1.7672 -2.9082
  170MOL0     H22932   8.139   5.673   1.993  0.9148  0.6753  0.6467
  170MOL0     H22933   8.115   5.570   1.785 -0.8743  1.0555  0.5542
  170MOL0     H22934   8.353   4.518   1.459  0.3036  1.1453  0.6345
  170MOL0     H22935   8.110   4.502   1.383  1.7914  1.6557 -0.9008
  170MOL0     H22936   7.718   4.518   1.372 -0.8061 -0.2730  0.0267
  170MOL0     H22937   7.475   4.510   1.300 -0.1276  3.1464 -1.0721
  170MOL0     H22938   7.171   4.638   1.288 -0.2780 -0.8993  1.0855
  170MOL0     H22939   7.334   4.681   1.292 -0.5223 -1.6447 -2.1839
  170MOL0     H22940   7.300   4.821   1.493  0.7123 -1.0106  0.4202
  170MOL0     H22941   7.123   4.799   1.482  1.3939  0.3421  0.4903
  170MOL0     H22942   7.094   4.932   1.302  0.4146 -1.1624 -1.1878
  170MOL0     H22943   7.238   4.870   1.218 -0.8808  1.2696 -2.2128
  170MOL0     H22944   7.374   5.023   1.297 -0.9157 -1.8477 -0.1388
  170MOL0     H22945   7.231   5.128   1.255  0.5281  1.9018  0.7962
  170MOL0     H22946   7.185   5.188   1.651 -1.8504  3.8735 -1.4590
  170MOL0     H22947   7.344   4.580   1.702 -0.0663 -2.7918  1.3935
  170MOL0     H22948   7.634   4.507   1.875 -1.6675 -0.9775  0.1467
  170MOL0     H22949   7.610   4.685   1.848  0.4929 -0.1080 -1.0033
  170MOL0     H22950   7.471   4.572   1.863  0.6334 -0.4994  2.7175
  171MOL0     O22951   3.522   8.642   8.751 -0.4193  0.0655 -0.2385
  171MOL0     C22952   3.552   8.576   8.653  1.0785 -0.2287  0.9033
  171MOL0     O22953   3.557   8.615   8.520 -0.3456 -0.4191  0.3735
  171MOL0     C22954   3.506   8.742   8.505  0.2949  0.1710  0.2049
  171MOL0     C22955   3.378   8.794   8.540  0.6010  0.0749 -0.7247
  171MOL0     C22956   3.324   8.917   8.498  0.4281 -0.5342 -0.2248
  171MOL0     C22957   3.416   8.996   8.430  0.4443 -0.5750 -0.6210
  171MOL0     O22958   3.355   9.115   8.376 -0.4429 -0.3159 -0.2434
  171MOL0     C22959   3.439   9.216   8.315 -0.7286  0.2884  0.6180
  171MOL0     C22960   3.409   9.349   8.380  0.2484 -0.1957 -0.1062
  171MOL0     C22961   3.266   9.415   8.361  0.5652  0.6308 -0.2650
  171MOL0     C22962   3.223   9.424   8.214  0.1864  0.3073 -0.6662
  171MOL0     C22963   3.106   9.512   8.195  0.7019  0.0162 -0.0201
  171MOL0     C22964   2.983   9.479   8.267  0.3614  0.4617 -0.9003
  171MOL0     C22965   2.869   9.575   8.232 -0.1488 -1.2691  0.2136
  171MOL0     C22966   2.726   9.533   8.297 -0.0322 -1.5556 -0.8485
  171MOL0     N22967   2.736   9.552   8.443  0.1908 -0.2876 -0.3309
  171MOL0     C22968   2.745   9.449   8.536  0.0403 -0.3514 -0.4789
  171MOL0     C22969   2.721   9.503   8.659  0.1081  0.1197  0.5193
  171MOL0     C22970   2.719   9.436   8.799 -0.3638  0.3206 -0.2623
  171MOL0     C22971   2.575   9.412   8.845 -0.1721 -0.3637 -0.7296
  171MOL0     C22972   2.561   9.366   8.992 -0.1446 -0.5377  0.7133
  171MOL0     C22973   2.427   9.307   9.029 -0.1456  0.9742 -0.5171
  171MOL0     O22974   2.316   9.377   8.974  0.0382  0.6002 -0.1203
  171MOL0     C22975   2.246   9.467   9.060  0.1405  0.7132  0.0086
  171MOL0     C22976   2.121   9.503   9.011  0.3740 -0.4311 -1.0013
  171MOL0     C22977   2.036   9.590   9.083 -0.5275  0.7545 -0.9528
  171MOL0     C22978   2.087   9.649   9.203  0.7061 -0.6654  1.0720
  171MOL0     C22979   1.996   9.749   9.277 -0.2978 -0.8545 -1.1557
  171MOL0     O22980   2.039   9.787   9.405 -0.8443 -0.0549 -0.1817
  171MOL0     C22981   1.947   9.807   9.497  0.9431  0.3736  0.1691
  171MOL0     C22982   1.949   9.930   9.561  0.0139 -0.3221 -0.3272
  171MOL0     C22983   1.864   9.956   9.662  0.0027  0.4679 -0.0094
  171MOL0     C22984   1.772   9.861   9.718  0.4809  0.1658 -0.0977
  171MOL0     O22985   1.690   9.903   9.825 -0.8973 -0.3344 -0.6013
  171MOL0     C22986   1.591   9.812   9.853  0.2018 -0.0951 -0.7525
  171MOL0     C22987   1.489   9.859   9.953  0.7557 -0.8214 -0.7411
  171MOL0     C22988   1.538   9.872  10.099 -0.7975  0.8989  0.2666
  171MOL0     C22989   1.426   9.920  10.188 -0.7379 -0.7887  0.2203
  171MOL0     C22990   1.491   9.938  10.325  0.0697  0.0365  0.6289
  171MOL0     C22991   1.436  10.037  10.419  1.3541  0.6101  0.1416
  171MOL0     C22992   1.524  10.033  10.549  0.2569  0.2889  0.7644
  171MOL0     C22993   1.482  10.149  10.635  0.0839 -0.4163  0.4595
  171MOL0    Cl22994   1.317  10.117  10.690  0.2292  0.0933 -0.4241
  171MOL0     C22995   1.780   9.728   9.657 -0.2297 -0.5340  0.2048
  171MOL0     C22996   1.866   9.707   9.544 -0.3320 -0.2674  0.7409
  171MOL0     O22997   1.892   9.785   9.223 -0.7130  0.8674 -0.3156
  171MOL0     C22998   2.212   9.618   9.236  0.0170 -0.4476  0.7948
  171MOL0     C22999   2.294   9.524   9.179  0.0217 -0.3745 -0.3814
  171MOL0     N23000   2.706   9.640   8.637 -0.6869 -0.4964  0.7837
  171MOL0     N23001   2.722   9.670   8.508  0.9732  0.0874  0.1428
  171MOL0     C23002   3.547   8.952   8.403  0.6388  0.1204 -0.2094
  171MOL0     C23003   3.591   8.825   8.435  0.8830 -0.3213  0.1268
  171MOL0     C23004   3.591   8.428   8.675  0.4168 -0.3747  0.0077
  171MOL0     C23005   3.623   8.350   8.562  0.2132  0.3411 -0.1051
  171MOL0     C23006   3.685   8.222   8.568  0.6573 -0.5360  1.0347
  171MOL0     C23007   3.721   8.180   8.691  0.2029  0.4892  0.1844
  171MOL0     O23008   3.786   8.049   8.704 -0.4041 -0.1758  0.5385
  171MOL0     C23009   3.928   8.043   8.676  0.2376 -0.0037 -0.4067
  171MOL0     C23010   3.999   8.101   8.798 -1.2045 -0.8162 -1.1452
  171MOL0     C23011   4.016   8.014   8.924 -0.0973  0.0418  0.1790
  171MOL0     C23012   4.042   8.096   9.050 -0.0885 -0.2813 -0.0287
  171MOL0     C23013   4.058   8.007   9.165  0.4228  0.1504  0.2806
  171MOL0     C23014   4.064   7.926   9.248 -0.3475 -0.4419  0.0364
  171MOL0     C23015   3.681   8.246   8.804  0.3878  0.1066  0.0834
  171MOL0     C23016   3.620   8.372   8.801  0.5818  0.0687 -0.2396
  171MOL0     C23017   3.595   8.436   8.932 -0.3484  0.1659  0.4845
  171MOL0     H23018   3.325   8.721   8.601  2.1236  1.6679  2.8543
  171MOL0     H23019   3.225   8.955   8.521  0.7472  0.3489 -0.2738
  171MOL0     H23020   3.546   9.199   8.330 -0.3111  2.1805  0.0526
  171MOL0     H23021   3.410   9.225   8.210  0.5642 -2.0998 -0.0080
  171MOL0     H23022   3.478   9.429   8.353  0.0495 -0.4028 -1.2572
  171MOL0     H23023   3.412   9.343   8.489  0.9721  1.2121 -0.0258
  171MOL0     H23024   3.272   9.512   8.412 -2.2473 -0.6522  2.8829
  171MOL0     H23025   3.197   9.351   8.417  0.1388  2.8518  1.9507
  171MOL0     H23026   3.310   9.464   8.161 -1.6252  2.9704 -1.9139
  171MOL0     H23027   3.202   9.322   8.180  0.2775  0.0527  0.0425
  171MOL0     H23028   3.128   9.615   8.224 -4.8541  1.4244  0.1676
  171MOL0     H23029   3.091   9.512   8.087 -0.9509  0.8096  0.1870
  171MOL0     H23030   2.955   9.379   8.235  0.8714  0.2918 -0.8282
  171MOL0     H23031   2.980   9.483   8.377 -1.5672  0.6766 -0.9242
  171MOL0     H23032   2.856   9.590   8.124  0.8969 -1.7976  0.0000
  171MOL0     H23033   2.888   9.680   8.255  3.0688 -0.6064 -4.1801
  171MOL0     H23034   2.642   9.596   8.265 -1.3627 -2.1311  1.2888
  171MOL0     H23035   2.692   9.431   8.277 -1.2743 -1.0226 -1.5705
  171MOL0     H23036   2.766   9.343   8.522 -2.9054 -1.6459  3.2357
  171MOL0     H23037   2.780   9.345   8.801  0.2775  0.6587 -2.4110
  171MOL0     H23038   2.768   9.515   8.857 -1.7425  0.9789  0.0497
  171MOL0     H23039   2.527   9.508   8.830  2.9854  2.0043  2.4378
  171MOL0     H23040   2.518   9.343   8.782 -0.3565 -1.0618  0.1753
  171MOL0     H23041   2.566   9.454   9.057 -3.1403 -1.6439  2.6781
  171MOL0     H23042   2.644   9.298   9.014  1.4039  0.3413 -2.0304
  171MOL0     H23043   2.430   9.299   9.138 -0.6758 -0.1410 -0.5634
  171MOL0     H23044   2.421   9.205   8.989 -2.1588  1.1587 -0.8249
  171MOL0     H23045   2.079   9.452   8.924 -0.4344  0.4846 -1.1686
  171MOL0     H23046   1.935   9.623   9.059 -1.5242  1.4139  3.3612
  171MOL0     H23047   2.002  10.016   9.523 -2.8179  0.2468 -3.5338
  171MOL0     H23048   1.882  10.051   9.711 -2.3454  0.1044  1.7355
  171MOL0     H23049   1.531   9.781   9.767  0.3489 -3.2309  0.1314
  171MOL0     H23050   1.644   9.720   9.881  2.2697  1.7059  1.6415
  171MOL0     H23051   1.475   9.964   9.928  0.1300  0.8541  5.2956
  171MOL0     H23052   1.393   9.806   9.949  0.2348  0.1364 -1.1992
  171MOL0     H23053   1.583   9.777  10.127 -2.1591 -0.1587 -0.9594
  171MOL0     H23054   1.623   9.941  10.099 -0.6369  0.7027  0.7033
  171MOL0     H23055   1.338   9.856  10.202 -1.1184 -0.2899  0.1305
  171MOL0     H23056   1.399  10.021  10.157  0.5566 -0.1838  0.9550
  171MOL0     H23057   1.591   9.982  10.317  0.8967 -2.1010 -2.3278
  171MOL0     H23058   1.503   9.840  10.372 -0.4612  0.0038  0.7013
  171MOL0     H23059   1.446  10.141  10.385 -2.1816  0.9832 -0.0934
  171MOL0     H23060   1.329  10.017  10.432  1.6411 -0.6883  0.7181
  171MOL0     H23061   1.628  10.031  10.517 -0.4263  1.7059 -1.8026
  171MOL0     H23062   1.501   9.938  10.598 -0.6866  1.0023  1.7669
  171MOL0     H23063   1.555  10.144  10.716 -1.5091 -0.9338  1.9399
  171MOL0     H23064   1.490  10.243  10.580  2.4107 -0.7855  0.0495
  171MOL0     H23065   1.711   9.647   9.680 -1.3288  0.0877 -0.7442
  171MOL0     H23066   1.877   9.608   9.500  4.6957  1.5916 -3.2438
  171MOL0     H23067   2.258   9.684   9.309  0.6642  1.2251 -1.0263
  171MOL0     H23068   2.390   9.497   9.222 -0.9332 -0.7972  1.5861
  171MOL0     H23069   3.604   9.010   8.331 -1.7183  0.2374 -2.1063
  171MOL0     H23070   3.686   8.793   8.393  1.0576 -1.0703  1.0641
  171MOL0     H23071   3.586   8.401   8.473 -0.5553  2.2780  1.2524
  171MOL0     H23072   3.683   8.160   8.479 -0.6149  2.9875 -1.6367
  171MOL0     H23073   3.950   8.083   8.577 -0.2937 -1.4826 -1.1525
  171MOL0     H23074   3.961   7.939   8.670 -0.7988 -0.4948  1.4084
  171MOL0     H23075   3.960   8.199   8.827  1.3929 -0.2853  1.0447
  171MOL0     H23076   4.100   8.127   8.764 -0.7025 -1.1797 -0.0063
  171MOL0     H23077   4.092   7.937   8.908  1.3419  0.9401  2.2467
  171MOL0     H23078   3.918   7.974   8.954  0.4633 -1.4208  0.1289
  171MOL0     H23079   4.136   8.151   9.035 -0.6087  0.4867 -0.5529
  171MOL0     H23080   3.959   8.157   9.085 -0.3092 -1.9931  2.6915
  171MOL0     H23081   4.068   7.835   9.304  2.0589  0.2112  1.0501
  171MOL0     H23082   3.706   8.191   8.894  0.7249 -1.9153 -1.1881
  171MOL0     H23083   3.681   8.503   8.932 -0.7335  0.9965 -3.8026
  171MOL0     H23084   3.507   8.500   8.927 -0.7763 -0.4785 -1.3722
  171MOL0     H23085   3.595   8.365   9.015  3.5413 -2.7164 -1.5892
  172MOL0     O23086   5.852  10.838   8.896 -0.1567  0.1626  0.1990
  172MOL0     C23087   5.792  10.742   8.933 -0.1046 -0.4650  0.4953
  172MOL0     O23088   5.748  10.645   8.848  0.5135 -0.1153  0.2694
  172MOL0     C23089   5.769  10.650   8.711  0.0389 -0.8160  0.0759
  172MOL0     C23090   5.753  10.759   8.623  0.4634 -0.2533  0.0764
  172MOL0     C23091   5.749  10.753   8.480  0.7390 -0.3218 -0.2756
  172MOL0     C23092   5.763  10.624   8.423 -0.0941 -0.4932  0.5489
  172MOL0     O23093   5.758  10.610   8.283  0.7314 -0.7399  0.7219
  172MOL0     C23094   5.806  10.490   8.226 -0.6218  0.4779 -0.0655
  172MOL0     C23095   5.832  10.541   8.085 -0.6171  0.3356  0.4079
  172MOL0     C23096   5.887  10.428   8.002  0.0764  0.1458 -0.9533
  172MOL0     C23097   5.940  10.479   7.861  0.3794  0.3112 -0.1530
  172MOL0     C23098   5.984  10.371   7.768 -0.0709 -0.3713  0.0571
  172MOL0     C23099   6.123  10.316   7.810  0.1148  0.5788 -0.2719
  172MOL0     C23100   6.245  10.390   7.771  0.4192 -0.6893  0.0171
  172MOL0     C23101   6.309  10.397   7.624  0.0487  0.7875 -0.8340
  172MOL0     N23102   6.228  10.483   7.537 -0.2970 -0.5161  0.2213
  172MOL0     C23103   6.212  10.615   7.560  0.2549 -0.4911 -0.2467
  172MOL0     C23104   6.131  10.660   7.459 -1.3515 -0.3891  0.1111
  172MOL0     C23105   6.084  10.806   7.432  0.4395  0.7338  0.6273
  172MOL0     C23106   6.168  10.935   7.447  0.4484  1.2769 -0.7543
  172MOL0     C23107   6.112  11.075   7.421  0.4752  0.6144 -0.5710
  172MOL0     C23108   6.042  11.088   7.291  0.5129 -0.3881  0.4605
  172MOL0     O23109   6.122  11.076   7.178  0.0853 -0.8605  0.0323
  172MOL0     C23110   6.240  11.150   7.172  0.1037  0.1999 -0.0003
  172MOL0     C23111   6.343  11.093   7.097 -0.3144  0.3636 -0.0221
  172MOL0     C23112   6.469  11.144   7.098  0.0984 -0.6758  0.6829
  172MOL0     C23113   6.500  11.265   7.168  0.1993  0.0384 -0.3723
  172MOL0     C23114   6.643  11.321   7.169  1.2184  0.3371  0.4068
  172MOL0     O23115   6.645  11.460   7.161 -0.9153 -0.1153  0.3437
  172MOL0     C23116   6.768  11.515   7.164 -0.0623  0.7420  0.5174
  172MOL0     C23117   6.836  11.549   7.047  0.7816 -0.0218 -0.0700
  172MOL0     C23118   6.967  11.594   7.074 -0.1447  1.0612 -0.4460
  172MOL0     C23119   7.027  11.587   7.195 -0.6586  0.5722 -0.9924
  172MOL0     O23120   7.163  11.587   7.199 -0.5537 -0.2346 -0.2296
  172MOL0     C23121   7.231  11.606   7.323  0.0205  0.3921  0.8824
  172MOL0     C23122   7.384  11.615   7.303 -0.2002  0.4479 -0.1759
  172MOL0     C23123   7.439  11.669   7.439  0.0897  1.3781  1.3559
  172MOL0     C23124   7.415  11.820   7.456 -0.8029  0.2332 -0.1361
  172MOL0     C23125   7.382  11.852   7.600 -1.2211  0.0205 -0.3209
  172MOL0     C23126   7.500  11.843   7.703 -0.7586  0.9631  0.6707
  172MOL0     C23127   7.495  11.932   7.822 -0.8856  0.1418  0.5353
  172MOL0     C23128   7.424  11.858   7.937 -0.3549  0.1394 -0.9369
  172MOL0    Cl23129   7.414  11.962   8.079  0.1840 -0.1821 -0.2988
  172MOL0     C23130   6.949  11.576   7.312 -1.0118  0.4708  0.1142
  172MOL0     C23131   6.812  11.538   7.297  0.3039 -0.2855  0.7919
  172MOL0     O23132   6.743  11.249   7.155 -0.1576  0.4876  0.0439
  172MOL0     C23133   6.388  11.323   7.242 -0.9866  0.0754  0.5355
  172MOL0     C23134   6.259  11.267   7.252 -0.4008 -0.0403  0.3902
  172MOL0     N23135   6.088  10.554   7.386  1.2845  0.6032 -0.7438
  172MOL0     N23136   6.146  10.441   7.433  0.0924 -0.4475  0.0080
  172MOL0     C23137   5.773  10.521   8.516 -0.6659  0.3545  0.2497
  172MOL0     C23138   5.777  10.521   8.651  0.3623 -0.5712 -0.7228
  172MOL0     C23139   5.770  10.727   9.082  0.8452  1.1312  0.4164
  172MOL0     C23140   5.736  10.597   9.135 -0.2944  0.5703  0.8968
  172MOL0     C23141   5.729  10.572   9.267  0.6589 -0.3604  0.1089
  172MOL0     C23142   5.741  10.681   9.357  0.2623  0.4289 -0.5349
  172MOL0     O23143   5.724  10.675   9.493 -0.4778  0.0263  1.0230
  172MOL0     C23144   5.650  10.563   9.538 -0.3391  1.1149  0.8618
  172MOL0     C23145   5.602  10.579   9.685 -0.5314  0.5734  0.9858
  172MOL0     C23146   5.720  10.623   9.768  0.0404  0.5048 -0.4056
  172MOL0     C23147   5.687  10.625   9.916  1.2650  0.0572  0.7753
  172MOL0     C23148   5.674  10.483   9.954  0.0807  0.6054 -0.8774
  172MOL0     C23149   5.670  10.361   9.971  1.0325 -0.0918  0.6011
  172MOL0     C23150   5.759  10.805   9.308  0.1346  0.2058  0.4132
  172MOL0     C23151   5.773  10.826   9.174 -1.5152 -0.1569 -1.5887
  172MOL0     C23152   5.816  10.961   9.135 -0.3583 -0.7402  0.1474
  172MOL0     H23153   5.730  10.854   8.672 -0.1149 -0.9440  1.2042
  172MOL0     H23154   5.741  10.847   8.426  0.9950  1.1030  2.0271
  172MOL0     H23155   5.890  10.437   8.272 -1.7761  0.0910  1.6940
  172MOL0     H23156   5.735  10.407   8.219 -0.9347  0.6546  0.8825
  172MOL0     H23157   5.913  10.613   8.073 -0.5659  0.0941 -0.8264
  172MOL0     H23158   5.744  10.592   8.046 -1.0119 -0.5671  0.0922
  172MOL0     H23159   5.820  10.343   7.989  0.8296 -0.7302  0.6586
  172MOL0     H23160   5.977  10.385   8.046 -0.3352  0.1929 -0.0382
  172MOL0     H23161   5.866  10.543   7.814  0.1831  0.9196  0.9494
  172MOL0     H23162   6.026  10.545   7.876  1.0215  0.5417 -3.8452
  172MOL0     H23163   5.909  10.292   7.756  1.1198 -1.4124 -0.8186
  172MOL0     H23164   6.001  10.416   7.670  1.0900  0.0201  0.4297
  172MOL0     H23165   6.128  10.284   7.915 -3.5172  1.1418  0.1997
  172MOL0     H23166   6.135  10.230   7.745 -3.2371 -1.8316  1.9341
  172MOL0     H23167   6.320  10.342   7.834 -1.6838 -4.1405  0.1220
  172MOL0     H23168   6.229  10.494   7.803  0.5148 -0.9895  1.0978
  172MOL0     H23169   6.413  10.427   7.642  1.2657 -2.0510 -2.3929
  172MOL0     H23170   6.311  10.297   7.579 -3.4803  0.7383 -1.0973
  172MOL0     H23171   6.260  10.681   7.632  0.4109  1.6978 -2.2412
  172MOL0     H23172   6.035  10.795   7.335 -0.0610 -0.5342  1.0028
  172MOL0     H23173   5.993  10.822   7.489 -1.4511 -1.1847 -1.6539
  172MOL0     H23174   6.206  10.943   7.549 -0.7034 -1.3687 -0.0419
  172MOL0     H23175   6.263  10.925   7.392  1.0025  2.0965  0.0382
  172MOL0     H23176   6.200  11.138   7.441  0.1560  0.4974  1.3758
  172MOL0     H23177   6.037  11.109   7.493 -0.5449 -1.6770 -0.4780
  172MOL0     H23178   5.982  11.179   7.286  0.7245 -0.1247  2.2768
  172MOL0     H23179   5.971  11.005   7.283 -1.7614  1.5052 -0.4419
  172MOL0     H23180   6.331  10.999   7.043  1.8953 -0.7325  1.2547
  172MOL0     H23181   6.532  11.085   7.032 -1.7998  0.3410 -2.2505
  172MOL0     H23182   6.793  11.536   6.948 -2.4127  0.8942  1.0643
  172MOL0     H23183   7.040  11.610   6.996  1.8506  0.5910  1.2198
  172MOL0     H23184   7.187  11.694   7.371 -0.7617  0.4342  0.1054
  172MOL0     H23185   7.203  11.522   7.386 -1.2879 -1.1717 -1.6162
  172MOL0     H23186   7.426  11.523   7.261 -2.2415 -0.1568 -1.0318
  172MOL0     H23187   7.399  11.685   7.220  4.1415 -0.1631 -0.1301
  172MOL0     H23188   7.399  11.613   7.524  0.0104 -0.6581  0.0421
  172MOL0     H23189   7.547  11.649   7.434 -0.1653 -0.6223 -5.4887
  172MOL0     H23190   7.333  11.863   7.399 -1.8573 -0.0899  1.1055
  172MOL0     H23191   7.499  11.882   7.423  0.7916  0.5746  3.9932
  172MOL0     H23192   7.294  11.797   7.633 -2.5260  3.1057  1.7790
  172MOL0     H23193   7.356  11.956   7.581  0.5218 -0.0881 -4.2803
  172MOL0     H23194   7.539  11.744   7.726 -0.6522  0.2954 -2.0219
  172MOL0     H23195   7.579  11.890   7.644 -0.7775  3.4928  2.4895
  172MOL0     H23196   7.440  12.023   7.798 -1.8411 -0.4236  0.5468
  172MOL0     H23197   7.593  11.962   7.861 -1.6159  1.2822  1.5786
  172MOL0     H23198   7.315  11.855   7.925 -0.5835 -1.4592  1.0642
  172MOL0     H23199   7.463  11.757   7.955  1.6428  1.2913  1.7393
  172MOL0     H23200   6.993  11.576   7.411 -3.6273  2.6626  1.4139
  172MOL0     H23201   6.739  11.526   7.376  0.5978 -0.0346  1.1049
  172MOL0     H23202   6.404  11.414   7.297  4.1243  1.3089 -2.2840
  172MOL0     H23203   6.171  11.318   7.291 -2.5799 -1.2623 -2.4791
  172MOL0     H23204   5.784  10.419   8.482  1.9632  1.4271 -2.7017
  172MOL0     H23205   5.780  10.426   8.704  4.2770 -0.0358  0.3943
  172MOL0     H23206   5.741  10.515   9.065  6.0104  0.3323  1.1037
  172MOL0     H23207   5.722  10.472   9.308 -0.7633 -0.3926 -0.1561
  172MOL0     H23208   5.714  10.474   9.533  0.9894  1.8792  3.0668
  172MOL0     H23209   5.572  10.545   9.463  0.6433 -1.8926  0.4116
  172MOL0     H23210   5.574  10.484   9.732  0.3422 -0.5663 -0.7320
  172MOL0     H23211   5.525  10.657   9.685 -1.0859  0.1689 -2.3400
  172MOL0     H23212   5.744  10.725   9.736 -1.8942  1.0307 -0.2627
  172MOL0     H23213   5.809  10.561   9.751  0.2012  1.0521 -1.6589
  172MOL0     H23214   5.763  10.679   9.973  1.2339 -0.1513  1.0170
  172MOL0     H23215   5.597  10.685   9.935  1.9129  1.0655  0.7389
  172MOL0     H23216   5.668  10.256   9.996  0.8240 -0.0804  0.6313
  172MOL0     H23217   5.771  10.881   9.385 -3.2596 -1.6226  3.0521
  172MOL0     H23218   5.794  11.029   9.217 -1.2077 -1.5782  0.6363
  172MOL0     H23219   5.919  10.970   9.099 -1.2554  0.4906 -2.3273
  172MOL0     H23220   5.767  10.997   9.044  2.0460 -0.9700 -1.3261
  173MOL0     O23221  11.473   8.109   9.526  0.2245 -0.2979  0.5135
  173MOL0     C23222  11.415   8.088   9.414  0.0364 -0.7737  1.2096
  173MOL0     O23223  11.324   8.173   9.354  0.2670 -0.4383 -0.0935
  173MOL0     C23224  11.299   8.278   9.435 -0.5198  0.3674  0.2034
  173MOL0     C23225  11.354   8.401   9.441  0.7460 -0.1891  0.3461
  173MOL0     C23226  11.305   8.503   9.527  0.8435 -0.5321 -0.5535
  173MOL0     C23227  11.209   8.481   9.617  1.3308  0.1191 -0.4830
  173MOL0     O23228  11.173   8.574   9.708 -0.1343 -0.3614  0.4366
  173MOL0     C23229  11.039   8.611   9.718  0.6163  0.3047  0.6791
  173MOL0     C23230  11.038   8.641   9.865  0.0086  0.0117  0.7722
  173MOL0     C23231  10.918   8.725   9.914  0.4378 -0.1432  0.8269
  173MOL0     C23232  10.792   8.635   9.915  0.9910 -1.0581 -0.0275
  173MOL0     C23233  10.658   8.712   9.948 -1.2425  0.4647  0.4903
  173MOL0     C23234  10.536   8.633   9.896 -0.1967  0.8038  0.1313
  173MOL0     C23235  10.523   8.646   9.744 -0.4025 -0.0691 -0.0694
  173MOL0     C23236  10.388   8.594   9.707  0.0524 -0.4205  0.3349
  173MOL0     N23237  10.337   8.645   9.580  0.3134 -0.2605  1.3994
  173MOL0     C23238  10.381   8.609   9.459 -0.1126  0.4429  0.1127
  173MOL0     C23239  10.306   8.680   9.371 -0.0661  0.2658 -0.1337
  173MOL0     C23240  10.311   8.665   9.222 -0.0001 -0.6997  1.2237
  173MOL0     C23241  10.385   8.783   9.145  0.1115  0.6358 -0.3976
  173MOL0     C23242  10.303   8.915   9.150 -0.0070  0.5371  0.7223
  173MOL0     C23243  10.160   8.909   9.078 -0.8144  0.4199 -0.9777
  173MOL0     O23244  10.185   8.886   8.935 -0.3818  0.2324 -0.9939
  173MOL0     C23245  10.145   8.973   8.847  0.0998 -0.3841 -0.2680
  173MOL0     C23246  10.166   8.942   8.713 -0.0243 -0.0909 -0.5046
  173MOL0     C23247  10.121   9.020   8.606  0.2860 -0.2706 -0.9659
  173MOL0     C23248  10.043   9.132   8.641 -0.2140  0.3515 -0.1862
  173MOL0     C23249   9.985   9.212   8.533 -0.5836 -0.5520 -0.0266
  173MOL0     O23250   9.990   9.148   8.408 -0.4930 -0.5329 -0.4326
  173MOL0     C23251   9.964   9.217   8.289  0.3936 -0.6930 -1.4829
  173MOL0     C23252  10.015   9.351   8.261  0.1470  0.2764  0.1660
  173MOL0     C23253  10.000   9.413   8.142 -0.6607  0.5921 -0.4621
  173MOL0     C23254   9.918   9.348   8.041 -1.1992 -0.8476  0.1899
  173MOL0     O23255   9.882   9.398   7.915  0.0301 -0.1372  0.0470
  173MOL0     C23256   9.913   9.529   7.884 -0.2094  1.2578  0.3535
  173MOL0     C23257   9.917   9.541   7.731  0.5413 -0.5237 -0.7132
  173MOL0     C23258   9.780   9.494   7.673  0.9488  0.1078  0.0497
  173MOL0     C23259   9.703   9.613   7.609  0.3027 -0.6791 -0.0395
  173MOL0     C23260   9.615   9.540   7.502 -0.7712  0.0560 -0.3392
  173MOL0     C23261   9.535   9.644   7.427  0.4468 -0.1328  0.0235
  173MOL0     C23262   9.428   9.592   7.326 -1.0433 -0.4760 -0.7309
  173MOL0     C23263   9.292   9.561   7.395 -0.0917  0.0188  0.5105
  173MOL0    Cl23264   9.189   9.483   7.282  0.3203  0.1465 -0.1493
  173MOL0     C23265   9.865   9.217   8.066 -0.2887 -0.0318  0.1638
  173MOL0     C23266   9.876   9.157   8.195 -1.6021  0.2245  0.3993
  173MOL0     O23267   9.952   9.332   8.552  0.5412  0.6844  1.3187
  173MOL0     C23268  10.030   9.177   8.774 -0.3594  0.0293  0.2070
  173MOL0     C23269  10.078   9.089   8.878 -0.1878  0.8418 -0.1833
  173MOL0     N23270  10.235   8.777   9.435 -0.0382 -0.2365  0.3764
  173MOL0     N23271  10.250   8.754   9.562  0.2589  0.0727  0.8236
  173MOL0     C23272  11.145   8.353   9.608 -0.2717  0.5701  0.2748
  173MOL0     C23273  11.185   8.250   9.518  1.1187 -0.8242 -0.9247
  173MOL0     C23274  11.434   7.962   9.337 -0.3569 -0.2045 -0.2639
  173MOL0     C23275  11.561   7.906   9.354 -0.3925 -0.0898  0.5351
  173MOL0     C23276  11.610   7.798   9.275  0.3990 -0.4363 -0.4482
  173MOL0     C23277  11.519   7.728   9.195 -0.7511 -0.6477 -0.3881
  173MOL0     O23278  11.571   7.617   9.127 -0.5622 -0.5659  0.2760
  173MOL0     C23279  11.516   7.501   9.167 -0.2029  1.4633  0.3491
  173MOL0     C23280  11.587   7.396   9.089 -0.0876 -0.1546 -1.2182
  173MOL0     C23281  11.736   7.418   9.099  0.3191  0.7925 -0.1686
  173MOL0     C23282  11.798   7.296   9.032 -0.8090 -0.1635 -0.0683
  173MOL0     C23283  11.950   7.303   9.052  0.5241  0.2214 -0.2532
  173MOL0     C23284  12.070   7.309   9.040  0.4684 -0.4452 -0.4885
  173MOL0     C23285  11.391   7.780   9.180 -0.0289  0.4591 -0.7711
  173MOL0     C23286  11.341   7.893   9.251 -0.7380  0.9918 -0.7127
  173MOL0     C23287  11.211   7.942   9.206  0.8925  0.9597  1.3583
  173MOL0     H23288  11.429   8.444   9.375 -1.4104 -0.2127 -2.2578
  173MOL0     H23289  11.348   8.602   9.532 -3.0125  1.2859  0.4177
  173MOL0     H23290  11.024   8.708   9.669  2.7765 -0.8001 -2.5414
  173MOL0     H23291  10.973   8.532   9.681  0.5180  1.2130 -1.2325
  173MOL0     H23292  11.131   8.693   9.886  1.2313 -1.3377 -0.9864
  173MOL0     H23293  11.053   8.541   9.907 -0.2483 -1.2392 -1.9048
  173MOL0     H23294  10.902   8.804   9.840  0.3138  1.4221  2.4460
  173MOL0     H23295  10.942   8.766  10.013 -1.3338 -2.8129  2.5378
  173MOL0     H23296  10.783   8.595   9.814 -0.7540 -5.0392  1.5056
  173MOL0     H23297  10.805   8.546   9.977  3.2245 -2.6244 -2.5477
  173MOL0     H23298  10.665   8.721  10.057  1.6731  0.3323  0.3920
  173MOL0     H23299  10.660   8.812   9.904  0.7191 -0.6267 -2.1710
  173MOL0     H23300  10.563   8.529   9.917  3.1380  1.6948  0.9894
  173MOL0     H23301  10.447   8.663   9.951  1.0917  4.6168  0.4433
  173MOL0     H23302  10.601   8.599   9.683  2.2986  2.5255  1.1275
  173MOL0     H23303  10.532   8.753   9.724  1.9659 -0.0754  0.5833
  173MOL0     H23304  10.397   8.485   9.707 -2.7614 -0.7341  1.0356
  173MOL0     H23305  10.308   8.641   9.764 -0.6524  1.2333 -1.8890
  173MOL0     H23306  10.461   8.540   9.438 -0.3124 -0.1781  1.2764
  173MOL0     H23307  10.379   8.582   9.204 -3.1635 -2.6033 -4.2508
  173MOL0     H23308  10.210   8.645   9.184 -0.8963 -0.0936  3.1710
  173MOL0     H23309  10.474   8.799   9.206  0.9514  2.1633 -1.9335
  173MOL0     H23310  10.410   8.745   9.046 -0.3962 -2.8412  0.6652
  173MOL0     H23311  10.354   8.997   9.099 -1.7983  1.8534  0.9605
  173MOL0     H23312  10.293   8.948   9.254  0.2000  0.5016  0.7554
  173MOL0     H23313  10.100   8.990   9.119 -1.3905 -0.9588  1.0499
  173MOL0     H23314  10.115   8.813   9.104  1.9151 -0.0497  3.0544
  173MOL0     H23315  10.225   8.854   8.688 -1.6306 -0.8336 -1.8227
  173MOL0     H23316  10.145   8.999   8.502 -3.7823  0.0223 -2.1321
  173MOL0     H23317  10.077   9.402   8.333  0.5502 -1.3819  1.0467
  173MOL0     H23318  10.040   9.512   8.120 -0.7494  0.3964 -1.5574
  173MOL0     H23319   9.827   9.584   7.921 -0.2640 -0.5951  3.3180
  173MOL0     H23320  10.005   9.568   7.929  1.8615  1.8033 -3.7892
  173MOL0     H23321   9.944   9.646   7.716  1.1798 -0.7432 -1.1307
  173MOL0     H23322  10.002   9.479   7.702  0.7926  0.5853 -2.5599
  173MOL0     H23323   9.812   9.427   7.593 -1.4821 -0.6958 -0.3341
  173MOL0     H23324   9.702   9.446   7.734  0.1304 -2.8312 -3.0278
  173MOL0     H23325   9.768   9.692   7.571 -0.3273  1.2309  2.5659
  173MOL0     H23326   9.636   9.668   7.676  0.9713 -0.1890  0.2296
  173MOL0     H23327   9.536   9.483   7.552 -2.1517  1.0753 -1.3167
  173MOL0     H23328   9.675   9.486   7.427 -0.6358  1.7917 -1.5348
  173MOL0     H23329   9.482   9.707   7.498  0.6082  1.0284 -0.8641
  173MOL0     H23330   9.613   9.697   7.372  1.8070 -1.3029  0.7532
  173MOL0     H23331   9.475   9.500   7.290  1.8657 -0.7458  3.1389
  173MOL0     H23332   9.414   9.663   7.244  0.8737  2.8270  1.5430
  173MOL0     H23333   9.289   9.486   7.475  1.1510  2.8578  3.4392
  173MOL0     H23334   9.251   9.653   7.437  0.5099  1.4320 -1.8734
  173MOL0     H23335   9.813   9.175   7.981 -0.1900 -1.0700  0.6057
  173MOL0     H23336   9.841   9.055   8.204 -2.6635  0.6462  1.3430
  173MOL0     H23337   9.966   9.262   8.796 -1.9146 -0.9815 -0.2846
  173MOL0     H23338  10.067   9.128   8.978  1.4807  1.3696 -0.1647
  173MOL0     H23339  11.055   8.334   9.664 -0.7373  2.9449  0.4614
  173MOL0     H23340  11.136   8.153   9.517 -1.1406  0.1987  0.8547
  173MOL0     H23341  11.617   7.952   9.434  1.0853  0.2961 -0.6723
  173MOL0     H23342  11.711   7.761   9.286  0.4782 -0.3951 -1.0373
  173MOL0     H23343  11.415   7.516   9.128  0.2441 -0.2154 -1.5928
  173MOL0     H23344  11.513   7.486   9.275 -1.2287  0.3075  0.1841
  173MOL0     H23345  11.566   7.415   8.983 -0.7384  1.0932 -0.8877
  173MOL0     H23346  11.557   7.299   9.129  2.3701 -0.3223  0.4256
  173MOL0     H23347  11.774   7.422   9.201  1.2167  1.7703 -0.5264
  173MOL0     H23348  11.762   7.501   9.033 -0.0835 -0.4145 -1.9102
  173MOL0     H23349  11.756   7.204   9.072  0.1181 -0.3002  0.6432
  173MOL0     H23350  11.771   7.289   8.927 -1.9797 -0.0979  0.2209
  173MOL0     H23351  12.176   7.322   9.042  0.3508  0.6115 -0.6019
  173MOL0     H23352  11.334   7.713   9.115 -1.8842  1.9414 -0.7593
  173MOL0     H23353  11.179   7.900   9.111  2.0122  1.2447  0.8318
  173MOL0     H23354  11.147   7.905   9.286 -0.3845  1.9588  0.8257
  173MOL0     H23355  11.192   8.049   9.197 -1.6793  0.5515  1.3030
  174MOL0     O23356   3.606   4.370   8.953 -0.5214 -0.0333 -0.7226
  174MOL0     C23357   3.625   4.492   8.963 -0.4273 -0.2114  0.0195
  174MOL0     O23358   3.546   4.597   8.916 -0.4851  0.1184  0.3469
  174MOL0     C23359   3.404   4.573   8.885  0.0838 -0.2075  1.3751
  174MOL0     C23360   3.346   4.694   8.846  0.4360  0.0327  0.4025
  174MOL0     C23361   3.208   4.692   8.812  1.0122  0.9639 -0.6490
  174MOL0     C23362   3.142   4.583   8.805 -1.0805  0.2753  0.5042
  174MOL0     O23363   3.013   4.597   8.773 -0.8160  1.3771  0.0041
  174MOL0     C23364   2.927   4.485   8.726 -0.6168  0.1428 -0.3677
  174MOL0     C23365   2.799   4.538   8.674  0.6073 -0.6718 -1.4000
  174MOL0     C23366   2.697   4.582   8.785  0.1558 -1.1310 -0.2173
  174MOL0     C23367   2.581   4.666   8.731  0.2192 -0.7623 -0.4126
  174MOL0     C23368   2.637   4.809   8.691  0.5643  0.6796  0.1687
  174MOL0     C23369   2.522   4.899   8.643 -0.2071  0.5303  0.7239
  174MOL0     C23370   2.472   4.987   8.754 -0.3650  0.3110  0.1537
  174MOL0     C23371   2.362   5.062   8.688 -0.3000 -0.9711 -0.0150
  174MOL0     N23372   2.328   5.190   8.757  0.4943 -0.6067  0.5510
  174MOL0     C23373   2.407   5.304   8.735 -1.0080  0.0145 -0.7100
  174MOL0     C23374   2.405   5.353   8.858 -0.7075 -0.5970  0.1261
  174MOL0     C23375   2.489   5.459   8.883 -0.5708  0.6740  0.6245
  174MOL0     C23376   2.416   5.591   8.942  0.3547  0.6266 -0.2622
  174MOL0     C23377   2.510   5.685   9.016 -0.6576  0.5120 -0.3369
  174MOL0     C23378   2.444   5.816   9.057  0.2064  0.3797  0.1227
  174MOL0     O23379   2.543   5.896   9.117  0.2569  0.0266 -0.6845
  174MOL0     C23380   2.539   5.921   9.249  0.1729  0.0482 -0.0242
  174MOL0     C23381   2.466   5.843   9.348  0.2620  0.1340 -0.5518
  174MOL0     C23382   2.455   5.888   9.487  0.6583  0.6578  1.4595
  174MOL0     C23383   2.503   6.015   9.523  0.3887 -0.6653 -0.0158
  174MOL0     C23384   2.479   6.072   9.660  0.1566 -0.7184  1.0301
  174MOL0     O23385   2.495   6.211   9.660 -0.4171 -0.3495 -0.2733
  174MOL0     C23386   2.462   6.279   9.772 -0.4062 -0.0733  0.5182
  174MOL0     C23387   2.341   6.347   9.779 -0.7693 -0.1138  0.5619
  174MOL0     C23388   2.310   6.442   9.875 -0.8045  0.2709 -0.0421
  174MOL0     C23389   2.393   6.450   9.985 -0.4637  0.7381 -0.6259
  174MOL0     O23390   2.369   6.534  10.083  0.3168 -0.6395  0.2299
  174MOL0     C23391   2.438   6.529  10.212 -0.2363  0.1758  0.1732
  174MOL0     C23392   2.360   6.607  10.324  1.0223  0.2969  0.1947
  174MOL0     C23393   2.296   6.507  10.426 -0.5162  0.1912 -0.1471
  174MOL0     C23394   2.179   6.570  10.498 -0.0680 -0.0851  0.8615
  174MOL0     C23395   2.211   6.651  10.627 -1.3149 -0.2533  0.1801
  174MOL0     C23396   2.079   6.688  10.700 -1.2674  0.4296  0.2933
  174MOL0     C23397   2.102   6.729  10.843 -0.3717  0.0649 -0.3463
  174MOL0     C23398   1.964   6.749  10.905 -0.1616  0.8974 -0.5178
  174MOL0    Cl23399   1.986   6.749  11.086  0.4583 -0.6602  0.2081
  174MOL0     C23400   2.522   6.383   9.981  0.7207  0.0877  0.7832
  174MOL0     C23401   2.553   6.299   9.878  0.2766  0.5381  0.3965
  174MOL0     O23402   2.422   6.007   9.743 -0.5774  0.8737  0.2136
  174MOL0     C23403   2.586   6.080   9.428  0.5387 -0.4550 -0.4881
  174MOL0     C23404   2.606   6.037   9.296 -0.0451  0.0325 -0.2419
  174MOL0     N23405   2.310   5.295   8.939  0.3499 -0.1076  0.1047
  174MOL0     N23406   2.267   5.197   8.873  0.6067  0.4619 -1.0944
  174MOL0     C23407   3.190   4.458   8.846  0.3267  0.2100  0.8307
  174MOL0     C23408   3.327   4.450   8.884 -0.4389 -0.4866 -0.0754
  174MOL0     C23409   3.762   4.530   9.017 -0.6861  0.8175 -0.1659
  174MOL0     C23410   3.818   4.647   8.969  0.3939  0.4608  0.9347
  174MOL0     C23411   3.933   4.693   9.016 -0.4357 -0.3930 -0.5868
  174MOL0     C23412   4.001   4.623   9.113 -0.4624  0.4578  0.2121
  174MOL0     O23413   4.125   4.677   9.153 -0.7645 -1.1397  0.7354
  174MOL0     C23414   4.231   4.606   9.221  0.4970 -0.4842 -0.1195
  174MOL0     C23415   4.338   4.713   9.246 -0.4553 -0.9734 -0.3939
  174MOL0     C23416   4.299   4.815   9.364 -0.4055  0.6473 -0.5311
  174MOL0     C23417   4.385   4.949   9.370  0.5069  0.4407 -0.3934
  174MOL0     C23418   4.514   4.900   9.420  0.4540  0.6621  0.4007
  174MOL0     C23419   4.623   4.862   9.462 -0.2914  0.4122  0.1527
  174MOL0     C23420   3.949   4.507   9.166  0.1993 -0.0866  0.5473
  174MOL0     C23421   3.832   4.461   9.114 -0.0890  0.4951  0.1356
  174MOL0     C23422   3.785   4.333   9.172  0.5261  0.2450  0.0603
  174MOL0     H23423   3.401   4.785   8.860 -0.8552  0.8698  0.2297
  174MOL0     H23424   3.154   4.783   8.789  0.2446  0.4484 -0.9119
  174MOL0     H23425   2.981   4.422   8.655  1.5457  0.6167  0.7438
  174MOL0     H23426   2.904   4.419   8.811  2.3677 -0.2049  0.2866
  174MOL0     H23427   2.739   4.471   8.612 -1.7212  1.2278 -1.3684
  174MOL0     H23428   2.819   4.626   8.613  0.4561  0.5674  0.2448
  174MOL0     H23429   2.750   4.648   8.853 -3.1641  0.5795  0.8968
  174MOL0     H23430   2.660   4.500   8.847 -0.2976  2.0930  4.1756
  174MOL0     H23431   2.525   4.625   8.646 -0.0562  1.2078 -1.2583
  174MOL0     H23432   2.515   4.681   8.817  2.1015  2.3061  0.6715
  174MOL0     H23433   2.685   4.854   8.779  1.2660  0.9419 -0.3397
  174MOL0     H23434   2.706   4.810   8.606 -0.4177  3.8606 -0.7222
  174MOL0     H23435   2.562   4.956   8.559  0.1245 -0.3951  0.2389
  174MOL0     H23436   2.431   4.849   8.608 -1.7640  1.4178  3.2337
  174MOL0     H23437   2.549   5.059   8.785  1.8740 -1.6008 -0.6464
  174MOL0     H23438   2.435   4.928   8.838  1.7421  1.3083  1.8835
  174MOL0     H23439   2.378   5.078   8.581 -2.4472  1.8743 -0.0418
  174MOL0     H23440   2.269   5.005   8.693 -0.6475 -0.5184 -1.0093
  174MOL0     H23441   2.483   5.316   8.658  0.5218  0.0665  0.7547
  174MOL0     H23442   2.558   5.418   8.957 -0.0923 -0.0747 -0.2179
  174MOL0     H23443   2.551   5.491   8.798  0.4037  1.0322  1.4477
  174MOL0     H23444   2.354   5.637   8.865 -2.2252 -1.3271  0.4917
  174MOL0     H23445   2.353   5.537   9.013  0.7329 -0.2957 -0.6157
  174MOL0     H23446   2.592   5.716   8.951 -0.4406  2.7214  0.8874
  174MOL0     H23447   2.549   5.636   9.106  1.0389  0.0637 -1.2700
  174MOL0     H23448   2.356   5.809   9.122 -0.8249  1.5865 -1.0834
  174MOL0     H23449   2.409   5.865   8.965 -0.3325  0.5822  0.4316
  174MOL0     H23450   2.434   5.745   9.316  1.0336 -0.0311 -0.8134
  174MOL0     H23451   2.405   5.820   9.554 -2.1212 -0.0705 -1.1573
  174MOL0     H23452   2.261   6.343   9.706 -0.3796 -0.1767  0.1357
  174MOL0     H23453   2.214   6.492   9.864  0.5412  2.8888 -0.8657
  174MOL0     H23454   2.435   6.424  10.244 -2.3691  0.0656 -0.2303
  174MOL0     H23455   2.539   6.570  10.202  0.0214 -0.5240 -0.1511
  174MOL0     H23456   2.428   6.671  10.381  2.6748  0.1432 -1.5459
  174MOL0     H23457   2.283   6.657  10.265 -1.4028 -1.7809  1.3408
  174MOL0     H23458   2.264   6.417  10.373 -2.3204  1.8483 -2.0442
  174MOL0     H23459   2.376   6.482  10.497  0.4057 -1.8631 -1.7883
  174MOL0     H23460   2.101   6.494  10.504 -0.5936  0.5027  1.9024
  174MOL0     H23461   2.129   6.645  10.436 -1.0229 -0.7336  0.8349
  174MOL0     H23462   2.270   6.741  10.607 -1.7617 -0.6505 -3.7254
  174MOL0     H23463   2.266   6.581  10.691 -2.9317 -1.1749  0.6157
  174MOL0     H23464   2.023   6.764  10.644  1.1535  1.7142 -0.5349
  174MOL0     H23465   2.025   6.593  10.696 -0.4094 -0.0265 -1.2457
  174MOL0     H23466   2.138   6.833  10.841 -2.5996  0.8712 -1.3747
  174MOL0     H23467   2.169   6.661  10.898 -1.3391 -1.2246 -0.7303
  174MOL0     H23468   1.914   6.838  10.865  2.4658  2.0258 -1.4907
  174MOL0     H23469   1.897   6.663  10.890  0.1018  0.6824 -0.4586
  174MOL0     H23470   2.597   6.387  10.060  1.6030  2.5771 -0.0500
  174MOL0     H23471   2.652   6.257   9.872  0.0058 -0.0464 -0.0045
  174MOL0     H23472   2.635   6.172   9.459 -4.4140  2.3969 -0.1916
  174MOL0     H23473   2.656   6.095   9.220 -0.4157 -2.7573 -2.8125
  174MOL0     H23474   3.142   4.361   8.834 -0.7494  0.6172  1.7118
  174MOL0     H23475   3.376   4.354   8.895 -1.1515 -1.0241 -1.3722
  174MOL0     H23476   3.776   4.713   8.894 -0.4015 -0.1983  0.7873
  174MOL0     H23477   3.973   4.783   8.970  2.6886 -1.8160 -0.9594
  174MOL0     H23478   4.276   4.532   9.154  1.6008 -1.8385  2.0055
  174MOL0     H23479   4.191   4.555   9.309 -2.3099  2.9442  0.8165
  174MOL0     H23480   4.359   4.771   9.155 -0.8481 -1.6637 -0.9340
  174MOL0     H23481   4.432   4.660   9.264  1.7508  2.2156 -1.5718
  174MOL0     H23482   4.304   4.771   9.464 -0.8188  0.7371 -0.4652
  174MOL0     H23483   4.196   4.847   9.345 -1.3290 -0.0790  2.7577
  174MOL0     H23484   4.400   5.006   9.277  1.1840  2.4914  0.9159
  174MOL0     H23485   4.351   5.024   9.442 -0.4133  0.5190 -0.8967
  174MOL0     H23486   4.709   4.805   9.491  2.7491  4.4464 -0.0456
  174MOL0     H23487   3.996   4.452   9.247 -1.7895 -0.6520  1.3753
  174MOL0     H23488   3.852   4.293   9.248  0.2835  0.9570  0.6621
  174MOL0     H23489   3.687   4.342   9.221  1.5578  0.6717  2.1644
  174MOL0     H23490   3.786   4.254   9.096  1.4146 -0.4386  0.7550
  175MOL0     O23491   0.216  10.034   2.850 -0.1007 -0.1287  0.3684
  175MOL0     C23492   0.240   9.977   2.953  0.3310 -0.6113 -0.4995
  175MOL0     O23493   0.326  10.033   3.049 -0.1165 -0.3064 -0.4886
  175MOL0     C23494   0.392  10.159   3.025 -0.1363  0.0237 -0.3113
  175MOL0     C23495   0.508  10.167   2.957  0.5723 -0.6349  0.3389
  175MOL0     C23496   0.572  10.286   2.921  0.3173 -0.1622 -0.7008
  175MOL0     C23497   0.520  10.412   2.963 -1.2838  0.3861  0.2237
  175MOL0     O23498   0.575  10.532   2.936 -0.4806 -0.2120  0.2491
  175MOL0     C23499   0.708  10.539   2.902 -0.5562 -0.3532  1.2756
  175MOL0     C23500   0.744  10.688   2.873 -0.2725 -0.0268  0.7145
  175MOL0     C23501   0.862  10.706   2.767  0.1880  0.2703 -0.5584
  175MOL0     C23502   0.987  10.629   2.817  0.3670  0.1719  0.4011
  175MOL0     C23503   1.115  10.683   2.749  0.3587  0.3105 -0.8060
  175MOL0     C23504   1.141  10.640   2.604 -0.1653 -0.0249  0.2931
  175MOL0     C23505   1.290  10.651   2.579 -0.8784 -0.3928 -0.7573
  175MOL0     C23506   1.349  10.796   2.572  0.1709  0.2014  0.4023
  175MOL0     N23507   1.493  10.794   2.603  0.3630 -0.2783 -0.9874
  175MOL0     C23508   1.592  10.713   2.555  1.0217  0.4390 -0.3497
  175MOL0     C23509   1.705  10.780   2.584 -0.2726  0.0767 -0.5150
  175MOL0     C23510   1.844  10.743   2.540 -1.9030  0.0563 -0.4192
  175MOL0     C23511   1.904  10.857   2.446  0.4210  0.1286 -0.4497
  175MOL0     C23512   2.061  10.847   2.447 -0.2435  0.0748  0.4491
  175MOL0     C23513   2.119  10.745   2.347 -0.4237 -0.1330  0.9258
  175MOL0     O23514   2.093  10.611   2.384  0.5225  0.1132 -0.0704
  175MOL0     C23515   2.082  10.506   2.294  0.3664  0.3330 -0.0648
  175MOL0     C23516   2.057  10.381   2.349 -0.4872  0.0645 -0.0958
  175MOL0     C23517   2.067  10.262   2.282  0.3241  1.0209  0.2979
  175MOL0     C23518   2.106  10.264   2.144  0.4808 -0.3301  0.2762
  175MOL0     C23519   2.118  10.144   2.060 -0.2490  0.7051 -0.3494
  175MOL0     O23520   2.144  10.159   1.929  0.0192 -0.2624 -0.1569
  175MOL0     C23521   2.139  10.041   1.848 -0.3878 -0.3851  1.1732
  175MOL0     C23522   2.014   9.985   1.820 -0.4281  0.2985  0.5819
  175MOL0     C23523   1.997   9.880   1.734  0.3983 -0.5845 -0.6339
  175MOL0     C23524   2.105   9.801   1.688  0.1876 -0.6671  0.5478
  175MOL0     O23525   2.113   9.673   1.636  0.6204  0.3517  1.2236
  175MOL0     C23526   1.999   9.591   1.660  0.1917  1.0947  1.0346
  175MOL0     C23527   1.986   9.469   1.567 -0.1049 -0.3527  0.4419
  175MOL0     C23528   1.955   9.530   1.422  0.2226 -0.7520 -0.0907
  175MOL0     C23529   1.929   9.439   1.305  0.2411  0.0331 -1.0969
  175MOL0     C23530   1.900   9.503   1.167 -0.4744 -0.1284 -0.1131
  175MOL0     C23531   1.923   9.398   1.054  1.2067 -0.7741 -0.4267
  175MOL0     C23532   1.893   9.462   0.914 -0.9151  1.1162 -1.0105
  175MOL0     C23533   1.980   9.575   0.884 -0.0714 -0.6166  0.2617
  175MOL0    Cl23534   1.931   9.632   0.722  0.1563  0.2143 -0.3406
  175MOL0     C23535   2.234   9.853   1.726 -0.0259 -0.5606  0.1786
  175MOL0     C23536   2.251   9.974   1.803  0.7601 -0.2218  0.5881
  175MOL0     O23537   2.092  10.035   2.111  0.5394 -0.0578 -0.7112
  175MOL0     C23538   2.131  10.389   2.085 -0.1075 -0.8518  0.4523
  175MOL0     C23539   2.130  10.509   2.164  0.5749 -1.6157 -0.4537
  175MOL0     N23540   1.670  10.895   2.662  0.4853 -0.9281  0.2612
  175MOL0     N23541   1.545  10.901   2.672  0.1397  0.0251  0.1384
  175MOL0     C23542   0.394  10.401   3.018  0.5146 -0.7921  0.3922
  175MOL0     C23543   0.339  10.283   3.053  0.4333 -0.3111  0.1763
  175MOL0     C23544   0.179   9.857   2.984 -0.0814  0.4213 -0.0018
  175MOL0     C23545   0.107   9.857   3.099  0.8911 -0.2756  0.1641
  175MOL0     C23546   0.043   9.731   3.118 -0.0541 -1.0190  0.1984
  175MOL0     C23547   0.051   9.615   3.031  0.6545 -0.4057 -0.8857
  175MOL0     O23548  -0.016   9.494   3.055  0.6642 -0.5549 -0.4022
  175MOL0     C23549  -0.152   9.499   3.000 -0.6317 -0.4310 -0.2159
  175MOL0     C23550  -0.242   9.421   3.094  0.5980 -0.3570 -0.3469
  175MOL0     C23551  -0.267   9.493   3.232  0.5104  0.6442  0.1548
  175MOL0     C23552  -0.365   9.609   3.223 -0.6743  0.9373  0.9211
  175MOL0     C23553  -0.312   9.736   3.171  0.2232 -0.0386 -0.2747
  175MOL0     C23554  -0.279   9.846   3.117 -0.3580 -0.4580 -0.5646
  175MOL0     C23555   0.124   9.625   2.918 -0.3199 -0.2093  0.8727
  175MOL0     C23556   0.187   9.748   2.886 -0.3204  0.1270 -0.5362
  175MOL0     C23557   0.267   9.752   2.756  0.3129 -0.1929  0.2890
  175MOL0     H23558   0.548  10.071   2.926 -2.9229 -2.2204  0.2332
  175MOL0     H23559   0.675  10.288   2.884  0.0381  1.5196 -1.4628
  175MOL0     H23560   0.766  10.506   2.989 -1.8368 -2.6729  1.3258
  175MOL0     H23561   0.738  10.488   2.810  0.9586  0.1858  1.4415
  175MOL0     H23562   0.781  10.741   2.961  0.2577  0.1873  0.3673
  175MOL0     H23563   0.657  10.742   2.835 -0.8302 -0.1941  1.7267
  175MOL0     H23564   0.882  10.812   2.755  1.4023  0.3638  1.6632
  175MOL0     H23565   0.844  10.666   2.667  1.7998  0.2627 -0.8653
  175MOL0     H23566   0.983  10.646   2.925  1.0273 -1.2035  0.6694
  175MOL0     H23567   0.960  10.525   2.795  0.1757 -0.1791  2.1267
  175MOL0     H23568   1.122  10.792   2.760  1.7342  0.1828 -0.3266
  175MOL0     H23569   1.195  10.637   2.806  0.6882  1.1632 -0.5581
  175MOL0     H23570   1.109  10.537   2.585 -4.5354  1.4465 -1.5629
  175MOL0     H23571   1.078  10.699   2.536 -1.4726  1.1162  2.3775
  175MOL0     H23572   1.320  10.613   2.481  0.7023  1.7295 -1.1721
  175MOL0     H23573   1.349  10.606   2.659 -0.5880 -2.0036 -1.8386
  175MOL0     H23574   1.338  10.832   2.469  0.0411 -0.8979  0.0179
  175MOL0     H23575   1.306  10.869   2.640  2.0965  2.5252 -0.7225
  175MOL0     H23576   1.588  10.616   2.506  2.5669 -0.2209  0.7558
  175MOL0     H23577   1.906  10.702   2.620 -1.5028 -0.0850 -0.7993
  175MOL0     H23578   1.827  10.649   2.487 -3.5299 -0.0632  0.2536
  175MOL0     H23579   1.864  10.845   2.345  2.8266  0.4269 -1.5157
  175MOL0     H23580   1.879  10.957   2.481 -1.5843 -0.5428  0.1317
  175MOL0     H23581   2.099  10.828   2.548  0.4872 -0.2214  0.1278
  175MOL0     H23582   2.110  10.938   2.414  2.0466 -0.8831  0.9975
  175MOL0     H23583   2.227  10.756   2.353  0.0911 -2.2360 -2.0412
  175MOL0     H23584   2.078  10.774   2.249 -0.4262 -2.5142  0.1440
  175MOL0     H23585   2.027  10.373   2.453 -1.1444  4.0952  0.1597
  175MOL0     H23586   2.027  10.170   2.323  2.5020  0.1488  0.6120
  175MOL0     H23587   1.929  10.031   1.870 -2.5967 -1.1126 -1.5819
  175MOL0     H23588   1.892   9.851   1.728  0.7652 -1.8998 -1.1439
  175MOL0     H23589   2.004   9.555   1.763  1.0702  0.8101  0.8964
  175MOL0     H23590   1.912   9.658   1.665  0.4474  1.3789  1.7863
  175MOL0     H23591   2.083   9.417   1.566 -1.3250 -2.7130 -0.5653
  175MOL0     H23592   1.901   9.405   1.593  0.0934 -2.2083 -2.9360
  175MOL0     H23593   1.868   9.596   1.429  1.5380  0.9740  0.7458
  175MOL0     H23594   2.039   9.588   1.383  0.9688 -1.7673 -0.0500
  175MOL0     H23595   1.864   9.357   1.339 -0.0153  1.7357  3.1027
  175MOL0     H23596   2.024   9.386   1.292  2.2950  3.2588 -0.3098
  175MOL0     H23597   1.969   9.584   1.142 -1.6626  0.8770 -0.2014
  175MOL0     H23598   1.805   9.556   1.170 -0.3397  0.0885  0.5261
  175MOL0     H23599   2.014   9.338   1.047 -0.5040 -3.6005 -0.1817
  175MOL0     H23600   1.857   9.314   1.081  1.3470 -0.0843  2.3904
  175MOL0     H23601   1.785   9.478   0.908 -2.2547 -2.9754  4.2232
  175MOL0     H23602   1.924   9.384   0.843  1.8212  3.5953 -2.8024
  175MOL0     H23603   1.958   9.664   0.943  1.8421  1.2506 -1.6345
  175MOL0     H23604   2.088   9.558   0.884 -0.1545 -1.1719 -0.1014
  175MOL0     H23605   2.324   9.793   1.717 -0.2824 -0.9909  0.4728
  175MOL0     H23606   2.343   9.995   1.856 -0.2726  4.7792  0.8360
  175MOL0     H23607   2.153  10.396   1.979  2.2076 -1.5291  0.8490
  175MOL0     H23608   2.157  10.604   2.120 -3.0588 -0.3332 -0.2602
  175MOL0     H23609   0.324  10.482   3.033 -2.3224 -3.6604  4.8026
  175MOL0     H23610   0.231  10.288   3.065  0.4855  0.4913  0.4092
  175MOL0     H23611   0.085   9.933   3.173 -1.3527 -2.5723  2.0513
  175MOL0     H23612  -0.023   9.727   3.204  1.0365 -0.6324  1.0745
  175MOL0     H23613  -0.162   9.449   2.904 -3.2034  1.5215 -1.0729
  175MOL0     H23614  -0.178   9.604   2.982  1.6903  0.8970  3.0757
  175MOL0     H23615  -0.196   9.322   3.107  2.1944  0.1326 -1.7932
  175MOL0     H23616  -0.340   9.404   3.049  0.3216  1.2250 -0.4025
  175MOL0     H23617  -0.175   9.531   3.278  1.6096 -1.5156 -0.1220
  175MOL0     H23618  -0.318   9.417   3.291 -2.8484 -1.1464 -4.4599
  175MOL0     H23619  -0.449   9.578   3.160 -0.8068 -2.5697  2.5780
  175MOL0     H23620  -0.401   9.626   3.325  1.2557  0.9037  1.6541
  175MOL0     H23621  -0.246   9.939   3.075  0.9875 -0.2590  0.8108
  175MOL0     H23622   0.127   9.534   2.859  1.4025  0.7447 -0.6227
  175MOL0     H23623   0.238   9.668   2.692 -1.6209  0.3545  0.3711
  175MOL0     H23624   0.234   9.845   2.709 -2.5034 -1.2273 -0.0136
  175MOL0     H23625   0.375   9.739   2.770  0.9014  3.1906 -0.3291
  176MOL0     O23626   6.964   7.770   9.589  0.4215 -0.1705  0.0896
  176MOL0     C23627   6.947   7.816   9.699 -0.0259 -0.3897 -0.4253
  176MOL0     O23628   6.971   7.749   9.813 -0.0397 -0.0919 -0.2139
  176MOL0     C23629   6.991   7.614   9.805  0.3621 -0.4974  0.4771
  176MOL0     C23630   6.873   7.539   9.811  0.4702  0.8625 -0.8359
  176MOL0     C23631   6.883   7.398   9.790  0.2289 -0.7603  1.4425
  176MOL0     C23632   7.004   7.340   9.750 -0.2322  0.8487 -0.3929
  176MOL0     O23633   7.036   7.209   9.719 -0.3432  0.5845 -1.0380
  176MOL0     C23634   6.950   7.109   9.777  0.3845  0.2197  0.0137
  176MOL0     C23635   6.962   7.089   9.934 -1.0633 -0.8598 -0.0205
  176MOL0     C23636   7.096   7.004   9.973  0.3725  0.0902  0.3057
  176MOL0     C23637   7.074   6.938  10.118  0.0148 -1.0382  0.0459
  176MOL0     C23638   7.075   7.057  10.217 -0.1365 -0.4580  0.1295
  176MOL0     C23639   7.060   7.017  10.357 -0.4945 -0.2515 -0.2326
  176MOL0     C23640   7.180   6.927  10.410  0.5019 -0.2561  0.1555
  176MOL0     C23641   7.162   6.888  10.554  0.4699  0.4645 -0.4543
  176MOL0     N23642   7.289   6.830  10.605  0.7832 -0.4615  0.1085
  176MOL0     C23643   7.355   6.867  10.724  0.3821 -0.3371  0.2617
  176MOL0     C23644   7.474   6.816  10.712  0.1282 -0.2300  0.1815
  176MOL0     C23645   7.588   6.822  10.807  0.4911 -0.9185 -0.3124
  176MOL0     C23646   7.696   6.721  10.773  0.2758  0.3343 -0.0614
  176MOL0     C23647   7.774   6.768  10.646 -0.3341 -0.1969 -0.0035
  176MOL0     C23648   7.887   6.679  10.631 -0.7554  0.3059 -0.2934
  176MOL0     O23649   7.989   6.683  10.731 -0.2459 -0.5036 -0.4355
  176MOL0     C23650   8.093   6.774  10.712  0.2268  0.0235 -0.0436
  176MOL0     C23651   8.159   6.811  10.826 -0.6472 -0.1085  1.5752
  176MOL0     C23652   8.248   6.910  10.832  0.1266  0.5663 -0.1484
  176MOL0     C23653   8.271   6.986  10.717  0.5770 -0.3264 -0.2457
  176MOL0     C23654   8.347   7.108  10.733 -1.1910  0.5950  0.8280
  176MOL0     O23655   8.409   7.118  10.857  0.3846 -0.2688 -1.1639
  176MOL0     C23656   8.469   7.236  10.878  0.0190 -0.5413 -0.7113
  176MOL0     C23657   8.404   7.359  10.890  0.7077 -0.4626  0.5909
  176MOL0     C23658   8.470   7.480  10.922  0.3443 -0.1333 -0.4653
  176MOL0     C23659   8.608   7.484  10.932  0.2570  0.5780  0.6933
  176MOL0     O23660   8.679   7.598  10.950 -0.3386  0.5632 -0.4471
  176MOL0     C23661   8.668   7.679  10.833  0.2897 -0.5133  1.2346
  176MOL0     C23662   8.698   7.833  10.864  0.2388 -1.2150  0.1859
  176MOL0     C23663   8.574   7.900  10.922  0.7961 -0.4137 -0.2637
  176MOL0     C23664   8.589   8.058  10.914 -0.0222  0.2784  0.1809
  176MOL0     C23665   8.600   8.098  10.771 -0.2506 -0.0152 -0.3642
  176MOL0     C23666   8.529   8.238  10.753  0.2047 -0.7496 -0.6107
  176MOL0     C23667   8.569   8.310  10.629 -0.6755 -0.3963  0.8681
  176MOL0     C23668   8.530   8.453  10.633 -1.7905  0.7976  0.2257
  176MOL0    Cl23669   8.517   8.533  10.469  0.0141 -0.1589 -0.3205
  176MOL0     C23670   8.676   7.368  10.907 -0.4289  0.6645  0.0248
  176MOL0     C23671   8.610   7.246  10.881  0.4084 -0.5690 -0.1854
  176MOL0     O23672   8.357   7.185  10.637 -0.8783 -0.2231 -0.3781
  176MOL0     C23673   8.201   6.958  10.606  0.3719 -0.3699 -0.0611
  176MOL0     C23674   8.120   6.848  10.595  1.0111  0.1463 -1.2524
  176MOL0     N23675   7.467   6.743  10.600  0.1117  0.2528 -0.8556
  176MOL0     N23676   7.354   6.740  10.534 -0.5300 -0.1053  0.0548
  176MOL0     C23677   7.113   7.427   9.737  0.7199  0.8050 -0.5639
  176MOL0     C23678   7.117   7.556   9.769  0.6736 -0.5884  0.2916
  176MOL0     C23679   6.862   7.934   9.708  0.4689  0.6574  0.2768
  176MOL0     C23680   6.748   7.951   9.635  0.1225  1.0119 -0.5493
  176MOL0     C23681   6.682   8.068   9.637  0.0493  0.0998 -0.6942
  176MOL0     C23682   6.711   8.167   9.725 -0.8303  0.5262  0.9331
  176MOL0     O23683   6.654   8.289   9.752 -0.0879  0.7184 -0.3823
  176MOL0     C23684   6.547   8.330   9.667 -1.2964 -0.1149 -0.5840
  176MOL0     C23685   6.532   8.476   9.673 -0.1166 -1.5506  0.0687
  176MOL0     C23686   6.635   8.533   9.568 -0.0067 -0.0648  0.1266
  176MOL0     C23687   6.746   8.618   9.642  1.6704 -0.2643  0.0219
  176MOL0     C23688   6.791   8.724   9.551 -0.0107 -0.8580  0.5067
  176MOL0     C23689   6.818   8.822   9.487 -0.2789 -0.3266  0.1313
  176MOL0     C23690   6.825   8.151   9.799 -0.7066 -0.3337  0.8751
  176MOL0     C23691   6.907   8.038   9.792 -1.2098  0.8911  0.0845
  176MOL0     C23692   7.045   8.028   9.853 -0.0330 -0.6545  0.5836
  176MOL0     H23693   6.772   7.571   9.832  0.0130 -0.6678 -0.6257
  176MOL0     H23694   6.793   7.339   9.780 -1.1846  1.4511 -7.2560
  176MOL0     H23695   6.844   7.123   9.753  0.6738  3.7813  0.2567
  176MOL0     H23696   6.979   7.009   9.744 -1.5265  0.4936 -2.8509
  176MOL0     H23697   6.865   7.052   9.970 -1.8885  1.6995  0.6203
  176MOL0     H23698   6.969   7.185   9.986 -0.0104 -1.4071  0.8721
  176MOL0     H23699   7.182   7.072   9.979  1.5219 -1.3586  0.9688
  176MOL0     H23700   7.122   6.924   9.903 -1.1920 -1.7647  1.7526
  176MOL0     H23701   6.979   6.884  10.113 -0.9352  0.6550 -2.5633
  176MOL0     H23702   7.160   6.873  10.135  2.1597  1.4826 -0.4663
  176MOL0     H23703   7.172   7.107  10.208  0.9375 -2.3086  0.9365
  176MOL0     H23704   6.997   7.129  10.190  0.5955  0.7643  1.1641
  176MOL0     H23705   7.038   7.102  10.421  1.0495 -0.5909  0.8142
  176MOL0     H23706   6.974   6.949  10.355  0.3467 -1.3554 -2.0569
  176MOL0     H23707   7.269   6.989  10.402 -1.4968  2.7214 -1.0010
  176MOL0     H23708   7.191   6.843  10.341 -0.3100 -0.3772  0.1606
  176MOL0     H23709   7.124   6.977  10.604  0.4356  0.9753 -1.3684
  176MOL0     H23710   7.087   6.809  10.566 -0.1625  1.2080  0.6759
  176MOL0     H23711   7.318   6.923  10.809 -2.9898  1.3535 -2.0728
  176MOL0     H23712   7.610   6.928  10.819  1.1213 -1.2617  1.9702
  176MOL0     H23713   7.558   6.777  10.902  0.5889 -2.2189 -0.8671
  176MOL0     H23714   7.755   6.698  10.862 -1.8506 -1.0957  1.0857
  176MOL0     H23715   7.653   6.622  10.752  0.4790  0.7982 -3.1724
  176MOL0     H23716   7.818   6.868  10.645 -0.2276 -0.2406  0.3288
  176MOL0     H23717   7.716   6.755  10.554  0.3142 -0.8533 -0.3304
  176MOL0     H23718   7.927   6.691  10.529 -0.9710  3.3100 -0.0975
  176MOL0     H23719   7.841   6.580  10.632 -2.5484  1.0970 -0.7710
  176MOL0     H23720   8.128   6.766  10.920 -1.2337 -1.1000  0.9275
  176MOL0     H23721   8.284   6.932  10.932 -0.4239  2.1424 -0.2783
  176MOL0     H23722   8.296   7.359  10.876  0.8993  0.3725 -1.0254
  176MOL0     H23723   8.418   7.575  10.926  3.2631  1.6803 -1.6891
  176MOL0     H23724   8.746   7.653  10.761 -0.8274 -0.8889  0.1235
  176MOL0     H23725   8.578   7.680  10.771  0.6751 -2.0785  0.6017
  176MOL0     H23726   8.780   7.849  10.935 -1.7223  1.0094  2.1313
  176MOL0     H23727   8.729   7.882  10.772  2.9917  1.7463  2.4641
  176MOL0     H23728   8.488   7.870  10.861  0.5247 -2.0914  0.8721
  176MOL0     H23729   8.561   7.868  11.026  2.7878  2.0202  0.8433
  176MOL0     H23730   8.682   8.094  10.957 -0.7777  2.6716 -0.0108
  176MOL0     H23731   8.504   8.109  10.960 -1.9185  0.5641 -3.2838
  176MOL0     H23732   8.549   8.023  10.711 -1.2788 -0.8724  1.4927
  176MOL0     H23733   8.707   8.111  10.751  0.4034 -2.6297  1.0267
  176MOL0     H23734   8.422   8.218  10.759 -0.0175  0.7286  1.4594
  176MOL0     H23735   8.569   8.303  10.832 -0.1978 -1.1998 -0.0270
  176MOL0     H23736   8.524   8.262  10.541 -0.3593  0.2536  0.3394
  176MOL0     H23737   8.678   8.319  10.632 -0.6499 -0.9680  2.6906
  176MOL0     H23738   8.442   8.472  10.695  0.6602  2.3891  3.5460
  176MOL0     H23739   8.599   8.515  10.692 -1.4696  0.8930 -0.2431
  176MOL0     H23740   8.784   7.371  10.915 -0.5424  2.0396  2.1650
  176MOL0     H23741   8.670   7.156  10.876 -2.3953 -2.5476 -1.4429
  176MOL0     H23742   8.213   7.031  10.527  2.7813 -0.0242  0.5349
  176MOL0     H23743   8.079   6.816  10.501 -0.6926  1.2825 -0.9390
  176MOL0     H23744   7.204   7.392   9.688 -1.2893 -2.8998 -2.0505
  176MOL0     H23745   7.202   7.623   9.760  1.0185 -0.7960  1.7320
  176MOL0     H23746   6.717   7.891   9.549 -0.0624  4.9211 -3.5170
  176MOL0     H23747   6.589   8.084   9.582 -1.4407 -0.7789  1.4185
  176MOL0     H23748   6.451   8.298   9.708 -0.7397  1.6483  2.3828
  176MOL0     H23749   6.560   8.283   9.569  0.3502 -2.1941  0.5423
  176MOL0     H23750   6.537   8.519   9.773 -1.6646  0.5248 -0.6787
  176MOL0     H23751   6.430   8.504   9.645 -0.3423 -0.1186  2.1322
  176MOL0     H23752   6.570   8.586   9.499 -1.2725 -0.7550  0.7545
  176MOL0     H23753   6.694   8.461   9.509 -1.9526  0.8695 -3.2038
  176MOL0     H23754   6.714   8.673   9.731 -0.9017  1.7029 -1.9488
  176MOL0     H23755   6.831   8.555   9.668  1.3046 -1.5498 -1.7077
  176MOL0     H23756   6.820   8.917   9.438  0.0229 -0.1120  0.5582
  176MOL0     H23757   6.867   8.232   9.858  2.8569 -0.3359 -1.3846
  176MOL0     H23758   7.037   7.983   9.952 -1.4439 -0.2994  0.6672
  176MOL0     H23759   7.113   7.968   9.792 -2.4978 -2.1836 -0.8293
  176MOL0     H23760   7.066   8.135   9.857 -1.6971 -0.2269  6.3028
  177MOL0     O23761   9.018   6.179   1.281  0.2339 -0.5156 -0.2018
  177MOL0     C23762   9.138   6.210   1.287  0.3179  0.3169  0.0311
  177MOL0     O23763   9.221   6.186   1.396 -0.6479 -0.3367 -0.1999
  177MOL0     C23764   9.163   6.107   1.500 -0.1527 -0.1284 -0.7285
  177MOL0     C23765   9.088   5.998   1.467  0.0171  0.4445  0.4185
  177MOL0     C23766   9.023   5.925   1.572 -0.9215 -0.2245  0.2886
  177MOL0     C23767   9.047   5.958   1.703  0.2249 -0.1620 -0.4202
  177MOL0     O23768   8.979   5.885   1.792  0.1851 -0.1257 -1.2141
  177MOL0     C23769   9.038   5.840   1.913 -0.2593  0.3157 -0.4860
  177MOL0     C23770   8.933   5.762   1.994  0.9753 -0.3115  0.1772
  177MOL0     C23771   8.870   5.665   1.903 -0.2351  0.3953  0.1296
  177MOL0     C23772   8.788   5.546   1.978 -0.1820 -0.8427  0.1933
  177MOL0     C23773   8.745   5.448   1.867  0.2338  0.0232  0.8368
  177MOL0     C23774   8.660   5.331   1.922  0.4380 -0.8131  0.3634
  177MOL0     C23775   8.532   5.373   1.987 -0.5545 -0.1450  0.7093
  177MOL0     C23776   8.410   5.375   1.898  0.6359 -0.1970  0.1325
  177MOL0     N23777   8.378   5.247   1.821  0.3429 -0.6714 -0.5110
  177MOL0     C23778   8.289   5.163   1.880 -0.0507  0.3214 -0.5552
  177MOL0     C23779   8.279   5.055   1.789 -0.1586  0.0590 -0.0282
  177MOL0     C23780   8.196   4.931   1.827 -0.0704 -0.8668  0.4133
  177MOL0     C23781   8.070   4.944   1.743  0.2920 -0.2268  0.3656
  177MOL0     C23782   8.100   4.902   1.595 -0.0966 -0.2974  1.3826
  177MOL0     C23783   7.980   4.886   1.512  1.0917 -0.1155 -0.1142
  177MOL0     O23784   8.039   4.826   1.390  0.3489 -0.4257 -0.4341
  177MOL0     C23785   7.955   4.773   1.301  0.0779  0.1520 -0.6305
  177MOL0     C23786   8.021   4.684   1.215 -0.1586 -0.5385 -0.7367
  177MOL0     C23787   7.959   4.626   1.109  1.5172 -0.4134 -0.9370
  177MOL0     C23788   7.816   4.647   1.102 -0.6516 -0.1194  0.2507
  177MOL0     C23789   7.743   4.581   0.991  0.4359  1.0897 -0.5015
  177MOL0     O23790   7.610   4.630   0.958 -0.7800  1.0205 -0.0795
  177MOL0     C23791   7.557   4.578   0.840  0.5372  0.3936  0.1349
  177MOL0     C23792   7.522   4.443   0.810  0.3000  0.3701  0.1813
  177MOL0     C23793   7.449   4.416   0.692  0.8404 -0.1918 -1.1228
  177MOL0     C23794   7.395   4.524   0.617  1.0754 -1.0011 -0.7509
  177MOL0     O23795   7.299   4.513   0.522 -0.3350  0.4708  0.5214
  177MOL0     C23796   7.256   4.385   0.479  0.2721 -0.1652  0.6588
  177MOL0     C23797   7.180   4.401   0.341 -0.1069 -1.7144  0.4957
  177MOL0     C23798   7.064   4.495   0.341 -0.4112 -0.6353 -0.0863
  177MOL0     C23799   6.968   4.448   0.455 -0.0780 -0.1873 -0.1098
  177MOL0     C23800   6.827   4.520   0.453 -0.9289  0.9024  0.2433
  177MOL0     C23801   6.744   4.537   0.330  0.2531  0.3117 -0.1935
  177MOL0     C23802   6.665   4.406   0.304  0.7633 -0.1794 -0.2062
  177MOL0     C23803   6.567   4.426   0.182  0.1057  0.9228 -0.6744
  177MOL0    Cl23804   6.422   4.319   0.206 -0.0926  0.4105 -0.0542
  177MOL0     C23805   7.447   4.651   0.639  0.8288 -0.4518  0.7948
  177MOL0     C23806   7.524   4.676   0.750  0.4489 -0.0991 -0.1520
  177MOL0     O23807   7.802   4.494   0.937 -0.1055  0.4384 -0.1639
  177MOL0     C23808   7.757   4.748   1.184 -0.0609  0.4863  0.6225
  177MOL0     C23809   7.826   4.803   1.285 -0.2425 -0.8856 -0.5048
  177MOL0     N23810   8.381   5.078   1.688  0.8992  0.2859  0.0087
  177MOL0     N23811   8.433   5.193   1.709 -0.6947  0.0600  0.7621
  177MOL0     C23812   9.121   6.066   1.744  0.1700  0.7059  0.3578
  177MOL0     C23813   9.177   6.142   1.636  0.0243  0.1075 -0.4378
  177MOL0     C23814   9.187   6.289   1.166 -0.2903  0.5768 -0.1218
  177MOL0     C23815   9.296   6.377   1.176 -0.6482  0.4790 -0.5670
  177MOL0     C23816   9.333   6.470   1.070  1.2922  0.7160 -0.0180
  177MOL0     C23817   9.259   6.480   0.956  0.4320  0.3123 -0.0458
  177MOL0     O23818   9.289   6.566   0.847 -0.3133 -0.2567 -0.6915
  177MOL0     C23819   9.374   6.680   0.870  0.5783  0.7075  0.5574
  177MOL0     C23820   9.318   6.782   0.969  0.0210  0.4239  0.7529
  177MOL0     C23821   9.187   6.841   0.916  0.0272  0.5904  0.0380
  177MOL0     C23822   9.190   6.893   0.778  0.7040 -0.3508 -0.7900
  177MOL0     C23823   9.081   6.989   0.760  0.3442 -0.1578 -0.4567
  177MOL0     C23824   8.986   7.065   0.743  0.0844 -0.0576  0.4247
  177MOL0     C23825   9.165   6.379   0.943  1.6637 -0.4344  0.5727
  177MOL0     C23826   9.128   6.288   1.040 -0.4860 -0.1996  0.2150
  177MOL0     C23827   9.021   6.204   0.992  0.7523 -0.8031 -0.6183
  177MOL0     H23828   9.077   5.957   1.367 -2.6583 -0.2270  0.8989
  177MOL0     H23829   8.952   5.846   1.549 -1.3745  1.0259 -3.2580
  177MOL0     H23830   9.103   5.758   1.883 -0.6986 -0.4329  0.5459
  177MOL0     H23831   9.085   5.907   1.986 -0.3056 -1.5459  1.3527
  177MOL0     H23832   8.861   5.828   2.044 -0.4373 -1.7812  0.1736
  177MOL0     H23833   8.990   5.713   2.073  3.5884  0.8741 -0.8476
  177MOL0     H23834   8.946   5.612   1.844 -1.8745 -0.4215 -1.3576
  177MOL0     H23835   8.810   5.706   1.821 -1.2451  0.0420  0.6783
  177MOL0     H23836   8.847   5.489   2.050 -2.3391 -2.1683  0.9995
  177MOL0     H23837   8.714   5.591   2.045 -0.9356 -0.2301 -1.0200
  177MOL0     H23838   8.682   5.495   1.791 -0.5788 -1.9056  0.2627
  177MOL0     H23839   8.828   5.393   1.822 -0.9106 -2.4704  1.5385
  177MOL0     H23840   8.644   5.247   1.853  2.3021 -1.3895  0.5729
  177MOL0     H23841   8.714   5.264   1.990  0.2290 -3.6625 -2.0918
  177MOL0     H23842   8.541   5.458   2.056 -0.9133  1.0649 -0.6839
  177MOL0     H23843   8.504   5.287   2.049 -1.4812  0.3327  0.9805
  177MOL0     H23844   8.322   5.397   1.959  2.0204  0.7910  1.8859
  177MOL0     H23845   8.404   5.459   1.828  0.7427  0.5188  0.9638
  177MOL0     H23846   8.235   5.163   1.975 -0.8215 -1.6452 -0.9515
  177MOL0     H23847   8.258   4.845   1.801 -0.2659 -0.4806 -1.4832
  177MOL0     H23848   8.190   4.926   1.936  1.9983  1.1773  0.7190
  177MOL0     H23849   8.012   4.862   1.785  1.6681 -2.8384 -2.4348
  177MOL0     H23850   8.025   5.044   1.742 -1.0244 -0.8039 -0.0065
  177MOL0     H23851   8.154   4.806   1.591  1.3591  0.5423 -1.2897
  177MOL0     H23852   8.168   4.977   1.555 -0.9542  0.7779  1.8754
  177MOL0     H23853   7.928   4.982   1.501  1.1302  0.1171  1.4307
  177MOL0     H23854   7.915   4.814   1.563 -0.3363  1.5666  0.5548
  177MOL0     H23855   8.126   4.660   1.226 -0.6049 -1.2409  3.9382
  177MOL0     H23856   8.016   4.551   1.054  2.7367  0.0831 -0.3795
  177MOL0     H23857   7.572   4.361   0.861  0.8844 -2.7527 -4.7316
  177MOL0     H23858   7.416   4.317   0.663 -0.5163  0.3838 -1.6154
  177MOL0     H23859   7.338   4.314   0.468  1.0559  0.7520  0.3731
  177MOL0     H23860   7.183   4.342   0.548 -0.3679  0.1159  0.1666
  177MOL0     H23861   7.251   4.439   0.267 -0.0393  1.4036  2.0218
  177MOL0     H23862   7.150   4.304   0.300  0.3691 -1.2630 -0.9795
  177MOL0     H23863   7.092   4.599   0.361  0.0086 -0.8840  0.6693
  177MOL0     H23864   7.014   4.484   0.244 -0.1152 -0.9038 -0.2107
  177MOL0     H23865   7.021   4.468   0.549  1.4047  0.2155 -1.0020
  177MOL0     H23866   6.954   4.340   0.446 -0.4998 -0.1457 -0.0001
  177MOL0     H23867   6.849   4.620   0.491 -2.1224  0.4278  2.3987
  177MOL0     H23868   6.764   4.476   0.531 -1.5088 -1.8646 -1.6237
  177MOL0     H23869   6.673   4.619   0.346 -0.4972  0.1505 -2.3975
  177MOL0     H23870   6.790   4.563   0.235 -0.5646 -0.9110 -0.9540
  177MOL0     H23871   6.606   4.385   0.394  2.9160  0.6656  1.5040
  177MOL0     H23872   6.738   4.327   0.285  1.4122  0.7885 -2.0389
  177MOL0     H23873   6.528   4.526   0.165 -2.0378  0.0982 -0.9917
  177MOL0     H23874   6.625   4.403   0.092  2.9888  2.0954  0.7448
  177MOL0     H23875   7.415   4.733   0.575 -1.1126  0.5560  2.8885
  177MOL0     H23876   7.560   4.774   0.776  4.4370 -1.4557  0.1074
  177MOL0     H23877   7.649   4.759   1.184 -0.0905  0.2655  1.3358
  177MOL0     H23878   7.780   4.880   1.347  0.9842  0.6696 -1.4481
  177MOL0     H23879   9.131   6.098   1.847 -2.2438 -3.5393  2.1779
  177MOL0     H23880   9.258   6.213   1.648  1.0338 -1.2438  1.2389
  177MOL0     H23881   9.352   6.379   1.269  3.6621  2.8687 -2.9569
  177MOL0     H23882   9.423   6.529   1.084  4.1588 -3.0133 -0.8568
  177MOL0     H23883   9.391   6.717   0.769 -1.0689  0.1923  0.0611
  177MOL0     H23884   9.472   6.651   0.909 -0.3168 -0.1824  2.2737
  177MOL0     H23885   9.386   6.868   0.971  1.7968 -0.8883 -0.0951
  177MOL0     H23886   9.299   6.736   1.066 -1.7073 -2.6008 -0.8620
  177MOL0     H23887   9.177   6.920   0.992  1.3648  0.2144  0.6357
  177MOL0     H23888   9.106   6.769   0.930  1.6924 -1.3234  0.3226
  177MOL0     H23889   9.283   6.951   0.773 -0.0069  0.9844  0.7586
  177MOL0     H23890   9.184   6.816   0.700  2.7018 -0.4506 -0.8935
  177MOL0     H23891   8.912   7.142   0.736  2.2103  2.0141 -0.1620
  177MOL0     H23892   9.118   6.353   0.848 -1.7603 -5.4836  3.1712
  177MOL0     H23893   8.934   6.211   1.058  1.1334  0.5463 -0.2178
  177MOL0     H23894   8.974   6.235   0.898 -0.2382 -0.0127  0.1163
  177MOL0     H23895   9.059   6.103   0.975  0.5052 -1.1860  0.9126
  178MOL0     O23896   2.310   4.043   9.912  0.3658 -0.8612 -0.4320
  178MOL0     C23897   2.405   4.029   9.992 -0.7373  1.1249 -0.3666
  178MOL0     O23898   2.396   4.035  10.131  0.2155  0.2894 -0.5729
  178MOL0     C23899   2.271   4.067  10.179 -0.4332 -0.1113 -1.1655
  178MOL0     C23900   2.182   3.962  10.217 -0.0019 -0.3454 -0.1364
  178MOL0     C23901   2.056   3.996  10.263  0.3146 -0.4907  0.3745
  178MOL0     C23902   2.020   4.137  10.283 -0.0955 -0.7335  0.7078
  178MOL0     O23903   1.911   4.177  10.350 -0.3711  0.6842  0.3046
  178MOL0     C23904   1.931   4.203  10.490  0.7335 -0.6198  0.1072
  178MOL0     C23905   1.869   4.341  10.537  0.5298 -0.0721  1.0873
  178MOL0     C23906   1.855   4.338  10.691 -0.4683  0.0108 -0.5010
  178MOL0     C23907   1.993   4.356  10.773  0.0623 -0.0572  0.0632
  178MOL0     C23908   1.983   4.308  10.925 -0.1658  0.4846  0.0150
  178MOL0     C23909   2.106   4.250  10.992  0.1843  1.0089 -0.0684
  178MOL0     C23910   2.209   4.349  11.040  0.1216 -0.7741  0.4783
  178MOL0     C23911   2.334   4.295  11.107 -0.4812 -0.2022 -0.2789
  178MOL0     N23912   2.417   4.412  11.144 -0.1454  0.6229 -0.4031
  178MOL0     C23913   2.394   4.502  11.250 -0.5317 -0.2533  2.0267
  178MOL0     C23914   2.501   4.579  11.250  0.6541 -0.2298 -0.1972
  178MOL0     C23915   2.541   4.693  11.345 -0.3724 -0.8611  0.5490
  178MOL0     C23916   2.465   4.701  11.484  0.4149 -0.1104  0.2647
  178MOL0     C23917   2.474   4.833  11.556 -0.4794 -0.4482 -0.1577
  178MOL0     C23918   2.600   4.908  11.576 -1.5570  1.0931 -0.3698
  178MOL0     O23919   2.583   5.025  11.650 -0.3799 -0.7936  0.9637
  178MOL0     C23920   2.676   5.045  11.751 -0.2934 -0.3291  0.2151
  178MOL0     C23921   2.792   5.116  11.751 -1.1402  0.2619  0.3171
  178MOL0     C23922   2.899   5.109  11.847 -0.3030  0.8122 -0.2332
  178MOL0     C23923   2.871   5.039  11.963 -0.4824  0.2370  0.6042
  178MOL0     C23924   2.959   5.035  12.081 -0.1241  0.2532  0.2273
  178MOL0     O23925   3.083   5.105  12.072  0.3735  1.4203 -0.5102
  178MOL0     C23926   3.167   5.130  12.181 -0.3528 -0.3861  0.4838
  178MOL0     C23927   3.284   5.194  12.140  0.0987  0.5742  0.5701
  178MOL0     C23928   3.384   5.230  12.235 -1.5026  0.1400 -0.8307
  178MOL0     C23929   3.363   5.206  12.379 -0.0510  0.5744  0.8589
  178MOL0     O23930   3.442   5.240  12.483 -0.1933 -0.7582 -0.2729
  178MOL0     C23931   3.585   5.248  12.458  0.9220  1.1615  0.1014
  178MOL0     C23932   3.637   5.106  12.435 -0.0968  0.9737  0.4883
  178MOL0     C23933   3.790   5.103  12.426 -0.2749  1.1959 -1.2712
  178MOL0     C23934   3.851   4.958  12.390 -0.1992  0.3729 -0.4863
  178MOL0     C23935   4.002   4.957  12.380 -0.3736  0.7122 -0.0095
  178MOL0     C23936   4.070   4.957  12.517  0.8918  0.4664 -0.3741
  178MOL0     C23937   4.019   4.865  12.629 -0.1792 -0.3943 -0.4222
  178MOL0     C23938   4.124   4.834  12.740  0.5198  0.2906  0.9957
  178MOL0    Cl23939   4.252   4.725  12.665 -0.0105 -0.3098  0.5375
  178MOL0     C23940   3.233   5.156  12.413  0.0685 -0.8524 -0.8200
  178MOL0     C23941   3.135   5.117  12.317  0.5869 -0.3151 -0.6311
  178MOL0     O23942   2.921   4.970  12.178 -0.0757  0.4915 -0.0435
  178MOL0     C23943   2.749   4.968  11.970 -0.3682  0.1924  0.2330
  178MOL0     C23944   2.657   4.974  11.869  0.0769  0.1297  0.8790
  178MOL0     N23945   2.587   4.556  11.147  1.4678  1.3631 -0.5798
  178MOL0     N23946   2.538   4.456  11.081 -0.4728 -0.2184 -0.4940
  178MOL0     C23947   2.107   4.237  10.245  0.0281  0.1487 -0.4023
  178MOL0     C23948   2.229   4.197  10.198  0.0332 -0.8578 -1.6879
  178MOL0     C23949   2.531   3.974   9.939  0.0848 -0.6149  0.3201
  178MOL0     C23950   2.593   3.868  10.002 -0.4311 -0.0732  0.2561
  178MOL0     C23951   2.721   3.823   9.966 -0.2718 -0.1440  0.6789
  178MOL0     C23952   2.778   3.875   9.851  0.1785 -0.0128  0.4047
  178MOL0     O23953   2.894   3.825   9.818  0.3906  0.6132  0.5746
  178MOL0     C23954   2.989   3.921   9.774  0.1942  1.4254 -0.0721
  178MOL0     C23955   3.127   3.874   9.813  0.0560 -0.1045 -0.7184
  178MOL0     C23956   3.228   3.989   9.843  0.0164  0.6871  0.1578
  178MOL0     C23957   3.379   3.951   9.871 -0.3473 -0.7397  0.5454
  178MOL0     C23958   3.420   3.849   9.774  0.1395  0.6363 -0.4942
  178MOL0     C23959   3.459   3.741   9.725  0.0022 -0.6895 -0.9193
  178MOL0     C23960   2.707   3.960   9.763  0.9375 -0.5379 -0.6782
  178MOL0     C23961   2.573   4.009   9.815  0.3459 -0.1170 -0.0868
  178MOL0     C23962   2.508   4.123   9.738 -0.2830 -0.4345  0.1197
  178MOL0     H23963   2.191   3.856  10.196 -0.8282 -0.4486  0.0008
  178MOL0     H23964   1.992   3.911  10.285  1.7537 -1.1709  2.2156
  178MOL0     H23965   1.867   4.123  10.530 -0.8202  1.0443  1.0905
  178MOL0     H23966   2.031   4.194  10.533  2.1344  0.9154 -2.6145
  178MOL0     H23967   1.777   4.343  10.478  1.0708 -1.2685  0.1485
  178MOL0     H23968   1.942   4.412  10.496  0.3838 -0.2278  0.5427
  178MOL0     H23969   1.809   4.241  10.714  0.5154  0.1203  2.3624
  178MOL0     H23970   1.785   4.413  10.728  1.8315  1.4526  1.2155
  178MOL0     H23971   2.068   4.294  10.724  0.3632  0.3666 -0.0263
  178MOL0     H23972   2.037   4.456  10.776 -2.7914  1.2960  2.4914
  178MOL0     H23973   1.958   4.399  10.980  0.1139  1.7873 -1.9137
  178MOL0     H23974   1.895   4.244  10.939 -1.6439  2.7809  2.2702
  178MOL0     H23975   2.077   4.196  11.082  0.4029  0.7862 -0.1285
  178MOL0     H23976   2.160   4.175  10.934  2.9231  2.4964  0.3756
  178MOL0     H23977   2.156   4.420  11.104 -1.9544  2.7445 -4.5042
  178MOL0     H23978   2.235   4.415  10.957 -1.0642  1.4907  1.7990
  178MOL0     H23979   2.311   4.237  11.196 -5.4440 -5.4387 -4.2228
  178MOL0     H23980   2.390   4.226  11.042 -0.9942 -0.0178 -0.9333
  178MOL0     H23981   2.311   4.497  11.320 -0.4238  1.6094  2.3325
  178MOL0     H23982   2.648   4.681  11.362 -0.4336 -1.6657  0.4072
  178MOL0     H23983   2.519   4.784  11.288 -1.3389 -1.4386 -0.0350
  178MOL0     H23984   2.362   4.667  11.485  1.3201 -3.1009  0.4897
  178MOL0     H23985   2.520   4.639  11.555  1.9380  0.5150 -0.3073
  178MOL0     H23986   2.440   4.811  11.658 -1.1147 -1.2667 -0.5382
  178MOL0     H23987   2.402   4.904  11.514 -1.0505 -0.9430 -0.0329
  178MOL0     H23988   2.650   4.938  11.483  0.7229  0.4953  0.6016
  178MOL0     H23989   2.682   4.842  11.606 -2.6710 -0.0372  0.2753
  178MOL0     H23990   2.801   5.166  11.655 -1.0684  1.5904  0.9836
  178MOL0     H23991   2.999   5.142  11.822 -0.5464  1.0698 -0.8909
  178MOL0     H23992   3.303   5.201  12.034 -0.6596  0.9563  0.4530
  178MOL0     H23993   3.472   5.288  12.208  0.2893 -0.7184  2.5972
  178MOL0     H23994   3.608   5.322  12.381 -1.2152 -1.3352 -3.2278
  178MOL0     H23995   3.623   5.280  12.556 -2.4128 -0.9185  2.3010
  178MOL0     H23996   3.607   5.044  12.520 -0.0578  1.2165  0.6796
  178MOL0     H23997   3.593   5.061  12.345  0.1299 -0.1837  0.9386
  178MOL0     H23998   3.823   5.171  12.347  1.4135  0.1567 -1.5207
  178MOL0     H23999   3.819   5.139  12.525 -1.7858 -1.1489  0.1288
  178MOL0     H24000   3.797   4.925  12.301 -4.1647  2.3111  0.9562
  178MOL0     H24001   3.819   4.887  12.467 -0.0671  0.9394  0.1086
  178MOL0     H24002   4.041   5.031  12.310  1.2669 -1.9877 -2.1324
  178MOL0     H24003   4.033   4.865  12.328 -0.0758 -0.6033  2.3596
  178MOL0     H24004   4.175   4.929  12.512  1.3822  2.3370 -1.5830
  178MOL0     H24005   4.097   5.060  12.544  0.1842  0.2462  1.2833
  178MOL0     H24006   3.982   4.767  12.595 -2.1586 -0.4340  1.6106
  178MOL0     H24007   3.933   4.906  12.683 -0.1408 -0.1819 -0.5223
  178MOL0     H24008   4.158   4.930  12.782 -0.8457  0.1641  2.4971
  178MOL0     H24009   4.087   4.772  12.822 -0.0159 -1.9455 -0.8537
  178MOL0     H24010   3.216   5.128  12.517 -1.6882 -1.8540 -1.3267
  178MOL0     H24011   3.043   5.069  12.349  2.5388 -4.2357 -0.3364
  178MOL0     H24012   2.728   4.908  12.058  1.5733 -0.3931  0.3513
  178MOL0     H24013   2.559   4.927  11.870  0.3579 -0.5193 -0.2080
  178MOL0     H24014   2.073   4.341  10.246  2.4443  0.9890  0.3530
  178MOL0     H24015   2.294   4.278  10.165  1.0573 -0.3242  1.3349
  178MOL0     H24016   2.550   3.815  10.087  4.0945 -0.7477  2.4625
  178MOL0     H24017   2.773   3.741  10.014 -0.2251 -1.3403 -1.3097
  178MOL0     H24018   2.969   4.005   9.841  0.5164  1.7674 -0.3942
  178MOL0     H24019   2.984   3.943   9.666  1.2066  2.0421 -0.0117
  178MOL0     H24020   3.159   3.801   9.738 -0.0686 -1.6385  0.6623
  178MOL0     H24021   3.123   3.815   9.906 -0.1324  1.8581  0.5671
  178MOL0     H24022   3.189   4.034   9.935  0.5137 -2.8025  2.2447
  178MOL0     H24023   3.235   4.055   9.756  1.6589 -2.8454 -2.6210
  178MOL0     H24024   3.443   4.039   9.862 -2.1860  0.7725  1.3961
  178MOL0     H24025   3.394   3.912   9.972  3.1224 -1.9554 -0.2778
  178MOL0     H24026   3.486   3.644   9.688  0.2194 -1.5209  1.2897
  178MOL0     H24027   2.744   3.991   9.666 -0.0959  2.7923 -0.1197
  178MOL0     H24028   2.578   4.140   9.656 -0.6149  1.6919  0.2162
  178MOL0     H24029   2.421   4.081   9.685  0.3705 -2.1492  0.3464
  178MOL0     H24030   2.493   4.213   9.798  1.5583 -0.9102  1.3739
  179MOL0     O24031  10.591   4.075   1.075  0.0347 -0.1554 -0.0335
  179MOL0     C24032  10.586   3.953   1.054  0.1668 -0.5069 -0.5297
  179MOL0     O24033  10.655   3.849   1.115 -0.1705 -0.1558 -0.2961
  179MOL0     C24034  10.744   3.883   1.208  0.9244 -0.1489 -0.4199
  179MOL0     C24035  10.874   3.916   1.178  0.3384 -0.1088 -0.7341
  179MOL0     C24036  10.965   3.924   1.277  0.6404  0.7093  0.2019
  179MOL0     C24037  10.929   3.900   1.407  0.4766  0.6356 -0.2173
  179MOL0     O24038  11.036   3.895   1.493 -1.1669 -0.0854 -0.8494
  179MOL0     C24039  11.028   3.898   1.632  0.6427 -0.3934 -0.0156
  179MOL0     C24040  10.981   3.759   1.691 -0.4825  0.2172 -1.0161
  179MOL0     C24041  11.092   3.652   1.706 -0.0932 -0.6082 -0.5142
  179MOL0     C24042  11.156   3.599   1.575 -0.0487 -0.1551 -0.4830
  179MOL0     C24043  11.062   3.547   1.467 -0.6367  0.7471 -0.8066
  179MOL0     C24044  10.986   3.423   1.517  0.3900 -0.0652 -0.2467
  179MOL0     C24045  10.926   3.336   1.405  0.2702 -0.2136  0.0136
  179MOL0     C24046  10.878   3.198   1.451 -0.2015 -0.2223  0.4047
  179MOL0     N24047  10.812   3.194   1.588  0.2538  0.2525  0.3068
  179MOL0     C24048  10.694   3.250   1.619  0.4710  0.3267 -0.0814
  179MOL0     C24049  10.651   3.184   1.735  0.0101  1.1844  0.0530
  179MOL0     C24050  10.526   3.215   1.805  0.5829  0.2725  0.6482
  179MOL0     C24051  10.409   3.110   1.790  0.3775  0.0017  0.6772
  179MOL0     C24052  10.418   2.985   1.708  0.1022 -1.6028 -1.3350
  179MOL0     C24053  10.327   2.990   1.582  0.5256 -0.0754 -0.6906
  179MOL0     O24054  10.377   3.077   1.480 -0.3056  0.0194 -0.0579
  179MOL0     C24055  10.278   3.138   1.406 -0.3788 -0.1442  1.0756
  179MOL0     C24056  10.182   3.067   1.334  0.6272  0.1956 -0.7212
  179MOL0     C24057  10.089   3.138   1.257 -0.3004 -1.1164  0.6052
  179MOL0     C24058  10.082   3.275   1.259  0.8809 -0.4467  0.8880
  179MOL0     C24059  10.002   3.359   1.169 -0.0717  0.7037  0.4556
  179MOL0     O24060   9.971   3.297   1.055  0.1276  0.2254  0.1510
  179MOL0     C24061   9.933   3.374   0.946 -1.2043  0.1053 -0.5978
  179MOL0     C24062  10.011   3.490   0.900  0.8110  0.0175 -0.4747
  179MOL0     C24063   9.964   3.560   0.795  0.4442  0.2629  0.8946
  179MOL0     C24064   9.840   3.528   0.740  0.0166 -0.3950  0.4130
  179MOL0     O24065   9.801   3.601   0.624  0.1266 -0.8079 -1.2641
  179MOL0     C24066   9.661   3.620   0.595  0.8629  0.9613  1.2604
  179MOL0     C24067   9.593   3.740   0.664  0.0539  0.1749 -0.3968
  179MOL0     C24068   9.438   3.747   0.642  0.1415 -0.9407 -0.4234
  179MOL0     C24069   9.404   3.793   0.499  0.5692  0.3519 -0.5351
  179MOL0     C24070   9.249   3.824   0.491 -0.2680 -0.6252  0.0737
  179MOL0     C24071   9.210   3.896   0.355 -0.2138  0.5985  0.1686
  179MOL0     C24072   9.071   3.935   0.352  0.2593 -0.2585  0.6561
  179MOL0     C24073   8.954   3.835   0.376 -0.0808 -0.4404 -0.0525
  179MOL0    Cl24074   8.931   3.721   0.243 -0.6114 -0.0262 -0.3275
  179MOL0     C24075   9.762   3.425   0.788 -0.0283  0.0707 -0.8484
  179MOL0     C24076   9.810   3.339   0.890 -0.1831 -0.9815 -0.7079
  179MOL0     O24077   9.998   3.481   1.186 -0.0960 -0.4344  0.1886
  179MOL0     C24078  10.183   3.343   1.323  0.0641  1.0689  0.3699
  179MOL0     C24079  10.285   3.277   1.392  0.3246 -0.2492  0.2339
  179MOL0     N24080  10.744   3.080   1.760  0.0930 -0.1528  0.0661
  179MOL0     N24081  10.845   3.085   1.674 -0.6134 -0.1960 -0.5519
  179MOL0     C24082  10.799   3.878   1.444  0.3735  1.0029  1.0572
  179MOL0     C24083  10.707   3.870   1.341 -0.7184  0.5782 -1.0843
  179MOL0     C24084  10.483   3.923   0.949  0.0437  1.0237  0.0391
  179MOL0     C24085  10.411   4.024   0.882 -0.0471 -0.3741  0.9744
  179MOL0     C24086  10.321   3.998   0.785 -0.9967  0.6670 -0.0801
  179MOL0     C24087  10.299   3.864   0.743 -0.3671  0.1624  0.4466
  179MOL0     O24088  10.220   3.832   0.636 -0.2841  0.0326 -0.1221
  179MOL0     C24089  10.177   3.935   0.537 -0.2424  0.2049  0.6282
  179MOL0     C24090  10.077   3.868   0.441 -0.5721 -0.8022  0.4743
  179MOL0     C24091   9.997   3.977   0.364 -0.2382  0.1251  0.0486
  179MOL0     C24092   9.902   3.915   0.267 -0.9245  0.1079  0.9677
  179MOL0     C24093   9.823   4.024   0.203  0.8509 -1.3143 -0.7177
  179MOL0     C24094   9.754   4.109   0.148 -1.0896  0.4061 -0.0274
  179MOL0     C24095  10.364   3.766   0.812 -0.5451 -1.6932 -0.5786
  179MOL0     C24096  10.448   3.783   0.915 -0.2479 -1.0753  0.2841
  179MOL0     C24097  10.469   3.670   1.007 -0.1461 -0.3905 -0.1879
  179MOL0     H24098  10.904   3.926   1.074 -3.0817  0.7505 -1.7799
  179MOL0     H24099  11.068   3.941   1.249 -0.1472  0.7768 -3.1200
  179MOL0     H24100  11.125   3.914   1.679  0.8198 -1.1104 -0.1248
  179MOL0     H24101  10.956   3.969   1.672  2.8768  0.4489  2.8259
  179MOL0     H24102  10.901   3.703   1.641  2.4203 -3.3743 -2.1873
  179MOL0     H24103  10.938   3.772   1.790  0.9722 -1.9402 -0.0299
  179MOL0     H24104  11.053   3.573   1.771 -0.0667 -1.2182 -1.2207
  179MOL0     H24105  11.163   3.701   1.773 -1.2153  0.6271 -0.1690
  179MOL0     H24106  11.205   3.687   1.531 -1.1057  0.8079  0.1925
  179MOL0     H24107  11.238   3.528   1.591 -0.7185 -1.2453 -1.6948
  179MOL0     H24108  10.983   3.621   1.446 -0.6889  0.7790 -0.5004
  179MOL0     H24109  11.108   3.527   1.370 -0.2184  3.4624 -1.2463
  179MOL0     H24110  11.051   3.362   1.580  0.4143  1.5947  1.4338
  179MOL0     H24111  10.900   3.464   1.570  1.3971  0.6661  0.8931
  179MOL0     H24112  11.016   3.308   1.349 -0.5944 -2.2870 -0.4070
  179MOL0     H24113  10.846   3.395   1.359  0.6625  1.1718  1.0541
  179MOL0     H24114  10.817   3.159   1.368  2.0529  0.7335 -1.8382
  179MOL0     H24115  10.964   3.131   1.444  0.2155  0.2919  0.5106
  179MOL0     H24116  10.660   3.343   1.577  1.6272  2.1033  2.6007
  179MOL0     H24117  10.546   3.224   1.912 -4.0147  2.3060  1.5773
  179MOL0     H24118  10.497   3.314   1.769  1.4651  0.2432 -0.1931
  179MOL0     H24119  10.406   3.076   1.894  2.9905 -0.1421  0.7710
  179MOL0     H24120  10.311   3.155   1.772  1.3016  2.4153  1.2177
  179MOL0     H24121  10.393   2.903   1.776  3.5801 -2.6941 -1.2026
  179MOL0     H24122  10.515   2.953   1.673 -0.1236 -2.1082 -1.4977
  179MOL0     H24123  10.223   3.007   1.611  0.1221 -0.6963 -1.6920
  179MOL0     H24124  10.322   2.889   1.538 -4.0313  0.0822 -1.0155
  179MOL0     H24125  10.164   2.961   1.347 -0.4617  0.4939  0.4412
  179MOL0     H24126  10.006   3.081   1.217 -0.1282 -1.7173  1.0804
  179MOL0     H24127  10.097   3.539   0.947 -0.0284  2.5829 -1.4534
  179MOL0     H24128  10.021   3.637   0.744  0.7992 -1.0397 -0.7495
  179MOL0     H24129   9.654   3.641   0.488  2.8968 -0.7176  0.7421
  179MOL0     H24130   9.601   3.530   0.610  0.3488  0.1464 -3.9721
  179MOL0     H24131   9.604   3.736   0.773  2.1895 -2.1308 -0.6243
  179MOL0     H24132   9.651   3.830   0.639  0.5496 -0.3635 -1.2058
  179MOL0     H24133   9.400   3.650   0.674  0.4956 -0.4773  1.5468
  179MOL0     H24134   9.401   3.824   0.710 -0.4852 -1.9087  0.3618
  179MOL0     H24135   9.435   3.720   0.423  1.3032 -0.3064  0.3819
  179MOL0     H24136   9.457   3.888   0.487 -0.6735  1.1847  0.2710
  179MOL0     H24137   9.233   3.893   0.574 -0.1166  1.4774 -1.5783
  179MOL0     H24138   9.186   3.736   0.508  0.0828 -0.5280  2.0810
  179MOL0     H24139   9.262   3.992   0.350 -0.6230  0.7469 -2.0710
  179MOL0     H24140   9.234   3.831   0.270  0.9358  1.1138  0.0760
  179MOL0     H24141   9.049   3.974   0.252 -3.4280 -4.5242 -0.5265
  179MOL0     H24142   9.071   4.024   0.415  3.0998 -0.4274  0.9978
  179MOL0     H24143   8.980   3.774   0.463  2.8567 -2.7134 -2.3487
  179MOL0     H24144   8.864   3.892   0.403  2.9842  3.7138  2.5693
  179MOL0     H24145   9.677   3.386   0.733 -0.5598 -0.5794  0.3719
  179MOL0     H24146   9.757   3.252   0.927 -0.4451 -0.3688  0.3876
  179MOL0     H24147  10.187   3.452   1.319 -0.5552  1.0765 -0.1661
  179MOL0     H24148  10.363   3.338   1.436  0.9780 -0.5873 -0.4442
  179MOL0     H24149  10.763   3.874   1.547  1.1248  0.6686  1.3089
  179MOL0     H24150  10.609   3.847   1.383  1.4020 -3.1968  2.6788
  179MOL0     H24151  10.430   4.129   0.901  1.6081 -0.4668 -0.0108
  179MOL0     H24152  10.276   4.086   0.740 -2.5820 -0.7349 -1.3510
  179MOL0     H24153  10.261   3.971   0.477  0.0033 -3.2375 -1.3392
  179MOL0     H24154  10.125   4.018   0.586  1.6077 -0.8773  4.9103
  179MOL0     H24155  10.013   3.798   0.495 -0.6808 -0.6940  0.4869
  179MOL0     H24156  10.137   3.813   0.368 -0.3674  1.0008 -0.7874
  179MOL0     H24157  10.066   4.049   0.318  2.6454 -1.9821  0.7992
  179MOL0     H24158   9.944   4.026   0.446  0.6507 -0.3317  0.9193
  179MOL0     H24159   9.955   3.866   0.184 -0.3803  2.2897 -0.0291
  179MOL0     H24160   9.831   3.847   0.314 -1.5745  0.0464 -0.0730
  179MOL0     H24161   9.712   4.194   0.098  0.1454 -0.3973 -2.5839
  179MOL0     H24162  10.317   3.668   0.800 -2.8484 -0.6846 -0.2382
  179MOL0     H24163  10.398   3.589   0.987  0.0728 -0.2885 -1.4843
  179MOL0     H24164  10.575   3.642   1.008 -0.1764 -0.4907  0.4201
  179MOL0     H24165  10.442   3.707   1.106  1.9254 -0.4416  0.4412
  180MOL0     O24166   4.980  10.768   6.663  0.4989  0.2453 -0.0455
  180MOL0     C24167   5.035  10.664   6.656  0.5704  0.0819  0.7660
  180MOL0     O24168   5.158  10.637   6.712  0.5229  0.0772 -0.4387
  180MOL0     C24169   5.226  10.736   6.770 -0.4626 -0.1975 -0.3498
  180MOL0     C24170   5.260  10.731   6.902 -1.7442  0.0146  0.0038
  180MOL0     C24171   5.354  10.821   6.961  0.1529 -0.2461 -0.2025
  180MOL0     C24172   5.420  10.912   6.884 -1.2951 -0.4524  0.4160
  180MOL0     O24173   5.514  10.995   6.930  0.0862  0.0059  0.0785
  180MOL0     C24174   5.493  11.131   6.908 -0.2231 -0.5678  0.2376
  180MOL0     C24175   5.594  11.210   6.990 -0.4326  0.0749 -0.0479
  180MOL0     C24176   5.733  11.198   6.924 -0.8995  0.3335  0.3090
  180MOL0     C24177   5.824  11.312   6.961  0.7542 -0.3017  1.0059
  180MOL0     C24178   5.977  11.264   6.959 -0.9352 -0.0868  0.1394
  180MOL0     C24179   6.035  11.207   6.825  0.5647 -0.1415  0.8740
  180MOL0     C24180   6.011  11.291   6.703 -0.1291 -0.4474 -0.3702
  180MOL0     C24181   6.039  11.206   6.589 -1.0825  0.5653 -0.5813
  180MOL0     N24182   6.187  11.176   6.584  0.3835  0.0615  0.5133
  180MOL0     C24183   6.288  11.271   6.581 -0.6027 -0.2776  0.1711
  180MOL0     C24184   6.399  11.200   6.539 -0.4639 -1.1327  0.7268
  180MOL0     C24185   6.520  11.264   6.493 -0.7955 -0.6827 -0.0706
  180MOL0     C24186   6.500  11.322   6.347 -0.2321  0.6598 -0.4034
  180MOL0     C24187   6.638  11.338   6.291 -0.4859  0.4518  0.1246
  180MOL0     C24188   6.639  11.471   6.210 -0.1338  0.2042  0.1256
  180MOL0     O24189   6.531  11.465   6.111  0.0050  0.2187 -0.5177
  180MOL0     C24190   6.559  11.512   5.983  0.6491 -0.7613  0.3058
  180MOL0     C24191   6.499  11.452   5.874  0.0076 -0.1336  0.3197
  180MOL0     C24192   6.504  11.528   5.756 -0.6084  0.1350 -0.0001
  180MOL0     C24193   6.567  11.655   5.742 -0.1501  1.0060  0.6319
  180MOL0     C24194   6.563  11.742   5.627 -0.2426 -0.6516  0.7628
  180MOL0     O24195   6.675  11.814   5.591  0.3068  1.0033 -0.5679
  180MOL0     C24196   6.680  11.872   5.465  0.4059  1.1882 -0.6732
  180MOL0     C24197   6.665  11.790   5.348  0.4875 -0.0951 -0.3869
  180MOL0     C24198   6.683  11.841   5.218  0.0587  0.0146 -0.5949
  180MOL0     C24199   6.714  11.978   5.209  0.1549 -0.2578 -0.6655
  180MOL0     O24200   6.743  12.015   5.083 -0.5743 -0.0708 -0.1041
  180MOL0     C24201   6.783  12.153   5.067  0.0832  0.6370  0.3887
  180MOL0     C24202   6.807  12.159   4.921 -0.6084  0.0301  0.3925
  180MOL0     C24203   6.834  12.309   4.885  0.4946  0.5801 -0.5617
  180MOL0     C24204   6.982  12.334   4.905 -0.2770 -1.0429  0.1410
  180MOL0     C24205   7.008  12.491   4.897 -0.3005  0.2859 -0.2465
  180MOL0     C24206   7.144  12.518   4.926 -0.6034  0.1145  0.4073
  180MOL0     C24207   7.181  12.663   4.884 -0.2189  0.6867  1.2864
  180MOL0     C24208   7.294  12.717   4.964 -0.0039 -0.3219 -0.3115
  180MOL0    Cl24209   7.363  12.863   4.884  0.1770  0.2501  0.0906
  180MOL0     C24210   6.741  12.058   5.326  0.6127 -0.3566 -1.1986
  180MOL0     C24211   6.711  12.003   5.450 -0.5491 -0.4510  0.9762
  180MOL0     O24212   6.458  11.739   5.562  0.8242  0.2368  1.0839
  180MOL0     C24213   6.635  11.700   5.848  0.2771  0.4260  0.1910
  180MOL0     C24214   6.630  11.628   5.972  0.1881  0.2400 -0.0652
  180MOL0     N24215   6.364  11.071   6.529 -0.4603 -0.7304  0.3784
  180MOL0     N24216   6.238  11.049   6.559  0.3443 -0.9795  0.0639
  180MOL0     C24217   5.393  10.916   6.750 -1.0917 -0.3514 -0.1626
  180MOL0     C24218   5.301  10.828   6.701 -0.4962 -0.0976  1.0809
  180MOL0     C24219   4.970  10.559   6.580  0.6321  1.1186 -0.7758
  180MOL0     C24220   4.825  10.552   6.584  0.2936 -1.0794 -0.6457
  180MOL0     C24221   4.748  10.458   6.508  0.5689 -0.5966 -0.6579
  180MOL0     C24222   4.815  10.355   6.441 -0.4218 -0.3037  0.4306
  180MOL0     O24223   4.746  10.269   6.365 -0.3464 -0.3114  0.7383
  180MOL0     C24224   4.640  10.196   6.436 -0.6900 -0.0568  0.8636
  180MOL0     C24225   4.650  10.048   6.414 -0.9423  0.5289  0.4932
  180MOL0     C24226   4.519   9.971   6.467  0.6228  0.2343 -0.4524
  180MOL0     C24227   4.538   9.825   6.496  0.5300  0.4948 -0.4139
  180MOL0     C24228   4.440   9.776   6.597 -0.2006  0.0830  0.3056
  180MOL0     C24229   4.351   9.739   6.671 -0.2421  0.2992  0.6127
  180MOL0     C24230   4.957  10.344   6.440  0.0925 -0.7545 -0.1475
  180MOL0     C24231   5.033  10.450   6.501 -0.0149 -0.2719 -0.3927
  180MOL0     C24232   5.186  10.446   6.465  0.0353 -0.3991  0.8687
  180MOL0     H24233   5.225  10.642   6.954 -0.4458 -1.1420 -1.0390
  180MOL0     H24234   5.369  10.812   7.068 -1.9226  1.6296  0.3437
  180MOL0     H24235   5.501  11.159   6.803  1.1632  0.9543  0.7003
  180MOL0     H24236   5.392  11.167   6.928 -0.4330  0.9915 -2.9629
  180MOL0     H24237   5.589  11.192   7.098  0.6930  0.3307  0.0606
  180MOL0     H24238   5.558  11.312   6.973  0.9477  0.5055 -0.4851
  180MOL0     H24239   5.730  11.204   6.815  1.5732  0.3704  0.2015
  180MOL0     H24240   5.776  11.101   6.951 -0.7710  0.4650  0.5796
  180MOL0     H24241   5.800  11.388   6.886  2.0689  0.9247  1.7762
  180MOL0     H24242   5.788  11.347   7.058 -1.9771 -3.8695  1.4850
  180MOL0     H24243   6.043  11.345   6.993 -0.8904  0.8140 -1.9257
  180MOL0     H24244   5.985  11.185   7.034  1.0269  1.1366  1.3248
  180MOL0     H24245   6.140  11.185   6.847  1.0605  0.1052 -1.0804
  180MOL0     H24246   5.989  11.109   6.808 -0.1654  0.7217 -2.9342
  180MOL0     H24247   6.058  11.388   6.719 -0.6278 -0.3528  0.6600
  180MOL0     H24248   5.906  11.323   6.700 -0.2802 -0.1751  3.2081
  180MOL0     H24249   5.986  11.111   6.598 -0.8932  0.5592  0.5726
  180MOL0     H24250   6.017  11.249   6.491  1.8113 -1.1830 -2.1787
  180MOL0     H24251   6.288  11.378   6.597  0.3220 -0.2469  0.0041
  180MOL0     H24252   6.562  11.344   6.555 -2.1650 -1.0832  1.4533
  180MOL0     H24253   6.597  11.187   6.500  0.0578  0.0806 -0.7663
  180MOL0     H24254   6.440  11.257   6.282  1.5603 -0.6882 -0.7904
  180MOL0     H24255   6.447  11.418   6.350 -1.3485  0.2029  5.2497
  180MOL0     H24256   6.657  11.253   6.226 -1.6185  0.4523 -0.2350
  180MOL0     H24257   6.709  11.340   6.374 -1.9942 -1.0351  1.5251
  180MOL0     H24258   6.739  11.475   6.165  0.4527 -3.1482  0.8683
  180MOL0     H24259   6.615  11.557   6.274  2.0888  1.3088 -0.4245
  180MOL0     H24260   6.444  11.360   5.887  1.2578 -0.6279  2.7419
  180MOL0     H24261   6.456  11.496   5.664  2.0656  0.5681 -1.6596
  180MOL0     H24262   6.648  11.683   5.355  1.7887 -0.3125 -0.1962
  180MOL0     H24263   6.688  11.777   5.131  4.4367 -0.5373 -0.1285
  180MOL0     H24264   6.710  12.228   5.099  0.7935  2.8428 -2.6962
  180MOL0     H24265   6.878  12.169   5.118 -0.9719  2.4312  1.9429
  180MOL0     H24266   6.888  12.091   4.890 -0.3140 -0.0686  1.3416
  180MOL0     H24267   6.713  12.128   4.876  0.5337 -1.1535 -1.3326
  180MOL0     H24268   6.806  12.318   4.780 -1.4021  0.7506 -0.0859
  180MOL0     H24269   6.773  12.373   4.950 -0.1854 -2.3539  1.9297
  180MOL0     H24270   7.030  12.277   4.825  2.4815  1.4316 -0.1148
  180MOL0     H24271   7.018  12.309   5.005  3.0728  2.6129  0.0631
  180MOL0     H24272   6.937  12.545   4.961 -3.4128  0.0768 -3.2754
  180MOL0     H24273   6.991  12.532   4.797  3.4366  0.7954 -0.8199
  180MOL0     H24274   7.139  12.501   5.034 -0.0323  2.6837  0.8956
  180MOL0     H24275   7.206  12.444   4.875  0.9028  1.0194  0.8724
  180MOL0     H24276   7.097  12.733   4.879  0.7268  1.7652 -0.1837
  180MOL0     H24277   7.213  12.651   4.781 -1.4896  2.2940  0.6584
  180MOL0     H24278   7.260  12.732   5.067  0.3053 -4.1886  0.5102
  180MOL0     H24279   7.363  12.632   4.966 -0.7402 -0.9198  1.0749
  180MOL0     H24280   6.751  12.166   5.320  0.6990 -0.3186 -0.4863
  180MOL0     H24281   6.719  12.072   5.534  2.4773 -2.1297  2.2047
  180MOL0     H24282   6.688  11.795   5.854  2.9776 -0.9648 -0.0389
  180MOL0     H24283   6.685  11.663   6.059  1.5472 -1.0400 -0.3621
  180MOL0     H24284   5.444  10.989   6.689  1.3551 -0.7897  1.2085
  180MOL0     H24285   5.290  10.843   6.594  3.1194 -2.2664  0.2499
  180MOL0     H24286   4.771  10.611   6.657  1.3912 -1.7161  0.7399
  180MOL0     H24287   4.641  10.467   6.495  0.5783 -0.5057 -0.6725
  180MOL0     H24288   4.536  10.225   6.419  0.1520  2.4324 -0.6181
  180MOL0     H24289   4.652  10.229   6.539  0.9498  2.3136  0.0048
  180MOL0     H24290   4.727  10.005   6.479 -1.5487 -3.1559 -0.9895
  180MOL0     H24291   4.674  10.019   6.312 -1.0982  1.9397  0.0306
  180MOL0     H24292   4.432   9.975   6.400  2.6922 -2.2042 -3.6256
  180MOL0     H24293   4.497  10.011   6.566  1.9401 -1.4562  0.5897
  180MOL0     H24294   4.509   9.766   6.409 -0.6541 -0.5185  0.6217
  180MOL0     H24295   4.643   9.797   6.510  0.2070 -1.1602 -1.0532
  180MOL0     H24296   4.272   9.717   6.739 -2.3215  2.5767 -0.9153
  180MOL0     H24297   5.009  10.278   6.371 -0.5899  0.4676 -1.9103
  180MOL0     H24298   5.236  10.355   6.499  2.9857  0.6656 -0.3000
  180MOL0     H24299   5.201  10.455   6.357  2.5206 -3.7881  0.7721
  180MOL0     H24300   5.240  10.529   6.510  3.5838 -2.3466  0.5681
  181MOL0     O24301   2.714   3.312   7.556  0.4518  0.0754  0.0211
  181MOL0     C24302   2.665   3.389   7.473 -0.0992 -0.3870  0.2850
  181MOL0     O24303   2.589   3.348   7.365 -0.4219 -0.0814 -0.0276
  181MOL0     C24304   2.582   3.213   7.330 -0.3587 -0.3101 -0.2987
  181MOL0     C24305   2.644   3.169   7.208 -0.2180  0.8237 -0.5779
  181MOL0     C24306   2.625   3.036   7.172  0.6118 -0.2825 -0.1507
  181MOL0     C24307   2.566   2.944   7.256  0.4079 -0.5602 -0.6190
  181MOL0     O24308   2.536   2.811   7.212 -0.7528  0.1288 -0.2934
  181MOL0     C24309   2.427   2.738   7.278  0.2368 -0.2320  0.3143
  181MOL0     C24310   2.295   2.808   7.264  0.4135 -0.9285 -0.4388
  181MOL0     C24311   2.258   2.789   7.118 -0.2088  0.4682 -0.0524
  181MOL0     C24312   2.106   2.766   7.093 -0.1069 -0.0462 -0.7097
  181MOL0     C24313   2.073   2.743   6.945  0.0694  0.6173 -0.3703
  181MOL0     C24314   2.136   2.622   6.884 -0.0407  0.2976  0.9809
  181MOL0     C24315   2.065   2.564   6.756 -0.2479  0.2487  0.2577
  181MOL0     C24316   2.145   2.456   6.675 -0.0993  0.4649 -0.9343
  181MOL0     N24317   2.133   2.332   6.742 -0.3708 -1.1465 -0.2411
  181MOL0     C24318   2.214   2.299   6.843 -0.7058  0.2028  0.2206
  181MOL0     C24319   2.198   2.166   6.848 -1.9157 -0.3303 -0.4509
  181MOL0     C24320   2.286   2.067   6.938  0.3603  0.3203  0.1135
  181MOL0     C24321   2.196   2.045   7.065  0.1437  0.5451 -0.0360
  181MOL0     C24322   2.265   1.968   7.180  0.3027  0.4230  0.4183
  181MOL0     C24323   2.202   1.991   7.310  0.9565 -0.3550  0.2529
  181MOL0     O24324   2.058   1.948   7.320 -0.6205  0.1008 -0.3240
  181MOL0     C24325   1.984   2.044   7.374  0.9058 -0.2227  1.9195
  181MOL0     C24326   2.008   2.101   7.494  0.6729 -0.4422  0.1354
  181MOL0     C24327   1.916   2.200   7.549 -0.0264 -0.4536 -0.0779
  181MOL0     C24328   1.807   2.243   7.468 -0.3975  0.1262 -0.2517
  181MOL0     C24329   1.704   2.328   7.529 -0.2885  0.0653 -0.0117
  181MOL0     O24330   1.583   2.346   7.454  0.1623  0.4144  0.0389
  181MOL0     C24331   1.491   2.435   7.494 -0.9238  0.1063  0.1664
  181MOL0     C24332   1.446   2.443   7.624  0.2936 -0.6725 -0.7076
  181MOL0     C24333   1.354   2.555   7.656 -0.1715 -0.8781 -0.6226
  181MOL0     C24334   1.353   2.664   7.561  0.0427  0.4171  0.2295
  181MOL0     O24335   1.287   2.782   7.595 -0.5468 -0.3469 -0.6815
  181MOL0     C24336   1.320   2.912   7.534 -0.3654 -0.1083 -0.3982
  181MOL0     C24337   1.422   2.965   7.636  0.0928  0.1945  0.7290
  181MOL0     C24338   1.493   3.089   7.585  0.4900 -0.5169 -0.5012
  181MOL0     C24339   1.623   3.125   7.657  0.3605  0.0583  0.5508
  181MOL0     C24340   1.682   3.247   7.603 -0.1452  0.7586  0.8489
  181MOL0     C24341   1.791   3.320   7.686  0.6475  0.5359 -1.0947
  181MOL0     C24342   1.816   3.471   7.651 -0.3632 -0.3632 -0.0192
  181MOL0     C24343   1.869   3.492   7.508  0.3524 -0.3523 -0.5905
  181MOL0    Cl24344   1.873   3.659   7.444 -0.0503  0.1719  0.2716
  181MOL0     C24345   1.391   2.647   7.428 -0.1440 -0.0821  0.4763
  181MOL0     C24346   1.462   2.536   7.400  1.3618 -0.1603 -0.5593
  181MOL0     O24347   1.732   2.385   7.636 -0.8073 -0.0224  0.2658
  181MOL0     C24348   1.776   2.177   7.350  0.6941 -0.0483  0.0387
  181MOL0     C24349   1.863   2.087   7.308 -0.1938  0.2972 -0.0845
  181MOL0     N24350   2.099   2.129   6.763  0.0655  0.1639 -0.1694
  181MOL0     N24351   2.057   2.232   6.704 -0.1636 -0.5824 -0.5762
  181MOL0     C24352   2.531   2.987   7.380  1.1446 -0.6679  0.9742
  181MOL0     C24353   2.529   3.121   7.420 -0.3571  0.2516 -0.0242
  181MOL0     C24354   2.693   3.538   7.493 -0.5827 -0.4690 -0.2322
  181MOL0     C24355   2.658   3.623   7.393  0.3400  1.2030  0.3498
  181MOL0     C24356   2.669   3.760   7.397 -0.3809 -0.1812  0.5563
  181MOL0     C24357   2.708   3.817   7.519 -0.7115  0.4735 -0.7542
  181MOL0     O24358   2.703   3.957   7.541 -0.7366 -0.0865  1.0046
  181MOL0     C24359   2.619   4.005   7.646  0.5049 -0.4195  0.2307
  181MOL0     C24360   2.654   4.155   7.688  0.3172  0.7723 -0.2358
  181MOL0     C24361   2.795   4.165   7.756  0.6281 -0.7003  0.4935
  181MOL0     C24362   2.823   4.308   7.787 -0.1267  0.5724 -0.2900
  181MOL0     C24363   2.784   4.338   7.926 -0.0481  0.2610 -0.1244
  181MOL0     C24364   2.764   4.382   8.042 -0.5932  0.0615 -0.0390
  181MOL0     C24365   2.743   3.730   7.627  0.5525  0.4578  0.0082
  181MOL0     C24366   2.745   3.593   7.618  0.3877  0.2409 -0.2638
  181MOL0     C24367   2.782   3.512   7.741  0.4999  0.2169 -0.8062
  181MOL0     H24368   2.691   3.237   7.137 -0.6763  1.1934 -0.5308
  181MOL0     H24369   2.660   3.002   7.076 -0.9068  0.7878 -1.1315
  181MOL0     H24370   2.429   2.635   7.241  2.0357  0.1776 -0.8825
  181MOL0     H24371   2.450   2.731   7.385  1.1296  0.1031  0.1566
  181MOL0     H24372   2.301   2.915   7.288  0.0088 -1.1888  0.8650
  181MOL0     H24373   2.216   2.770   7.329  1.4079 -0.2277  1.2228
  181MOL0     H24374   2.327   2.728   7.058 -0.0752  3.2778 -3.0684
  181MOL0     H24375   2.262   2.885   7.065 -0.3955  0.1435 -0.6738
  181MOL0     H24376   2.075   2.675   7.145 -1.9080  1.0562  0.2358
  181MOL0     H24377   2.046   2.852   7.125 -1.9178 -1.3099 -0.5904
  181MOL0     H24378   1.964   2.739   6.940  0.0531  0.5677 -0.0062
  181MOL0     H24379   2.089   2.831   6.882 -0.1004 -1.1062 -2.9469
  181MOL0     H24380   2.240   2.643   6.860 -0.3820  0.2111 -0.7060
  181MOL0     H24381   2.133   2.543   6.959  1.9009  0.6172  1.4497
  181MOL0     H24382   2.047   2.643   6.683  0.1560  0.5715  0.4982
  181MOL0     H24383   1.970   2.525   6.794 -0.1506 -0.5955 -0.3284
  181MOL0     H24384   2.081   2.435   6.588 -4.7784  1.1714  1.9964
  181MOL0     H24385   2.248   2.485   6.654 -0.8216  2.2242 -2.2301
  181MOL0     H24386   2.272   2.367   6.906  1.5914 -2.2132  0.9371
  181MOL0     H24387   2.296   1.969   6.891  1.8604 -0.2114  1.4401
  181MOL0     H24388   2.379   2.120   6.963 -0.5370  1.5320  1.0187
  181MOL0     H24389   2.159   2.139   7.106  1.0138  2.1346 -2.6375
  181MOL0     H24390   2.106   1.991   7.034 -1.4049  1.3841  2.6277
  181MOL0     H24391   2.372   1.987   7.192  1.0754 -0.9360 -3.0626
  181MOL0     H24392   2.251   1.861   7.164 -2.0613  0.7081  0.2363
  181MOL0     H24393   2.220   2.092   7.347  1.0439 -0.0353 -0.6247
  181MOL0     H24394   2.259   1.922   7.373  1.9587  0.3020  0.0931
  181MOL0     H24395   2.087   2.063   7.558  0.0366  0.3840  1.4589
  181MOL0     H24396   1.944   2.241   7.645  2.4580  0.5422 -1.1387
  181MOL0     H24397   1.491   2.378   7.698  2.4718  1.7071  0.2321
  181MOL0     H24398   1.314   2.580   7.753 -1.7421 -0.2596 -1.4066
  181MOL0     H24399   1.349   2.912   7.428 -0.0467 -1.2807 -0.3241
  181MOL0     H24400   1.243   2.990   7.544  1.1482  1.4563 -0.5271
  181MOL0     H24401   1.383   2.970   7.739 -1.1852 -1.2997  0.3602
  181MOL0     H24402   1.498   2.887   7.644  1.5042  1.1516 -2.1966
  181MOL0     H24403   1.513   3.075   7.478 -3.4062  0.1072 -1.4869
  181MOL0     H24404   1.419   3.168   7.568  0.2859 -0.9540 -1.7852
  181MOL0     H24405   1.689   3.038   7.664  1.0589  0.7045  3.1159
  181MOL0     H24406   1.589   3.138   7.760 -2.2350  1.1152 -0.3710
  181MOL0     H24407   1.604   3.320   7.577  0.8045  1.8901  1.0545
  181MOL0     H24408   1.730   3.201   7.516 -1.2418 -1.2483  1.2566
  181MOL0     H24409   1.766   3.322   7.792 -0.9258  3.3204 -1.4281
  181MOL0     H24410   1.886   3.265   7.686  2.1153  2.8585 -3.0306
  181MOL0     H24411   1.896   3.521   7.706 -0.1490  3.1482 -3.1020
  181MOL0     H24412   1.732   3.534   7.679  2.7011  3.5769  1.2113
  181MOL0     H24413   1.961   3.435   7.499 -1.1823 -3.4444  1.4648
  181MOL0     H24414   1.809   3.439   7.433  1.8783 -2.3647 -0.4522
  181MOL0     H24415   1.386   2.716   7.344 -0.6183  0.5088  0.9766
  181MOL0     H24416   1.512   2.514   7.306 -1.6254  0.5727 -2.4585
  181MOL0     H24417   1.690   2.205   7.288 -1.3406 -0.9321  2.2942
  181MOL0     H24418   1.844   2.032   7.217 -1.7026 -3.3135  2.1889
  181MOL0     H24419   2.474   2.919   7.443 -1.2099 -1.5759 -1.8874
  181MOL0     H24420   2.484   3.165   7.508 -1.0331  1.6270 -1.0175
  181MOL0     H24421   2.624   3.569   7.304  1.2083 -0.1688  0.8026
  181MOL0     H24422   2.643   3.814   7.307 -3.8060 -1.5878  0.5762
  181MOL0     H24423   2.623   3.946   7.738  1.3179  0.8023  1.0027
  181MOL0     H24424   2.513   3.996   7.620  0.5088 -0.6471  0.2899
  181MOL0     H24425   2.580   4.196   7.757  0.9004  0.8366  0.3601
  181MOL0     H24426   2.650   4.218   7.599 -2.7426  0.4779 -0.4232
  181MOL0     H24427   2.876   4.142   7.685  2.1916 -0.8384  2.2517
  181MOL0     H24428   2.806   4.101   7.844 -1.5050 -1.8221  0.0120
  181MOL0     H24429   2.928   4.332   7.773 -1.1634  5.9692 -1.1408
  181MOL0     H24430   2.765   4.376   7.723 -2.1879  0.3687  1.2285
  181MOL0     H24431   2.756   4.429   8.138  1.5111  3.0480 -1.1832
  181MOL0     H24432   2.769   3.767   7.725 -1.2024  2.1215 -0.0902
  181MOL0     H24433   2.873   3.456   7.718  0.4448 -0.9798  1.5282
  181MOL0     H24434   2.789   3.572   7.832  1.3123  0.3235 -0.9353
  181MOL0     H24435   2.703   3.437   7.757 -0.3226  0.8455 -1.7800
  182MOL0     O24436   5.522   9.658   0.572  0.2714 -0.3424  0.3930
  182MOL0     C24437   5.436   9.603   0.645  0.3233  0.6374 -0.8216
  182MOL0     O24438   5.462   9.550   0.776 -0.4754 -0.7025 -0.0312
  182MOL0     C24439   5.574   9.573   0.849 -0.2791 -0.4558  0.2209
  182MOL0     C24440   5.550   9.580   0.988 -0.0552  0.2122  0.3440
  182MOL0     C24441   5.653   9.605   1.079 -1.3313 -0.3171  0.2617
  182MOL0     C24442   5.784   9.636   1.020 -0.2027  0.2687 -0.3889
  182MOL0     O24443   5.889   9.663   1.111 -0.4921  0.5947 -0.5367
  182MOL0     C24444   6.017   9.684   1.076 -0.2362 -0.5817  0.2502
  182MOL0     C24445   6.072   9.804   1.153  0.1245  0.5439  0.0226
  182MOL0     C24446   6.109   9.761   1.291 -0.3001 -0.4750 -0.4736
  182MOL0     C24447   6.016   9.824   1.399  0.6516 -1.2043  0.4482
  182MOL0     C24448   6.052   9.796   1.540  0.5893 -1.0623 -0.7604
  182MOL0     C24449   6.192   9.852   1.581  1.0276  0.1211  0.4436
  182MOL0     C24450   6.193   9.878   1.735 -1.1172  0.3547  0.8783
  182MOL0     C24451   6.199   9.739   1.800 -0.2803 -2.2553 -0.4897
  182MOL0     N24452   6.209   9.754   1.942 -0.2851  0.3333  0.1853
  182MOL0     C24453   6.142   9.822   2.038 -0.0231 -0.0299 -0.2347
  182MOL0     C24454   6.184   9.776   2.154  0.8069 -0.3250 -0.7915
  182MOL0     C24455   6.134   9.823   2.283  0.0619 -0.5578 -0.2890
  182MOL0     C24456   6.164   9.974   2.312  0.5205  1.0583  0.6400
  182MOL0     C24457   6.306   9.985   2.370  0.0137  0.1358  0.4646
  182MOL0     C24458   6.353  10.133   2.392  0.5197  0.3590  0.3093
  182MOL0     O24459   6.258  10.212   2.462  0.3566 -0.1925 -0.5335
  182MOL0     C24460   6.265  10.240   2.600 -0.9345  0.3399  0.1719
  182MOL0     C24461   6.180  10.341   2.640  1.1118 -0.7910 -1.2634
  182MOL0     C24462   6.182  10.386   2.774 -0.0527  0.6360  0.3922
  182MOL0     C24463   6.274  10.323   2.870  1.5578 -0.0928  0.6260
  182MOL0     C24464   6.265  10.355   3.010 -0.5634 -0.5974  0.3253
  182MOL0     O24465   6.335  10.282   3.094  0.7550 -0.8538  0.8132
  182MOL0     C24466   6.355  10.347   3.215  0.6802 -1.0293 -0.1924
  182MOL0     C24467   6.294  10.308   3.332 -0.2353 -0.2333  0.6984
  182MOL0     C24468   6.332  10.365   3.452  0.1875  0.7282 -0.4668
  182MOL0     C24469   6.428  10.467   3.460  0.4238  0.3389 -0.6087
  182MOL0     O24470   6.462  10.535   3.577  0.7326  0.0292 -0.6698
  182MOL0     C24471   6.431  10.468   3.702 -0.0781 -0.2497 -0.1518
  182MOL0     C24472   6.474  10.561   3.815 -0.4575  0.3210  0.3371
  182MOL0     C24473   6.624  10.590   3.799 -0.4602 -0.1066 -0.0804
  182MOL0     C24474   6.699  10.616   3.929  0.0773 -0.1116 -0.9095
  182MOL0     C24475   6.633  10.725   4.017  0.0438 -0.2239  0.3838
  182MOL0     C24476   6.628  10.865   3.964 -0.0406  0.3334 -0.1287
  182MOL0     C24477   6.767  10.912   3.919  1.2791 -0.4663 -0.8468
  182MOL0     C24478   6.781  11.062   3.884  0.3499  0.3802 -0.4149
  182MOL0    Cl24479   6.738  11.091   3.713 -0.1468  0.2368 -0.3294
  182MOL0     C24480   6.486  10.514   3.341 -0.2992 -0.6320 -0.2704
  182MOL0     C24481   6.454  10.451   3.218  0.5283  0.2571  0.3858
  182MOL0     O24482   6.191  10.445   3.044  0.2240 -0.1211  0.4039
  182MOL0     C24483   6.368  10.222   2.824  0.4562 -1.0771  0.2377
  182MOL0     C24484   6.353  10.178   2.694 -1.0522  0.5101  0.0870
  182MOL0     N24485   6.274   9.670   2.125  0.0881 -0.9381  0.4112
  182MOL0     N24486   6.282   9.653   1.999 -0.5669 -0.2634 -0.4950
  182MOL0     C24487   5.808   9.620   0.881 -0.0006 -0.0863 -0.1449
  182MOL0     C24488   5.704   9.592   0.795 -0.9828  0.3169  0.0436
  182MOL0     C24489   5.291   9.602   0.591 -0.8479 -0.7287 -0.3872
  182MOL0     C24490   5.260   9.724   0.529 -0.0970  0.2096 -0.6427
  182MOL0     C24491   5.125   9.753   0.479  0.2322 -0.4327 -0.8009
  182MOL0     C24492   5.025   9.648   0.498  0.1202  0.1184  0.0610
  182MOL0     O24493   4.895   9.663   0.468 -0.4023 -0.3995 -1.0806
  182MOL0     C24494   4.850   9.743   0.364  0.9487 -0.6566  0.0367
  182MOL0     C24495   4.894   9.677   0.232 -0.2009 -0.7301  0.3975
  182MOL0     C24496   4.862   9.524   0.203 -0.1139 -0.2187 -0.6369
  182MOL0     C24497   4.903   9.467   0.064  0.5265  0.4646  0.3322
  182MOL0     C24498   4.870   9.541  -0.054  0.4748 -0.7085  0.3551
  182MOL0     C24499   4.824   9.592  -0.157 -0.7866  0.9524 -0.0711
  182MOL0     C24500   5.065   9.528   0.561  0.4997  0.0373  0.0766
  182MOL0     C24501   5.194   9.502   0.615  0.6554  0.7438  0.1324
  182MOL0     C24502   5.226   9.375   0.680 -0.5346  0.5828 -1.1186
  182MOL0     H24503   5.450   9.581   1.029 -0.0933  0.7324  0.2481
  182MOL0     H24504   5.646   9.621   1.186  1.8838  0.4278  0.4715
  182MOL0     H24505   6.072   9.593   1.100  0.0615 -0.4659  0.0141
  182MOL0     H24506   6.033   9.694   0.968 -1.7261 -2.9531 -0.2740
  182MOL0     H24507   5.998   9.884   1.149 -0.0564  0.3467 -3.8651
  182MOL0     H24508   6.158   9.843   1.097  0.3705 -1.4798 -1.1196
  182MOL0     H24509   6.214   9.789   1.304 -0.0072 -0.3277 -2.7298
  182MOL0     H24510   6.110   9.653   1.309  0.5837 -0.3559  0.2584
  182MOL0     H24511   6.021   9.933   1.400 -1.4431 -1.0115  3.3506
  182MOL0     H24512   5.916   9.801   1.359 -0.5637  0.3831  2.3903
  182MOL0     H24513   5.978   9.841   1.606  1.2367 -0.6641 -0.2873
  182MOL0     H24514   6.053   9.689   1.563 -2.1703 -0.8653  0.5922
  182MOL0     H24515   6.271   9.791   1.536 -0.5096  1.1676 -4.3349
  182MOL0     H24516   6.214   9.942   1.522  2.8122 -1.8426 -2.0936
  182MOL0     H24517   6.104   9.934   1.762 -0.9597  0.8601  0.3903
  182MOL0     H24518   6.283   9.939   1.753 -2.1907  2.7021 -1.1049
  182MOL0     H24519   6.106   9.684   1.788 -1.9126  0.2194  0.0551
  182MOL0     H24520   6.291   9.687   1.770  1.3019 -0.2407  0.6229
  182MOL0     H24521   6.072   9.904   2.031  2.7410  2.5376  0.4974
  182MOL0     H24522   6.025   9.814   2.293 -0.2901  1.3278 -1.7584
  182MOL0     H24523   6.170   9.764   2.367 -0.8879  1.7460  1.8553
  182MOL0     H24524   6.148  10.038   2.224  0.6518 -2.4519 -2.1354
  182MOL0     H24525   6.107  10.011   2.398 -0.3053 -1.1076  1.0767
  182MOL0     H24526   6.373   9.946   2.293  1.4076 -0.0368  1.7298
  182MOL0     H24527   6.319   9.928   2.462  1.9049  0.7503  0.6116
  182MOL0     H24528   6.377  10.190   2.301 -1.0612  2.3093  1.0265
  182MOL0     H24529   6.451  10.125   2.439  0.9411  2.2075 -0.1604
  182MOL0     H24530   6.108  10.394   2.578 -0.8683 -0.8729  0.8522
  182MOL0     H24531   6.117  10.464   2.812  3.0411  1.6899  4.1201
  182MOL0     H24532   6.233  10.217   3.329  1.9008 -1.7108 -1.0172
  182MOL0     H24533   6.285  10.335   3.546 -1.1356 -2.3546 -1.9746
  182MOL0     H24534   6.322  10.463   3.710 -0.6618  1.4357 -4.4613
  182MOL0     H24535   6.479  10.372   3.726 -1.7635 -0.5643  2.4307
  182MOL0     H24536   6.408  10.647   3.828 -0.9986 -0.0074 -0.1735
  182MOL0     H24537   6.467  10.503   3.908  0.1706  0.6201  0.5742
  182MOL0     H24538   6.654  10.494   3.756  0.1271  0.4720 -1.0034
  182MOL0     H24539   6.655  10.663   3.724 -2.4164  0.2015 -0.6333
  182MOL0     H24540   6.802  10.649   3.918  0.7439  0.0047  3.7041
  182MOL0     H24541   6.702  10.521   3.984  1.3166 -0.3567 -1.3777
  182MOL0     H24542   6.682  10.742   4.113 -3.8419  2.6251  2.0756
  182MOL0     H24543   6.535  10.685   4.042 -1.2705  0.2159 -3.3822
  182MOL0     H24544   6.566  10.882   3.875  2.6316 -1.5551 -2.5159
  182MOL0     H24545   6.592  10.925   4.049  1.1382 -2.6299  2.6361
  182MOL0     H24546   6.805  10.850   3.837  4.6649 -0.8271  0.8642
  182MOL0     H24547   6.831  10.889   4.004  0.0684 -0.6983  0.0302
  182MOL0     H24548   6.704  11.120   3.936 -2.0800 -1.5209 -1.7020
  182MOL0     H24549   6.883  11.098   3.901  0.0096  1.0462  0.2942
  182MOL0     H24550   6.565  10.588   3.342  0.2252 -1.1833 -0.0699
  182MOL0     H24551   6.505  10.473   3.125 -1.1163 -2.6000 -1.3482
  182MOL0     H24552   6.445  10.182   2.889  0.0928  0.9449  1.9968
  182MOL0     H24553   6.416  10.097   2.659  0.3859  1.7001 -0.1850
  182MOL0     H24554   5.910   9.627   0.842  0.3667  4.5805  1.0051
  182MOL0     H24555   5.711   9.595   0.686 -0.7070  0.4134  0.0627
  182MOL0     H24556   5.343   9.794   0.525  0.2408 -0.0570  1.1504
  182MOL0     H24557   5.106   9.854   0.442  0.8235 -0.0884 -0.1945
  182MOL0     H24558   4.890   9.845   0.373 -1.4210  0.3695 -0.2697
  182MOL0     H24559   4.742   9.760   0.359  1.2388  2.2364  1.4137
  182MOL0     H24560   5.003   9.686   0.217 -0.3368  0.4552 -0.0326
  182MOL0     H24561   4.840   9.728   0.152 -1.9428 -0.6791  1.5705
  182MOL0     H24562   4.754   9.512   0.221 -0.7660  1.9886 -2.5192
  182MOL0     H24563   4.905   9.460   0.281  0.5686  0.7205 -0.2247
  182MOL0     H24564   5.009   9.442   0.064  0.1732 -1.1556  0.7668
  182MOL0     H24565   4.864   9.365   0.054  5.8457 -2.1798  2.5715
  182MOL0     H24566   4.803   9.629  -0.255  3.3635 -2.5353 -2.6855
  182MOL0     H24567   4.981   9.461   0.581  0.0693  0.4117 -0.4302
  182MOL0     H24568   5.165   9.292   0.644 -2.1447  1.6528 -0.9319
  182MOL0     H24569   5.329   9.340   0.665 -0.7395 -0.7030  0.2705
  182MOL0     H24570   5.214   9.381   0.789  0.0959 -0.4882 -0.9714
  183MOL0     O24571   3.645   5.393   3.767  0.3895 -0.2581  0.3298
  183MOL0     C24572   3.665   5.321   3.666 -0.6332 -0.5239 -0.4062
  183MOL0     O24573   3.599   5.203   3.649  0.0549 -0.1501  0.6051
  183MOL0     C24574   3.501   5.161   3.726  0.1148 -0.0026  0.3151
  183MOL0     C24575   3.512   5.053   3.815 -0.6159  0.3210  0.3316
  183MOL0     C24576   3.397   5.010   3.882  0.1979  0.6041 -0.1305
  183MOL0     C24577   3.262   5.046   3.843  0.2923  0.8241  0.4492
  183MOL0     O24578   3.147   4.993   3.897 -0.2324 -0.4451 -0.0108
  183MOL0     C24579   3.042   5.091   3.935 -0.2289 -0.8385 -0.1922
  183MOL0     C24580   3.093   5.164   4.062  0.6519  0.6204 -0.2159
  183MOL0     C24581   3.185   5.282   4.033  0.2261  0.0438 -0.5649
  183MOL0     C24582   3.293   5.314   4.142 -0.4562  0.6105 -0.3547
  183MOL0     C24583   3.386   5.424   4.101 -1.1854 -0.1761 -0.0009
  183MOL0     C24584   3.447   5.489   4.222  0.2801  0.2252  0.4071
  183MOL0     C24585   3.602   5.471   4.230 -0.2490  0.3678 -0.7301
  183MOL0     C24586   3.654   5.537   4.357 -0.1280 -0.3947  1.4578
  183MOL0     N24587   3.577   5.505   4.471 -1.0859  0.3762  1.0230
  183MOL0     C24588   3.473   5.580   4.519  1.0396  0.0681  0.0887
  183MOL0     C24589   3.457   5.534   4.651  1.0706 -0.2051 -0.1034
  183MOL0     C24590   3.360   5.566   4.766 -0.8083 -0.6063  0.0385
  183MOL0     C24591   3.227   5.516   4.728  0.1053 -0.4885  0.7260
  183MOL0     C24592   3.121   5.515   4.836 -0.0060 -0.5317  0.5487
  183MOL0     C24593   2.983   5.485   4.778 -0.2120  0.3428 -0.6118
  183MOL0     O24594   2.947   5.604   4.694  1.0252  0.7710 -0.0266
  183MOL0     C24595   2.905   5.575   4.566  0.1563  1.1921  0.3810
  183MOL0     C24596   2.778   5.509   4.555 -0.2110 -0.5865 -1.0052
  183MOL0     C24597   2.721   5.492   4.428  0.1209  0.2391  0.1152
  183MOL0     C24598   2.791   5.509   4.309  0.0802  0.0947 -0.1750
  183MOL0     C24599   2.722   5.463   4.192 -0.7504  0.2350  0.4578
  183MOL0     O24600   2.585   5.445   4.201  0.1370 -0.0121  0.2971
  183MOL0     C24601   2.535   5.391   4.078  0.0723 -1.0084  0.0115
  183MOL0     C24602   2.518   5.473   3.973 -0.1465  0.4580 -0.3614
  183MOL0     C24603   2.450   5.434   3.858 -1.1985  0.3549 -0.3443
  183MOL0     C24604   2.399   5.298   3.848 -0.9010 -0.1239  0.3890
  183MOL0     O24605   2.330   5.255   3.737  0.3471  0.7388 -0.4859
  183MOL0     C24606   2.366   5.320   3.613  0.5139 -0.6726 -0.0430
  183MOL0     C24607   2.301   5.229   3.518 -0.2126  0.6649  0.8802
  183MOL0     C24608   2.321   5.277   3.375 -0.4500  0.5140  0.4088
  183MOL0     C24609   2.305   5.150   3.292 -1.2357 -0.1887  0.7606
  183MOL0     C24610   2.417   5.176   3.191 -0.5079  0.2670  0.4952
  183MOL0     C24611   2.420   5.073   3.073  0.6504 -0.7678 -0.2083
  183MOL0     C24612   2.458   4.932   3.122 -0.3090 -0.0333  0.5763
  183MOL0     C24613   2.498   4.850   3.001  0.2982 -0.1923  0.4970
  183MOL0    Cl24614   2.506   4.678   3.061 -0.2615  0.1439 -0.7467
  183MOL0     C24615   2.409   5.215   3.962  0.3805 -0.0393 -0.3877
  183MOL0     C24616   2.488   5.264   4.072 -1.0583  0.9969  0.1026
  183MOL0     O24617   2.785   5.467   4.085 -1.6165  0.3620  0.3859
  183MOL0     C24618   2.917   5.560   4.323 -1.0909 -0.1330 -1.0495
  183MOL0     C24619   2.969   5.604   4.450  0.1065 -0.4702  0.3011
  183MOL0     N24620   3.550   5.442   4.675  0.9109  0.2638  0.0213
  183MOL0     N24621   3.617   5.424   4.570  0.0442  0.6699  0.3261
  183MOL0     C24622   3.258   5.130   3.741  0.1692 -0.2958  0.3614
  183MOL0     C24623   3.374   5.200   3.691 -0.4308 -0.0367  0.0774
  183MOL0     C24624   3.762   5.354   3.563 -0.4696  0.1183  1.0190
  183MOL0     C24625   3.756   5.288   3.431 -0.5442  0.8809 -0.1581
  183MOL0     C24626   3.851   5.309   3.334 -0.3794 -0.4690  0.1941
  183MOL0     C24627   3.957   5.393   3.367  0.0158  0.3380 -1.0688
  183MOL0     O24628   4.070   5.393   3.285  0.3905 -0.5319 -0.1368
  183MOL0     C24629   4.066   5.340   3.152  0.0831 -0.1199 -1.0981
  183MOL0     C24630   4.187   5.392   3.068  0.0372  0.2906  0.0497
  183MOL0     C24631   4.198   5.313   2.944  0.1695  0.1922  0.9472
  183MOL0     C24632   4.340   5.329   2.899  0.3182  0.4490 -0.5043
  183MOL0     C24633   4.355   5.276   2.757  0.1924  0.1100  0.0057
  183MOL0     C24634   4.367   5.231   2.651  0.2230  0.2101 -0.5490
  183MOL0     C24635   3.967   5.451   3.496  0.7173 -0.1120 -0.2502
  183MOL0     C24636   3.867   5.450   3.586 -0.6782 -0.0634 -0.0673
  183MOL0     C24637   3.908   5.532   3.717  0.3703  0.5547 -0.1983
  183MOL0     H24638   3.612   5.015   3.833 -1.3986 -4.4345 -3.2856
  183MOL0     H24639   3.415   4.945   3.967 -2.6299  3.9600  3.4608
  183MOL0     H24640   3.028   5.167   3.857 -1.4091 -0.9693 -0.1392
  183MOL0     H24641   2.943   5.046   3.951 -1.6884  2.1576 -0.2244
  183MOL0     H24642   3.145   5.096   4.130  1.1229  2.0133  0.8820
  183MOL0     H24643   3.005   5.200   4.116  1.3748  1.4025  0.4653
  183MOL0     H24644   3.113   5.365   4.032 -2.1467 -1.9186 -0.5857
  183MOL0     H24645   3.237   5.292   3.937 -0.1636  3.1887 -0.5744
  183MOL0     H24646   3.240   5.353   4.229  1.2240  2.8827 -0.2523
  183MOL0     H24647   3.355   5.235   4.186  0.9775  2.0862  0.3722
  183MOL0     H24648   3.464   5.384   4.035 -1.8832 -3.6317  1.0571
  183MOL0     H24649   3.334   5.507   4.052 -0.3622  0.0463 -0.5299
  183MOL0     H24650   3.423   5.595   4.228 -3.3543 -0.3504 -1.1414
  183MOL0     H24651   3.404   5.442   4.311 -2.1747 -0.5876 -1.0994
  183MOL0     H24652   3.645   5.527   4.146  0.8582 -0.0289 -0.4459
  183MOL0     H24653   3.625   5.364   4.226 -1.3580 -0.0362  1.8084
  183MOL0     H24654   3.761   5.518   4.369  0.7515  1.0299 -2.6829
  183MOL0     H24655   3.647   5.645   4.340 -2.0445 -0.2194  3.0238
  183MOL0     H24656   3.413   5.657   4.472 -0.1589 -0.7276  0.2699
  183MOL0     H24657   3.385   5.534   4.867 -3.1900  0.5765  1.0793
  183MOL0     H24658   3.353   5.675   4.776 -2.3265 -0.7995  1.5031
  183MOL0     H24659   3.196   5.570   4.638  4.1448  1.1302  0.0886
  183MOL0     H24660   3.239   5.410   4.703  2.2403 -0.2600  0.5608
  183MOL0     H24661   3.105   5.613   4.884 -3.1795 -0.8036  0.2518
  183MOL0     H24662   3.151   5.432   4.900  2.3598 -0.7354 -0.7241
  183MOL0     H24663   2.908   5.456   4.852  0.7793 -2.0598 -0.4718
  183MOL0     H24664   2.993   5.400   4.711  1.5851  1.6523 -2.1167
  183MOL0     H24665   2.726   5.478   4.645 -0.6476  0.4118 -0.8997
  183MOL0     H24666   2.615   5.467   4.433  0.0909  0.5641  1.4679
  183MOL0     H24667   2.555   5.575   3.985  2.0691 -0.0239 -2.2303
  183MOL0     H24668   2.439   5.498   3.771  0.8630 -0.2840 -1.1405
  183MOL0     H24669   2.331   5.422   3.595  1.2070 -0.6250 -1.2716
  183MOL0     H24670   2.475   5.327   3.599  0.5782  3.0798  1.2328
  183MOL0     H24671   2.345   5.131   3.538 -0.7672  0.6145  1.9350
  183MOL0     H24672   2.192   5.219   3.529 -0.3967  3.1458  1.8915
  183MOL0     H24673   2.251   5.353   3.341 -0.3855 -0.4369 -2.0052
  183MOL0     H24674   2.411   5.338   3.373  0.2162 -0.4460 -1.8014
  183MOL0     H24675   2.210   5.140   3.240 -0.3945  0.2396 -0.9209
  183MOL0     H24676   2.343   5.056   3.333  6.2366  1.1686 -1.4040
  183MOL0     H24677   2.515   5.172   3.240 -0.4674 -0.6577  0.3461
  183MOL0     H24678   2.394   5.276   3.152 -4.7951  0.2143  2.3428
  183MOL0     H24679   2.327   5.065   3.016  0.7510  1.1919 -0.7154
  183MOL0     H24680   2.494   5.107   3.001  0.0649 -2.8259 -1.8700
  183MOL0     H24681   2.367   4.890   3.166  0.4431 -3.0961 -0.4982
  183MOL0     H24682   2.536   4.926   3.199 -1.5876 -4.4401  1.8408
  183MOL0     H24683   2.422   4.865   2.923  1.6000  2.3100 -0.3772
  183MOL0     H24684   2.596   4.888   2.972  2.2330 -1.8578  4.2160
  183MOL0     H24685   2.358   5.121   3.980 -0.5493  0.5793  0.2746
  183MOL0     H24686   2.499   5.202   4.160 -0.8347  1.3884  0.3534
  183MOL0     H24687   2.975   5.560   4.231  2.7104 -1.4486  1.1047
  183MOL0     H24688   3.068   5.650   4.455 -1.2794  2.7720  0.4793
  183MOL0     H24689   3.171   5.163   3.686  2.5895  1.7498 -2.5182
  183MOL0     H24690   3.370   5.274   3.612  0.6695  2.1233  1.9510
  183MOL0     H24691   3.681   5.213   3.410  1.5438 -1.3340 -0.1871
  183MOL0     H24692   3.830   5.259   3.240 -0.8984 -1.9682  1.0739
  183MOL0     H24693   3.971   5.369   3.107 -1.4866 -2.0925  0.7618
  183MOL0     H24694   4.074   5.231   3.154  2.8190  0.0089  0.0816
  183MOL0     H24695   4.276   5.365   3.126 -0.2943  2.6299  1.7922
  183MOL0     H24696   4.185   5.499   3.048 -1.2785  0.6095  1.6437
  183MOL0     H24697   4.138   5.374   2.876  2.6874  0.6092 -1.0502
  183MOL0     H24698   4.147   5.217   2.944 -3.1170  1.7351 -1.2657
  183MOL0     H24699   4.367   5.435   2.903 -1.0581  0.7950  2.7446
  183MOL0     H24700   4.409   5.280   2.967 -1.0695  3.4279  3.4554
  183MOL0     H24701   4.367   5.173   2.560  3.6198 -2.8244  1.1176
  183MOL0     H24702   4.060   5.504   3.513  0.6913 -0.7907  2.5379
  183MOL0     H24703   3.818   5.592   3.740  0.7201  0.7824  0.6220
  183MOL0     H24704   3.934   5.478   3.809 -1.5478  1.8176  1.1719
  183MOL0     H24705   3.984   5.603   3.684 -1.4040  2.0963 -1.2359
  184MOL0     O24706   8.943   0.443   4.324  0.4477 -0.2285 -0.1387
  184MOL0     C24707   9.023   0.464   4.230 -0.0758 -0.3834 -0.5093
  184MOL0     O24708   8.988   0.456   4.097  0.6668 -0.3319  0.2934
  184MOL0     C24709   8.858   0.466   4.059 -0.8070 -0.4143 -1.3111
  184MOL0     C24710   8.788   0.593   4.076  0.6057 -0.9992 -0.3043
  184MOL0     C24711   8.670   0.614   4.010 -0.7362  0.0318 -0.8167
  184MOL0     C24712   8.613   0.514   3.929 -1.4987 -0.7523 -0.0736
  184MOL0     O24713   8.504   0.532   3.844  0.1729 -0.3573  0.3378
  184MOL0     C24714   8.467   0.669   3.818 -0.4087 -0.0763 -0.1659
  184MOL0     C24715   8.383   0.660   3.692 -1.0110  0.3976  0.4109
  184MOL0     C24716   8.245   0.598   3.714 -0.0777  0.8178  0.4256
  184MOL0     C24717   8.178   0.610   3.569 -0.2593 -0.9209 -1.2591
  184MOL0     C24718   8.034   0.557   3.584  1.1461 -0.2747  0.5091
  184MOL0     C24719   7.967   0.519   3.447  0.1941 -0.5932 -0.2058
  184MOL0     C24720   7.850   0.431   3.485  0.5022 -0.3489 -0.2219
  184MOL0     C24721   7.749   0.428   3.378 -0.1264  0.3510  0.5156
  184MOL0     N24722   7.624   0.504   3.411 -0.0434  0.2894  0.0891
  184MOL0     C24723   7.632   0.629   3.460  0.1928  0.1970  0.4838
  184MOL0     C24724   7.506   0.646   3.498 -0.5283 -0.3097  0.0360
  184MOL0     C24725   7.443   0.767   3.546  0.9772 -0.6400 -0.1987
  184MOL0     C24726   7.445   0.793   3.692  0.7067  0.2090 -0.8100
  184MOL0     C24727   7.581   0.826   3.758 -0.5716  1.3922  0.2075
  184MOL0     C24728   7.572   0.827   3.914 -0.1574  0.2881 -1.3007
  184MOL0     O24729   7.680   0.778   3.978  0.2308 -0.3336 -0.3195
  184MOL0     C24730   7.796   0.855   3.977  0.6003  0.3349  0.3068
  184MOL0     C24731   7.908   0.791   4.032  0.7220  0.4763  0.4444
  184MOL0     C24732   8.031   0.852   4.023 -0.7230  0.3537  0.2521
  184MOL0     C24733   8.042   0.982   3.959 -0.2878 -0.2538  0.1624
  184MOL0     C24734   8.187   1.024   3.934  0.4668 -0.1047  0.3836
  184MOL0     O24735   8.284   0.947   3.996  0.6505 -0.1464 -0.3393
  184MOL0     C24736   8.416   0.998   3.987  0.4047 -0.2383  0.6840
  184MOL0     C24737   8.473   1.030   3.868  0.6660 -0.6295  1.3777
  184MOL0     C24738   8.608   1.067   3.846 -0.3060  0.4810  0.5103
  184MOL0     C24739   8.689   1.078   3.958 -0.2132 -0.5859 -0.1969
  184MOL0     O24740   8.816   1.121   3.940 -0.0682  0.5312  0.6304
  184MOL0     C24741   8.918   1.127   4.038 -0.3805  0.3079 -0.1490
  184MOL0     C24742   8.961   0.990   4.063  0.5389  0.2052  1.6339
  184MOL0     C24743   8.998   0.893   3.943  0.1423 -0.3790 -0.6934
  184MOL0     C24744   8.890   0.845   3.847  0.9044  0.4979 -0.0740
  184MOL0     C24745   8.943   0.726   3.763  0.4063  0.6018  0.1530
  184MOL0     C24746   8.844   0.669   3.666 -0.1419 -0.4575 -0.3411
  184MOL0     C24747   8.891   0.547   3.592 -0.1277  0.3324  0.8526
  184MOL0     C24748   9.009   0.571   3.485  1.2267  0.1967 -0.7165
  184MOL0    Cl24749   9.173   0.590   3.547  0.4544 -0.4787 -0.6993
  184MOL0     C24750   8.630   1.056   4.088 -0.3395 -0.0402 -0.0574
  184MOL0     C24751   8.498   1.009   4.104  0.1885  0.3015  0.9385
  184MOL0     O24752   8.195   1.133   3.871 -0.1433 -0.2319  0.3684
  184MOL0     C24753   7.935   1.048   3.903  0.0975 -0.1295 -0.5951
  184MOL0     C24754   7.812   0.987   3.916 -0.6475 -1.6394 -0.4163
  184MOL0     N24755   7.428   0.538   3.475  0.4089 -0.4492  0.1404
  184MOL0     N24756   7.494   0.459   3.407  0.6385  0.1264  0.1212
  184MOL0     C24757   8.670   0.387   3.928 -0.5726 -0.0976 -1.2707
  184MOL0     C24758   8.805   0.369   3.986  0.4116  0.0905 -0.0104
  184MOL0     C24759   9.168   0.452   4.253 -0.0710 -0.7017  0.1278
  184MOL0     C24760   9.230   0.359   4.342  0.4147 -0.4572 -0.4144
  184MOL0     C24761   9.368   0.339   4.354 -0.4717 -1.3107 -0.9205
  184MOL0     C24762   9.456   0.396   4.259  0.1000  0.2697 -0.5445
  184MOL0     O24763   9.581   0.341   4.266 -0.5897  0.2341  0.1894
  184MOL0     C24764   9.665   0.337   4.148  0.1539  0.9343 -0.2534
  184MOL0     C24765   9.771   0.231   4.172  0.5421  0.3514 -0.4599
  184MOL0     C24766   9.717   0.091   4.225 -0.0055  0.0829 -0.4230
  184MOL0     C24767   9.593   0.042   4.154  0.4050  1.0704 -0.3619
  184MOL0     C24768   9.626   0.009   4.014  0.2064 -0.3528  0.5709
  184MOL0     C24769   9.644  -0.001   3.893  0.5613  0.0796 -1.2933
  184MOL0     C24770   9.403   0.480   4.162 -0.6303 -0.6360 -0.4469
  184MOL0     C24771   9.266   0.511   4.163 -0.7606  0.3861 -0.1028
  184MOL0     C24772   9.235   0.614   4.066  0.8006 -0.6215 -0.0009
  184MOL0     H24773   8.828   0.674   4.136  1.4697 -0.8676 -1.0369
  184MOL0     H24774   8.635   0.716   4.018 -1.9696 -0.4801  0.5430
  184MOL0     H24775   8.407   0.701   3.904  0.5668 -1.1561  0.9605
  184MOL0     H24776   8.546   0.732   3.778  0.8827 -1.4933  0.0817
  184MOL0     H24777   8.436   0.593   3.625  0.7080  1.9041  0.1759
  184MOL0     H24778   8.373   0.754   3.635  1.7759 -1.0121 -2.7329
  184MOL0     H24779   8.186   0.659   3.783  0.7863  2.4651 -0.2237
  184MOL0     H24780   8.256   0.494   3.746  1.1691  1.2266  1.4239
  184MOL0     H24781   8.187   0.710   3.527  0.8714 -0.6373 -0.3820
  184MOL0     H24782   8.237   0.535   3.516  2.9856  0.5353  0.0366
  184MOL0     H24783   8.047   0.460   3.633  0.1635 -1.9814 -2.3888
  184MOL0     H24784   7.976   0.620   3.652  0.0413 -2.9951  2.2617
  184MOL0     H24785   7.949   0.612   3.392 -0.4106 -0.8327 -0.4204
  184MOL0     H24786   8.036   0.464   3.382 -1.4076 -0.7107 -1.8998
  184MOL0     H24787   7.796   0.474   3.569  3.0930  3.9009 -0.4546
  184MOL0     H24788   7.882   0.331   3.516 -1.4067 -0.7075  0.7351
  184MOL0     H24789   7.795   0.480   3.294  0.6471  1.5532  1.6417
  184MOL0     H24790   7.714   0.325   3.363 -3.5363  1.4220  0.3912
  184MOL0     H24791   7.703   0.711   3.467 -0.0338  0.7899 -2.6261
  184MOL0     H24792   7.483   0.856   3.496  1.0593  0.8403  2.3151
  184MOL0     H24793   7.336   0.755   3.526  1.0152 -3.3908  0.8377
  184MOL0     H24794   7.380   0.875   3.725 -0.9906  0.3658 -4.1638
  184MOL0     H24795   7.413   0.704   3.748 -0.5600  1.2298  0.1567
  184MOL0     H24796   7.618   0.924   3.726 -0.8689  2.5455  3.1055
  184MOL0     H24797   7.649   0.746   3.729 -1.9089  0.7599 -1.3426
  184MOL0     H24798   7.492   0.758   3.942 -0.0134  0.1389 -1.2563
  184MOL0     H24799   7.546   0.923   3.959 -1.3834 -0.0271 -1.2959
  184MOL0     H24800   7.902   0.697   4.085  2.0697  0.0658 -0.0988
  184MOL0     H24801   8.105   0.788   4.072 -0.6004  0.2895 -0.0167
  184MOL0     H24802   8.417   1.026   3.775 -0.2551  0.3442  1.8748
  184MOL0     H24803   8.645   1.085   3.746  0.7560 -1.0748  0.5755
  184MOL0     H24804   9.006   1.188   4.017  1.9027 -2.0541  1.8266
  184MOL0     H24805   8.877   1.158   4.134 -2.9965 -1.0511 -0.7422
  184MOL0     H24806   9.063   0.993   4.101  0.3230 -1.0550  2.3570
  184MOL0     H24807   8.887   0.948   4.132 -2.0542  0.1256 -0.9700
  184MOL0     H24808   9.063   0.938   3.867 -1.2341 -0.1375 -1.7802
  184MOL0     H24809   9.051   0.808   3.985  0.0873 -2.0324 -3.6957
  184MOL0     H24810   8.855   0.922   3.777 -1.2931 -1.0137 -0.7305
  184MOL0     H24811   8.793   0.825   3.893  0.6744  1.0200 -0.3217
  184MOL0     H24812   8.975   0.653   3.839  1.8577  1.9859  0.9292
  184MOL0     H24813   9.032   0.766   3.715 -0.7103 -1.1044 -3.6966
  184MOL0     H24814   8.757   0.637   3.725  1.3060  0.1419  2.2669
  184MOL0     H24815   8.818   0.752   3.600 -2.0946  0.1367  1.0703
  184MOL0     H24816   8.800   0.507   3.547 -0.5033  2.0249  0.0051
  184MOL0     H24817   8.933   0.474   3.662  2.0804 -0.4996 -1.2266
  184MOL0     H24818   9.008   0.481   3.422  1.3647  0.9806 -1.8639
  184MOL0     H24819   8.986   0.650   3.413  0.7769  1.7222  1.0228
  184MOL0     H24820   8.686   1.079   4.178  1.5460  0.7796 -1.3767
  184MOL0     H24821   8.445   0.989   4.197  0.2576  0.7123  1.0684
  184MOL0     H24822   7.944   1.142   3.850 -2.5046  0.4283 -0.2168
  184MOL0     H24823   7.725   1.047   3.888  0.3616  0.7312  1.2004
  184MOL0     H24824   8.627   0.301   3.878 -1.0919 -1.1032  0.8164
  184MOL0     H24825   8.853   0.276   3.959 -3.2780 -1.1832 -3.0607
  184MOL0     H24826   9.171   0.287   4.396 -2.3105  0.0972 -2.4609
  184MOL0     H24827   9.402   0.262   4.423  0.7711  0.3297  0.4073
  184MOL0     H24828   9.712   0.435   4.133  1.1277  0.1974 -2.3580
  184MOL0     H24829   9.612   0.316   4.055  2.7293 -2.1476 -1.2266
  184MOL0     H24830   9.841   0.264   4.249  0.3680  0.9514 -0.5540
  184MOL0     H24831   9.809   0.210   4.072  1.2620  0.1993 -0.1643
  184MOL0     H24832   9.690   0.104   4.330 -0.6588  0.5900 -0.6416
  184MOL0     H24833   9.792   0.012   4.235  2.1682  2.2613  2.3601
  184MOL0     H24834   9.550  -0.046   4.202  1.7137 -0.1314 -1.3215
  184MOL0     H24835   9.511   0.115   4.158 -0.1999  0.5324 -2.1311
  184MOL0     H24836   9.661  -0.003   3.787  2.0470 -0.4198 -1.0830
  184MOL0     H24837   9.462   0.521   4.081  0.2623  0.4170  0.7062
  184MOL0     H24838   9.161   0.685   4.105 -1.2133 -0.7868 -3.2148
  184MOL0     H24839   9.320   0.677   4.037 -1.2967  1.2921 -2.4342
  184MOL0     H24840   9.197   0.573   3.972 -0.6959 -0.3323  0.4455
  185MOL0     O24841   2.993   4.327   6.929  0.2817 -0.5593 -0.2198
  185MOL0     C24842   3.055   4.365   6.830 -0.2932 -0.0474 -0.9920
  185MOL0     O24843   3.192   4.346   6.819 -0.3951 -0.2827  0.2460
  185MOL0     C24844   3.270   4.341   6.934  0.1086  0.6788  0.4769
  185MOL0     C24845   3.323   4.219   6.976 -0.1114 -0.2697  0.7990
  185MOL0     C24846   3.421   4.219   7.072  0.0729  0.8431  1.3354
  185MOL0     C24847   3.449   4.335   7.143  0.2571  0.1894 -0.7430
  185MOL0     O24848   3.536   4.313   7.246  0.4116 -0.1770  0.5141
  185MOL0     C24849   3.568   4.424   7.335 -0.6713  0.2690 -0.3997
  185MOL0     C24850   3.600   4.376   7.475 -0.0765  0.9967 -0.6192
  185MOL0     C24851   3.608   4.224   7.488  0.0306 -0.1860 -0.8561
  185MOL0     C24852   3.482   4.136   7.487 -1.7023  0.4385 -0.1745
  185MOL0     C24853   3.495   3.993   7.555 -0.6025 -0.1753 -0.1301
  185MOL0     C24854   3.540   3.989   7.705 -0.3084  1.1198 -1.2304
  185MOL0     C24855   3.536   3.859   7.786 -0.1199 -1.5392  0.0884
  185MOL0     C24856   3.407   3.785   7.795  0.2292 -0.1156  0.0473
  185MOL0     N24857   3.303   3.855   7.870  0.1158 -0.8461  0.1070
  185MOL0     C24858   3.306   3.878   8.003 -0.1280 -0.2611  0.5114
  185MOL0     C24859   3.205   3.969   8.025 -0.0030  0.3625 -0.7525
  185MOL0     C24860   3.149   4.042   8.145 -0.5253 -0.5091  0.1494
  185MOL0     C24861   3.023   4.139   8.122  1.0066  0.7728  0.0105
  185MOL0     C24862   2.984   4.220   8.243  0.2374 -0.5390 -2.0393
  185MOL0     C24863   3.084   4.336   8.281  0.3164 -0.2913  0.1913
  185MOL0     O24864   3.026   4.465   8.234  0.8268  0.3448  0.1665
  185MOL0     C24865   3.051   4.585   8.301  0.0812  0.3870  0.5082
  185MOL0     C24866   2.982   4.703   8.261  0.8151  0.6064 -0.0956
  185MOL0     C24867   2.980   4.817   8.339  0.6506 -0.7072  0.5811
  185MOL0     C24868   3.065   4.827   8.448 -1.0209 -0.3163 -0.1187
  185MOL0     C24869   3.051   4.943   8.539 -0.0258  0.7409 -0.1813
  185MOL0     O24870   2.939   5.015   8.524  0.1688 -0.8825  0.1881
  185MOL0     C24871   2.914   5.110   8.615  0.7426  1.5054  0.4733
  185MOL0     C24872   2.892   5.067   8.751 -0.8413 -0.0036  1.1448
  185MOL0     C24873   2.850   5.150   8.841 -0.1814 -0.0913 -0.4320
  185MOL0     C24874   2.833   5.290   8.808  0.7468  0.2202 -0.0132
  185MOL0     O24875   2.796   5.380   8.903 -0.0744 -0.1619 -0.3066
  185MOL0     C24876   2.889   5.433   8.997  0.0564 -0.1230 -0.7541
  185MOL0     C24877   2.843   5.561   9.054  0.5785  0.1227 -0.3111
  185MOL0     C24878   2.946   5.622   9.141  0.5990 -0.6392 -0.1347
  185MOL0     C24879   3.022   5.734   9.064  0.0863 -0.8647  0.0464
  185MOL0     C24880   3.122   5.806   9.163 -0.3829  0.3203 -0.4983
  185MOL0     C24881   3.067   5.894   9.270  0.1690  0.1160 -0.6681
  185MOL0     C24882   2.987   6.015   9.211 -0.6245  0.6265 -0.5673
  185MOL0     C24883   2.942   6.110   9.330 -0.4784 -0.2310  0.3442
  185MOL0    Cl24884   3.075   6.157   9.431 -0.2210  0.6613  0.1020
  185MOL0     C24885   2.850   5.338   8.678 -0.0068 -0.1164  0.4538
  185MOL0     C24886   2.893   5.253   8.574 -1.2940 -0.0817  0.9380
  185MOL0     O24887   3.140   4.976   8.623 -0.0862  0.4027  0.2616
  185MOL0     C24888   3.156   4.730   8.472 -0.1118  0.1701 -0.9073
  185MOL0     C24889   3.140   4.602   8.408  0.2129  0.6926 -0.6443
  185MOL0     N24890   3.146   3.991   7.900 -0.3680  0.3380  0.1129
  185MOL0     N24891   3.202   3.914   7.812  0.2879 -0.9395 -0.3377
  185MOL0     C24892   3.396   4.456   7.105 -0.0258  0.1151 -0.1980
  185MOL0     C24893   3.300   4.461   7.001 -0.3741 -0.4025 -0.4032
  185MOL0     C24894   2.968   4.417   6.716  0.2286  0.3038  0.2792
  185MOL0     C24895   2.830   4.401   6.728  0.8747  0.0413 -0.0317
  185MOL0     C24896   2.737   4.433   6.631 -0.5385  0.5333 -0.3654
  185MOL0     C24897   2.782   4.516   6.522 -1.2919 -0.3636  0.0433
  185MOL0     O24898   2.694   4.578   6.436  0.4785 -0.2673  0.7113
  185MOL0     C24899   2.742   4.670   6.337  0.0336 -0.4536  0.2150
  185MOL0     C24900   2.638   4.751   6.266  0.1982  0.1463  0.5381
  185MOL0     C24901   2.543   4.836   6.355  0.2257  0.1638  0.3942
  185MOL0     C24902   2.616   4.962   6.406 -0.8408 -0.8852 -0.3635
  185MOL0     C24903   2.516   5.075   6.427 -0.1070  0.7192  0.4050
  185MOL0     C24904   2.457   5.173   6.461  0.1792  0.2323  0.6294
  185MOL0     C24905   2.923   4.531   6.508 -0.5233  0.3085 -0.6725
  185MOL0     C24906   3.017   4.484   6.604  0.0784  0.9800 -1.1153
  185MOL0     C24907   3.169   4.509   6.575  1.2500  0.5310 -0.4254
  185MOL0     H24908   3.301   4.128   6.921  0.7762  0.3665 -0.6786
  185MOL0     H24909   3.458   4.121   7.100  2.8225  1.7593  1.2300
  185MOL0     H24910   3.658   4.468   7.293 -0.9492  0.5445 -0.7055
  185MOL0     H24911   3.488   4.497   7.348 -2.5414 -1.7072 -0.1123
  185MOL0     H24912   3.524   4.417   7.542  1.2211  2.4089  0.0709
  185MOL0     H24913   3.701   4.404   7.506  0.5638 -0.8055 -0.9779
  185MOL0     H24914   3.670   4.215   7.578  1.5526  0.9012 -1.7460
  185MOL0     H24915   3.686   4.190   7.418  0.6651  1.0404 -0.7780
  185MOL0     H24916   3.408   4.192   7.545 -1.3848  1.4153 -0.6928
  185MOL0     H24917   3.442   4.123   7.386  2.7955  0.1059 -2.1287
  185MOL0     H24918   3.397   3.945   7.561 -0.3755 -0.9297 -1.9348
  185MOL0     H24919   3.542   3.914   7.496 -4.1060 -0.7092 -2.4447
  185MOL0     H24920   3.645   4.022   7.701  0.4699 -1.0586 -0.2154
  185MOL0     H24921   3.479   4.067   7.751  0.3473  1.5174 -1.0116
  185MOL0     H24922   3.580   3.886   7.883 -0.6257 -1.2626  0.2473
  185MOL0     H24923   3.604   3.787   7.740  0.6645 -3.8505  4.2893
  185MOL0     H24924   3.373   3.770   7.692  1.6067 -0.8572 -0.3192
  185MOL0     H24925   3.432   3.685   7.832 -0.1757 -0.5318 -0.7619
  185MOL0     H24926   3.374   3.830   8.072 -1.8786 -3.1119  0.3803
  185MOL0     H24927   3.136   3.980   8.234  0.0837  0.7362  1.1276
  185MOL0     H24928   3.227   4.103   8.191 -2.1423  0.7539  1.3200
  185MOL0     H24929   3.037   4.204   8.035  0.3834  1.0621  0.1171
  185MOL0     H24930   2.936   4.074   8.109  1.8762 -0.2641 -0.7556
  185MOL0     H24931   2.971   4.157   8.332 -2.4479  0.4728 -1.6148
  185MOL0     H24932   2.885   4.260   8.217  1.1424  1.1343 -3.0255
  185MOL0     H24933   3.180   4.328   8.230 -1.5810  1.7266 -4.2311
  185MOL0     H24934   3.095   4.344   8.389  0.5563  1.9022  0.0402
  185MOL0     H24935   2.908   4.694   8.181  3.5739  0.5067 -2.8231
  185MOL0     H24936   2.916   4.901   8.312 -1.1879 -2.6514 -1.5488
  185MOL0     H24937   2.907   4.964   8.782  1.8849  0.2408  0.9107
  185MOL0     H24938   2.840   5.105   8.939 -0.8500 -2.5208 -1.5255
  185MOL0     H24939   2.906   5.364   9.080  0.1709 -0.0229 -0.6927
  185MOL0     H24940   2.985   5.459   8.950  1.4221 -1.1477  1.3225
  185MOL0     H24941   2.800   5.628   8.978 -0.5575  1.6435  1.5720
  185MOL0     H24942   2.756   5.540   9.116  0.3284  0.7028 -0.4534
  185MOL0     H24943   2.895   5.675   9.222  3.0895 -0.4121  1.3837
  185MOL0     H24944   3.008   5.538   9.172 -0.0814 -2.2776 -2.9163
  185MOL0     H24945   2.944   5.807   9.041 -0.8825 -0.8792  2.9067
  185MOL0     H24946   3.074   5.676   8.988  1.9790 -1.0946  1.4553
  185MOL0     H24947   3.199   5.862   9.109 -1.1608 -0.8356 -2.9075
  185MOL0     H24948   3.177   5.726   9.214 -4.0267 -0.7903  2.0873
  185MOL0     H24949   2.999   5.828   9.325  3.0470 -1.1586  1.6467
  185MOL0     H24950   3.152   5.930   9.330  0.2240 -0.1475 -0.5880
  185MOL0     H24951   2.897   5.983   9.158 -2.2241  0.3477  2.1231
  185MOL0     H24952   3.052   6.067   9.140  0.1608  3.7557  2.1970
  185MOL0     H24953   2.910   6.203   9.282  2.2242  1.1213  1.0046
  185MOL0     H24954   2.875   6.052   9.394  0.4267 -0.1139  1.4119
  185MOL0     H24955   2.810   5.438   8.663 -1.0828  0.0055  3.3866
  185MOL0     H24956   2.884   5.284   8.471 -1.4906  1.1884  1.3178
  185MOL0     H24957   3.215   4.728   8.563 -3.3505  0.3860  1.3913
  185MOL0     H24958   3.195   4.516   8.447  1.1716  1.8745  0.7222
  185MOL0     H24959   3.407   4.547   7.163 -0.2839 -0.9922  1.6708
  185MOL0     H24960   3.268   4.557   6.961  4.4003  0.1163 -3.8793
  185MOL0     H24961   2.793   4.353   6.818 -0.0166 -0.0570 -0.4353
  185MOL0     H24962   2.633   4.411   6.653 -1.0909  1.0247 -2.2810
  185MOL0     H24963   2.803   4.615   6.264  1.8550 -2.3060  2.9093
  185MOL0     H24964   2.803   4.744   6.390  0.0990  0.5249 -1.1889
  185MOL0     H24965   2.573   4.680   6.214  0.1129  0.1758  0.6044
  185MOL0     H24966   2.690   4.812   6.191  0.4092 -0.0025  0.5598
  185MOL0     H24967   2.509   4.782   6.444  2.0998  0.6312  1.4442
  185MOL0     H24968   2.453   4.853   6.295 -0.2057 -3.4349 -0.2298
  185MOL0     H24969   2.677   4.942   6.495  1.7982 -2.2601 -2.3096
  185MOL0     H24970   2.695   4.995   6.338 -3.4505 -2.1412 -4.3632
  185MOL0     H24971   2.393   5.257   6.480 -0.4023 -0.0082 -0.2344
  185MOL0     H24972   2.967   4.568   6.416  0.7415  1.6349  0.4177
  185MOL0     H24973   3.184   4.594   6.509 -0.1374  0.8101 -0.4187
  185MOL0     H24974   3.208   4.543   6.671 -2.6057 -0.3956  1.6600
  185MOL0     H24975   3.220   4.421   6.534 -0.1891 -1.4243  1.7126
  186MOL0     O24976   0.795   3.587   9.021 -0.6395  0.9237 -0.7693
  186MOL0     C24977   0.790   3.686   8.948 -0.3089  0.4291 -0.1447
  186MOL0     O24978   0.693   3.773   8.953 -0.3276 -0.0126 -0.4527
  186MOL0     C24979   0.569   3.748   9.018 -0.7175 -0.4069 -0.9273
  186MOL0     C24980   0.517   3.622   9.058 -0.0449 -0.2878 -0.1521
  186MOL0     C24981   0.395   3.618   9.124 -0.6789  0.2173  0.7010
  186MOL0     C24982   0.334   3.728   9.174  0.0233 -0.2188 -0.4446
  186MOL0     O24983   0.232   3.717   9.267 -0.1385  0.0747 -0.6349
  186MOL0     C24984   0.206   3.592   9.336  0.2158  0.0035 -1.0417
  186MOL0     C24985   0.075   3.587   9.423 -0.9076 -0.1711  0.9743
  186MOL0     C24986   0.092   3.475   9.526  0.9513 -0.5919 -0.6824
  186MOL0     C24987  -0.035   3.478   9.616 -0.0755 -0.3521 -0.0203
  186MOL0     C24988  -0.009   3.385   9.733  0.0106 -0.3755  0.1663
  186MOL0     C24989  -0.111   3.379   9.848 -0.1971  0.0858 -0.0883
  186MOL0     C24990  -0.250   3.330   9.809  0.3418  0.5881 -1.0776
  186MOL0     C24991  -0.352   3.317   9.934 -0.3165 -0.2308 -0.0790
  186MOL0     N24992  -0.316   3.219  10.040  0.7505  0.0196 -0.0880
  186MOL0     C24993  -0.286   3.247  10.171 -0.5028 -0.4443  1.2520
  186MOL0     C24994  -0.236   3.134  10.227  1.3687  0.6160  0.0162
  186MOL0     C24995  -0.200   3.109  10.368 -0.0945 -0.4178 -0.6936
  186MOL0     C24996  -0.054   3.136  10.390 -1.0842 -0.6261  0.4742
  186MOL0     C24997   0.011   3.055  10.507  0.5984 -0.0591  0.4015
  186MOL0     C24998  -0.049   3.086  10.646 -1.2615  0.6497  0.0387
  186MOL0     O24999  -0.039   3.226  10.658 -0.3206  0.1300 -0.1332
  186MOL0     C25000  -0.078   3.300  10.762  0.1706  0.9040 -0.5653
  186MOL0     C25001  -0.184   3.254  10.852 -0.2807  0.6949  0.2527
  186MOL0     C25002  -0.210   3.331  10.975 -0.9566 -1.0630  0.3577
  186MOL0     C25003  -0.133   3.455  10.989 -0.8757 -0.0203 -0.2634
  186MOL0     C25004  -0.129   3.536  11.116  0.8569 -0.1936 -0.2719
  186MOL0     O25005  -0.090   3.661  11.115 -0.6653  0.6097 -0.4942
  186MOL0     C25006  -0.064   3.731  11.231  1.1241  0.8425 -0.0683
  186MOL0     C25007   0.028   3.830  11.210 -0.3804 -0.0993 -1.8838
  186MOL0     C25008   0.055   3.908  11.321 -0.4115 -0.2968  0.3193
  186MOL0     C25009  -0.010   3.895  11.441  0.5381 -0.7890  0.5718
  186MOL0     O25010   0.025   3.983  11.545  0.4204  0.6220  0.0043
  186MOL0     C25011   0.060   3.926  11.673  0.3248 -1.3486  0.4489
  186MOL0     C25012   0.098   4.043  11.768  0.7958 -0.7720  0.2619
  186MOL0     C25013   0.138   4.016  11.918 -0.5776 -0.3285 -0.6989
  186MOL0     C25014   0.030   3.958  12.008  0.8041  0.2948  0.2429
  186MOL0     C25015   0.083   3.937  12.155  0.7194 -0.1674 -0.2026
  186MOL0     C25016  -0.038   3.895  12.235  0.8647 -0.5634  0.1041
  186MOL0     C25017   0.014   3.837  12.364  0.7784 -0.4364 -0.2445
  186MOL0     C25018  -0.077   3.776  12.470  0.4434 -0.6835 -0.0773
  186MOL0    Cl25019  -0.114   3.611  12.415 -0.0834  0.6954  0.0872
  186MOL0     C25020  -0.114   3.805  11.455 -0.4568 -0.7425 -0.9136
  186MOL0     C25021  -0.134   3.714  11.355 -0.6437 -0.3899 -0.4950
  186MOL0     O25022  -0.174   3.471  11.214 -0.7377  0.2271 -0.2197
  186MOL0     C25023  -0.037   3.493  10.895  0.3725  0.5966  0.2908
  186MOL0     C25024  -0.023   3.419  10.772 -0.0046  0.9016 -0.1680
  186MOL0     N25025  -0.252   3.039  10.130 -0.0358  0.2225  0.2000
  186MOL0     N25026  -0.285   3.089  10.017  0.1458 -0.4196  0.0151
  186MOL0     C25027   0.383   3.858   9.140  0.3709  0.3477  0.4997
  186MOL0     C25028   0.501   3.867   9.058  0.8266  0.5573 -0.0371
  186MOL0     C25029   0.889   3.699   8.840 -0.1200 -0.4795 -0.0137
  186MOL0     C25030   0.854   3.806   8.740 -0.1719 -0.6804 -0.0896
  186MOL0     C25031   0.958   3.830   8.645  0.2517 -0.6313 -0.1016
  186MOL0     C25032   1.075   3.760   8.643 -0.8866 -0.5299 -0.5352
  186MOL0     O25033   1.191   3.786   8.569 -0.3245 -0.2525  0.0142
  186MOL0     C25034   1.195   3.902   8.477  0.0526  0.0172  0.0664
  186MOL0     C25035   1.119   3.893   8.336 -0.4985 -0.2652  0.1353
  186MOL0     C25036   1.169   3.767   8.261 -0.6226  0.8583 -0.1968
  186MOL0     C25037   1.097   3.746   8.128  0.4903  0.0402 -0.4048
  186MOL0     C25038   0.962   3.694   8.158  0.3607  0.4683 -0.2586
  186MOL0     C25039   0.871   3.623   8.205  0.0167 -0.5492 -0.2462
  186MOL0     C25040   1.100   3.663   8.736 -0.4689 -0.7969  0.3561
  186MOL0     C25041   1.009   3.627   8.836  1.0353  0.4092 -1.2281
  186MOL0     C25042   1.066   3.524   8.933  0.3900 -0.7901  0.7156
  186MOL0     H25043   0.561   3.524   9.050 -1.3472 -0.7219 -3.3691
  186MOL0     H25044   0.347   3.524   9.150 -0.8425  0.0940 -0.0343
  186MOL0     H25045   0.174   3.518   9.262  0.8785 -1.6798  0.3046
  186MOL0     H25046   0.299   3.565   9.386  0.8599 -0.1552 -2.2797
  186MOL0     H25047  -0.011   3.570   9.357 -0.9692  0.3447  0.9223
  186MOL0     H25048   0.060   3.679   9.479 -0.6747 -0.2032  1.0930
  186MOL0     H25049   0.169   3.502   9.599 -0.2751 -2.2287  1.3432
  186MOL0     H25050   0.112   3.380   9.476 -0.3417 -0.6259 -1.1658
  186MOL0     H25051  -0.045   3.579   9.659 -4.2982 -0.8422  0.6038
  186MOL0     H25052  -0.124   3.452   9.557 -0.1455 -0.8214  0.2905
  186MOL0     H25053  -0.002   3.281   9.697 -0.9808 -0.3240 -0.2120
  186MOL0     H25054   0.089   3.416   9.771 -0.0936 -0.6924  0.6987
  186MOL0     H25055  -0.069   3.312   9.923  1.1461  0.8000 -0.1715
  186MOL0     H25056  -0.112   3.477   9.897  0.0763  0.4334 -0.7626
  186MOL0     H25057  -0.238   3.231   9.764 -0.1952  0.3028 -0.5936
  186MOL0     H25058  -0.294   3.386   9.726 -0.2723  0.0364 -1.1282
  186MOL0     H25059  -0.352   3.408   9.995  2.6116 -1.0345  1.2616
  186MOL0     H25060  -0.449   3.297   9.887 -1.9027 -0.7831  3.1500
  186MOL0     H25061  -0.292   3.344  10.220 -0.5066  0.2678 -0.0867
  186MOL0     H25062  -0.250   3.184  10.431  0.6701 -2.0822  2.0549
  186MOL0     H25063  -0.222   3.006  10.399  0.5927 -1.3146 -3.0276
  186MOL0     H25064   0.005   3.103  10.303 -0.7274 -2.4426  1.3614
  186MOL0     H25065  -0.039   3.244  10.387 -0.8005 -0.6670 -1.3968
  186MOL0     H25066   0.115   3.088  10.509  0.4393  0.4905 -0.0988
  186MOL0     H25067   0.001   2.946  10.501  0.5277 -0.3730  3.8773
  186MOL0     H25068   0.005   3.030  10.724 -2.8554 -1.4855 -0.2959
  186MOL0     H25069  -0.157   3.067  10.654 -2.1596  5.0849  1.0054
  186MOL0     H25070  -0.240   3.168  10.816 -0.5187  0.1237  1.8760
  186MOL0     H25071  -0.280   3.292  11.048 -2.6494 -0.2117 -0.7466
  186MOL0     H25072   0.064   3.847  11.109  0.3095 -0.1575 -1.6535
  186MOL0     H25073   0.131   3.984  11.312 -1.0672  0.5289  1.5039
  186MOL0     H25074  -0.025   3.869  11.713  0.8277 -0.9078  2.2333
  186MOL0     H25075   0.153   3.868  11.668  2.1252  1.3887  0.4888
  186MOL0     H25076   0.197   4.074  11.734  0.9228  0.3903  1.5481
  186MOL0     H25077   0.020   4.120  11.761 -0.8175 -2.2469  1.2319
  186MOL0     H25078   0.221   3.945  11.916 -1.8786 -1.9121 -0.8525
  186MOL0     H25079   0.163   4.114  11.959  0.2794 -1.8229  2.6748
  186MOL0     H25080  -0.010   3.868  11.960  3.2580  0.0086 -1.4202
  186MOL0     H25081  -0.051   4.032  12.005  1.3235  0.8665 -3.0682
  186MOL0     H25082   0.125   4.025  12.205 -2.5513  1.3255  0.1428
  186MOL0     H25083   0.152   3.853  12.138 -1.9429 -2.3337 -1.0037
  186MOL0     H25084  -0.094   3.986  12.257  0.2075  0.3915 -4.4772
  186MOL0     H25085  -0.098   3.814  12.191 -2.0134  0.7313  1.4055
  186MOL0     H25086   0.053   3.925  12.416 -1.8073  1.7874 -1.8153
  186MOL0     H25087   0.089   3.759  12.349  0.7340 -0.3498 -0.9297
  186MOL0     H25088  -0.045   3.779  12.574  0.3045  1.9937 -0.0175
  186MOL0     H25089  -0.172   3.830  12.468  0.5254 -0.5503 -0.5272
  186MOL0     H25090  -0.173   3.810  11.547  1.1226  1.2558  0.0922
  186MOL0     H25091  -0.213   3.640  11.355  2.0501 -3.5841 -2.6907
  186MOL0     H25092   0.012   3.590  10.898  0.6149  0.5547 -1.2911
  186MOL0     H25093   0.053   3.448  10.700  0.6755  1.2615  0.6811
  186MOL0     H25094   0.325   3.946   9.163  3.1899  2.2035  0.9621
  186MOL0     H25095   0.549   3.960   9.029  0.7885  0.2479 -1.1223
  186MOL0     H25096   0.763   3.864   8.732  0.5397  0.1942 -2.4666
  186MOL0     H25097   0.946   3.912   8.576 -0.2952  0.1748  0.9347
  186MOL0     H25098   1.298   3.929   8.453 -0.0585  1.3583  1.0066
  186MOL0     H25099   1.141   3.981   8.530  2.6054 -0.4453  3.7449
  186MOL0     H25100   1.129   3.983   8.274  0.0153 -1.5408 -1.7316
  186MOL0     H25101   1.015   3.869   8.360 -0.0459 -0.6452  1.8103
  186MOL0     H25102   1.169   3.673   8.317  2.1847 -0.0025 -1.4777
  186MOL0     H25103   1.274   3.796   8.247 -0.6754  1.1661  0.0208
  186MOL0     H25104   1.090   3.840   8.073  1.8162 -0.7790 -2.0715
  186MOL0     H25105   1.139   3.679   8.052  0.1379 -1.4638  0.6639
  186MOL0     H25106   0.791   3.560   8.236 -0.3818  0.9538  2.1260
  186MOL0     H25107   1.191   3.604   8.740  1.1840  1.5341 -0.5085
  186MOL0     H25108   1.046   3.536   9.040 -1.1486  1.3500  0.2418
  186MOL0     H25109   1.015   3.429   8.913 -0.7726 -0.1201  0.4285
  186MOL0     H25110   1.175   3.519   8.935  0.5335 -1.3678 -2.5530
  187MOL0     O25111   2.484  11.169   3.734  0.0797 -0.3021 -0.1373
  187MOL0     C25112   2.584  11.116   3.703 -0.6763 -0.8142  0.1358
  187MOL0     O25113   2.596  10.996   3.661  0.4328 -0.4089  0.2870
  187MOL0     C25114   2.489  10.907   3.634 -0.4766 -1.1340 -0.0486
  187MOL0     C25115   2.423  10.927   3.517 -0.4286  0.9770 -0.1317
  187MOL0     C25116   2.310  10.852   3.482 -0.5569  0.1673  0.5220
  187MOL0     C25117   2.278  10.749   3.570  0.5996  0.4226  0.6999
  187MOL0     O25118   2.184  10.658   3.521 -0.0734  0.4466 -0.3836
  187MOL0     C25119   2.083  10.620   3.613  0.7786 -0.1313  0.2125
  187MOL0     C25120   1.959  10.599   3.529 -0.6082  1.1712 -0.5334
  187MOL0     C25121   1.872  10.724   3.493 -0.4822  0.2904  0.0640
  187MOL0     C25122   1.754  10.676   3.414 -0.4893 -0.5797 -0.2722
  187MOL0     C25123   1.640  10.767   3.394 -0.6146  0.5928  0.2836
  187MOL0     C25124   1.574  10.785   3.536 -0.5633  0.0151  0.7404
  187MOL0     C25125   1.436  10.864   3.516  0.7600  0.6907 -0.0159
  187MOL0     C25126   1.358  10.873   3.654 -0.6868  0.3684  0.0746
  187MOL0     N25127   1.432  10.941   3.759 -0.3219 -0.4587  1.0404
  187MOL0     C25128   1.521  10.873   3.838  0.2467 -0.8414 -0.1204
  187MOL0     C25129   1.600  10.969   3.900  0.4152  0.3663  0.2941
  187MOL0     C25130   1.712  10.945   3.992  0.3911 -0.6833 -0.5966
  187MOL0     C25131   1.693  10.982   4.141 -1.7211 -0.1575 -1.0277
  187MOL0     C25132   1.834  10.999   4.217 -0.0666 -0.1177 -0.5403
  187MOL0     C25133   1.907  11.131   4.204 -0.8702 -0.4642  0.9144
  187MOL0     O25134   1.832  11.234   4.273  0.9867 -0.8369  0.1704
  187MOL0     C25135   1.900  11.356   4.281  0.3757  0.1621  0.0292
  187MOL0     C25136   1.847  11.450   4.359  0.1113 -0.3927  0.2110
  187MOL0     C25137   1.912  11.579   4.382  0.1072  0.1606  1.0591
  187MOL0     C25138   2.030  11.605   4.311  0.2044 -0.4942  0.6290
  187MOL0     C25139   2.118  11.720   4.345 -0.3378 -0.5471  0.8225
  187MOL0     O25140   2.125  11.768   4.470  0.3629  0.8204 -0.5768
  187MOL0     C25141   2.147  11.904   4.492  0.3086 -0.3046 -0.4510
  187MOL0     C25142   2.121  12.017   4.407  0.4264 -0.6365 -0.9543
  187MOL0     C25143   2.175  12.141   4.439  0.5825  0.3866  0.0988
  187MOL0     C25144   2.231  12.159   4.569  0.1271 -0.2561  0.1702
  187MOL0     O25145   2.294  12.275   4.601 -0.1582  0.1944  0.2541
  187MOL0     C25146   2.407  12.312   4.530 -0.5220 -0.4657 -0.1943
  187MOL0     C25147   2.480  12.430   4.592  0.6317 -0.5739 -0.4962
  187MOL0     C25148   2.397  12.562   4.559 -1.1556  0.1980  0.1247
  187MOL0     C25149   2.447  12.675   4.647  0.4442 -0.8123 -0.1137
  187MOL0     C25150   2.352  12.793   4.646  0.5114 -0.5073  0.2868
  187MOL0     C25151   2.408  12.905   4.746  0.3500 -0.4239  0.2196
  187MOL0     C25152   2.317  13.032   4.733  0.5703 -0.0232  0.4297
  187MOL0     C25153   2.204  13.040   4.847 -0.1848 -0.2107 -0.0276
  187MOL0    Cl25154   2.070  12.925   4.824  0.5077  0.5246 -0.5135
  187MOL0     C25155   2.257  12.054   4.647 -1.0468  0.0251  0.7842
  187MOL0     C25156   2.208  11.937   4.612 -0.3068 -0.2012 -0.1126
  187MOL0     O25157   2.177  11.776   4.257 -0.0050  0.2618 -0.4785
  187MOL0     C25158   2.077  11.513   4.212  0.9271  0.0779 -0.4917
  187MOL0     C25159   2.016  11.386   4.201 -1.1673 -0.3330 -0.1204
  187MOL0     N25160   1.542  11.088   3.868 -0.6622  1.3671  0.6778
  187MOL0     N25161   1.454  11.068   3.771  0.7111 -0.4912 -0.1474
  187MOL0     C25162   2.339  10.728   3.690  0.3590  0.5659  0.7312
  187MOL0     C25163   2.452  10.804   3.718  0.4178  0.9823  0.0386
  187MOL0     C25164   2.719  11.186   3.707  0.6823  0.3416  0.0256
  187MOL0     C25165   2.827  11.127   3.647 -0.2864 -0.2888  0.0711
  187MOL0     C25166   2.954  11.182   3.659 -0.2802  0.0395  0.0938
  187MOL0     C25167   2.980  11.301   3.740 -0.0559 -0.0939  0.1051
  187MOL0     O25168   3.096  11.374   3.743 -0.6769  0.2192 -0.0572
  187MOL0     C25169   3.220  11.309   3.738  0.0445 -0.0556  0.3728
  187MOL0     C25170   3.271  11.293   3.886  0.4260  0.6823  0.5744
  187MOL0     C25171   3.432  11.287   3.895  0.1207  0.4632 -0.1368
  187MOL0     C25172   3.480  11.330   4.031  0.2992 -0.0083  0.4204
  187MOL0     C25173   3.430  11.258   4.148  0.0850 -0.4879 -0.4118
  187MOL0     C25174   3.387  11.208   4.245 -0.2936  0.5271 -0.5881
  187MOL0     C25175   2.860  11.366   3.786 -0.0402  0.2374  0.7450
  187MOL0     C25176   2.736  11.314   3.767  0.5333 -0.1998  0.0384
  187MOL0     C25177   2.617  11.400   3.809 -0.4800 -0.5181 -0.0397
  187MOL0     H25178   2.446  11.011   3.453  0.2026  3.3239  2.9425
  187MOL0     H25179   2.256  10.879   3.392 -2.0449  1.3133  1.7086
  187MOL0     H25180   2.109  10.532   3.671 -0.5138 -0.2060  0.7105
  187MOL0     H25181   2.052  10.695   3.686 -0.8143  1.2558 -1.7525
  187MOL0     H25182   1.894  10.526   3.578  0.9312 -0.8274 -1.3081
  187MOL0     H25183   1.989  10.555   3.433 -0.8953 -1.0650  0.3470
  187MOL0     H25184   1.919  10.812   3.449 -1.3981  0.7358 -0.0495
  187MOL0     H25185   1.841  10.755   3.593 -1.2930 -2.3266  0.7045
  187MOL0     H25186   1.784  10.666   3.310 -2.5078  1.0950 -1.0756
  187MOL0     H25187   1.714  10.579   3.445  0.6168 -0.4382  1.7882
  187MOL0     H25188   1.676  10.857   3.343 -0.8462 -0.2466 -1.4168
  187MOL0     H25189   1.570  10.716   3.327  0.5149 -0.0476 -0.4357
  187MOL0     H25190   1.543  10.685   3.569 -4.6485  1.4697  1.9084
  187MOL0     H25191   1.648  10.823   3.606 -0.0679 -3.2235  2.1801
  187MOL0     H25192   1.373  10.808   3.447  1.4839  2.2598 -2.0567
  187MOL0     H25193   1.442  10.967   3.479 -2.6931  1.7508  1.8384
  187MOL0     H25194   1.265  10.928   3.642  0.2859  1.9412 -0.6449
  187MOL0     H25195   1.327  10.772   3.682  0.9265  0.2714  1.7335
  187MOL0     H25196   1.539  10.766   3.833 -0.8764 -1.0571  0.1408
  187MOL0     H25197   1.742  10.842   3.966 -1.2696 -1.4715  0.4422
  187MOL0     H25198   1.781  11.023   3.959  0.1006  1.5072  3.4292
  187MOL0     H25199   1.637  11.077   4.145 -0.4662  0.5508  0.6657
  187MOL0     H25200   1.631  10.905   4.187  2.1900 -2.2586  1.2299
  187MOL0     H25201   1.897  10.914   4.188  1.2204 -0.6100  3.2296
  187MOL0     H25202   1.825  10.985   4.325  2.0211 -2.5020 -0.5704
  187MOL0     H25203   1.925  11.154   4.099  2.8808 -1.5272  1.1579
  187MOL0     H25204   2.010  11.119   4.240 -0.2929  3.3398  0.9035
  187MOL0     H25205   1.765  11.427   4.426 -0.1917  0.2365  0.0596
  187MOL0     H25206   1.887  11.655   4.456  3.1691  2.5618 -0.1634
  187MOL0     H25207   2.061  12.002   4.317  0.9610  2.1904 -1.8626
  187MOL0     H25208   2.160  12.232   4.381  2.5660 -0.6677 -2.2274
  187MOL0     H25209   2.477  12.228   4.535  0.3705  0.2742  4.0412
  187MOL0     H25210   2.379  12.326   4.425  0.3197 -0.0416 -0.3683
  187MOL0     H25211   2.484  12.416   4.701 -2.7445 -0.4738 -0.2407
  187MOL0     H25212   2.582  12.426   4.554 -0.3608  1.2418 -3.7600
  187MOL0     H25213   2.411  12.587   4.453  0.7576 -3.2552 -0.6173
  187MOL0     H25214   2.289  12.548   4.571 -1.2759  1.7097  1.1010
  187MOL0     H25215   2.541  12.707   4.600  0.4041 -0.3632  0.1079
  187MOL0     H25216   2.474  12.640   4.747 -0.0621  3.2092  1.6352
  187MOL0     H25217   2.257  12.755   4.684  0.4897 -2.3552 -1.4539
  187MOL0     H25218   2.339  12.833   4.545 -0.3258 -2.0626 -0.2504
  187MOL0     H25219   2.413  12.883   4.853 -1.7799 -1.9812  0.0615
  187MOL0     H25220   2.509  12.931   4.714  0.9845  3.1430  4.2326
  187MOL0     H25221   2.272  13.033   4.633 -0.1559 -0.5326  0.7435
  187MOL0     H25222   2.383  13.118   4.745 -0.1113  0.7139 -0.8599
  187MOL0     H25223   2.241  13.040   4.951 -2.5880 -1.6478  0.9225
  187MOL0     H25224   2.156  13.138   4.839  0.8870  0.2050 -1.8917
  187MOL0     H25225   2.304  12.063   4.745 -3.6580  0.5944  2.0806
  187MOL0     H25226   2.205  11.855   4.683  1.7402 -1.0765 -0.9511
  187MOL0     H25227   2.169  11.531   4.157  1.0353  1.7564  0.1526
  187MOL0     H25228   2.060  11.307   4.140 -5.1137 -0.7274 -2.7912
  187MOL0     H25229   2.306  10.645   3.752 -2.2511 -1.0755 -2.5254
  187MOL0     H25230   2.507  10.796   3.811  0.2922 -0.6795 -0.0013
  187MOL0     H25231   2.820  11.036   3.587 -1.4502 -0.4824  0.4762
  187MOL0     H25232   3.029  11.131   3.601 -0.7732  1.5735 -2.0148
  187MOL0     H25233   3.291  11.375   3.689  2.3775 -2.4904  0.2335
  187MOL0     H25234   3.202  11.211   3.692  0.9892  0.8118 -1.9504
  187MOL0     H25235   3.228  11.208   3.940 -1.1729 -0.0678 -1.6956
  187MOL0     H25236   3.238  11.380   3.944  2.6557  1.8049  0.2563
  187MOL0     H25237   3.471  11.343   3.809  2.0327  0.4324  0.6564
  187MOL0     H25238   3.458  11.181   3.889  1.4235  0.6984  0.9018
  187MOL0     H25239   3.587  11.307   4.036  0.4778  0.9285  1.3654
  187MOL0     H25240   3.475  11.439   4.044  1.1387 -0.0713  1.4307
  187MOL0     H25241   3.346  11.184   4.341  1.1288  1.4512  0.2851
  187MOL0     H25242   2.861  11.463   3.836 -2.8196  2.9208 -3.7790
  187MOL0     H25243   2.557  11.402   3.718 -3.1372 -2.8092  1.4897
  187MOL0     H25244   2.562  11.363   3.897 -4.3381  4.7768  0.2725
  187MOL0     H25245   2.640  11.501   3.842  0.2822 -1.4518  2.5953
  188MOL0     O25246   4.025   2.144   1.695 -0.0595  0.0537 -0.6477
  188MOL0     C25247   4.082   2.078   1.605  0.5184  0.2308 -1.2822
  188MOL0     O25248   4.049   2.082   1.476  0.0339  0.1961 -0.3803
  188MOL0     C25249   3.920   2.125   1.443 -0.4442  0.0672 -0.6038
  188MOL0     C25250   3.825   2.022   1.437 -0.2270 -1.2073 -0.2705
  188MOL0     C25251   3.700   2.056   1.375 -0.3933  0.0519 -0.2994
  188MOL0     C25252   3.674   2.184   1.318 -0.5979  0.3540  0.2355
  188MOL0     O25253   3.537   2.207   1.287  0.0463 -0.2910  0.3261
  188MOL0     C25254   3.495   2.318   1.211 -0.0004 -0.1388  1.1165
  188MOL0     C25255   3.390   2.264   1.126  0.3033 -0.5808  0.6955
  188MOL0     C25256   3.429   2.161   1.019  0.7575  0.3886 -0.2684
  188MOL0     C25257   3.391   2.214   0.879 -0.4474  0.6195  1.4983
  188MOL0     C25258   3.410   2.102   0.771 -0.6741 -0.7410 -0.1867
  188MOL0     C25259   3.355   2.146   0.635  0.3066  0.0155 -1.1291
  188MOL0     C25260   3.382   2.033   0.533 -0.2346 -0.9756  1.5216
  188MOL0     C25261   3.511   2.060   0.449  0.0723  0.1174 -0.1479
  188MOL0     N25262   3.574   1.943   0.387  0.0891  0.4027 -0.9142
  188MOL0     C25263   3.673   1.946   0.298  0.5790 -0.6372 -0.0427
  188MOL0     C25264   3.677   1.821   0.250 -0.4163  0.4627  0.3802
  188MOL0     C25265   3.789   1.781   0.159  0.4984  0.3663  0.7348
  188MOL0     C25266   3.788   1.887   0.044 -0.1703  0.2469  0.8880
  188MOL0     C25267   3.884   1.842  -0.073  0.1753 -0.9865  0.1873
  188MOL0     C25268   3.836   1.735  -0.166 -0.5117 -0.2246  0.2827
  188MOL0     O25269   3.929   1.741  -0.274  0.4527  0.2863  0.4913
  188MOL0     C25270   3.884   1.662  -0.383 -0.1613  0.6909  0.4363
  188MOL0     C25271   3.761   1.593  -0.389 -0.8908 -0.2437 -0.7600
  188MOL0     C25272   3.718   1.512  -0.495 -0.2963  0.7297  0.5065
  188MOL0     C25273   3.789   1.520  -0.610 -0.0349  0.3956  0.3584
  188MOL0     C25274   3.730   1.445  -0.730  0.9396 -1.2842 -0.0662
  188MOL0     O25275   3.800   1.466  -0.847  0.1427 -0.1431 -0.3722
  188MOL0     C25276   3.773   1.412  -0.969 -0.3817 -0.5487  0.1025
  188MOL0     C25277   3.828   1.295  -1.026  0.3678  0.4482  0.5156
  188MOL0     C25278   3.803   1.247  -1.158 -0.2925  0.7398  0.6713
  188MOL0     C25279   3.713   1.315  -1.232 -0.8462 -0.4720 -0.8364
  188MOL0     O25280   3.695   1.275  -1.357  0.3377 -0.2460 -0.3720
  188MOL0     C25281   3.682   1.373  -1.458 -0.0377  0.0084 -0.4344
  188MOL0     C25282   3.697   1.303  -1.589  0.5780  0.0589  0.3949
  188MOL0     C25283   3.844   1.240  -1.609  0.7204  0.5877  0.3267
  188MOL0     C25284   3.865   1.159  -1.748 -1.5308 -0.5149 -0.6796
  188MOL0     C25285   3.768   1.050  -1.777  0.1376  1.2922 -0.9524
  188MOL0     C25286   3.797   0.987  -1.912  0.3094  0.5251 -0.1189
  188MOL0     C25287   3.894   0.872  -1.894 -0.2268  0.9611 -0.9140
  188MOL0     C25288   3.911   0.778  -2.013 -0.0662  0.1793 -0.3445
  188MOL0    Cl25289   3.992   0.876  -2.140  0.3728  0.0713  0.1297
  188MOL0     C25290   3.644   1.424  -1.177  0.0690  0.1990 -0.3419
  188MOL0     C25291   3.669   1.464  -1.051 -0.0284 -0.4826 -1.3895
  188MOL0     O25292   3.621   1.383  -0.724 -0.1515 -0.0770  0.1259
  188MOL0     C25293   3.919   1.585  -0.606  0.9875  0.0717 -0.0364
  188MOL0     C25294   3.965   1.656  -0.495  0.3864  0.9762 -0.0764
  188MOL0     N25295   3.578   1.741   0.309  0.9649 -0.7369  0.2297
  188MOL0     N25296   3.516   1.819   0.394  0.1881  0.1881 -0.1682
  188MOL0     C25297   3.775   2.287   1.318  0.7265  0.0737  0.0876
  188MOL0     C25298   3.899   2.256   1.390  0.1824 -0.0464 -0.4895
  188MOL0     C25299   4.197   2.009   1.655 -0.2626  0.4014  0.7971
  188MOL0     C25300   4.188   1.953   1.782  0.4096  0.1253 -0.5855
  188MOL0     C25301   4.301   1.913   1.852 -0.5379  0.7579 -0.1995
  188MOL0     C25302   4.431   1.931   1.799  0.3010  0.1702 -1.2003
  188MOL0     O25303   4.548   1.910   1.877  0.9470  0.6032  0.7247
  188MOL0     C25304   4.555   1.821   1.986 -0.1986 -0.2026 -0.5740
  188MOL0     C25305   4.700   1.804   2.037 -0.1209  0.4669  0.4266
  188MOL0     C25306   4.759   1.932   2.096  1.1358  0.0017  0.4947
  188MOL0     C25307   4.839   2.013   1.999  0.9909 -0.3445 -0.4109
  188MOL0     C25308   4.885   2.140   2.064 -0.0991 -0.9556 -0.1956
  188MOL0     C25309   4.936   2.236   2.123 -0.4435 -1.0095 -0.3301
  188MOL0     C25310   4.440   1.989   1.676 -0.2691 -0.1368 -0.5930
  188MOL0     C25311   4.327   2.036   1.604 -0.5881 -0.4958 -0.1331
  188MOL0     C25312   4.347   2.116   1.476 -0.3816  0.2097  0.3206
  188MOL0     H25313   3.832   1.919   1.471  0.5773 -1.4443 -1.1433
  188MOL0     H25314   3.625   1.978   1.374 -0.4162  0.0678 -1.3900
  188MOL0     H25315   3.455   2.402   1.269 -0.1058  0.6421 -0.0448
  188MOL0     H25316   3.577   2.350   1.146  0.4566 -4.1905 -0.5767
  188MOL0     H25317   3.325   2.341   1.083  1.7339  0.1601 -0.1992
  188MOL0     H25318   3.310   2.224   1.190 -2.1544  1.6029 -0.7840
  188MOL0     H25319   3.375   2.070   1.046  0.4323  0.7513  0.3255
  188MOL0     H25320   3.533   2.127   1.022 -0.4701 -3.9854 -1.1768
  188MOL0     H25321   3.286   2.244   0.873 -1.0677 -1.5504  0.4052
  188MOL0     H25322   3.460   2.297   0.861  2.2356 -1.6167  0.8407
  188MOL0     H25323   3.517   2.078   0.766 -0.1585  1.4546 -0.8898
  188MOL0     H25324   3.348   2.020   0.807  0.8948 -2.4462 -1.1998
  188MOL0     H25325   3.246   2.146   0.642  0.2061  3.5930 -1.0877
  188MOL0     H25326   3.390   2.247   0.613  0.8390  0.2437  0.5909
  188MOL0     H25327   3.304   2.021   0.457  2.0549  0.8952 -1.3198
  188MOL0     H25328   3.391   1.937   0.585 -0.8232 -1.7612  0.2194
  188MOL0     H25329   3.504   2.144   0.380 -1.7072 -0.1769 -0.3756
  188MOL0     H25330   3.591   2.083   0.520 -1.1929  1.7007  0.8148
  188MOL0     H25331   3.734   2.030   0.266  2.6580 -1.4162  1.6323
  188MOL0     H25332   3.888   1.759   0.199  0.3485 -2.8469 -0.3476
  188MOL0     H25333   3.758   1.687   0.112 -2.9472  0.4328  2.5285
  188MOL0     H25334   3.690   1.910   0.002  1.1624  1.5727 -1.7134
  188MOL0     H25335   3.828   1.983   0.078  3.2984 -0.3332 -1.1054
  188MOL0     H25336   3.974   1.799  -0.026  1.0070  0.9030  0.3990
  188MOL0     H25337   3.906   1.931  -0.131  3.1998  0.2622  2.9059
  188MOL0     H25338   3.739   1.774  -0.198 -0.3154  3.3644  3.3189
  188MOL0     H25339   3.826   1.642  -0.109 -4.6120 -1.6969 -2.4050
  188MOL0     H25340   3.688   1.610  -0.310 -1.9889  2.6545 -2.2495
  188MOL0     H25341   3.629   1.450  -0.500  0.4579 -0.3783  0.1700
  188MOL0     H25342   3.897   1.239  -0.963 -0.0818  0.9716  1.4965
  188MOL0     H25343   3.853   1.156  -1.190 -1.3877 -0.1007  1.2692
  188MOL0     H25344   3.583   1.418  -1.460 -0.1876 -0.0342  2.2823
  188MOL0     H25345   3.745   1.462  -1.458 -2.4945  1.8998  1.3595
  188MOL0     H25346   3.614   1.232  -1.599  1.1988 -0.2854 -4.6576
  188MOL0     H25347   3.684   1.378  -1.667  2.0240 -2.1884 -2.1927
  188MOL0     H25348   3.913   1.325  -1.617  1.6184 -0.1467  0.0921
  188MOL0     H25349   3.869   1.179  -1.522  0.6090  2.2867  1.5985
  188MOL0     H25350   3.968   1.121  -1.744 -1.1385  0.4912 -0.9712
  188MOL0     H25351   3.862   1.236  -1.825  3.7188  2.9790  1.9906
  188MOL0     H25352   3.677   1.111  -1.776 -0.8151 -0.0659 -1.0735
  188MOL0     H25353   3.767   0.980  -1.693 -1.7456  1.8224 -0.4798
  188MOL0     H25354   3.699   0.960  -1.952  0.3649 -3.6334  2.0739
  188MOL0     H25355   3.829   1.062  -1.985 -3.9377  3.3850  0.5408
  188MOL0     H25356   3.858   0.807  -1.814  1.2124  0.0783 -0.9640
  188MOL0     H25357   3.993   0.913  -1.875  1.5988 -1.8282 -3.5207
  188MOL0     H25358   3.958   0.681  -1.992  0.3414  0.5795  0.6780
  188MOL0     H25359   3.810   0.758  -2.051  0.0857 -2.9206  0.5826
  188MOL0     H25360   3.570   1.487  -1.226 -0.8752  0.1256  0.9244
  188MOL0     H25361   3.617   1.541  -0.995 -2.3975 -1.7581 -1.7279
  188MOL0     H25362   3.982   1.577  -0.694 -1.0337  0.7245 -1.6155
  188MOL0     H25363   4.059   1.707  -0.479  0.9696 -0.3462  1.0108
  188MOL0     H25364   3.762   2.384   1.270  2.8963 -0.8276 -2.6040
  188MOL0     H25365   3.965   2.341   1.394  0.2272 -0.1103  0.3655
  188MOL0     H25366   4.094   1.953   1.836 -0.1544 -0.7162 -1.5248
  188MOL0     H25367   4.279   1.877   1.952  2.8291 -1.0079  0.0689
  188MOL0     H25368   4.522   1.718   1.967  0.1390 -1.4490  4.1762
  188MOL0     H25369   4.479   1.854   2.058 -0.2113 -0.5671 -0.4174
  188MOL0     H25370   4.755   1.746   1.962  1.6131 -0.5411  2.3625
  188MOL0     H25371   4.694   1.727   2.115  0.0658  0.7549  0.7309
  188MOL0     H25372   4.797   1.914   2.197 -1.3745 -2.2406  1.1476
  188MOL0     H25373   4.672   1.997   2.111  1.7619  0.6425  1.4802
  188MOL0     H25374   4.917   1.953   1.951 -0.2126 -4.0934  1.9332
  188MOL0     H25375   4.773   2.041   1.916  2.5675  2.3917 -0.8608
  188MOL0     H25376   4.982   2.312   2.183 -1.3823 -2.0210  1.7722
  188MOL0     H25377   4.536   2.019   1.634  0.5074 -3.0378 -1.0910
  188MOL0     H25378   4.452   2.131   1.450 -0.0549 -0.1772  1.3420
  188MOL0     H25379   4.305   2.055   1.395 -1.2578 -0.3590  1.1706
  188MOL0     H25380   4.292   2.210   1.483 -2.5780 -0.9751  0.0382
  189MOL0     O25381   6.964   0.521  10.450  0.1871 -0.5698 -0.5335
  189MOL0     C25382   7.034   0.548  10.548 -0.2522 -0.3281  0.1888
  189MOL0     O25383   7.081   0.672  10.580 -0.2111  0.2030  0.1443
  189MOL0     C25384   6.978   0.760  10.606  0.0012 -0.0772  0.3147
  189MOL0     C25385   6.944   0.777  10.740  0.1566  0.5962 -0.8837
  189MOL0     C25386   6.841   0.873  10.769 -0.4658 -0.7794 -0.2949
  189MOL0     C25387   6.775   0.946  10.665  0.0164 -0.1117  0.4414
  189MOL0     O25388   6.665   1.030  10.682 -0.3108 -0.1706 -0.1419
  189MOL0     C25389   6.709   1.149  10.757 -0.2807  0.9018  0.0821
  189MOL0     C25390   6.641   1.279  10.707 -0.0445  0.4754 -0.2617
  189MOL0     C25391   6.682   1.410  10.786 -0.2745  0.2274 -0.3437
  189MOL0     C25392   6.646   1.537  10.704 -0.6280 -0.8163  0.1122
  189MOL0     C25393   6.676   1.668  10.774 -0.1988  1.4782 -1.0375
  189MOL0     C25394   6.827   1.690  10.804  1.3346 -0.6765 -0.2470
  189MOL0     C25395   6.841   1.815  10.892 -0.0078 -0.4100  0.3042
  189MOL0     C25396   6.817   1.945  10.810 -0.6718 -0.5317  0.0570
  189MOL0     N25397   6.853   2.070  10.874 -0.0106 -0.0583 -0.4498
  189MOL0     C25398   6.852   2.097  11.007  0.3071  0.1883  0.6477
  189MOL0     C25399   6.926   2.213  11.022  0.7113 -0.5034  0.2873
  189MOL0     C25400   6.955   2.288  11.150  0.3133  0.4740  0.0195
  189MOL0     C25401   6.862   2.401  11.172 -0.3002  0.3209 -0.2166
  189MOL0     C25402   6.887   2.477  11.309 -0.5104 -0.9830 -0.3641
  189MOL0     C25403   6.777   2.569  11.348 -0.8701 -0.2775 -0.7510
  189MOL0     O25404   6.655   2.503  11.402  0.0573  0.1881 -0.1103
  189MOL0     C25405   6.528   2.568  11.383  0.9364  0.9841 -0.5679
  189MOL0     C25406   6.516   2.707  11.367 -0.3829  0.1853 -0.8225
  189MOL0     C25407   6.384   2.760  11.379  0.4187 -0.1394 -0.3820
  189MOL0     C25408   6.266   2.691  11.403  0.2719 -0.6130  0.5587
  189MOL0     C25409   6.122   2.762  11.390 -0.3283  0.8379 -0.1051
  189MOL0     O25410   6.120   2.894  11.375  0.0990  0.8225  0.0913
  189MOL0     C25411   6.013   2.973  11.394  0.5951  0.2995 -0.3599
  189MOL0     C25412   5.896   2.938  11.473 -0.2308 -0.0462 -0.1949
  189MOL0     C25413   5.782   3.028  11.485  0.1943 -0.0856  0.6449
  189MOL0     C25414   5.792   3.148  11.422 -0.0130 -0.1672  0.2751
  189MOL0     O25415   5.692   3.234  11.462 -0.6539  0.2449 -0.5117
  189MOL0     C25416   5.692   3.366  11.411  0.4740  0.5212  0.0777
  189MOL0     C25417   5.577   3.435  11.473  0.7480  0.5397 -0.3202
  189MOL0     C25418   5.599   3.584  11.505  0.7810  0.3619  0.7002
  189MOL0     C25419   5.615   3.673  11.381 -0.2428  1.0138  0.7208
  189MOL0     C25420   5.634   3.826  11.415 -0.2783  0.5794  0.2885
  189MOL0     C25421   5.780   3.847  11.469 -0.3280 -0.1275  1.2957
  189MOL0     C25422   5.787   3.893  11.615  0.4654 -0.3762 -0.3052
  189MOL0     C25423   5.909   3.987  11.629  0.7682  0.4287 -0.0017
  189MOL0    Cl25424   5.961   4.014  11.807 -0.6565 -0.8927 -0.1522
  189MOL0     C25425   5.895   3.181  11.330  0.6313  0.8523  0.4678
  189MOL0     C25426   6.002   3.095  11.321 -0.0040  0.3352  0.8996
  189MOL0     O25427   6.026   2.691  11.407 -0.1040 -0.4421  0.5235
  189MOL0     C25428   6.280   2.551  11.420 -1.1250  0.3903 -0.8742
  189MOL0     C25429   6.413   2.492  11.413 -0.4933 -0.4145  0.6065
  189MOL0     N25430   6.983   2.232  10.895 -1.0661 -0.6748 -0.0137
  189MOL0     N25431   6.938   2.146  10.811 -0.9069 -0.8659  0.3421
  189MOL0     C25432   6.805   0.919  10.533 -0.9196  0.4537  0.6083
  189MOL0     C25433   6.905   0.821  10.500 -0.4133  0.9614 -0.1801
  189MOL0     C25434   7.062   0.451  10.656 -0.2284  0.2927 -0.1575
  189MOL0     C25435   7.172   0.471  10.745 -0.3520  0.3470  0.0106
  189MOL0     C25436   7.190   0.397  10.862 -0.7690  1.2009  0.2924
  189MOL0     C25437   7.107   0.292  10.887  0.1300 -0.3465  1.1135
  189MOL0     O25438   7.132   0.229  11.007  0.1406  0.5141  0.6958
  189MOL0     C25439   7.068   0.109  11.043  0.4507  1.1013 -0.7489
  189MOL0     C25440   7.127   0.031  11.157  0.7976  0.2808 -1.0921
  189MOL0     C25441   7.088   0.087  11.291  0.1218  0.1947 -0.9333
  189MOL0     C25442   7.162   0.199  11.339  0.3218 -0.5299 -0.5213
  189MOL0     C25443   7.122   0.243  11.478  0.6350  0.5855  0.1635
  189MOL0     C25444   7.114   0.279  11.592  0.4081  0.4676 -1.2979
  189MOL0     C25445   7.020   0.249  10.789  0.6125  0.1498 -0.2797
  189MOL0     C25446   6.991   0.330  10.673 -0.4508 -0.5019  0.5099
  189MOL0     C25447   6.885   0.283  10.585 -0.4572  0.4752 -0.2817
  189MOL0     H25448   7.004   0.719  10.809  0.8894  1.1716 -1.0200
  189MOL0     H25449   6.828   0.892  10.875  2.1019 -1.0891  0.1483
  189MOL0     H25450   6.713   1.141  10.866  1.8347 -0.9761 -0.0620
  189MOL0     H25451   6.817   1.152  10.741  0.0724 -1.7967  1.2838
  189MOL0     H25452   6.534   1.259  10.714  0.1209 -0.1410  0.5680
  189MOL0     H25453   6.654   1.299  10.600 -1.5706  3.0761 -0.0518
  189MOL0     H25454   6.789   1.399  10.809 -0.7320 -0.5766  1.5567
  189MOL0     H25455   6.624   1.411  10.878  2.0237 -0.3200  1.2045
  189MOL0     H25456   6.675   1.544  10.598  0.1565  1.7778  0.4424
  189MOL0     H25457   6.537   1.537  10.705 -0.6624 -0.9780 -1.3021
  189MOL0     H25458   6.626   1.753  10.726 -0.8474  2.1212  0.6748
  189MOL0     H25459   6.628   1.653  10.871 -1.1397  0.5595 -1.6253
  189MOL0     H25460   6.868   1.607  10.862 -0.4866 -1.2327  0.3324
  189MOL0     H25461   6.874   1.701  10.706 -0.6837  3.9187 -0.9881
  189MOL0     H25462   6.945   1.812  10.925 -0.3637  0.8553  1.6556
  189MOL0     H25463   6.777   1.811  10.982 -1.8123 -2.4252 -0.9554
  189MOL0     H25464   6.863   1.940  10.711  0.2593  3.7374  0.0827
  189MOL0     H25465   6.709   1.941  10.794 -0.4609 -0.7929 -1.4061
  189MOL0     H25466   6.801   2.038  11.082 -2.2081  0.5146 -0.7012
  189MOL0     H25467   6.943   2.209  11.224 -1.0520  1.0163  0.4087
  189MOL0     H25468   7.058   2.325  11.149 -0.2150  2.1114 -1.7062
  189MOL0     H25469   6.879   2.466  11.086  1.7032  1.2535  0.8322
  189MOL0     H25470   6.756   2.376  11.164 -1.4251  3.9199  1.2340
  189MOL0     H25471   6.980   2.533  11.296 -0.4134 -1.2908 -1.0344
  189MOL0     H25472   6.904   2.400  11.386  0.4078 -2.1394 -1.6761
  189MOL0     H25473   6.754   2.643  11.272  5.2784  2.7463 -0.3346
  189MOL0     H25474   6.815   2.625  11.434 -1.3120 -0.0928 -0.6773
  189MOL0     H25475   6.600   2.774  11.355  0.1584 -0.6920 -2.2141
  189MOL0     H25476   6.374   2.868  11.371 -3.0918 -0.5003 -3.4262
  189MOL0     H25477   5.896   2.843  11.525  5.0453 -1.5231 -2.2391
  189MOL0     H25478   5.694   3.002  11.543  1.2727 -3.7155  0.9095
  189MOL0     H25479   5.782   3.426  11.429 -0.3275  2.4494 -1.9268
  189MOL0     H25480   5.673   3.363  11.303  1.0045  3.4561 -0.1687
  189MOL0     H25481   5.490   3.420  11.409 -0.1507  0.4619  0.8883
  189MOL0     H25482   5.556   3.401  11.575  0.7441  0.7433 -0.2548
  189MOL0     H25483   5.523   3.619  11.574  2.7894  0.2897  3.0626
  189MOL0     H25484   5.689   3.589  11.567 -0.0187  1.1405  1.8416
  189MOL0     H25485   5.523   3.653  11.324 -0.7369  2.5501  0.9295
  189MOL0     H25486   5.691   3.631  11.314  0.9478  3.8620  0.1834
  189MOL0     H25487   5.566   3.865  11.490  0.4735  2.6752 -0.0464
  189MOL0     H25488   5.607   3.882  11.325 -0.8768  0.7934  0.6022
  189MOL0     H25489   5.848   3.766  11.442 -0.8623 -0.6855  1.6013
  189MOL0     H25490   5.811   3.927  11.401 -1.5937 -3.2159 -3.4754
  189MOL0     H25491   5.798   3.817  11.692 -5.3759  1.1766  2.6564
  189MOL0     H25492   5.693   3.942  11.642 -0.9468 -3.3007  0.5404
  189MOL0     H25493   5.995   3.961  11.566  0.8763  0.8534 -0.0394
  189MOL0     H25494   5.863   4.081  11.598  0.2513  1.0575  2.4480
  189MOL0     H25495   5.886   3.268  11.266 -0.4506  1.4923  1.4397
  189MOL0     H25496   6.089   3.118  11.260 -0.4120  0.1740  0.2453
  189MOL0     H25497   6.192   2.489  11.429 -0.2740 -1.1261 -2.3843
  189MOL0     H25498   6.426   2.386  11.432  1.5947 -0.0648  1.3816
  189MOL0     H25499   6.754   0.958  10.445  1.8600 -0.9181 -1.7888
  189MOL0     H25500   6.930   0.792  10.399 -0.0128  1.1416 -0.1320
  189MOL0     H25501   7.234   0.558  10.732 -2.4587  1.9305  0.0656
  189MOL0     H25502   7.281   0.400  10.922 -0.3628 -1.0744 -0.1205
  189MOL0     H25503   7.078   0.037  10.962 -1.1367 -1.0045  0.8133
  189MOL0     H25504   6.964   0.126  11.072 -0.2464 -2.4117 -0.7910
  189MOL0     H25505   7.236   0.033  11.163  0.7409  1.2830  0.1611
  189MOL0     H25506   7.086  -0.071  11.154 -1.9380  1.1019  1.8338
  189MOL0     H25507   7.116   0.016  11.370  0.1765  0.1106 -1.0273
  189MOL0     H25508   6.980   0.105  11.301 -0.0884  1.1279 -3.8966
  189MOL0     H25509   7.269   0.179  11.344  0.5007  0.1721 -1.4077
  189MOL0     H25510   7.147   0.283  11.271 -0.8970 -0.0328  0.3069
  189MOL0     H25511   7.101   0.307  11.695  0.4931  0.6192 -1.3281
  189MOL0     H25512   6.963   0.158  10.806  0.6333  0.0913 -0.5083
  189MOL0     H25513   6.821   0.369  10.566 -1.5096 -0.4530 -1.0680
  189MOL0     H25514   6.928   0.253  10.490 -0.9440  2.5834 -1.2138
  189MOL0     H25515   6.840   0.192  10.626  0.8191  0.0218  0.1632
  190MOL0     O25516   4.216   3.866   1.382  0.0467  0.3588 -0.7484
  190MOL0     C25517   4.253   3.822   1.490 -0.1023 -0.6343  0.0674
  190MOL0     O25518   4.256   3.896   1.603 -0.3193 -0.4618 -0.3328
  190MOL0     C25519   4.164   3.995   1.622 -0.0958 -0.0207  0.3644
  190MOL0     C25520   4.120   4.095   1.536 -0.2083  0.1405  0.4871
  190MOL0     C25521   4.031   4.192   1.563  0.2347 -0.3370 -0.1887
  190MOL0     C25522   3.976   4.201   1.697  0.2622  0.1010  0.9993
  190MOL0     O25523   3.893   4.298   1.736  0.4727 -0.0669 -0.1191
  190MOL0     C25524   3.873   4.406   1.652  0.1539 -0.0997  0.6617
  190MOL0     C25525   3.807   4.517   1.727 -0.3488 -0.0413 -0.3247
  190MOL0     C25526   3.670   4.489   1.792  0.1365  0.0081  1.1102
  190MOL0     C25527   3.620   4.607   1.877 -1.1858  1.5321 -0.1157
  190MOL0     C25528   3.470   4.603   1.919 -0.3936 -0.0298  0.6567
  190MOL0     C25529   3.394   4.742   1.908  0.3598 -0.0348  0.5801
  190MOL0     C25530   3.389   4.810   1.767  0.0598  0.3442 -0.5757
  190MOL0     C25531   3.294   4.746   1.663  1.0744  0.5990 -0.5126
  190MOL0     N25532   3.291   4.822   1.544 -0.0119  0.1138  0.1801
  190MOL0     C25533   3.240   4.956   1.541 -0.3334  1.0897 -0.1082
  190MOL0     C25534   3.241   4.985   1.414  0.0009 -0.5472  1.8876
  190MOL0     C25535   3.204   5.120   1.346 -1.2433  0.0053  1.1624
  190MOL0     C25536   3.284   5.243   1.410 -0.1775 -0.6420  1.0110
  190MOL0     C25537   3.438   5.222   1.431 -0.1775 -1.2430 -1.1247
  190MOL0     C25538   3.511   5.205   1.288 -0.6374  0.3905  0.9037
  190MOL0     O25539   3.653   5.190   1.294  0.4671 -0.0219 -1.1760
  190MOL0     C25540   3.723   5.128   1.394  0.1367 -0.6367 -1.1290
  190MOL0     C25541   3.846   5.184   1.426  0.0367  0.9046 -0.1410
  190MOL0     C25542   3.941   5.113   1.498 -0.2932 -0.6291 -1.0984
  190MOL0     C25543   3.906   4.991   1.560 -0.2215 -0.4649 -0.1810
  190MOL0     C25544   4.006   4.921   1.642 -0.1971  0.0119  0.1319
  190MOL0     O25545   4.125   4.994   1.670  0.5544 -0.2019 -0.1707
  190MOL0     C25546   4.240   4.926   1.711 -0.0020 -0.0511  0.5389
  190MOL0     C25547   4.298   4.947   1.842  0.2520 -1.0455 -0.3954
  190MOL0     C25548   4.424   4.886   1.871 -0.0056 -0.1041  0.1721
  190MOL0     C25549   4.486   4.791   1.790 -0.1968  1.1008 -0.7430
  190MOL0     O25550   4.606   4.721   1.810 -0.0944  0.0900  0.0178
  190MOL0     C25551   4.663   4.743   1.941  0.0554 -0.7150  0.0635
  190MOL0     C25552   4.794   4.670   1.939  0.3907 -0.5866 -0.2938
  190MOL0     C25553   4.902   4.730   1.847  0.2113 -0.3127  0.4667
  190MOL0     C25554   5.007   4.632   1.824  1.0081 -0.0718 -0.2413
  190MOL0     C25555   5.096   4.672   1.716 -0.6930  0.3080  0.5082
  190MOL0     C25556   5.041   4.677   1.570  0.7193 -0.9553 -0.7658
  190MOL0     C25557   5.168   4.721   1.478  0.6136  0.9585  0.8014
  190MOL0     C25558   5.118   4.719   1.332 -1.3858 -0.0277 -0.4052
  190MOL0    Cl25559   5.002   4.848   1.288  0.5999 -0.2534 -0.3824
  190MOL0     C25560   4.418   4.764   1.672 -0.0319 -0.3791  0.2077
  190MOL0     C25561   4.304   4.837   1.627  0.7969  0.0615  0.8834
  190MOL0     O25562   3.981   4.809   1.693 -1.0118 -0.2264  0.0780
  190MOL0     C25563   3.777   4.939   1.542  0.0321 -0.7587 -0.6482
  190MOL0     C25564   3.692   5.003   1.453 -0.2047  0.0934 -0.2565
  190MOL0     N25565   3.283   4.877   1.336 -0.5152 -0.7090  0.4618
  190MOL0     N25566   3.294   4.771   1.417  0.2377  0.1373  0.3079
  190MOL0     C25567   4.008   4.099   1.787 -0.1923  0.2514 -1.0260
  190MOL0     C25568   4.101   4.001   1.747  0.3377  0.0612 -0.8782
  190MOL0     C25569   4.311   3.682   1.478 -0.4718 -0.1498  0.1276
  190MOL0     C25570   4.308   3.602   1.598 -0.0016  1.1814 -0.5560
  190MOL0     C25571   4.329   3.463   1.582 -0.2017  0.2933  0.1058
  190MOL0     C25572   4.358   3.404   1.454  0.5319 -0.3053  0.4937
  190MOL0     O25573   4.376   3.266   1.451 -0.4334  0.5652 -0.5338
  190MOL0     C25574   4.485   3.226   1.530  0.6893 -0.2318  0.1114
  190MOL0     C25575   4.535   3.095   1.478  0.1082  0.0625 -0.2107
  190MOL0     C25576   4.441   2.991   1.541  0.0251 -1.7888  0.9389
  190MOL0     C25577   4.482   2.846   1.525 -0.5057  0.1308  0.2207
  190MOL0     C25578   4.629   2.844   1.556  0.7457  0.5162  0.5447
  190MOL0     C25579   4.740   2.817   1.600  0.1990 -0.1438  0.0958
  190MOL0     C25580   4.360   3.492   1.346  0.4855  0.7362  0.1629
  190MOL0     C25581   4.352   3.628   1.349 -0.1328 -0.6793 -0.3064
  190MOL0     C25582   4.389   3.710   1.228 -0.6166  0.0801  0.1955
  190MOL0     H25583   4.157   4.104   1.434 -3.0755  1.8776 -0.4999
  190MOL0     H25584   4.014   4.272   1.491 -0.5202  4.3483  4.5959
  190MOL0     H25585   3.968   4.442   1.611 -0.1591 -0.3730 -0.3521
  190MOL0     H25586   3.810   4.394   1.563 -1.8953 -2.2054  2.2764
  190MOL0     H25587   3.798   4.603   1.660 -1.7543  2.6984  3.0854
  190MOL0     H25588   3.870   4.560   1.805 -0.4385  1.1819 -0.9032
  190MOL0     H25589   3.666   4.407   1.865  3.2162  1.4850  3.1427
  190MOL0     H25590   3.605   4.475   1.705  1.1112 -1.5080  0.5783
  190MOL0     H25591   3.683   4.597   1.966  1.1092  1.0849 -1.6850
  190MOL0     H25592   3.644   4.701   1.825  3.3599  0.0671 -1.1281
  190MOL0     H25593   3.409   4.538   1.856  0.5739  0.5342 -0.9021
  190MOL0     H25594   3.475   4.575   2.025 -2.0316  1.1027  1.0678
  190MOL0     H25595   3.295   4.734   1.955 -0.2208 -1.9962 -0.8055
  190MOL0     H25596   3.447   4.811   1.974  0.3749  0.0071  0.5233
  190MOL0     H25597   3.492   4.791   1.736  1.2218 -1.1506  3.4881
  190MOL0     H25598   3.367   4.917   1.778  0.4515  0.3618  0.0952
  190MOL0     H25599   3.323   4.643   1.640 -0.9964 -0.4458  1.1352
  190MOL0     H25600   3.192   4.761   1.701  1.3133  1.9279 -0.3594
  190MOL0     H25601   3.198   5.001   1.630  1.3775 -0.5155  1.6006
  190MOL0     H25602   3.230   5.099   1.242 -0.4427  3.8715  0.4154
  190MOL0     H25603   3.099   5.149   1.360 -0.2344  4.0658  1.8126
  190MOL0     H25604   3.277   5.323   1.335 -1.3644 -1.7691 -0.1341
  190MOL0     H25605   3.239   5.273   1.505  1.3814 -1.3229  1.9883
  190MOL0     H25606   3.436   5.135   1.497 -1.6978 -1.3922 -1.3390
  190MOL0     H25607   3.470   5.300   1.500  0.0162 -3.2752  1.2355
  190MOL0     H25608   3.483   5.283   1.218  0.0456 -0.6148 -0.5401
  190MOL0     H25609   3.475   5.110   1.246  0.9980 -2.1477  4.6799
  190MOL0     H25610   3.863   5.279   1.376  3.3528  2.2502  3.0806
  190MOL0     H25611   4.036   5.164   1.497 -0.6056  0.0412  0.3792
  190MOL0     H25612   4.246   5.027   1.893 -2.7673 -1.1155 -2.9876
  190MOL0     H25613   4.463   4.909   1.969 -1.0475  0.1825  0.5317
  190MOL0     H25614   4.686   4.849   1.953  1.0497 -0.7175 -1.4756
  190MOL0     H25615   4.611   4.703   2.028 -1.9838  0.8617 -0.3531
  190MOL0     H25616   4.843   4.660   2.036  1.0141  0.4394 -0.4915
  190MOL0     H25617   4.772   4.567   1.910  0.1268 -0.1074 -1.9439
  190MOL0     H25618   4.846   4.771   1.762  0.3739  1.6806  1.2717
  190MOL0     H25619   4.954   4.812   1.897 -0.6048  1.6443 -1.6931
  190MOL0     H25620   4.964   4.534   1.804  0.0690  0.0411  1.0344
  190MOL0     H25621   5.062   4.615   1.918  0.5368 -2.7827 -0.3714
  190MOL0     H25622   5.173   4.595   1.718 -0.7634  0.2271  0.1810
  190MOL0     H25623   5.142   4.770   1.725  0.1183  0.2102 -1.8621
  190MOL0     H25624   4.992   4.582   1.550  0.6030 -1.6695  2.3464
  190MOL0     H25625   4.968   4.759   1.565  3.0560  1.2419 -1.2052
  190MOL0     H25626   5.252   4.656   1.503 -0.2123 -1.0683 -1.2805
  190MOL0     H25627   5.200   4.818   1.517  1.8169  0.8801  0.0447
  190MOL0     H25628   5.208   4.714   1.271 -0.8199 -1.1409  0.4901
  190MOL0     H25629   5.066   4.626   1.309  1.5048 -1.6084 -0.9257
  190MOL0     H25630   4.465   4.688   1.610 -1.5138 -0.3816 -0.9702
  190MOL0     H25631   4.272   4.819   1.525  0.1970 -1.4486  1.2994
  190MOL0     H25632   3.734   4.848   1.583  1.1169 -0.2868  1.6589
  190MOL0     H25633   3.590   4.969   1.446  0.3095 -2.9207  3.5080
  190MOL0     H25634   3.977   4.110   1.890  0.2964  0.3088 -0.8825
  190MOL0     H25635   4.135   3.922   1.814  0.3950 -1.1374 -2.2433
  190MOL0     H25636   4.289   3.643   1.697  1.6959 -0.0081  0.3025
  190MOL0     H25637   4.329   3.399   1.669 -2.5004 -0.6919 -0.5299
  190MOL0     H25638   4.476   3.218   1.639  0.7982 -1.6491  0.0323
  190MOL0     H25639   4.567   3.297   1.512  1.1593 -0.7800  0.0469
  190MOL0     H25640   4.637   3.077   1.513  0.4580  1.0659 -0.6732
  190MOL0     H25641   4.540   3.094   1.368 -0.9959  0.6527 -0.2807
  190MOL0     H25642   4.342   2.995   1.494  0.0604 -5.0073  0.3831
  190MOL0     H25643   4.419   3.018   1.644 -1.3789  2.7770 -0.3007
  190MOL0     H25644   4.419   2.790   1.595 -1.3951  0.3112 -0.4093
  190MOL0     H25645   4.455   2.823   1.421 -1.2071  1.4261  0.0936
  190MOL0     H25646   4.839   2.809   1.641 -0.5489  1.7628  2.5427
  190MOL0     H25647   4.379   3.454   1.246 -0.3245  1.4785 -0.2892
  190MOL0     H25648   4.452   3.648   1.164 -0.0015  2.9724 -2.2269
  190MOL0     H25649   4.303   3.744   1.169  0.7793  0.6334 -1.5931
  190MOL0     H25650   4.437   3.807   1.245  1.9077 -0.7592 -1.6421
  191MOL0     O25651   7.572   6.249   9.598 -0.5723  0.0550  0.7805
  191MOL0     C25652   7.511   6.255   9.490  0.5304  0.1259  0.1726
  191MOL0     O25653   7.419   6.169   9.440 -0.5932 -0.4694 -0.0156
  191MOL0     C25654   7.371   6.080   9.529 -0.1294 -0.5865 -0.3441
  191MOL0     C25655   7.236   6.097   9.572  0.1660 -0.8509 -0.4375
  191MOL0     C25656   7.174   6.001   9.657 -0.3926  0.1438  0.0304
  191MOL0     C25657   7.243   5.889   9.692 -0.6227 -0.0214 -0.0181
  191MOL0     O25658   7.176   5.785   9.751  0.2061  0.1523 -0.7575
  191MOL0     C25659   7.257   5.674   9.805 -0.7226 -0.2513  0.3359
  191MOL0     C25660   7.176   5.601   9.911  0.4814  0.4365 -0.0042
  191MOL0     C25661   7.242   5.573  10.047 -1.0811  0.8418  0.9141
  191MOL0     C25662   7.159   5.474  10.138  0.3229  0.0343  0.9090
  191MOL0     C25663   7.226   5.456  10.281 -0.1877 -0.5421  0.2363
  191MOL0     C25664   7.349   5.363  10.282 -0.1857  0.2756  0.0437
  191MOL0     C25665   7.334   5.231  10.198 -0.3206 -0.0378  0.0400
  191MOL0     C25666   7.453   5.136  10.221  0.5070 -0.5007  0.3264
  191MOL0     N25667   7.459   5.034  10.113  0.4723 -0.6426  0.1719
  191MOL0     C25668   7.365   4.935  10.106 -0.5819 -0.1981  0.6585
  191MOL0     C25669   7.410   4.870   9.993  0.2466  0.5789  0.5501
  191MOL0     C25670   7.355   4.751   9.918 -0.2161  1.4550  0.4892
  191MOL0     C25671   7.462   4.645   9.866 -0.4883 -0.2091  0.2414
  191MOL0     C25672   7.390   4.553   9.770  0.0498  0.3594  0.2193
  191MOL0     C25673   7.471   4.437   9.708 -0.1168  0.5532  0.7592
  191MOL0     O25674   7.381   4.374   9.615 -0.0732  0.0413  0.3156
  191MOL0     C25675   7.381   4.234   9.596  0.0007 -0.0283  0.0518
  191MOL0     C25676   7.312   4.195   9.483  0.6346 -0.5766  0.3084
  191MOL0     C25677   7.309   4.064   9.422 -0.1533 -0.6817  0.3973
  191MOL0     C25678   7.396   3.971   9.486 -0.3519  0.2916  0.5165
  191MOL0     C25679   7.403   3.840   9.434 -0.4430  0.0251  0.0067
  191MOL0     O25680   7.351   3.803   9.310  0.0937  0.0469 -0.2255
  191MOL0     C25681   7.304   3.671   9.303  1.1823 -0.2724 -0.4015
  191MOL0     C25682   7.304   3.607   9.181  0.7882  0.9472  0.5778
  191MOL0     C25683   7.232   3.484   9.169 -0.2111 -0.2774  0.0788
  191MOL0     C25684   7.184   3.409   9.277 -0.1690  0.1007  0.9559
  191MOL0     O25685   7.129   3.291   9.233  0.7091 -0.6575 -0.5026
  191MOL0     C25686   7.066   3.218   9.339  0.0780  0.0128 -0.4826
  191MOL0     C25687   6.994   3.097   9.266 -0.6596  0.1708  0.1021
  191MOL0     C25688   6.853   3.131   9.204  0.8731 -0.2078 -0.4447
  191MOL0     C25689   6.787   3.005   9.154  0.4030  0.0703  0.1090
  191MOL0     C25690   6.668   3.049   9.064  0.3028  0.1744 -0.1117
  191MOL0     C25691   6.611   2.927   8.987  0.5270 -0.0823  0.4998
  191MOL0     C25692   6.462   2.926   8.995  1.2814  0.9686  0.8805
  191MOL0     C25693   6.404   2.781   8.960 -0.5571  0.2530 -0.1241
  191MOL0    Cl25694   6.436   2.728   8.791  0.1996  0.2875  0.2590
  191MOL0     C25695   7.190   3.469   9.392  0.4936  0.4083 -1.1491
  191MOL0     C25696   7.251   3.590   9.409  0.0873 -0.1073  0.1592
  191MOL0     O25697   7.467   3.763   9.504 -0.2458 -0.2463 -0.0814
  191MOL0     C25698   7.455   4.008   9.607 -0.0932 -0.0281  0.6981
  191MOL0     C25699   7.452   4.132   9.665  0.4655 -1.5116  0.1383
  191MOL0     N25700   7.520   4.937   9.943 -0.5497 -1.0334 -0.1919
  191MOL0     N25701   7.544   5.036  10.018  0.0691  0.6883  0.7700
  191MOL0     C25702   7.377   5.878   9.661 -1.0590 -0.5728 -0.1098
  191MOL0     C25703   7.441   5.970   9.572  0.3286 -0.0921 -1.0002
  191MOL0     C25704   7.546   6.362   9.395 -0.4004 -0.1811 -0.7009
  191MOL0     C25705   7.436   6.439   9.350  0.2098 -0.8139  0.3649
  191MOL0     C25706   7.458   6.555   9.281  0.3529  0.7767  0.0319
  191MOL0     C25707   7.585   6.588   9.235 -1.2622 -0.5902  0.6332
  191MOL0     O25708   7.629   6.697   9.157  0.2475 -0.6059  0.3686
  191MOL0     C25709   7.533   6.802   9.146 -0.0135  0.4893  0.6822
  191MOL0     C25710   7.571   6.914   9.049 -1.2177 -0.0923 -0.1792
  191MOL0     C25711   7.487   7.044   9.065 -0.5816 -0.2645  0.1116
  191MOL0     C25712   7.359   7.052   8.985  0.1454 -0.3221 -0.1936
  191MOL0     C25713   7.242   6.967   9.026 -0.4913 -0.4961 -0.5114
  191MOL0     C25714   7.151   6.899   9.054 -0.0992  0.5782 -0.1187
  191MOL0     C25715   7.690   6.507   9.267 -0.5299  0.4558 -0.3601
  191MOL0     C25716   7.675   6.390   9.347  0.1436 -0.4225  0.0354
  191MOL0     C25717   7.794   6.295   9.372 -0.7642  0.0555 -1.1133
  191MOL0     H25718   7.174   6.176   9.530  0.3233 -0.6471 -0.2909
  191MOL0     H25719   7.067   5.998   9.672 -0.4801  1.8829 -0.0398
  191MOL0     H25720   7.302   5.612   9.727 -1.6108 -0.6880  0.1635
  191MOL0     H25721   7.344   5.705   9.865 -2.1774 -0.6706  2.8268
  191MOL0     H25722   7.157   5.504   9.864  2.7335  1.6613 -3.9095
  191MOL0     H25723   7.078   5.647   9.925 -1.1250 -2.0067 -2.1858
  191MOL0     H25724   7.253   5.666  10.104 -0.7497  0.7072  1.0749
  191MOL0     H25725   7.343   5.535  10.028 -1.0596  2.4646 -3.2984
  191MOL0     H25726   7.057   5.513  10.149  0.8003  1.4406  0.6120
  191MOL0     H25727   7.143   5.388  10.073 -3.6634  1.8958 -0.9512
  191MOL0     H25728   7.267   5.550  10.320 -2.1000 -0.8651  3.3630
  191MOL0     H25729   7.150   5.422  10.352  3.6321  0.9311  5.7531
  191MOL0     H25730   7.435   5.421  10.247  0.3834 -0.7834 -0.3276
  191MOL0     H25731   7.360   5.338  10.388 -3.5291 -0.4343  0.3399
  191MOL0     H25732   7.332   5.249  10.090 -0.2330 -0.3211 -0.0085
  191MOL0     H25733   7.240   5.190  10.236 -0.3178  0.8571  1.0708
  191MOL0     H25734   7.545   5.196  10.220  0.5331 -0.4987  1.3869
  191MOL0     H25735   7.448   5.089  10.320  0.4029 -1.1516  0.0133
  191MOL0     H25736   7.289   4.889  10.169 -0.8923 -3.9017 -2.0757
  191MOL0     H25737   7.281   4.692   9.973 -1.4406  1.9042 -0.6248
  191MOL0     H25738   7.298   4.802   9.840 -0.7774 -0.9699 -0.7639
  191MOL0     H25739   7.542   4.696   9.811  2.7844 -2.2540  2.6731
  191MOL0     H25740   7.506   4.593   9.952 -1.9160  0.1423  1.2267
  191MOL0     H25741   7.340   4.612   9.693  0.2914  0.3598  0.0595
  191MOL0     H25742   7.302   4.511   9.819  0.0165  2.9114  2.6073
  191MOL0     H25743   7.505   4.366   9.784 -0.3339 -3.1371 -2.3246
  191MOL0     H25744   7.568   4.470   9.670 -0.6416  0.0153 -1.1732
  191MOL0     H25745   7.263   4.279   9.435  1.4772 -0.1387  0.1944
  191MOL0     H25746   7.244   4.034   9.341  2.4224 -1.4325 -1.4972
  191MOL0     H25747   7.313   3.662   9.088 -1.3695 -0.6233 -0.6430
  191MOL0     H25748   7.228   3.435   9.072  2.0764 -4.0654  1.6699
  191MOL0     H25749   7.138   3.186   9.414  2.6305  2.8375 -1.5070
  191MOL0     H25750   6.997   3.286   9.390 -0.3298  1.0426 -2.2856
  191MOL0     H25751   7.062   3.054   9.192  2.2362 -2.0941  3.7253
  191MOL0     H25752   6.987   3.004   9.324 -0.2047 -1.5839 -2.4770
  191MOL0     H25753   6.787   3.174   9.280  1.9757  0.1059  0.3749
  191MOL0     H25754   6.887   3.201   9.127  0.2827 -1.9661 -2.4035
  191MOL0     H25755   6.761   2.928   9.227  2.5743 -0.4385  0.4184
  191MOL0     H25756   6.866   2.949   9.103  1.9126  1.6199  0.6393
  191MOL0     H25757   6.681   3.133   8.996 -2.7179  2.4311  1.8241
  191MOL0     H25758   6.607   3.097   9.141  1.6710  1.4299  0.2270
  191MOL0     H25759   6.645   2.924   8.884  1.2424  1.1256  0.6827
  191MOL0     H25760   6.657   2.837   9.028 -0.1119 -0.7292 -0.1764
  191MOL0     H25761   6.423   2.995   8.920 -0.0115 -2.4853 -1.8434
  191MOL0     H25762   6.417   2.957   9.090  0.5252 -1.8286  1.5252
  191MOL0     H25763   6.455   2.707   9.021  0.3609  0.2056 -0.9203
  191MOL0     H25764   6.295   2.780   8.962 -0.8105  2.6911 -3.4056
  191MOL0     H25765   7.172   3.414   9.484 -0.3072  1.6469 -0.5399
  191MOL0     H25766   7.243   3.622   9.513  2.3717 -0.7732  0.5976
  191MOL0     H25767   7.511   3.933   9.663  1.0886  0.7752  0.6185
  191MOL0     H25768   7.505   4.157   9.756 -1.5109 -1.4422  1.3377
  191MOL0     H25769   7.434   5.791   9.690 -0.3038 -0.7899 -2.0888
  191MOL0     H25770   7.544   5.956   9.541  0.3278 -3.2645  0.0736
  191MOL0     H25771   7.339   6.406   9.386  0.1642 -1.3882 -0.2740
  191MOL0     H25772   7.367   6.611   9.260 -2.3452 -2.4187  2.1303
  191MOL0     H25773   7.537   6.839   9.248 -0.7262  0.3309  0.7706
  191MOL0     H25774   7.434   6.761   9.126  0.1896 -0.1264  0.9445
  191MOL0     H25775   7.571   6.879   8.945 -3.9064 -1.3669  0.1516
  191MOL0     H25776   7.679   6.929   9.057 -0.7318 -3.6320  2.0467
  191MOL0     H25777   7.548   7.133   9.049 -0.1084 -0.0189  2.8234
  191MOL0     H25778   7.459   7.058   9.170 -1.7768  1.1530 -0.3590
  191MOL0     H25779   7.331   7.157   8.985 -0.2547 -0.3761  2.1102
  191MOL0     H25780   7.376   7.019   8.882 -3.3365 -2.5718 -0.2271
  191MOL0     H25781   7.081   6.819   9.064  1.4917 -1.4145 -3.2189
  191MOL0     H25782   7.793   6.529   9.240 -0.5024 -0.9216 -1.4730
  191MOL0     H25783   7.856   6.302   9.283 -0.9227 -1.3301 -1.3470
  191MOL0     H25784   7.845   6.325   9.465 -0.7276  0.0283 -1.1248
  191MOL0     H25785   7.760   6.192   9.385  0.1541 -0.8225 -4.5539
  192MOL0     O25786   5.526   6.127   8.029  0.5997 -0.1954 -0.1496
  192MOL0     C25787   5.474   6.037   7.970  0.0601 -0.3725 -0.6194
  192MOL0     O25788   5.463   6.017   7.833  0.6402  0.0749 -0.9468
  192MOL0     C25789   5.532   6.090   7.742 -0.2010 -0.6515 -0.0579
  192MOL0     C25790   5.570   6.225   7.743 -1.0729 -0.4980  0.2361
  192MOL0     C25791   5.626   6.279   7.626  0.2683  0.3781  0.3270
  192MOL0     C25792   5.649   6.200   7.509  0.2365  0.6240 -0.7046
  192MOL0     O25793   5.730   6.242   7.402  1.0574 -0.6900  0.0165
  192MOL0     C25794   5.774   6.384   7.409 -0.9370 -0.6440 -0.3183
  192MOL0     C25795   5.859   6.384   7.285  0.1652  0.2907 -0.4321
  192MOL0     C25796   5.995   6.329   7.299 -0.2779 -0.6782 -0.4122
  192MOL0     C25797   6.094   6.356   7.188 -0.8378 -0.0922  0.0798
  192MOL0     C25798   6.239   6.329   7.224 -0.0110 -0.0055 -0.1227
  192MOL0     C25799   6.337   6.378   7.123 -0.5342  0.3489  0.2090
  192MOL0     C25800   6.401   6.511   7.162 -0.0000  0.9558  0.5258
  192MOL0     C25801   6.526   6.537   7.071 -0.3077  0.9098  0.2654
  192MOL0     N25802   6.630   6.421   7.069  1.7156  0.1717 -0.4733
  192MOL0     C25803   6.730   6.402   7.162  0.3506 -0.0211 -0.7201
  192MOL0     C25804   6.803   6.298   7.121 -0.5884 -0.0518 -1.0002
  192MOL0     C25805   6.899   6.218   7.209 -0.2006  0.2074 -0.1832
  192MOL0     C25806   7.048   6.219   7.156  0.4773  0.1149 -0.8654
  192MOL0     C25807   7.152   6.273   7.259 -0.4985  0.1507 -0.4626
  192MOL0     C25808   7.297   6.255   7.214 -0.3473 -0.7428  0.3248
  192MOL0     O25809   7.386   6.299   7.320 -0.3202 -0.1098  0.0184
  192MOL0     C25810   7.513   6.342   7.288  0.5267  0.0368  0.7031
  192MOL0     C25811   7.557   6.391   7.164  0.1606  0.0678 -0.8546
  192MOL0     C25812   7.685   6.430   7.147  0.3718 -0.7966  0.1783
  192MOL0     C25813   7.779   6.421   7.254 -0.1526  0.4558  0.4751
  192MOL0     C25814   7.922   6.443   7.236  0.1723  0.0211  0.0897
  192MOL0     O25815   7.957   6.478   7.114  0.6175 -0.2579 -0.4993
  192MOL0     C25816   8.066   6.564   7.090 -0.0109  0.9334  0.3469
  192MOL0     C25817   8.129   6.633   7.184  0.2578 -1.0541  0.4847
  192MOL0     C25818   8.225   6.725   7.144  0.1693 -0.8055  0.9761
  192MOL0     C25819   8.259   6.732   7.004  0.0554 -0.3081 -0.7964
  192MOL0     O25820   8.353   6.819   6.946  0.1016  0.3537  0.4286
  192MOL0     C25821   8.474   6.854   7.014  0.3513 -0.2679 -0.4571
  192MOL0     C25822   8.582   6.743   7.013  0.9821 -0.6620 -0.5951
  192MOL0     C25823   8.561   6.623   7.107 -0.3537 -0.2579 -0.8081
  192MOL0     C25824   8.681   6.522   7.090 -0.3896  0.8548 -0.4203
  192MOL0     C25825   8.638   6.375   7.108  0.7350 -0.4011 -0.4290
  192MOL0     C25826   8.610   6.358   7.251 -0.7935  0.5281 -0.8990
  192MOL0     C25827   8.610   6.199   7.275  0.0111 -0.5869 -0.0798
  192MOL0     C25828   8.613   6.143   7.420  0.3324  0.1128 -1.1562
  192MOL0    Cl25829   8.496   6.238   7.527  0.2431 -0.0010  0.3317
  192MOL0     C25830   8.206   6.642   6.918  0.4242 -0.5986  0.3184
  192MOL0     C25831   8.104   6.563   6.965 -0.3174  0.8280  0.6055
  192MOL0     O25832   7.995   6.420   7.334  0.4144  0.1308  0.4082
  192MOL0     C25833   7.729   6.386   7.382  0.1176 -0.6145  0.0327
  192MOL0     C25834   7.596   6.353   7.402  0.1168  0.2003 -0.7446
  192MOL0     N25835   6.754   6.267   6.991 -0.3236 -0.9465  0.2272
  192MOL0     N25836   6.651   6.341   6.967  0.5089  0.6910 -0.5166
  192MOL0     C25837   5.617   6.067   7.511  0.6254  0.7669  0.1654
  192MOL0     C25838   5.554   6.010   7.623 -0.5768 -0.1737 -0.0667
  192MOL0     C25839   5.411   5.930   8.052 -0.3931  1.0439 -0.0301
  192MOL0     C25840   5.317   5.850   7.988  0.1647  0.2594 -0.3436
  192MOL0     C25841   5.248   5.745   8.052  1.2555 -0.2568  1.0214
  192MOL0     C25842   5.264   5.734   8.184 -0.5180 -0.0554  0.6754
  192MOL0     O25843   5.191   5.635   8.250  0.5380  0.8416  0.1675
  192MOL0     C25844   5.165   5.641   8.392  0.7586 -0.4648  1.4826
  192MOL0     C25845   5.023   5.605   8.414 -0.5942 -0.2120  0.8523
  192MOL0     C25846   5.001   5.615   8.561 -0.2626  0.6922  0.1221
  192MOL0     C25847   4.846   5.592   8.559 -0.4602 -0.1957 -0.2100
  192MOL0     C25848   4.806   5.608   8.703 -0.2805  1.1594  1.1234
  192MOL0     C25849   4.797   5.622   8.819  0.5579  0.0961 -0.4288
  192MOL0     C25850   5.351   5.803   8.259 -0.7266  0.1969  0.3466
  192MOL0     C25851   5.431   5.905   8.196 -0.0250  0.3902 -0.1491
  192MOL0     C25852   5.538   5.974   8.290  0.7122 -0.4847 -0.7438
  192MOL0     H25853   5.557   6.282   7.834 -0.8175 -1.2844  0.7790
  192MOL0     H25854   5.649   6.385   7.629 -2.0733  0.9345  1.2742
  192MOL0     H25855   5.695   6.459   7.405  0.1454  0.4805 -2.3867
  192MOL0     H25856   5.829   6.392   7.503  0.0969  2.4550 -1.0906
  192MOL0     H25857   5.856   6.492   7.266 -2.7233  0.2821 -0.4396
  192MOL0     H25858   5.813   6.330   7.202  2.5673 -1.7742 -0.5041
  192MOL0     H25859   5.985   6.222   7.319  0.6688 -0.7604 -0.3259
  192MOL0     H25860   6.041   6.373   7.387 -4.2616 -0.6329  1.8747
  192MOL0     H25861   6.053   6.293   7.109  1.8082 -0.9913 -0.6869
  192MOL0     H25862   6.082   6.458   7.148 -0.9640 -1.3109 -3.2994
  192MOL0     H25863   6.255   6.369   7.325 -3.9002 -1.9392  1.5143
  192MOL0     H25864   6.243   6.221   7.245 -0.0598 -0.3277 -1.6376
  192MOL0     H25865   6.412   6.300   7.106 -2.5645 -1.2417 -2.1267
  192MOL0     H25866   6.299   6.401   7.023 -0.3535  1.8241  0.4613
  192MOL0     H25867   6.417   6.511   7.270  0.3774 -0.8921  0.5002
  192MOL0     H25868   6.335   6.596   7.141 -3.6896 -1.4309  1.4926
  192MOL0     H25869   6.504   6.570   6.969  2.2399 -0.9960 -0.9916
  192MOL0     H25870   6.576   6.625   7.111 -0.6031  1.5676 -0.7834
  192MOL0     H25871   6.723   6.442   7.262  0.4068  0.9980 -1.1187
  192MOL0     H25872   6.903   6.267   7.307 -1.9225 -0.9403  0.5036
  192MOL0     H25873   6.872   6.113   7.227  1.4103  0.2830  3.6289
  192MOL0     H25874   7.080   6.115   7.145  0.4629 -0.3381  2.4153
  192MOL0     H25875   7.043   6.273   7.061  5.2355  2.4296 -0.1193
  192MOL0     H25876   7.141   6.212   7.349 -1.5210  0.8209 -0.1112
  192MOL0     H25877   7.129   6.378   7.282  1.4252  0.2706  1.1880
  192MOL0     H25878   7.320   6.308   7.122  0.3948  0.8149  1.3705
  192MOL0     H25879   7.312   6.152   7.179 -2.3180 -1.1308  0.4739
  192MOL0     H25880   7.500   6.401   7.073  2.0581  1.2830 -1.9839
  192MOL0     H25881   7.709   6.462   7.046 -2.0970  1.6980  0.2600
  192MOL0     H25882   8.106   6.626   7.290  1.7889  0.7900  1.0055
  192MOL0     H25883   8.285   6.800   7.195  1.0284  1.9103 -3.4010
  192MOL0     H25884   8.517   6.936   6.956 -0.6381  0.5113 -0.1245
  192MOL0     H25885   8.454   6.907   7.108  0.8595  0.0462 -0.5206
  192MOL0     H25886   8.585   6.707   6.909 -0.1597 -2.0758 -0.1693
  192MOL0     H25887   8.675   6.794   7.039 -0.5818  3.3885 -2.1129
  192MOL0     H25888   8.569   6.652   7.212 -1.5129  0.6133 -0.9450
  192MOL0     H25889   8.478   6.556   7.083  0.2375 -0.8415 -1.2788
  192MOL0     H25890   8.774   6.544   7.142 -0.9532 -0.0031  1.0187
  192MOL0     H25891   8.714   6.527   6.986 -0.9638 -0.8634 -0.7201
  192MOL0     H25892   8.717   6.309   7.070 -1.1824 -3.3951  0.4317
  192MOL0     H25893   8.555   6.353   7.041 -0.3153  1.7188  0.1060
  192MOL0     H25894   8.687   6.399   7.317 -1.6944  0.8126 -0.0132
  192MOL0     H25895   8.507   6.381   7.279 -1.0194 -2.5425  1.3255
  192MOL0     H25896   8.704   6.159   7.236  0.9803 -1.1116  2.6271
  192MOL0     H25897   8.520   6.167   7.221 -3.1377  3.8436  1.9216
  192MOL0     H25898   8.603   6.034   7.422  1.9035 -0.0989  2.0852
  192MOL0     H25899   8.709   6.177   7.460 -1.5336  1.5961  2.5780
  192MOL0     H25900   8.239   6.643   6.814  3.2356  0.1967  1.1616
  192MOL0     H25901   8.063   6.481   6.907 -1.6217  2.7511 -1.3736
  192MOL0     H25902   7.796   6.393   7.466 -2.3935  1.3216  2.0522
  192MOL0     H25903   7.551   6.328   7.497 -0.4158  0.6728 -0.8690
  192MOL0     H25904   5.632   6.013   7.418 -0.6562  0.5463  0.0575
  192MOL0     H25905   5.494   5.920   7.618 -0.4402 -0.3238  0.8665
  192MOL0     H25906   5.296   5.867   7.883  3.4422  1.4177 -0.9245
  192MOL0     H25907   5.192   5.676   7.990  2.7205  1.1062 -2.0175
  192MOL0     H25908   5.177   5.738   8.443  0.3747  0.1997  0.3439
  192MOL0     H25909   5.233   5.571   8.440  0.6022 -1.8697 -0.2536
  192MOL0     H25910   4.998   5.509   8.369 -2.3972  1.1934 -1.4008
  192MOL0     H25911   4.965   5.683   8.365  0.4225  1.3285  1.9903
  192MOL0     H25912   5.020   5.709   8.613 -3.0796  0.9486  0.8394
  192MOL0     H25913   5.061   5.540   8.612 -0.2521  0.0098 -0.8572
  192MOL0     H25914   4.799   5.660   8.488 -0.3161  0.8207  0.6420
  192MOL0     H25915   4.813   5.498   8.514 -4.4228  1.0705 -0.3004
  192MOL0     H25916   4.796   5.627   8.926 -2.9411 -3.5045 -0.0830
  192MOL0     H25917   5.359   5.795   8.367  1.2935  4.7244  0.7839
  192MOL0     H25918   5.505   6.069   8.332  1.0998  1.0766 -3.7043
  192MOL0     H25919   5.562   5.909   8.374  2.3586 -1.2760 -1.7675
  192MOL0     H25920   5.631   5.983   8.232  0.4114 -0.6153 -1.2586
  193MOL0     O25921   6.035  10.037   5.439 -0.0392 -0.4372  0.0576
  193MOL0     C25922   5.982  10.116   5.527 -0.4066  0.6447  0.5887
  193MOL0     O25923   5.934  10.070   5.645  0.3921  0.4457  0.8559
  193MOL0     C25924   5.924   9.938   5.677 -0.0824  1.0531 -0.2887
  193MOL0     C25925   5.889   9.831   5.590 -0.9927  0.4737 -1.2396
  193MOL0     C25926   5.879   9.702   5.633  0.0932  0.0178  0.0368
  193MOL0     C25927   5.905   9.661   5.768  0.4750 -0.8925 -0.9449
  193MOL0     O25928   5.904   9.531   5.804 -0.6109  0.0429 -0.0366
  193MOL0     C25929   5.863   9.500   5.934 -0.0944  0.3464  0.0785
  193MOL0     C25930   5.798   9.363   5.933  0.6466 -1.3484 -1.1240
  193MOL0     C25931   5.791   9.308   6.073  0.2703  0.1848  0.3717
  193MOL0     C25932   5.713   9.384   6.182 -1.4075 -0.2604  0.5554
  193MOL0     C25933   5.700   9.312   6.322 -0.2601 -0.6660 -0.0430
  193MOL0     C25934   5.664   9.160   6.321 -0.8313  0.3272  0.6985
  193MOL0     C25935   5.659   9.098   6.462  0.0662  0.2145  0.0164
  193MOL0     C25936   5.657   8.942   6.465  0.5239 -1.4623  0.3386
  193MOL0     N25937   5.783   8.882   6.422  0.6034 -0.4445 -1.2531
  193MOL0     C25938   5.791   8.796   6.312 -0.7532  1.0881  0.7037
  193MOL0     C25939   5.918   8.740   6.322  0.8294 -0.2516  1.1872
  193MOL0     C25940   5.975   8.658   6.214 -0.1025 -0.0916  0.5847
  193MOL0     C25941   5.877   8.585   6.113 -0.3029 -0.9068 -0.6019
  193MOL0     C25942   5.960   8.496   6.023 -0.6978  0.1236  0.2355
  193MOL0     C25943   5.883   8.423   5.916  0.4563  0.4969 -0.1023
  193MOL0     O25944   5.860   8.297   5.983  0.5784  0.3714  0.3557
  193MOL0     C25945   5.740   8.231   5.983  0.7462 -0.4166 -0.1862
  193MOL0     C25946   5.725   8.113   6.056  0.3524 -0.3188  0.3492
  193MOL0     C25947   5.594   8.045   6.063 -1.0675  0.2651 -0.0887
  193MOL0     C25948   5.480   8.090   5.995 -0.6468 -0.1553 -0.0994
  193MOL0     C25949   5.370   8.005   5.974  0.0464  0.4079 -0.1819
  193MOL0     O25950   5.257   8.073   5.957 -0.3250 -0.2030 -1.0367
  193MOL0     C25951   5.137   8.008   5.955 -0.8518  0.1868  0.3057
  193MOL0     C25952   5.059   8.023   5.836 -0.7570  0.2973  0.0685
  193MOL0     C25953   4.925   7.983   5.827  0.2862  0.0490 -0.3452
  193MOL0     C25954   4.871   7.914   5.936  0.3146  0.1649  0.5002
  193MOL0     O25955   4.743   7.864   5.915 -0.0261  0.3703  0.2483
  193MOL0     C25956   4.672   7.819   6.030 -0.3079 -0.0891  0.0619
  193MOL0     C25957   4.526   7.793   5.980 -0.1231 -0.6183 -0.1685
  193MOL0     C25958   4.429   7.759   6.087  0.3094  0.3060  1.2116
  193MOL0     C25959   4.279   7.760   6.046  0.5543 -0.0832  1.0223
  193MOL0     C25960   4.192   7.727   6.170 -0.2816 -0.3256  0.6964
  193MOL0     C25961   4.168   7.850   6.251  0.3066 -1.1241 -0.3225
  193MOL0     C25962   4.131   7.824   6.396 -0.4339  0.3935 -0.8822
  193MOL0     C25963   4.191   7.931   6.499 -0.7269  0.0345  0.3760
  193MOL0    Cl25964   4.181   7.869   6.670  0.2348  0.0332  0.2615
  193MOL0     C25965   4.939   7.913   6.061 -0.8859  0.0305  0.6498
  193MOL0     C25966   5.071   7.947   6.066 -0.7777 -0.7743 -0.2439
  193MOL0     O25967   5.384   7.892   5.953 -0.9352 -0.3726 -1.3846
  193MOL0     C25968   5.500   8.218   5.933  0.2734  0.5779 -0.6781
  193MOL0     C25969   5.620   8.284   5.924  0.5479  0.9982 -0.1208
  193MOL0     N25970   5.965   8.787   6.445  0.5671  0.7811  0.0758
  193MOL0     N25971   5.884   8.875   6.505 -0.2146 -0.7072  0.0026
  193MOL0     C25972   5.952   9.769   5.852  0.2187 -0.2891  0.1947
  193MOL0     C25973   5.961   9.897   5.808  0.1284 -0.6123 -0.2167
  193MOL0     C25974   5.970  10.258   5.490 -0.4776  0.2965  1.3112
  193MOL0     C25975   5.842  10.312   5.489  0.1850 -0.1374 -0.3249
  193MOL0     C25976   5.829  10.448   5.474 -0.4678 -0.4746  0.0227
  193MOL0     C25977   5.944  10.534   5.462 -0.4046 -0.2918 -0.2906
  193MOL0     O25978   5.930  10.672   5.452 -0.6333  0.3296  0.2943
  193MOL0     C25979   5.805  10.737   5.480 -0.1782 -0.4280 -0.3665
  193MOL0     C25980   5.799  10.894   5.467 -0.9384 -0.1204  0.5420
  193MOL0     C25981   5.870  10.980   5.571  0.2066  0.0161 -0.5865
  193MOL0     C25982   5.831  11.126   5.588 -0.9425 -0.7279 -0.9767
  193MOL0     C25983   5.707  11.145   5.662 -0.9571  0.1012  0.1362
  193MOL0     C25984   5.601  11.176   5.696  1.0402  0.2842  0.2977
  193MOL0     C25985   6.067  10.481   5.455  0.2604  0.7130  0.1234
  193MOL0     C25986   6.089  10.336   5.468  0.2280 -0.2603  0.3541
  193MOL0     C25987   6.228  10.291   5.461 -0.4731 -0.8209  0.0257
  193MOL0     H25988   5.856   9.861   5.491  1.0728  2.4473 -1.4363
  193MOL0     H25989   5.846   9.632   5.557  1.0180 -0.5863  0.1709
  193MOL0     H25990   5.941   9.510   6.009 -0.2887 -2.5221  0.7556
  193MOL0     H25991   5.781   9.569   5.959 -1.7663 -0.2563 -3.2013
  193MOL0     H25992   5.848   9.299   5.860 -0.4155 -3.9981  0.3312
  193MOL0     H25993   5.693   9.377   5.904 -0.8189 -0.5965  3.6065
  193MOL0     H25994   5.888   9.282   6.116  0.4418  0.0041 -0.1141
  193MOL0     H25995   5.734   9.216   6.057  0.5909 -0.0167  0.3811
  193MOL0     H25996   5.764   9.479   6.201  0.8518 -1.3672  0.2621
  193MOL0     H25997   5.605   9.394   6.166 -1.4110  0.2208  0.8668
  193MOL0     H25998   5.799   9.308   6.369 -0.8184 -0.6369  1.1861
  193MOL0     H25999   5.645   9.360   6.404 -1.1504  0.1589 -1.0975
  193MOL0     H26000   5.571   9.146   6.266 -0.7469  1.3689  0.2575
  193MOL0     H26001   5.747   9.106   6.275  0.3473 -0.7486  3.8046
  193MOL0     H26002   5.572   9.149   6.505  0.0346  0.6102 -0.5010
  193MOL0     H26003   5.746   9.127   6.522 -0.5081  0.9590  0.5201
  193MOL0     H26004   5.635   8.904   6.565 -1.7571  0.1895  0.5335
  193MOL0     H26005   5.577   8.918   6.394  2.2958  2.5369 -3.4561
  193MOL0     H26006   5.721   8.774   6.233  0.6905  2.3563 -1.0165
  193MOL0     H26007   6.041   8.719   6.152 -1.5274  0.9108  0.0016
  193MOL0     H26008   6.047   8.584   6.249  1.9579  1.6650  0.2507
  193MOL0     H26009   5.807   8.528   6.175  2.7646 -2.2874  1.8837
  193MOL0     H26010   5.840   8.677   6.066  0.0280 -0.4983 -0.0720
  193MOL0     H26011   6.017   8.424   6.081  1.1388  1.5997  0.3615
  193MOL0     H26012   6.035   8.551   5.966  0.2290 -0.7532  0.5770
  193MOL0     H26013   5.947   8.404   5.829  0.9901 -2.7062  0.8745
  193MOL0     H26014   5.795   8.477   5.880  0.8602 -0.3348 -2.5193
  193MOL0     H26015   5.813   8.076   6.108  1.9393  3.3896  0.6170
  193MOL0     H26016   5.603   7.952   6.120 -1.7117 -1.7040 -2.9868
  193MOL0     H26017   5.119   8.083   5.768  2.1282 -2.1038  0.2979
  193MOL0     H26018   4.862   7.992   5.739 -0.0068  2.0952  0.0261
  193MOL0     H26019   4.719   7.730   6.071  1.1074  0.2955 -0.6761
  193MOL0     H26020   4.660   7.902   6.100  0.0645 -0.3993  0.4941
  193MOL0     H26021   4.490   7.883   5.929 -1.7453  0.4301  2.5890
  193MOL0     H26022   4.531   7.720   5.899  1.3691 -1.0979  0.3168
  193MOL0     H26023   4.457   7.658   6.118  0.3720 -0.3442 -0.8588
  193MOL0     H26024   4.449   7.834   6.164  0.6963  1.1840  0.2778
  193MOL0     H26025   4.265   7.675   5.978 -0.4770 -0.0130  1.1300
  193MOL0     H26026   4.259   7.859   6.003 -2.6951 -0.0003  2.4159
  193MOL0     H26027   4.234   7.643   6.227 -2.2853 -2.2180 -0.4731
  193MOL0     H26028   4.100   7.686   6.128 -1.4259  0.7797  2.0260
  193MOL0     H26029   4.256   7.914   6.258  0.2231 -1.1852  2.8187
  193MOL0     H26030   4.087   7.907   6.204 -0.7975 -1.5355  1.0069
  193MOL0     H26031   4.178   7.728   6.420  3.1941  1.8803 -1.3389
  193MOL0     H26032   4.024   7.805   6.397 -0.7219  1.9096 -0.7542
  193MOL0     H26033   4.296   7.952   6.481 -0.9817 -0.5477 -2.0091
  193MOL0     H26034   4.136   8.026   6.490 -1.4372 -0.4974 -1.2563
  193MOL0     H26035   4.887   7.876   6.148 -0.3194 -1.1080  0.5166
  193MOL0     H26036   5.113   7.958   6.165 -2.0652  0.7036  0.1913
  193MOL0     H26037   5.426   8.246   5.858  1.8453 -0.4407 -2.7288
  193MOL0     H26038   5.616   8.372   5.862  1.0862 -0.2708 -2.0611
  193MOL0     H26039   5.983   9.748   5.954 -1.1994 -0.1470  0.6697
  193MOL0     H26040   6.005   9.968   5.878 -2.6702  0.1879  0.8613
  193MOL0     H26041   5.754  10.249   5.495  1.3990 -1.9446 -0.7773
  193MOL0     H26042   5.732  10.496   5.478 -0.0344  0.3408  2.2478
  193MOL0     H26043   5.782  10.715   5.584 -0.9888  1.5165 -0.0780
  193MOL0     H26044   5.721  10.704   5.418  0.5591  0.8351 -2.1332
  193MOL0     H26045   5.692  10.917   5.460 -0.7540  0.8789  0.7237
  193MOL0     H26046   5.855  10.902   5.373 -2.7356 -2.8161 -0.8838
  193MOL0     H26047   5.974  10.987   5.541 -0.9500  2.7310 -4.7953
  193MOL0     H26048   5.857  10.915   5.659 -1.9457 -1.2243 -1.7307
  193MOL0     H26049   5.923  11.172   5.627 -1.2680  2.0617 -3.1510
  193MOL0     H26050   5.810  11.186   5.499 -0.1523 -0.8610 -1.2618
  193MOL0     H26051   5.516  11.223   5.743  2.3092 -0.2623  3.4099
  193MOL0     H26052   6.147  10.553   5.443  0.9430  0.9031  4.2337
  193MOL0     H26053   6.292  10.339   5.535 -0.0281 -4.3573  2.1837
  193MOL0     H26054   6.230  10.184   5.487 -1.8939  0.0096  4.4497
  193MOL0     H26055   6.269  10.308   5.361 -3.7020 -3.1436 -1.9018
  194MOL0     O26056   7.860   4.056   8.439 -0.0784  0.2483 -0.5523
  194MOL0     C26057   7.744   4.080   8.475  0.0747 -0.3530  0.2227
  194MOL0     O26058   7.636   3.991   8.477 -0.9329  0.7288 -0.5824
  194MOL0     C26059   7.642   3.869   8.416  1.2526  0.0308  0.0088
  194MOL0     C26060   7.523   3.809   8.380 -0.7326  0.3491  0.0971
  194MOL0     C26061   7.520   3.694   8.299  0.4363  0.6507 -0.3221
  194MOL0     C26062   7.637   3.627   8.271 -0.1720  0.0705 -0.0826
  194MOL0     O26063   7.622   3.526   8.185 -0.3503  0.1062  0.2025
  194MOL0     C26064   7.725   3.453   8.117 -1.3608 -0.1058  0.4176
  194MOL0     C26065   7.757   3.524   7.981 -0.7468 -0.4216 -0.1665
  194MOL0     C26066   7.647   3.517   7.870  0.8567 -0.0199 -0.3818
  194MOL0     C26067   7.540   3.624   7.887  0.2014 -0.8594 -0.2754
  194MOL0     C26068   7.440   3.608   7.766  0.6780 -0.1528  0.0857
  194MOL0     C26069   7.305   3.676   7.789  0.5215 -0.9186  0.0050
  194MOL0     C26070   7.312   3.820   7.842  0.5819 -1.8925  0.8009
  194MOL0     C26071   7.369   3.917   7.736 -0.0069  0.0754 -0.5143
  194MOL0     N26072   7.331   3.895   7.594  0.1092 -0.5247  0.8896
  194MOL0     C26073   7.416   3.898   7.487  0.5354 -0.6067 -0.1542
  194MOL0     C26074   7.338   3.914   7.381 -0.4518 -0.4257  0.0587
  194MOL0     C26075   7.381   3.928   7.235 -0.0255  0.2364 -0.7154
  194MOL0     C26076   7.317   4.055   7.174 -0.7528 -0.3572  0.1414
  194MOL0     C26077   7.395   4.106   7.052  0.1854  0.3978 -0.8783
  194MOL0     C26078   7.404   4.009   6.934  0.1189 -0.8703 -1.0019
  194MOL0     O26079   7.313   4.051   6.826  0.9179  0.2224  0.1992
  194MOL0     C26080   7.315   3.964   6.719 -0.4801 -0.3116  0.5493
  194MOL0     C26081   7.415   3.875   6.688 -0.9592 -0.0196 -0.6170
  194MOL0     C26082   7.414   3.796   6.564 -0.1110  0.4142 -0.5039
  194MOL0     C26083   7.323   3.818   6.463 -0.0005  0.7957 -0.0447
  194MOL0     C26084   7.324   3.737   6.343 -0.8301 -0.1565  0.1145
  194MOL0     O26085   7.421   3.650   6.317  0.0073 -0.2760 -1.0151
  194MOL0     C26086   7.462   3.608   6.191  0.8968  0.3863  0.1911
  194MOL0     C26087   7.440   3.683   6.076  0.2114  0.4581 -0.3227
  194MOL0     C26088   7.477   3.640   5.949  0.1837 -0.9165 -0.2907
  194MOL0     C26089   7.543   3.517   5.933  0.9859 -0.7828 -0.5428
  194MOL0     O26090   7.607   3.459   5.823 -0.2523 -0.2753 -0.5591
  194MOL0     C26091   7.593   3.534   5.704 -0.7777 -0.0614  0.3213
  194MOL0     C26092   7.636   3.453   5.583 -0.1820  0.0781  0.0686
  194MOL0     C26093   7.611   3.521   5.444 -1.9755  0.2387  0.3199
  194MOL0     C26094   7.647   3.425   5.330  1.1386  0.1231  0.4338
  194MOL0     C26095   7.676   3.502   5.197  0.1353  0.4772 -0.1213
  194MOL0     C26096   7.666   3.406   5.079  0.5278  0.0731  0.1670
  194MOL0     C26097   7.720   3.469   4.948  0.1997 -0.1894 -0.1028
  194MOL0     C26098   7.681   3.612   4.915  0.7154  1.1304  0.0747
  194MOL0    Cl26099   7.503   3.623   4.887 -0.1543 -0.0238  0.1043
  194MOL0     C26100   7.554   3.442   6.054 -0.5998 -0.1749  0.5742
  194MOL0     C26101   7.526   3.483   6.185  0.5432 -0.1928  0.0640
  194MOL0     O26102   7.234   3.764   6.263 -0.8101  0.1760 -0.5930
  194MOL0     C26103   7.222   3.916   6.499  0.3887 -0.2753 -0.1002
  194MOL0     C26104   7.218   3.981   6.618  0.0540 -0.5733 -0.2833
  194MOL0     N26105   7.202   3.916   7.424  0.3331  0.0615 -0.7899
  194MOL0     N26106   7.202   3.899   7.549  0.0980  1.0323  0.3712
  194MOL0     C26107   7.762   3.680   8.309  0.8117 -0.2167  0.6762
  194MOL0     C26108   7.759   3.798   8.384 -0.5773 -0.0452  1.2122
  194MOL0     C26109   7.715   4.199   8.556 -0.6145 -0.5211  0.6929
  194MOL0     C26110   7.591   4.210   8.624 -0.2512 -0.1806 -0.4927
  194MOL0     C26111   7.540   4.319   8.687 -0.2817 -0.2664  0.7970
  194MOL0     C26112   7.617   4.444   8.677 -0.8633 -0.2034  0.1884
  194MOL0     O26113   7.569   4.558   8.741  0.1697 -0.0369  0.8655
  194MOL0     C26114   7.577   4.682   8.654  0.2678  0.1860 -0.7218
  194MOL0     C26115   7.534   4.806   8.729 -0.4754  0.2438  0.0442
  194MOL0     C26116   7.397   4.859   8.687 -0.1760  0.3853 -0.0710
  194MOL0     C26117   7.370   5.003   8.734  0.5730 -0.2249  0.2782
  194MOL0     C26118   7.230   5.047   8.705 -0.1054  0.4242 -0.4755
  194MOL0     C26119   7.111   5.066   8.690  0.0016  0.0886  0.9398
  194MOL0     C26120   7.735   4.434   8.602 -0.5825  0.3986  0.7582
  194MOL0     C26121   7.791   4.318   8.553 -0.3644  1.0775 -0.8979
  194MOL0     C26122   7.923   4.326   8.488 -0.6172  0.8054 -0.4015
  194MOL0     H26123   7.430   3.854   8.411 -0.2918  1.6378 -0.3742
  194MOL0     H26124   7.423   3.649   8.278  0.4242  0.0708  0.8968
  194MOL0     H26125   7.812   3.445   8.182 -3.2977 -0.0255  3.1686
  194MOL0     H26126   7.704   3.350   8.089 -0.8170  0.4333 -2.3538
  194MOL0     H26127   7.848   3.472   7.951  0.5326  1.0878  0.8976
  194MOL0     H26128   7.776   3.631   7.996 -4.4915  0.2131  0.9948
  194MOL0     H26129   7.601   3.419   7.862  0.6069  0.1466 -1.1004
  194MOL0     H26130   7.695   3.537   7.773 -2.2857  0.8492 -1.9053
  194MOL0     H26131   7.498   3.616   7.987  4.0241 -3.4412  1.3752
  194MOL0     H26132   7.598   3.716   7.896  0.5177 -1.2104  1.5551
  194MOL0     H26133   7.486   3.632   7.670  0.1740 -2.5126 -0.8273
  194MOL0     H26134   7.420   3.501   7.754 -0.0371  0.2694 -3.3740
  194MOL0     H26135   7.245   3.671   7.697 -1.1213 -1.4010  1.0728
  194MOL0     H26136   7.251   3.614   7.860 -1.0971  0.4647  0.0433
  194MOL0     H26137   7.375   3.839   7.929 -0.7603 -0.5403  1.5375
  194MOL0     H26138   7.211   3.853   7.868  1.6554  2.0908  0.5880
  194MOL0     H26139   7.352   4.020   7.769 -1.8697  0.3451 -2.1177
  194MOL0     H26140   7.478   3.920   7.731 -0.0372  1.1564 -0.7645
  194MOL0     H26141   7.524   3.886   7.494  0.7670  0.9172 -0.5949
  194MOL0     H26142   7.490   3.931   7.222  0.0970 -1.3942 -0.3320
  194MOL0     H26143   7.347   3.832   7.196  2.8067 -1.5151  0.7282
  194MOL0     H26144   7.223   4.013   7.137 -0.3504 -1.1603  0.0003
  194MOL0     H26145   7.299   4.135   7.246  1.8732  0.1488  0.3643
  194MOL0     H26146   7.498   4.123   7.085  0.2259 -0.3561 -0.6129
  194MOL0     H26147   7.358   4.204   7.019  2.5486  1.2554 -1.2164
  194MOL0     H26148   7.385   3.906   6.965 -4.1817 -1.3167 -4.0656
  194MOL0     H26149   7.506   4.027   6.901  0.2940 -2.7774 -1.6224
  194MOL0     H26150   7.491   3.863   6.764 -2.5999  0.8033  1.2715
  194MOL0     H26151   7.500   3.732   6.550  0.5816  1.4283 -0.9078
  194MOL0     H26152   7.398   3.783   6.070  2.5243  1.4460 -1.1512
  194MOL0     H26153   7.457   3.721   5.880 -3.3566 -1.1758  0.2320
  194MOL0     H26154   7.492   3.572   5.689 -1.9423 -2.4503  1.5047
  194MOL0     H26155   7.663   3.618   5.710  0.2706 -0.9957  1.9587
  194MOL0     H26156   7.741   3.422   5.590 -0.8726 -2.1476  2.5886
  194MOL0     H26157   7.576   3.361   5.584 -0.9048  0.5267 -0.7837
  194MOL0     H26158   7.511   3.562   5.433 -1.2615  3.2126  3.3039
  194MOL0     H26159   7.692   3.592   5.425  0.8121 -2.7563  0.2397
  194MOL0     H26160   7.556   3.367   5.309  0.7299  1.2778 -1.1147
  194MOL0     H26161   7.743   3.375   5.349  1.7573  0.5443 -1.4382
  194MOL0     H26162   7.772   3.555   5.200  1.0287 -1.1412  1.1604
  194MOL0     H26163   7.608   3.587   5.179 -1.8050 -0.9393  0.1909
  194MOL0     H26164   7.740   3.333   5.110  1.2355  0.0250 -1.5049
  194MOL0     H26165   7.566   3.360   5.075  0.2226  0.7927 -1.1604
  194MOL0     H26166   7.690   3.397   4.871  2.7175 -0.1363 -1.2367
  194MOL0     H26167   7.829   3.462   4.956 -0.0020 -1.4289  3.5750
  194MOL0     H26168   7.710   3.687   4.988 -2.0741  1.0368  1.4190
  194MOL0     H26169   7.721   3.641   4.818 -0.3226  4.6985  0.5815
  194MOL0     H26170   7.575   3.336   6.053 -0.9000 -0.3447  3.4399
  194MOL0     H26171   7.527   3.422   6.275  0.1748  1.6641  1.3609
  194MOL0     H26172   7.145   3.936   6.425  0.9748  1.3970 -0.2862
  194MOL0     H26173   7.147   4.062   6.626 -0.1648 -0.7844 -0.0902
  194MOL0     H26174   7.846   3.624   8.269 -1.7339 -2.8662 -1.3751
  194MOL0     H26175   7.858   3.835   8.408  0.5236 -1.3462 -1.0309
  194MOL0     H26176   7.523   4.125   8.628 -0.4578 -0.0364 -0.9401
  194MOL0     H26177   7.437   4.320   8.724  0.7935  1.3986  4.2324
  194MOL0     H26178   7.509   4.669   8.569  0.1053  1.3605 -0.7919
  194MOL0     H26179   7.674   4.699   8.608  1.8194  0.4013  2.3632
  194MOL0     H26180   7.609   4.882   8.708 -0.1567  0.9679  3.1828
  194MOL0     H26181   7.544   4.793   8.838 -1.0252 -1.4508 -0.0620
  194MOL0     H26182   7.314   4.802   8.732 -0.1269 -0.3372 -0.8686
  194MOL0     H26183   7.391   4.864   8.578 -1.9534 -0.7736 -0.0614
  194MOL0     H26184   7.380   5.004   8.842 -2.5592 -3.4804  0.7855
  194MOL0     H26185   7.434   5.078   8.685 -1.6877  0.1518 -2.3616
  194MOL0     H26186   7.005   5.081   8.683 -0.5736 -3.7536 -1.2168
  194MOL0     H26187   7.789   4.525   8.579 -1.4634  0.9709  0.8850
  194MOL0     H26188   7.992   4.245   8.514 -5.0593 -3.0601  0.6035
  194MOL0     H26189   7.912   4.325   8.379  0.0596 -1.9118 -0.5299
  194MOL0     H26190   7.975   4.414   8.526 -0.6269 -0.3298  2.4451
  195MOL0     O26191   8.338   8.979   5.438 -0.6676 -0.4406 -1.0046
  195MOL0     C26192   8.346   8.857   5.450  0.4683  0.7354  0.3970
  195MOL0     O26193   8.416   8.795   5.550  0.9717 -0.0132  0.0199
  195MOL0     C26194   8.468   8.884   5.643 -0.7888 -0.1842  0.5833
  195MOL0     C26195   8.602   8.923   5.643 -0.1468 -0.7561 -0.5919
  195MOL0     C26196   8.647   9.017   5.736 -0.5241 -0.5791  0.6894
  195MOL0     C26197   8.564   9.066   5.836 -0.5092 -0.0753 -0.1426
  195MOL0     O26198   8.601   9.160   5.924 -0.9750  0.8631  1.0484
  195MOL0     C26199   8.721   9.235   5.910 -0.1501  0.2084 -0.7010
  195MOL0     C26200   8.715   9.363   5.996 -0.4086  0.5271  0.7792
  195MOL0     C26201   8.628   9.455   5.921  0.4940  0.3396 -0.4458
  195MOL0     C26202   8.479   9.442   5.965 -0.1091 -0.7137  0.0996
  195MOL0     C26203   8.375   9.548   5.904  0.6527  0.0386  0.6681
  195MOL0     C26204   8.344   9.507   5.760  0.6302  0.5798 -0.0860
  195MOL0     C26205   8.244   9.390   5.754  0.3932  0.9282  0.9432
  195MOL0     C26206   8.230   9.347   5.605 -0.4849  0.0390 -0.3516
  195MOL0     N26207   8.108   9.267   5.568 -0.0145 -0.6269 -0.0464
  195MOL0     C26208   8.094   9.135   5.570  0.6775  0.0310  0.1302
  195MOL0     C26209   7.967   9.106   5.542 -0.3682 -0.2574 -0.0881
  195MOL0     C26210   7.891   8.980   5.518 -0.0827  0.3943 -0.1820
  195MOL0     C26211   7.887   8.883   5.637  0.9884 -0.4643 -0.7432
  195MOL0     C26212   7.836   8.947   5.765 -0.7621  0.8188 -0.1783
  195MOL0     C26213   7.840   8.848   5.890 -0.3793  0.1867  0.3654
  195MOL0     O26214   7.779   8.723   5.856  0.4368  0.3208 -0.2782
  195MOL0     C26215   7.653   8.731   5.802  0.2447  0.4188 -1.0829
  195MOL0     C26216   7.620   8.651   5.695  0.5044 -0.0286 -0.9698
  195MOL0     C26217   7.484   8.654   5.653 -1.2802  0.4013  0.1731
  195MOL0     C26218   7.390   8.737   5.696  0.6157 -0.2147  0.2085
  195MOL0     C26219   7.258   8.759   5.631 -0.5906  0.0886  0.0443
  195MOL0     O26220   7.222   8.669   5.530  0.2277  0.7211 -0.2016
  195MOL0     C26221   7.121   8.696   5.433 -1.0894  0.3008 -0.6916
  195MOL0     C26222   7.056   8.583   5.378  0.5048 -0.2418 -0.3969
  195MOL0     C26223   6.966   8.594   5.277  0.7122 -0.2189  1.0011
  195MOL0     C26224   6.927   8.723   5.224  0.3862 -0.5310  0.7326
  195MOL0     O26225   6.847   8.736   5.116 -0.6264  0.1728 -0.5184
  195MOL0     C26226   6.706   8.741   5.125 -0.2077  1.0304  0.3469
  195MOL0     C26227   6.651   8.681   4.994  0.1026  0.9420  0.5095
  195MOL0     C26228   6.506   8.704   4.964  0.1983 -0.7768 -0.2103
  195MOL0     C26229   6.447   8.614   4.854 -0.4562 -0.0667  0.4224
  195MOL0     C26230   6.361   8.679   4.749 -0.2384  0.0831 -0.4124
  195MOL0     C26231   6.320   8.586   4.641 -1.2873 -0.1393  0.5134
  195MOL0     C26232   6.208   8.640   4.550  1.1157 -0.0400  0.4947
  195MOL0     C26233   6.117   8.525   4.513  0.1339  0.2021  0.2387
  195MOL0    Cl26234   6.041   8.479   4.665  0.1591  0.0211  0.4180
  195MOL0     C26235   6.985   8.835   5.286 -0.7943  0.8873 -0.6978
  195MOL0     C26236   7.080   8.822   5.389 -0.3200 -0.3702 -0.4935
  195MOL0     O26237   7.193   8.854   5.673  0.0662 -0.6611  0.5428
  195MOL0     C26238   7.424   8.806   5.808 -0.2469 -0.7808  0.2586
  195MOL0     C26239   7.548   8.806   5.861  0.4308  0.5828  0.3228
  195MOL0     N26240   7.907   9.228   5.517  0.4644  0.4229  0.2735
  195MOL0     N26241   7.992   9.321   5.536  0.1719  0.1096  0.7743
  195MOL0     C26242   8.437   9.014   5.846  1.1975 -0.6169 -0.1939
  195MOL0     C26243   8.388   8.934   5.735  0.1566 -0.1454 -1.8504
  195MOL0     C26244   8.252   8.765   5.371 -0.8789  0.5272  0.6005
  195MOL0     C26245   8.239   8.636   5.407  0.4964  0.7663 -0.9224
  195MOL0     C26246   8.159   8.546   5.335 -0.3095 -1.6419 -0.6737
  195MOL0     C26247   8.102   8.581   5.211  0.0089  0.0883 -0.0459
  195MOL0     O26248   8.034   8.487   5.133  0.2284 -1.0137 -0.3443
  195MOL0     C26249   7.997   8.368   5.181  0.0170  0.2049  1.1872
  195MOL0     C26250   7.902   8.303   5.081  0.4011  0.4322 -0.1713
  195MOL0     C26251   7.842   8.191   5.167  0.3005  0.3502 -0.0865
  195MOL0     C26252   7.734   8.104   5.096  0.0731 -0.4568 -0.2783
  195MOL0     C26253   7.605   8.185   5.094  0.1895  1.3054 -1.2454
  195MOL0     C26254   7.508   8.260   5.101 -0.9087  0.7942 -0.6097
  195MOL0     C26255   8.117   8.710   5.174 -0.3901 -0.4183 -0.8939
  195MOL0     C26256   8.194   8.810   5.243  1.1498  0.1682 -0.0453
  195MOL0     C26257   8.202   8.951   5.186 -0.7859  0.2162 -0.9005
  195MOL0     H26258   8.668   8.905   5.558  1.7503 -0.4496  0.7498
  195MOL0     H26259   8.747   9.059   5.729 -1.4693  1.6267 -0.6483
  195MOL0     H26260   8.807   9.175   5.940  1.1746  1.7180 -1.3602
  195MOL0     H26261   8.736   9.268   5.807  2.8923  1.3431 -0.0161
  195MOL0     H26262   8.821   9.386   5.988  0.0571 -1.6974 -0.0810
  195MOL0     H26263   8.677   9.349   6.098  0.8166 -3.0324  0.8882
  195MOL0     H26264   8.630   9.439   5.813  1.7345  0.8138 -0.5115
  195MOL0     H26265   8.676   9.552   5.941  1.9019 -0.4653  0.3030
  195MOL0     H26266   8.448   9.341   5.937 -2.0596 -0.1157 -0.0107
  195MOL0     H26267   8.475   9.459   6.073 -0.8233  0.8152 -0.1381
  195MOL0     H26268   8.287   9.548   5.968 -0.7323  3.7552 -0.9335
  195MOL0     H26269   8.413   9.650   5.906 -1.3417  0.8887 -0.8815
  195MOL0     H26270   8.292   9.591   5.712  1.2984 -0.3529 -2.6251
  195MOL0     H26271   8.435   9.486   5.703  0.4701 -1.0344  0.2124
  195MOL0     H26272   8.144   9.412   5.791 -3.6446 -2.5894 -5.8595
  195MOL0     H26273   8.291   9.305   5.805  0.7858  0.8783  0.5132
  195MOL0     H26274   8.233   9.438   5.543  0.2094 -0.5074 -1.1448
  195MOL0     H26275   8.318   9.293   5.567 -0.1075  0.5962 -0.2867
  195MOL0     H26276   8.175   9.068   5.593  0.5479 -0.3039 -0.3601
  195MOL0     H26277   7.787   9.010   5.500 -0.0894 -0.5554 -2.0101
  195MOL0     H26278   7.934   8.915   5.441  0.9814  0.7072  0.1256
  195MOL0     H26279   7.817   8.808   5.599  1.4923 -0.8532 -0.9132
  195MOL0     H26280   7.985   8.837   5.648 -0.3820 -4.1286 -2.3045
  195MOL0     H26281   7.731   8.966   5.742 -1.7059 -2.2384  1.1340
  195MOL0     H26282   7.881   9.043   5.791  1.3806 -0.6573  1.9179
  195MOL0     H26283   7.803   8.896   5.981  0.9442  0.3214  0.8580
  195MOL0     H26284   7.943   8.830   5.924 -0.8868 -2.4290  0.6674
  195MOL0     H26285   7.692   8.580   5.657  0.5865 -0.4475 -0.0415
  195MOL0     H26286   7.466   8.581   5.574  0.2656  0.5505 -0.3564
  195MOL0     H26287   7.090   8.484   5.408  1.6904  0.2055 -0.2273
  195MOL0     H26288   6.924   8.506   5.229 -0.9279  2.1873 -2.4105
  195MOL0     H26289   6.669   8.691   5.214  0.6949  1.5747  1.0502
  195MOL0     H26290   6.672   8.845   5.121  1.2842  1.5244 -0.4028
  195MOL0     H26291   6.718   8.717   4.916  0.1802  2.2260  1.1434
  195MOL0     H26292   6.673   8.573   4.994 -1.3702  0.6091  0.6912
  195MOL0     H26293   6.445   8.687   5.053 -0.5276 -0.9585 -0.7248
  195MOL0     H26294   6.513   8.809   4.935  3.8210  0.0705  2.9669
  195MOL0     H26295   6.391   8.536   4.907  0.4478 -0.4500  0.8391
  195MOL0     H26296   6.530   8.562   4.806  2.3514 -1.5178  6.0305
  195MOL0     H26297   6.429   8.758   4.715 -0.0580 -0.0287 -0.3139
  195MOL0     H26298   6.278   8.739   4.788  0.9863  0.8399  1.1469
  195MOL0     H26299   6.406   8.581   4.574 -0.2484  4.3784  1.1852
  195MOL0     H26300   6.295   8.496   4.698 -2.2575 -0.2439 -0.0604
  195MOL0     H26301   6.238   8.681   4.454  0.8590  1.8775  1.1909
  195MOL0     H26302   6.142   8.701   4.612 -0.9240 -4.4974  3.2729
  195MOL0     H26303   6.025   8.561   4.466  0.6891  2.0718  0.5123
  195MOL0     H26304   6.175   8.459   4.448  1.2181 -0.8066  2.1570
  195MOL0     H26305   6.943   8.933   5.264  0.4584  1.6706  0.2568
  195MOL0     H26306   7.118   8.913   5.435 -0.4465 -0.6126  0.1031
  195MOL0     H26307   7.366   8.889   5.847  2.6930  1.4813  0.1743
  195MOL0     H26308   7.573   8.864   5.950  0.1774 -1.3771  1.7437
  195MOL0     H26309   8.383   9.057   5.930  4.5153  0.1691  1.7473
  195MOL0     H26310   8.281   8.916   5.738 -0.0531  0.9400 -2.3216
  195MOL0     H26311   8.279   8.591   5.497  2.7604 -0.9674 -2.6620
  195MOL0     H26312   8.151   8.445   5.374  1.8512 -2.4877 -2.1938
  195MOL0     H26313   7.943   8.389   5.275  1.6607  1.4585  1.8982
  195MOL0     H26314   8.078   8.296   5.187 -1.2346 -1.3038  0.7633
  195MOL0     H26315   7.962   8.267   4.997  0.3456  2.1990 -0.9873
  195MOL0     H26316   7.833   8.375   5.039  0.7279 -0.7690 -2.9535
  195MOL0     H26317   7.787   8.223   5.256 -0.8839 -1.8070  0.0331
  195MOL0     H26318   7.927   8.130   5.198  1.7235  0.9717 -2.5153
  195MOL0     H26319   7.764   8.082   4.993 -0.2771  0.0232 -0.4890
  195MOL0     H26320   7.714   8.014   5.155 -0.4520 -0.7169 -0.8285
  195MOL0     H26321   7.420   8.321   5.098 -3.3588 -2.4355 -2.4565
  195MOL0     H26322   8.064   8.740   5.084 -3.8620 -2.0355  0.4358
  195MOL0     H26323   8.145   9.027   5.240 -1.6775  1.6291 -3.5979
  195MOL0     H26324   8.303   8.992   5.190 -0.2276 -1.1496  2.6756
  195MOL0     H26325   8.157   8.951   5.086 -0.0791  0.5328 -1.2242
  196MOL0     O26326   9.521   6.100   9.943 -0.0564  0.2688  0.3402
  196MOL0     C26327   9.638   6.086   9.946 -1.1394 -1.0675  0.2425
  196MOL0     O26328   9.735   6.187   9.950  0.8440  0.3728  0.3789
  196MOL0     C26329   9.694   6.315   9.945 -0.9330  0.4755  0.2613
  196MOL0     C26330   9.755   6.391   9.843 -0.7667 -0.3031  0.4670
  196MOL0     C26331   9.714   6.518   9.814  0.7841 -0.4210  0.7314
  196MOL0     C26332   9.619   6.583   9.880 -1.0109 -0.3493 -0.2056
  196MOL0     O26333   9.580   6.713   9.841 -0.5983  0.4597  0.0842
  196MOL0     C26334   9.478   6.789   9.908 -0.7536  0.4244  0.4774
  196MOL0     C26335   9.475   6.940   9.875  1.0904 -0.1322  0.0135
  196MOL0     C26336   9.348   7.016   9.921 -0.5648  0.0244 -0.4274
  196MOL0     C26337   9.209   6.960   9.881 -0.3669  0.8525 -0.1888
  196MOL0     C26338   9.097   7.063   9.853 -0.0875 -0.7007  0.3719
  196MOL0     C26339   9.068   7.169   9.953 -0.0355  0.4676  0.1130
  196MOL0     C26340   9.015   7.106  10.078 -0.4859  0.5072  0.1690
  196MOL0     C26341   8.921   7.201  10.150  0.1588 -0.1126 -0.2535
  196MOL0     N26342   8.866   7.126  10.261  0.6179  0.0707 -0.0710
  196MOL0     C26343   8.792   7.011  10.263 -0.8013  0.1033  0.5251
  196MOL0     C26344   8.777   6.972  10.393  0.1102 -0.0517  0.4813
  196MOL0     C26345   8.691   6.860  10.442  0.2349  0.3588  0.0442
  196MOL0     C26346   8.588   6.901  10.541  0.6614 -1.4580  0.2158
  196MOL0     C26347   8.552   6.798  10.643 -0.0685  0.9801  1.0847
  196MOL0     C26348   8.503   6.668  10.566 -0.8026  0.2144 -0.1162
  196MOL0     O26349   8.533   6.557  10.656 -0.3430 -0.7605  0.0677
  196MOL0     C26350   8.435   6.505  10.739 -0.2205  0.9110 -0.1246
  196MOL0     C26351   8.292   6.505  10.717 -0.3326 -0.0333 -0.8809
  196MOL0     C26352   8.210   6.460  10.819  0.2370 -0.0477 -0.7791
  196MOL0     C26353   8.270   6.410  10.936 -0.7097  0.2594  0.6396
  196MOL0     C26354   8.183   6.344  11.040 -0.0472  0.5318 -0.2313
  196MOL0     O26355   8.054   6.378  11.025 -0.2424 -0.0430 -0.5982
  196MOL0     C26356   7.946   6.342  11.089 -0.5806  1.2426  0.0512
  196MOL0     C26357   7.915   6.220  11.139  0.5943  0.1216 -0.3312
  196MOL0     C26358   7.789   6.177  11.185 -0.4150 -0.8510 -0.5530
  196MOL0     C26359   7.694   6.278  11.188  0.8347 -0.0643 -0.3019
  196MOL0     O26360   7.574   6.261  11.255 -0.6880  0.9123 -0.6093
  196MOL0     C26361   7.575   6.305  11.394 -0.6949  0.6854 -0.1815
  196MOL0     C26362   7.625   6.199  11.493 -0.0990  1.2368 -0.4259
  196MOL0     C26363   7.554   6.067  11.497  0.5898  0.7911 -0.4070
  196MOL0     C26364   7.398   6.077  11.527 -0.8870  0.2255 -0.4520
  196MOL0     C26365   7.352   5.949  11.610  0.1515  0.2752  0.0103
  196MOL0     C26366   7.199   5.936  11.611  0.1397  0.3412 -0.8176
  196MOL0     C26367   7.149   5.806  11.680  0.6098  0.3290  0.0856
  196MOL0     C26368   7.092   5.692  11.593 -0.8924  0.1316 -0.2917
  196MOL0    Cl26369   6.963   5.772  11.486  0.2704 -0.0252 -0.1124
  196MOL0     C26370   7.723   6.406  11.146  0.5306 -0.0663 -0.5101
  196MOL0     C26371   7.843   6.430  11.093  0.6841 -0.0290 -0.1694
  196MOL0     O26372   8.228   6.264  11.127  0.8216 -0.5277  0.0508
  196MOL0     C26373   8.405   6.390  10.945 -0.0208  0.6648  0.5109
  196MOL0     C26374   8.495   6.437  10.847  0.6294 -0.7636 -0.4525
  196MOL0     N26375   8.855   7.059  10.467 -0.2790 -0.2321 -1.5773
  196MOL0     N26376   8.908   7.146  10.391 -0.3322 -0.5836 -0.1605
  196MOL0     C26377   9.560   6.513   9.985  1.0566 -0.6565 -0.9036
  196MOL0     C26378   9.592   6.379  10.025  0.6386  0.7836  0.0399
  196MOL0     C26379   9.685   5.952   9.938 -0.4685  1.1905  0.7923
  196MOL0     C26380   9.642   5.873   9.829  0.4774 -0.0960 -0.0742
  196MOL0     C26381   9.657   5.733   9.829  0.0106 -0.5309  0.7973
  196MOL0     C26382   9.738   5.673   9.928 -0.0082  0.0162  0.2492
  196MOL0     O26383   9.758   5.540   9.947 -0.3787 -1.2949  0.4342
  196MOL0     C26384   9.730   5.456   9.838 -0.3047  0.5813  0.3314
  196MOL0     C26385   9.580   5.415   9.845  0.1006 -0.0672  0.2389
  196MOL0     C26386   9.557   5.287   9.772 -0.9859  0.4826 -0.1563
  196MOL0     C26387   9.418   5.231   9.780  0.4591  0.2740  0.0327
  196MOL0     C26388   9.376   5.210   9.918 -0.2684  0.3430  0.1841
  196MOL0     C26389   9.349   5.187  10.036 -1.2043  1.1348 -0.0584
  196MOL0     C26390   9.774   5.746  10.036  1.3648  0.0322 -0.1419
  196MOL0     C26391   9.753   5.880  10.042 -1.1363 -0.4472 -1.0635
  196MOL0     C26392   9.800   5.957  10.161  0.6254 -0.4191  0.0354
  196MOL0     H26393   9.844   6.356   9.791 -1.0286 -1.7887  0.9503
  196MOL0     H26394   9.761   6.562   9.726 -0.3957 -0.3714  0.1096
  196MOL0     H26395   9.376   6.758   9.882 -0.3187  1.1983 -2.5378
  196MOL0     H26396   9.505   6.788  10.014  1.6469 -0.1534 -0.0916
  196MOL0     H26397   9.469   6.954   9.767 -0.1194 -0.6972 -0.0106
  196MOL0     H26398   9.568   6.986   9.909  1.6171 -1.6212  0.6742
  196MOL0     H26399   9.352   7.117   9.881  2.8657  0.7364  1.2785
  196MOL0     H26400   9.364   7.047  10.025 -2.3203  0.7948 -0.3597
  196MOL0     H26401   9.215   6.904   9.788  1.7872  0.9224 -0.1367
  196MOL0     H26402   9.173   6.894   9.960 -0.9706  1.2363 -0.1324
  196MOL0     H26403   9.116   7.107   9.755 -2.0289 -2.4104 -0.8473
  196MOL0     H26404   9.004   7.007   9.840 -0.2683 -0.2477 -0.3304
  196MOL0     H26405   9.165   7.216   9.969  1.7399 -1.9522 -2.5488
  196MOL0     H26406   8.995   7.235   9.905  1.2865  1.4080 -0.6503
  196MOL0     H26407   9.086   7.058  10.146 -1.4534 -0.2826  0.6493
  196MOL0     H26408   8.956   7.017  10.054  0.8606  0.3954 -3.3630
  196MOL0     H26409   8.973   7.291  10.185  2.5514 -1.3404 -0.4376
  196MOL0     H26410   8.834   7.230  10.091 -1.5297 -3.7471  0.1988
  196MOL0     H26411   8.750   6.951  10.183 -0.6693 -0.5466  0.9356
  196MOL0     H26412   8.631   6.825  10.357 -1.3321  1.6659  0.5484
  196MOL0     H26413   8.752   6.778  10.480 -0.0734 -1.0511 -2.2768
  196MOL0     H26414   8.628   6.984  10.599  0.7593 -0.7643 -0.8216
  196MOL0     H26415   8.497   6.940  10.494 -0.1373 -1.2433  1.8467
  196MOL0     H26416   8.474   6.825  10.715 -2.0187 -2.4304  0.4769
  196MOL0     H26417   8.632   6.772  10.713 -0.6111 -0.9918  1.0146
  196MOL0     H26418   8.563   6.652  10.476 -1.6319  0.7564 -0.7787
  196MOL0     H26419   8.401   6.668  10.528 -0.4311 -0.4713 -1.1674
  196MOL0     H26420   8.251   6.539  10.622 -1.9992  0.2337 -0.1031
  196MOL0     H26421   8.103   6.469  10.803  0.4372 -1.0854 -2.9942
  196MOL0     H26422   7.995   6.147  11.134  1.6310  1.1432  0.7418
  196MOL0     H26423   7.777   6.082  11.236  3.1506 -1.2109 -0.0979
  196MOL0     H26424   7.634   6.396  11.407  0.7402 -0.0024 -1.5498
  196MOL0     H26425   7.472   6.316  11.429 -0.8140 -1.5423  0.3465
  196MOL0     H26426   7.727   6.172  11.463 -0.7200  0.4145 -1.8831
  196MOL0     H26427   7.619   6.236  11.596 -0.5561 -1.5248  0.6175
  196MOL0     H26428   7.562   6.019  11.399  1.5177  3.0918 -1.5404
  196MOL0     H26429   7.605   6.000  11.568 -0.6844  0.9239  0.6703
  196MOL0     H26430   7.346   6.076  11.431 -2.0626  0.3606  0.1630
  196MOL0     H26431   7.377   6.164  11.590 -1.8609 -0.3012 -0.0248
  196MOL0     H26432   7.395   5.962  11.710 -0.9292 -1.9660  0.8138
  196MOL0     H26433   7.393   5.858  11.566  0.5389  0.5535 -0.2204
  196MOL0     H26434   7.158   6.030  11.648  1.1126  0.7963 -0.8856
  196MOL0     H26435   7.164   5.918  11.508  2.2244 -2.4968 -1.1586
  196MOL0     H26436   7.082   5.826  11.765  0.8100 -1.4817  0.7117
  196MOL0     H26437   7.233   5.760  11.733 -1.9159 -1.6174  2.7850
  196MOL0     H26438   7.168   5.654  11.524  0.0676 -1.8240  1.7361
  196MOL0     H26439   7.063   5.601  11.645 -1.4815  0.5621  0.1561
  196MOL0     H26440   7.654   6.490  11.151  1.6517  0.9806 -1.8202
  196MOL0     H26441   7.852   6.533  11.060 -0.4019 -0.7529 -3.0010
  196MOL0     H26442   8.454   6.328  11.020  0.3480 -0.9297 -0.9948
  196MOL0     H26443   8.603   6.433  10.855  0.8965 -2.1026 -3.5771
  196MOL0     H26444   9.478   6.571  10.027  2.0138 -0.0299  0.1585
  196MOL0     H26445   9.538   6.321  10.099  3.4880 -0.3256  1.4119
  196MOL0     H26446   9.588   5.913   9.744 -1.9432 -1.7878  0.5596
  196MOL0     H26447   9.615   5.673   9.749 -1.3420  0.8879  0.4004
  196MOL0     H26448   9.781   5.360   9.847 -0.6502  0.2050 -1.3706
  196MOL0     H26449   9.760   5.507   9.746 -0.3656  0.6872  0.3686
  196MOL0     H26450   9.531   5.493   9.786  0.9670 -1.5347 -2.6402
  196MOL0     H26451   9.552   5.407   9.950  3.1591  2.3854  1.3923
  196MOL0     H26452   9.629   5.208   9.795  3.5735  4.1839  0.0471
  196MOL0     H26453   9.587   5.307   9.668  0.4480  0.6809  0.2654
  196MOL0     H26454   9.347   5.300   9.734 -0.8114 -1.7691 -1.2180
  196MOL0     H26455   9.426   5.134   9.730  1.0112  1.6806 -2.7902
  196MOL0     H26456   9.326   5.180  10.140  3.2734 -1.9663  0.9914
  196MOL0     H26457   9.805   5.692  10.125  0.7040 -4.2689 -2.2260
  196MOL0     H26458   9.741   6.048  10.176  1.5174  0.3204 -0.7490
  196MOL0     H26459   9.787   5.897  10.251  0.7068  0.7724  0.8503
  196MOL0     H26460   9.904   5.981  10.141  0.3361 -1.2610 -3.1638
  197MOL0     O26461  10.522   1.115   8.805 -0.4758 -0.3691 -0.1808
  197MOL0     C26462  10.623   1.144   8.746  0.3649 -0.3581  0.7362
  197MOL0     O26463  10.744   1.103   8.780 -0.6640  0.0871 -0.4381
  197MOL0     C26464  10.761   0.999   8.873  0.1350 -0.1842  0.7491
  197MOL0     C26465  10.812   0.879   8.821  0.0137 -0.3063 -0.8241
  197MOL0     C26466  10.849   0.777   8.908  0.2223 -0.0318 -0.5840
  197MOL0     C26467  10.823   0.794   9.054  0.5263 -0.1351 -0.4331
  197MOL0     O26468  10.841   0.698   9.148 -0.3222  0.3971  0.9985
  197MOL0     C26469  10.969   0.636   9.152 -0.7859  0.3821  0.5379
  197MOL0     C26470  10.952   0.488   9.181  0.0220  0.1554 -0.5786
  197MOL0     C26471  10.899   0.397   9.067 -0.3211 -0.5612  0.2409
  197MOL0     C26472  10.987   0.372   8.953 -0.1879  0.1674 -0.1060
  197MOL0     C26473  11.092   0.265   8.983  1.6221 -0.0648 -0.6018
  197MOL0     C26474  11.193   0.270   8.884 -0.4270  0.2414 -0.1541
  197MOL0     C26475  11.291   0.153   8.885  0.5517  0.0596 -0.4238
  197MOL0     C26476  11.232   0.018   8.850 -1.2335  0.1927 -0.1668
  197MOL0     N26477  11.336  -0.094   8.870 -1.3107 -0.1548 -0.1776
  197MOL0     C26478  11.466  -0.100   8.824  0.3958 -1.6655  0.0353
  197MOL0     C26479  11.524  -0.214   8.859 -0.8218  0.6961 -0.0860
  197MOL0     C26480  11.659  -0.276   8.825 -0.1441  0.8932 -0.0181
  197MOL0     C26481  11.647  -0.424   8.797  0.1771  1.3769 -0.1023
  197MOL0     C26482  11.674  -0.503   8.919 -0.7643 -0.3396 -1.2034
  197MOL0     C26483  11.594  -0.630   8.946  0.0154  0.7238 -1.3157
  197MOL0     O26484  11.633  -0.741   8.864  0.0523 -0.2961 -0.5678
  197MOL0     C26485  11.677  -0.854   8.932  0.5315 -0.1235 -0.3773
  197MOL0     C26486  11.800  -0.878   9.000 -0.9962 -0.5142  0.7274
  197MOL0     C26487  11.831  -0.976   9.089  0.6029  0.0753 -0.3096
  197MOL0     C26488  11.739  -1.074   9.118  0.5193  0.0992  0.6266
  197MOL0     C26489  11.764  -1.183   9.218 -0.9626 -0.3115 -0.0144
  197MOL0     O26490  11.731  -1.314   9.182  1.0995 -0.9495  0.4529
  197MOL0     C26491  11.739  -1.409   9.272 -0.0967 -0.0747  0.2710
  197MOL0     C26492  11.860  -1.469   9.296 -1.0673  0.2134 -0.5051
  197MOL0     C26493  11.873  -1.574   9.384  0.0943  0.2603  0.1918
  197MOL0     C26494  11.759  -1.619   9.455 -0.2793 -1.3422  0.0207
  197MOL0     O26495  11.773  -1.716   9.546 -0.2540 -0.6669  0.2481
  197MOL0     C26496  11.718  -1.839   9.486  0.7554  0.1354 -0.9414
  197MOL0     C26497  11.770  -1.888   9.351 -0.1433 -0.1890  1.0785
  197MOL0     C26498  11.923  -1.921   9.351 -0.5193  0.3223 -0.3007
  197MOL0     C26499  11.959  -2.055   9.298  0.6588  0.1058  0.4898
  197MOL0     C26500  12.107  -2.084   9.312 -1.0697 -0.1952  0.3904
  197MOL0     C26501  12.154  -2.069   9.452 -0.4587  0.0043 -0.1324
  197MOL0     C26502  12.309  -2.132   9.476  0.2553 -0.4080  0.3409
  197MOL0     C26503  12.375  -2.044   9.578 -0.4701 -0.0328 -0.2158
  197MOL0    Cl26504  12.495  -1.941   9.483  0.0330 -0.3482 -0.0264
  197MOL0     C26505  11.631  -1.551   9.437 -0.4907 -0.0632 -0.4739
  197MOL0     C26506  11.623  -1.454   9.346  0.5042 -0.3076  0.1025
  197MOL0     O26507  11.809  -1.148   9.328 -0.0800 -0.6226 -0.1763
  197MOL0     C26508  11.610  -1.063   9.051  0.3697  0.3973 -0.1637
  197MOL0     C26509  11.583  -0.952   8.964  0.7547  0.0528  0.5139
  197MOL0     N26510  11.422  -0.281   8.924 -0.2219  1.0462 -1.0300
  197MOL0     N26511  11.317  -0.205   8.938 -0.1537  0.3685  0.0423
  197MOL0     C26512  10.764   0.915   9.099  0.5316  0.3179 -0.2873
  197MOL0     C26513  10.738   1.017   9.012  0.4670 -0.4133  0.5222
  197MOL0     C26514  10.606   1.242   8.631  0.5691 -0.0116 -0.4591
  197MOL0     C26515  10.480   1.236   8.562  0.6479 -0.3035 -0.0811
  197MOL0     C26516  10.458   1.317   8.459  0.2884  0.1230  0.2429
  197MOL0     C26517  10.553   1.404   8.414 -0.6060 -0.9693  0.2936
  197MOL0     O26518  10.514   1.497   8.318  0.2435 -0.3220  0.0592
  197MOL0     C26519  10.618   1.547   8.233  0.8175  0.8781  0.1410
  197MOL0     C26520  10.548   1.596   8.108  0.4120  0.0537  0.0405
  197MOL0     C26521  10.628   1.608   7.981  0.5559  0.6600  0.3893
  197MOL0     C26522  10.547   1.660   7.867 -0.0626  0.1465  0.4045
  197MOL0     C26523  10.632   1.690   7.745 -0.8074 -0.9221  0.7671
  197MOL0     C26524  10.703   1.719   7.652  0.4181 -0.4354  0.0863
  197MOL0     C26525  10.672   1.413   8.476 -0.1716 -0.0229 -1.0464
  197MOL0     C26526  10.701   1.327   8.589  0.1121 -0.8472  0.7988
  197MOL0     C26527  10.838   1.344   8.655  0.0067 -0.4271 -0.9204
  197MOL0     H26528  10.835   0.855   8.717 -0.1250 -2.6187 -0.3798
  197MOL0     H26529  10.889   0.688   8.862  2.4369 -1.1404  3.0977
  197MOL0     H26530  11.020   0.647   9.055  1.7523  1.2572  1.8622
  197MOL0     H26531  11.032   0.689   9.224  0.2477 -2.2433  1.6796
  197MOL0     H26532  10.878   0.480   9.261 -0.0974  0.4115 -0.6666
  197MOL0     H26533  11.046   0.446   9.219  0.9339  2.5468  0.0241
  197MOL0     H26534  10.803   0.429   9.025  0.9532 -1.6898 -4.0677
  197MOL0     H26535  10.882   0.305   9.123  1.3682  0.2490  2.1877
  197MOL0     H26536  10.926   0.334   8.871  2.3701 -1.7791 -1.2560
  197MOL0     H26537  11.034   0.466   8.922  1.1948 -0.8336 -1.1581
  197MOL0     H26538  11.137   0.286   9.080  3.9973 -1.5592 -1.2845
  197MOL0     H26539  11.043   0.167   8.990  1.1154  0.1413 -1.1177
  197MOL0     H26540  11.154   0.284   8.782  1.1309  3.3334 -0.4547
  197MOL0     H26541  11.261   0.355   8.892  2.7255 -2.0225 -0.6395
  197MOL0     H26542  11.341   0.155   8.982  3.4650 -1.2134 -1.7580
  197MOL0     H26543  11.369   0.186   8.815 -1.9464  1.1606 -2.8914
  197MOL0     H26544  11.145   0.010   8.916  0.2092  0.1909  1.8336
  197MOL0     H26545  11.195   0.015   8.747  1.2402 -2.3695 -1.0798
  197MOL0     H26546  11.521  -0.018   8.778 -1.4177 -1.2186 -1.4612
  197MOL0     H26547  11.700  -0.232   8.734  1.0899  0.2492  0.2021
  197MOL0     H26548  11.725  -0.255   8.910 -1.0540 -0.0647  0.9550
  197MOL0     H26549  11.548  -0.449   8.758  1.0597  0.8805 -2.1457
  197MOL0     H26550  11.710  -0.448   8.711 -1.2127 -4.4762  0.1409
  197MOL0     H26551  11.663  -0.432   9.002  2.6188  1.2690 -1.9379
  197MOL0     H26552  11.776  -0.540   8.928 -1.0390 -0.6573  1.3751
  197MOL0     H26553  11.487  -0.610   8.935 -1.0968 -0.8330  3.9975
  197MOL0     H26554  11.607  -0.662   9.050  0.0733  3.5993 -0.3372
  197MOL0     H26555  11.880  -0.805   8.983 -1.6591 -0.2164 -1.3693
  197MOL0     H26556  11.926  -0.989   9.139 -0.2441  0.3398  1.4450
  197MOL0     H26557  11.959  -1.454   9.253  0.5320 -1.5416  2.2215
  197MOL0     H26558  11.970  -1.613   9.413  0.6387  1.6296  0.2466
  197MOL0     H26559  11.741  -1.920   9.555  3.8012  0.9488 -0.8475
  197MOL0     H26560  11.611  -1.825   9.470  0.5667 -0.3263 -0.1550
  197MOL0     H26561  11.714  -1.978   9.323  0.7044 -1.7623  3.9575
  197MOL0     H26562  11.753  -1.805   9.282  4.1580  0.0693  0.0533
  197MOL0     H26563  11.974  -1.842   9.295 -1.6566 -0.1240 -2.0454
  197MOL0     H26564  11.946  -1.910   9.457 -4.4507 -1.9003  0.9519
  197MOL0     H26565  11.916  -2.060   9.198 -1.6475 -3.4885  1.4819
  197MOL0     H26566  11.893  -2.120   9.356 -0.1373  0.0575 -0.4605
  197MOL0     H26567  12.155  -2.006   9.252 -1.8223 -0.5183 -0.6589
  197MOL0     H26568  12.140  -2.179   9.269  1.5553  0.6838  0.3108
  197MOL0     H26569  12.170  -1.964   9.475 -0.7020 -0.0278  0.1946
  197MOL0     H26570  12.086  -2.111   9.526 -0.8679 -1.6075 -1.3591
  197MOL0     H26571  12.367  -2.133   9.384 -1.3976  0.4177 -0.7609
  197MOL0     H26572  12.306  -2.237   9.506  1.2586 -0.1588  1.4282
  197MOL0     H26573  12.316  -1.972   9.635  1.6232  3.2100 -1.8344
  197MOL0     H26574  12.437  -2.106   9.643 -1.0071 -0.6131 -0.2474
  197MOL0     H26575  11.544  -1.561   9.501  1.5585  0.5732  2.6606
  197MOL0     H26576  11.540  -1.386   9.337 -0.3796 -1.2875  0.6051
  197MOL0     H26577  11.525  -1.129   9.061 -0.5150  1.2869 -1.5223
  197MOL0     H26578  11.496  -0.945   8.900  1.8051  1.9670 -0.8257
  197MOL0     H26579  10.745   0.937   9.203 -0.6941 -0.1726 -0.3952
  197MOL0     H26580  10.711   1.114   9.050  0.9580  0.3156 -0.9049
  197MOL0     H26581  10.399   1.174   8.598  0.9573 -0.2435  0.7391
  197MOL0     H26582  10.376   1.314   8.388  0.3335  0.7823  0.1557
  197MOL0     H26583  10.693   1.470   8.213  2.0985  0.9899  3.8121
  197MOL0     H26584  10.668   1.629   8.284 -1.2796  1.7671  0.9042
  197MOL0     H26585  10.492   1.690   8.117  1.3357  0.5467  0.7913
  197MOL0     H26586  10.460   1.531   8.102  0.3332  0.1506  0.1433
  197MOL0     H26587  10.665   1.509   7.952 -2.1990 -0.2777 -0.2230
  197MOL0     H26588  10.707   1.681   8.002 -0.8717  1.7282  2.4037
  197MOL0     H26589  10.456   1.601   7.851 -2.7013  3.2434  2.7400
  197MOL0     H26590  10.505   1.755   7.902  1.3565  0.8482  0.2660
  197MOL0     H26591  10.774   1.734   7.573  0.4346 -1.1992 -0.0540
  197MOL0     H26592  10.748   1.484   8.445  2.5351 -2.7638 -1.1767
  197MOL0     H26593  10.884   1.244   8.663  1.4464  0.3496  1.9507
  197MOL0     H26594  10.899   1.411   8.594 -1.6217  0.2660 -1.8498
  197MOL0     H26595  10.830   1.385   8.756 -1.0879  0.2671 -1.2768
  198MOL0     O26596  11.396   6.499   5.338 -0.2890 -0.2756 -0.7380
  198MOL0     C26597  11.469   6.581   5.403  0.2600  0.2946  1.0306
  198MOL0     O26598  11.596   6.553   5.446  0.0919  0.2256  0.8433
  198MOL0     C26599  11.662   6.431   5.448 -0.4972 -0.8406 -0.1497
  198MOL0     C26600  11.627   6.317   5.365  0.2096 -0.9052  0.1086
  198MOL0     C26601  11.704   6.202   5.373 -0.1650  1.2103  0.4287
  198MOL0     C26602  11.821   6.192   5.445  0.3865 -0.0913 -0.4299
  198MOL0     O26603  11.902   6.078   5.462 -0.2885 -0.3822 -0.3728
  198MOL0     C26604  11.894   5.971   5.358 -0.0854  0.4166 -0.3775
  198MOL0     C26605  11.986   5.859   5.392  0.9327  0.0247  0.4845
  198MOL0     C26606  11.942   5.789   5.523 -0.2152  0.7016  1.1855
  198MOL0     C26607  12.005   5.638   5.525 -0.2567 -0.6612  0.8866
  198MOL0     C26608  11.957   5.576   5.662 -1.0858 -0.8063  0.7944
  198MOL0     C26609  12.011   5.444   5.699 -1.0014 -0.5366  0.2277
  198MOL0     C26610  11.936   5.382   5.823 -0.2050  0.0559 -0.3724
  198MOL0     C26611  11.966   5.449   5.962  0.2381  0.5450 -0.7148
  198MOL0     N26612  11.870   5.415   6.071 -0.1630 -1.3963 -0.2944
  198MOL0     C26613  11.760   5.486   6.114  1.1042 -0.0104  0.3231
  198MOL0     C26614  11.699   5.402   6.206 -0.5892  0.2738  1.0282
  198MOL0     C26615  11.580   5.441   6.282  0.2750 -0.8131 -0.1989
  198MOL0     C26616  11.480   5.335   6.322 -0.6126 -0.3689  0.1598
  198MOL0     C26617  11.541   5.231   6.422  0.3974 -0.3204  0.6895
  198MOL0     C26618  11.426   5.136   6.479 -0.3520 -0.1743  0.3630
  198MOL0     O26619  11.485   5.032   6.560  0.7677 -0.2870  0.0933
  198MOL0     C26620  11.400   4.954   6.640  0.3368 -0.8250 -0.5694
  198MOL0     C26621  11.442   4.910   6.759  0.6684  1.6206 -0.7045
  198MOL0     C26622  11.359   4.830   6.847 -0.0154 -0.0366 -0.1569
  198MOL0     C26623  11.238   4.787   6.809  0.4965 -0.0603  0.2077
  198MOL0     C26624  11.157   4.714   6.906  0.5215 -0.4246  0.0225
  198MOL0     O26625  11.219   4.677   7.024 -0.0153  0.4853 -0.2956
  198MOL0     C26626  11.131   4.644   7.131 -0.4061  0.1068 -1.0404
  198MOL0     C26627  11.126   4.513   7.187  0.8331 -0.1070 -0.7758
  198MOL0     C26628  11.053   4.489   7.297 -0.5721  0.6641  0.9056
  198MOL0     C26629  10.981   4.592   7.358 -0.4752 -0.3507  0.3452
  198MOL0     O26630  10.925   4.554   7.478 -0.0127  0.2470  0.0233
  198MOL0     C26631  10.922   4.649   7.586 -0.0248 -0.1517 -0.0426
  198MOL0     C26632  10.947   4.569   7.713  0.8356  0.6941  0.1116
  198MOL0     C26633  11.089   4.515   7.733 -0.6853  0.0960 -0.2547
  198MOL0     C26634  11.135   4.486   7.875  0.2160 -0.0882  0.1069
  198MOL0     C26635  11.288   4.447   7.890  0.2490  0.7391  0.3029
  198MOL0     C26636  11.308   4.409   8.040  0.3294 -0.2322  0.7442
  198MOL0     C26637  11.433   4.333   8.068 -0.1517  0.1398 -1.0844
  198MOL0     C26638  11.447   4.305   8.223 -0.3829  0.5991  0.5838
  198MOL0    Cl26639  11.628   4.256   8.265  0.3454  0.1911 -0.1554
  198MOL0     C26640  10.981   4.723   7.308  0.0181  0.9880  0.2065
  198MOL0     C26641  11.058   4.749   7.197  0.0346 -0.5336  1.1020
  198MOL0     O26642  11.038   4.695   6.877  0.3694  0.2316 -0.6456
  198MOL0     C26643  11.182   4.830   6.685  0.0496 -0.9857 -0.2954
  198MOL0     C26644  11.271   4.904   6.604  0.4771 -0.5186  0.4729
  198MOL0     N26645  11.761   5.275   6.203 -0.4303  0.1066  0.3914
  198MOL0     N26646  11.853   5.281   6.113  0.1640  0.0532  0.1608
  198MOL0     C26647  11.852   6.306   5.525 -0.1986 -0.6885  0.0906
  198MOL0     C26648  11.777   6.423   5.523  0.3751 -1.2392  0.4793
  198MOL0     C26649  11.422   6.721   5.403 -0.1203  0.9461  0.4757
  198MOL0     C26650  11.509   6.822   5.351  0.2727 -0.8915 -0.2357
  198MOL0     C26651  11.458   6.954   5.333 -0.5338  0.1966 -0.1325
  198MOL0     C26652  11.334   6.986   5.369 -0.0739 -0.2561  0.1732
  198MOL0     O26653  11.292   7.113   5.343 -0.4923 -0.1458 -0.1164
  198MOL0     C26654  11.160   7.148   5.396 -0.4081 -0.0282 -0.1009
  198MOL0     C26655  11.116   7.290   5.375  0.2078 -0.4377 -0.1830
  198MOL0     C26656  11.142   7.347   5.234  0.1650  0.7190 -0.2196
  198MOL0     C26657  11.065   7.287   5.113  1.1979 -0.2692  0.3273
  198MOL0     C26658  11.106   7.148   5.087  0.4578 -0.0020 -0.6757
  198MOL0     C26659  11.143   7.030   5.097 -0.0550 -0.4213 -0.4435
  198MOL0     C26660  11.256   6.880   5.423  0.9187 -0.4565 -0.0891
  198MOL0     C26661  11.292   6.749   5.436 -0.2280 -0.0536 -0.6165
  198MOL0     C26662  11.189   6.662   5.492 -0.1391  0.0150 -0.8441
  198MOL0     H26663  11.538   6.312   5.304  1.0181 -1.8558 -1.0536
  198MOL0     H26664  11.659   6.120   5.318 -0.6515  3.2802 -2.4692
  198MOL0     H26665  11.797   5.927   5.334  0.2233 -0.5759  0.1247
  198MOL0     H26666  11.929   6.027   5.271  1.3355  1.1837  0.6533
  198MOL0     H26667  12.087   5.899   5.399  0.5771  2.0185 -3.1742
  198MOL0     H26668  11.979   5.794   5.305  1.5012  2.6770 -1.6806
  198MOL0     H26669  11.832   5.785   5.521 -0.2562  0.8102  2.2631
  198MOL0     H26670  11.971   5.855   5.605  3.3165  0.8151 -0.0074
  198MOL0     H26671  11.977   5.585   5.434  0.6962  4.2169 -2.6249
  198MOL0     H26672  12.113   5.654   5.529 -0.1241 -0.0672 -2.6805
  198MOL0     H26673  11.969   5.655   5.736  2.1455 -3.0358  2.9507
  198MOL0     H26674  11.849   5.566   5.649 -1.2719  1.3671  0.3191
  198MOL0     H26675  12.005   5.380   5.610  0.7419  0.9201 -1.0213
  198MOL0     H26676  12.114   5.445   5.733 -0.3437  1.6137 -1.5616
  198MOL0     H26677  11.960   5.277   5.839  0.9359  0.2461 -0.7393
  198MOL0     H26678  11.827   5.384   5.812 -0.3866 -0.7541  1.1227
  198MOL0     H26679  12.062   5.409   5.995 -0.4884 -0.5869  0.0607
  198MOL0     H26680  11.968   5.558   5.949 -0.8994  0.3192 -3.5168
  198MOL0     H26681  11.745   5.591   6.093 -0.6562 -0.4561 -0.9982
  198MOL0     H26682  11.610   5.498   6.370 -1.4894  2.5765 -1.6026
  198MOL0     H26683  11.521   5.514   6.226 -0.1987 -0.9575  0.0992
  198MOL0     H26684  11.395   5.384   6.371 -0.8004 -0.6255  0.0893
  198MOL0     H26685  11.447   5.286   6.230  0.3183  0.1984 -0.4947
  198MOL0     H26686  11.568   5.289   6.511  0.4308  2.0479 -0.7618
  198MOL0     H26687  11.616   5.172   6.370 -1.1463 -0.8456 -1.0394
  198MOL0     H26688  11.374   5.089   6.395  2.3116 -1.4994 -0.6686
  198MOL0     H26689  11.356   5.181   6.550  0.1121 -1.0880  1.4352
  198MOL0     H26690  11.544   4.938   6.781  0.6335  1.2392 -0.0368
  198MOL0     H26691  11.385   4.811   6.951 -0.1687 -0.7164 -0.2404
  198MOL0     H26692  11.166   4.419   7.150  2.7845 -1.0084  3.0526
  198MOL0     H26693  11.046   4.384   7.323 -3.8277  0.2157 -1.2203
  198MOL0     H26694  10.995   4.730   7.575  1.8478 -1.8335 -0.6480
  198MOL0     H26695  10.828   4.704   7.586  0.7691  1.3092  1.8348
  198MOL0     H26696  10.920   4.637   7.794  1.0898  2.8278 -1.4993
  198MOL0     H26697  10.880   4.482   7.717  0.9427  0.6542  1.5541
  198MOL0     H26698  11.085   4.413   7.691 -2.6729  0.5457 -1.2873
  198MOL0     H26699  11.159   4.575   7.674 -1.5372  2.5073  1.0538
  198MOL0     H26700  11.084   4.396   7.909  1.9722 -1.1611 -0.0060
  198MOL0     H26701  11.122   4.579   7.931 -0.6541 -1.8793  3.0639
  198MOL0     H26702  11.356   4.526   7.858 -1.1471  1.7176 -0.3790
  198MOL0     H26703  11.297   4.352   7.836  0.9545  1.1056 -0.2387
  198MOL0     H26704  11.308   4.503   8.097  1.7523  1.1757 -1.4105
  198MOL0     H26705  11.214   4.361   8.068  0.6021 -2.6168 -2.0274
  198MOL0     H26706  11.513   4.401   8.037 -0.8206  0.1975 -2.7569
  198MOL0     H26707  11.434   4.237   8.016  0.4436 -1.3890  1.5674
  198MOL0     H26708  11.428   4.400   8.275  2.3377  1.3267  0.4316
  198MOL0     H26709  11.366   4.235   8.244 -0.5979  1.3460  2.4627
  198MOL0     H26710  10.917   4.795   7.357 -2.0735 -0.3611 -0.4262
  198MOL0     H26711  11.058   4.850   7.157  3.5195 -0.0366  2.0437
  198MOL0     H26712  11.082   4.814   6.647 -0.3045  0.9365 -0.2944
  198MOL0     H26713  11.237   4.923   6.502  0.2039  2.7688  1.0847
  198MOL0     H26714  11.936   6.300   5.593  0.2942  1.1135 -0.3154
  198MOL0     H26715  11.792   6.508   5.589 -1.8628  1.6946 -2.4602
  198MOL0     H26716  11.609   6.809   5.311  1.1823 -1.0743  1.9507
  198MOL0     H26717  11.512   7.038   5.289  1.8567 -1.1576  0.0848
  198MOL0     H26718  11.156   7.135   5.504  2.2121  0.2084  0.0867
  198MOL0     H26719  11.082   7.085   5.352  1.9408 -1.9491 -1.7608
  198MOL0     H26720  11.174   7.350   5.446 -0.3069  0.3106 -0.3862
  198MOL0     H26721  11.012   7.301   5.408  0.0799  1.1033 -1.0161
  198MOL0     H26722  11.248   7.333   5.212 -0.7217 -3.1678 -2.9865
  198MOL0     H26723  11.138   7.456   5.241 -0.0762  0.6802  0.3334
  198MOL0     H26724  10.958   7.271   5.130  0.3750  0.7522 -3.0111
  198MOL0     H26725  11.079   7.347   5.022  1.5177 -0.0792  0.5002
  198MOL0     H26726  11.156   6.923   5.101  1.8013 -0.5312 -4.2903
  198MOL0     H26727  11.152   6.905   5.443  0.2257  1.0137 -4.4094
  198MOL0     H26728  11.127   6.624   5.410 -3.4784  1.0024  1.0236
  198MOL0     H26729  11.230   6.581   5.553  1.3878  0.2098 -1.5601
  198MOL0     H26730  11.116   6.715   5.554  0.8034  1.6437 -1.0601
  199MOL0     O26731  10.284  10.324  10.105 -0.3275  0.3095 -0.2404
  199MOL0     C26732  10.265  10.445  10.081  0.5220  0.2630 -0.1344
  199MOL0     O26733  10.244  10.542  10.173 -0.0638 -0.6487  0.4761
  199MOL0     C26734  10.289  10.531  10.304  0.4195 -0.3001 -0.9737
  199MOL0     C26735  10.306  10.654  10.371  0.8454 -0.4315 -0.5141
  199MOL0     C26736  10.338  10.663  10.504  0.1934 -0.5803  0.4885
  199MOL0     C26737  10.340  10.547  10.587 -0.6568 -0.6943 -0.5298
  199MOL0     O26738  10.370  10.551  10.717 -0.9749 -0.3529  0.4288
  199MOL0     C26739  10.392  10.678  10.778 -0.1093  0.4997  0.2723
  199MOL0     C26740  10.459  10.669  10.909  0.3466 -0.5062  0.4254
  199MOL0     C26741  10.614  10.639  10.891 -0.7593 -0.1474  0.9581
  199MOL0     C26742  10.650  10.490  10.854  0.1411 -0.6498 -0.1339
  199MOL0     C26743  10.796  10.470  10.885  0.8971  0.8224 -0.0188
  199MOL0     C26744  10.901  10.555  10.798  0.1413 -0.0597  0.1852
  199MOL0     C26745  10.887  10.524  10.644 -0.1008  0.9212  0.0343
  199MOL0     C26746  10.789  10.620  10.564  0.6455 -0.8006  0.4719
  199MOL0     N26747  10.757  10.566  10.432  0.3711 -1.1799  0.2755
  199MOL0     C26748  10.665  10.474  10.404 -0.3683 -0.3022  0.0690
  199MOL0     C26749  10.673  10.449  10.275 -0.7026 -1.3943 -0.5143
  199MOL0     C26750  10.598  10.343  10.204 -0.6454  0.3276 -0.8278
  199MOL0     C26751  10.686  10.221  10.175 -0.8514 -0.2989 -0.7023
  199MOL0     C26752  10.609  10.110  10.093 -0.6868 -0.0643 -0.7021
  199MOL0     C26753  10.713  10.016  10.047  0.8114 -0.7430  0.1982
  199MOL0     O26754  10.773   9.942  10.157  0.5294  0.3830 -0.4096
  199MOL0     C26755  10.874   9.851  10.122  0.3837  0.1142 -1.0863
  199MOL0     C26756  10.961   9.836  10.233 -0.2174  0.1776  0.3688
  199MOL0     C26757  11.068   9.743  10.214 -0.9102  1.2178 -0.0576
  199MOL0     C26758  11.079   9.670  10.093  0.2514  0.4313  0.5193
  199MOL0     C26759  11.194   9.572  10.068  0.7310  0.5378 -0.1785
  199MOL0     O26760  11.296   9.584  10.158  0.3134 -0.1835  0.0165
  199MOL0     C26761  11.392   9.485  10.150  0.2537  0.3985 -0.2006
  199MOL0     C26762  11.511   9.501  10.084 -0.3709 -0.0990 -0.4448
  199MOL0     C26763  11.603   9.400  10.082 -0.2515 -0.3180  0.2249
  199MOL0     C26764  11.592   9.283  10.157 -0.4195 -0.5780  0.2425
  199MOL0     O26765  11.693   9.192  10.146 -0.3827  0.5423  1.0065
  199MOL0     C26766  11.700   9.067  10.221 -0.2149 -0.9530 -1.2900
  199MOL0     C26767  11.717   8.949  10.138 -0.0498 -0.3152 -0.4060
  199MOL0     C26768  11.642   8.972  10.004  0.7356 -0.4110 -0.2750
  199MOL0     C26769  11.655   8.843   9.924  0.5219  0.6362  0.2468
  199MOL0     C26770  11.531   8.755   9.943 -0.6491  0.9632  0.2760
  199MOL0     C26771  11.574   8.609   9.900 -0.4954  0.2493  0.5297
  199MOL0     C26772  11.473   8.516   9.952 -0.3299 -0.3785 -1.1934
  199MOL0     C26773  11.500   8.373   9.886 -0.0018  0.0017 -0.9924
  199MOL0    Cl26774  11.366   8.255   9.913  0.0935 -0.3045 -0.2081
  199MOL0     C26775  11.467   9.261  10.225  0.7600  0.1592  0.0527
  199MOL0     C26776  11.371   9.363  10.208  0.8354 -1.1386  0.1768
  199MOL0     O26777  11.167   9.471   9.992 -0.4397  0.9744 -0.6046
  199MOL0     C26778  10.990   9.691   9.989 -0.0653 -0.2024 -0.5466
  199MOL0     C26779  10.889   9.785  10.005 -0.3011 -0.4099  0.6266
  199MOL0     N26780  10.773  10.530  10.222  0.0313 -1.5793  0.5163
  199MOL0     N26781  10.829  10.599  10.318 -0.6017  0.6947  0.3568
  199MOL0     C26782  10.311  10.429  10.519 -0.3763  0.7307 -0.8110
  199MOL0     C26783  10.274  10.419  10.385 -0.3282  1.1383  0.5325
  199MOL0     C26784  10.266  10.488   9.940  0.2428 -0.1235  0.1443
  199MOL0     C26785  10.250  10.629   9.906 -0.5941 -0.2123 -1.0174
  199MOL0     C26786  10.243  10.683   9.781  0.6799  0.0542  0.3691
  199MOL0     C26787  10.260  10.596   9.666 -0.3610 -0.8043  1.1300
  199MOL0     O26788  10.255  10.628   9.536  0.5670  0.0303  0.2789
  199MOL0     C26789  10.258  10.532   9.414 -0.3118  0.4765  0.1018
  199MOL0     C26790  10.293  10.634   9.293 -0.2707  0.2097  0.0568
  199MOL0     C26791  10.283  10.562   9.160 -0.5316  0.6815 -0.4962
  199MOL0     C26792  10.315  10.651   9.042  0.2676 -0.8668  1.2929
  199MOL0     C26793  10.198  10.714   8.980 -0.9858  0.2897 -0.7317
  199MOL0     C26794  10.103  10.751   8.928  0.0757 -0.0400  0.1581
  199MOL0     C26795  10.274  10.453   9.693  0.6201 -0.6187  0.6619
  199MOL0     C26796  10.266  10.403   9.822  0.3305  0.0922  0.4443
  199MOL0     C26797  10.276  10.253   9.836  0.4599  0.0666  0.1916
  199MOL0     H26798  10.286  10.744  10.313  2.3247  1.4904  1.7516
  199MOL0     H26799  10.348  10.769  10.529 -1.0814 -0.6099  1.2236
  199MOL0     H26800  10.457  10.736  10.712 -1.2908 -1.4692 -2.8291
  199MOL0     H26801  10.299  10.731  10.799 -1.0032 -0.3386 -1.4051
  199MOL0     H26802  10.413  10.597  10.976 -0.0827  0.6411  1.4035
  199MOL0     H26803  10.448  10.760  10.970  1.6742 -1.2681  1.8562
  199MOL0     H26804  10.658  10.662  10.989  3.2745  0.6573 -0.8391
  199MOL0     H26805  10.661  10.702  10.815  1.6878  0.2706  2.7221
  199MOL0     H26806  10.581  10.440  10.922 -2.7370  3.1644  0.0645
  199MOL0     H26807  10.621  10.462  10.752  0.7673 -1.1766 -0.1775
  199MOL0     H26808  10.799  10.488  10.993 -2.8845  1.8777  0.0375
  199MOL0     H26809  10.825  10.366  10.869  2.5834  1.6477 -3.3724
  199MOL0     H26810  10.892  10.662  10.815 -0.1342 -0.3224  1.8390
  199MOL0     H26811  11.001  10.537  10.838 -0.2478  0.4169  1.4241
  199MOL0     H26812  10.856  10.422  10.621 -0.3755  1.4792 -2.3038
  199MOL0     H26813  10.985  10.515  10.598 -0.1014 -1.1101  0.3426
  199MOL0     H26814  10.694  10.638  10.615  0.9011 -1.7176  1.2912
  199MOL0     H26815  10.837  10.714  10.535  1.6541 -1.5527 -0.3940
  199MOL0     H26816  10.598  10.437  10.481  0.3223  1.7138  1.7639
  199MOL0     H26817  10.527  10.308  10.280 -1.8990 -2.6425 -3.1878
  199MOL0     H26818  10.547  10.381  10.115 -0.3795 -0.6832 -1.4258
  199MOL0     H26819  10.762  10.267  10.111  0.3008  1.8404  1.9889
  199MOL0     H26820  10.725  10.184  10.270  0.1233 -1.7732 -1.6334
  199MOL0     H26821  10.548  10.143  10.009  1.5632 -0.2938 -2.5530
  199MOL0     H26822  10.546  10.054  10.162 -2.5233  0.1272 -2.1599
  199MOL0     H26823  10.782  10.080   9.991  0.5277  1.7204  2.4466
  199MOL0     H26824  10.655   9.956   9.976 -1.3867 -1.1229  2.1717
  199MOL0     H26825  10.962   9.910  10.312  1.3378  0.5193  0.0585
  199MOL0     H26826  11.142   9.723  10.291 -3.1112  0.3125  1.9278
  199MOL0     H26827  11.548   9.595  10.045  2.4952 -1.0574 -0.2289
  199MOL0     H26828  11.688   9.422  10.019  0.5045 -0.5998  1.1219
  199MOL0     H26829  11.773   9.074  10.302  1.9148 -2.5805 -2.9633
  199MOL0     H26830  11.604   9.051  10.271 -0.0702  1.5451 -0.0375
  199MOL0     H26831  11.824   8.935  10.122  0.6134  2.3198  1.0582
  199MOL0     H26832  11.674   8.861  10.187 -1.4556  0.1980 -0.6621
  199MOL0     H26833  11.541   9.007  10.027  0.6448 -0.9291  0.1127
  199MOL0     H26834  11.689   9.054   9.947 -3.7023  1.7803 -1.2761
  199MOL0     H26835  11.743   8.788   9.958  0.8346  1.2999  0.5363
  199MOL0     H26836  11.669   8.861   9.817 -0.5317  0.7344  0.1153
  199MOL0     H26837  11.440   8.793   9.896 -1.6170  3.2026  3.5386
  199MOL0     H26838  11.507   8.758  10.050 -3.1143  1.5157 -0.2244
  199MOL0     H26839  11.593   8.597   9.793  4.7303  1.0776  1.1022
  199MOL0     H26840  11.673   8.588   9.943  1.1969  1.1232 -2.6790
  199MOL0     H26841  11.375   8.560   9.932 -0.7496  0.7849  2.5968
  199MOL0     H26842  11.484   8.505  10.061  2.9582 -1.5343 -1.5190
  199MOL0     H26843  11.513   8.388   9.778 -1.6196  2.8187 -0.8910
  199MOL0     H26844  11.592   8.325   9.921 -0.0632 -0.4104 -1.3753
  199MOL0     H26845  11.434   9.180  10.290  0.4261 -1.4933 -2.0598
  199MOL0     H26846  11.279   9.352  10.265 -0.0057  1.1856 -0.6146
  199MOL0     H26847  11.004   9.631   9.899  1.3652 -0.4870 -0.1457
  199MOL0     H26848  10.817   9.802   9.925  2.0084  2.0365 -1.1206
  199MOL0     H26849  10.306  10.338  10.578 -1.4147  1.0329 -0.4069
  199MOL0     H26850  10.245  10.317  10.359  2.5647 -0.1035  1.7337
  199MOL0     H26851  10.230  10.705   9.981 -2.6074 -0.2638 -1.4365
  199MOL0     H26852  10.202  10.783   9.768  0.1450  0.0370  1.8020
  199MOL0     H26853  10.156  10.495   9.400  0.1350 -0.4994 -0.6849
  199MOL0     H26854  10.329  10.449   9.418 -1.8610 -0.8770  2.5655
  199MOL0     H26855  10.398  10.659   9.308 -1.0153  1.9303  3.7581
  199MOL0     H26856  10.233  10.725   9.295 -0.8058 -0.1454  1.5739
  199MOL0     H26857  10.182  10.521   9.146 -0.7684  1.8925 -2.6317
  199MOL0     H26858  10.353  10.478   9.166  1.5445  2.2769 -1.2924
  199MOL0     H26859  10.386  10.724   9.082 -0.4460 -1.4029  3.6993
  199MOL0     H26860  10.353  10.609   8.949 -0.0984  1.8893 -0.1900
  199MOL0     H26861  10.025  10.790   8.867  0.6563  0.2313 -0.4243
  199MOL0     H26862  10.277  10.386   9.608  1.1442 -0.4045  0.5098
  199MOL0     H26863  10.199  10.204   9.898  0.7664 -0.2469  0.3299
  199MOL0     H26864  10.279  10.194   9.744  4.6104  0.5752 -0.1769
  199MOL0     H26865  10.372  10.235   9.885  0.1336  0.1648  0.8737
  200MOL0     O26866   5.758   9.851   6.082 -0.6847  0.1708 -0.0250
  200MOL0     C26867   5.676   9.938   6.093 -1.3678 -0.4007 -0.1171
  200MOL0     O26868   5.624   9.985   6.218  0.0157 -0.0346 -0.6369
  200MOL0     C26869   5.645   9.895   6.331  0.2251 -0.3630  0.5357
  200MOL0     C26870   5.741   9.920   6.435  1.1246  0.7395 -0.7542
  200MOL0     C26871   5.754   9.820   6.530 -0.8907  0.1763  0.9139
  200MOL0     C26872   5.690   9.700   6.523 -0.4234 -0.4247  0.5722
  200MOL0     O26873   5.721   9.592   6.610  1.5856 -0.2268  0.1494
  200MOL0     C26874   5.715   9.617   6.747  0.4855  0.4843  0.2654
  200MOL0     C26875   5.760   9.491   6.821 -0.2164  0.9901  1.3633
  200MOL0     C26876   5.876   9.407   6.749 -0.1069  0.2916 -0.6446
  200MOL0     C26877   5.926   9.304   6.851  0.3211  0.2906  0.2105
  200MOL0     C26878   6.026   9.201   6.805  0.9810  0.3747 -0.4344
  200MOL0     C26879   5.963   9.063   6.763  0.0981 -0.1119  0.1207
  200MOL0     C26880   6.055   8.938   6.767 -0.9526 -0.8671 -0.4217
  200MOL0     C26881   6.168   8.947   6.661  0.3525 -0.9238 -0.7146
  200MOL0     N26882   6.296   9.017   6.715  0.7232  0.6617  0.6119
  200MOL0     C26883   6.398   8.950   6.774 -0.7491  0.7115 -0.2223
  200MOL0     C26884   6.482   9.034   6.828  0.3010 -0.4448  0.6239
  200MOL0     C26885   6.607   8.994   6.898  0.3040  0.4720 -1.2043
  200MOL0     C26886   6.668   8.863   6.855  0.8172  0.4281 -0.1149
  200MOL0     C26887   6.698   8.851   6.702 -0.5290  0.5443  0.6295
  200MOL0     C26888   6.808   8.740   6.672  0.3968 -0.6378  0.6686
  200MOL0     O26889   6.924   8.799   6.739  0.0780  0.0266  0.7259
  200MOL0     C26890   7.051   8.732   6.733  1.1166 -0.0152 -0.8324
  200MOL0     C26891   7.151   8.783   6.804 -0.7900  0.1629  0.6985
  200MOL0     C26892   7.280   8.739   6.812 -0.6382  0.4591  0.7676
  200MOL0     C26893   7.318   8.637   6.728 -0.4472 -0.7044 -0.4474
  200MOL0     C26894   7.454   8.593   6.738 -0.3306  1.4951  0.0607
  200MOL0     O26895   7.536   8.639   6.840  0.6690 -0.0741 -0.5181
  200MOL0     C26896   7.661   8.587   6.835  0.3278 -0.4209 -0.1530
  200MOL0     C26897   7.705   8.464   6.878 -0.5812 -0.7376  0.6096
  200MOL0     C26898   7.824   8.404   6.837  0.4621  0.1115 -0.7967
  200MOL0     C26899   7.910   8.466   6.754 -0.7849 -1.2109  0.6695
  200MOL0     O26900   8.023   8.390   6.717 -0.7243 -0.0603  0.0301
  200MOL0     C26901   8.084   8.422   6.587 -0.4413  0.2694  0.0120
  200MOL0     C26902   8.200   8.342   6.554 -0.9185 -0.7471 -0.3978
  200MOL0     C26903   8.159   8.196   6.532  0.4618  0.7541 -0.3961
  200MOL0     C26904   8.276   8.094   6.553  0.5193 -0.0121  0.5051
  200MOL0     C26905   8.226   7.975   6.479 -0.4898 -0.0879  1.1739
  200MOL0     C26906   8.126   7.887   6.538 -0.7109 -0.7467 -0.3986
  200MOL0     C26907   8.078   7.762   6.458 -0.7284 -1.9682 -0.8369
  200MOL0     C26908   7.967   7.782   6.351 -0.3023  0.1748  0.9878
  200MOL0    Cl26909   7.802   7.817   6.435  0.0094 -0.0912  0.4216
  200MOL0     C26910   7.873   8.598   6.700  0.2412  0.4979  0.2188
  200MOL0     C26911   7.752   8.655   6.749 -0.2442  0.6112  0.3345
  200MOL0     O26912   7.495   8.509   6.654 -0.1359  0.4991 -0.3702
  200MOL0     C26913   7.214   8.581   6.655 -0.5457  0.0898  1.4323
  200MOL0     C26914   7.083   8.623   6.652 -0.2041 -0.3272  0.4879
  200MOL0     N26915   6.420   9.157   6.812  0.3794 -0.0345  0.4726
  200MOL0     N26916   6.321   9.142   6.726 -0.1162 -0.4537  0.9306
  200MOL0     C26917   5.611   9.680   6.412  0.6250 -0.6357  0.1597
  200MOL0     C26918   5.583   9.773   6.318 -0.5938  0.1998 -0.8563
  200MOL0     C26919   5.639  10.019   5.971 -0.5841  0.8246  0.3284
  200MOL0     C26920   5.584   9.943   5.864 -0.0784 -0.0046  0.2702
  200MOL0     C26921   5.562  10.011   5.746  0.8589 -0.3207  0.2638
  200MOL0     C26922   5.548  10.148   5.740  0.5916 -0.7428  0.4811
  200MOL0     O26923   5.494  10.193   5.626  0.5085 -0.1516 -0.4196
  200MOL0     C26924   5.498  10.342   5.605  1.2733 -0.3687  0.0006
  200MOL0     C26925   5.440  10.363   5.461  0.1799  0.0311 -0.5501
  200MOL0     C26926   5.329  10.257   5.414  0.5918  0.3438 -1.3446
  200MOL0     C26927   5.245  10.315   5.306  0.1370 -0.2769  0.8719
  200MOL0     C26928   5.328  10.298   5.185 -0.0240 -0.2452 -0.3713
  200MOL0     C26929   5.388  10.270   5.087 -1.4383  0.0934  0.1656
  200MOL0     C26930   5.589  10.223   5.851  0.0909 -1.0390  0.4095
  200MOL0     C26931   5.632  10.156   5.970  0.0262 -0.1204  0.0824
  200MOL0     C26932   5.673  10.241   6.081  0.4384 -0.1380  0.4349
  200MOL0     H26933   5.794  10.015   6.436  1.6491  0.4462 -0.1113
  200MOL0     H26934   5.831   9.820   6.607 -1.9097  0.0926  1.9505
  200MOL0     H26935   5.791   9.691   6.776  2.8164 -1.1603 -1.2467
  200MOL0     H26936   5.615   9.655   6.770 -0.2445 -0.1592 -1.6711
  200MOL0     H26937   5.674   9.425   6.840  0.9119 -0.2632  2.2460
  200MOL0     H26938   5.780   9.529   6.921  0.7610 -0.0832  1.5934
  200MOL0     H26939   5.956   9.470   6.709  2.3052 -2.4628 -0.4243
  200MOL0     H26940   5.832   9.351   6.667  1.7380 -1.3522 -0.5756
  200MOL0     H26941   5.977   9.363   6.927  2.3444  1.5339 -1.9578
  200MOL0     H26942   5.834   9.254   6.883  0.9418 -0.3478  1.0405
  200MOL0     H26943   6.090   9.239   6.726  1.1810  1.7223  0.3435
  200MOL0     H26944   6.097   9.193   6.888  0.2081  1.1485  0.3306
  200MOL0     H26945   5.891   9.030   6.838  1.7138 -2.3978  0.7826
  200MOL0     H26946   5.936   9.086   6.659 -0.7952 -3.1332 -0.4145
  200MOL0     H26947   5.994   8.848   6.754 -2.3974 -0.0939  0.7206
  200MOL0     H26948   6.108   8.929   6.862  0.0554 -3.4279 -1.1403
  200MOL0     H26949   6.188   8.844   6.631 -0.2682 -1.0233 -0.8122
  200MOL0     H26950   6.138   9.015   6.581  2.2332  0.2046 -0.5181
  200MOL0     H26951   6.418   8.845   6.795  2.3602  1.6457  2.0734
  200MOL0     H26952   6.679   9.076   6.901  3.5095 -2.1307  1.2629
  200MOL0     H26953   6.588   8.970   7.003  0.3196  1.6996 -0.9076
  200MOL0     H26954   6.762   8.844   6.908 -1.1616 -1.6254  2.9962
  200MOL0     H26955   6.602   8.778   6.873 -0.1344 -0.5277 -6.0802
  200MOL0     H26956   6.744   8.938   6.653 -1.6968  0.5676 -0.4938
  200MOL0     H26957   6.615   8.833   6.633  1.5225  0.7826 -2.0717
  200MOL0     H26958   6.828   8.745   6.565 -2.7858  1.7626  0.0386
  200MOL0     H26959   6.770   8.642   6.700 -1.1578  0.4641  2.7613
  200MOL0     H26960   7.130   8.865   6.872  0.9198 -0.3386  1.8682
  200MOL0     H26961   7.352   8.798   6.868  0.9738  0.9211 -1.6735
  200MOL0     H26962   7.636   8.419   6.949 -3.6409  1.7051 -0.5877
  200MOL0     H26963   7.847   8.307   6.880  0.2611  1.2360  2.0578
  200MOL0     H26964   8.011   8.422   6.506 -1.8518  0.6622  1.2228
  200MOL0     H26965   8.123   8.524   6.587  3.3091 -0.9803 -1.7882
  200MOL0     H26966   8.253   8.382   6.467  1.5089  2.3318  2.2414
  200MOL0     H26967   8.268   8.360   6.639 -0.8021 -1.1268 -0.4073
  200MOL0     H26968   8.081   8.175   6.605 -0.4767  1.7765 -1.0687
  200MOL0     H26969   8.115   8.186   6.432  0.7951 -2.1051 -0.3358
  200MOL0     H26970   8.281   8.076   6.661  0.4346  2.5718  1.0192
  200MOL0     H26971   8.368   8.129   6.505 -0.5046  0.3679 -1.2882
  200MOL0     H26972   8.314   7.925   6.438 -0.0120  2.8558 -1.9293
  200MOL0     H26973   8.180   8.006   6.384 -1.0087 -2.5747  0.5440
  200MOL0     H26974   8.189   7.848   6.618  0.8553  1.6823 -0.3251
  200MOL0     H26975   8.047   7.946   6.585 -0.2812 -2.1102  2.1751
  200MOL0     H26976   8.046   7.700   6.542  2.3984 -1.0875  1.2021
  200MOL0     H26977   8.173   7.716   6.427  0.1501 -1.4610  0.9291
  200MOL0     H26978   7.990   7.853   6.270 -1.6381 -1.6955 -1.1711
  200MOL0     H26979   7.967   7.694   6.287 -1.1703  1.9040 -1.5716
  200MOL0     H26980   7.943   8.640   6.629 -0.5272  2.3332  0.5062
  200MOL0     H26981   7.729   8.752   6.707  2.2768  1.5588  0.9739
  200MOL0     H26982   7.241   8.497   6.592 -1.2251 -1.9887  3.7608
  200MOL0     H26983   7.009   8.560   6.603  2.2109 -1.7987 -1.5018
  200MOL0     H26984   5.564   9.582   6.404 -0.2380 -0.1635 -0.9133
  200MOL0     H26985   5.507   9.753   6.243 -1.3438  0.2949 -0.1454
  200MOL0     H26986   5.587   9.835   5.860  2.0897  0.0503 -2.3180
  200MOL0     H26987   5.525   9.952   5.663 -0.5136 -0.2296  0.7986
  200MOL0     H26988   5.597  10.387   5.613  0.3194  2.1307 -1.3640
  200MOL0     H26989   5.440  10.395   5.680 -1.8454  0.2114 -2.5841
  200MOL0     H26990   5.511  10.398   5.385  0.9009  2.3398  1.0567
  200MOL0     H26991   5.382  10.456   5.469 -1.5956 -0.9413 -1.4653
  200MOL0     H26992   5.256  10.234   5.493  0.5240  0.7301 -1.2950
  200MOL0     H26993   5.386  10.165   5.397 -0.4886 -0.4106 -0.9853
  200MOL0     H26994   5.159  10.250   5.292  2.5619 -3.3807 -1.0208
  200MOL0     H26995   5.221  10.420   5.328 -0.6817 -0.3140  0.1856
  200MOL0     H26996   5.456  10.252   5.006  1.9551 -0.9168  3.0046
  200MOL0     H26997   5.598  10.331   5.852 -1.2328 -0.8608 -1.3712
  200MOL0     H26998   5.707  10.339   6.047 -0.7663 -0.8726 -3.3312
  200MOL0     H26999   5.589  10.270   6.145 -0.9349  1.5421 -1.9891
  200MOL0     H27000   5.762  10.197   6.128  1.1547  2.7558  2.0080
  201MOL0     O27001   3.276   3.803   4.733 -0.3696  0.1331  0.0789
  201MOL0     C27002   3.306   3.691   4.710  0.5605 -0.8970 -0.2920
  201MOL0     O27003   3.401   3.625   4.776 -0.2139  0.2162  0.0992
  201MOL0     C27004   3.454   3.685   4.897  0.3415 -0.9786 -0.0676
  201MOL0     C27005   3.375   3.732   5.002 -0.1130  0.1568 -0.0066
  201MOL0     C27006   3.438   3.790   5.113  0.0753  0.2139 -0.1450
  201MOL0     C27007   3.577   3.797   5.123 -0.0747  0.4216  0.7755
  201MOL0     O27008   3.635   3.855   5.232  0.5425  0.6097  0.5772
  201MOL0     C27009   3.730   3.781   5.306 -0.7104  0.4601  0.4300
  201MOL0     C27010   3.644   3.670   5.378 -0.0440  0.3123 -0.4292
  201MOL0     C27011   3.566   3.721   5.496  1.2679  0.0273  0.5160
  201MOL0     C27012   3.647   3.753   5.617  0.4242 -0.3895 -0.4302
  201MOL0     C27013   3.660   3.900   5.656  0.5004 -0.5402  0.2497
  201MOL0     C27014   3.738   3.910   5.790 -0.2517  0.2662 -0.0261
  201MOL0     C27015   3.875   3.844   5.790  0.5796  0.0693  0.2610
  201MOL0     C27016   3.951   3.874   5.657  0.2907 -0.5513  0.0482
  201MOL0     N27017   4.079   3.813   5.678 -0.2100  0.3394  0.6296
  201MOL0     C27018   4.176   3.858   5.764  0.1718 -0.0944 -0.5797
  201MOL0     C27019   4.273   3.766   5.756 -0.2004  0.0528  0.3799
  201MOL0     C27020   4.412   3.777   5.822 -0.4460 -0.4291  0.6865
  201MOL0     C27021   4.425   3.897   5.910 -0.5419 -0.1129  0.8978
  201MOL0     C27022   4.552   3.922   5.982 -0.9002  0.2326  0.8500
  201MOL0     C27023   4.562   4.060   6.046 -0.8827  0.1779 -1.2383
  201MOL0     O27024   4.524   4.167   5.958 -0.1863  0.4221  0.0151
  201MOL0     C27025   4.595   4.181   5.842  0.5221 -0.6816 -0.2014
  201MOL0     C27026   4.730   4.149   5.840  0.0545 -0.4275  0.0792
  201MOL0     C27027   4.803   4.169   5.722 -0.0929  0.8460 -0.1480
  201MOL0     C27028   4.749   4.232   5.613  0.2091 -0.5608  0.0966
  201MOL0     C27029   4.831   4.272   5.496 -0.1787 -0.2016 -0.8924
  201MOL0     O27030   4.961   4.211   5.491  1.1429  0.0522 -0.5266
  201MOL0     C27031   5.034   4.223   5.382  0.7589 -0.1063  0.2432
  201MOL0     C27032   4.997   4.156   5.259  0.5254  0.5013 -1.2416
  201MOL0     C27033   5.078   4.172   5.147 -0.5223 -0.0536  0.0073
  201MOL0     C27034   5.190   4.254   5.154 -0.2852  1.2508  0.7073
  201MOL0     O27035   5.264   4.247   5.035  0.0581 -0.2093  0.3578
  201MOL0     C27036   5.402   4.216   5.066 -0.4462  0.2594 -0.2538
  201MOL0     C27037   5.482   4.217   4.932  0.5258 -1.3278 -0.4808
  201MOL0     C27038   5.385   4.200   4.812 -0.0604  0.0873 -0.5416
  201MOL0     C27039   5.433   4.141   4.677 -1.6935 -0.2681  0.7205
  201MOL0     C27040   5.327   4.148   4.557  0.6788  0.4685  1.0156
  201MOL0     C27041   5.222   4.041   4.584 -0.0796  0.0014  0.4381
  201MOL0     C27042   5.124   4.036   4.472  0.3070 -0.0818  0.8178
  201MOL0     C27043   5.185   3.968   4.343 -0.3112  0.1559  0.0805
  201MOL0    Cl27044   5.207   3.789   4.376 -0.4102 -0.2458  0.1549
  201MOL0     C27045   5.239   4.307   5.273 -0.3285 -0.2417 -0.2625
  201MOL0     C27046   5.155   4.299   5.383  0.5204 -0.0405  0.9378
  201MOL0     O27047   4.787   4.338   5.409  0.0515  0.1566  0.1172
  201MOL0     C27048   4.606   4.254   5.609  0.4321 -1.2191  0.2304
  201MOL0     C27049   4.532   4.230   5.725  0.1495  0.1010 -0.1831
  201MOL0     N27050   4.237   3.660   5.668  0.2767 -0.4805 -0.5191
  201MOL0     N27051   4.120   3.692   5.618 -0.2047 -0.3884 -0.5782
  201MOL0     C27052   3.658   3.755   5.009  0.6479 -0.6527 -0.8683
  201MOL0     C27053   3.593   3.695   4.911  0.0915 -0.0893 -1.1069
  201MOL0     C27054   3.213   3.632   4.612  0.2355  0.0660  1.7208
  201MOL0     C27055   3.094   3.697   4.564 -0.0779  0.3857  0.3571
  201MOL0     C27056   3.000   3.636   4.484  0.1377  0.7071  0.7217
  201MOL0     C27057   3.021   3.511   4.433 -0.3834 -0.3517  0.5248
  201MOL0     O27058   2.931   3.450   4.350  0.7726  0.8392  0.1845
  201MOL0     C27059   2.790   3.488   4.351 -0.3584  0.5677 -0.0676
  201MOL0     C27060   2.738   3.579   4.237 -0.4148 -1.4596  0.4140
  201MOL0     C27061   2.768   3.542   4.091  0.6231 -0.0492 -0.5607
  201MOL0     C27062   2.748   3.661   3.996  0.1548 -0.2426  0.0441
  201MOL0     C27063   2.768   3.618   3.857 -0.4190 -1.5035  0.4647
  201MOL0     C27064   2.786   3.590   3.739  0.4732  0.5304 -0.2381
  201MOL0     C27065   3.136   3.450   4.460 -0.0398  0.1702 -0.3362
  201MOL0     C27066   3.239   3.503   4.554  0.5371  0.2619 -0.5200
  201MOL0     C27067   3.363   3.422   4.585 -0.8294 -0.4472 -0.6257
  201MOL0     H27068   3.268   3.739   4.987  0.0914 -0.0226 -1.6984
  201MOL0     H27069   3.380   3.840   5.191 -3.4263  1.6447 -3.3641
  201MOL0     H27070   3.807   3.730   5.248 -0.7111 -0.9713  1.6221
  201MOL0     H27071   3.765   3.845   5.388  0.1547  1.0866 -0.4208
  201MOL0     H27072   3.717   3.595   5.411  2.6163  1.4364 -3.2844
  201MOL0     H27073   3.584   3.619   5.302  2.7883  0.2949 -2.8107
  201MOL0     H27074   3.495   3.641   5.522  0.5580 -0.6381 -2.9146
  201MOL0     H27075   3.500   3.797   5.453  1.4265 -1.2405 -2.2047
  201MOL0     H27076   3.607   3.709   5.708  0.1972  3.1904  1.3405
  201MOL0     H27077   3.744   3.708   5.593  0.5159 -0.4025 -0.0265
  201MOL0     H27078   3.698   3.958   5.571 -3.1019 -1.1844 -2.0148
  201MOL0     H27079   3.562   3.948   5.664 -0.2469 -1.6375 -1.6131
  201MOL0     H27080   3.742   4.015   5.820  0.1092  1.1403 -2.8306
  201MOL0     H27081   3.683   3.861   5.871  0.0614 -2.4577 -1.3478
  201MOL0     H27082   3.856   3.737   5.792  1.0952 -0.1447 -2.2430
  201MOL0     H27083   3.939   3.872   5.874  1.6796 -3.7309  0.8418
  201MOL0     H27084   3.897   3.836   5.570 -1.2363  2.2717 -0.3751
  201MOL0     H27085   3.979   3.977   5.634  0.2276 -0.7845 -1.1351
  201MOL0     H27086   4.178   3.951   5.819  1.1621 -1.0270  1.0451
  201MOL0     H27087   4.431   3.687   5.881  2.3472  0.6377  1.5571
  201MOL0     H27088   4.494   3.777   5.750  0.7365 -1.0298  1.9874
  201MOL0     H27089   4.405   3.979   5.840  0.2311 -0.1560  0.6191
  201MOL0     H27090   4.347   3.901   5.986 -0.7753  0.6937  0.6318
  201MOL0     H27091   4.635   3.906   5.911 -0.7207 -1.1109  1.3409
  201MOL0     H27092   4.557   3.838   6.051  1.4084 -2.9704 -2.7788
  201MOL0     H27093   4.659   4.078   6.093 -1.2642  0.7869 -0.6546
  201MOL0     H27094   4.485   4.058   6.124  0.0109 -4.4927 -0.1672
  201MOL0     H27095   4.773   4.106   5.930 -0.8014 -1.9552 -0.2068
  201MOL0     H27096   4.909   4.144   5.718  0.1378  1.4808  1.3619
  201MOL0     H27097   4.907   4.096   5.262 -0.4116  1.8899 -0.8098
  201MOL0     H27098   5.055   4.121   5.053 -2.4573  1.4966 -0.4092
  201MOL0     H27099   5.448   4.291   5.132 -2.7070  0.8007  0.7960
  201MOL0     H27100   5.415   4.111   5.094 -1.6269  0.6193  1.8767
  201MOL0     H27101   5.561   4.291   4.914 -0.0652 -0.4302  0.4477
  201MOL0     H27102   5.544   4.128   4.947 -0.3984 -1.5034  3.2388
  201MOL0     H27103   5.297   4.138   4.829 -0.0039  0.5450  1.8300
  201MOL0     H27104   5.340   4.297   4.790 -2.8531 -0.6812  1.2711
  201MOL0     H27105   5.458   4.037   4.700 -0.6636 -0.8864 -2.6350
  201MOL0     H27106   5.531   4.183   4.653 -0.4612 -1.1787  3.7175
  201MOL0     H27107   5.370   4.140   4.456  2.2881 -0.8559  1.7524
  201MOL0     H27108   5.281   4.247   4.550 -0.0055  0.0431 -3.4066
  201MOL0     H27109   5.274   3.945   4.580  3.0688  1.6094 -0.2564
  201MOL0     H27110   5.175   4.055   4.682  1.3441 -2.8864  1.6306
  201MOL0     H27111   5.112   4.140   4.439  1.7246 -0.3023 -0.5199
  201MOL0     H27112   5.021   4.007   4.496  0.6100  0.9316  3.6721
  201MOL0     H27113   5.096   3.976   4.280 -1.9725  0.3283  2.3032
  201MOL0     H27114   5.279   4.013   4.309  1.2717 -0.8604  2.7736
  201MOL0     H27115   5.331   4.360   5.293 -0.0823 -1.1905  1.3734
  201MOL0     H27116   5.198   4.352   5.468  1.6164 -3.6217  2.8102
  201MOL0     H27117   4.555   4.314   5.534  1.6341  1.0545  1.1281
  201MOL0     H27118   4.428   4.261   5.731  1.0843  3.2660  1.9538
  201MOL0     H27119   3.766   3.757   5.004  0.8252  2.1859  1.5090
  201MOL0     H27120   3.658   3.641   4.844  1.6999  1.3960 -0.8084
  201MOL0     H27121   3.074   3.800   4.594  1.0104  0.8199 -0.3480
  201MOL0     H27122   2.915   3.684   4.437  1.3264 -0.0611 -2.4581
  201MOL0     H27123   2.759   3.518   4.451  0.7727 -0.6044  0.6631
  201MOL0     H27124   2.724   3.403   4.337 -0.8011  0.9790 -0.5313
  201MOL0     H27125   2.789   3.675   4.252  0.3575 -2.0129  1.4298
  201MOL0     H27126   2.630   3.588   4.252 -0.2760 -3.0358  2.9365
  201MOL0     H27127   2.697   3.462   4.067  1.6413 -0.3484 -2.9279
  201MOL0     H27128   2.866   3.497   4.072  0.2167 -0.1668 -2.7303
  201MOL0     H27129   2.646   3.702   4.000 -0.5468 -1.9109  0.1350
  201MOL0     H27130   2.813   3.743   4.024  0.6226  0.2891 -2.3385
  201MOL0     H27131   2.794   3.552   3.639 -0.6313  2.1727 -0.9905
  201MOL0     H27132   3.159   3.358   4.406  0.5367  0.2170 -0.1721
  201MOL0     H27133   3.359   3.325   4.536 -3.1243 -0.6987 -0.0859
  201MOL0     H27134   3.454   3.476   4.558  0.2590 -2.2796 -0.8022
  201MOL0     H27135   3.379   3.394   4.690 -1.7324  1.2576  0.0072
  202MOL0     O27136  11.523   6.598   3.961 -0.3947 -0.5629 -0.0387
  202MOL0     C27137  11.593   6.516   3.911 -0.5158  0.4984  0.1603
  202MOL0     O27138  11.645   6.409   3.973 -0.6894 -0.1818 -0.0899
  202MOL0     C27139  11.651   6.399   4.113  0.7372 -0.8187 -0.1195
  202MOL0     C27140  11.564   6.306   4.177 -0.8391 -0.6971  0.1184
  202MOL0     C27141  11.573   6.284   4.310 -0.2665  0.3450 -0.7152
  202MOL0     C27142  11.658   6.361   4.394  1.4040 -0.5359  0.0806
  202MOL0     O27143  11.658   6.333   4.532 -0.2125  0.3038  0.0392
  202MOL0     C27144  11.720   6.426   4.616  0.0359 -0.7542 -0.2351
  202MOL0     C27145  11.711   6.374   4.751  0.7376  0.2884 -0.3704
  202MOL0     C27146  11.745   6.484   4.860 -0.3875 -0.4177  0.1152
  202MOL0     C27147  11.773   6.446   5.007  0.1629 -0.4374  0.2627
  202MOL0     C27148  11.922   6.435   5.035 -0.3325  0.7155  0.6717
  202MOL0     C27149  11.947   6.374   5.173  0.2370 -0.1440  0.5368
  202MOL0     C27150  12.095   6.370   5.229  0.9168  0.2461 -0.3238
  202MOL0     C27151  12.183   6.483   5.175  0.2132 -0.8169  1.3010
  202MOL0     N27152  12.331   6.482   5.210  0.3927  0.2542 -0.3174
  202MOL0     C27153  12.427   6.421   5.134  0.0514 -1.2692 -0.4678
  202MOL0     C27154  12.536   6.434   5.203 -0.3028 -0.1248 -0.3541
  202MOL0     C27155  12.668   6.362   5.173 -0.3632 -0.6830  0.5972
  202MOL0     C27156  12.735   6.278   5.278  0.3015  1.9739 -0.0490
  202MOL0     C27157  12.684   6.130   5.287  0.9805 -0.1060  0.6053
  202MOL0     C27158  12.537   6.131   5.331 -0.6363 -0.6637  0.2896
  202MOL0     O27159  12.494   5.997   5.342  0.4039 -0.0311  0.1330
  202MOL0     C27160  12.422   5.962   5.457  0.5861  0.4478  0.8997
  202MOL0     C27161  12.454   5.838   5.517 -0.5650 -1.3401 -0.8330
  202MOL0     C27162  12.388   5.812   5.637 -0.5963  0.0453 -0.6946
  202MOL0     C27163  12.291   5.898   5.699  0.0348 -0.4445  0.8019
  202MOL0     C27164  12.218   5.857   5.826 -0.3254 -0.8061  0.8431
  202MOL0     O27165  12.278   5.756   5.894 -0.4156  0.0489  0.9549
  202MOL0     C27166  12.234   5.695   6.006 -0.0624 -0.3016 -0.0880
  202MOL0     C27167  12.130   5.745   6.088 -0.0535  0.8585 -0.4329
  202MOL0     C27168  12.089   5.681   6.207 -0.1106  0.8608 -0.5137
  202MOL0     C27169  12.149   5.561   6.243 -1.0865  1.1296 -0.0659
  202MOL0     O27170  12.129   5.485   6.363 -0.1434  0.1087  1.0189
  202MOL0     C27171  12.009   5.503   6.440  0.6106  0.1252 -0.1062
  202MOL0     C27172  12.021   5.417   6.566  0.8981 -1.4684  0.6193
  202MOL0     C27173  11.889   5.398   6.626 -0.5077 -0.9616 -0.2654
  202MOL0     C27174  11.819   5.529   6.675  0.0907  0.0187  0.7603
  202MOL0     C27175  11.737   5.506   6.798  0.0264 -0.4935  0.1808
  202MOL0     C27176  11.749   5.618   6.903 -0.4328  0.2488 -0.0124
  202MOL0     C27177  11.886   5.619   6.975 -0.2244  0.8799 -0.2838
  202MOL0     C27178  11.872   5.679   7.109 -0.3797 -0.2248 -0.5070
  202MOL0    Cl27179  11.826   5.845   7.105 -0.4164  0.2178 -0.1120
  202MOL0     C27180  12.245   5.498   6.152 -0.6271 -0.2183  0.2984
  202MOL0     C27181  12.285   5.566   6.034  0.0472 -0.3739 -0.8048
  202MOL0     O27182  12.101   5.895   5.835 -0.6459 -0.5069 -1.4150
  202MOL0     C27183  12.250   6.012   5.625  0.8643 -0.5319  0.4120
  202MOL0     C27184  12.323   6.045   5.511 -0.3441  0.3359  0.0660
  202MOL0     N27185  12.508   6.504   5.324 -0.0387  0.4105 -0.0862
  202MOL0     N27186  12.377   6.526   5.327 -1.7341  0.2079  0.4721
  202MOL0     C27187  11.739   6.451   4.332  0.2150 -0.4024  0.7417
  202MOL0     C27188  11.738   6.467   4.195 -0.0426 -0.0767  0.4278
  202MOL0     C27189  11.669   6.563   3.789  0.6965  1.3503  0.2525
  202MOL0     C27190  11.810   6.549   3.785 -0.4739 -0.3342 -0.3041
  202MOL0     C27191  11.886   6.607   3.678  0.8132 -1.1015  0.2532
  202MOL0     C27192  11.815   6.671   3.566 -0.7595 -0.0128 -0.7798
  202MOL0     O27193  11.900   6.693   3.466 -0.2639 -0.3070  0.3205
  202MOL0     C27194  11.931   6.830   3.438 -0.0116 -0.4634  1.0934
  202MOL0     C27195  11.977   6.856   3.286 -0.1755 -0.3396 -0.1951
  202MOL0     C27196  11.970   7.000   3.223  0.7476 -0.8682 -0.0093
  202MOL0     C27197  12.056   7.109   3.300  0.2065 -0.1589 -0.4407
  202MOL0     C27198  12.037   7.244   3.247 -0.0057 -0.3593 -1.0384
  202MOL0     C27199  12.016   7.355   3.213 -0.4097 -0.4124  0.1342
  202MOL0     C27200  11.676   6.672   3.563 -0.2296  1.0471 -0.8616
  202MOL0     C27201  11.598   6.614   3.670  0.7927 -0.8316  0.1432
  202MOL0     C27202  11.443   6.640   3.667 -0.8112  0.1099  0.1606
  202MOL0     H27203  11.512   6.258   4.094 -1.6240 -0.1545  0.2860
  202MOL0     H27204  11.532   6.207   4.374  0.3724  3.0898  3.4161
  202MOL0     H27205  11.827   6.448   4.610 -0.1618  0.7583  1.1398
  202MOL0     H27206  11.663   6.519   4.624 -1.6823 -1.8738  1.4284
  202MOL0     H27207  11.782   6.291   4.757  3.3125  2.4119  0.6934
  202MOL0     H27208  11.617   6.326   4.777 -0.1071  0.9720 -1.9984
  202MOL0     H27209  11.672   6.565   4.846  0.6642  0.4267 -0.6039
  202MOL0     H27210  11.844   6.511   4.822 -0.4838  0.3287  0.3691
  202MOL0     H27211  11.729   6.536   5.051  0.6286  2.4202 -4.4439
  202MOL0     H27212  11.719   6.363   5.053 -1.5153  2.1757  3.3774
  202MOL0     H27213  11.967   6.361   4.969  0.9254  1.6954  0.4089
  202MOL0     H27214  11.971   6.532   5.028 -0.5490  0.8267  0.6850
  202MOL0     H27215  11.885   6.431   5.242  0.3121  2.2909 -1.2642
  202MOL0     H27216  11.905   6.273   5.172  1.7543 -0.8289  1.2639
  202MOL0     H27217  12.131   6.274   5.193 -1.5036 -2.3256  3.3885
  202MOL0     H27218  12.085   6.380   5.337  3.0195  1.8068 -0.2276
  202MOL0     H27219  12.189   6.486   5.066 -1.6982  1.9636  1.1495
  202MOL0     H27220  12.137   6.580   5.197 -0.3915 -0.5960 -0.7167
  202MOL0     H27221  12.429   6.365   5.041  0.5302 -1.8758 -0.1028
  202MOL0     H27222  12.647   6.298   5.086 -1.2792  2.7145 -1.9091
  202MOL0     H27223  12.740   6.435   5.135 -0.3145  0.7974  3.2623
  202MOL0     H27224  12.839   6.264   5.247  0.6077  1.1078  1.2840
  202MOL0     H27225  12.736   6.335   5.372  0.8625 -1.4099  2.1573
  202MOL0     H27226  12.732   6.079   5.370  2.3071  2.2853  1.4077
  202MOL0     H27227  12.689   6.084   5.188 -0.6124  1.5005 -0.2743
  202MOL0     H27228  12.482   6.177   5.249 -0.4579 -0.9199  0.0249
  202MOL0     H27229  12.525   6.172   5.432 -2.3407 -2.7255  1.0099
  202MOL0     H27230  12.529   5.774   5.471  0.6312  1.1822 -2.6118
  202MOL0     H27231  12.403   5.712   5.676  2.5668 -0.5478 -3.0786
  202MOL0     H27232  12.096   5.846   6.068  3.2405  1.6080 -3.2260
  202MOL0     H27233  12.015   5.735   6.265  0.8927  2.6945 -0.8716
  202MOL0     H27234  12.001   5.611   6.458  0.0676 -0.2525  2.1149
  202MOL0     H27235  11.927   5.470   6.376  0.9326  0.5833 -0.7712
  202MOL0     H27236  12.074   5.322   6.554  1.5500 -0.8686 -1.7541
  202MOL0     H27237  12.076   5.480   6.636 -1.5321  2.4361 -0.6785
  202MOL0     H27238  11.825   5.326   6.575 -3.1293 -0.8540  2.5575
  202MOL0     H27239  11.899   5.345   6.721 -0.0453 -0.0154  0.2279
  202MOL0     H27240  11.774   5.576   6.587  0.8564 -2.0980 -0.8143
  202MOL0     H27241  11.899   5.599   6.701 -0.2584  1.2561 -1.2691
  202MOL0     H27242  11.760   5.419   6.861  2.7807  1.7435  2.5279
  202MOL0     H27243  11.633   5.496   6.764 -1.1479  5.1088  1.1038
  202MOL0     H27244  11.726   5.709   6.847  2.5506 -0.3702 -2.5226
  202MOL0     H27245  11.668   5.619   6.976 -0.9161  4.4209 -0.3626
  202MOL0     H27246  11.964   5.678   6.926 -0.1743  0.7179 -0.4010
  202MOL0     H27247  11.940   5.524   6.980 -0.2964  0.8213 -0.6145
  202MOL0     H27248  11.803   5.625   7.175  1.9333 -2.8054 -0.0103
  202MOL0     H27249  11.970   5.667   7.155  0.7861  2.5543 -2.0011
  202MOL0     H27250  12.295   5.403   6.168  2.7976  1.3182 -0.4045
  202MOL0     H27251  12.327   5.519   5.946 -2.0132 -2.9184 -0.5624
  202MOL0     H27252  12.173   6.079   5.662  0.0477 -1.2569  0.0646
  202MOL0     H27253  12.296   6.142   5.470 -1.5185  0.5985  1.3752
  202MOL0     H27254  11.815   6.505   4.388 -1.5316  1.2938  1.5989
  202MOL0     H27255  11.809   6.538   4.153 -2.5318  3.6178  1.9692
  202MOL0     H27256  11.865   6.503   3.866 -1.7055 -3.1587 -0.9759
  202MOL0     H27257  11.992   6.624   3.686  0.4885  2.3562 -1.0407
  202MOL0     H27258  12.010   6.862   3.507 -0.7085  1.4100  1.0862
  202MOL0     H27259  11.839   6.889   3.451 -0.5534 -0.8984 -0.5887
  202MOL0     H27260  11.910   6.792   3.227 -0.4245 -0.0574 -0.2211
  202MOL0     H27261  12.076   6.813   3.269 -0.6845 -0.5499 -3.1442
  202MOL0     H27262  11.868   7.035   3.208 -0.9476 -4.7220  1.3448
  202MOL0     H27263  12.017   7.001   3.123 -0.5987  0.1373 -0.6589
  202MOL0     H27264  12.038   7.116   3.408  1.0694 -1.6800 -0.1625
  202MOL0     H27265  12.162   7.081   3.294  0.4300  0.2954  0.9389
  202MOL0     H27266  12.005   7.446   3.159  0.6181  1.6228  3.0983
  202MOL0     H27267  11.613   6.704   3.481 -2.1875  0.0546  0.1881
  202MOL0     H27268  11.382   6.553   3.693 -2.4197  0.1449 -2.9891
  202MOL0     H27269  11.421   6.723   3.735  0.9398  2.1980 -1.6669
  202MOL0     H27270  11.415   6.679   3.568 -1.4565 -0.9252 -0.0753
  203MOL0     O27271   3.758   0.193   7.444 -0.3001 -0.5166 -0.1324
  203MOL0     C27272   3.688   0.290   7.464 -0.2891  0.6780 -0.9825
  203MOL0     O27273   3.561   0.289   7.520  0.3948  0.3237  0.1359
  203MOL0     C27274   3.489   0.180   7.579 -0.2624  0.4845 -0.0138
  203MOL0     C27275   3.359   0.199   7.621  0.1223 -0.0182  0.8087
  203MOL0     C27276   3.281   0.102   7.675 -1.1933 -0.0069 -0.9065
  203MOL0     C27277   3.317  -0.031   7.676 -0.1881  0.5802  0.0875
  203MOL0     O27278   3.222  -0.110   7.739 -0.0291 -0.4563  0.1908
  203MOL0     C27279   3.235  -0.248   7.760 -0.6902  0.6280  0.4615
  203MOL0     C27280   3.123  -0.300   7.831  0.0430  0.5059  0.1110
  203MOL0     C27281   2.998  -0.333   7.764 -0.0889  0.5405  0.6123
  203MOL0     C27282   2.899  -0.362   7.869 -1.3636  0.2363 -0.2175
  203MOL0     C27283   2.772  -0.431   7.811 -0.5004  0.8682  0.4588
  203MOL0     C27284   2.683  -0.485   7.926  0.1746  0.0119 -0.2136
  203MOL0     C27285   2.549  -0.544   7.872 -0.8702 -0.7150 -0.4562
  203MOL0     C27286   2.445  -0.549   7.979 -0.0499 -0.5014  0.1932
  203MOL0     N27287   2.378  -0.416   7.994 -0.0429 -0.5990 -0.1457
  203MOL0     C27288   2.344  -0.323   7.889 -0.4730 -0.0954 -0.9976
  203MOL0     C27289   2.334  -0.206   7.953  0.6882  0.1148 -0.0410
  203MOL0     C27290   2.269  -0.076   7.894  0.0633  0.4080 -0.7848
  203MOL0     C27291   2.366   0.030   7.852 -0.1498  0.1130  0.0564
  203MOL0     C27292   2.471  -0.010   7.749 -0.0636  0.4079  0.4064
  203MOL0     C27293   2.561   0.104   7.721 -0.5619  0.9292 -0.7553
  203MOL0     O27294   2.684   0.058   7.670 -0.1503  1.1432 -1.0957
  203MOL0     C27295   2.762   0.142   7.603 -0.6396 -0.1799 -0.3991
  203MOL0     C27296   2.895   0.098   7.580 -0.4194 -0.1778  0.0103
  203MOL0     C27297   2.991   0.181   7.512 -0.7008  0.0713  0.2443
  203MOL0     C27298   2.966   0.301   7.473  0.6880 -0.1898  0.0055
  203MOL0     C27299   3.073   0.383   7.413  0.1350 -0.2065  0.6935
  203MOL0     O27300   3.160   0.322   7.337  0.3900  0.4400  0.0188
  203MOL0     C27301   3.261   0.397   7.279  0.7122 -0.7662  0.5042
  203MOL0     C27302   3.269   0.404   7.137 -0.7517 -0.4646 -0.0601
  203MOL0     C27303   3.368   0.484   7.081  1.0849 -0.5480  0.5205
  203MOL0     C27304   3.449   0.560   7.152 -0.0572 -0.5194 -0.4625
  203MOL0     O27305   3.540   0.652   7.118  0.4273  0.0877  0.0086
  203MOL0     C27306   3.594   0.660   6.985  0.3422 -0.4825 -0.3603
  203MOL0     C27307   3.523   0.760   6.895  0.7814  1.4874  0.5852
  203MOL0     C27308   3.542   0.907   6.948 -1.2036  0.5003  0.5315
  203MOL0     C27309   3.469   1.002   6.853 -0.6006 -0.4348 -0.3058
  203MOL0     C27310   3.314   1.007   6.846  0.1010  0.0011 -0.4769
  203MOL0     C27311   3.260   1.129   6.785  0.7322 -0.8369 -0.2708
  203MOL0     C27312   3.116   1.111   6.741 -0.2262 -0.0849  0.2988
  203MOL0     C27313   3.031   1.071   6.860 -0.4868  0.6544  0.0932
  203MOL0    Cl27314   3.049   1.197   6.989 -0.1903 -0.0533  0.3163
  203MOL0     C27315   3.439   0.561   7.293  0.1320 -0.5836 -0.3714
  203MOL0     C27316   3.343   0.478   7.352  0.2174 -0.0062 -0.1722
  203MOL0     O27317   3.056   0.501   7.422  0.2048 -0.0966 -0.3627
  203MOL0     C27318   2.837   0.350   7.496 -0.1478 -0.8412 -0.4450
  203MOL0     C27319   2.741   0.274   7.560  0.1136 -0.2327  0.2617
  203MOL0     N27320   2.369  -0.222   8.087  0.2402  0.0779 -0.1262
  203MOL0     N27321   2.397  -0.348   8.110  0.3125 -0.1364  0.0221
  203MOL0     C27322   3.450  -0.061   7.634 -0.1582 -0.2626 -0.2434
  203MOL0     C27323   3.533   0.042   7.587  0.0267  0.5751 -0.1647
  203MOL0     C27324   3.751   0.418   7.447  1.1290 -0.6207  0.3882
  203MOL0     C27325   3.792   0.489   7.562 -0.0504 -0.5977  0.8050
  203MOL0     C27326   3.856   0.612   7.529 -0.6977  0.1441 -0.4364
  203MOL0     C27327   3.869   0.664   7.395 -0.5005 -0.1264  0.0841
  203MOL0     O27328   3.911   0.788   7.376 -0.4562  0.1922  0.1299
  203MOL0     C27329   3.883   0.851   7.243 -0.9312  0.2502 -0.6595
  203MOL0     C27330   3.850   1.009   7.240  0.9297  0.3357 -1.4200
  203MOL0     C27331   3.740   1.038   7.354 -0.9914  0.2323 -0.3256
  203MOL0     C27332   3.696   1.183   7.360 -0.0430  0.0639  0.0567
  203MOL0     C27333   3.803   1.280   7.403  0.2256 -0.0933 -0.4155
  203MOL0     C27334   3.879   1.366   7.433  0.0277 -0.3576  0.7932
  203MOL0     C27335   3.831   0.581   7.287 -0.0268 -0.4893  0.8123
  203MOL0     C27336   3.779   0.466   7.313 -1.0061  1.1912 -0.0911
  203MOL0     C27337   3.735   0.368   7.203  0.5074  1.1737  0.4305
  203MOL0     H27338   3.330   0.303   7.619  0.4170  0.0847 -1.5824
  203MOL0     H27339   3.184   0.124   7.719 -0.3181  0.6985  0.8014
  203MOL0     H27340   3.240  -0.299   7.663  3.7615  1.7117 -0.0799
  203MOL0     H27341   3.328  -0.278   7.809  0.3318 -1.6778 -2.5549
  203MOL0     H27342   3.098  -0.226   7.908 -0.4634 -0.1963  0.6348
  203MOL0     H27343   3.156  -0.397   7.869 -2.4703 -1.3426 -2.0606
  203MOL0     H27344   3.016  -0.430   7.718 -2.3390  0.8403 -1.0801
  203MOL0     H27345   2.976  -0.260   7.685  2.8752  0.0648 -0.8161
  203MOL0     H27346   2.936  -0.439   7.938  0.5698  1.8157  0.5780
  203MOL0     H27347   2.872  -0.282   7.939  1.3844  0.7604  0.3260
  203MOL0     H27348   2.728  -0.364   7.737  1.5138 -0.3505 -2.0063
  203MOL0     H27349   2.809  -0.515   7.751 -1.3142  1.1916 -0.5090
  203MOL0     H27350   2.722  -0.572   7.980 -1.9434 -2.5599 -2.5252
  203MOL0     H27351   2.663  -0.400   7.992 -2.5109 -0.4324 -0.3407
  203MOL0     H27352   2.571  -0.643   7.830  0.3967 -0.3017 -0.8127
  203MOL0     H27353   2.505  -0.488   7.789  2.1004  0.8648 -1.1105
  203MOL0     H27354   2.375  -0.632   7.967 -0.2274 -0.3221 -0.0232
  203MOL0     H27355   2.489  -0.575   8.076 -2.5142 -0.2412  1.4868
  203MOL0     H27356   2.325  -0.351   7.785  0.1721 -0.7637 -0.9429
  203MOL0     H27357   2.193  -0.092   7.816 -0.0805 -1.5693 -0.3020
  203MOL0     H27358   2.211  -0.028   7.973 -2.0639 -3.9344  0.6109
  203MOL0     H27359   2.317   0.121   7.818 -0.3066 -0.1592 -0.4505
  203MOL0     H27360   2.420   0.062   7.942  0.2686  1.3336 -0.6132
  203MOL0     H27361   2.426  -0.055   7.660  0.0517 -1.4427  1.2291
  203MOL0     H27362   2.534  -0.089   7.793  2.2590  1.4757 -0.8143
  203MOL0     H27363   2.580   0.149   7.819  1.8429  0.5572 -0.9787
  203MOL0     H27364   2.526   0.180   7.651  0.3978 -0.6846 -3.1378
  203MOL0     H27365   2.924  -0.004   7.600 -1.4692 -0.9052 -1.8976
  203MOL0     H27366   3.090   0.140   7.496  0.1199  1.6968  0.9288
  203MOL0     H27367   3.198   0.353   7.072 -0.0694 -4.3981  1.9705
  203MOL0     H27368   3.372   0.491   6.973  0.7438  1.2260  0.5893
  203MOL0     H27369   3.702   0.677   6.982  0.1149  3.1317  3.2289
  203MOL0     H27370   3.578   0.564   6.935  1.2202 -0.1746 -1.2793
  203MOL0     H27371   3.561   0.756   6.792 -0.5177  2.6560  0.0163
  203MOL0     H27372   3.415   0.742   6.890  0.6395  2.4494 -0.3857
  203MOL0     H27373   3.504   0.926   7.048 -1.1136  0.7008  0.5288
  203MOL0     H27374   3.650   0.926   6.947 -0.9523 -0.8067 -0.3427
  203MOL0     H27375   3.510   0.988   6.753  2.0818  0.6607  0.5650
  203MOL0     H27376   3.504   1.099   6.889  1.6519 -1.2889 -0.0995
  203MOL0     H27377   3.270   0.988   6.944  0.7544  0.9529  0.0202
  203MOL0     H27378   3.292   0.923   6.780  0.3579 -0.5255  0.0985
  203MOL0     H27379   3.267   1.220   6.846  0.2304 -0.6838 -0.4324
  203MOL0     H27380   3.321   1.132   6.694  0.3136  1.6910 -0.5431
  203MOL0     H27381   3.112   1.034   6.664 -0.8453  2.6825 -2.6840
  203MOL0     H27382   3.078   1.200   6.689 -2.1133 -0.9781  0.0760
  203MOL0     H27383   2.925   1.066   6.833 -0.2157 -0.8853 -0.7626
  203MOL0     H27384   3.059   0.975   6.904 -4.8328 -0.7889  0.1843
  203MOL0     H27385   3.491   0.633   7.356 -3.1979  2.9424 -1.2736
  203MOL0     H27386   3.318   0.482   7.458 -1.6767 -0.2417 -0.5747
  203MOL0     H27387   2.798   0.448   7.470 -2.9562 -1.9641 -0.8249
  203MOL0     H27388   2.645   0.322   7.574  1.4766  2.3584  1.3593
  203MOL0     H27389   3.492  -0.161   7.642  6.8905  2.0404 -1.3677
  203MOL0     H27390   3.622   0.007   7.536  1.5914 -1.5261  3.5355
  203MOL0     H27391   3.766   0.461   7.663  1.4489  3.6667  2.6018
  203MOL0     H27392   3.897   0.670   7.612 -1.1699  0.1350 -0.1878
  203MOL0     H27393   3.795   0.805   7.198 -1.2923  2.1966 -2.0700
  203MOL0     H27394   3.972   0.839   7.180 -0.8803 -3.9001 -0.0942
  203MOL0     H27395   3.806   1.027   7.141  0.5352 -1.2931 -1.5675
  203MOL0     H27396   3.938   1.071   7.260  1.2215 -1.4944  5.3160
  203MOL0     H27397   3.793   1.014   7.447  1.7385  5.4618 -0.1482
  203MOL0     H27398   3.648   0.986   7.325 -1.5834  0.9157  0.2662
  203MOL0     H27399   3.650   1.208   7.264 -0.7185 -1.0243  0.0890
  203MOL0     H27400   3.608   1.209   7.420 -0.7200 -0.0646 -0.8435
  203MOL0     H27401   3.948   1.449   7.440  1.6277 -1.5357 -0.3219
  203MOL0     H27402   3.848   0.617   7.186  2.2697  0.1289  1.3849
  203MOL0     H27403   3.764   0.424   7.115  1.3843 -1.4557 -1.0575
  203MOL0     H27404   3.799   0.279   7.201  0.7152  1.3402 -0.2242
  203MOL0     H27405   3.630   0.337   7.203  1.3626 -2.1946  1.1837
  204MOL0     O27406   3.859   6.016   0.902  0.4430 -0.0598 -0.1101
  204MOL0     C27407   3.800   6.006   1.015  0.0035 -0.2512  0.8759
  204MOL0     O27408   3.668   5.971   1.042  0.0502  0.9570  0.2250
  204MOL0     C27409   3.621   5.882   0.950  0.7554  0.3297 -0.9020
  204MOL0     C27410   3.657   5.748   0.955  0.1012 -0.7138 -0.1882
  204MOL0     C27411   3.584   5.656   0.875 -0.2187 -0.3548  0.4307
  204MOL0     C27412   3.501   5.702   0.778  0.4755  0.6256 -0.4602
  204MOL0     O27413   3.448   5.599   0.703 -0.4501  0.4860 -0.0531
  204MOL0     C27414   3.353   5.626   0.600 -0.5332 -0.2425 -0.1062
  204MOL0     C27415   3.211   5.654   0.648  0.4273  0.9967 -0.2763
  204MOL0     C27416   3.140   5.520   0.687 -0.0909  0.1584  0.2916
  204MOL0     C27417   2.989   5.534   0.721  0.0689  0.2044  0.2927
  204MOL0     C27418   2.942   5.392   0.741 -0.3664  0.1477 -0.1642
  204MOL0     C27419   2.781   5.395   0.754  0.2552  0.8413  0.4138
  204MOL0     C27420   2.727   5.265   0.690  0.7244 -0.6690  0.6346
  204MOL0     C27421   2.576   5.264   0.711 -0.1890 -0.1902  0.6490
  204MOL0     N27422   2.497   5.347   0.607  0.2865  1.5020  1.1079
  204MOL0     C27423   2.518   5.338   0.470 -0.8739 -0.4427 -0.3172
  204MOL0     C27424   2.428   5.424   0.415 -1.2159 -0.5240  0.2890
  204MOL0     C27425   2.394   5.463   0.269 -0.0011  0.0387  1.1142
  204MOL0     C27426   2.499   5.432   0.158 -0.6214  0.3432  0.1331
  204MOL0     C27427   2.441   5.436   0.011 -0.1125  0.2891  0.3105
  204MOL0     C27428   2.368   5.308  -0.018  0.0368 -0.1709  0.3278
  204MOL0     O27429   2.231   5.303   0.031  0.6229 -1.2892  0.0012
  204MOL0     C27430   2.178   5.181   0.030 -1.2762 -0.8163  0.1316
  204MOL0     C27431   2.225   5.077   0.114 -0.5126  0.4520 -0.1381
  204MOL0     C27432   2.186   4.941   0.111 -0.2569 -0.1605  0.8132
  204MOL0     C27433   2.125   4.900  -0.013 -0.6871 -0.1606  0.0185
  204MOL0     C27434   2.086   4.757  -0.047 -0.8223  0.8398  0.2012
  204MOL0     O27435   2.004   4.732  -0.139 -0.0320  0.6807  0.1666
  204MOL0     C27436   1.944   4.605  -0.158 -0.8117 -0.3345 -0.6859
  204MOL0     C27437   1.816   4.607  -0.199  0.5396  0.0666  0.3229
  204MOL0     C27438   1.757   4.476  -0.216 -0.1843 -0.7427  0.8307
  204MOL0     C27439   1.814   4.352  -0.182  0.1110  0.5202 -0.3061
  204MOL0     O27440   1.752   4.232  -0.189  0.6453 -0.5989 -0.0611
  204MOL0     C27441   1.649   4.206  -0.289  0.2621  0.3044 -0.1523
  204MOL0     C27442   1.600   4.055  -0.279  0.2951 -0.7907  0.0121
  204MOL0     C27443   1.477   4.044  -0.360  0.2963  0.1189 -0.6800
  204MOL0     C27444   1.523   4.067  -0.518  0.5050 -0.2319  0.4653
  204MOL0     C27445   1.424   4.147  -0.600 -1.2284 -0.1084 -0.1975
  204MOL0     C27446   1.419   4.103  -0.754  0.2343 -0.7146 -0.6478
  204MOL0     C27447   1.542   4.138  -0.838 -0.1644 -0.2363  0.1768
  204MOL0     C27448   1.522   4.084  -0.977 -1.2233  1.0656  0.4061
  204MOL0    Cl27449   1.370   4.156  -1.045  0.2861 -0.4216  0.4484
  204MOL0     C27450   1.945   4.362  -0.148 -0.1556 -0.7387  0.7059
  204MOL0     C27451   2.006   4.481  -0.137 -0.4864  0.5221  0.0884
  204MOL0     O27452   2.134   4.679   0.036 -0.4677 -0.0641  0.1052
  204MOL0     C27453   2.079   5.007  -0.090  0.7001 -0.3235 -0.4708
  204MOL0     C27454   2.104   5.142  -0.073  0.1430 -0.2920  0.2501
  204MOL0     N27455   2.361   5.491   0.519 -0.4434  0.2718 -0.4316
  204MOL0     N27456   2.402   5.446   0.634  0.3064  0.1879 -0.1020
  204MOL0     C27457   3.485   5.839   0.759 -0.0063 -0.7619 -0.6572
  204MOL0     C27458   3.530   5.934   0.855 -0.2488 -0.6359  0.0650
  204MOL0     C27459   3.876   6.033   1.134 -0.3056 -0.0991  0.3161
  204MOL0     C27460   3.838   6.144   1.214 -0.2720  0.1499 -0.1776
  204MOL0     C27461   3.899   6.171   1.342  0.0679 -0.4476  0.5379
  204MOL0     C27462   3.986   6.077   1.393  0.5354  0.2893  0.9440
  204MOL0     O27463   4.022   6.089   1.520  0.7666 -0.1467 -0.2036
  204MOL0     C27464   3.925   6.058   1.624 -0.7618 -0.2610 -0.0173
  204MOL0     C27465   3.988   6.053   1.768 -0.4693 -0.3796  0.2730
  204MOL0     C27466   4.028   6.190   1.833  0.0932  0.4296 -0.0679
  204MOL0     C27467   4.117   6.174   1.949 -0.1584 -0.7011  0.4771
  204MOL0     C27468   4.160   6.293   2.014 -0.2462 -0.6425  0.1746
  204MOL0     C27469   4.195   6.396   2.075 -0.2823 -0.3777  0.3889
  204MOL0     C27470   4.041   5.983   1.309 -1.0889 -0.1741  0.5326
  204MOL0     C27471   3.979   5.952   1.184  0.8546 -1.3813 -0.1694
  204MOL0     C27472   4.039   5.835   1.108 -0.1291  0.2415 -1.0022
  204MOL0     H27473   3.728   5.715   1.030 -0.9948  1.6079  2.0321
  204MOL0     H27474   3.607   5.552   0.896 -0.8552 -0.6054 -0.0962
  204MOL0     H27475   3.405   5.705   0.545  0.9450  0.7633  2.5977
  204MOL0     H27476   3.348   5.533   0.541 -2.2412 -0.4875  0.3523
  204MOL0     H27477   3.168   5.703   0.561  0.9795  1.6548 -0.1846
  204MOL0     H27478   3.194   5.721   0.732  2.0498 -1.4393  2.1784
  204MOL0     H27479   3.194   5.474   0.770 -2.4360 -2.8347  0.3415
  204MOL0     H27480   3.153   5.455   0.600  3.7491  0.1633  0.6700
  204MOL0     H27481   2.981   5.597   0.810  3.4154  2.6759 -0.9500
  204MOL0     H27482   2.936   5.591   0.644 -0.7865  2.5482  2.4547
  204MOL0     H27483   2.970   5.341   0.648  1.9197 -0.1655  0.6398
  204MOL0     H27484   2.998   5.347   0.823 -0.6493  3.4015  2.0096
  204MOL0     H27485   2.746   5.393   0.857 -2.1986  0.5536 -0.3626
  204MOL0     H27486   2.741   5.481   0.699 -2.4823 -1.8476 -2.1734
  204MOL0     H27487   2.768   5.182   0.748  0.6532 -0.7988  0.5007
  204MOL0     H27488   2.753   5.248   0.585  1.0159  1.9248  0.2241
  204MOL0     H27489   2.533   5.164   0.699 -3.0568  0.9344  0.6812
  204MOL0     H27490   2.552   5.297   0.812  3.5375 -1.0273  1.9771
  204MOL0     H27491   2.580   5.271   0.412  0.3764  0.0560  0.3977
  204MOL0     H27492   2.288   5.446   0.249 -0.4642  3.7934 -0.5848
  204MOL0     H27493   2.399   5.572   0.282  1.6065 -0.2698  3.9141
  204MOL0     H27494   2.574   5.512   0.163 -3.3543  2.9592  2.8346
  204MOL0     H27495   2.553   5.337   0.164  0.9148  1.2382  1.1045
  204MOL0     H27496   2.522   5.448  -0.061 -0.6509  0.1741 -0.3184
  204MOL0     H27497   2.368   5.512  -0.018 -1.4294 -2.2632 -3.8505
  204MOL0     H27498   2.417   5.219   0.021 -1.3826 -2.2755 -2.3678
  204MOL0     H27499   2.359   5.294  -0.126 -1.2615  0.3621  0.3479
  204MOL0     H27500   2.294   5.103   0.193  1.0268 -2.3626 -0.4241
  204MOL0     H27501   2.222   4.864   0.178 -0.0818 -3.0002 -2.2996
  204MOL0     H27502   1.759   4.699  -0.203  2.0673  1.0077 -1.0831
  204MOL0     H27503   1.650   4.469  -0.234 -0.5606 -2.0770  3.1440
  204MOL0     H27504   1.562   4.271  -0.274 -0.7800 -1.7106  3.6683
  204MOL0     H27505   1.696   4.230  -0.385 -0.4718 -2.7411 -1.3813
  204MOL0     H27506   1.675   3.977  -0.294 -0.1130 -0.6782 -3.2561
  204MOL0     H27507   1.549   4.043  -0.182 -0.2655 -2.9037 -0.4789
  204MOL0     H27508   1.440   3.942  -0.354  2.8307 -0.8860 -0.8699
  204MOL0     H27509   1.399   4.117  -0.336 -2.0217 -2.3316 -0.3732
  204MOL0     H27510   1.527   3.961  -0.547 -2.4277 -0.6672  1.2153
  204MOL0     H27511   1.620   4.110  -0.542 -1.4529  3.1300 -2.3050
  204MOL0     H27512   1.462   4.249  -0.594  2.9338 -1.4585 -0.2199
  204MOL0     H27513   1.325   4.141  -0.555 -1.2277 -1.3360 -0.3180
  204MOL0     H27514   1.401   3.996  -0.747  0.7900 -0.7142  1.3650
  204MOL0     H27515   1.335   4.155  -0.802  1.5679  2.1284 -0.1515
  204MOL0     H27516   1.633   4.102  -0.789  0.4243  1.6969  0.6236
  204MOL0     H27517   1.552   4.247  -0.840  0.8409 -0.3097  0.3795
  204MOL0     H27518   1.607   4.093  -1.045 -1.0139 -0.5205  0.4220
  204MOL0     H27519   1.496   3.978  -0.967  0.6591  0.7251  2.2761
  204MOL0     H27520   2.000   4.276  -0.112 -2.2360 -2.4760 -0.0549
  204MOL0     H27521   2.110   4.465  -0.111 -0.9090 -0.8982  1.0075
  204MOL0     H27522   2.015   4.974  -0.172 -0.2120  2.1140 -0.8289
  204MOL0     H27523   2.051   5.218  -0.131  0.3316 -1.0985 -1.0246
  204MOL0     H27524   3.429   5.873   0.672  2.0017 -2.0045 -2.5673
  204MOL0     H27525   3.516   6.042   0.855 -1.2420 -0.7605 -0.0235
  204MOL0     H27526   3.751   6.206   1.194  0.0734  2.7029  4.7375
  204MOL0     H27527   3.878   6.257   1.406  2.6522  1.3425 -0.8317
  204MOL0     H27528   3.883   5.962   1.591 -0.5260 -0.1405 -0.6735
  204MOL0     H27529   3.846   6.134   1.620  0.7656  1.3150 -2.0355
  204MOL0     H27530   4.072   5.985   1.783 -2.5152 -3.1542 -0.0020
  204MOL0     H27531   3.914   6.022   1.842  0.0857 -2.2690  0.0773
  204MOL0     H27532   3.936   6.241   1.866  0.7364  1.0238  0.8485
  204MOL0     H27533   4.087   6.248   1.761  1.0486  1.8717  1.8020
  204MOL0     H27534   4.070   6.113   2.027  2.7924  0.0792  3.0627
  204MOL0     H27535   4.204   6.118   1.912 -1.3365 -2.2517 -0.0469
  204MOL0     H27536   4.228   6.490   2.114  2.0966 -1.7344  1.9733
  204MOL0     H27537   4.113   5.915   1.354 -1.7687  0.3287  2.4666
  204MOL0     H27538   4.141   5.872   1.095 -0.5599  1.2147 -1.7117
  204MOL0     H27539   4.034   5.740   1.163 -2.0845  1.1498  0.5389
  204MOL0     H27540   3.986   5.818   1.014 -3.0659 -1.6542  0.8078
  205MOL0     O27541   3.893   2.515  10.807 -0.2624  0.3171 -0.6002
  205MOL0     C27542   3.839   2.550  10.703  0.0801 -1.2036  0.2652
  205MOL0     O27543   3.857   2.498  10.582  0.1207  0.3193  0.0101
  205MOL0     C27544   3.952   2.391  10.576  0.8538  0.3059 -0.5025
  205MOL0     C27545   4.083   2.424  10.561  0.4951  0.1876  0.3683
  205MOL0     C27546   4.186   2.330  10.579 -0.7234 -0.2991  0.3876
  205MOL0     C27547   4.149   2.193  10.584 -0.1649  0.8486 -0.5903
  205MOL0     O27548   4.254   2.105  10.591  0.1014 -0.5256 -0.0150
  205MOL0     C27549   4.220   1.990  10.504  0.3167  0.2388 -0.6237
  205MOL0     C27550   4.345   1.915  10.461  0.2258 -0.8976 -0.0062
  205MOL0     C27551   4.468   1.990  10.420 -0.0959 -0.6568 -0.2070
  205MOL0     C27552   4.550   1.910  10.327  0.2033 -0.5373 -0.3531
  205MOL0     C27553   4.666   1.987  10.261  0.8396  1.0120 -0.5324
  205MOL0     C27554   4.711   1.911  10.132  0.1962 -0.3380  0.7887
  205MOL0     C27555   4.847   1.974  10.101  0.5501  0.3141 -0.0863
  205MOL0     C27556   4.895   1.950   9.960 -0.5109 -0.1619  0.3457
  205MOL0     N27557   5.026   2.008   9.961 -0.4262  0.4030  0.0534
  205MOL0     C27558   5.131   1.934   9.946 -0.6505  0.2648  0.4157
  205MOL0     C27559   5.232   2.004   9.999 -0.0393  0.1240 -0.4406
  205MOL0     C27560   5.375   1.957  10.000  0.4132  0.4904  0.5064
  205MOL0     C27561   5.453   1.982   9.872 -0.0323 -0.6876 -0.6110
  205MOL0     C27562   5.441   1.866   9.767  0.2785  0.6414  0.6128
  205MOL0     C27563   5.452   1.909   9.620  0.3959 -0.0462 -0.2944
  205MOL0     O27564   5.574   1.972   9.578 -0.1320 -0.4747  0.7045
  205MOL0     C27565   5.574   2.041   9.458  0.8698 -0.1037  0.2890
  205MOL0     C27566   5.491   2.019   9.352  0.2132  0.0906 -1.8341
  205MOL0     C27567   5.505   2.098   9.233  0.0325  0.2999 -0.3699
  205MOL0     C27568   5.598   2.196   9.227  0.4639 -0.5317  0.5096
  205MOL0     C27569   5.598   2.279   9.105  0.3442  0.4486 -0.2201
  205MOL0     O27570   5.494   2.265   9.018 -0.3687 -0.0747 -0.4033
  205MOL0     C27571   5.500   2.333   8.899 -1.0971  0.0867 -0.3286
  205MOL0     C27572   5.577   2.281   8.797  0.3591  0.1221 -0.4528
  205MOL0     C27573   5.586   2.352   8.671 -0.1411 -0.4880  0.1843
  205MOL0     C27574   5.517   2.480   8.658  0.0129  0.0452 -0.4652
  205MOL0     O27575   5.510   2.562   8.542  0.2561  0.7163 -0.3627
  205MOL0     C27576   5.567   2.502   8.422 -0.0015  0.1084 -0.0841
  205MOL0     C27577   5.514   2.591   8.310 -0.1326  0.7176 -0.0367
  205MOL0     C27578   5.577   2.743   8.321  0.8076  0.0895  2.0497
  205MOL0     C27579   5.470   2.859   8.288 -0.2313  0.7283  1.5903
  205MOL0     C27580   5.430   2.844   8.131 -0.4508 -0.1321  0.1987
  205MOL0     C27581   5.418   2.973   8.061  1.0953  0.5406  0.2021
  205MOL0     C27582   5.358   2.964   7.915 -0.2933  0.2082 -0.4987
  205MOL0     C27583   5.406   2.844   7.834  0.0530  1.3334  0.0767
  205MOL0    Cl27584   5.582   2.842   7.801  0.3261 -0.2945 -0.2868
  205MOL0     C27585   5.435   2.525   8.764  0.8191 -0.1045  0.5536
  205MOL0     C27586   5.428   2.449   8.883 -0.0626 -1.0699  1.0499
  205MOL0     O27587   5.696   2.347   9.099  0.0078  0.5961  0.4549
  205MOL0     C27588   5.693   2.207   9.336  0.0020  0.0145  0.1740
  205MOL0     C27589   5.683   2.130   9.447 -0.8699  0.7148 -0.4225
  205MOL0     N27590   5.195   2.134  10.035 -0.4692 -0.2190 -0.2285
  205MOL0     N27591   5.067   2.128  10.020  0.3307  0.9811 -0.3279
  205MOL0     C27592   4.012   2.161  10.597 -1.2556  0.3005  0.0981
  205MOL0     C27593   3.914   2.258  10.597  0.5738 -0.5293 -0.6717
  205MOL0     C27594   3.755   2.675  10.707 -0.1380  0.4334 -0.7269
  205MOL0     C27595   3.724   2.725  10.831 -0.3375  1.4677 -0.8618
  205MOL0     C27596   3.634   2.824  10.844 -0.7181  0.4198  0.3461
  205MOL0     C27597   3.565   2.876  10.737  0.1792 -0.2921 -1.4929
  205MOL0     O27598   3.467   2.971  10.772 -0.3640 -0.8066  0.0738
  205MOL0     C27599   3.374   3.020  10.676 -0.1838 -0.1337 -0.1851
  205MOL0     C27600   3.325   3.161  10.705 -0.2008 -0.6110  0.3116
  205MOL0     C27601   3.449   3.265  10.696 -0.2753 -0.0319 -0.1891
  205MOL0     C27602   3.396   3.407  10.625 -0.7729 -0.1945 -0.4289
  205MOL0     C27603   3.351   3.378  10.489 -0.7581 -1.4372 -0.4333
  205MOL0     C27604   3.318   3.345  10.382  0.4422  0.3610  0.2813
  205MOL0     C27605   3.592   2.833  10.612 -1.1345 -0.6764  1.0085
  205MOL0     C27606   3.692   2.734  10.596  0.2605  0.0904  0.5458
  205MOL0     C27607   3.721   2.708  10.446 -0.5794 -0.3328  0.4479
  205MOL0     H27608   4.095   2.528  10.533 -0.1334  0.1369 -0.1117
  205MOL0     H27609   4.291   2.354  10.590 -0.4552 -1.6489  0.8897
  205MOL0     H27610   4.174   1.911  10.564  2.8071 -1.3550 -0.6550
  205MOL0     H27611   4.167   2.007  10.410  0.3354 -1.5284 -0.9894
  205MOL0     H27612   4.318   1.841  10.385 -0.7160  1.0662 -1.6508
  205MOL0     H27613   4.373   1.848  10.544 -0.2646 -1.7583 -0.5258
  205MOL0     H27614   4.520   2.014  10.513  0.4375  2.2406 -1.1576
  205MOL0     H27615   4.435   2.086  10.380  0.1910 -0.6400 -0.4069
  205MOL0     H27616   4.583   1.822  10.383 -0.7144 -1.7865 -1.6978
  205MOL0     H27617   4.482   1.876  10.248  0.6190  0.1204 -1.0107
  205MOL0     H27618   4.622   2.085  10.242 -1.3363 -0.0239 -1.1253
  205MOL0     H27619   4.745   2.000  10.336 -2.3439 -2.6055  4.0011
  205MOL0     H27620   4.736   1.806  10.152  2.9779  0.3644  1.4375
  205MOL0     H27621   4.646   1.921  10.045  1.5197 -3.3399 -0.6796
  205MOL0     H27622   4.917   1.935  10.175 -1.1700 -3.3694 -0.2052
  205MOL0     H27623   4.839   2.083  10.109  0.7648  0.7334 -3.6753
  205MOL0     H27624   4.897   1.843   9.939 -1.1164 -0.1292  0.0907
  205MOL0     H27625   4.828   1.995   9.886  0.9954  1.9196  0.1453
  205MOL0     H27626   5.128   1.843   9.886 -1.1447 -0.5879  1.6809
  205MOL0     H27627   5.415   2.014  10.084  0.7340 -1.6490  1.9004
  205MOL0     H27628   5.374   1.850  10.026 -0.0095  0.9735  2.7075
  205MOL0     H27629   5.413   2.076   9.833  0.0976  0.7240  2.3412
  205MOL0     H27630   5.559   2.000   9.887 -0.5540  2.7086 -0.2150
  205MOL0     H27631   5.347   1.812   9.780  0.5658  0.0170  0.1545
  205MOL0     H27632   5.513   1.790   9.799 -0.8204 -1.2316 -1.1207
  205MOL0     H27633   5.366   1.976   9.611 -0.8840 -1.5982 -0.2058
  205MOL0     H27634   5.437   1.822   9.555  1.5032  0.8723 -1.8305
  205MOL0     H27635   5.410   1.948   9.366  0.2997  0.3951  0.6494
  205MOL0     H27636   5.430   2.082   9.156  0.1167 -0.7870 -0.2381
  205MOL0     H27637   5.642   2.196   8.816 -0.5905 -0.8948 -1.6234
  205MOL0     H27638   5.630   2.293   8.591 -1.7994 -1.6119  0.0585
  205MOL0     H27639   5.675   2.497   8.441 -0.1386 -0.9791  0.5327
  205MOL0     H27640   5.540   2.397   8.410  0.9952 -0.7147  3.4517
  205MOL0     H27641   5.553   2.553   8.215  2.2294  0.3101  1.0227
  205MOL0     H27642   5.407   2.587   8.332 -0.1420 -0.7074 -0.2924
  205MOL0     H27643   5.606   2.765   8.424  0.5720  2.3794  1.6743
  205MOL0     H27644   5.677   2.749   8.277  0.1317 -1.6508  0.0979
  205MOL0     H27645   5.509   2.960   8.306  0.7451  0.2002  2.4963
  205MOL0     H27646   5.374   2.849   8.341 -3.2562  0.2336 -3.3784
  205MOL0     H27647   5.336   2.789   8.126 -1.9301  2.1753  1.1015
  205MOL0     H27648   5.517   2.788   8.096 -0.4355  0.6808 -1.1111
  205MOL0     H27649   5.352   3.038   8.119 -0.5607 -0.5401 -0.3975
  205MOL0     H27650   5.518   3.017   8.053  0.4882  1.7444 -1.3931
  205MOL0     H27651   5.389   3.055   7.862  0.5969  0.0795 -0.2092
  205MOL0     H27652   5.249   2.971   7.925 -0.3247 -0.6439 -0.2372
  205MOL0     H27653   5.386   2.749   7.885 -5.3597  1.3348 -1.4454
  205MOL0     H27654   5.361   2.846   7.734 -0.4466  3.2890  0.3180
  205MOL0     H27655   5.377   2.617   8.767  0.6077 -0.2245  0.2217
  205MOL0     H27656   5.369   2.491   8.964 -1.6752  0.5346 -0.8589
  205MOL0     H27657   5.776   2.278   9.338 -0.0850  0.3350 -2.9615
  205MOL0     H27658   5.757   2.140   9.525 -0.1176 -0.9182 -0.8947
  205MOL0     H27659   3.975   2.059  10.605 -0.1929 -0.0313  1.0630
  205MOL0     H27660   3.808   2.236  10.598  0.0815  1.5641  0.3659
  205MOL0     H27661   3.759   2.667  10.915  1.1977  3.1170 -0.2973
  205MOL0     H27662   3.607   2.854  10.945 -0.1206 -5.4937  2.6222
  205MOL0     H27663   3.287   2.954  10.670 -0.1812 -0.2954  1.1958
  205MOL0     H27664   3.407   3.025  10.572 -1.3423  1.6314 -0.5160
  205MOL0     H27665   3.294   3.169  10.810  3.0237  1.3394  1.2614
  205MOL0     H27666   3.246   3.182  10.633  0.8076 -1.9398 -1.2364
  205MOL0     H27667   3.537   3.224  10.644 -1.1030 -2.6668  0.3202
  205MOL0     H27668   3.485   3.276  10.799  0.0768 -1.3015 -0.1606
  205MOL0     H27669   3.308   3.441  10.682 -0.5038 -1.2220  0.6300
  205MOL0     H27670   3.473   3.485  10.620 -0.8464 -0.1514 -0.9410
  205MOL0     H27671   3.277   3.309  10.290  3.8415  1.8316 -2.0135
  205MOL0     H27672   3.543   2.882  10.528 -0.4453 -3.5863 -1.2811
  205MOL0     H27673   3.702   2.606  10.412 -1.9300 -0.0186  0.2236
  205MOL0     H27674   3.662   2.760  10.370  1.7198 -0.6746 -1.7282
  205MOL0     H27675   3.830   2.722  10.449 -0.7348  0.8063  1.5766
  206MOL0     O27676   4.837   5.600   0.119  0.2291 -0.2107  0.4148
  206MOL0     C27677   4.837   5.633   0.236  0.7714 -0.6742 -0.4147
  206MOL0     O27678   4.726   5.646   0.319 -0.3368 -0.2563 -0.5985
  206MOL0     C27679   4.599   5.594   0.285  0.2618  0.1433  0.1969
  206MOL0     C27680   4.521   5.546   0.391  0.4806 -0.1716 -0.1089
  206MOL0     C27681   4.390   5.494   0.376 -0.8956  1.1286 -0.8596
  206MOL0     C27682   4.342   5.487   0.254 -0.5575  0.0048 -0.0090
  206MOL0     O27683   4.224   5.418   0.220  0.1415  0.3990 -0.2297
  206MOL0     C27684   4.209   5.300   0.304  0.0294 -0.9711  0.1015
  206MOL0     C27685   4.112   5.209   0.227  0.3446  0.3506  0.3917
  206MOL0     C27686   4.056   5.092   0.319  0.0184  0.2871  0.3696
  206MOL0     C27687   3.986   4.992   0.239  0.0647  0.2577  0.7934
  206MOL0     C27688   3.931   4.868   0.317  0.9819  0.7693 -0.3840
  206MOL0     C27689   3.818   4.902   0.417 -0.6241 -0.3591 -0.4217
  206MOL0     C27690   3.741   4.779   0.464  0.1777  0.5774  0.5211
  206MOL0     C27691   3.827   4.675   0.535 -0.6843  0.4503 -0.1962
  206MOL0     N27692   3.739   4.583   0.608  1.1433 -0.1935  0.0658
  206MOL0     C27693   3.700   4.455   0.554 -0.2180 -0.6775 -1.5953
  206MOL0     C27694   3.620   4.393   0.652 -0.5050 -0.3866 -0.2759
  206MOL0     C27695   3.555   4.261   0.659  1.6240  0.6601 -0.0078
  206MOL0     C27696   3.633   4.157   0.740  0.3385 -0.3635  0.5208
  206MOL0     C27697   3.581   4.017   0.720 -0.4949 -0.3178 -0.2518
  206MOL0     C27698   3.630   3.916   0.823  0.1606 -1.1834  0.3404
  206MOL0     O27699   3.538   3.944   0.928 -0.1528  0.5664 -0.3649
  206MOL0     C27700   3.478   3.833   0.989 -0.5198  0.4100 -0.2587
  206MOL0     C27701   3.344   3.839   1.019 -0.8407 -0.0920  0.0748
  206MOL0     C27702   3.285   3.735   1.095 -0.1836  0.5056 -0.4354
  206MOL0     C27703   3.352   3.620   1.145 -0.6428 -0.3121  0.5001
  206MOL0     C27704   3.277   3.518   1.216  1.1510  0.0807  0.0757
  206MOL0     O27705   3.345   3.410   1.252 -0.2284 -0.1339 -0.3637
  206MOL0     C27706   3.278   3.312   1.325 -0.1652  0.1866 -0.4890
  206MOL0     C27707   3.296   3.321   1.468 -1.0983  0.1149  0.1356
  206MOL0     C27708   3.219   3.248   1.560 -0.7750  0.7988  0.4243
  206MOL0     C27709   3.126   3.154   1.507 -0.3277 -0.4263 -1.0157
  206MOL0     O27710   3.054   3.084   1.599  0.4451 -0.2870  0.4152
  206MOL0     C27711   3.000   2.958   1.551  0.3832 -0.0802  0.2845
  206MOL0     C27712   2.961   2.872   1.672 -0.1044  0.3968 -0.3639
  206MOL0     C27713   3.066   2.818   1.760  0.1477 -0.1672 -0.8249
  206MOL0     C27714   3.020   2.771   1.911  0.1022  0.2460 -0.8274
  206MOL0     C27715   3.075   2.639   1.944 -0.4525 -0.2810 -0.0333
  206MOL0     C27716   3.221   2.624   1.956 -0.7470 -0.8626  0.6991
  206MOL0     C27717   3.266   2.482   1.986  0.4805 -0.0145  0.2248
  206MOL0     C27718   3.176   2.398   2.080 -0.5311  0.4557  0.4520
  206MOL0    Cl27719   3.048   2.313   1.976  0.4627 -0.0139 -0.0581
  206MOL0     C27720   3.112   3.140   1.368  0.8716  0.2519  0.5298
  206MOL0     C27721   3.194   3.213   1.275 -0.2013  0.4978  0.3311
  206MOL0     O27722   3.157   3.527   1.223  0.7150 -0.7995 -0.0252
  206MOL0     C27723   3.483   3.611   1.104 -0.4412 -0.1348 -1.0886
  206MOL0     C27724   3.547   3.717   1.037 -0.4203 -0.3891 -0.1708
  206MOL0     N27725   3.614   4.488   0.759  0.5350 -0.1159 -0.1798
  206MOL0     N27726   3.685   4.592   0.733 -0.5397  0.6241  0.8202
  206MOL0     C27727   4.413   5.530   0.144 -0.3462 -0.3549  0.0112
  206MOL0     C27728   4.546   5.588   0.149  0.5863  0.3181 -0.1446
  206MOL0     C27729   4.973   5.634   0.303 -1.4885 -0.1514  0.4619
  206MOL0     C27730   4.987   5.624   0.443  0.3455  0.9033 -0.1408
  206MOL0     C27731   5.104   5.623   0.514  1.0833  0.1892  0.2252
  206MOL0     C27732   5.221   5.619   0.438  0.6158  0.2123  0.2910
  206MOL0     O27733   5.348   5.615   0.492 -0.1696  0.5277  0.2160
  206MOL0     C27734   5.379   5.670   0.622  0.1351  0.0174  0.5700
  206MOL0     C27735   5.389   5.819   0.608  0.3435  0.4085 -0.5141
  206MOL0     C27736   5.482   5.871   0.490 -0.7943 -0.1690  0.7127
  206MOL0     C27737   5.478   6.019   0.503  0.1267  0.2631 -0.1975
  206MOL0     C27738   5.399   6.076   0.391 -0.5738  0.0713  0.1314
  206MOL0     C27739   5.347   6.122   0.296  0.7866 -1.0642 -1.4437
  206MOL0     C27740   5.217   5.635   0.305  0.8325 -0.0878  0.3240
  206MOL0     C27741   5.102   5.650   0.234  0.6820 -0.0287 -0.3765
  206MOL0     C27742   5.123   5.655   0.088 -0.7728  0.1663 -0.1314
  206MOL0     H27743   4.568   5.562   0.487 -1.7133  1.1302  0.8213
  206MOL0     H27744   4.338   5.460   0.465  0.4217  1.9727  0.2644
  206MOL0     H27745   4.305   5.255   0.331  0.3697 -1.7477 -2.2565
  206MOL0     H27746   4.159   5.329   0.398  3.6996  3.7367  1.0095
  206MOL0     H27747   4.168   5.154   0.150  0.5284  1.9158 -0.6398
  206MOL0     H27748   4.027   5.256   0.177 -0.3355 -1.3119 -0.1138
  206MOL0     H27749   3.989   5.143   0.388 -1.9381  1.0048 -1.9166
  206MOL0     H27750   4.137   5.041   0.372 -0.7614  0.8930  2.1952
  206MOL0     H27751   3.901   5.041   0.191  0.4732 -0.0590 -0.2758
  206MOL0     H27752   4.057   4.964   0.161  1.0214  1.1306  1.3304
  206MOL0     H27753   3.897   4.789   0.250  0.0201 -1.2798  2.3733
  206MOL0     H27754   4.020   4.825   0.364 -1.0323 -1.4052  1.6609
  206MOL0     H27755   3.848   4.963   0.502 -0.3003 -0.9764 -0.0832
  206MOL0     H27756   3.744   4.955   0.356  0.0742 -2.3264 -3.1974
  206MOL0     H27757   3.704   4.731   0.373  1.6142 -0.2401  0.3328
  206MOL0     H27758   3.661   4.796   0.536  0.3434 -2.8376  1.6716
  206MOL0     H27759   3.882   4.619   0.459  0.4227  3.3130 -1.6349
  206MOL0     H27760   3.903   4.721   0.599  2.2900 -0.0925 -3.0329
  206MOL0     H27761   3.729   4.406   0.462  1.6767 -0.8971 -0.9142
  206MOL0     H27762   3.454   4.266   0.701  0.8837 -0.1841 -1.5963
  206MOL0     H27763   3.541   4.223   0.557 -0.1908  1.6544 -0.1659
  206MOL0     H27764   3.736   4.147   0.704 -0.4007 -1.8610 -1.3451
  206MOL0     H27765   3.631   4.179   0.847  3.4199  4.0011 -0.0360
  206MOL0     H27766   3.607   3.971   0.624 -3.4943 -2.7595 -0.0731
  206MOL0     H27767   3.472   4.016   0.714 -0.7741  2.8506  1.7895
  206MOL0     H27768   3.736   3.929   0.844  0.2687 -1.6935  0.1337
  206MOL0     H27769   3.626   3.814   0.782  3.3578 -1.4692  0.5038
  206MOL0     H27770   3.279   3.921   0.989 -2.7166 -0.9123  1.6725
  206MOL0     H27771   3.181   3.756   1.118  0.3443  2.8130  0.0918
  206MOL0     H27772   3.355   3.390   1.527 -0.4592 -2.0024  2.1500
  206MOL0     H27773   3.235   3.258   1.667  3.7191 -0.1989  0.0821
  206MOL0     H27774   2.907   2.977   1.497  1.3977  1.0315 -1.1267
  206MOL0     H27775   3.076   2.910   1.490  1.7168  2.6729 -0.4092
  206MOL0     H27776   2.892   2.935   1.728 -1.2803 -1.1791  0.0173
  206MOL0     H27777   2.904   2.787   1.635 -0.6277  0.6525 -0.1561
  206MOL0     H27778   3.111   2.731   1.711  0.6674  0.1743 -0.9716
  206MOL0     H27779   3.140   2.898   1.771 -1.8497  1.7008 -0.2158
  206MOL0     H27780   2.913   2.750   1.910 -0.0001  0.2281  1.8454
  206MOL0     H27781   3.047   2.838   1.994  2.3022 -2.2441  0.6203
  206MOL0     H27782   3.043   2.578   1.858 -1.6489  2.0771 -1.3583
  206MOL0     H27783   3.027   2.607   2.037 -0.4392 -0.4754 -0.0917
  206MOL0     H27784   3.258   2.666   1.861 -2.2959 -1.2741 -0.1089
  206MOL0     H27785   3.243   2.690   2.040 -2.5871 -3.9898  3.8704
  206MOL0     H27786   3.367   2.472   2.026  0.5229  0.2002  0.1736
  206MOL0     H27787   3.263   2.431   1.890  1.0367 -1.1813  0.8049
  206MOL0     H27788   3.240   2.324   2.129  0.3859  1.1067  0.2688
  206MOL0     H27789   3.128   2.465   2.152 -0.4105  0.5342  0.4603
  206MOL0     H27790   3.057   3.069   1.307  0.0910  1.7187 -0.5403
  206MOL0     H27791   3.180   3.208   1.167  0.9150 -3.0326  0.2347
  206MOL0     H27792   3.544   3.529   1.143  1.6781  1.4046 -0.9848
  206MOL0     H27793   3.653   3.712   1.011 -0.4365 -1.4665 -0.0838
  206MOL0     H27794   4.365   5.532   0.047  0.0167 -0.8994 -0.1884
  206MOL0     H27795   4.593   5.638   0.064  3.5921  1.3792  1.9860
  206MOL0     H27796   4.892   5.600   0.490 -0.7671 -3.2909 -3.7984
  206MOL0     H27797   5.102   5.617   0.622 -1.1255 -1.0221  0.1767
  206MOL0     H27798   5.475   5.630   0.655 -0.4991 -0.0236  2.4646
  206MOL0     H27799   5.298   5.641   0.689 -0.3853 -0.1054 -0.0937
  206MOL0     H27800   5.421   5.845   0.709  2.6381 -1.8252 -0.5576
  206MOL0     H27801   5.288   5.849   0.579 -0.5195  0.1648  2.0092
  206MOL0     H27802   5.458   5.832   0.390  1.3338  0.3821 -0.0606
  206MOL0     H27803   5.585   5.837   0.502 -0.1834  1.7094  1.1381
  206MOL0     H27804   5.425   6.053   0.591  2.2559  1.3106  0.7604
  206MOL0     H27805   5.584   6.048   0.499  0.6193 -0.8052  2.9513
  206MOL0     H27806   5.287   6.151   0.212 -0.1520  1.5541  0.0059
  206MOL0     H27807   5.308   5.628   0.246 -0.1105 -3.7225 -0.9405
  206MOL0     H27808   5.142   5.550   0.061  1.7058 -0.4887  3.3240
  206MOL0     H27809   5.038   5.696   0.034 -0.6518  0.3405 -0.1896
  206MOL0     H27810   5.212   5.717   0.074 -2.0913  3.3800  3.9262
  207MOL0     O27811   6.537   1.014   4.546 -0.4769 -0.1809  0.7365
  207MOL0     C27812   6.423   1.048   4.527  0.1164 -0.4309 -0.3448
  207MOL0     O27813   6.315   0.991   4.576  0.3468  0.0495 -0.0812
  207MOL0     C27814   6.313   0.852   4.614 -0.5453  0.5649  0.3502
  207MOL0     C27815   6.417   0.774   4.682 -0.2160 -0.2394 -0.3715
  207MOL0     C27816   6.395   0.646   4.742  0.2171 -0.8577 -0.3306
  207MOL0     C27817   6.270   0.576   4.719  0.1722  0.3370 -0.2310
  207MOL0     O27818   6.239   0.452   4.766 -0.4640 -0.4934 -0.0220
  207MOL0     C27819   6.321   0.390   4.868  0.8195  0.2248  0.3536
  207MOL0     C27820   6.224   0.331   4.967  0.6622 -0.7166  0.4140
  207MOL0     C27821   6.289   0.232   5.066  0.0914  0.2656  0.0908
  207MOL0     C27822   6.182   0.204   5.178  0.8123 -0.3086  0.7901
  207MOL0     C27823   6.238   0.138   5.309 -0.8923 -0.7699 -0.5644
  207MOL0     C27824   6.125   0.101   5.409 -1.0181 -0.7507  0.0784
  207MOL0     C27825   6.065  -0.025   5.353 -0.0024  0.4880 -0.1630
  207MOL0     C27826   6.014  -0.101   5.472 -0.4534  0.2017  0.0588
  207MOL0     N27827   5.920  -0.037   5.565 -0.8317  0.2874  0.1974
  207MOL0     C27828   5.787  -0.031   5.543 -0.0974  0.3504 -0.3056
  207MOL0     C27829   5.740   0.011   5.660  0.6572 -0.4965 -1.1745
  207MOL0     C27830   5.597   0.039   5.700 -0.3337 -0.2882 -0.9789
  207MOL0     C27831   5.575   0.191   5.705 -0.0167 -0.1150 -1.0856
  207MOL0     C27832   5.602   0.253   5.574  0.2013 -0.1440 -0.4293
  207MOL0     C27833   5.744   0.300   5.555 -0.3401 -0.3943 -0.8258
  207MOL0     O27834   5.781   0.319   5.413  0.7674 -0.6265  0.4853
  207MOL0     C27835   5.826   0.442   5.371  0.2013 -0.0009 -0.8462
  207MOL0     C27836   5.808   0.564   5.438  0.5225  0.4382  0.5391
  207MOL0     C27837   5.860   0.692   5.395  0.2532 -0.6855  0.5882
  207MOL0     C27838   5.931   0.689   5.276 -0.7317  0.4301  0.5663
  207MOL0     C27839   5.977   0.808   5.214  0.0272 -0.6891  0.9426
  207MOL0     O27840   6.049   0.795   5.095  0.0847 -0.7917  0.1315
  207MOL0     C27841   6.096   0.910   5.031  0.0051 -0.1404 -0.7231
  207MOL0     C27842   6.058   0.913   4.895 -1.3091  0.4671  0.7847
  207MOL0     C27843   6.098   1.026   4.821  0.2890 -0.4925 -0.0242
  207MOL0     C27844   6.160   1.134   4.884  0.5693 -0.7824 -0.8860
  207MOL0     O27845   6.186   1.231   4.799  0.8902 -0.6254 -0.4429
  207MOL0     C27846   6.262   1.342   4.841 -0.0985 -0.2481  0.2117
  207MOL0     C27847   6.282   1.428   4.716 -0.6800 -0.3299 -0.6724
  207MOL0     C27848   6.346   1.565   4.748  0.0912  0.3484  0.3070
  207MOL0     C27849   6.268   1.639   4.859 -0.5031  0.1152 -0.7058
  207MOL0     C27850   6.278   1.796   4.869  0.3476 -0.0609 -0.7219
  207MOL0     C27851   6.287   1.850   5.019 -0.2896 -0.5561  1.9227
  207MOL0     C27852   6.171   1.819   5.100  0.4796 -0.5762 -0.3761
  207MOL0     C27853   6.158   1.919   5.213  0.0719  0.0355  0.5956
  207MOL0    Cl27854   5.980   1.948   5.273 -0.0723  0.1218 -0.0323
  207MOL0     C27855   6.194   1.129   5.021  1.2806  0.5120  0.1132
  207MOL0     C27856   6.161   1.016   5.096  0.1083  0.0572 -0.1562
  207MOL0     O27857   5.952   0.912   5.267 -0.2936  0.1158 -0.0769
  207MOL0     C27858   5.952   0.565   5.210 -0.5059  0.3058  0.6856
  207MOL0     C27859   5.902   0.443   5.258 -0.0446  1.2101 -0.7946
  207MOL0     N27860   5.837   0.026   5.756 -1.0515  0.1113  0.0928
  207MOL0     N27861   5.949   0.012   5.696  0.1567  0.0189 -0.1187
  207MOL0     C27862   6.176   0.651   4.660  0.6997  0.1883  0.7941
  207MOL0     C27863   6.194   0.779   4.603 -0.2053  0.2235 -1.2311
  207MOL0     C27864   6.396   1.166   4.444  0.9304 -0.1443  1.0651
  207MOL0     C27865   6.259   1.202   4.421  0.2726 -0.1822 -0.6856
  207MOL0     C27866   6.225   1.324   4.347 -0.2616  0.5812 -0.1264
  207MOL0     C27867   6.326   1.394   4.282 -0.0130 -0.1244  0.5832
  207MOL0     O27868   6.298   1.501   4.202  0.1384  0.1129  0.1643
  207MOL0     C27869   6.196   1.595   4.230 -0.9198  0.2909  0.2650
  207MOL0     C27870   6.227   1.733   4.163  0.0651  1.0480 -0.2266
  207MOL0     C27871   6.364   1.792   4.203 -0.3687  0.0151 -0.0019
  207MOL0     C27872   6.392   1.819   4.357  0.0415  0.0656 -0.2204
  207MOL0     C27873   6.275   1.859   4.432 -0.5908 -0.3376 -0.4159
  207MOL0     C27874   6.185   1.873   4.506 -0.4099  0.3335 -0.8818
  207MOL0     C27875   6.460   1.352   4.294  1.4737  0.1941  0.3019
  207MOL0     C27876   6.495   1.243   4.372 -0.3357  0.8657  0.5294
  207MOL0     C27877   6.640   1.208   4.362  0.3211 -0.6638 -0.4428
  207MOL0     H27878   6.516   0.810   4.709 -0.2865 -0.9881  1.0074
  207MOL0     H27879   6.472   0.604   4.806  0.8290 -1.6437 -1.5379
  207MOL0     H27880   6.374   0.301   4.832  0.6024 -1.1700  3.1717
  207MOL0     H27881   6.380   0.457   4.931  0.0779  2.0009 -0.7672
  207MOL0     H27882   6.143   0.287   4.907 -1.1600  2.9568 -0.1441
  207MOL0     H27883   6.179   0.417   5.019  2.4372 -0.0521  0.9285
  207MOL0     H27884   6.381   0.271   5.111  0.2585 -0.0250  0.0075
  207MOL0     H27885   6.313   0.133   5.025 -1.6273 -0.5503  0.9188
  207MOL0     H27886   6.142   0.298   5.217  0.1694 -0.9638  1.7665
  207MOL0     H27887   6.101   0.147   5.132  0.5463  1.5432 -1.2365
  207MOL0     H27888   6.305   0.058   5.279 -0.0598  0.0954 -1.0776
  207MOL0     H27889   6.316   0.205   5.348  1.5421 -2.4462 -2.2764
  207MOL0     H27890   6.160   0.084   5.512 -0.9544  1.2205  0.4098
  207MOL0     H27891   6.047   0.177   5.419  1.7977  2.3186  0.3336
  207MOL0     H27892   6.140  -0.082   5.297  0.6178  0.8239  0.3097
  207MOL0     H27893   5.979  -0.003   5.290  0.2964  1.0189 -0.4014
  207MOL0     H27894   5.972  -0.190   5.424  1.1808  0.7176 -2.5671
  207MOL0     H27895   6.091  -0.137   5.540 -1.7664  1.5834  2.4200
  207MOL0     H27896   5.730  -0.050   5.453  2.5185 -1.7194 -1.6241
  207MOL0     H27897   5.535  -0.010   5.624  2.1370 -1.0828 -2.5985
  207MOL0     H27898   5.569  -0.002   5.797 -0.5789  2.3166  0.1217
  207MOL0     H27899   5.484   0.205   5.763  1.2643  0.9630  0.7641
  207MOL0     H27900   5.642   0.224   5.785  0.8134 -1.3319 -1.2417
  207MOL0     H27901   5.518   0.323   5.562  1.7254  1.4246 -2.7557
  207MOL0     H27902   5.596   0.178   5.494  1.7555  0.1065 -0.8021
  207MOL0     H27903   5.818   0.237   5.607 -1.4008 -0.9834  0.0198
  207MOL0     H27904   5.761   0.396   5.604 -0.1382 -0.5662 -0.5529
  207MOL0     H27905   5.731   0.559   5.515  0.2328  2.8082  0.4595
  207MOL0     H27906   5.839   0.787   5.443  0.1980 -0.3324 -0.1337
  207MOL0     H27907   6.000   0.835   4.848  0.3869 -0.5566  0.3081
  207MOL0     H27908   6.055   1.033   4.722  0.2969  0.8361  0.0552
  207MOL0     H27909   6.215   1.395   4.924  2.1394 -3.1402  3.6002
  207MOL0     H27910   6.354   1.311   4.891 -1.7244 -2.7502  1.9108
  207MOL0     H27911   6.355   1.373   4.656  0.0221 -0.0018 -0.1361
  207MOL0     H27912   6.196   1.442   4.650  0.3683  0.6736 -1.8901
  207MOL0     H27913   6.454   1.563   4.767 -0.0569 -1.4681  1.1269
  207MOL0     H27914   6.332   1.627   4.659  2.5700  0.4239 -0.1186
  207MOL0     H27915   6.295   1.588   4.953 -1.3655 -2.1057 -1.5879
  207MOL0     H27916   6.161   1.618   4.851 -0.0440 -2.5813 -0.8264
  207MOL0     H27917   6.187   1.840   4.828 -0.0064  1.1177  1.2004
  207MOL0     H27918   6.374   1.826   4.825  1.4767 -2.0126  0.2198
  207MOL0     H27919   6.385   1.820   5.056  1.0524  2.7332  1.3409
  207MOL0     H27920   6.318   1.955   5.012  0.2798 -0.7532  1.4387
  207MOL0     H27921   6.193   1.719   5.139  1.7229 -0.2428 -0.1983
  207MOL0     H27922   6.076   1.810   5.046 -0.8174 -1.0226  1.8019
  207MOL0     H27923   6.227   1.883   5.291 -0.3790  1.3017  1.6188
  207MOL0     H27924   6.196   2.016   5.181 -0.3879  0.0648  0.1323
  207MOL0     H27925   6.259   1.197   5.077  3.7850 -1.2706 -0.4313
  207MOL0     H27926   6.165   1.004   5.204 -1.7094 -0.8207 -0.1517
  207MOL0     H27927   6.025   0.563   5.129 -1.2152 -1.3064  0.0445
  207MOL0     H27928   5.923   0.349   5.208 -0.7957  1.7993 -2.2879
  207MOL0     H27929   6.074   0.617   4.643  1.3903 -1.0252 -1.2082
  207MOL0     H27930   6.106   0.829   4.563 -2.2868 -1.6395  0.7345
  207MOL0     H27931   6.163   1.153   4.439 -0.6723  1.4188 -1.1605
  207MOL0     H27932   6.119   1.347   4.352  0.2145  2.7419  1.4479
  207MOL0     H27933   6.176   1.607   4.337  2.2115 -0.2220  0.9947
  207MOL0     H27934   6.102   1.577   4.176 -1.4136 -0.1231  1.2327
  207MOL0     H27935   6.150   1.803   4.194 -0.1442 -0.7855  4.1239
  207MOL0     H27936   6.218   1.713   4.055 -0.0306 -1.0846  0.1215
  207MOL0     H27937   6.362   1.890   4.154 -0.1861 -0.4354 -0.9323
  207MOL0     H27938   6.445   1.728   4.165 -0.6531 -0.3107 -0.0641
  207MOL0     H27939   6.417   1.725   4.406 -0.6645  0.8429  1.7133
  207MOL0     H27940   6.477   1.886   4.375  2.0463 -1.2058 -3.8404
  207MOL0     H27941   6.116   1.891   4.586 -1.1024 -1.2745 -1.0912
  207MOL0     H27942   6.545   1.400   4.244  1.1628  2.8547  2.1430
  207MOL0     H27943   6.691   1.278   4.296 -0.7104  2.5902  1.9420
  207MOL0     H27944   6.678   1.220   4.464 -3.5951 -0.6033  1.1978
  207MOL0     H27945   6.652   1.104   4.330 -0.1808 -0.1996 -2.2625
  208MOL0     O27946   1.840   5.909   3.681 -0.0346  1.0250  0.0618
  208MOL0     C27947   1.903   5.818   3.735  0.5929 -0.2799 -0.1502
  208MOL0     O27948   1.946   5.815   3.868 -1.1456  0.8580  0.9546
  208MOL0     C27949   1.953   5.932   3.937  0.3790 -0.3207  0.6597
  208MOL0     C27950   2.043   6.032   3.891  0.6046  0.2622  0.4760
  208MOL0     C27951   2.036   6.152   3.953  0.4641 -0.4662 -0.6032
  208MOL0     C27952   1.964   6.177   4.065  0.4423  0.3148 -0.6225
  208MOL0     O27953   1.979   6.308   4.113  0.2150 -0.3802  0.4515
  208MOL0     C27954   1.869   6.370   4.178  0.2729  0.4029  0.0687
  208MOL0     C27955   1.867   6.520   4.194  0.4032 -0.4561 -0.2621
  208MOL0     C27956   1.741   6.555   4.274 -0.0394  0.5652 -0.1153
  208MOL0     C27957   1.606   6.585   4.198 -0.8697  0.1135  1.0293
  208MOL0     C27958   1.489   6.571   4.293 -0.0251  0.1246  1.0399
  208MOL0     C27959   1.355   6.571   4.215 -0.4612 -0.2559 -0.0429
  208MOL0     C27960   1.247   6.563   4.322  1.1188  0.8996 -0.4626
  208MOL0     C27961   1.124   6.499   4.251 -0.1046 -0.0947  0.6895
  208MOL0     N27962   1.051   6.581   4.152  0.0153  0.6270 -0.1602
  208MOL0     C27963   0.982   6.694   4.183 -0.1760  0.1463 -0.0302
  208MOL0     C27964   0.960   6.760   4.062 -0.3662 -0.6979 -0.0797
  208MOL0     C27965   0.881   6.889   4.042  0.0482  0.2278  0.0602
  208MOL0     C27966   0.941   7.003   4.118 -0.3816  0.0125  0.6741
  208MOL0     C27967   1.081   7.037   4.082  0.2154 -0.7565 -0.9294
  208MOL0     C27968   1.137   7.130   4.197 -0.0801  1.1110 -0.4267
  208MOL0     O27969   1.072   7.253   4.212  0.2656 -0.2578  0.2088
  208MOL0     C27970   1.103   7.378   4.151 -0.7875  0.3740  0.0334
  208MOL0     C27971   1.200   7.396   4.049  1.0964 -0.7824 -0.0453
  208MOL0     C27972   1.207   7.524   3.990  0.8049  0.1173 -0.4296
  208MOL0     C27973   1.117   7.630   4.027  0.5455 -0.6207 -0.2433
  208MOL0     C27974   1.122   7.760   3.956  0.2434  0.3664  0.0125
  208MOL0     O27975   1.041   7.849   3.981 -0.1995 -1.0577  0.2853
  208MOL0     C27976   1.088   7.982   3.987  0.3457  0.5550 -0.2930
  208MOL0     C27977   1.225   8.028   4.005 -0.1811  0.4798  0.4107
  208MOL0     C27978   1.252   8.164   3.986 -0.1737  0.3119 -0.7437
  208MOL0     C27979   1.152   8.261   3.984  0.1248 -0.1149 -0.0316
  208MOL0     O27980   1.189   8.392   3.985 -0.7383  0.4122 -1.0858
  208MOL0     C27981   1.189   8.452   4.116  0.0439  1.1305 -0.5662
  208MOL0     C27982   1.316   8.546   4.115 -0.1236  0.4994 -0.5439
  208MOL0     C27983   1.349   8.639   3.995  0.1023  0.1402  0.3410
  208MOL0     C27984   1.474   8.728   4.008  0.5404  0.7016 -0.4572
  208MOL0     C27985   1.506   8.784   3.872 -1.1289 -0.0407 -0.8187
  208MOL0     C27986   1.636   8.851   3.855  0.9112  0.2666 -0.2418
  208MOL0     C27987   1.626   8.980   3.939  0.2087 -0.1801  0.1211
  208MOL0     C27988   1.744   9.073   3.918  0.3396  0.2412  1.0067
  208MOL0    Cl27989   1.725   9.120   3.751  0.9295  0.9036 -0.0657
  208MOL0     C27990   1.020   8.221   3.975  1.0153  0.7818  0.0658
  208MOL0     C27991   0.990   8.078   3.968  0.0009 -0.5692  0.4869
  208MOL0     O27992   1.204   7.764   3.867 -0.3125  0.5540  0.3783
  208MOL0     C27993   1.021   7.606   4.128 -0.5529  0.5559 -0.3225
  208MOL0     C27994   1.017   7.480   4.192 -0.4925 -1.4999 -0.0164
  208MOL0     N27995   0.996   6.668   3.962  0.2356 -0.3850 -0.1268
  208MOL0     N27996   1.047   6.563   4.021  0.7153  0.1370 -0.3119
  208MOL0     C27997   1.863   6.081   4.108 -0.0306  0.0980 -0.2427
  208MOL0     C27998   1.868   5.952   4.046 -0.4365  0.0189  0.4054
  208MOL0     C27999   1.926   5.702   3.641 -0.1800  0.6251  0.7376
  208MOL0     C28000   1.902   5.726   3.499  0.2190 -0.1523  0.1558
  208MOL0     C28001   1.924   5.622   3.406  1.1347  0.2049 -0.0471
  208MOL0     C28002   1.971   5.498   3.449  0.1380  0.1358 -0.3403
  208MOL0     O28003   2.005   5.402   3.353  0.3110  0.1172 -0.3811
  208MOL0     C28004   1.924   5.402   3.229  1.0193 -0.6359 -0.7352
  208MOL0     C28005   1.916   5.257   3.185 -0.2507 -0.3484  0.2566
  208MOL0     C28006   1.904   5.156   3.292  0.4800 -0.1146  0.3080
  208MOL0     C28007   1.849   5.021   3.231  0.5856 -1.0716  0.4027
  208MOL0     C28008   1.731   5.030   3.139  0.1121  0.0882 -0.4441
  208MOL0     C28009   1.630   5.015   3.071 -0.6782  0.5734  0.7853
  208MOL0     C28010   1.984   5.471   3.581  0.5217  0.3269  0.7370
  208MOL0     C28011   1.973   5.572   3.679 -0.1442  0.4435  1.3413
  208MOL0     C28012   1.997   5.513   3.815 -0.1873  0.7204 -0.2703
  208MOL0     H28013   2.115   6.016   3.812 -0.3642  2.1511 -0.8897
  208MOL0     H28014   2.110   6.225   3.921 -0.4455  1.5094  1.5476
  208MOL0     H28015   1.774   6.343   4.130  0.5646 -1.1326  0.2916
  208MOL0     H28016   1.865   6.330   4.280  1.0768  1.0824  0.3777
  208MOL0     H28017   1.866   6.577   4.100  2.0579 -0.9738 -0.6342
  208MOL0     H28018   1.964   6.545   4.239 -0.2420  3.1497 -0.5859
  208MOL0     H28019   1.762   6.644   4.333  2.7939  1.4010 -2.1595
  208MOL0     H28020   1.724   6.477   4.349 -2.9323 -0.5826 -1.8025
  208MOL0     H28021   1.600   6.685   4.154  0.8701 -0.0942  0.2653
  208MOL0     H28022   1.604   6.512   4.117 -0.4546  2.3539 -1.1085
  208MOL0     H28023   1.504   6.478   4.348 -1.0670 -0.4867  0.3289
  208MOL0     H28024   1.482   6.655   4.363 -0.3863 -0.1940  1.3912
  208MOL0     H28025   1.352   6.665   4.158 -2.1268  0.6830  1.4858
  208MOL0     H28026   1.364   6.486   4.146 -0.9941 -0.0948 -0.3190
  208MOL0     H28027   1.219   6.663   4.355 -2.2457  0.1498 -0.7219
  208MOL0     H28028   1.265   6.506   4.414 -1.8785  0.0061 -0.3464
  208MOL0     H28029   1.158   6.405   4.207  2.4039  1.4628 -0.9656
  208MOL0     H28030   1.058   6.466   4.331  0.4673 -2.1700  0.3456
  208MOL0     H28031   0.955   6.718   4.285 -1.3432 -3.2728  0.5908
  208MOL0     H28032   0.873   6.901   3.933  1.9838  3.0706  0.1335
  208MOL0     H28033   0.778   6.874   4.076  0.1771  0.1902  0.4380
  208MOL0     H28034   0.874   7.089   4.112 -1.6504 -1.0302 -0.6145
  208MOL0     H28035   0.940   6.973   4.223  0.3081 -1.5110  0.2649
  208MOL0     H28036   1.099   7.093   3.989  4.3121  1.4008  0.9059
  208MOL0     H28037   1.140   6.945   4.078  1.4908 -0.0536  0.5784
  208MOL0     H28038   1.242   7.153   4.179 -0.6156  2.8633 -1.6060
  208MOL0     H28039   1.124   7.075   4.290  0.9558 -0.5307 -1.2075
  208MOL0     H28040   1.264   7.314   4.019  1.0734 -1.0230  0.5431
  208MOL0     H28041   1.278   7.545   3.911 -0.2570  1.1763 -1.1496
  208MOL0     H28042   1.301   7.954   4.027  0.3759  0.3098 -1.9034
  208MOL0     H28043   1.360   8.172   3.991 -0.0418 -1.7398  2.8430
  208MOL0     H28044   1.101   8.514   4.129  0.6068  2.1489 -1.4457
  208MOL0     H28045   1.205   8.370   4.187 -1.0095  0.9927 -0.4765
  208MOL0     H28046   1.324   8.612   4.202  0.4160 -0.6713  0.3093
  208MOL0     H28047   1.404   8.483   4.125 -0.3477  0.0658 -1.2825
  208MOL0     H28048   1.374   8.573   3.911  3.4248  1.2433  0.3470
  208MOL0     H28049   1.260   8.702   3.985 -0.7571 -1.2826 -1.9267
  208MOL0     H28050   1.553   8.668   4.055 -2.8597 -1.8688  2.5582
  208MOL0     H28051   1.456   8.817   4.069 -0.4143 -0.4597  1.0326
  208MOL0     H28052   1.424   8.850   3.842 -1.8804  1.3487  3.5977
  208MOL0     H28053   1.492   8.699   3.804  2.2048 -3.3358  2.1447
  208MOL0     H28054   1.721   8.790   3.888  1.6796  1.7524  0.6227
  208MOL0     H28055   1.649   8.871   3.748  0.4448 -4.2269 -1.3513
  208MOL0     H28056   1.633   8.954   4.045  2.4774 -0.9978 -0.1746
  208MOL0     H28057   1.529   9.029   3.928  0.8546  1.1195  0.0299
  208MOL0     H28058   1.720   9.153   3.988 -2.8520 -1.5369  2.1865
  208MOL0     H28059   1.842   9.025   3.922 -1.1748 -3.6269 -1.3280
  208MOL0     H28060   0.947   8.302   3.975 -0.9587 -0.8971 -0.6691
  208MOL0     H28061   0.889   8.039   3.960  0.3609 -1.5748  0.6973
  208MOL0     H28062   0.953   7.687   4.150 -1.8736 -0.3736 -0.8461
  208MOL0     H28063   0.950   7.488   4.277  0.6406  0.9037  0.7390
  208MOL0     H28064   1.801   6.106   4.194  1.0746  1.3855  0.2122
  208MOL0     H28065   1.794   5.891   4.097 -0.4586 -0.6628 -0.4243
  208MOL0     H28066   1.871   5.825   3.465  0.2626 -0.2699 -0.2333
  208MOL0     H28067   1.904   5.650   3.304  0.4594  0.7247  0.2237
  208MOL0     H28068   1.966   5.461   3.147  1.1437  0.1525 -0.1192
  208MOL0     H28069   1.825   5.444   3.246  1.6600 -0.1836  2.7148
  208MOL0     H28070   2.012   5.221   3.147 -0.1515 -1.5405  1.5309
  208MOL0     H28071   1.844   5.244   3.104 -0.0981 -0.3253  0.1164
  208MOL0     H28072   1.824   5.196   3.355  0.7485  2.0585 -0.6606
  208MOL0     H28073   1.998   5.140   3.345  0.3642  2.3180  1.3722
  208MOL0     H28074   1.927   4.962   3.182  1.0467 -1.5727  1.6929
  208MOL0     H28075   1.823   4.968   3.323 -0.3616 -1.2607  0.0345
  208MOL0     H28076   1.558   4.999   2.994  3.0244 -0.5495 -2.8412
  208MOL0     H28077   2.025   5.376   3.613  1.8496  0.6080 -0.0488
  208MOL0     H28078   1.928   5.547   3.893  1.5647 -1.8875  2.6792
  208MOL0     H28079   2.008   5.406   3.834 -1.1534  1.0541  2.7791
  208MOL0     H28080   2.094   5.544   3.857 -0.7032  2.2224 -0.0967
  209MOL0     O28081   8.610   8.353   3.846 -0.0331  0.8267 -1.2738
  209MOL0     C28082   8.699   8.432   3.875  0.2626 -0.3145 -0.7200
  209MOL0     O28083   8.739   8.534   3.801  0.5364  0.5138 -0.9421
  209MOL0     C28084   8.663   8.564   3.694  0.9820  0.4558  0.3107
  209MOL0     C28085   8.695   8.506   3.573 -1.0157  0.5882  0.9613
  209MOL0     C28086   8.612   8.521   3.460  0.0181 -0.6991 -0.5154
  209MOL0     C28087   8.501   8.608   3.472 -0.2110  2.0844  0.0816
  209MOL0     O28088   8.406   8.604   3.378  0.1274 -1.0526 -0.1340
  209MOL0     C28089   8.436   8.562   3.242 -0.7289 -0.0327  0.3502
  209MOL0     C28090   8.307   8.545   3.163 -0.4424 -0.8785  0.1812
  209MOL0     C28091   8.223   8.424   3.208  0.1294  0.6955  0.0182
  209MOL0     C28092   8.106   8.393   3.110 -0.2757 -0.9043 -0.2585
  209MOL0     C28093   8.029   8.264   3.143  0.5200  0.6253 -0.0603
  209MOL0     C28094   7.944   8.209   3.030 -0.5268  0.5580 -0.1084
  209MOL0     C28095   7.882   8.079   3.074  0.3613  0.3470 -0.4945
  209MOL0     C28096   7.769   8.071   3.174 -0.1141  0.3359  0.9298
  209MOL0     N28097   7.659   8.171   3.159  0.3652  0.0063 -0.2412
  209MOL0     C28098   7.645   8.302   3.205 -0.0931 -0.1350 -0.3542
  209MOL0     C28099   7.544   8.360   3.141  0.7989  0.6475 -0.6027
  209MOL0     C28100   7.502   8.499   3.143  0.4246 -0.0623  0.6924
  209MOL0     C28101   7.414   8.546   3.257 -1.0159 -0.2706 -0.0635
  209MOL0     C28102   7.274   8.480   3.260 -0.1658  0.2092  0.2665
  209MOL0     C28103   7.196   8.516   3.388  0.1158  0.2974  1.2116
  209MOL0     O28104   7.075   8.591   3.375 -0.0842  0.7185  0.2062
  209MOL0     C28105   6.957   8.523   3.369  0.0005 -0.3633  1.4433
  209MOL0     C28106   6.937   8.405   3.301  0.1485  0.5352 -0.6327
  209MOL0     C28107   6.809   8.342   3.314 -0.5709 -0.2410  0.7989
  209MOL0     C28108   6.708   8.394   3.390  0.0453  0.2375  0.0774
  209MOL0     C28109   6.575   8.319   3.403  0.7445 -0.2025 -0.3690
  209MOL0     O28110   6.560   8.188   3.343  0.3252 -0.0270 -0.9893
  209MOL0     C28111   6.460   8.099   3.387  0.3024 -0.1873  0.2856
  209MOL0     C28112   6.319   8.130   3.371  0.0407  0.1021 -0.2229
  209MOL0     C28113   6.229   8.026   3.398 -0.4677  0.8057 -0.4809
  209MOL0     C28114   6.265   7.890   3.442  0.2633  0.2536  0.8214
  209MOL0     O28115   6.178   7.783   3.477  0.4644  0.4048  0.0510
  209MOL0     C28116   6.045   7.824   3.492 -0.1153  0.2523 -0.2204
  209MOL0     C28117   5.964   7.705   3.541  0.0425 -0.1471  0.6275
  209MOL0     C28118   5.910   7.617   3.429  0.5579  0.0261 -0.1724
  209MOL0     C28119   5.812   7.502   3.480  0.1217 -0.1844 -0.1397
  209MOL0     C28120   5.769   7.410   3.370  0.3486 -0.2764 -0.1785
  209MOL0     C28121   5.678   7.471   3.268  0.0763  0.4350 -0.0283
  209MOL0     C28122   5.555   7.523   3.332 -0.0383  0.0879 -0.8816
  209MOL0     C28123   5.446   7.563   3.238  0.7353 -0.5102  0.3633
  209MOL0    Cl28124   5.310   7.629   3.339  0.1605 -0.0967 -0.2838
  209MOL0     C28125   6.401   7.870   3.446 -0.0969 -0.6454 -0.1432
  209MOL0     C28126   6.493   7.977   3.423 -1.3641 -0.1092 -0.4859
  209MOL0     O28127   6.484   8.387   3.457 -0.1606 -0.8500 -0.2923
  209MOL0     C28128   6.733   8.508   3.461 -0.1267 -0.8301 -0.6864
  209MOL0     C28129   6.854   8.575   3.442 -0.5464  0.4546 -0.1167
  209MOL0     N28130   7.486   8.258   3.060  0.1227  0.8479  0.0263
  209MOL0     N28131   7.562   8.154   3.062 -0.1768 -0.4438  1.0096
  209MOL0     C28132   8.470   8.672   3.585  0.2526 -0.5001 -1.4155
  209MOL0     C28133   8.550   8.652   3.702 -0.8390  0.1923 -0.2232
  209MOL0     C28134   8.781   8.409   4.002 -0.0785 -0.0862 -0.7837
  209MOL0     C28135   8.915   8.459   4.000  0.1814  0.0530 -0.6905
  209MOL0     C28136   8.991   8.470   4.111  0.4681  0.3541  0.1897
  209MOL0     C28137   8.939   8.435   4.230  0.3891  0.0907  0.4877
  209MOL0     O28138   9.030   8.467   4.329  0.9480  0.1552  0.7145
  209MOL0     C28139   9.018   8.384   4.440 -0.8422 -1.0869  0.3877
  209MOL0     C28140   9.147   8.393   4.515  0.1788 -0.8456  0.1691
  209MOL0     C28141   9.260   8.347   4.423 -0.6993 -0.5526 -0.3276
  209MOL0     C28142   9.383   8.396   4.495  0.0889  0.7854  0.6392
  209MOL0     C28143   9.507   8.372   4.413 -0.3904 -0.2861  0.3425
  209MOL0     C28144   9.600   8.356   4.342 -0.1225 -0.8539  0.8279
  209MOL0     C28145   8.812   8.377   4.241 -0.2779  0.2850 -0.0023
  209MOL0     C28146   8.735   8.350   4.118 -0.0053 -0.0162 -0.3875
  209MOL0     C28147   8.603   8.288   4.120  0.1089 -0.5502 -0.1476
  209MOL0     H28148   8.775   8.433   3.566 -1.6111 -0.0359  0.5569
  209MOL0     H28149   8.636   8.466   3.369  1.7868  2.3693 -2.0564
  209MOL0     H28150   8.506   8.635   3.200 -2.1429 -0.6954 -3.5484
  209MOL0     H28151   8.476   8.462   3.224 -2.1881 -0.6238  0.2669
  209MOL0     H28152   8.333   8.532   3.058  0.9694  0.0682  0.3817
  209MOL0     H28153   8.247   8.631   3.194  0.8365 -0.0166  0.3129
  209MOL0     H28154   8.168   8.451   3.298 -1.6716  1.2056 -1.1864
  209MOL0     H28155   8.285   8.336   3.227  0.5448  1.5591  3.2072
  209MOL0     H28156   8.033   8.475   3.108  0.2769 -0.4034 -0.1056
  209MOL0     H28157   8.145   8.401   3.009 -0.4706  0.4372 -0.2467
  209MOL0     H28158   8.102   8.188   3.174 -2.5715 -1.7430  2.0143
  209MOL0     H28159   7.959   8.281   3.226  1.9356 -0.7213  1.4940
  209MOL0     H28160   7.867   8.285   3.011 -4.5578 -2.5431  2.0973
  209MOL0     H28161   8.009   8.194   2.944  0.5093  1.6995  0.4435
  209MOL0     H28162   7.968   8.019   3.104  0.8601  0.2747 -1.9919
  209MOL0     H28163   7.834   8.042   2.984 -3.0557 -0.7351  1.5844
  209MOL0     H28164   7.726   7.973   3.154  1.5150  0.0244 -1.5265
  209MOL0     H28165   7.816   8.079   3.272  0.3105  0.0036  0.7578
  209MOL0     H28166   7.715   8.351   3.272 -1.3629  0.8650  0.2671
  209MOL0     H28167   7.599   8.550   3.139 -1.2452  3.3089 -0.2856
  209MOL0     H28168   7.450   8.521   3.049  0.4768 -0.8644  0.4703
  209MOL0     H28169   7.472   8.512   3.344 -1.0981 -0.2369  0.0042
  209MOL0     H28170   7.405   8.655   3.256 -1.1118 -0.2719 -2.0695
  209MOL0     H28171   7.283   8.372   3.239  0.5990  0.1541  0.8635
  209MOL0     H28172   7.210   8.512   3.177 -1.2179 -0.9671  0.5804
  209MOL0     H28173   7.251   8.582   3.456 -5.2125  1.4913  4.9664
  209MOL0     H28174   7.163   8.429   3.446  1.9284 -0.7736  0.7153
  209MOL0     H28175   7.018   8.356   3.248  3.0810  2.1950  1.9984
  209MOL0     H28176   6.793   8.249   3.259 -0.9448  0.4362 -0.2678
  209MOL0     H28177   6.289   8.231   3.347  1.3245  0.2791 -1.1759
  209MOL0     H28178   6.124   8.051   3.385 -1.1188 -0.9178  0.9215
  209MOL0     H28179   6.037   7.900   3.570 -2.7958 -0.3723  0.2258
  209MOL0     H28180   5.997   7.866   3.403  1.9667  1.1479 -0.9991
  209MOL0     H28181   6.014   7.651   3.623  1.5166  1.1036  0.5951
  209MOL0     H28182   5.875   7.752   3.582 -0.0547 -1.0108  1.4594
  209MOL0     H28183   5.864   7.677   3.350  1.6761  0.9086 -0.1903
  209MOL0     H28184   5.995   7.571   3.378 -2.7175 -3.5662 -2.9542
  209MOL0     H28185   5.727   7.543   3.535 -1.3663 -4.1741  0.9265
  209MOL0     H28186   5.865   7.442   3.554 -0.3154 -0.2303  0.1403
  209MOL0     H28187   5.720   7.329   3.426 -0.2940  1.0969  1.3291
  209MOL0     H28188   5.858   7.373   3.317  0.7361 -1.7982  1.4288
  209MOL0     H28189   5.731   7.547   3.209 -1.2475  0.8840 -0.6828
  209MOL0     H28190   5.654   7.387   3.202 -0.3482  0.2988  0.3030
  209MOL0     H28191   5.574   7.614   3.390 -0.2072  0.1286 -0.8901
  209MOL0     H28192   5.516   7.444   3.396 -1.6285  0.3583 -1.4635
  209MOL0     H28193   5.469   7.638   3.162  1.8094  0.3428  1.4876
  209MOL0     H28194   5.420   7.474   3.181  0.7815  2.1482 -4.2478
  209MOL0     H28195   6.441   7.775   3.479  0.8382  0.2301  1.3575
  209MOL0     H28196   6.598   7.955   3.440 -2.1439 -2.8362  1.5832
  209MOL0     H28197   6.665   8.545   3.537  2.2324  1.8774  0.2703
  209MOL0     H28198   6.864   8.652   3.518 -2.7817 -0.5924  1.3388
  209MOL0     H28199   8.373   8.721   3.595  0.1541 -0.9847  0.1457
  209MOL0     H28200   8.532   8.689   3.802 -2.4511 -0.7887 -0.1152
  209MOL0     H28201   8.953   8.489   3.903 -0.8524 -0.6063 -1.3245
  209MOL0     H28202   9.090   8.512   4.096  1.0769 -0.8050  0.8169
  209MOL0     H28203   9.011   8.279   4.411  3.3318 -1.5466  0.4412
  209MOL0     H28204   8.928   8.419   4.491 -1.5508 -3.2948  0.7655
  209MOL0     H28205   9.145   8.353   4.617  1.6709  3.2083  1.9707
  209MOL0     H28206   9.165   8.499   4.533  2.2948 -1.0060 -0.7275
  209MOL0     H28207   9.255   8.390   4.322  0.4196 -1.8783 -0.9735
  209MOL0     H28208   9.254   8.238   4.432 -3.5656 -0.3732  1.2482
  209MOL0     H28209   9.372   8.500   4.527  2.5872  0.8547  1.4395
  209MOL0     H28210   9.379   8.327   4.580  3.4759 -2.4542 -1.5129
  209MOL0     H28211   9.684   8.340   4.277  1.1060  0.5723  1.9916
  209MOL0     H28212   8.757   8.362   4.333 -0.0981  0.6868  0.1745
  209MOL0     H28213   8.529   8.368   4.109 -1.2423 -1.8409 -0.9445
  209MOL0     H28214   8.596   8.208   4.045  0.1607  1.6156 -2.5939
  209MOL0     H28215   8.583   8.259   4.224 -0.5846  1.9493  0.4880
  210MOL0     O28216   3.555   5.179   6.935  0.3825  0.5554  0.8910
  210MOL0     C28217   3.657   5.141   6.866 -0.3379  0.0738 -0.1885
  210MOL0     O28218   3.658   5.080   6.749  0.8645  0.1341 -0.2375
  210MOL0     C28219   3.531   5.066   6.691  0.7396 -0.8503  0.2359
  210MOL0     C28220   3.405   5.020   6.745 -0.8471 -0.0262  0.5484
  210MOL0     C28221   3.301   5.000   6.653 -0.0688 -0.6461 -0.5443
  210MOL0     C28222   3.327   5.007   6.511  0.5774  0.5137  0.2803
  210MOL0     O28223   3.225   4.963   6.423 -0.0412  0.2413 -0.2641
  210MOL0     C28224   3.264   4.886   6.308  0.8695  0.3061 -1.0418
  210MOL0     C28225   3.123   4.840   6.250 -0.0566  0.0724  0.3316
  210MOL0     C28226   3.130   4.795   6.100 -0.6095 -0.0506 -0.7740
  210MOL0     C28227   3.105   4.903   5.994 -0.2953 -0.4312 -0.5987
  210MOL0     C28228   3.123   4.854   5.847  0.2201  0.3955 -0.5081
  210MOL0     C28229   3.074   4.966   5.770  0.0874  0.3494  1.3097
  210MOL0     C28230   2.925   4.978   5.743 -0.2579  0.0438 -0.3981
  210MOL0     C28231   2.843   4.858   5.691  0.4183  0.7933 -0.0785
  210MOL0     N28232   2.851   4.844   5.548 -0.4667 -0.6766 -0.1201
  210MOL0     C28233   2.943   4.776   5.478  0.1747 -0.0383 -0.2122
  210MOL0     C28234   2.895   4.752   5.354 -0.5899  0.5629 -0.2365
  210MOL0     C28235   2.971   4.673   5.253  0.3936 -0.1805 -0.8326
  210MOL0     C28236   3.036   4.773   5.149  0.4763 -0.2956  0.2589
  210MOL0     C28237   3.166   4.826   5.203 -0.3047  0.1200 -0.0604
  210MOL0     C28238   3.203   4.952   5.116  0.1726 -1.1730 -0.3881
  210MOL0     O28239   3.111   5.063   5.127  0.6282  0.4214 -0.2155
  210MOL0     C28240   3.135   5.157   5.227 -0.8962 -0.1555 -0.2167
  210MOL0     C28241   3.250   5.244   5.238  0.3520  0.5948 -0.3575
  210MOL0     C28242   3.266   5.341   5.348 -1.0589 -0.1382  0.6430
  210MOL0     C28243   3.171   5.353   5.443 -1.0469 -0.0269  0.2506
  210MOL0     C28244   3.177   5.431   5.574 -0.7328 -0.5619 -0.2726
  210MOL0     O28245   3.063   5.469   5.637  0.0359 -0.7005 -0.2769
  210MOL0     C28246   3.076   5.524   5.768 -0.2093 -0.2156  1.2668
  210MOL0     C28247   3.029   5.655   5.795 -0.1188  0.0123 -0.4816
  210MOL0     C28248   3.051   5.730   5.906  0.5246 -0.2387 -0.0720
  210MOL0     C28249   3.114   5.655   6.017  0.2516  0.5839  0.4581
  210MOL0     O28250   3.129   5.705   6.140 -0.3953 -0.6360  0.5928
  210MOL0     C28251   3.066   5.823   6.173 -0.7222 -0.9848  0.1558
  210MOL0     C28252   3.047   5.815   6.329 -0.9644 -0.2389 -0.4677
  210MOL0     C28253   2.902   5.795   6.367  0.0258 -0.6924  1.0313
  210MOL0     C28254   2.883   5.751   6.517 -0.3425  0.3974  0.1565
  210MOL0     C28255   2.848   5.873   6.609  0.0760  0.0341  0.9043
  210MOL0     C28256   2.703   5.910   6.596 -0.0959 -0.1894  0.2952
  210MOL0     C28257   2.637   6.019   6.672  0.2476 -0.3997  0.1716
  210MOL0     C28258   2.720   6.151   6.664  0.3003  0.0481 -0.2535
  210MOL0    Cl28259   2.648   6.265   6.788 -0.0903 -0.6431 -0.1480
  210MOL0     C28260   3.157   5.517   5.997  0.3780 -1.1585 -0.2089
  210MOL0     C28261   3.143   5.462   5.871 -0.1431  0.1961  0.2647
  210MOL0     O28262   3.293   5.462   5.611 -0.8439 -0.1960  0.8037
  210MOL0     C28263   3.063   5.271   5.434  0.2230 -0.5135 -0.3331
  210MOL0     C28264   3.039   5.177   5.334 -1.0215  0.4625  0.0614
  210MOL0     N28265   2.762   4.796   5.353 -0.6276  0.4820 -0.2551
  210MOL0     N28266   2.739   4.861   5.468  0.0898  0.5609  0.4918
  210MOL0     C28267   3.454   5.046   6.466  0.6470 -0.3448  0.1266
  210MOL0     C28268   3.554   5.081   6.553 -0.5605  0.3151 -0.3102
  210MOL0     C28269   3.783   5.164   6.918 -0.9002 -0.2167 -0.4759
  210MOL0     C28270   3.806   5.299   6.950 -0.3009  0.1747  0.1376
  210MOL0     C28271   3.932   5.347   7.000  0.0684  1.1202  1.1579
  210MOL0     C28272   4.030   5.252   7.022 -0.3914  0.6704  0.1295
  210MOL0     O28273   4.150   5.273   7.075 -1.1452 -0.5442  0.0748
  210MOL0     C28274   4.220   5.392   7.053  0.4936 -0.0756 -0.3632
  210MOL0     C28275   4.368   5.360   7.021 -0.1850  0.8802 -1.1971
  210MOL0     C28276   4.463   5.472   7.034 -0.5363 -0.8617  0.1694
  210MOL0     C28277   4.466   5.553   7.174  0.5193  1.3304 -0.4048
  210MOL0     C28278   4.498   5.465   7.290 -0.1706 -1.7028  0.4698
  210MOL0     C28279   4.506   5.382   7.374 -0.0613  0.3818 -1.0421
  210MOL0     C28280   4.003   5.119   7.008  0.0319  0.7502  0.9692
  210MOL0     C28281   3.887   5.072   6.941 -0.1224  0.8122 -0.2629
  210MOL0     C28282   3.865   4.923   6.936  0.5019  0.0520 -0.2323
  210MOL0     H28283   3.393   5.011   6.853 -2.3777 -3.1924  0.2423
  210MOL0     H28284   3.207   4.961   6.692 -0.0808  1.4803  1.8381
  210MOL0     H28285   3.338   4.939   6.247  1.9079  0.3378  0.2029
  210MOL0     H28286   3.310   4.792   6.340  0.8306 -0.6121 -3.4443
  210MOL0     H28287   3.054   4.923   6.266 -0.0946  0.6473 -2.4337
  210MOL0     H28288   3.090   4.757   6.314  1.5083 -1.3793 -0.6730
  210MOL0     H28289   3.063   4.710   6.083  1.2719 -1.4690 -1.4739
  210MOL0     H28290   3.232   4.763   6.073  0.5902  1.8655  1.2380
  210MOL0     H28291   3.001   4.931   6.012 -0.6097 -3.7256  5.3617
  210MOL0     H28292   3.179   4.982   6.008  0.8336 -1.3759 -1.0437
  210MOL0     H28293   3.230   4.839   5.831  0.7103  1.7032  1.2150
  210MOL0     H28294   3.073   4.758   5.831  0.9671 -0.4221  1.7427
  210MOL0     H28295   3.111   5.062   5.807 -2.5259  0.5829  3.6839
  210MOL0     H28296   3.131   4.957   5.678  2.9225 -1.6430  3.1017
  210MOL0     H28297   2.933   5.054   5.665  1.1252 -0.6534 -0.9686
  210MOL0     H28298   2.871   5.008   5.833 -1.6161 -1.8732 -0.5255
  210MOL0     H28299   2.903   4.775   5.729 -1.0746  1.0044  3.0293
  210MOL0     H28300   2.743   4.851   5.734 -0.1621  0.2573 -1.4619
  210MOL0     H28301   3.037   4.744   5.522  0.2120  1.1907  0.6663
  210MOL0     H28302   3.047   4.614   5.305 -1.3521 -0.0222  2.0853
  210MOL0     H28303   2.899   4.612   5.197 -1.1559  0.8401 -0.0064
  210MOL0     H28304   3.038   4.716   5.055 -0.6908 -2.0759  1.2602
  210MOL0     H28305   2.973   4.860   5.130  0.0303 -0.4533  1.0083
  210MOL0     H28306   3.228   4.739   5.178  1.6733  1.3815  0.2401
  210MOL0     H28307   3.161   4.859   5.307 -2.7214  1.9326 -0.6620
  210MOL0     H28308   3.225   4.932   5.011  0.3912  1.5622 -0.9424
  210MOL0     H28309   3.301   4.991   5.146 -1.3531  2.2345  0.6924
  210MOL0     H28310   3.325   5.243   5.159  2.8039 -2.0008  1.7894
  210MOL0     H28311   3.350   5.409   5.348  0.6441 -2.1469 -0.3017
  210MOL0     H28312   2.987   5.696   5.704 -0.7745 -2.7465 -1.4989
  210MOL0     H28313   3.010   5.830   5.908  1.2245  0.2524 -3.4617
  210MOL0     H28314   3.136   5.903   6.146  0.4086 -0.2830  4.4493
  210MOL0     H28315   2.972   5.844   6.121  1.1514  2.0096 -2.4596
  210MOL0     H28316   3.105   5.727   6.361  0.1916  1.2724  1.8281
  210MOL0     H28317   3.085   5.907   6.372  3.5692 -1.4665 -1.3084
  210MOL0     H28318   2.851   5.889   6.347  0.0984 -0.8291  0.1875
  210MOL0     H28319   2.860   5.724   6.295  2.1174  0.4880 -1.4894
  210MOL0     H28320   2.971   5.698   6.554  1.3502  2.1968 -1.0645
  210MOL0     H28321   2.801   5.680   6.504 -2.1307  2.0745  1.6001
  210MOL0     H28322   2.918   5.957   6.601  1.0842 -0.5711  2.6807
  210MOL0     H28323   2.865   5.845   6.714 -2.9105 -0.9954  1.1909
  210MOL0     H28324   2.678   5.912   6.489 -1.4296  0.4146  0.6007
  210MOL0     H28325   2.657   5.819   6.636  1.6776 -1.3884 -0.2573
  210MOL0     H28326   2.624   5.991   6.777 -1.9160  0.3065  0.1476
  210MOL0     H28327   2.534   6.036   6.640  0.4478 -0.8717 -0.7772
  210MOL0     H28328   2.823   6.135   6.698 -0.8360 -1.5325  2.9251
  210MOL0     H28329   2.705   6.191   6.564  0.0711 -0.0812 -0.2714
  210MOL0     H28330   3.187   5.463   6.086  1.8866 -2.4285 -1.4364
  210MOL0     H28331   3.171   5.360   5.846 -3.2860 -0.5413 -0.7634
  210MOL0     H28332   2.983   5.292   5.505 -0.9282  4.0599 -2.6088
  210MOL0     H28333   2.950   5.114   5.332 -0.4314 -0.3918 -0.3129
  210MOL0     H28334   3.489   5.038   6.363  0.3719 -2.3080  0.1534
  210MOL0     H28335   3.651   5.102   6.509 -0.1008  1.1425  1.0460
  210MOL0     H28336   3.724   5.369   6.937 -0.2674  0.6015  1.9540
  210MOL0     H28337   3.940   5.452   7.030 -0.2909  0.6339  3.0942
  210MOL0     H28338   4.227   5.441   7.150 -1.4471 -5.0044  2.5806
  210MOL0     H28339   4.175   5.460   6.979  3.0236  1.1861 -0.8546
  210MOL0     H28340   4.378   5.322   6.919 -0.5336  0.4003 -1.0536
  210MOL0     H28341   4.403   5.274   7.079  1.9117  1.8538 -0.8980
  210MOL0     H28342   4.444   5.551   6.961  1.0658 -0.4849  0.1183
  210MOL0     H28343   4.564   5.431   7.019  0.4446  1.3483  0.3492
  210MOL0     H28344   4.551   5.621   7.169  1.4155  0.3488  0.8398
  210MOL0     H28345   4.371   5.605   7.188  0.1748  0.7207 -0.4055
  210MOL0     H28346   4.491   5.292   7.429 -1.4966 -1.2143 -3.7995
  210MOL0     H28347   4.072   5.050   7.056 -2.0317 -1.0559  1.5205
  210MOL0     H28348   3.962   4.875   6.918 -0.3728 -4.1429  4.2510
  210MOL0     H28349   3.827   4.882   7.030 -0.4739 -0.8297 -0.9867
  210MOL0     H28350   3.800   4.885   6.856 -1.9753 -0.8656  2.0663
  211MOL0     O28351   1.244   9.696  10.511 -0.2075  0.2287 -0.5290
  211MOL0     C28352   1.235   9.637  10.619  0.7234  0.5576 -0.6941
  211MOL0     O28353   1.319   9.540  10.660 -1.0014 -0.9976 -0.0126
  211MOL0     C28354   1.411   9.495  10.562  0.5093  1.0910 -0.0265
  211MOL0     C28355   1.520   9.572  10.517 -0.0261  0.6110 -0.2462
  211MOL0     C28356   1.610   9.525  10.414 -0.0472 -0.6852  0.1042
  211MOL0     C28357   1.585   9.400  10.367 -0.1756  0.2217  1.3127
  211MOL0     O28358   1.668   9.333  10.279 -0.3326 -0.7711 -0.2139
  211MOL0     C28359   1.812   9.349  10.294  0.5496 -0.4099 -0.1030
  211MOL0     C28360   1.877   9.256  10.202  0.2615 -0.4332  0.2877
  211MOL0     C28361   1.839   9.112  10.245  0.0540  0.2699  0.8729
  211MOL0     C28362   1.905   9.022  10.139  0.3552  0.1585 -0.5971
  211MOL0     C28363   1.884   8.882  10.183  0.8303  0.0109 -0.1075
  211MOL0     C28364   1.742   8.845  10.139  1.2967 -0.3761 -0.2450
  211MOL0     C28365   1.722   8.701  10.166 -0.2588 -0.0775 -0.0071
  211MOL0     C28366   1.586   8.648  10.125  0.4263  0.4342 -0.5180
  211MOL0     N28367   1.598   8.497  10.113  0.3737  0.2919  0.7911
  211MOL0     C28368   1.632   8.396  10.197 -0.2731 -0.8952 -0.0039
  211MOL0     C28369   1.604   8.281  10.137 -0.3017 -0.2775  0.1067
  211MOL0     C28370   1.635   8.138  10.173  0.5925  0.5401 -0.0010
  211MOL0     C28371   1.561   8.033  10.093  0.1951 -0.3659 -0.5469
  211MOL0     C28372   1.412   8.038  10.122  0.7038 -0.0540 -0.6278
  211MOL0     C28373   1.335   7.920  10.075  1.0594 -0.5613 -0.2977
  211MOL0     O28374   1.389   7.798  10.121 -1.0870  0.7614  0.3483
  211MOL0     C28375   1.402   7.773  10.250 -0.6427  0.2353  0.4515
  211MOL0     C28376   1.524   7.708  10.278  0.5631 -0.1921 -0.4049
  211MOL0     C28377   1.555   7.668  10.412  0.4683 -0.4811  1.2578
  211MOL0     C28378   1.459   7.673  10.507  0.3303  0.0044  0.1993
  211MOL0     C28379   1.488   7.645  10.648 -0.0447  0.7127  0.2990
  211MOL0     O28380   1.383   7.620  10.727  0.2751 -0.2998 -0.4849
  211MOL0     C28381   1.382   7.586  10.859 -0.2602  0.2209 -0.7444
  211MOL0     C28382   1.400   7.453  10.899  0.2144  1.3939 -0.4290
  211MOL0     C28383   1.359   7.411  11.022  0.5919  0.1617  0.2067
  211MOL0     C28384   1.302   7.499  11.115 -0.5816  0.3694  0.8411
  211MOL0     O28385   1.268   7.448  11.232  0.8055 -0.6856 -0.1958
  211MOL0     C28386   1.203   7.537  11.328  0.0847  0.2749 -0.0875
  211MOL0     C28387   1.119   7.464  11.426  0.0572  0.7865 -0.1303
  211MOL0     C28388   1.195   7.345  11.493 -0.4265  0.4785 -0.8424
  211MOL0     C28389   1.098   7.292  11.608  0.6617  0.3433  0.1247
  211MOL0     C28390   1.143   7.176  11.697  0.3705  0.3130 -0.7460
  211MOL0     C28391   1.056   7.133  11.813 -0.2214  0.7653 -0.7748
  211MOL0     C28392   0.917   7.064  11.776 -0.3945  0.1900 -0.4796
  211MOL0     C28393   0.838   7.026  11.907 -0.5190  0.4653  0.7065
  211MOL0    Cl28394   0.897   6.875  11.965  0.2110  0.3843  0.4291
  211MOL0     C28395   1.294   7.633  11.080  0.1602  0.3618  0.3174
  211MOL0     C28396   1.333   7.679  10.955 -1.0713 -1.2029  0.5714
  211MOL0     O28397   1.610   7.638  10.687  0.0552 -0.5632  0.7938
  211MOL0     C28398   1.326   7.725  10.464 -0.7534 -0.0956 -0.3084
  211MOL0     C28399   1.290   7.785  10.339 -0.6393  0.9529 -0.0702
  211MOL0     N28400   1.549   8.313  10.010  0.4559 -0.3766  0.0167
  211MOL0     N28401   1.542   8.437  10.012 -0.3930 -0.1431  0.0536
  211MOL0     C28402   1.474   9.332  10.402  0.1999  0.7665  0.5358
  211MOL0     C28403   1.383   9.376  10.496 -0.3128  0.6416  0.5116
  211MOL0     C28404   1.123   9.664  10.721 -0.7567 -0.8987  0.1844
  211MOL0     C28405   1.062   9.793  10.700  0.4911  0.8154  0.5700
  211MOL0     C28406   0.975   9.851  10.792 -0.5360  0.3052  0.4025
  211MOL0     C28407   0.959   9.784  10.916  0.5688 -0.5317 -0.3536
  211MOL0     O28408   0.888   9.834  11.028  0.1190  0.4100  0.4197
  211MOL0     C28409   0.806   9.958  11.017 -0.1836 -0.2459 -0.2403
  211MOL0     C28410   0.814  10.017  11.160 -0.9413 -0.1740 -0.4479
  211MOL0     C28411   0.720  10.134  11.165  0.4470 -0.8011  0.5579
  211MOL0     C28412   0.600  10.113  11.268  0.5758 -0.3232 -0.2301
  211MOL0     C28413   0.519  10.226  11.294  1.0018 -0.2784  0.8965
  211MOL0     C28414   0.436  10.323  11.322 -0.3336  0.5562  0.6696
  211MOL0     C28415   1.019   9.661  10.936 -0.1852 -0.1900 -0.1684
  211MOL0     C28416   1.089   9.597  10.838  0.5423  0.0002  0.5169
  211MOL0     C28417   1.170   9.484  10.878 -0.3531  1.5120 -0.4767
  211MOL0     H28418   1.540   9.668  10.562  2.1637 -0.3562  0.9868
  211MOL0     H28419   1.684   9.594  10.375 -0.2159  0.0627  1.0498
  211MOL0     H28420   1.838   9.451  10.263 -3.9320  1.0717  0.3299
  211MOL0     H28421   1.850   9.320  10.393 -2.5998  1.2733  1.7349
  211MOL0     H28422   1.986   9.264  10.202  0.2650  0.4055 -2.1325
  211MOL0     H28423   1.852   9.270  10.096  2.1048  0.3891 -0.0885
  211MOL0     H28424   1.729   9.110  10.242 -0.0669  3.5561 -0.4147
  211MOL0     H28425   1.886   9.101  10.343 -1.0712 -0.8914  1.3163
  211MOL0     H28426   1.863   9.036  10.039 -2.5148  0.1733  0.5133
  211MOL0     H28427   2.014   9.024  10.139  0.3768  0.3430  1.0344
  211MOL0     H28428   1.944   8.820  10.116 -0.2210  1.8797 -2.9542
  211MOL0     H28429   1.913   8.866  10.288  0.1861 -1.2966 -0.1137
  211MOL0     H28430   1.674   8.899  10.206  0.0679 -2.2858  0.1240
  211MOL0     H28431   1.723   8.863  10.033 -1.0501 -0.7811  0.0559
  211MOL0     H28432   1.729   8.682  10.274  0.1183 -0.3845 -0.0837
  211MOL0     H28433   1.798   8.645  10.111  0.0560 -1.5300  1.7733
  211MOL0     H28434   1.508   8.677  10.196 -0.2466  0.0108 -1.0775
  211MOL0     H28435   1.557   8.688  10.028  3.3587  1.5339 -1.0541
  211MOL0     H28436   1.670   8.407  10.298 -1.7858 -0.8950  0.5975
  211MOL0     H28437   1.743   8.122  10.171  0.1585 -3.8886 -3.7249
  211MOL0     H28438   1.613   8.114  10.278  0.5643 -0.0523 -0.1377
  211MOL0     H28439   1.584   8.055   9.988  3.8300 -1.7726 -0.2106
  211MOL0     H28440   1.591   7.932  10.123 -3.6353 -1.2654  0.7438
  211MOL0     H28441   1.386   8.131  10.071 -0.0014  0.4246  0.5735
  211MOL0     H28442   1.405   8.051  10.231  1.7840 -0.9952 -0.4218
  211MOL0     H28443   1.347   7.950   9.971  2.7637  1.2047  0.3383
  211MOL0     H28444   1.231   7.930  10.106  1.8682  2.0960  2.0376
  211MOL0     H28445   1.596   7.710  10.196  1.9906  3.1523  0.7482
  211MOL0     H28446   1.659   7.646  10.436  1.5791  1.0074 -1.6653
  211MOL0     H28447   1.419   7.386  10.816  1.5611  1.5664 -0.2817
  211MOL0     H28448   1.364   7.307  11.052 -2.3702  0.4421  2.0356
  211MOL0     H28449   1.287   7.588  11.375 -1.4137 -1.3458  5.0551
  211MOL0     H28450   1.141   7.618  11.288 -0.5772 -1.6736 -3.3442
  211MOL0     H28451   1.072   7.535  11.495 -1.5080  0.1490 -0.4802
  211MOL0     H28452   1.036   7.408  11.380  1.3424 -2.3792  1.1097
  211MOL0     H28453   1.202   7.268  11.415 -2.4971  2.1112 -2.8021
  211MOL0     H28454   1.290   7.376  11.535 -1.8383  2.4232  1.1107
  211MOL0     H28455   0.998   7.276  11.567  0.4547 -4.3803  1.8559
  211MOL0     H28456   1.092   7.370  11.685 -2.4537  0.5217 -0.1699
  211MOL0     H28457   1.243   7.203  11.733  0.5756  1.3245 -2.0314
  211MOL0     H28458   1.154   7.094  11.626  0.2928 -1.4339  1.1636
  211MOL0     H28459   1.107   7.064  11.881 -2.3984 -1.0380 -0.8609
  211MOL0     H28460   1.027   7.223  11.870 -4.9451 -0.6139 -0.5546
  211MOL0     H28461   0.926   6.972  11.717  0.3776 -1.8776  2.6201
  211MOL0     H28462   0.862   7.140  11.721  1.5618  2.0911  0.0686
  211MOL0     H28463   0.853   7.105  11.981 -3.0000  1.4802  0.2129
  211MOL0     H28464   0.729   7.023  11.899 -0.4657  2.2939 -2.4299
  211MOL0     H28465   1.264   7.710  11.151 -1.2667 -0.6570  0.8545
  211MOL0     H28466   1.333   7.787  10.937  1.0676 -0.8204  2.3314
  211MOL0     H28467   1.251   7.724  10.543  0.0816  1.0790  0.5364
  211MOL0     H28468   1.188   7.812  10.313  0.1177  0.9855 -3.4298
  211MOL0     H28469   1.462   9.236  10.352  0.8336  0.7772  0.3529
  211MOL0     H28470   1.306   9.303  10.519  3.7988 -4.0363  1.0339
  211MOL0     H28471   1.068   9.861  10.616 -5.0042 -0.6224 -1.4226
  211MOL0     H28472   0.944   9.954  10.780 -0.9133 -0.0691 -2.4865
  211MOL0     H28473   0.705   9.927  10.988  0.7785 -2.7086 -1.2192
  211MOL0     H28474   0.851  10.031  10.950 -0.5704  1.2079  1.0316
  211MOL0     H28475   0.907  10.066  11.189 -0.8359 -1.6685  2.0568
  211MOL0     H28476   0.799   9.937  11.233 -3.1196  0.0777 -0.5483
  211MOL0     H28477   0.670  10.164  11.072  2.6920  2.7396  0.3216
  211MOL0     H28478   0.789  10.216  11.189  0.9464 -0.2605 -2.3491
  211MOL0     H28479   0.532  10.034  11.235 -0.3059 -0.1256  1.0336
  211MOL0     H28480   0.652  10.078  11.357 -0.6859  2.4970  1.7736
  211MOL0     H28481   0.373  10.406  11.344 -0.6498  0.5723 -0.2844
  211MOL0     H28482   1.012   9.633  11.041  2.4620 -1.1630 -0.1763
  211MOL0     H28483   1.133   9.431  10.966 -0.5756  0.4806 -1.1712
  211MOL0     H28484   1.159   9.411  10.797  0.0876  0.9964 -0.0810
  211MOL0     H28485   1.275   9.513  10.893  0.0527 -0.6849  1.5837
  212MOL0     O28486   2.114   4.763   0.421 -0.6882 -0.4559  0.2405
  212MOL0     C28487   2.162   4.663   0.461  1.1745  0.0494 -0.3955
  212MOL0     O28488   2.120   4.536   0.424 -0.3806  0.5159 -0.1744
  212MOL0     C28489   1.995   4.527   0.366 -0.5481  0.0140  0.2606
  212MOL0     C28490   1.967   4.463   0.247  0.1616 -0.5825 -0.0624
  212MOL0     C28491   1.838   4.466   0.194  0.1249 -0.5237 -0.2840
  212MOL0     C28492   1.732   4.504   0.273 -0.6428  0.1849  0.5004
  212MOL0     O28493   1.603   4.485   0.215 -0.2450 -0.1556  0.7317
  212MOL0     C28494   1.530   4.375   0.267 -0.5288 -0.2090  0.5251
  212MOL0     C28495   1.440   4.320   0.154 -0.3043 -0.5882 -0.4202
  212MOL0     C28496   1.330   4.425   0.131 -0.7492  0.3145  0.2461
  212MOL0     C28497   1.202   4.370   0.047  1.3805  0.3961  0.3927
  212MOL0     C28498   1.222   4.353  -0.103  0.2437 -0.3181 -0.6723
  212MOL0     C28499   1.127   4.264  -0.189  0.4442 -0.0739 -0.3967
  212MOL0     C28500   1.111   4.111  -0.138 -0.1745  0.5987  0.7068
  212MOL0     C28501   1.071   4.024  -0.252 -0.4888  0.8693  0.9803
  212MOL0     N28502   1.073   3.880  -0.219  0.1975 -0.5651  0.4562
  212MOL0     C28503   1.187   3.802  -0.204  0.1557 -0.2326 -1.1054
  212MOL0     C28504   1.141   3.680  -0.214 -1.1618  0.4868  0.1750
  212MOL0     C28505   1.230   3.564  -0.199  0.7904 -0.5793  0.4774
  212MOL0     C28506   1.266   3.516  -0.058 -0.3792  0.1985  0.3854
  212MOL0     C28507   1.156   3.424  -0.005 -0.3535  1.0928  0.1549
  212MOL0     C28508   1.205   3.281   0.005  0.6666  0.0371  0.2117
  212MOL0     O28509   1.179   3.224  -0.125  0.1063 -0.1458  1.0417
  212MOL0     C28510   1.230   3.101  -0.147 -0.3810 -0.5494  0.2750
  212MOL0     C28511   1.304   3.019  -0.055 -0.3918 -0.5235  0.2023
  212MOL0     C28512   1.337   2.883  -0.072 -0.1562  0.3499  0.2646
  212MOL0     C28513   1.295   2.824  -0.187  0.1095  0.3254  0.4476
  212MOL0     C28514   1.355   2.684  -0.217  0.7478  0.8050  0.2993
  212MOL0     O28515   1.450   2.641  -0.138  0.1372 -0.6127  0.3518
  212MOL0     C28516   1.494   2.511  -0.164  0.5775  0.4574 -0.5431
  212MOL0     C28517   1.413   2.395  -0.125  0.5587  0.8398 -0.4007
  212MOL0     C28518   1.465   2.260  -0.145  0.4003 -0.6005  0.3917
  212MOL0     C28519   1.586   2.235  -0.197 -0.2950 -1.5143 -0.2948
  212MOL0     O28520   1.630   2.106  -0.213 -0.5222  0.3442  0.5576
  212MOL0     C28521   1.757   2.077  -0.259 -0.0697 -0.1941  0.2639
  212MOL0     C28522   1.761   2.055  -0.412 -0.4606 -0.0814 -0.1571
  212MOL0     C28523   1.896   2.002  -0.457 -0.1589 -0.5855 -0.6355
  212MOL0     C28524   2.017   2.094  -0.432  0.7175  0.4226  0.3625
  212MOL0     C28525   2.147   2.047  -0.486 -1.0081 -0.8113 -0.5021
  212MOL0     C28526   2.188   1.907  -0.438 -0.0369 -0.1608 -1.3112
  212MOL0     C28527   2.331   1.863  -0.477 -0.1048 -0.4582  0.1558
  212MOL0     C28528   2.419   1.918  -0.372 -0.6470  0.2338  0.1836
  212MOL0    Cl28529   2.414   1.831  -0.222 -0.0642 -0.2783  0.2862
  212MOL0     C28530   1.656   2.355  -0.251  0.3002  0.4755 -0.1404
  212MOL0     C28531   1.613   2.485  -0.223  0.2936 -1.1850  0.0465
  212MOL0     O28532   1.313   2.627  -0.324  0.0714 -0.4947  0.4941
  212MOL0     C28533   1.221   2.901  -0.286 -0.1594  0.7680 -0.8669
  212MOL0     C28534   1.187   3.033  -0.258  0.7109 -0.3603  0.8216
  212MOL0     N28535   1.008   3.674  -0.228 -0.0300  0.2223  0.6725
  212MOL0     N28536   0.971   3.795  -0.248  0.8362 -0.2197  0.1159
  212MOL0     C28537   1.762   4.553   0.405  1.3635  0.5385  0.5311
  212MOL0     C28538   1.895   4.567   0.447 -0.0302 -0.1586 -1.0427
  212MOL0     C28539   2.285   4.671   0.545  0.4801  0.2074  0.0838
  212MOL0     C28540   2.355   4.554   0.595  0.2177  0.2488  0.0221
  212MOL0     C28541   2.468   4.572   0.669 -0.0803  1.2186  0.4003
  212MOL0     C28542   2.514   4.693   0.708  1.0730  0.3165 -0.5473
  212MOL0     O28543   2.614   4.689   0.803 -0.6664  0.1118  0.0078
  212MOL0     C28544   2.675   4.810   0.849 -0.4411 -0.3321  0.2181
  212MOL0     C28545   2.581   4.869   0.966 -0.1173 -0.4580  0.0398
  212MOL0     C28546   2.629   4.997   1.040 -0.2328  0.7984 -0.3561
  212MOL0     C28547   2.726   4.953   1.155 -1.0136  0.6393  1.2305
  212MOL0     C28548   2.869   4.943   1.112  0.3929  0.4143  0.2809
  212MOL0     C28549   2.982   4.933   1.080 -0.4130  0.5237  0.2625
  212MOL0     C28550   2.456   4.808   0.662 -0.0322 -0.1484 -0.5987
  212MOL0     C28551   2.349   4.798   0.572 -0.0552 -0.3006  0.2940
  212MOL0     C28552   2.305   4.936   0.521 -0.1773  0.4484  0.4870
  212MOL0     H28553   2.055   4.433   0.190  1.2477  0.2934  1.0813
  212MOL0     H28554   1.820   4.435   0.091  0.0200 -0.5119 -0.2696
  212MOL0     H28555   1.602   4.299   0.298  1.7191  0.5911 -2.3050
  212MOL0     H28556   1.460   4.404   0.346 -1.8509  0.0347 -0.6783
  212MOL0     H28557   1.397   4.222   0.173  0.8196 -0.7135  1.8300
  212MOL0     H28558   1.508   4.308   0.070 -0.6188  0.1872 -0.7940
  212MOL0     H28559   1.374   4.505   0.070 -0.6924  1.1169  1.3158
  212MOL0     H28560   1.297   4.474   0.222 -1.6289 -0.7182  0.5044
  212MOL0     H28561   1.166   4.273   0.083 -1.2461  1.2623  0.3307
  212MOL0     H28562   1.122   4.439   0.076 -1.0040 -3.1635  3.2619
  212MOL0     H28563   1.236   4.457  -0.135  0.5063  0.6172  2.1483
  212MOL0     H28564   1.319   4.306  -0.116  1.3831  1.1583  1.7957
  212MOL0     H28565   1.024   4.302  -0.190  0.4807  0.0777  0.6070
  212MOL0     H28566   1.177   4.267  -0.286  2.7000  1.5548  0.7197
  212MOL0     H28567   1.033   4.104  -0.061 -1.3411  2.4034 -0.2338
  212MOL0     H28568   1.205   4.078  -0.094 -1.1408 -2.4047  0.7896
  212MOL0     H28569   0.969   4.039  -0.289  0.1125  0.0383 -1.1562
  212MOL0     H28570   1.137   4.029  -0.339 -0.2185 -2.8402  0.8112
  212MOL0     H28571   1.291   3.830  -0.192 -0.2250  0.3847  1.1406
  212MOL0     H28572   1.182   3.479  -0.247  4.0137 -0.9021 -2.6978
  212MOL0     H28573   1.314   3.598  -0.261 -0.5781  3.1942  0.4162
  212MOL0     H28574   1.359   3.459  -0.062 -1.4108 -1.4769 -0.5079
  212MOL0     H28575   1.274   3.604   0.007  2.7729 -0.7976  1.5411
  212MOL0     H28576   1.063   3.444  -0.059  0.4851 -2.4578 -3.0835
  212MOL0     H28577   1.148   3.455   0.099 -0.5228 -0.9444  0.7921
  212MOL0     H28578   1.139   3.236   0.080 -0.6771  0.4381 -0.6965
  212MOL0     H28579   1.304   3.268   0.049  1.4417  1.2279 -1.0945
  212MOL0     H28580   1.314   3.049   0.049  0.2481 -0.0915  0.0153
  212MOL0     H28581   1.385   2.840   0.015 -1.7995 -1.4931  0.3219
  212MOL0     H28582   1.312   2.409  -0.088  0.4046  1.6352 -1.0856
  212MOL0     H28583   1.411   2.171  -0.112 -0.9895  0.3286  0.7343
  212MOL0     H28584   1.827   2.154  -0.226 -0.4408 -0.7998  2.7323
  212MOL0     H28585   1.807   1.995  -0.206  1.6147  1.0243  0.6455
  212MOL0     H28586   1.696   1.969  -0.430 -2.5013  0.3997  3.8330
  212MOL0     H28587   1.713   2.138  -0.465 -1.1540 -0.8628 -0.7828
  212MOL0     H28588   1.907   1.910  -0.399  0.1308 -0.4361 -0.4534
  212MOL0     H28589   1.887   1.974  -0.562 -1.7848  1.3789 -1.1021
  212MOL0     H28590   2.033   2.109  -0.325  1.7968  2.8653 -0.0636
  212MOL0     H28591   1.992   2.191  -0.477 -0.8408 -0.8523 -1.6891
  212MOL0     H28592   2.225   2.113  -0.446 -1.5874 -1.0664  1.1123
  212MOL0     H28593   2.147   2.038  -0.595 -0.5135 -0.0471 -0.5721
  212MOL0     H28594   2.173   1.903  -0.329 -0.1874  0.3538 -1.3110
  212MOL0     H28595   2.121   1.840  -0.493 -1.0117 -1.6192  1.4518
  212MOL0     H28596   2.350   1.919  -0.569  1.7594  2.2042  2.0138
  212MOL0     H28597   2.344   1.756  -0.491  2.4943 -0.2775  0.6938
  212MOL0     H28598   2.522   1.912  -0.409 -1.1482 -0.7136 -1.1602
  212MOL0     H28599   2.405   2.026  -0.364  1.5318  0.9099 -2.9912
  212MOL0     H28600   1.744   2.340  -0.312 -0.7781 -0.2615 -1.5814
  212MOL0     H28601   1.667   2.573  -0.256  0.1521 -0.3003  2.0092
  212MOL0     H28602   1.179   2.863  -0.378 -0.5020 -0.3865 -0.2522
  212MOL0     H28603   1.121   3.094  -0.319 -0.2766 -2.3753 -0.2046
  212MOL0     H28604   1.677   4.586   0.465 -1.9592 -1.6343 -2.5695
  212MOL0     H28605   1.903   4.613   0.545 -0.6850  2.0337 -1.9555
  212MOL0     H28606   2.325   4.456   0.560 -1.9983  1.4022 -1.5401
  212MOL0     H28607   2.516   4.484   0.711 -0.2467  1.9299  2.1784
  212MOL0     H28608   2.684   4.877   0.763 -0.6959  0.4355  0.7824
  212MOL0     H28609   2.779   4.787   0.877 -0.0930  0.1524 -0.6203
  212MOL0     H28610   2.573   4.788   1.038 -2.3316  0.1914  0.5925
  212MOL0     H28611   2.480   4.897   0.934  0.7883  1.8940 -0.9714
  212MOL0     H28612   2.547   5.055   1.085  0.7058  0.3700  2.0640
  212MOL0     H28613   2.666   5.052   0.953 -0.4040  1.7987  0.1755
  212MOL0     H28614   2.734   5.019   1.241 -1.2015  0.8856  1.0595
  212MOL0     H28615   2.697   4.850   1.180  0.0571 -0.4718 -1.5475
  212MOL0     H28616   3.081   4.903   1.050  1.2561  2.3983  3.3308
  212MOL0     H28617   2.485   4.911   0.684  1.3929 -0.4868 -0.7849
  212MOL0     H28618   2.301   4.926   0.412  0.8269 -0.8776  0.5499
  212MOL0     H28619   2.213   4.958   0.575  0.6425 -0.0719  2.1746
  212MOL0     H28620   2.368   5.021   0.548  1.0256 -0.7429  1.5936
  213MOL0     O28621   2.869   8.890   5.905 -0.0893  0.2119 -1.3936
  213MOL0     C28622   2.878   8.901   6.028  0.3635  0.7982  0.3622
  213MOL0     O28623   2.862   9.009   6.096  0.4332  0.5502 -1.1617
  213MOL0     C28624   2.786   9.110   6.053  1.3236 -0.0898  0.4671
  213MOL0     C28625   2.665   9.163   6.125 -0.5690  1.2171  0.1491
  213MOL0     C28626   2.581   9.259   6.085 -0.3939 -1.0918 -0.2792
  213MOL0     C28627   2.608   9.328   5.966 -0.2358  0.4972 -0.1283
  213MOL0     O28628   2.530   9.437   5.939  0.8329  0.9016  0.1987
  213MOL0     C28629   2.511   9.470   5.801  1.7565  0.0354  0.0235
  213MOL0     C28630   2.418   9.374   5.731 -0.8532  0.7048  0.6049
  213MOL0     C28631   2.287   9.369   5.811 -0.2709  0.1735  1.5455
  213MOL0     C28632   2.174   9.287   5.726  0.0224  0.3877 -1.5521
  213MOL0     C28633   2.031   9.346   5.755 -0.1666 -0.3992 -1.3356
  213MOL0     C28634   1.957   9.284   5.871  0.4101  0.4220 -0.3361
  213MOL0     C28635   1.827   9.362   5.880  0.2379  0.1355 -0.5942
  213MOL0     C28636   1.725   9.291   5.969  0.4445 -0.0634 -0.1663
  213MOL0     N28637   1.759   9.289   6.116 -0.2165 -0.2372  0.8972
  213MOL0     C28638   1.824   9.182   6.164  0.3105  0.2389 -0.3136
  213MOL0     C28639   1.796   9.189   6.297  0.7095 -0.2953 -0.4830
  213MOL0     C28640   1.854   9.108   6.408 -0.0219 -1.4667 -0.5091
  213MOL0     C28641   1.951   9.188   6.494  0.1701  0.0924  0.6486
  213MOL0     C28642   2.048   9.274   6.424 -0.2350  0.7604  0.1632
  213MOL0     C28643   2.160   9.305   6.511  0.3193 -0.8063 -0.5487
  213MOL0     O28644   2.277   9.306   6.433  0.0289  0.7544 -1.2519
  213MOL0     C28645   2.338   9.425   6.401  0.2018  0.1093 -0.3277
  213MOL0     C28646   2.475   9.410   6.396 -0.4204 -0.2950  0.0610
  213MOL0     C28647   2.564   9.525   6.386  0.6458 -0.2039  0.1743
  213MOL0     C28648   2.515   9.650   6.364  0.7814 -0.0936  0.1669
  213MOL0     C28649   2.604   9.768   6.361  0.3765  0.3350  0.6078
  213MOL0     O28650   2.542   9.888   6.341  0.3972 -0.3565 -0.1195
  213MOL0     C28651   2.611  10.010   6.340 -1.1195 -0.1557  0.6379
  213MOL0     C28652   2.546  10.118   6.389 -0.9924 -0.6563  0.0960
  213MOL0     C28653   2.608  10.243   6.399  0.2854  0.7230  0.7247
  213MOL0     C28654   2.734  10.255   6.353 -0.3387 -0.0948 -0.8247
  213MOL0     O28655   2.811  10.374   6.363  1.0192 -0.0369  0.6831
  213MOL0     C28656   2.733  10.490   6.368 -0.2290 -0.0544 -0.2843
  213MOL0     C28657   2.844  10.595   6.355 -0.0551  0.1282 -0.5160
  213MOL0     C28658   2.809  10.735   6.399 -0.0285 -0.0129 -0.6630
  213MOL0     C28659   2.881  10.849   6.322  0.0386  0.3776  0.3901
  213MOL0     C28660   2.834  10.986   6.366 -0.6084 -0.1330 -1.0728
  213MOL0     C28661   2.896  11.105   6.294  0.0456  0.4355  0.6379
  213MOL0     C28662   2.826  11.241   6.339 -0.2975 -0.4871 -0.1226
  213MOL0     C28663   2.831  11.359   6.238 -0.5201  0.8014 -0.0043
  213MOL0    Cl28664   2.804  11.502   6.330  0.0900 -0.1726 -0.1662
  213MOL0     C28665   2.802  10.146   6.295  0.3392  0.1585 -0.6698
  213MOL0     C28666   2.735  10.023   6.285  0.3123  0.3226 -0.3715
  213MOL0     O28667   2.719   9.746   6.369 -0.6835  0.1685  0.0327
  213MOL0     C28668   2.369   9.662   6.354  0.6566  0.4392 -1.1492
  213MOL0     C28669   2.281   9.555   6.391  0.4235 -0.0102 -0.0035
  213MOL0     N28670   1.718   9.292   6.316  0.2871  0.5930 -0.4364
  213MOL0     N28671   1.683   9.351   6.206 -0.0076 -0.3688  0.7856
  213MOL0     C28672   2.727   9.290   5.897  0.2090  0.6256  1.2047
  213MOL0     C28673   2.810   9.180   5.939  0.0411  0.6289 -0.0730
  213MOL0     C28674   2.927   8.784   6.103 -0.3675  0.4730  0.7293
  213MOL0     C28675   2.878   8.761   6.228 -0.5622  0.0974 -0.0653
  213MOL0     C28676   2.936   8.664   6.314  0.0237 -0.9014  0.2163
  213MOL0     C28677   3.004   8.564   6.255  0.6213  0.1125  0.4317
  213MOL0     O28678   3.049   8.445   6.307  0.5318 -0.0824 -0.4045
  213MOL0     C28679   3.015   8.420   6.453 -0.8188  0.6644 -0.6812
  213MOL0     C28680   3.037   8.281   6.506 -0.5660  0.0560  0.3177
  213MOL0     C28681   2.965   8.159   6.442  0.1744  0.1745 -0.0345
  213MOL0     C28682   3.010   8.125   6.298  1.5448  0.1225 -0.5408
  213MOL0     C28683   3.121   8.036   6.305 -0.0988  0.0819  0.4960
  213MOL0     C28684   3.229   7.982   6.311  1.0830  0.2369  0.1430
  213MOL0     C28685   3.050   8.578   6.127  0.2606  0.5270  0.6389
  213MOL0     C28686   3.018   8.683   6.042  0.2129  0.4510 -0.2139
  213MOL0     C28687   3.065   8.684   5.895  0.2484 -0.0387 -0.7509
  213MOL0     H28688   2.651   9.110   6.218 -0.9258  1.9258  0.5088
  213MOL0     H28689   2.500   9.301   6.145  1.6051  1.7134  0.6313
  213MOL0     H28690   2.470   9.570   5.781  2.2196 -0.4354 -4.1467
  213MOL0     H28691   2.607   9.476   5.749  1.8143 -1.5538 -0.0806
  213MOL0     H28692   2.475   9.281   5.734  0.5370  1.5463  2.2976
  213MOL0     H28693   2.412   9.407   5.627  0.3551  4.7856  1.6204
  213MOL0     H28694   2.247   9.467   5.838  4.5506  3.0595 -0.4884
  213MOL0     H28695   2.299   9.321   5.908  0.9390 -1.9698  0.4024
  213MOL0     H28696   2.180   9.282   5.617 -3.1510  0.6436 -1.8271
  213MOL0     H28697   2.171   9.191   5.778 -2.0990  0.6201 -1.1207
  213MOL0     H28698   2.048   9.453   5.774  4.6155 -0.8893 -1.6740
  213MOL0     H28699   1.968   9.325   5.668  1.2561 -0.8332 -2.3068
  213MOL0     H28700   1.927   9.182   5.849 -0.0562  0.8160 -1.6230
  213MOL0     H28701   2.010   9.300   5.965 -0.7911 -1.8856  0.7826
  213MOL0     H28702   1.780   9.368   5.781  1.4405 -0.0868 -1.1999
  213MOL0     H28703   1.844   9.460   5.925 -1.5871  1.2631 -2.1817
  213MOL0     H28704   1.625   9.333   5.952 -0.0418 -0.6136  1.2410
  213MOL0     H28705   1.714   9.188   5.934 -0.3292  0.4094 -1.4002
  213MOL0     H28706   1.892   9.112   6.116 -1.4997 -0.4593 -1.9777
  213MOL0     H28707   1.772   9.085   6.476  2.5026  1.8216  4.2647
  213MOL0     H28708   1.882   9.011   6.367  0.5695 -4.3838  5.6476
  213MOL0     H28709   1.902   9.262   6.556  2.6982  0.1673  2.7209
  213MOL0     H28710   1.998   9.113   6.559  1.4334  1.4714  1.3792
  213MOL0     H28711   2.010   9.369   6.386 -4.1755 -1.1506 -1.2149
  213MOL0     H28712   2.086   9.213   6.342 -0.5453  1.3847 -0.4431
  213MOL0     H28713   2.167   9.233   6.594  2.0832 -1.5643 -1.3102
  213MOL0     H28714   2.148   9.400   6.563  0.7277 -0.2374 -1.4839
  213MOL0     H28715   2.518   9.312   6.412  1.8145  0.5100 -0.5700
  213MOL0     H28716   2.671   9.504   6.382  0.1913 -2.7099 -0.2219
  213MOL0     H28717   2.446  10.099   6.426 -0.8591 -1.1326  0.2282
  213MOL0     H28718   2.550  10.322   6.445  1.0713  2.1323 -0.6385
  213MOL0     H28719   2.659  10.509   6.291 -1.7065 -0.6103  0.9443
  213MOL0     H28720   2.702  10.485   6.473  1.5020  0.0117  0.2743
  213MOL0     H28721   2.916  10.572   6.435 -1.2213  0.4249  0.6503
  213MOL0     H28722   2.892  10.601   6.257  1.5731  1.2383  0.2856
  213MOL0     H28723   2.703  10.752   6.376 -0.0402 -1.9329 -2.2887
  213MOL0     H28724   2.838  10.764   6.500  0.3557  1.2462 -1.1079
  213MOL0     H28725   2.880  10.837   6.213  0.0738 -1.0182  0.5163
  213MOL0     H28726   2.988  10.844   6.341  0.9970  1.9286 -3.5952
  213MOL0     H28727   2.869  10.999   6.469  0.0010  0.4547 -1.3429
  213MOL0     H28728   2.726  11.003   6.367 -0.3197  2.0960 -2.0264
  213MOL0     H28729   3.002  11.103   6.320 -0.2315 -0.4929  1.8087
  213MOL0     H28730   2.873  11.094   6.188 -4.7685 -0.1548  1.5316
  213MOL0     H28731   2.868  11.278   6.433 -2.5893  0.4881  0.6009
  213MOL0     H28732   2.721  11.229   6.366 -0.5117 -0.3217 -0.8835
  213MOL0     H28733   2.924  11.359   6.180 -1.7484  4.0026 -2.2625
  213MOL0     H28734   2.765  11.337   6.153  0.9424 -1.1827 -0.7051
  213MOL0     H28735   2.908  10.155   6.275 -0.0030 -1.0386 -3.5296
  213MOL0     H28736   2.785   9.931   6.257  0.8772 -0.9042  3.8532
  213MOL0     H28737   2.326   9.761   6.344 -0.4388  0.3313  1.6909
  213MOL0     H28738   2.174   9.562   6.411  0.8626  0.3846  2.5361
  213MOL0     H28739   2.766   9.351   5.816  5.0929  2.0011  4.1705
  213MOL0     H28740   2.902   9.159   5.886  0.6251  0.5372  0.9577
  213MOL0     H28741   2.806   8.830   6.271  0.0538  0.4908  0.3646
  213MOL0     H28742   2.899   8.664   6.416 -1.4999  0.9242 -0.2657
  213MOL0     H28743   2.908   8.441   6.458 -1.1164 -0.1573 -2.6604
  213MOL0     H28744   3.065   8.491   6.519 -1.3171 -0.0429  0.4911
  213MOL0     H28745   3.015   8.277   6.613  1.9008 -3.1780  0.8323
  213MOL0     H28746   3.145   8.265   6.509 -0.6888 -0.6291  1.6512
  213MOL0     H28747   2.859   8.185   6.441 -0.7911 -3.2285  1.5452
  213MOL0     H28748   2.968   8.064   6.496 -2.9445 -0.4051 -0.6975
  213MOL0     H28749   2.927   8.062   6.264  0.8667  0.6548  0.0922
  213MOL0     H28750   3.014   8.213   6.234 -0.4233  2.2608  2.0741
  213MOL0     H28751   3.323   7.930   6.308  1.2315  0.4875  0.3493
  213MOL0     H28752   3.091   8.486   6.086 -2.9017 -0.4674 -0.5938
  213MOL0     H28753   2.989   8.641   5.829  0.3131 -1.5793  0.1246
  213MOL0     H28754   3.098   8.781   5.858  1.5197  0.6439  1.9470
  213MOL0     H28755   3.153   8.619   5.887  0.7836  0.9434 -4.3088
  214MOL0     O28756   3.630   9.886   5.720 -0.4604  0.0227 -0.1986
  214MOL0     C28757   3.543   9.833   5.790  0.8697 -0.3558  0.0764
  214MOL0     O28758   3.410   9.817   5.758 -0.3293 -0.8066 -0.6534
  214MOL0     C28759   3.362   9.881   5.646  0.3395 -0.4927 -0.7237
  214MOL0     C28760   3.363  10.016   5.610  0.5257  0.4646  0.0152
  214MOL0     C28761   3.307  10.062   5.485  0.4836  0.2076 -0.3187
  214MOL0     C28762   3.225   9.977   5.406 -0.1029  0.0355 -0.3719
  214MOL0     O28763   3.170  10.018   5.290 -0.2246  0.6153 -0.6325
  214MOL0     C28764   3.230  10.109   5.200 -0.6406 -0.1920 -0.2224
  214MOL0     C28765   3.156  10.080   5.072 -0.6577  0.1605  0.1902
  214MOL0     C28766   3.211  10.166   4.952  0.9550  0.4038 -0.7264
  214MOL0     C28767   3.156  10.296   4.919  0.7449 -0.4440 -0.1639
  214MOL0     C28768   3.001  10.288   4.912 -0.3569  0.1161 -0.2072
  214MOL0     C28769   2.954  10.422   4.855 -0.0189  0.3820  0.2213
  214MOL0     C28770   2.800  10.419   4.884  0.5250 -0.4588 -0.0512
  214MOL0     C28771   2.750  10.562   4.879 -0.0234  0.6251  0.5373
  214MOL0     N28772   2.614  10.558   4.833  0.3148 -0.8421 -0.5969
  214MOL0     C28773   2.576  10.570   4.698 -0.7904  1.0365  0.6020
  214MOL0     C28774   2.445  10.572   4.692  0.1466  0.2136  0.3188
  214MOL0     C28775   2.354  10.586   4.566 -0.4475 -0.0408 -0.1121
  214MOL0     C28776   2.235  10.680   4.593 -0.7011  0.2743 -0.0471
  214MOL0     C28777   2.156  10.713   4.467  0.0081  0.2755  1.0075
  214MOL0     C28778   2.128  10.594   4.378  0.7562  1.0586 -0.2369
  214MOL0     O28779   2.034  10.645   4.280 -0.5291 -0.1846 -0.4596
  214MOL0     C28780   2.011  10.572   4.170  0.1275 -0.0318 -0.2394
  214MOL0     C28781   1.921  10.617   4.076 -0.2929 -0.3785  0.0649
  214MOL0     C28782   1.890  10.547   3.960  0.3083 -0.2576 -0.5781
  214MOL0     C28783   1.939  10.419   3.935  0.5463 -0.2068 -0.5287
  214MOL0     C28784   1.877  10.327   3.830  0.5190  0.5815 -1.0368
  214MOL0     O28785   1.751  10.358   3.780 -0.4741  0.2717  0.3185
  214MOL0     C28786   1.697  10.263   3.694  0.0652 -0.7334  0.0985
  214MOL0     C28787   1.640  10.154   3.746 -0.2459  0.2764  0.5548
  214MOL0     C28788   1.609  10.044   3.662 -0.4912  0.5678  0.1964
  214MOL0     C28789   1.615  10.054   3.517 -0.7226  0.3352  0.0236
  214MOL0     O28790   1.571   9.950   3.437  0.1469  0.0267  0.8380
  214MOL0     C28791   1.476   9.862   3.481  0.3478 -0.3438 -0.6997
  214MOL0     C28792   1.447   9.779   3.359  0.0390 -0.4484  0.0058
  214MOL0     C28793   1.339   9.835   3.266 -0.5275 -0.2549 -0.6544
  214MOL0     C28794   1.381   9.971   3.206  0.0146 -0.7405  0.1729
  214MOL0     C28795   1.295  10.000   3.080 -0.6822 -0.1805 -0.2998
  214MOL0     C28796   1.300  10.147   3.039  0.9309  0.1185 -0.5994
  214MOL0     C28797   1.208  10.162   2.912 -0.0733  0.1377 -0.4345
  214MOL0     C28798   1.190  10.297   2.850 -1.2628 -0.3737 -0.9222
  214MOL0    Cl28799   1.345  10.327   2.755 -0.2165 -0.1397 -0.1164
  214MOL0     C28800   1.687  10.159   3.466 -0.0889  0.6542 -0.3611
  214MOL0     C28801   1.732  10.259   3.554  0.8652 -0.7264  0.2162
  214MOL0     O28802   1.933  10.224   3.808 -0.6594 -0.0841  0.1405
  214MOL0     C28803   2.026  10.375   4.033 -0.3533  0.4591  0.2008
  214MOL0     C28804   2.065  10.445   4.149  0.3436  0.4067  0.3743
  214MOL0     N28805   2.398  10.576   4.824  0.0837 -0.4853  0.4328
  214MOL0     N28806   2.497  10.557   4.912 -0.6327  0.5610  0.5296
  214MOL0     C28807   3.221   9.845   5.439 -0.3608  0.1385 -0.6191
  214MOL0     C28808   3.288   9.800   5.555  0.4150  0.0604  0.1923
  214MOL0     C28809   3.596   9.758   5.904  0.3632 -0.9867  0.0417
  214MOL0     C28810   3.563   9.624   5.908  0.5558 -0.1489 -0.2291
  214MOL0     C28811   3.588   9.540   6.016  0.2151 -0.7617 -0.1854
  214MOL0     C28812   3.642   9.598   6.127  0.0273 -0.1714  0.6989
  214MOL0     O28813   3.651   9.505   6.229 -0.1147  0.0118  0.0713
  214MOL0     C28814   3.663   9.564   6.359 -0.6137 -0.2270  0.3744
  214MOL0     C28815   3.632   9.455   6.462 -0.3804  0.5527  0.1875
  214MOL0     C28816   3.500   9.396   6.436  0.0480 -1.3116 -0.0520
  214MOL0     C28817   3.432   9.335   6.557  0.4091 -0.1205  0.1858
  214MOL0     C28818   3.498   9.206   6.593  0.3290  0.0379 -0.4386
  214MOL0     C28819   3.552   9.107   6.628 -0.2193  0.1015 -0.2776
  214MOL0     C28820   3.680   9.732   6.126 -0.2951  1.0831  0.0464
  214MOL0     C28821   3.654   9.822   6.021 -0.4913  0.1023 -0.1662
  214MOL0     C28822   3.677   9.966   6.026  0.4543 -1.6934  0.8138
  214MOL0     H28823   3.419  10.081   5.676  4.0744  0.2391 -2.4892
  214MOL0     H28824   3.330  10.166   5.464 -0.6601  0.3157 -1.1466
  214MOL0     H28825   3.208  10.213   5.226  0.0637  0.1772 -1.0209
  214MOL0     H28826   3.338  10.093   5.194 -0.5536 -0.7234  2.0243
  214MOL0     H28827   3.049  10.083   5.094 -0.4703 -1.1156  1.4622
  214MOL0     H28828   3.188   9.981   5.038  2.6936  1.9074 -2.2934
  214MOL0     H28829   3.204  10.105   4.862 -1.7517  1.7368 -1.5405
  214MOL0     H28830   3.316  10.183   4.977  1.4293 -2.4810 -0.4837
  214MOL0     H28831   3.195  10.362   4.997  2.5976  1.7998 -2.7915
  214MOL0     H28832   3.201  10.331   4.826  1.4050  0.0960  0.3511
  214MOL0     H28833   2.977  10.204   4.847 -2.4438 -1.8906  2.8686
  214MOL0     H28834   2.958  10.279   5.012 -2.6868  1.4166 -1.0167
  214MOL0     H28835   2.983  10.514   4.908 -1.4166  0.0088  1.7532
  214MOL0     H28836   2.987  10.425   4.751  0.6763  1.1617  0.4501
  214MOL0     H28837   2.768  10.373   4.978  1.5750 -1.5495 -0.2026
  214MOL0     H28838   2.739  10.365   4.811  1.5144  0.1753 -1.3996
  214MOL0     H28839   2.765  10.601   4.980 -1.5556  3.1172 -0.1234
  214MOL0     H28840   2.800  10.621   4.802  0.7616 -1.8691 -0.9912
  214MOL0     H28841   2.638  10.565   4.609  1.6885  0.6035  2.2370
  214MOL0     H28842   2.418  10.628   4.488  1.8891 -0.6968  1.3363
  214MOL0     H28843   2.327  10.486   4.533  2.0168 -0.3206 -1.5157
  214MOL0     H28844   2.165  10.646   4.670 -1.8028  0.2951 -1.0023
  214MOL0     H28845   2.282  10.773   4.626  2.5864  0.7365 -4.9917
  214MOL0     H28846   2.218  10.786   4.415  0.6016 -0.6096  0.4388
  214MOL0     H28847   2.061  10.762   4.490 -1.9869 -2.9524  0.2941
  214MOL0     H28848   2.090  10.515   4.443  1.4175 -0.5946 -1.8001
  214MOL0     H28849   2.219  10.547   4.340  0.1935  0.7073 -1.1836
  214MOL0     H28850   1.879  10.715   4.094 -1.3279 -1.1325  2.0983
  214MOL0     H28851   1.816  10.573   3.885 -2.4616 -3.5427  0.7350
  214MOL0     H28852   1.621  10.142   3.852 -2.8347  1.6414  0.3259
  214MOL0     H28853   1.581   9.955   3.718  1.0911  0.2475  0.5061
  214MOL0     H28854   1.507   9.810   3.572 -1.6388 -0.4073 -0.0086
  214MOL0     H28855   1.378   9.900   3.514  0.5320 -0.2518 -0.2381
  214MOL0     H28856   1.542   9.759   3.308  0.9658  1.1965  0.9970
  214MOL0     H28857   1.416   9.681   3.396  0.7643 -0.6790  0.0030
  214MOL0     H28858   1.351   9.765   3.183  4.6103  0.0858 -0.4861
  214MOL0     H28859   1.238   9.851   3.306  0.6798  1.6488  1.9883
  214MOL0     H28860   1.484   9.988   3.175 -0.9123 -2.6144 -4.7666
  214MOL0     H28861   1.350  10.042   3.284  0.8965 -1.0945  0.8633
  214MOL0     H28862   1.196   9.958   3.096  0.3806 -2.7365 -0.0081
  214MOL0     H28863   1.338   9.935   3.004  2.7034  0.0584  1.2352
  214MOL0     H28864   1.261  10.208   3.121  0.3269 -2.1636  0.9161
  214MOL0     H28865   1.405  10.174   3.025  0.4406  0.6572 -3.8116
  214MOL0     H28866   1.103  10.140   2.934 -0.4231  0.7092 -1.4395
  214MOL0     H28867   1.235  10.094   2.830 -2.1311 -1.4042  0.0784
  214MOL0     H28868   1.111  10.296   2.775  0.0159  0.7840 -2.3483
  214MOL0     H28869   1.176  10.373   2.927  1.8074  0.0701 -0.6531
  214MOL0     H28870   1.704  10.175   3.360  0.1946  1.1783 -0.2407
  214MOL0     H28871   1.795  10.335   3.510 -3.6151  3.5131  0.3150
  214MOL0     H28872   2.066  10.275   4.018 -1.4250  0.1693 -0.8888
  214MOL0     H28873   2.132  10.400   4.221 -0.8410  2.2448  2.7527
  214MOL0     H28874   3.162   9.772   5.384 -0.2252 -1.3458  1.0842
  214MOL0     H28875   3.280   9.694   5.575 -4.3867  0.5770  2.4852
  214MOL0     H28876   3.512   9.581   5.822 -2.0421  0.4859  0.8963
  214MOL0     H28877   3.561   9.436   6.002 -0.8186 -0.9300  2.5016
  214MOL0     H28878   3.593   9.648   6.353 -0.1101  0.1205 -1.5700
  214MOL0     H28879   3.771   9.581   6.357 -0.7726  0.8147 -0.9811
  214MOL0     H28880   3.628   9.499   6.562 -1.3672  0.2721  0.2800
  214MOL0     H28881   3.703   9.374   6.481  0.6359  1.1017 -1.1028
  214MOL0     H28882   3.505   9.336   6.344 -2.0600  0.7680 -1.6403
  214MOL0     H28883   3.422   9.470   6.415 -2.4743 -3.5883  0.5373
  214MOL0     H28884   3.416   9.403   6.641  0.4798 -0.3250  0.3682
  214MOL0     H28885   3.328   9.304   6.541  0.7263 -2.8200  2.4744
  214MOL0     H28886   3.597   9.013   6.656  0.2576  0.6196  0.7789
  214MOL0     H28887   3.731   9.774   6.211  1.8366 -2.0644  0.4742
  214MOL0     H28888   3.746   9.998   5.947 -1.7443 -0.9313 -0.9252
  214MOL0     H28889   3.583  10.019   6.006  2.0641  1.4233  1.0643
  214MOL0     H28890   3.716  10.000   6.121 -6.3971 -0.3156  3.7291
  215MOL0     O28891  10.399   5.962  10.589  0.2807 -0.4059 -1.0263
  215MOL0     C28892  10.357   6.029  10.497 -0.5212 -0.2930  0.6053
  215MOL0     O28893  10.229   6.001  10.438 -0.9969 -0.4324 -0.9935
  215MOL0     C28894  10.137   5.918  10.501 -1.1474 -0.3628 -0.4861
  215MOL0     C28895  10.120   5.903  10.643 -0.6465  0.7290 -0.3708
  215MOL0     C28896  10.026   5.803  10.697 -0.2603  0.1906  0.2995
  215MOL0     C28897   9.955   5.719  10.612 -0.2731  0.1986  0.1268
  215MOL0     O28898   9.888   5.602  10.642  0.2882 -0.8648 -0.7260
  215MOL0     C28899   9.901   5.556  10.775 -0.2597  0.1607  0.6748
  215MOL0     C28900   9.758   5.516  10.831  0.1720  0.5518  0.0535
  215MOL0     C28901   9.692   5.638  10.900 -0.2656  0.3528  0.0376
  215MOL0     C28902   9.718   5.635  11.050  0.8591  0.5318  0.4398
  215MOL0     C28903   9.652   5.522  11.126  0.0748 -0.9662  0.7450
  215MOL0     C28904   9.546   5.555  11.226  0.0738  0.2248  0.6530
  215MOL0     C28905   9.606   5.605  11.350 -0.6480 -1.0016 -0.0699
  215MOL0     C28906   9.696   5.506  11.424  1.1290  0.0777 -0.3519
  215MOL0     N28907   9.617   5.431  11.525 -0.3055 -0.1348  0.0100
  215MOL0     C28908   9.507   5.344  11.499 -0.1745  0.0717 -0.0842
  215MOL0     C28909   9.464   5.319  11.629 -0.3163 -0.4594  0.5852
  215MOL0     C28910   9.334   5.246  11.660  0.6881 -0.1173 -0.9071
  215MOL0     C28911   9.340   5.113  11.733  0.2486 -0.1687 -0.3925
  215MOL0     C28912   9.359   5.143  11.879 -0.3671 -0.0589 -0.6152
  215MOL0     C28913   9.361   5.029  11.974  0.2779  0.5457  0.2472
  215MOL0     O28914   9.469   4.951  11.928 -0.0760 -0.4798 -0.7082
  215MOL0     C28915   9.509   4.851  12.014  0.1979 -0.4549 -0.0286
  215MOL0     C28916   9.631   4.797  11.991  0.2918 -0.5192 -0.5356
  215MOL0     C28917   9.691   4.709  12.085 -0.2864  0.5943 -0.4810
  215MOL0     C28918   9.611   4.673  12.199 -1.1531  0.1697  0.8740
  215MOL0     C28919   9.670   4.582  12.298  0.3899 -0.2127  0.5223
  215MOL0     O28920   9.594   4.564  12.420 -0.2080 -0.1497  0.7771
  215MOL0     C28921   9.672   4.543  12.529  0.4451  0.0473 -0.1346
  215MOL0     C28922   9.633   4.449  12.621  0.3355  0.6341  0.2617
  215MOL0     C28923   9.710   4.417  12.735  0.2190 -0.1036  0.1040
  215MOL0     C28924   9.822   4.506  12.772  0.2949  0.3753 -0.9665
  215MOL0     O28925   9.871   4.498  12.905 -0.4304  0.2330  0.1676
  215MOL0     C28926  10.011   4.525  12.927 -0.7666  0.4958 -0.2620
  215MOL0     C28927  10.011   4.563  13.078  1.0366 -0.3634  0.0448
  215MOL0     C28928  10.148   4.552  13.141 -0.4940  0.6743  1.4878
  215MOL0     C28929  10.156   4.624  13.266  0.7492 -0.1794 -0.8622
  215MOL0     C28930  10.286   4.609  13.345 -0.1005 -0.7737  1.0030
  215MOL0     C28931  10.273   4.646  13.489  0.1898 -0.1101 -0.1943
  215MOL0     C28932  10.383   4.603  13.576  0.6801  0.6748  0.1319
  215MOL0     C28933  10.531   4.639  13.533  0.3245  0.3669 -0.5331
  215MOL0    Cl28934  10.578   4.807  13.579 -0.2633  0.2507 -0.4449
  215MOL0     C28935   9.861   4.612  12.680 -0.0970 -0.1354  0.0033
  215MOL0     C28936   9.785   4.617  12.557 -0.1841 -0.2072  0.5493
  215MOL0     O28937   9.775   4.520  12.256 -0.2720 -0.2678 -0.8036
  215MOL0     C28938   9.487   4.721  12.225 -1.1678  0.5203  0.7800
  215MOL0     C28939   9.440   4.816  12.134  0.5690  0.0741  0.0841
  215MOL0     N28940   9.557   5.371  11.725 -0.1039  0.4429  0.3775
  215MOL0     N28941   9.644   5.444  11.660 -0.1830  0.2531  0.7305
  215MOL0     C28942   9.966   5.735  10.467 -0.2839 -0.3898  0.1758
  215MOL0     C28943  10.058   5.839  10.418  0.1649  0.5062  0.7730
  215MOL0     C28944  10.415   6.160  10.453  0.7463 -1.2714 -0.2479
  215MOL0     C28945  10.337   6.254  10.383  0.6053  0.2668  0.5016
  215MOL0     C28946  10.402   6.380  10.340  0.1243 -0.6982 -0.0284
  215MOL0     C28947  10.531   6.417  10.365 -0.3646 -0.4690 -0.0884
  215MOL0     O28948  10.571   6.540  10.328 -0.5456  0.1917 -0.0901
  215MOL0     C28949  10.707   6.578  10.347 -1.1811 -0.3471 -0.3873
  215MOL0     C28950  10.794   6.492  10.246 -1.1339  0.3048 -0.0156
  215MOL0     C28951  10.751   6.533  10.104  0.2512 -0.1309 -0.3685
  215MOL0     C28952  10.832   6.477   9.983 -0.1429 -1.0707 -1.5183
  215MOL0     C28953  10.764   6.533   9.855 -0.2135  1.3347  0.2983
  215MOL0     C28954  10.699   6.567   9.751  0.1092  0.5094  0.3899
  215MOL0     C28955  10.609   6.327  10.436  0.3023 -0.2163 -0.3238
  215MOL0     C28956  10.558   6.198  10.476 -0.4621  0.3138 -0.1582
  215MOL0     C28957  10.647   6.103  10.542 -0.1342 -0.3478  0.1313
  215MOL0     H28958  10.188   5.953  10.711  1.6260 -3.0336  0.4687
  215MOL0     H28959  10.019   5.813  10.805  2.0069  0.4163  0.4796
  215MOL0     H28960   9.964   5.466  10.767  0.2322  0.6177 -5.5352
  215MOL0     H28961   9.953   5.623  10.843 -1.3237  1.2116  0.4728
  215MOL0     H28962   9.770   5.432  10.900 -1.2820 -1.0042 -1.4922
  215MOL0     H28963   9.694   5.492  10.746  0.6016  2.3111 -0.8305
  215MOL0     H28964   9.586   5.637  10.872 -0.0473  0.1679 -0.8114
  215MOL0     H28965   9.737   5.732  10.869  3.2238 -0.8723  0.9413
  215MOL0     H28966   9.826   5.639  11.069  0.5927  0.3697  2.1363
  215MOL0     H28967   9.694   5.731  11.097  2.3374 -0.2157  2.9290
  215MOL0     H28968   9.603   5.453  11.056  0.2829 -0.7799  0.4114
  215MOL0     H28969   9.738   5.466  11.165  0.7027 -0.4079  0.1922
  215MOL0     H28970   9.478   5.633  11.190  0.2236 -0.5309 -1.3781
  215MOL0     H28971   9.487   5.464  11.240 -1.7587  1.3267  0.4669
  215MOL0     H28972   9.525   5.625  11.420 -0.0798 -2.6402  1.1252
  215MOL0     H28973   9.658   5.701  11.339 -0.1985 -1.5395 -4.5003
  215MOL0     H28974   9.754   5.435  11.364  1.7163  0.0085  0.2901
  215MOL0     H28975   9.768   5.564  11.481 -0.0731  0.2651  1.0286
  215MOL0     H28976   9.467   5.315  11.402 -0.3649 -2.8092  0.7666
  215MOL0     H28977   9.261   5.304  11.717  1.0112 -0.8561  0.3071
  215MOL0     H28978   9.277   5.228  11.569  0.7371 -3.1575 -0.4480
  215MOL0     H28979   9.248   5.056  11.716 -0.3194  1.7468 -4.9572
  215MOL0     H28980   9.424   5.052  11.698  2.0847  1.9854  0.0273
  215MOL0     H28981   9.283   5.211  11.917 -2.0170 -1.4503 -1.2942
  215MOL0     H28982   9.453   5.199  11.885  0.7898 -1.8341 -1.2714
  215MOL0     H28983   9.265   4.978  11.969 -0.0459  0.6777  3.2624
  215MOL0     H28984   9.382   5.072  12.073 -3.1533  1.2772  0.7928
  215MOL0     H28985   9.692   4.829  11.907  1.5177  0.2311  0.6105
  215MOL0     H28986   9.795   4.679  12.088  0.1386  2.0613  0.1306
  215MOL0     H28987   9.533   4.410  12.608  0.6821 -2.1453  4.2426
  215MOL0     H28988   9.667   4.347  12.806  3.1416 -1.9783  0.2253
  215MOL0     H28989  10.080   4.441  12.910  2.3464  3.2229 -2.3428
  215MOL0     H28990  10.058   4.606  12.870  1.9046 -2.1564 -2.1496
  215MOL0     H28991   9.978   4.667  13.079  3.2512  0.3973  1.2659
  215MOL0     H28992   9.939   4.497  13.128  0.8072 -1.2473 -1.3991
  215MOL0     H28993  10.184   4.449  13.142  0.2443  0.8646 -0.8643
  215MOL0     H28994  10.215   4.598  13.069 -0.3514 -2.4444 -0.5421
  215MOL0     H28995  10.074   4.582  13.324 -1.6803 -0.9494 -4.5342
  215MOL0     H28996  10.119   4.725  13.244 -0.8832  0.8730  4.9667
  215MOL0     H28997  10.367   4.666  13.298  1.4236 -2.0712  1.9436
  215MOL0     H28998  10.304   4.503  13.329  0.3516 -0.5843  0.1973
  215MOL0     H28999  10.273   4.755  13.488  1.6625 -0.0753 -2.9537
  215MOL0     H29000  10.175   4.623  13.534  0.6134 -0.8396  0.3805
  215MOL0     H29001  10.360   4.497  13.590 -3.0656  1.3550  0.0551
  215MOL0     H29002  10.361   4.646  13.674  1.1928 -3.4715  2.3042
  215MOL0     H29003  10.599   4.571  13.585 -3.2564 -1.2197  2.5152
  215MOL0     H29004  10.540   4.622  13.425 -1.7966 -1.8369 -0.4543
  215MOL0     H29005   9.940   4.680  12.708 -1.9352  1.9352  0.4599
  215MOL0     H29006   9.811   4.706  12.500  0.6759  0.5821  2.0962
  215MOL0     H29007   9.434   4.687  12.314 -0.5536  0.7987  1.2604
  215MOL0     H29008   9.343   4.858  12.158  1.8449  2.0571  2.1685
  215MOL0     H29009   9.927   5.675  10.386  2.0060 -2.7787  0.7126
  215MOL0     H29010  10.073   5.846  10.310  3.5210  1.6055  1.1835
  215MOL0     H29011  10.234   6.235  10.355  1.0745  1.0157 -1.9116
  215MOL0     H29012  10.347   6.458  10.289  2.3617 -0.1091 -1.6812
  215MOL0     H29013  10.731   6.569  10.453 -2.7886  1.8468  0.2441
  215MOL0     H29014  10.728   6.682  10.319  0.6291 -1.3781 -3.2468
  215MOL0     H29015  10.791   6.386  10.272 -0.9169  0.7883  2.2227
  215MOL0     H29016  10.896   6.523  10.269 -1.3282  0.0695  1.2518
  215MOL0     H29017  10.779   6.639  10.100  1.9622 -0.5474 -0.2978
  215MOL0     H29018  10.646   6.509  10.087  0.4604 -1.3624 -0.0351
  215MOL0     H29019  10.939   6.500   9.993 -0.6989  0.7230  1.9669
  215MOL0     H29020  10.825   6.368   9.978  3.6293 -1.6190  0.9098
  215MOL0     H29021  10.646   6.600   9.664  1.1299  0.6529 -0.1860
  215MOL0     H29022  10.710   6.353  10.467  0.7993 -1.5555 -0.7541
  215MOL0     H29023  10.751   6.133  10.532  0.0176  0.2990  2.7412
  215MOL0     H29024  10.628   6.098  10.650 -1.3191 -1.7835 -0.1137
  215MOL0     H29025  10.645   6.000  10.504  1.0078 -0.5667  0.6321
  216MOL0     O29026   8.204   1.902   6.326  1.4126 -0.3247  0.2436
  216MOL0     C29027   8.272   1.943   6.239 -0.4931 -0.3730  0.3204
  216MOL0     O29028   8.298   1.898   6.108 -0.2368 -1.0628 -0.6748
  216MOL0     C29029   8.227   1.797   6.052 -0.3536  1.3664  0.2148
  216MOL0     C29030   8.222   1.667   6.117  0.2612  0.2805 -0.2462
  216MOL0     C29031   8.158   1.565   6.050 -0.5479  0.2755  0.1879
  216MOL0     C29032   8.115   1.586   5.913 -0.4351 -0.7780 -0.4911
  216MOL0     O29033   8.057   1.485   5.842 -0.0007  0.5723  0.0342
  216MOL0     C29034   8.153   1.418   5.751  0.1270  0.3067  0.3365
  216MOL0     C29035   8.066   1.378   5.630 -0.0053  0.7309  0.3617
  216MOL0     C29036   7.965   1.270   5.660 -0.5809 -0.0343  0.0748
  216MOL0     C29037   7.829   1.300   5.611  0.3309 -0.5480  0.3233
  216MOL0     C29038   7.728   1.184   5.656 -0.6098  0.0557 -0.7676
  216MOL0     C29039   7.604   1.200   5.561  0.4140 -0.3779  0.6065
  216MOL0     C29040   7.512   1.078   5.557 -0.4789 -0.7038 -0.3251
  216MOL0     C29041   7.403   1.110   5.455  0.0718  0.2713  0.0001
  216MOL0     N29042   7.289   1.016   5.453 -1.1978 -0.4568 -0.8286
  216MOL0     C29043   7.160   1.064   5.442 -0.3990 -1.0422  0.0120
  216MOL0     C29044   7.078   0.963   5.418  0.1866 -0.8406  0.6367
  216MOL0     C29045   6.924   0.983   5.400 -0.7344 -0.7041 -0.3497
  216MOL0     C29046   6.855   0.950   5.526  0.6705  0.1484 -0.6876
  216MOL0     C29047   6.704   0.937   5.507  0.5655  0.1149 -0.2458
  216MOL0     C29048   6.630   0.867   5.623  0.5370  1.0516 -0.4976
  216MOL0     O29049   6.607   0.725   5.603 -0.1173 -0.1586 -0.2329
  216MOL0     C29050   6.622   0.651   5.719  0.5050  0.4932 -0.1749
  216MOL0     C29051   6.747   0.635   5.779 -0.3038 -0.4159 -0.7610
  216MOL0     C29052   6.750   0.557   5.895  0.1201  0.3744  0.1976
  216MOL0     C29053   6.631   0.505   5.950  0.1531 -0.8738 -1.0278
  216MOL0     C29054   6.633   0.433   6.086 -0.4200  0.3316  1.1769
  216MOL0     O29055   6.511   0.433   6.158  0.1898 -0.3128  0.0314
  216MOL0     C29056   6.488   0.354   6.270  0.1862  0.2245  0.1761
  216MOL0     C29057   6.564   0.351   6.383  0.4089  0.9203 -0.1907
  216MOL0     C29058   6.520   0.278   6.498  0.1929 -0.2308 -0.8508
  216MOL0     C29059   6.409   0.196   6.491 -0.2162 -0.1751 -0.5314
  216MOL0     O29060   6.364   0.115   6.599  0.2147 -0.9115  1.3009
  216MOL0     C29061   6.429   0.109   6.720  0.2371 -0.0417  0.3505
  216MOL0     C29062   6.380   0.218   6.813  0.7340  0.0727 -0.7423
  216MOL0     C29063   6.231   0.184   6.865  0.8177 -0.4976 -0.0815
  216MOL0     C29064   6.217   0.200   7.011 -0.2843 -0.7761 -0.1293
  216MOL0     C29065   6.307   0.111   7.103  0.0352 -0.8483 -0.7863
  216MOL0     C29066   6.270   0.138   7.255 -0.2847  0.6383  0.0347
  216MOL0     C29067   6.130   0.075   7.296  0.2950 -0.1120  0.9911
  216MOL0     C29068   6.124   0.066   7.445  0.4136  0.5262  0.5053
  216MOL0    Cl29069   5.981  -0.043   7.488  0.1015  0.4222  0.2106
  216MOL0     C29070   6.336   0.192   6.368 -0.0173  0.1952 -0.0882
  216MOL0     C29071   6.369   0.276   6.266 -0.3822  0.3823 -0.5033
  216MOL0     O29072   6.741   0.385   6.128 -0.5863 -0.0425  0.4220
  216MOL0     C29073   6.508   0.524   5.884 -0.0731 -0.9444 -0.0520
  216MOL0     C29074   6.505   0.607   5.775  0.1997  0.4449 -0.0377
  216MOL0     N29075   7.155   0.855   5.400 -0.4381 -0.1719 -0.3166
  216MOL0     N29076   7.279   0.885   5.421  0.1126  0.4015  0.3206
  216MOL0     C29077   8.136   1.708   5.851  0.5620 -0.8437 -0.5395
  216MOL0     C29078   8.185   1.816   5.920 -0.6870  1.4705 -0.5689
  216MOL0     C29079   8.360   2.051   6.275 -0.1890 -0.3051 -0.5381
  216MOL0     C29080   8.333   2.185   6.225  0.1455  0.3592  0.1527
  216MOL0     C29081   8.409   2.290   6.247 -0.4987  0.5998  0.1103
  216MOL0     C29082   8.517   2.272   6.337 -0.1220 -0.3581 -0.1588
  216MOL0     O29083   8.603   2.380   6.374  0.4824 -0.5210 -0.1853
  216MOL0     C29084   8.743   2.342   6.377  0.0887 -0.0139 -1.0103
  216MOL0     C29085   8.840   2.432   6.310  0.2146  0.7718 -0.6861
  216MOL0     C29086   8.782   2.455   6.171  1.2862 -0.2256 -0.0282
  216MOL0     C29087   8.881   2.487   6.061 -1.1821 -0.2372  0.5937
  216MOL0     C29088   8.945   2.617   6.081  0.4028 -1.1276  0.9226
  216MOL0     C29089   8.991   2.724   6.112  0.1412 -0.7331  0.9173
  216MOL0     C29090   8.540   2.143   6.399  0.8113  0.2029  0.2775
  216MOL0     C29091   8.463   2.033   6.368  0.4576 -0.4511  0.8002
  216MOL0     C29092   8.480   1.901   6.445  0.1882 -0.5395 -0.6739
  216MOL0     H29093   8.261   1.642   6.216 -1.2094 -5.0481 -0.6724
  216MOL0     H29094   8.139   1.469   6.095  3.3357 -0.8007 -0.0869
  216MOL0     H29095   8.241   1.477   5.726  1.7108 -1.4307  1.4719
  216MOL0     H29096   8.195   1.323   5.786  0.0285  0.7270  1.6549
  216MOL0     H29097   8.133   1.351   5.548  1.9065  0.0365  2.0796
  216MOL0     H29098   8.011   1.471   5.609 -0.3354  0.7533  1.2762
  216MOL0     H29099   7.976   1.259   5.768  0.5515  1.5040  0.1391
  216MOL0     H29100   7.996   1.176   5.613  0.4417  1.0342 -1.4823
  216MOL0     H29101   7.795   1.395   5.653 -0.5653 -1.5081  1.8528
  216MOL0     H29102   7.832   1.314   5.502  1.0841 -1.0090  0.2760
  216MOL0     H29103   7.772   1.087   5.629 -0.4800 -0.5041  1.2584
  216MOL0     H29104   7.711   1.162   5.762  1.7544 -1.5562 -0.6359
  216MOL0     H29105   7.541   1.286   5.589 -1.3178 -1.7270  1.0895
  216MOL0     H29106   7.638   1.217   5.459 -0.8579  0.2732  0.2683
  216MOL0     H29107   7.482   1.052   5.658  0.1942 -0.2167  0.0102
  216MOL0     H29108   7.566   0.990   5.521 -1.2310  0.6573 -5.6798
  216MOL0     H29109   7.365   1.211   5.470  1.2918  0.6640  0.5578
  216MOL0     H29110   7.451   1.104   5.356 -0.8073 -2.7781 -0.3589
  216MOL0     H29111   7.141   1.170   5.456  2.6150 -0.4914  0.6748
  216MOL0     H29112   6.893   1.079   5.360  1.4027 -0.2217 -1.0012
  216MOL0     H29113   6.899   0.923   5.313  1.2026  0.0994 -1.5290
  216MOL0     H29114   6.903   0.858   5.561  2.9546 -0.4788 -4.9099
  216MOL0     H29115   6.879   1.027   5.601  1.5497  1.6964 -2.4910
  216MOL0     H29116   6.673   0.879   5.419 -0.3955 -0.1077  0.2235
  216MOL0     H29117   6.663   1.038   5.507 -3.2170 -1.2279  0.7275
  216MOL0     H29118   6.527   0.903   5.625 -1.2024 -3.2241 -1.7222
  216MOL0     H29119   6.669   0.897   5.720 -1.2529  0.8395  0.3199
  216MOL0     H29120   6.837   0.678   5.737 -0.4294  0.4954 -0.1426
  216MOL0     H29121   6.841   0.531   5.948 -1.7569 -2.1633  2.4633
  216MOL0     H29122   6.659   0.401   6.393  0.1102  1.1655  1.8700
  216MOL0     H29123   6.578   0.297   6.588  0.4700 -0.7621 -0.9185
  216MOL0     H29124   6.396   0.008   6.746  0.8449 -0.6723 -1.2130
  216MOL0     H29125   6.538   0.114   6.710  0.1654  1.1796 -0.0198
  216MOL0     H29126   6.443   0.210   6.902  0.4138 -0.8240 -0.5830
  216MOL0     H29127   6.383   0.318   6.769  2.2528 -0.3020 -1.5862
  216MOL0     H29128   6.177   0.271   6.825 -0.0166  2.2278  5.8325
  216MOL0     H29129   6.176   0.096   6.830 -1.2649  1.0146 -0.8466
  216MOL0     H29130   6.115   0.171   7.039  0.7475 -2.7329  1.9207
  216MOL0     H29131   6.227   0.306   7.036  0.0403 -0.5556 -1.1524
  216MOL0     H29132   6.409   0.150   7.097 -0.0534 -0.2887  0.9181
  216MOL0     H29133   6.281   0.009   7.074 -1.4759  0.0125 -2.7339
  216MOL0     H29134   6.344   0.088   7.318 -1.3194 -0.4057  0.4517
  216MOL0     H29135   6.279   0.244   7.278 -1.8480  0.9008 -0.4863
  216MOL0     H29136   6.112  -0.022   7.249 -2.1584  0.5697  0.3725
  216MOL0     H29137   6.040   0.127   7.262  1.0860 -1.0131 -3.0857
  216MOL0     H29138   6.212   0.007   7.474 -0.2402 -0.6468  0.1955
  216MOL0     H29139   6.123   0.162   7.497 -0.5938  0.3013  0.9257
  216MOL0     H29140   6.256   0.122   6.346  2.1365 -1.5912 -2.8016
  216MOL0     H29141   6.320   0.291   6.170  0.4522 -3.0590 -1.5980
  216MOL0     H29142   6.412   0.488   5.919 -1.5039  3.0487  0.6567
  216MOL0     H29143   6.410   0.614   5.724 -2.4914 -2.6536  3.9184
  216MOL0     H29144   8.103   1.730   5.750  0.8215  0.7152 -0.3206
  216MOL0     H29145   8.199   1.909   5.865 -1.0609  2.1603  0.4630
  216MOL0     H29146   8.256   2.185   6.148 -2.1705 -0.7285  2.3064
  216MOL0     H29147   8.406   2.393   6.211 -1.9589  2.5389  4.9110
  216MOL0     H29148   8.758   2.237   6.350 -2.7533 -0.8461  0.2272
  216MOL0     H29149   8.768   2.359   6.482  1.5391  0.8466 -1.4778
  216MOL0     H29150   8.940   2.390   6.298  1.0222  2.9710 -2.2287
  216MOL0     H29151   8.869   2.522   6.363  3.0750  1.1085 -2.5775
  216MOL0     H29152   8.712   2.537   6.186  0.2722 -1.0034 -0.4135
  216MOL0     H29153   8.724   2.368   6.140  0.6929 -0.0366  0.5483
  216MOL0     H29154   8.954   2.405   6.058  1.0240  1.6402 -1.5851
  216MOL0     H29155   8.835   2.502   5.963 -1.5926  2.7008  1.1229
  216MOL0     H29156   9.015   2.824   6.140  3.7633 -1.4035  0.7359
  216MOL0     H29157   8.610   2.128   6.481  0.7517  0.1793  0.3246
  216MOL0     H29158   8.571   1.851   6.411 -1.4909 -3.9722 -0.5405
  216MOL0     H29159   8.488   1.936   6.549  0.6593  0.0469 -0.9051
  216MOL0     H29160   8.391   1.838   6.434 -1.8677  1.8151  1.0320
  217MOL0     O29161   8.772   9.694   0.941 -0.1764  0.5907  0.1217
  217MOL0     C29162   8.829   9.751   1.032 -0.3385 -0.0755  0.5152
  217MOL0     O29163   8.880   9.688   1.143  0.1550  0.3285  0.0410
  217MOL0     C29164   8.877   9.550   1.163  0.6313 -0.5135 -0.5761
  217MOL0     C29165   8.758   9.479   1.154 -0.6004  0.4637  0.6047
  217MOL0     C29166   8.752   9.347   1.200  0.0511  0.5938  0.3263
  217MOL0     C29167   8.865   9.282   1.257 -0.0874  0.7879 -0.2203
  217MOL0     O29168   8.837   9.154   1.301  1.3187 -0.3514 -0.1865
  217MOL0     C29169   8.934   9.080   1.368  0.8475  0.4067 -0.6710
  217MOL0     C29170   8.885   8.943   1.416  2.0642 -0.9416 -0.3530
  217MOL0     C29171   8.987   8.867   1.505  0.3659 -0.5988 -0.5000
  217MOL0     C29172   8.989   8.912   1.655 -0.4025 -0.1738  0.4932
  217MOL0     C29173   9.121   8.861   1.732 -0.0959 -0.3877 -0.1045
  217MOL0     C29174   9.108   8.709   1.740 -0.1011  0.7306  0.9198
  217MOL0     C29175   9.256   8.655   1.768 -0.4999 -0.0271  0.0216
  217MOL0     C29176   9.248   8.500   1.780  0.7786  0.3766 -0.0492
  217MOL0     N29177   9.381   8.452   1.826 -0.6893 -0.0588  0.2055
  217MOL0     C29178   9.429   8.458   1.960  0.4503 -0.0380  0.7389
  217MOL0     C29179   9.535   8.371   1.963  0.2589 -0.3383  0.3732
  217MOL0     C29180   9.636   8.343   2.074  0.0422  0.1079  0.0012
  217MOL0     C29181   9.687   8.467   2.143 -0.0663  0.2385 -0.1802
  217MOL0     C29182   9.809   8.521   2.087 -0.0458  0.5623 -0.1517
  217MOL0     C29183   9.796   8.558   1.937 -0.3676  0.6007  0.3613
  217MOL0     O29184   9.683   8.635   1.918  0.5368  0.1474  1.2062
  217MOL0     C29185   9.651   8.692   1.793 -0.0382 -0.1615  0.2278
  217MOL0     C29186   9.706   8.646   1.676 -0.0583 -0.0560  0.7658
  217MOL0     C29187   9.707   8.735   1.562 -0.8989 -0.0779  0.0673
  217MOL0     C29188   9.612   8.832   1.551  0.2413 -0.2891  0.1762
  217MOL0     C29189   9.599   8.920   1.430 -0.0090  0.0141  0.7845
  217MOL0     O29190   9.492   9.013   1.439  0.3488  0.2958 -0.0834
  217MOL0     C29191   9.480   9.125   1.357  0.0357  0.0528  0.1319
  217MOL0     C29192   9.398   9.224   1.410 -1.0627  0.9061 -1.1737
  217MOL0     C29193   9.380   9.335   1.327 -0.1891 -0.3249  0.8373
  217MOL0     C29194   9.446   9.358   1.207 -0.2375  0.7178 -0.1784
  217MOL0     O29195   9.427   9.479   1.136  0.0042  0.5486  0.3360
  217MOL0     C29196   9.331   9.466   1.026 -0.3238  0.4346 -0.1223
  217MOL0     C29197   9.293   9.602   0.977 -0.8718 -0.1739  0.9596
  217MOL0     C29198   9.180   9.602   0.870  0.3742  0.4622  0.4636
  217MOL0     C29199   9.171   9.734   0.809 -0.0852  0.0177 -0.6522
  217MOL0     C29200   9.091   9.725   0.675  0.2512  1.3548 -0.4816
  217MOL0     C29201   9.070   9.866   0.623  0.2153 -0.6100  0.8551
  217MOL0     C29202   8.968   9.878   0.508  0.3603  0.3569 -0.3019
  217MOL0     C29203   9.040   9.880   0.372 -0.4345 -0.7996  0.3404
  217MOL0    Cl29204   8.921   9.890   0.241 -0.4942  0.3853 -0.4503
  217MOL0     C29205   9.535   9.265   1.163  0.2136  0.4566 -0.2092
  217MOL0     C29206   9.551   9.149   1.238 -1.2281 -0.1693  0.4134
  217MOL0     O29207   9.686   8.919   1.343 -0.0094 -0.0482 -0.5572
  217MOL0     C29208   9.540   8.866   1.670  0.3915  0.8868 -0.1207
  217MOL0     C29209   9.557   8.793   1.789  0.3925 -0.8828  0.7617
  217MOL0     N29210   9.547   8.320   1.837 -0.4385 -0.9381  0.8734
  217MOL0     N29211   9.456   8.362   1.756  0.3256 -0.0211 -0.0990
  217MOL0     C29212   8.981   9.351   1.264  0.0808  0.1575  0.1375
  217MOL0     C29213   8.996   9.486   1.208  0.2185 -0.1888  0.5784
  217MOL0     C29214   8.837   9.901   1.031  0.5065  0.2658  0.3295
  217MOL0     C29215   8.816   9.959   0.906 -0.4441  0.2055  0.6341
  217MOL0     C29216   8.818  10.100   0.893 -0.3997  0.2239 -1.0075
  217MOL0     C29217   8.872  10.184   0.988  0.2532 -0.5982 -0.4782
  217MOL0     O29218   8.873  10.325   0.977 -0.1726 -0.3791 -0.3399
  217MOL0     C29219   8.926  10.374   0.852  0.0594  0.8959 -0.3043
  217MOL0     C29220   8.810  10.419   0.769  0.3980 -0.0355 -0.5945
  217MOL0     C29221   8.849  10.438   0.619 -0.5201  0.0747 -0.3894
  217MOL0     C29222   8.908  10.578   0.603 -0.3090 -0.3969  0.3207
  217MOL0     C29223   8.806  10.687   0.630  0.7838  0.3545 -0.2138
  217MOL0     C29224   8.723  10.777   0.654  0.3818 -0.3647 -0.5009
  217MOL0     C29225   8.893  10.130   1.116  0.0632  0.6825  0.5552
  217MOL0     C29226   8.868   9.990   1.140 -0.4029 -0.7648  1.1053
  217MOL0     C29227   8.916   9.951   1.280  0.3370  0.2373  0.0748
  217MOL0     H29228   8.675   9.540   1.118 -2.1187 -1.6533  0.3143
  217MOL0     H29229   8.660   9.291   1.192  1.3304 -1.5903  0.1220
  217MOL0     H29230   9.021   9.069   1.303  0.6163 -1.6400 -0.6829
  217MOL0     H29231   8.974   9.140   1.451  1.1899  2.3233 -2.1386
  217MOL0     H29232   8.858   8.871   1.338 -1.3989  1.7616 -1.9293
  217MOL0     H29233   8.787   8.964   1.459  1.7181 -2.1315 -0.5062
  217MOL0     H29234   9.088   8.874   1.464  1.2226  0.5209  1.6396
  217MOL0     H29235   8.962   8.762   1.519  2.3081 -1.0397 -0.1623
  217MOL0     H29236   8.987   9.021   1.659  0.3052  0.0086 -2.3235
  217MOL0     H29237   8.892   8.884   1.698 -2.4073  1.9521 -2.3014
  217MOL0     H29238   9.205   8.896   1.672 -0.8506  0.4181 -0.7270
  217MOL0     H29239   9.116   8.902   1.834 -1.3811  0.4899 -0.4995
  217MOL0     H29240   9.053   8.684   1.831  2.4745  1.8034  2.9090
  217MOL0     H29241   9.074   8.661   1.648  1.4112 -1.9209  1.6505
  217MOL0     H29242   9.298   8.709   1.853 -1.6963  1.2806 -0.1674
  217MOL0     H29243   9.310   8.696   1.682  0.5142  1.7111  1.4163
  217MOL0     H29244   9.187   8.471   1.866  1.6281 -1.8914 -0.1654
  217MOL0     H29245   9.206   8.449   1.692  0.6120  1.9356 -0.9232
  217MOL0     H29246   9.398   8.510   2.050 -1.5420 -0.1453  0.1730
  217MOL0     H29247   9.578   8.288   2.149 -1.1061  0.6252 -0.4685
  217MOL0     H29248   9.714   8.277   2.035 -1.5936  0.0097 -3.5147
  217MOL0     H29249   9.616   8.549   2.161 -0.3673  0.0080 -0.3080
  217MOL0     H29250   9.709   8.445   2.248  2.5612  2.3543 -0.1904
  217MOL0     H29251   9.891   8.452   2.106 -0.2407  0.4683  0.3610
  217MOL0     H29252   9.833   8.615   2.139  0.2159  1.3989 -1.7174
  217MOL0     H29253   9.775   8.467   1.879 -1.0853  0.8427  0.2316
  217MOL0     H29254   9.886   8.606   1.898  1.3659 -1.6762  1.3025
  217MOL0     H29255   9.793   8.582   1.681  1.5482  2.0517  1.0900
  217MOL0     H29256   9.757   8.711   1.468 -1.0714 -0.2925  0.0305
  217MOL0     H29257   9.347   9.221   1.505 -1.7884 -0.6265 -1.5764
  217MOL0     H29258   9.317   9.415   1.363  1.8288  1.9400 -0.4018
  217MOL0     H29259   9.371   9.399   0.949 -2.4487 -1.0461 -0.0238
  217MOL0     H29260   9.236   9.430   1.066 -2.2363  1.1837 -3.5994
  217MOL0     H29261   9.257   9.659   1.063 -2.6582  1.0392 -0.5067
  217MOL0     H29262   9.368   9.664   0.927 -2.1577 -1.0917 -2.3393
  217MOL0     H29263   9.205   9.532   0.790  1.4668 -0.9805  1.9800
  217MOL0     H29264   9.084   9.575   0.914 -0.3647  3.4758  0.8808
  217MOL0     H29265   9.268   9.777   0.785 -0.9838  2.5416 -0.0837
  217MOL0     H29266   9.125   9.800   0.882  0.8044  1.0386 -0.9853
  217MOL0     H29267   8.994   9.681   0.701 -0.2841  2.4952 -0.4871
  217MOL0     H29268   9.140   9.649   0.613 -3.4790 -1.3052 -0.4986
  217MOL0     H29269   9.041   9.938   0.700 -2.7943  2.2460 -2.5815
  217MOL0     H29270   9.167   9.907   0.593  0.2142  0.2355  1.9422
  217MOL0     H29271   8.902   9.965   0.516 -0.1897  0.0471 -1.3673
  217MOL0     H29272   8.907   9.789   0.491 -1.9444  2.0647 -1.5137
  217MOL0     H29273   9.111   9.961   0.358 -0.3248 -0.9578 -0.0196
  217MOL0     H29274   9.090   9.785   0.351  2.0645  0.6694 -0.7917
  217MOL0     H29275   9.585   9.279   1.067 -1.3777  4.5454 -0.6422
  217MOL0     H29276   9.617   9.072   1.199 -0.2499 -0.0610  1.7484
  217MOL0     H29277   9.465   8.944   1.669 -0.1011  0.5199  2.5949
  217MOL0     H29278   9.503   8.828   1.876  1.2780 -1.4449  1.5697
  217MOL0     H29279   9.070   9.307   1.308  0.5239  2.7777  2.1160
  217MOL0     H29280   9.089   9.541   1.207 -0.6949  1.4341  0.9198
  217MOL0     H29281   8.793   9.899   0.818 -3.2733 -0.0773  1.4813
  217MOL0     H29282   8.802  10.145   0.796 -0.4671 -4.0372 -3.2120
  217MOL0     H29283   8.975  10.293   0.796  1.1528 -0.5581  2.5215
  217MOL0     H29284   8.999  10.451   0.879  1.9097 -1.5885  2.5066
  217MOL0     H29285   8.773  10.509   0.820 -2.1061 -1.0457 -0.4812
  217MOL0     H29286   8.722  10.354   0.776  0.3679 -0.0637 -1.2357
  217MOL0     H29287   8.761  10.428   0.556  0.0011  3.7702 -1.9634
  217MOL0     H29288   8.923  10.362   0.593 -0.6595  0.4604 -2.0744
  217MOL0     H29289   8.994  10.583   0.670  0.5187  3.5952 -0.7922
  217MOL0     H29290   8.945  10.581   0.500  0.3088  1.0102  0.5529
  217MOL0     H29291   8.659  10.860   0.677  0.5365  0.4453 -2.7754
  217MOL0     H29292   8.908  10.201   1.197  0.8634  4.2055 -2.4004
  217MOL0     H29293   8.992  10.019   1.319 -0.4127  1.4680 -0.5650
  217MOL0     H29294   8.836   9.956   1.354  0.7467 -0.4211  0.5815
  217MOL0     H29295   8.963   9.852   1.277 -0.0030  0.0906 -1.5346
  218MOL0     O29296   0.897   2.384   1.661 -0.7101  0.6000 -0.2504
  218MOL0     C29297   0.815   2.298   1.703 -0.7638  0.0989  0.5215
  218MOL0     O29298   0.830   2.238   1.819  0.5336 -0.0856 -0.3402
  218MOL0     C29299   0.955   2.206   1.862 -0.1263 -0.1482  0.0129
  218MOL0     C29300   0.988   2.240   1.992  0.1782 -0.4494  0.9675
  218MOL0     C29301   1.121   2.237   2.043  0.6170 -1.2498  1.6963
  218MOL0     C29302   1.214   2.187   1.948 -0.3183  0.3906 -0.0232
  218MOL0     O29303   1.347   2.173   1.974 -0.8443  0.0918 -0.0251
  218MOL0     C29304   1.410   2.263   2.065  1.0596 -0.3754  0.3791
  218MOL0     C29305   1.564   2.244   2.086 -0.6688 -0.2018  0.1199
  218MOL0     C29306   1.617   2.111   2.148 -0.2891  0.1838 -0.4869
  218MOL0     C29307   1.769   2.094   2.131 -0.2483 -0.1660  0.2760
  218MOL0     C29308   1.864   2.201   2.191  0.6090 -0.6129  0.0786
  218MOL0     C29309   2.000   2.147   2.241  0.2406  1.0376 -0.3871
  218MOL0     C29310   2.084   2.085   2.127 -0.0983  0.3930  0.6074
  218MOL0     C29311   2.210   2.007   2.168  0.5178 -0.1240 -0.1424
  218MOL0     N29312   2.316   2.096   2.221  0.3802  0.0842 -0.1898
  218MOL0     C29313   2.419   2.143   2.136 -0.7840 -0.1876 -0.1980
  218MOL0     C29314   2.502   2.194   2.222  0.2417  0.4929  0.7510
  218MOL0     C29315   2.624   2.262   2.176  0.3749 -0.7023  0.2709
  218MOL0     C29316   2.621   2.414   2.141  0.5519  0.4357 -0.2051
  218MOL0     C29317   2.605   2.494   2.279  0.0594  0.0167  0.8490
  218MOL0     C29318   2.599   2.646   2.261 -0.8219 -0.0623  0.0802
  218MOL0     O29319   2.481   2.681   2.185 -0.0472  0.3858 -0.0036
  218MOL0     C29320   2.496   2.777   2.088  0.2777  0.0998  0.0711
  218MOL0     C29321   2.391   2.867   2.085  0.8187  0.6706 -0.2326
  218MOL0     C29322   2.374   2.963   1.981 -0.4189  0.2058 -0.4643
  218MOL0     C29323   2.481   2.974   1.890 -0.0419  2.4127 -0.5181
  218MOL0     C29324   2.482   3.083   1.794 -0.2638 -0.2137 -0.1502
  218MOL0     O29325   2.598   3.110   1.725  0.6884 -0.5297  0.7907
  218MOL0     C29326   2.608   3.212   1.628  0.3864 -0.7962  0.1084
  218MOL0     C29327   2.726   3.226   1.559 -0.2941 -0.4017  0.1492
  218MOL0     C29328   2.758   3.304   1.454 -0.0003 -0.4964  0.2927
  218MOL0     C29329   2.655   3.389   1.396 -0.2835 -0.5827 -0.0010
  218MOL0     O29330   2.685   3.469   1.290 -0.2606  0.3575 -0.3320
  218MOL0     C29331   2.804   3.427   1.213  0.5534 -0.2787  0.1093
  218MOL0     C29332   2.829   3.538   1.103  0.5674  1.2969 -1.1907
  218MOL0     C29333   2.926   3.475   0.999 -1.0368  0.2960  0.5445
  218MOL0     C29334   2.987   3.589   0.904 -0.2380  0.2518  0.4591
  218MOL0     C29335   3.099   3.524   0.830  0.0445 -0.5177  0.1081
  218MOL0     C29336   3.175   3.617   0.737  0.5997 -0.2090 -0.8050
  218MOL0     C29337   3.274   3.566   0.629  0.2538  1.1466  0.2459
  218MOL0     C29338   3.403   3.498   0.682  0.3718 -0.2742  0.6306
  218MOL0    Cl29339   3.549   3.598   0.635 -0.1140  0.1462 -0.3071
  218MOL0     C29340   2.529   3.377   1.454 -0.2198  1.1293 -0.5659
  218MOL0     C29341   2.509   3.297   1.569  0.1627  0.4742  0.1701
  218MOL0     O29342   2.383   3.155   1.791  0.1571 -0.3535 -0.2804
  218MOL0     C29343   2.593   2.887   1.899  0.0307  0.6520  0.0127
  218MOL0     C29344   2.590   2.779   1.988  0.6981 -0.7457  0.1046
  218MOL0     N29345   2.456   2.168   2.354  1.4252 -0.0577 -0.8557
  218MOL0     N29346   2.336   2.124   2.348 -0.0280 -0.4571 -0.1163
  218MOL0     C29347   1.188   2.153   1.815  0.0831  0.3814  0.1576
  218MOL0     C29348   1.057   2.173   1.771  0.4933  0.4216  0.2698
  218MOL0     C29349   0.695   2.279   1.628 -0.0168  0.4688  0.1933
  218MOL0     C29350   0.581   2.226   1.703 -0.1875  0.5926  0.1107
  218MOL0     C29351   0.451   2.209   1.646 -0.5665 -0.0304  0.0435
  218MOL0     C29352   0.450   2.227   1.506 -0.2059  0.6353 -0.0802
  218MOL0     O29353   0.330   2.187   1.449  0.9318  0.0045 -0.2842
  218MOL0     C29354   0.325   2.039   1.432  0.5024 -0.7240  0.0590
  218MOL0     C29355   0.178   2.011   1.399  1.2475 -0.0586  0.6628
  218MOL0     C29356   0.150   2.045   1.250  0.2312 -0.5229 -0.3498
  218MOL0     C29357   0.006   2.040   1.231  0.7598 -0.0976 -0.2080
  218MOL0     C29358  -0.050   1.903   1.230  0.2433 -0.1132  0.2203
  218MOL0     C29359  -0.102   1.789   1.231  0.3978  0.2905  0.5043
  218MOL0     C29360   0.560   2.244   1.430 -0.0956 -0.1256 -0.3591
  218MOL0     C29361   0.681   2.274   1.489 -0.5524  0.2693  0.3461
  218MOL0     C29362   0.791   2.321   1.390 -0.1166  0.8422 -0.1284
  218MOL0     H29363   0.904   2.253   2.060 -0.4209 -0.5284  0.2482
  218MOL0     H29364   1.147   2.258   2.146  0.0195  0.5163  1.5108
  218MOL0     H29365   1.393   2.366   2.032  1.6881 -0.8264 -1.5038
  218MOL0     H29366   1.354   2.250   2.158  0.6456 -1.1272  0.0328
  218MOL0     H29367   1.595   2.333   2.142 -0.2326  0.1463 -0.6630
  218MOL0     H29368   1.608   2.263   1.987  2.6720 -1.5428  1.2091
  218MOL0     H29369   1.567   2.023   2.106 -3.3777  2.8984 -3.1352
  218MOL0     H29370   1.605   2.120   2.256  0.8667 -0.9991 -0.2377
  218MOL0     H29371   1.793   1.998   2.179  0.6890  0.5540  1.2789
  218MOL0     H29372   1.801   2.068   2.029 -1.5781  1.3188 -0.5695
  218MOL0     H29373   1.881   2.278   2.115  0.5078  0.2310  0.8880
  218MOL0     H29374   1.813   2.251   2.274 -2.2425 -0.8132 -1.4270
  218MOL0     H29375   2.058   2.234   2.276 -2.7958  2.5911  1.1923
  218MOL0     H29376   2.004   2.081   2.329  0.8437 -0.7764 -1.7175
  218MOL0     H29377   2.123   2.163   2.061  2.8527 -2.1883 -0.9361
  218MOL0     H29378   2.023   2.014   2.071  1.8817 -2.0576  1.3971
  218MOL0     H29379   2.185   1.927   2.238 -3.3642 -1.1290 -2.3719
  218MOL0     H29380   2.249   1.953   2.081  1.3032 -1.1868  0.8336
  218MOL0     H29381   2.423   2.133   2.028  3.8718  0.0690 -0.2476
  218MOL0     H29382   2.701   2.249   2.252 -0.5849 -1.4337  1.1486
  218MOL0     H29383   2.658   2.207   2.088 -1.6704 -0.2570 -0.8624
  218MOL0     H29384   2.716   2.435   2.091 -0.6053  0.7591 -2.4123
  218MOL0     H29385   2.538   2.446   2.077 -0.3853  3.7095  2.3939
  218MOL0     H29386   2.693   2.480   2.342  0.3784 -0.6446  0.2733
  218MOL0     H29387   2.523   2.459   2.341  0.4181  4.1449  4.1155
  218MOL0     H29388   2.699   2.667   2.221 -1.5072  2.3418 -0.4839
  218MOL0     H29389   2.617   2.705   2.352  1.8357  1.1224 -1.1020
  218MOL0     H29390   2.329   2.851   2.173  0.5217 -0.6750 -0.6691
  218MOL0     H29391   2.297   3.040   1.978  0.8130  1.4992 -0.1926
  218MOL0     H29392   2.806   3.174   1.610 -0.9847 -0.1489  1.5359
  218MOL0     H29393   2.857   3.291   1.411 -0.2658  1.4849 -1.0764
  218MOL0     H29394   2.895   3.421   1.272  0.1712  2.1206  1.0307
  218MOL0     H29395   2.781   3.331   1.165 -4.4990  1.6883 -2.2672
  218MOL0     H29396   2.731   3.571   1.070  0.4381  2.1127 -0.0614
  218MOL0     H29397   2.887   3.624   1.140  3.8786 -0.8261 -0.9494
  218MOL0     H29398   3.002   3.417   1.053  2.2376  0.2299 -3.6587
  218MOL0     H29399   2.869   3.403   0.940 -6.6441  3.2642  1.6964
  218MOL0     H29400   3.008   3.672   0.972 -4.0767  1.2139  0.6970
  218MOL0     H29401   2.906   3.615   0.835  0.1634  0.0918 -0.0803
  218MOL0     H29402   3.061   3.434   0.779 -5.8536 -0.6218  3.7203
  218MOL0     H29403   3.172   3.486   0.902 -1.7487 -0.3806  2.1217
  218MOL0     H29404   3.094   3.662   0.678 -0.8032 -0.6374  0.7072
  218MOL0     H29405   3.224   3.697   0.793 -1.6602  0.4078  0.4106
  218MOL0     H29406   3.292   3.661   0.578  0.4987  1.1801  0.3900
  218MOL0     H29407   3.223   3.497   0.561 -0.2312  3.1899 -1.5380
  218MOL0     H29408   3.386   3.501   0.790  2.6561  2.3350  1.0344
  218MOL0     H29409   3.410   3.398   0.640  2.1377  0.4013 -0.7741
  218MOL0     H29410   2.452   3.445   1.418  0.1570  1.3061 -1.0398
  218MOL0     H29411   2.413   3.302   1.619 -0.5578  1.4241 -1.2503
  218MOL0     H29412   2.687   2.897   1.846  0.0255  0.1003 -0.1085
  218MOL0     H29413   2.651   2.689   1.981 -0.0723 -1.2164 -1.0215
  218MOL0     H29414   1.268   2.113   1.754 -1.2796 -0.9405 -0.8188
  218MOL0     H29415   1.035   2.159   1.665  0.1969 -0.6032  0.4533
  218MOL0     H29416   0.589   2.202   1.809 -1.7811 -2.0374 -0.2748
  218MOL0     H29417   0.363   2.171   1.696  1.1882  0.1455  3.5797
  218MOL0     H29418   0.348   1.984   1.524  2.9957 -0.2552 -0.1969
  218MOL0     H29419   0.390   2.004   1.351 -0.1767 -0.4628 -0.6102
  218MOL0     H29420   0.117   2.075   1.462 -0.0024 -2.1778  1.6989
  218MOL0     H29421   0.162   1.905   1.418 -3.4414  0.2462 -0.2980
  218MOL0     H29422   0.199   1.968   1.190 -1.6446 -2.0982  0.0336
  218MOL0     H29423   0.184   2.145   1.220 -1.0933 -0.4266 -1.6681
  218MOL0     H29424  -0.029   2.106   1.311  0.5472 -1.3399  0.7516
  218MOL0     H29425  -0.023   2.091   1.139  2.6929  0.4964 -0.5200
  218MOL0     H29426  -0.132   1.687   1.241  2.7216 -0.3670  1.5049
  218MOL0     H29427   0.542   2.254   1.324 -1.3974 -2.6551 -0.4267
  218MOL0     H29428   0.887   2.297   1.437 -1.2520  0.5194  2.1686
  218MOL0     H29429   0.778   2.270   1.294 -3.5430 -1.9860  1.6303
  218MOL0     H29430   0.784   2.429   1.369  0.0783  1.4357  2.5768
  219MOL0     O29431   3.068   8.957   6.790 -0.5677 -0.3790  0.4108
  219MOL0     C29432   2.962   8.959   6.726 -0.4901 -0.8637  0.3381
  219MOL0     O29433   2.852   8.880   6.760 -0.5954 -0.0166 -0.3278
  219MOL0     C29434   2.878   8.780   6.843 -1.4511  0.0953 -0.8119
  219MOL0     C29435   2.969   8.680   6.806  0.5069 -1.2908  0.3956
  219MOL0     C29436   3.010   8.586   6.897 -0.1206 -0.3343  0.8420
  219MOL0     C29437   2.951   8.572   7.027  0.3964 -0.4322 -0.0935
  219MOL0     O29438   2.993   8.490   7.127  1.0037  1.4384 -0.1640
  219MOL0     C29439   3.023   8.357   7.073 -0.6195 -0.1032 -0.0713
  219MOL0     C29440   3.059   8.261   7.175  0.3101  0.3601  0.3678
  219MOL0     C29441   2.938   8.219   7.262 -0.1603  0.3789 -0.0751
  219MOL0     C29442   2.975   8.110   7.360  0.2457  0.0094 -0.0890
  219MOL0     C29443   2.950   7.977   7.296 -0.2197 -0.9901 -0.3998
  219MOL0     C29444   3.070   7.901   7.259  0.3992 -0.1901  0.6565
  219MOL0     C29445   3.038   7.766   7.197  0.4938 -0.9182 -0.9488
  219MOL0     C29446   2.968   7.660   7.295  0.2376  0.0009 -0.5284
  219MOL0     N29447   2.933   7.530   7.237 -0.5520 -0.4825  0.6637
  219MOL0     C29448   3.017   7.443   7.174  0.7656 -0.2929  0.9224
  219MOL0     C29449   2.945   7.335   7.129 -0.7978 -0.1036 -0.0512
  219MOL0     C29450   2.990   7.211   7.080 -0.1167  0.6163 -0.7698
  219MOL0     C29451   3.009   7.206   6.920  0.0468 -1.2074  0.6033
  219MOL0     C29452   3.086   7.091   6.869  0.5838 -1.1797 -0.0576
  219MOL0     C29453   3.112   7.110   6.716 -0.5218 -0.1923 -1.0464
  219MOL0     O29454   3.202   7.005   6.673  0.3533 -0.2699 -0.7998
  219MOL0     C29455   3.295   7.023   6.576 -0.1449  0.0914  0.2209
  219MOL0     C29456   3.297   7.131   6.495  0.7359 -0.5158  0.6040
  219MOL0     C29457   3.394   7.158   6.396  0.0164 -0.2219 -0.4489
  219MOL0     C29458   3.490   7.058   6.372  0.2078 -0.5266  0.2304
  219MOL0     C29459   3.596   7.091   6.276 -0.7511 -0.0195 -0.6995
  219MOL0     O29460   3.622   7.227   6.256  0.2387  0.3474  0.2499
  219MOL0     C29461   3.731   7.258   6.175  1.0898  0.5907 -0.5390
  219MOL0     C29462   3.864   7.257   6.222  0.4255 -0.1779  0.1107
  219MOL0     C29463   3.972   7.305   6.153  0.8604 -0.3346  0.1819
  219MOL0     C29464   3.951   7.354   6.020  0.5811  0.7992 -0.3517
  219MOL0     O29465   4.045   7.408   5.937  0.1081  0.4460 -0.1288
  219MOL0     C29466   4.177   7.360   5.961 -0.1174  0.0479  0.6174
  219MOL0     C29467   4.284   7.405   5.867 -0.1908  0.1345  0.0282
  219MOL0     C29468   4.256   7.341   5.732 -0.6248  0.0354  1.2472
  219MOL0     C29469   4.379   7.335   5.651 -0.2318  0.4620 -0.3114
  219MOL0     C29470   4.369   7.236   5.535 -0.2005  0.2867 -0.1471
  219MOL0     C29471   4.466   7.281   5.424 -0.1890 -0.8170  0.1310
  219MOL0     C29472   4.611   7.257   5.451 -0.0387  0.0057  0.8644
  219MOL0     C29473   4.689   7.298   5.326 -0.6147  0.3709 -0.2416
  219MOL0    Cl29474   4.867   7.291   5.371 -0.2432 -0.4157 -0.3804
  219MOL0     C29475   3.818   7.358   5.979  0.0926 -0.0156 -0.9961
  219MOL0     C29476   3.711   7.310   6.057  0.2238 -0.2882 -0.3619
  219MOL0     O29477   3.655   6.992   6.217 -0.2786 -0.0207 -0.0025
  219MOL0     C29478   3.498   6.947   6.460 -0.0652 -0.7322  1.3136
  219MOL0     C29479   3.398   6.926   6.561 -0.0989 -0.0473 -0.1120
  219MOL0     N29480   2.814   7.349   7.176 -0.5670 -0.4096 -0.0719
  219MOL0     N29481   2.811   7.471   7.232  0.2819 -0.6380 -0.7739
  219MOL0     C29482   2.854   8.668   7.063 -0.2406  0.1285 -0.4177
  219MOL0     C29483   2.819   8.766   6.968 -0.6481 -0.4315 -0.4394
  219MOL0     C29484   2.949   9.079   6.638  0.1414  0.2946 -0.2698
  219MOL0     C29485   3.049   9.174   6.624 -0.9032 -0.2709 -0.3830
  219MOL0     C29486   3.045   9.295   6.553  0.3483  0.7216 -0.7175
  219MOL0     C29487   2.930   9.322   6.482 -0.0907  0.0744 -0.0264
  219MOL0     O29488   2.914   9.438   6.403 -0.0264 -0.2083  0.3246
  219MOL0     C29489   3.017   9.531   6.381  0.4177  0.2932 -0.3931
  219MOL0     C29490   3.017   9.637   6.495  1.3130 -0.5202  0.3555
  219MOL0     C29491   3.083   9.774   6.450 -0.0007  0.0732 -0.6937
  219MOL0     C29492   3.133   9.859   6.575 -0.5092  0.9422 -0.2622
  219MOL0     C29493   3.084   9.990   6.581  0.3433 -0.3875  0.2307
  219MOL0     C29494   3.058  10.108   6.589  0.1840  0.2509  0.4039
  219MOL0     C29495   2.824   9.229   6.494 -0.3895 -0.9437  1.5774
  219MOL0     C29496   2.842   9.113   6.566  1.5787  0.3864 -0.0372
  219MOL0     C29497   2.728   9.016   6.543 -1.1084  1.1788 -0.0227
  219MOL0     H29498   3.011   8.697   6.707  0.8168 -0.8883  0.5969
  219MOL0     H29499   3.081   8.510   6.865 -0.1063 -0.9777  2.3167
  219MOL0     H29500   2.938   8.316   7.017  0.7100 -2.0280 -0.7978
  219MOL0     H29501   3.115   8.363   7.014  0.4386  4.2998  1.6488
  219MOL0     H29502   3.126   8.305   7.249  2.8712 -2.0932 -0.3064
  219MOL0     H29503   3.118   8.176   7.139 -0.8591  0.7134 -2.7751
  219MOL0     H29504   2.856   8.207   7.191 -0.3048  4.4221 -0.8046
  219MOL0     H29505   2.913   8.304   7.326  2.8021  1.2404  0.1063
  219MOL0     H29506   3.081   8.109   7.388  0.1458  0.1186  0.2988
  219MOL0     H29507   2.917   8.103   7.453  0.9633 -1.3339  0.2891
  219MOL0     H29508   2.894   7.923   7.373  1.4365 -1.8968  0.2178
  219MOL0     H29509   2.873   7.981   7.219  0.4044  2.7014 -1.0337
  219MOL0     H29510   3.114   7.954   7.174 -2.6014 -1.2380 -1.7212
  219MOL0     H29511   3.141   7.885   7.341  3.8066 -0.5337 -2.1081
  219MOL0     H29512   3.134   7.726   7.162  1.2229 -0.5918  0.5937
  219MOL0     H29513   2.977   7.792   7.110 -0.3397 -0.9764 -0.3866
  219MOL0     H29514   3.037   7.648   7.379  1.3210  2.9460 -0.8485
  219MOL0     H29515   2.874   7.698   7.335 -0.5472 -3.7687  1.7321
  219MOL0     H29516   3.123   7.462   7.167  0.6754 -0.2070 -0.5751
  219MOL0     H29517   3.092   7.201   7.118  0.0448  1.0978 -1.0610
  219MOL0     H29518   2.925   7.128   7.107 -5.1823  3.1737 -3.6228
  219MOL0     H29519   2.907   7.198   6.882 -0.2539  0.8267  0.8723
  219MOL0     H29520   3.052   7.300   6.886 -4.3281  0.8064 -0.0419
  219MOL0     H29521   3.035   6.998   6.894 -0.4666 -1.1110 -1.7946
  219MOL0     H29522   3.183   7.089   6.920  0.6928 -0.8212 -0.2450
  219MOL0     H29523   3.177   7.197   6.705  2.4066 -2.0340  0.5109
  219MOL0     H29524   3.017   7.109   6.661 -0.4619  2.7300 -1.3454
  219MOL0     H29525   3.209   7.194   6.493  0.8552 -0.2309 -3.1390
  219MOL0     H29526   3.388   7.253   6.343 -1.1681  0.1875  0.3628
  219MOL0     H29527   3.874   7.215   6.321  1.6765 -0.5899 -0.1711
  219MOL0     H29528   4.073   7.300   6.194  0.3642 -0.7059  1.4055
  219MOL0     H29529   4.211   7.386   6.062 -0.5419 -3.0977  1.6842
  219MOL0     H29530   4.192   7.251   5.961  1.6337  0.2183 -1.6551
  219MOL0     H29531   4.297   7.512   5.851  0.6378 -0.0804 -0.8795
  219MOL0     H29532   4.381   7.366   5.899  0.1060 -0.1915 -1.2018
  219MOL0     H29533   4.240   7.234   5.747 -0.4837 -0.3301 -0.9183
  219MOL0     H29534   4.172   7.384   5.677  0.3514 -2.3972 -2.5489
  219MOL0     H29535   4.463   7.296   5.710 -1.8497  0.1728  1.9346
  219MOL0     H29536   4.401   7.437   5.619 -1.2118  0.5179 -0.8376
  219MOL0     H29537   4.267   7.235   5.494  0.1566 -4.7694 -1.5642
  219MOL0     H29538   4.389   7.130   5.555  0.4755  0.1947 -1.2266
  219MOL0     H29539   4.445   7.223   5.334 -1.1035 -2.4126  1.3143
  219MOL0     H29540   4.449   7.389   5.416  1.6530 -0.4385  0.8351
  219MOL0     H29541   4.631   7.154   5.481 -2.3870 -1.2853 -1.5685
  219MOL0     H29542   4.648   7.317   5.535 -0.0118  2.3857 -0.7276
  219MOL0     H29543   4.675   7.229   5.243  0.3877  1.1339 -1.0815
  219MOL0     H29544   4.659   7.395   5.283  0.9721  1.0818  0.1794
  219MOL0     H29545   3.801   7.397   5.879  0.5062  1.3825 -0.5476
  219MOL0     H29546   3.613   7.329   6.016  0.4272 -0.8524 -1.1565
  219MOL0     H29547   3.584   6.881   6.453  0.9891  0.6144  0.8569
  219MOL0     H29548   3.398   6.839   6.626  1.2339 -1.1155 -1.4589
  219MOL0     H29549   2.811   8.649   7.161  0.0537 -0.7348 -0.4539
  219MOL0     H29550   2.742   8.840   6.986  0.4161  1.6013 -3.3797
  219MOL0     H29551   3.145   9.167   6.674 -2.3948  2.7643  3.4770
  219MOL0     H29552   3.127   9.365   6.562  0.1316  0.7564  1.4973
  219MOL0     H29553   3.004   9.575   6.282 -1.5144 -0.7643 -0.6612
  219MOL0     H29554   3.117   9.487   6.370  0.7600  1.3507 -1.7790
  219MOL0     H29555   3.079   9.593   6.573  3.2243 -0.2386 -0.9119
  219MOL0     H29556   2.916   9.654   6.532  2.0381  2.2518  1.2678
  219MOL0     H29557   3.004   9.826   6.396 -1.1714 -1.7760 -0.8750
  219MOL0     H29558   3.172   9.759   6.388  0.6770 -1.7001  0.6093
  219MOL0     H29559   3.101   9.804   6.664 -1.2472  0.0650 -1.0417
  219MOL0     H29560   3.241   9.868   6.566 -0.2830 -0.2326  0.9726
  219MOL0     H29561   3.036  10.213   6.586  0.5284  0.2949 -2.1267
  219MOL0     H29562   2.738   9.258   6.434 -0.6839 -0.1978  2.3334
  219MOL0     H29563   2.653   9.041   6.467 -1.7657 -1.5391 -0.3663
  219MOL0     H29564   2.764   8.914   6.532 -1.1119  1.3127 -1.5471
  219MOL0     H29565   2.673   9.000   6.636 -0.8107 -5.5901 -0.5345
  220MOL0     O29566   1.591   4.267   4.617 -0.8072 -0.6247 -0.3609
  220MOL0     C29567   1.640   4.187   4.690  0.2508 -0.0832 -0.0104
  220MOL0     O29568   1.691   4.213   4.812  0.5160 -0.8967 -0.3914
  220MOL0     C29569   1.703   4.345   4.858 -0.2761  0.0989 -0.7782
  220MOL0     C29570   1.772   4.450   4.784 -0.1546  0.1816 -0.3489
  220MOL0     C29571   1.794   4.575   4.846  0.5552  0.0801  0.2559
  220MOL0     C29572   1.772   4.594   4.983  0.6741  0.4678  0.3528
  220MOL0     O29573   1.786   4.709   5.055 -0.0747  0.2909 -0.2151
  220MOL0     C29574   1.843   4.823   4.976 -0.0684  0.5339  0.3698
  220MOL0     C29575   1.831   4.941   5.075 -0.4973  0.3534  0.0057
  220MOL0     C29576   1.699   5.014   5.060 -0.2067 -0.2193 -0.6335
  220MOL0     C29577   1.639   5.061   5.193  0.4930  0.5323 -0.1621
  220MOL0     C29578   1.522   5.156   5.166 -0.7215  0.7628 -0.3935
  220MOL0     C29579   1.460   5.191   5.303 -0.1259  0.1196  0.4170
  220MOL0     C29580   1.321   5.265   5.286  0.0839  0.1832  0.6587
  220MOL0     C29581   1.209   5.176   5.224 -1.2246 -0.6215  0.6430
  220MOL0     N29582   1.212   5.131   5.078 -0.3935 -0.7599 -1.0012
  220MOL0     C29583   1.185   5.222   4.980 -1.0142  0.3541  0.0815
  220MOL0     C29584   1.173   5.153   4.866 -0.3860 -0.3057 -0.2349
  220MOL0     C29585   1.129   5.204   4.738  0.4455  0.8852  0.4611
  220MOL0     C29586   1.252   5.177   4.646 -0.7837  0.0072 -0.1362
  220MOL0     C29587   1.253   5.278   4.539  0.2317  0.6804  0.0482
  220MOL0     C29588   1.343   5.241   4.413  0.4620  0.5271  0.3460
  220MOL0     O29589   1.317   5.096   4.378  0.4956 -0.2155 -1.1542
  220MOL0     C29590   1.223   5.044   4.292 -0.4280 -0.1427 -0.0153
  220MOL0     C29591   1.200   4.912   4.293 -0.0498 -0.1253  1.0213
  220MOL0     C29592   1.107   4.854   4.218  0.4678  0.3756 -0.0900
  220MOL0     C29593   1.018   4.925   4.140  1.4034 -0.0032  0.4933
  220MOL0     C29594   0.925   4.858   4.046 -0.8143 -0.0400 -0.0781
  220MOL0     O29595   0.843   4.936   3.972  0.0576  0.7837  0.1598
  220MOL0     C29596   0.753   4.877   3.887 -0.1579  0.4999 -0.8220
  220MOL0     C29597   0.802   4.808   3.777  0.4689 -0.2813  0.2075
  220MOL0     C29598   0.718   4.769   3.680  0.9539 -0.3234  0.3531
  220MOL0     C29599   0.581   4.790   3.686 -0.0586  0.0574  0.3778
  220MOL0     O29600   0.505   4.722   3.602  0.8698 -0.1695  0.2511
  220MOL0     C29601   0.370   4.778   3.590 -0.9794  0.6884  0.4211
  220MOL0     C29602   0.301   4.752   3.459  0.0237  0.1136  0.3199
  220MOL0     C29603   0.157   4.818   3.443 -1.0372 -0.2059  0.5187
  220MOL0     C29604   0.114   4.791   3.300 -0.5965 -0.2718  0.7089
  220MOL0     C29605  -0.022   4.850   3.284  0.7234  0.3183 -0.0407
  220MOL0     C29606  -0.079   4.822   3.146  0.1345 -0.0138 -0.3286
  220MOL0     C29607  -0.233   4.868   3.129 -0.5815  0.4760 -0.4360
  220MOL0     C29608  -0.275   4.847   2.992 -0.3629 -0.5959  0.2559
  220MOL0    Cl29609  -0.295   4.678   2.942  0.0195  0.4416  0.4703
  220MOL0     C29610   0.529   4.862   3.798 -0.1206 -0.2434 -0.4408
  220MOL0     C29611   0.617   4.902   3.900  0.4358 -1.5243 -0.0379
  220MOL0     O29612   0.938   4.735   4.041 -1.1027  0.5121 -0.6294
  220MOL0     C29613   1.042   5.060   4.116 -0.5290 -0.3827  0.7478
  220MOL0     C29614   1.154   5.112   4.184 -0.1809  0.0727  0.1734
  220MOL0     N29615   1.172   5.027   4.906 -0.2848  0.2520  1.1856
  220MOL0     N29616   1.195   5.005   5.029 -0.4711  0.3911 -0.3331
  220MOL0     C29617   1.713   4.490   5.054  0.0667  0.1474  1.0726
  220MOL0     C29618   1.679   4.371   4.993  0.7765 -0.8085 -0.4314
  220MOL0     C29619   1.643   4.043   4.661 -0.4425  0.4746 -1.2764
  220MOL0     C29620   1.648   3.949   4.771  0.8919 -1.1085  0.1972
  220MOL0     C29621   1.656   3.805   4.751  0.6500  0.5956  0.4269
  220MOL0     C29622   1.667   3.757   4.622  0.2720  0.4580  0.4563
  220MOL0     O29623   1.681   3.622   4.588 -0.3440 -0.4582 -0.2049
  220MOL0     C29624   1.725   3.531   4.694  0.3018 -0.7123  0.1628
  220MOL0     C29625   1.702   3.387   4.656  1.0792 -0.5168  0.0170
  220MOL0     C29626   1.783   3.336   4.536  0.5159 -0.1171 -0.0674
  220MOL0     C29627   1.706   3.336   4.401 -0.6763  0.6021 -0.1553
  220MOL0     C29628   1.592   3.248   4.398  0.1429 -0.5914 -0.2654
  220MOL0     C29629   1.494   3.177   4.387  0.2624  0.6006  0.2663
  220MOL0     C29630   1.673   3.845   4.520 -0.0418 -0.5001 -0.1278
  220MOL0     C29631   1.662   3.986   4.529  0.5616 -0.0948 -0.2260
  220MOL0     C29632   1.650   4.069   4.406 -0.6497  0.0523 -0.4980
  220MOL0     H29633   1.805   4.442   4.681 -3.0353  1.9511 -1.5311
  220MOL0     H29634   1.827   4.658   4.785 -0.3660  1.2244  1.2828
  220MOL0     H29635   1.950   4.803   4.972 -0.1808 -0.0547  0.1392
  220MOL0     H29636   1.803   4.838   4.875 -3.7895 -1.1848  1.3942
  220MOL0     H29637   1.915   5.006   5.051 -1.7722  1.7162 -0.9652
  220MOL0     H29638   1.846   4.907   5.178 -5.1264 -0.7735  0.5405
  220MOL0     H29639   1.629   4.951   5.004  2.0720 -0.3734 -3.5570
  220MOL0     H29640   1.726   5.104   5.003  1.3587  0.7884  1.5680
  220MOL0     H29641   1.614   4.974   5.254  3.0468 -1.1203 -1.3277
  220MOL0     H29642   1.717   5.118   5.244  3.0333 -1.7095 -1.3137
  220MOL0     H29643   1.559   5.250   5.124  1.8954 -0.0202 -0.0432
  220MOL0     H29644   1.460   5.099   5.096 -0.7382 -0.8185  0.8514
  220MOL0     H29645   1.458   5.102   5.366  1.0673 -0.2160  0.0049
  220MOL0     H29646   1.533   5.266   5.336 -0.3054 -0.1566  1.4567
  220MOL0     H29647   1.329   5.360   5.233 -0.4403  0.5805  1.2734
  220MOL0     H29648   1.296   5.283   5.391  2.2721  1.4250  1.0247
  220MOL0     H29649   1.200   5.079   5.275  0.4098 -1.0296  0.2137
  220MOL0     H29650   1.116   5.234   5.222 -0.5284  0.5124  0.5712
  220MOL0     H29651   1.176   5.330   4.987 -2.5891  0.1974  1.0065
  220MOL0     H29652   1.045   5.154   4.689  1.2515 -2.9757  2.5678
  220MOL0     H29653   1.100   5.307   4.758  0.7208  1.4692 -1.8777
  220MOL0     H29654   1.343   5.187   4.706  0.6342 -3.2194 -1.4995
  220MOL0     H29655   1.248   5.072   4.616  0.0179 -0.6317  1.8029
  220MOL0     H29656   1.297   5.366   4.588 -3.2178  2.4819  0.2321
  220MOL0     H29657   1.156   5.297   4.493 -0.2520 -5.4949 -2.4361
  220MOL0     H29658   1.450   5.261   4.430  0.6698 -1.0373  1.0185
  220MOL0     H29659   1.310   5.296   4.324  3.4375  2.0993  0.0523
  220MOL0     H29660   1.248   4.847   4.366  4.2744  1.6474  0.0967
  220MOL0     H29661   1.096   4.747   4.228  0.3407  0.1539 -2.1251
  220MOL0     H29662   0.910   4.797   3.774  0.5089  0.3183 -0.9051
  220MOL0     H29663   0.755   4.702   3.603  2.0047  0.1262  0.4465
  220MOL0     H29664   0.305   4.720   3.657 -0.5902 -1.9546 -1.3346
  220MOL0     H29665   0.380   4.884   3.612  0.6522  0.4570  0.9320
  220MOL0     H29666   0.364   4.794   3.379 -1.7885 -1.0432 -1.8261
  220MOL0     H29667   0.295   4.645   3.438 -0.7369  0.5660 -2.1596
  220MOL0     H29668   0.087   4.774   3.515 -0.0725  2.5070  3.3282
  220MOL0     H29669   0.163   4.927   3.451  0.3813 -0.3628  2.4134
  220MOL0     H29670   0.125   4.683   3.299 -0.3779 -0.2622 -0.5405
  220MOL0     H29671   0.184   4.845   3.235 -1.2639 -0.4255 -0.1546
  220MOL0     H29672  -0.031   4.959   3.291  3.3634  1.2825 -5.8983
  220MOL0     H29673  -0.087   4.798   3.355 -0.0349  1.3855  0.0698
  220MOL0     H29674  -0.013   4.877   3.078 -1.1271  2.6422  0.4656
  220MOL0     H29675  -0.070   4.714   3.133  0.1631 -0.7687  4.4241
  220MOL0     H29676  -0.240   4.969   3.172  0.4224  1.0772 -1.6200
  220MOL0     H29677  -0.297   4.818   3.203 -1.5849  2.0558 -0.1780
  220MOL0     H29678  -0.358   4.916   2.976  0.6950  0.7799  0.4946
  220MOL0     H29679  -0.193   4.875   2.926  0.8371  0.8281  2.2321
  220MOL0     H29680   0.430   4.906   3.805  0.6006  1.4525 -0.3941
  220MOL0     H29681   0.588   4.967   3.982 -2.4095 -0.7620 -1.4916
  220MOL0     H29682   0.991   5.111   4.035  1.6912  0.5109 -0.1629
  220MOL0     H29683   1.165   5.218   4.167 -1.7730  0.1663 -0.4604
  220MOL0     H29684   1.681   4.496   5.158 -0.4936 -2.9794  1.1708
  220MOL0     H29685   1.645   4.287   5.053  2.5002 -2.1530 -1.2497
  220MOL0     H29686   1.638   3.988   4.871  0.9000 -0.7420  0.0571
  220MOL0     H29687   1.668   3.745   4.840 -1.9134  1.2736  1.3165
  220MOL0     H29688   1.680   3.546   4.793 -0.0737  1.1074 -0.2446
  220MOL0     H29689   1.834   3.544   4.704  1.0424 -4.4806 -1.2644
  220MOL0     H29690   1.595   3.373   4.639  0.8888 -2.0402  2.0597
  220MOL0     H29691   1.740   3.321   4.734  3.7315  0.0501 -0.6995
  220MOL0     H29692   1.814   3.237   4.570  2.1763  0.2977 -0.3001
  220MOL0     H29693   1.880   3.382   4.517 -0.3675  1.4899 -0.8966
  220MOL0     H29694   1.665   3.436   4.383  1.1681  1.7762  1.7547
  220MOL0     H29695   1.777   3.321   4.319 -0.5015  0.1044  0.0827
  220MOL0     H29696   1.419   3.103   4.370  2.1169 -0.7555 -2.7793
  220MOL0     H29697   1.687   3.813   4.417 -3.7911 -1.1358 -0.5962
  220MOL0     H29698   1.672   4.008   4.318 -2.0707 -0.8483 -0.2525
  220MOL0     H29699   1.550   4.112   4.397 -1.6296 -1.6054  1.6728
  220MOL0     H29700   1.721   4.153   4.397 -2.1620  1.3631 -0.6354
  221MOL0     O29701   6.684   2.694   3.230 -0.0564  1.1298 -0.3816
  221MOL0     C29702   6.643   2.593   3.177 -0.6154 -0.5065  0.1870
  221MOL0     O29703   6.663   2.465   3.215  0.5315 -0.4913 -1.1509
  221MOL0     C29704   6.770   2.445   3.300  0.0051 -0.2804 -0.2365
  221MOL0     C29705   6.898   2.481   3.264 -0.8942 -0.2753  0.3242
  221MOL0     C29706   7.015   2.459   3.337 -0.0307  0.6531  0.5404
  221MOL0     C29707   7.007   2.376   3.450  0.2701 -0.7972 -0.0491
  221MOL0     O29708   7.123   2.354   3.526 -0.0561 -0.0036  0.0735
  221MOL0     C29709   7.147   2.224   3.563 -0.5421  0.2911  0.2426
  221MOL0     C29710   7.296   2.196   3.571  0.3502 -0.1781  0.0230
  221MOL0     C29711   7.367   2.169   3.431 -0.4941 -0.4374  0.2444
  221MOL0     C29712   7.332   2.276   3.326 -0.2194  1.0362 -1.0026
  221MOL0     C29713   7.403   2.257   3.195 -0.2377 -0.6083  1.0273
  221MOL0     C29714   7.342   2.358   3.087 -0.5283 -0.2489  0.5192
  221MOL0     C29715   7.358   2.508   3.121  1.0529 -0.2167 -0.0287
  221MOL0     C29716   7.499   2.557   3.134  0.5034  0.3252  0.1575
  221MOL0     N29717   7.581   2.540   3.017 -0.0253 -1.2673 -0.0426
  221MOL0     C29718   7.581   2.621   2.895 -0.6641  0.0043 -0.7830
  221MOL0     C29719   7.660   2.551   2.809 -0.8921  0.0044  0.1533
  221MOL0     C29720   7.661   2.585   2.662  0.7278  0.6944  0.8403
  221MOL0     C29721   7.777   2.665   2.623 -0.1544 -0.3143 -0.3750
  221MOL0     C29722   7.918   2.596   2.621  0.0441 -0.1633  0.0057
  221MOL0     C29723   7.927   2.504   2.502  0.9956  0.0405  0.1670
  221MOL0     O29724   8.054   2.442   2.507 -0.2409 -0.3255  1.0331
  221MOL0     C29725   8.078   2.329   2.573 -0.3388 -0.2250 -0.6094
  221MOL0     C29726   8.191   2.266   2.538 -0.4428 -0.0113  0.6908
  221MOL0     C29727   8.212   2.129   2.567 -0.1057 -0.2203  0.2395
  221MOL0     C29728   8.123   2.058   2.655 -0.0181  0.2515  0.1751
  221MOL0     C29729   8.149   1.922   2.704  0.6489 -0.7669  0.4224
  221MOL0     O29730   8.249   1.860   2.630 -0.0964 -0.6837 -0.2232
  221MOL0     C29731   8.280   1.729   2.627  0.5548 -1.1370  1.1045
  221MOL0     C29732   8.309   1.655   2.733  1.2852 -0.1543 -0.5127
  221MOL0     C29733   8.349   1.529   2.734 -1.4274  0.0123 -0.3743
  221MOL0     C29734   8.340   1.460   2.614 -0.2920 -0.0497  1.2671
  221MOL0     O29735   8.352   1.323   2.609  0.4813 -0.2793  0.5349
  221MOL0     C29736   8.290   1.247   2.510 -0.1442 -0.4890  0.4991
  221MOL0     C29737   8.349   1.105   2.542  0.9360 -0.1177 -0.1596
  221MOL0     C29738   8.296   0.982   2.452 -0.2427 -0.0314 -0.2374
  221MOL0     C29739   8.153   0.947   2.484 -0.3241 -0.5452 -0.7040
  221MOL0     C29740   8.127   0.856   2.614 -0.1523 -0.3452  0.5904
  221MOL0     C29741   8.013   0.756   2.596  0.3314  0.3872  0.1235
  221MOL0     C29742   7.870   0.812   2.615 -0.5261 -0.4409  0.4550
  221MOL0     C29743   7.760   0.706   2.616  1.0240 -0.9448  0.2640
  221MOL0    Cl29744   7.618   0.802   2.665  0.0025  0.0878 -0.4351
  221MOL0     C29745   8.314   1.533   2.493 -0.5437 -0.1723 -0.7425
  221MOL0     C29746   8.281   1.667   2.500 -0.2358 -0.2998 -0.6985
  221MOL0     O29747   8.065   1.862   2.775 -0.2397 -0.2123 -0.1396
  221MOL0     C29748   8.011   2.125   2.700  0.5924  0.7256  0.2666
  221MOL0     C29749   7.997   2.255   2.669 -0.0512 -0.2191  1.3212
  221MOL0     N29750   7.708   2.441   2.870  0.9138 -0.2029  0.1177
  221MOL0     N29751   7.665   2.440   2.994 -1.1088 -0.4720 -0.5085
  221MOL0     C29752   6.877   2.340   3.491 -0.7991  0.0196 -0.8481
  221MOL0     C29753   6.763   2.369   3.419  0.9850  0.2405  0.0750
  221MOL0     C29754   6.527   2.600   3.084  0.1473  0.3555 -0.2420
  221MOL0     C29755   6.422   2.687   3.109  0.4859 -0.1787  1.6006
  221MOL0     C29756   6.313   2.701   3.018 -0.0443  0.3528  0.0691
  221MOL0     C29757   6.312   2.635   2.895  0.6362  0.3186  0.7263
  221MOL0     O29758   6.208   2.680   2.812 -0.7228 -0.8866  0.4800
  221MOL0     C29759   6.237   2.691   2.667  0.4506 -0.3155 -0.5999
  221MOL0     C29760   6.177   2.572   2.596  0.6676  0.3536  0.0788
  221MOL0     C29761   6.020   2.560   2.598  0.6293 -1.2769 -0.1680
  221MOL0     C29762   5.968   2.482   2.480 -0.0517 -0.6639  0.5678
  221MOL0     C29763   5.992   2.343   2.497  0.0484  0.1389  0.0544
  221MOL0     C29764   6.016   2.231   2.484 -0.5780  0.3096  0.1608
  221MOL0     C29765   6.420   2.550   2.863  0.7065 -0.5068  0.8650
  221MOL0     C29766   6.521   2.523   2.966  0.7507  0.0683  0.0917
  221MOL0     C29767   6.635   2.429   2.924  0.7644 -0.0140  0.0926
  221MOL0     H29768   6.912   2.536   3.172 -1.3204 -1.6349 -0.5937
  221MOL0     H29769   7.102   2.507   3.292  1.5439 -3.3776 -1.2118
  221MOL0     H29770   7.104   2.213   3.663  1.3628 -2.4335  0.8603
  221MOL0     H29771   7.102   2.160   3.486 -0.7161 -0.5569  1.0435
  221MOL0     H29772   7.304   2.124   3.654 -1.7426 -0.4565  0.0368
  221MOL0     H29773   7.340   2.291   3.603 -1.4442  1.4388 -2.0363
  221MOL0     H29774   7.345   2.071   3.388  1.0701 -0.6467 -0.1186
  221MOL0     H29775   7.474   2.161   3.451  0.4944  2.8295 -2.6324
  221MOL0     H29776   7.226   2.258   3.301 -0.3012 -0.7954  0.4619
  221MOL0     H29777   7.350   2.379   3.357  0.4449  0.1792  1.7181
  221MOL0     H29778   7.512   2.257   3.204  0.1294 -3.6428 -1.4117
  221MOL0     H29779   7.386   2.156   3.156  0.8475 -0.7010  0.7602
  221MOL0     H29780   7.391   2.346   2.990 -0.0054  1.5172  0.5240
  221MOL0     H29781   7.235   2.339   3.077 -0.7904  1.9553 -2.6373
  221MOL0     H29782   7.297   2.526   3.211 -1.5886 -1.0206 -1.5284
  221MOL0     H29783   7.313   2.571   3.044 -0.7112 -0.7919  0.4846
  221MOL0     H29784   7.501   2.659   3.174  2.0946  0.9971 -1.4507
  221MOL0     H29785   7.545   2.501   3.215 -0.8065  0.6735  1.1773
  221MOL0     H29786   7.513   2.701   2.870  0.1667 -0.1729 -4.2341
  221MOL0     H29787   7.642   2.494   2.604  2.1564  0.7248  0.2926
  221MOL0     H29788   7.565   2.635   2.644  0.0276 -1.3968 -1.9733
  221MOL0     H29789   7.763   2.689   2.517  1.7977 -2.0196 -1.1127
  221MOL0     H29790   7.783   2.761   2.673 -0.3975  0.6533 -2.1182
  221MOL0     H29791   7.938   2.538   2.712 -2.1579  0.0675  0.6981
  221MOL0     H29792   7.998   2.670   2.615  1.4783 -1.5372  1.2934
  221MOL0     H29793   7.915   2.551   2.403 -1.0156 -2.7227 -1.0398
  221MOL0     H29794   7.843   2.435   2.494  1.2300 -0.5956  2.4420
  221MOL0     H29795   8.267   2.302   2.470  3.0392 -3.3881  2.4081
  221MOL0     H29796   8.294   2.079   2.516  1.0481 -0.8573  2.6132
  221MOL0     H29797   8.313   1.709   2.828  1.8846  0.0018 -0.6212
  221MOL0     H29798   8.379   1.471   2.821  1.0108 -2.2976 -2.5924
  221MOL0     H29799   8.182   1.249   2.525 -0.0323 -0.1208  1.3297
  221MOL0     H29800   8.320   1.280   2.411 -3.5333  0.8694 -0.2099
  221MOL0     H29801   8.458   1.103   2.543  1.2316  1.2029  5.6538
  221MOL0     H29802   8.311   1.087   2.643 -0.7573 -2.4203 -1.1208
  221MOL0     H29803   8.317   0.994   2.345  2.6404  0.4092  0.2827
  221MOL0     H29804   8.363   0.900   2.480 -1.1844  0.3163  3.5902
  221MOL0     H29805   8.114   0.898   2.394  0.2384 -0.7957 -0.8130
  221MOL0     H29806   8.101   1.040   2.513 -0.9861 -1.4553  1.1649
  221MOL0     H29807   8.119   0.920   2.702  3.3655  0.6117  0.3811
  221MOL0     H29808   8.218   0.796   2.624 -0.5923 -0.9199  1.2468
  221MOL0     H29809   8.025   0.724   2.492  1.5412 -1.6929  0.8400
  221MOL0     H29810   8.010   0.670   2.664 -1.6720 -2.1068 -2.8180
  221MOL0     H29811   7.844   0.881   2.534 -0.7547  1.7619  2.3009
  221MOL0     H29812   7.863   0.867   2.709 -2.1758 -0.4997  0.3854
  221MOL0     H29813   7.747   0.671   2.514  0.3959  0.2036 -0.0784
  221MOL0     H29814   7.779   0.621   2.682  2.3459 -0.5267  0.4539
  221MOL0     H29815   8.333   1.496   2.392  0.2807  1.7502 -1.3314
  221MOL0     H29816   8.258   1.735   2.419 -0.0716  1.7730  0.9034
  221MOL0     H29817   7.934   2.086   2.767 -1.0539 -0.7863 -2.3441
  221MOL0     H29818   7.905   2.304   2.700 -0.4342 -1.2401  1.8648
  221MOL0     H29819   6.867   2.289   3.586  0.0635  0.6975 -0.3800
  221MOL0     H29820   6.671   2.322   3.452 -0.0781 -1.1589 -4.2601
  221MOL0     H29821   6.433   2.753   3.194 -0.5939  1.3118  0.6208
  221MOL0     H29822   6.244   2.785   3.021  0.1519  0.5901 -1.5016
  221MOL0     H29823   6.346   2.685   2.652  0.5023 -0.9640 -0.0491
  221MOL0     H29824   6.202   2.784   2.622  0.4116 -1.9940 -4.4270
  221MOL0     H29825   6.198   2.482   2.655 -1.0648  0.8111  1.5138
  221MOL0     H29826   6.223   2.550   2.500 -1.3240 -2.4801 -0.3656
  221MOL0     H29827   5.974   2.659   2.603  0.5803 -1.3157  0.1628
  221MOL0     H29828   5.993   2.512   2.692  1.3742  2.0310  1.9129
  221MOL0     H29829   5.860   2.496   2.474 -0.1315 -1.6413 -2.0482
  221MOL0     H29830   6.028   2.510   2.393  0.3891 -2.4275  0.2656
  221MOL0     H29831   6.038   2.127   2.475 -2.8849 -0.3174  1.2004
  221MOL0     H29832   6.422   2.507   2.764  0.1248  2.2441 -0.4343
  221MOL0     H29833   6.728   2.488   2.923 -1.2776  3.5794  1.6957
  221MOL0     H29834   6.641   2.351   2.999 -0.2388  0.8900  1.1472
  221MOL0     H29835   6.620   2.390   2.823  2.1167 -0.7546  0.1512
  222MOL0     O29836   1.448   0.442   0.839 -0.1294  0.7432  0.0631
  222MOL0     C29837   1.561   0.496   0.844  0.3574 -0.0627  0.0493
  222MOL0     O29838   1.640   0.496   0.959  0.6079  0.1536  0.1865
  222MOL0     C29839   1.601   0.420   1.066  0.6738 -0.1124 -0.0081
  222MOL0     C29840   1.597   0.488   1.186  0.2403 -0.4003  0.5429
  222MOL0     C29841   1.576   0.426   1.310 -0.2834  0.3062  0.2688
  222MOL0     C29842   1.538   0.291   1.312 -0.3757  0.5784 -0.2036
  222MOL0     O29843   1.507   0.224   1.426 -0.0905 -0.3799 -0.6939
  222MOL0     C29844   1.541   0.085   1.426 -0.4061 -0.8515  0.1290
  222MOL0     C29845   1.420  -0.005   1.391  0.5128 -0.7887  0.4499
  222MOL0     C29846   1.457  -0.156   1.402 -1.3357 -0.5123 -0.3870
  222MOL0     C29847   1.439  -0.224   1.538  0.2963  0.9218 -0.7301
  222MOL0     C29848   1.440  -0.380   1.521  0.2369  0.8110 -0.6327
  222MOL0     C29849   1.460  -0.449   1.659  0.4536  0.6944  0.6123
  222MOL0     C29850   1.465  -0.601   1.643  0.0315 -0.9108  0.3225
  222MOL0     C29851   1.410  -0.671   1.770 -0.1788 -0.0316 -0.2726
  222MOL0     N29852   1.416  -0.820   1.757  0.1322  0.4925  0.1168
  222MOL0     C29853   1.347  -0.896   1.662  0.2467  1.4552 -0.4873
  222MOL0     C29854   1.388  -1.021   1.696 -0.0351  0.3900  0.2530
  222MOL0     C29855   1.350  -1.148   1.618 -0.2419 -1.1394  0.0311
  222MOL0     C29856   1.215  -1.210   1.654 -0.5146  0.0094 -0.0299
  222MOL0     C29857   1.100  -1.169   1.560 -0.6661 -0.2369 -0.0507
  222MOL0     C29858   1.092  -1.240   1.424  0.4372 -0.3671  0.4384
  222MOL0     O29859   1.064  -1.378   1.435 -0.0555  0.2809  0.3982
  222MOL0     C29860   1.046  -1.456   1.327  0.2606  0.2560  0.7641
  222MOL0     C29861   1.051  -1.589   1.365  0.1200  1.2160  0.0686
  222MOL0     C29862   1.018  -1.687   1.266 -0.2900 -0.0545  0.1931
  222MOL0     C29863   0.977  -1.657   1.136 -0.9095 -0.4109  0.7080
  222MOL0     C29864   0.916  -1.762   1.045  0.3837 -0.0728  0.2916
  222MOL0     O29865   0.877  -1.721   0.925 -0.1390 -0.0203  0.8229
  222MOL0     C29866   0.865  -1.797   0.816 -0.1876  0.1430 -0.3995
  222MOL0     C29867   0.907  -1.725   0.703 -0.1504 -0.3998  0.4502
  222MOL0     C29868   0.907  -1.788   0.578 -0.3123  0.5673 -0.5375
  222MOL0     C29869   0.880  -1.925   0.569  0.2097  0.1354 -0.2413
  222MOL0     O29870   0.891  -1.988   0.454  0.4882  0.5304 -0.1316
  222MOL0     C29871   0.769  -2.046   0.412 -0.4750 -0.0777 -0.7653
  222MOL0     C29872   0.758  -2.032   0.270 -0.0725  0.4943 -0.1972
  222MOL0     C29873   0.624  -2.071   0.212 -0.2120 -0.8974 -0.6067
  222MOL0     C29874   0.518  -1.967   0.240 -0.8074  0.7802 -0.3603
  222MOL0     C29875   0.389  -2.004   0.162  0.6711 -0.5044  0.2659
  222MOL0     C29876   0.309  -2.115   0.223 -0.4490  0.8021  0.2392
  222MOL0     C29877   0.189  -2.165   0.151  0.5342 -1.1034  0.3721
  222MOL0     C29878   0.093  -2.051   0.098 -0.5208 -1.3660 -0.0644
  222MOL0    Cl29879   0.049  -1.937   0.230  0.3332  0.0066 -0.3527
  222MOL0     C29880   0.827  -1.987   0.685 -0.5041  0.8551 -0.6445
  222MOL0     C29881   0.827  -1.923   0.808  1.3780  0.2043  0.3937
  222MOL0     O29882   0.932  -1.881   1.079 -0.4217 -1.2002  0.3112
  222MOL0     C29883   0.989  -1.515   1.092 -0.0960 -0.4643 -0.1077
  222MOL0     C29884   1.015  -1.420   1.185 -0.1598  0.5358  0.0203
  222MOL0     N29885   1.470  -1.016   1.806  0.2752 -0.2941  0.2167
  222MOL0     N29886   1.495  -0.896   1.837 -0.3774 -0.5488 -0.5845
  222MOL0     C29887   1.545   0.227   1.186 -0.0344  0.6548  0.1865
  222MOL0     C29888   1.572   0.288   1.063 -0.4610  0.3909 -0.6012
  222MOL0     C29889   1.629   0.547   0.717  0.6567 -0.2821 -0.6208
  222MOL0     C29890   1.739   0.623   0.727 -0.2980 -0.7679  0.2861
  222MOL0     C29891   1.819   0.656   0.622 -0.4857  0.4060  1.1193
  222MOL0     C29892   1.788   0.614   0.492  0.8509 -0.5564  0.6318
  222MOL0     O29893   1.863   0.622   0.377 -0.8013 -0.1769 -0.4811
  222MOL0     C29894   1.987   0.703   0.386  0.1900  0.8895 -0.3068
  222MOL0     C29895   2.035   0.720   0.240 -1.1400  0.1233  0.6669
  222MOL0     C29896   2.136   0.610   0.194  0.5121 -0.9522  0.8276
  222MOL0     C29897   2.173   0.661   0.044 -0.2407 -0.1186 -0.2814
  222MOL0     C29898   2.288   0.602  -0.015  0.0315  0.1259 -0.6384
  222MOL0     C29899   2.376   0.540  -0.069 -0.7244  0.2286  0.4001
  222MOL0     C29900   1.669   0.555   0.474  0.0633 -1.6663 -0.7354
  222MOL0     C29901   1.586   0.524   0.583  0.0380  0.7495 -0.7642
  222MOL0     C29902   1.454   0.459   0.547  0.2222 -0.5224  0.0726
  222MOL0     H29903   1.626   0.593   1.185 -3.0709  0.6686  1.9455
  222MOL0     H29904   1.581   0.484   1.402  1.8721 -1.1636  1.1435
  222MOL0     H29905   1.620   0.063   1.354 -1.4748 -0.7950 -1.0966
  222MOL0     H29906   1.570   0.067   1.530 -4.4122  3.0763  2.3109
  222MOL0     H29907   1.376  -0.001   1.291 -1.2768  0.3861  1.2357
  222MOL0     H29908   1.346   0.020   1.468  1.4981 -0.3092  1.2640
  222MOL0     H29909   1.557  -0.180   1.364 -0.3199  2.7431 -0.0930
  222MOL0     H29910   1.377  -0.204   1.345 -0.2473 -1.2589 -1.3462
  222MOL0     H29911   1.510  -0.216   1.621 -0.6807  2.2422  0.0135
  222MOL0     H29912   1.340  -0.195   1.574  0.8402  1.7298  0.1751
  222MOL0     H29913   1.346  -0.426   1.490 -1.1577  1.0340  2.8353
  222MOL0     H29914   1.524  -0.405   1.455 -0.6716  1.5555 -2.1093
  222MOL0     H29915   1.553  -0.415   1.704  0.9284  1.2378 -0.7313
  222MOL0     H29916   1.368  -0.422   1.712 -1.4708  0.6065 -2.4201
  222MOL0     H29917   1.570  -0.628   1.629  0.1501  0.6653 -2.4053
  222MOL0     H29918   1.405  -0.619   1.553 -0.6150 -3.0944  1.1223
  222MOL0     H29919   1.475  -0.642   1.853 -0.3002  2.1176 -0.8468
  222MOL0     H29920   1.306  -0.641   1.787  0.4646  1.5287  1.3003
  222MOL0     H29921   1.272  -0.858   1.593  0.1255  0.4216 -0.9467
  222MOL0     H29922   1.357  -1.119   1.513 -1.0981 -1.2654 -0.0694
  222MOL0     H29923   1.421  -1.230   1.631  0.8946 -0.2321 -0.3609
  222MOL0     H29924   1.211  -1.318   1.642 -3.2393  0.4102 -6.5341
  222MOL0     H29925   1.196  -1.178   1.757 -3.4704 -0.6919 -0.2676
  222MOL0     H29926   1.090  -1.061   1.547  2.8855  0.2052 -0.1292
  222MOL0     H29927   1.005  -1.203   1.602 -0.7355 -0.2006 -0.1787
  222MOL0     H29928   1.181  -1.224   1.361 -2.4945  2.0195 -3.6268
  222MOL0     H29929   1.015  -1.187   1.368 -0.4387 -0.6761  1.3299
  222MOL0     H29930   1.067  -1.626   1.466 -0.3861 -0.1858 -0.3450
  222MOL0     H29931   1.026  -1.790   1.299 -4.6611 -0.1657  1.4429
  222MOL0     H29932   0.942  -1.624   0.723  0.1579  0.0691 -2.0803
  222MOL0     H29933   0.909  -1.730   0.486  0.2627  0.4692 -0.5904
  222MOL0     H29934   0.760  -2.151   0.443 -0.2281  0.3210  0.7675
  222MOL0     H29935   0.684  -1.992   0.456 -1.6923 -0.2200 -2.8410
  222MOL0     H29936   0.804  -1.943   0.227 -0.2670 -1.1781 -4.4255
  222MOL0     H29937   0.827  -2.100   0.218  0.8345  2.2850 -1.4321
  222MOL0     H29938   0.637  -2.074   0.104  0.6477 -0.6063 -0.5201
  222MOL0     H29939   0.591  -2.170   0.247 -1.5752  0.1969  1.4121
  222MOL0     H29940   0.562  -1.871   0.210 -0.8052  0.8102 -0.2599
  222MOL0     H29941   0.500  -1.968   0.348  2.1426 -3.6983  0.3794
  222MOL0     H29942   0.405  -2.043   0.061 -1.4264  1.5070 -0.9521
  222MOL0     H29943   0.321  -1.918   0.166  1.8653  0.4404  3.5744
  222MOL0     H29944   0.375  -2.202   0.217 -0.5555  0.7845 -0.8989
  222MOL0     H29945   0.296  -2.111   0.332  1.7986 -4.6962  1.0117
  222MOL0     H29946   0.135  -2.239   0.211  1.5289 -2.0194  0.1723
  222MOL0     H29947   0.224  -2.216   0.060 -1.5285  1.0076 -1.7779
  222MOL0     H29948   0.152  -1.988   0.031 -4.0761  1.0907 -1.1758
  222MOL0     H29949   0.014  -2.107   0.047 -0.6627 -0.6082 -0.6979
  222MOL0     H29950   0.798  -2.091   0.677 -1.2917  1.1132 -1.2407
  222MOL0     H29951   0.788  -1.968   0.898 -2.6522  0.4995 -0.9942
  222MOL0     H29952   0.972  -1.474   0.993 -0.0400  0.9388  0.4463
  222MOL0     H29953   1.007  -1.320   1.143 -0.5247  0.7351  0.5508
  222MOL0     H29954   1.525   0.121   1.172 -0.1130  0.3603  2.2464
  222MOL0     H29955   1.599   0.223   0.980  3.3823 -1.5256  1.8573
  222MOL0     H29956   1.777   0.649   0.825 -1.7066 -0.5911  0.8124
  222MOL0     H29957   1.913   0.704   0.646  1.0176 -1.3353 -0.9455
  222MOL0     H29958   2.061   0.645   0.443 -0.3409  1.6008  1.1521
  222MOL0     H29959   1.974   0.797   0.439  0.0888  0.5131  0.3480
  222MOL0     H29960   2.092   0.814   0.238 -0.8055 -0.0841  0.5617
  222MOL0     H29961   1.943   0.737   0.184 -1.9285  4.7390  2.8274
  222MOL0     H29962   2.093   0.511   0.175  2.2343 -1.3718 -1.3354
  222MOL0     H29963   2.219   0.595   0.262  1.0872  2.4583  1.0334
  222MOL0     H29964   2.099   0.635  -0.033 -0.1380 -1.4718  0.0600
  222MOL0     H29965   2.195   0.768   0.038  0.0595 -0.2353 -1.7634
  222MOL0     H29966   2.439   0.482  -0.133 -1.9845 -0.8720  0.1126
  222MOL0     H29967   1.632   0.515   0.380 -1.1781  0.4102 -1.1935
  222MOL0     H29968   1.441   0.448   0.439 -0.5092  2.4041 -0.2045
  222MOL0     H29969   1.443   0.360   0.593 -2.1287  0.6880  2.3253
  222MOL0     H29970   1.365   0.514   0.579  0.1593  1.2477 -2.7546
  223MOL0     O29971   9.112  11.284   3.368 -0.2150  0.3230  0.1975
  223MOL0     C29972   9.193  11.201   3.407  0.7107  0.5456 -0.4512
  223MOL0     O29973   9.327  11.189   3.370  0.3211  0.2807 -0.0683
  223MOL0     C29974   9.376  11.260   3.262  0.4348  0.6100 -0.6557
  223MOL0     C29975   9.303  11.263   3.136  0.1918 -0.3994 -0.5764
  223MOL0     C29976   9.347  11.351   3.030  0.1641  0.9851  0.5831
  223MOL0     C29977   9.473  11.416   3.049  0.1472 -0.3974 -0.0794
  223MOL0     O29978   9.524  11.498   2.958  0.0135  0.6120  0.2867
  223MOL0     C29979   9.516  11.448   2.821 -0.6037  0.1961  1.6568
  223MOL0     C29980   9.563  11.552   2.709  0.5921  0.0633  0.2702
  223MOL0     C29981   9.712  11.584   2.712  0.6291  0.3765 -0.6078
  223MOL0     C29982   9.756  11.697   2.612 -0.3761  0.0439 -0.0708
  223MOL0     C29983   9.720  11.674   2.466  0.9177 -0.0166 -0.3186
  223MOL0     C29984   9.813  11.755   2.360  0.5772  0.2566 -0.1051
  223MOL0     C29985   9.803  11.717   2.208 -0.1623  0.3324 -0.1542
  223MOL0     C29986   9.851  11.584   2.164 -0.7711 -0.0572 -0.1041
  223MOL0     N29987   9.785  11.565   2.026  0.4986  0.1483 -0.6868
  223MOL0     C29988   9.850  11.590   1.907 -0.5356  0.0710 -0.6764
  223MOL0     C29989   9.748  11.567   1.815  0.4462 -0.0321  0.1991
  223MOL0     C29990   9.752  11.594   1.669  0.5904  0.6242 -0.6793
  223MOL0     C29991   9.886  11.652   1.622  0.0998  0.5098 -1.3258
  223MOL0     C29992   9.999  11.555   1.619  0.1500  0.2898 -0.3412
  223MOL0     C29993   9.988  11.452   1.498 -0.0147 -0.4251 -0.0557
  223MOL0     O29994  10.110  11.378   1.481  1.0684  0.6825 -0.6759
  223MOL0     C29995  10.118  11.258   1.552  0.4032  0.1449 -0.2225
  223MOL0     C29996  10.055  11.207   1.669 -0.2263  0.8205  0.3988
  223MOL0     C29997  10.060  11.072   1.709 -0.0824  1.0601  0.0693
  223MOL0     C29998  10.133  10.978   1.636  0.1980 -0.2710 -0.4125
  223MOL0     C29999  10.141  10.833   1.682  0.7077  0.3048 -0.6320
  223MOL0     O30000  10.077  10.793   1.796 -0.5867  0.4768 -0.0395
  223MOL0     C30001  10.052  10.670   1.843 -0.5148 -0.9094  0.0148
  223MOL0     C30002  10.068  10.650   1.980 -0.1930  0.6101  0.8221
  223MOL0     C30003  10.053  10.519   2.027 -0.1601  0.1503  0.5111
  223MOL0     C30004  10.000  10.419   1.945  0.1433 -0.5641 -0.0302
  223MOL0     O30005   9.983  10.283   1.988  0.1973 -0.8057  0.0314
  223MOL0     C30006   9.954  10.250   2.123 -0.5870  0.7840  0.2058
  223MOL0     C30007  10.082  10.173   2.173 -0.4131 -0.1453  0.3960
  223MOL0     C30008  10.099  10.186   2.329 -0.2782  0.2946 -0.1174
  223MOL0     C30009  10.223  10.110   2.363  0.5251 -0.2363 -0.1515
  223MOL0     C30010  10.247  10.090   2.515 -0.0616  0.5743  0.5944
  223MOL0     C30011  10.373   9.993   2.541 -0.2722  0.0949  0.2535
  223MOL0     C30012  10.395   9.993   2.688  0.3479 -0.2954 -0.0505
  223MOL0     C30013  10.548  10.003   2.721  0.3428  0.7734 -0.7732
  223MOL0    Cl30014  10.624   9.861   2.628 -0.5967  0.0636 -0.1417
  223MOL0     C30015   9.977  10.452   1.814 -0.0529  0.1957  0.2778
  223MOL0     C30016  10.005  10.570   1.757 -0.2489 -0.4510 -0.4712
  223MOL0     O30017  10.211  10.764   1.614  0.0239 -0.0455  0.4590
  223MOL0     C30018  10.200  11.023   1.523 -0.9224 -0.7016  0.5350
  223MOL0     C30019  10.202  11.163   1.493  0.0542 -1.0289 -0.3278
  223MOL0     N30020   9.635  11.525   1.883  0.0671  0.3064  0.0634
  223MOL0     N30021   9.657  11.537   2.010 -0.1465  0.1265  0.2151
  223MOL0     C30022   9.540  11.412   3.170 -0.4893  0.0450  0.4314
  223MOL0     C30023   9.494  11.327   3.266  0.2561  0.6561 -0.5152
  223MOL0     C30024   9.138  11.110   3.512  1.8461 -0.1542  0.1128
  223MOL0     C30025   9.194  10.981   3.509  0.5190 -0.1221 -0.1289
  223MOL0     C30026   9.152  10.878   3.593 -0.3050  0.4501 -0.4073
  223MOL0     C30027   9.047  10.901   3.684  0.5853  0.5694 -0.0220
  223MOL0     O30028   9.028  10.804   3.776 -0.2565  0.1065 -0.8620
  223MOL0     C30029   8.915  10.794   3.870 -0.4673 -0.0198  0.8594
  223MOL0     C30030   8.875  10.654   3.887  0.0545  0.6156 -0.3048
  223MOL0     C30031   8.810  10.604   3.765  0.6051 -0.1975  0.1808
  223MOL0     C30032   8.762  10.461   3.788  0.9532 -0.1401 -0.0617
  223MOL0     C30033   8.704  10.419   3.654 -0.8131 -0.9614 -0.6293
  223MOL0     C30034   8.656  10.386   3.553  0.1045  0.8087  0.6732
  223MOL0     C30035   8.977  11.025   3.688 -0.0422  0.5698  0.2557
  223MOL0     C30036   9.028  11.138   3.600 -0.5854  0.6595 -0.2434
  223MOL0     C30037   8.953  11.266   3.610  0.2917 -0.6839  0.8670
  223MOL0     H30038   9.206  11.218   3.119 -1.5163  2.5927  0.4697
  223MOL0     H30039   9.294  11.344   2.936  1.1878 -2.1943  0.1343
  223MOL0     H30040   9.582  11.361   2.814  1.9650  1.9611  2.4928
  223MOL0     H30041   9.411  11.438   2.793 -0.3631 -1.2515  1.1787
  223MOL0     H30042   9.509  11.646   2.726 -1.5453 -1.2425  1.1208
  223MOL0     H30043   9.524  11.527   2.610  0.4924  0.3079  0.2467
  223MOL0     H30044   9.764  11.488   2.699 -2.2811 -1.4365  0.1900
  223MOL0     H30045   9.743  11.612   2.813 -0.2642  1.1355 -0.5322
  223MOL0     H30046   9.725  11.796   2.645  1.5155  0.6705 -0.0716
  223MOL0     H30047   9.865  11.703   2.611 -0.2349 -1.7674 -0.3858
  223MOL0     H30048   9.733  11.567   2.446  0.7867 -0.0788 -0.0723
  223MOL0     H30049   9.616  11.699   2.445 -0.5661 -4.5550  0.5699
  223MOL0     H30050   9.789  11.862   2.360  0.1320  0.1604  0.1040
  223MOL0     H30051   9.915  11.734   2.394  0.3619 -1.0901 -0.2386
  223MOL0     H30052   9.862  11.787   2.148  1.2244 -0.6869 -0.0258
  223MOL0     H30053   9.700  11.731   2.172 -0.0484  1.5981 -0.0559
  223MOL0     H30054   9.960  11.572   2.167 -0.8747 -1.5441  4.1929
  223MOL0     H30055   9.831  11.501   2.232 -1.9413  1.2348  1.1803
  223MOL0     H30056   9.940  11.646   1.884 -1.5084  1.4949 -1.2373
  223MOL0     H30057   9.709  11.505   1.623  1.0946  0.6147 -1.1415
  223MOL0     H30058   9.667  11.659   1.649 -1.7166 -1.8223  0.5716
  223MOL0     H30059   9.865  11.691   1.522 -0.7465  1.2351 -0.8841
  223MOL0     H30060   9.911  11.735   1.688 -2.4842  1.2974 -1.2293
  223MOL0     H30061  10.011  11.498   1.712 -0.6179 -1.6834 -1.4128
  223MOL0     H30062  10.093  11.609   1.604  0.0322 -0.2847 -3.8943
  223MOL0     H30063   9.954  11.508   1.411 -2.3065  0.5909  1.3938
  223MOL0     H30064   9.897  11.393   1.513 -0.3887  0.0924 -0.2220
  223MOL0     H30065   9.988  11.275   1.721  1.2904  0.1156  3.5265
  223MOL0     H30066  10.002  11.035   1.793 -1.0117 -1.4987 -1.5587
  223MOL0     H30067  10.111  10.726   2.043  0.5819 -0.0150  1.0570
  223MOL0     H30068  10.080  10.506   2.132 -2.4918  4.4524  1.8859
  223MOL0     H30069   9.934  10.337   2.186  1.2448  1.3095  0.1167
  223MOL0     H30070   9.881  10.169   2.120  1.3485 -1.0350 -0.5521
  223MOL0     H30071  10.077  10.067   2.150 -0.4691 -1.0921  4.1426
  223MOL0     H30072  10.165  10.224   2.122  0.4928 -2.0996 -0.1669
  223MOL0     H30073  10.117  10.287   2.365 -1.9650 -0.4339  3.1382
  223MOL0     H30074  10.012  10.154   2.388 -0.2139  1.5682  0.7148
  223MOL0     H30075  10.311  10.155   2.317 -1.5638  2.6699 -1.6103
  223MOL0     H30076  10.223  10.007   2.325 -2.5138 -1.3669  2.3784
  223MOL0     H30077  10.159  10.035   2.549 -0.1934 -0.6585 -1.5904
  223MOL0     H30078  10.246  10.179   2.579 -2.3301 -0.1671  1.7031
  223MOL0     H30079  10.358   9.893   2.501  1.0779  0.4402 -1.2282
  223MOL0     H30080  10.465  10.038   2.502  1.2361 -1.3863  1.9360
  223MOL0     H30081  10.363   9.894   2.721 -1.7671 -0.4198 -2.2067
  223MOL0     H30082  10.336  10.072   2.735 -2.5768 -0.7170 -2.6473
  223MOL0     H30083  10.595  10.096   2.687  3.8904 -0.2957  0.7230
  223MOL0     H30084  10.564   9.988   2.828 -1.9361  0.4402 -0.4299
  223MOL0     H30085   9.946  10.373   1.746 -3.0310  0.0812  1.6184
  223MOL0     H30086   9.989  10.580   1.650  0.6091 -0.8022 -0.6369
  223MOL0     H30087  10.275  10.960   1.477 -1.7619 -3.6038  2.8212
  223MOL0     H30088  10.269  11.189   1.411  0.0329 -2.3044 -0.7642
  223MOL0     H30089   9.639  11.457   3.176 -0.4587  1.0877 -3.9675
  223MOL0     H30090   9.548  11.297   3.355  0.3179 -4.0751 -1.8898
  223MOL0     H30091   9.276  10.946   3.446 -0.2767 -3.1994  0.3864
  223MOL0     H30092   9.200  10.781   3.601 -4.7876 -2.0450 -0.5326
  223MOL0     H30093   8.828  10.852   3.839  1.4969  2.5418 -0.2169
  223MOL0     H30094   8.942  10.828   3.970  0.8096  1.4785  0.0465
  223MOL0     H30095   8.819  10.640   3.980  1.8017  0.5191  0.7980
  223MOL0     H30096   8.963  10.591   3.905  0.7038  1.9589  1.4642
  223MOL0     H30097   8.880  10.607   3.680 -0.1641 -0.7065 -0.4968
  223MOL0     H30098   8.722  10.663   3.739 -0.0438 -1.2686 -0.1179
  223MOL0     H30099   8.843  10.391   3.809  0.0221 -1.2624 -0.1352
  223MOL0     H30100   8.683  10.444   3.862 -1.7201 -3.9795 -3.3925
  223MOL0     H30101   8.613  10.344   3.464  0.3811 -0.6964  1.2362
  223MOL0     H30102   8.893  11.036   3.756 -1.3303  2.0988 -1.4827
  223MOL0     H30103   8.917  11.295   3.511  2.3819  1.6641  0.6969
  223MOL0     H30104   8.860  11.256   3.667 -0.5898 -1.0556 -0.6137
  223MOL0     H30105   9.024  11.343   3.643 -0.7354  1.0951 -0.8360
  224MOL0     O30106   5.580   6.550   5.487 -1.3132 -0.0007 -0.4556
  224MOL0     C30107   5.519   6.637   5.548 -0.2250  0.0520 -0.1907
  224MOL0     O30108   5.547   6.661   5.678  0.2618 -0.0593  0.6394
  224MOL0     C30109   5.608   6.566   5.752  0.6535 -0.1139 -0.2877
  224MOL0     C30110   5.534   6.477   5.825  0.2212  0.1563 -0.7362
  224MOL0     C30111   5.595   6.364   5.890 -0.0177 -0.4072 -0.0432
  224MOL0     C30112   5.731   6.349   5.882 -0.2451 -0.0048 -1.1574
  224MOL0     O30113   5.803   6.255   5.936  0.1596  0.2193 -0.7737
  224MOL0     C30114   5.736   6.127   5.971  0.3458 -0.5065  0.5813
  224MOL0     C30115   5.690   6.132   6.120 -0.5527 -0.2134 -0.1272
  224MOL0     C30116   5.811   6.102   6.212  0.3120 -0.6663 -0.5892
  224MOL0     C30117   5.772   6.121   6.362 -0.4001  0.6334 -0.3378
  224MOL0     C30118   5.888   6.105   6.455 -0.7514  0.4894 -0.3306
  224MOL0     C30119   5.952   5.966   6.457  0.5061 -0.1817 -0.1533
  224MOL0     C30120   6.063   5.965   6.554  0.5186  0.5822  0.2424
  224MOL0     C30121   6.134   5.829   6.552  0.2410  0.0617  0.4683
  224MOL0     N30122   6.221   5.808   6.669  0.9572  0.0753  0.5997
  224MOL0     C30123   6.207   5.829   6.802  0.2570  0.4195  0.5876
  224MOL0     C30124   6.315   5.789   6.865  0.1724  0.2815 -0.4890
  224MOL0     C30125   6.342   5.805   7.016 -0.6005 -0.7511 -0.6462
  224MOL0     C30126   6.493   5.798   7.049  0.8814 -0.6700 -0.8352
  224MOL0     C30127   6.527   5.877   7.175 -0.2697  0.4872  0.4252
  224MOL0     C30128   6.678   5.865   7.196 -0.3591 -0.1334  1.2485
  224MOL0     O30129   6.727   5.924   7.319 -1.2608  0.0395 -0.0762
  224MOL0     C30130   6.864   5.885   7.353 -0.5281  0.6548 -0.0240
  224MOL0     C30131   6.922   5.972   7.448  1.4953  0.1453  0.2125
  224MOL0     C30132   7.054   5.967   7.480  0.2188 -0.5693  0.2542
  224MOL0     C30133   7.139   5.885   7.412 -0.4393 -1.2614  0.5326
  224MOL0     C30134   7.284   5.891   7.437  0.0442 -0.9433  0.7184
  224MOL0     O30135   7.343   5.770   7.414  0.6859  0.5546 -0.0724
  224MOL0     C30136   7.478   5.747   7.422  0.1767  0.2982  0.0639
  224MOL0     C30137   7.526   5.625   7.369 -0.1671  0.3664  0.3282
  224MOL0     C30138   7.662   5.596   7.351  0.7695 -0.5809  0.0201
  224MOL0     C30139   7.756   5.703   7.372  0.4198  0.7211 -0.2045
  224MOL0     O30140   7.892   5.698   7.363  0.3362 -0.1361  0.3411
  224MOL0     C30141   7.958   5.574   7.360  0.5240  0.5572 -0.3645
  224MOL0     C30142   8.095   5.572   7.432  0.7245 -0.8285 -0.1241
  224MOL0     C30143   8.201   5.657   7.362 -0.1916  0.2865  1.4361
  224MOL0     C30144   8.342   5.609   7.402 -0.1729 -0.1462 -0.2344
  224MOL0     C30145   8.457   5.681   7.326  1.0693  0.4180  0.9245
  224MOL0     C30146   8.585   5.613   7.362 -0.5790  0.6014 -0.8202
  224MOL0     C30147   8.714   5.695   7.328  1.1484  0.6518 -0.5499
  224MOL0     C30148   8.842   5.612   7.319  0.8641 -0.5865 -1.0027
  224MOL0    Cl30149   8.906   5.557   7.483 -0.4486  0.3299 -0.2807
  224MOL0     C30150   7.713   5.832   7.427  0.2566 -0.1824 -0.2390
  224MOL0     C30151   7.579   5.849   7.456 -0.1037 -0.3052  0.3521
  224MOL0     O30152   7.328   5.990   7.492  0.5658  0.6483 -0.4033
  224MOL0     C30153   7.088   5.790   7.324 -0.1290  0.4720 -0.6646
  224MOL0     C30154   6.946   5.788   7.300 -0.4278 -0.4524 -0.3336
  224MOL0     N30155   6.400   5.737   6.765 -0.1427  0.4855  0.1308
  224MOL0     N30156   6.336   5.746   6.652 -0.0367 -0.4258 -0.1380
  224MOL0     C30157   5.808   6.442   5.811 -0.2618 -0.1602  0.0540
  224MOL0     C30158   5.743   6.550   5.748 -1.2833  0.2648  0.7250
  224MOL0     C30159   5.414   6.709   5.488  0.0355 -0.2033 -0.0637
  224MOL0     C30160   5.397   6.850   5.526 -0.4863 -0.4745 -0.8920
  224MOL0     C30161   5.313   6.926   5.461  0.4910  0.0285 -0.7447
  224MOL0     C30162   5.222   6.869   5.376  0.4128  0.5079  0.8328
  224MOL0     O30163   5.115   6.934   5.310 -1.1795 -0.2188  0.6908
  224MOL0     C30164   5.139   7.062   5.244  0.0340  0.2924 -0.9997
  224MOL0     C30165   5.242   7.059   5.133  0.6125  0.0181  0.0223
  224MOL0     C30166   5.199   6.954   5.029 -0.1803 -0.5884  0.2594
  224MOL0     C30167   5.319   6.937   4.935  0.1865  0.6972  0.2501
  224MOL0     C30168   5.319   7.058   4.851 -0.2225 -0.6792 -0.2335
  224MOL0     C30169   5.314   7.154   4.776  0.1231 -0.2508 -1.6330
  224MOL0     C30170   5.220   6.729   5.359  0.4622 -0.5474 -0.2698
  224MOL0     C30171   5.311   6.646   5.417 -0.1818 -0.2897  0.8152
  224MOL0     C30172   5.296   6.496   5.387 -0.4023  0.7280  0.6125
  224MOL0     H30173   5.427   6.495   5.818 -0.2952 -2.0410  0.5932
  224MOL0     H30174   5.528   6.305   5.951 -1.0261 -0.6208 -1.3042
  224MOL0     H30175   5.653   6.108   5.903 -0.1734 -0.2006  1.1177
  224MOL0     H30176   5.803   6.044   5.949  0.4969  0.0298 -1.1522
  224MOL0     H30177   5.598   6.078   6.146 -1.3051 -0.2172 -2.4784
  224MOL0     H30178   5.659   6.236   6.130 -0.7738 -0.2523 -0.3913
  224MOL0     H30179   5.892   6.167   6.177  0.6181 -1.8263 -2.1250
  224MOL0     H30180   5.837   5.997   6.199  0.2588 -1.2949  3.2218
  224MOL0     H30181   5.735   6.223   6.378 -1.1021  0.2929  0.2858
  224MOL0     H30182   5.689   6.054   6.389 -0.0333  0.8408  1.3821
  224MOL0     H30183   5.975   6.169   6.436  0.8791 -0.1912  3.7989
  224MOL0     H30184   5.858   6.134   6.556  0.3369  1.0119 -0.1381
  224MOL0     H30185   5.880   5.884   6.470 -0.7108  1.3221  4.3601
  224MOL0     H30186   5.993   5.942   6.358  1.3890 -1.4711  0.4917
  224MOL0     H30187   6.014   5.984   6.650  0.7327  0.9283  0.2862
  224MOL0     H30188   6.141   6.039   6.537  2.2454 -1.1925  0.0645
  224MOL0     H30189   6.060   5.749   6.543 -0.0430  0.5839 -4.9884
  224MOL0     H30190   6.194   5.826   6.460 -0.4646  4.5610 -0.3427
  224MOL0     H30191   6.120   5.855   6.862 -0.1735 -1.3204  0.7825
  224MOL0     H30192   6.305   5.905   7.042  0.2901 -0.8162  0.9787
  224MOL0     H30193   6.292   5.724   7.069 -3.4424  0.7864 -0.7719
  224MOL0     H30194   6.533   5.697   7.043 -0.4338 -1.3358  0.7912
  224MOL0     H30195   6.553   5.860   6.982 -0.5464  3.2246  1.1356
  224MOL0     H30196   6.472   5.836   7.261 -2.9569  2.6334 -0.1068
  224MOL0     H30197   6.497   5.982   7.163  3.3087  1.5260 -0.5638
  224MOL0     H30198   6.718   5.918   7.109 -2.7802  1.9627  1.3113
  224MOL0     H30199   6.704   5.759   7.187 -1.5450 -0.2897 -4.6868
  224MOL0     H30200   6.862   6.045   7.503  0.4226  0.0683 -0.8219
  224MOL0     H30201   7.095   6.043   7.546  0.5536  2.8556 -3.4867
  224MOL0     H30202   7.456   5.555   7.324  1.4729 -0.0801 -1.7014
  224MOL0     H30203   7.687   5.492   7.330 -1.3088 -0.6389 -2.7702
  224MOL0     H30204   7.885   5.500   7.395 -3.1820  2.8169 -2.6149
  224MOL0     H30205   7.974   5.550   7.255  0.0731 -1.6100  0.0116
  224MOL0     H30206   8.072   5.597   7.536 -0.9576 -1.1314 -0.4003
  224MOL0     H30207   8.126   5.468   7.424  2.2818 -0.2646 -3.6966
  224MOL0     H30208   8.193   5.652   7.253  0.4954  2.2933  1.2516
  224MOL0     H30209   8.185   5.763   7.381 -0.6148  0.8883 -1.8344
  224MOL0     H30210   8.342   5.502   7.376 -0.4960 -0.4144  0.8200
  224MOL0     H30211   8.356   5.608   7.510 -0.6170 -0.5236 -0.1747
  224MOL0     H30212   8.463   5.786   7.357  1.2944 -0.2471  3.2640
  224MOL0     H30213   8.443   5.663   7.219 -4.5382 -2.0913  1.7301
  224MOL0     H30214   8.581   5.585   7.468 -0.7308 -1.8021 -1.3990
  224MOL0     H30215   8.593   5.517   7.310 -0.1360  0.5293 -0.6217
  224MOL0     H30216   8.727   5.773   7.404 -1.6381 -1.3969  2.3369
  224MOL0     H30217   8.695   5.734   7.228 -1.7446  4.8734  1.3692
  224MOL0     H30218   8.822   5.525   7.257 -1.3888  0.5568 -1.9956
  224MOL0     H30219   8.920   5.672   7.271  0.6620  0.6231  0.1199
  224MOL0     H30220   7.792   5.906   7.438  0.7535 -0.5778 -1.0221
  224MOL0     H30221   7.550   5.941   7.507 -2.7110 -2.2735  2.7586
  224MOL0     H30222   7.148   5.724   7.263 -0.5027  0.9725 -1.5963
  224MOL0     H30223   6.919   5.732   7.211 -0.1484 -0.4888 -0.3968
  224MOL0     H30224   5.913   6.423   5.792 -0.1766  1.1885 -0.9455
  224MOL0     H30225   5.805   6.612   5.685  2.3162 -2.7137  1.0366
  224MOL0     H30226   5.454   6.894   5.606 -0.2713  0.2210 -1.4174
  224MOL0     H30227   5.299   7.031   5.484  4.1816  0.6330 -0.5569
  224MOL0     H30228   5.159   7.133   5.325 -2.0576 -4.2742  4.1784
  224MOL0     H30229   5.044   7.084   5.194 -0.3156  0.6251 -0.2164
  224MOL0     H30230   5.341   7.040   5.175  0.2821 -1.1243  0.3205
  224MOL0     H30231   5.256   7.158   5.088  4.3284 -1.3928 -2.4507
  224MOL0     H30232   5.115   6.975   4.963  1.2840 -1.5925 -2.0426
  224MOL0     H30233   5.162   6.863   5.078  1.6147 -1.2701  0.4117
  224MOL0     H30234   5.410   6.918   4.993  1.0816  2.2840 -0.5721
  224MOL0     H30235   5.308   6.852   4.867  0.5549  1.6867 -1.0900
  224MOL0     H30236   5.315   7.228   4.699 -0.7383 -0.3358 -1.7380
  224MOL0     H30237   5.136   6.683   5.308 -0.3304 -1.5439  1.8671
  224MOL0     H30238   5.382   6.474   5.324 -1.7472 -2.0884 -0.3799
  224MOL0     H30239   5.291   6.436   5.479  0.8711 -2.2653 -1.1379
  224MOL0     H30240   5.213   6.469   5.322 -0.4420  0.7924  0.6355
  225MOL0     O30241   6.909  10.044   4.502 -0.2378  0.0237 -0.3427
  225MOL0     C30242   6.903   9.994   4.384  0.1813 -0.9191  1.2695
  225MOL0     O30243   7.005   9.993   4.290  0.0598  0.2724 -0.3173
  225MOL0     C30244   7.127  10.012   4.345 -0.3051 -0.3236  0.9888
  225MOL0     C30245   7.199  10.130   4.332  0.1073  1.1042 -0.7374
  225MOL0     C30246   7.317  10.151   4.404  0.2276  0.7766  0.1970
  225MOL0     C30247   7.369  10.058   4.486 -0.4551  0.2963 -0.9855
  225MOL0     O30248   7.469  10.099   4.567 -0.8900 -0.2159  0.4319
  225MOL0     C30249   7.545   9.994   4.626  0.9656  0.0224  0.0204
  225MOL0     C30250   7.677  10.043   4.693 -0.4129  0.8889  0.5066
  225MOL0     C30251   7.746   9.919   4.743  1.4824  0.1477  0.5667
  225MOL0     C30252   7.894   9.957   4.774  0.1469  0.0968  0.6775
  225MOL0     C30253   7.997   9.847   4.812  0.3626 -0.2794 -0.4178
  225MOL0     C30254   8.053   9.773   4.686  0.2958  0.1438  0.1313
  225MOL0     C30255   8.162   9.673   4.731  0.0828  0.4772  0.1861
  225MOL0     C30256   8.298   9.723   4.763 -0.6498 -0.0063 -0.6880
  225MOL0     N30257   8.357   9.811   4.658  0.2408  0.7281 -0.0036
  225MOL0     C30258   8.381   9.751   4.530  0.9145 -0.0231 -0.2420
  225MOL0     C30259   8.472   9.820   4.466  0.3447  0.4353  0.9563
  225MOL0     C30260   8.523   9.805   4.329 -0.6013  0.5772 -0.4342
  225MOL0     C30261   8.489   9.668   4.274 -0.5355  0.0017 -0.6435
  225MOL0     C30262   8.560   9.621   4.147 -1.2704  0.2037  0.9669
  225MOL0     C30263   8.543   9.698   4.018 -1.4269  0.6765 -0.0479
  225MOL0     O30264   8.409   9.746   4.024 -0.1242  0.2326  0.2811
  225MOL0     C30265   8.317   9.708   3.929 -0.2052 -0.2995 -0.1052
  225MOL0     C30266   8.330   9.611   3.826 -0.2013  0.7665 -0.0758
  225MOL0     C30267   8.227   9.583   3.731 -0.8031  0.4779 -0.2200
  225MOL0     C30268   8.114   9.670   3.727  0.5187  0.0059 -0.9916
  225MOL0     C30269   8.016   9.655   3.620  0.1171  0.1943 -0.0265
  225MOL0     O30270   8.034   9.565   3.518  0.8176  0.5951 -0.2930
  225MOL0     C30271   7.933   9.537   3.428  0.1331 -0.6695  0.1088
  225MOL0     C30272   7.865   9.414   3.443 -0.0001  0.4889 -0.2240
  225MOL0     C30273   7.760   9.385   3.346  0.1448 -0.2020  0.0293
  225MOL0     C30274   7.728   9.480   3.238  0.4701  0.3432 -0.0440
  225MOL0     O30275   7.638   9.451   3.143 -0.5817  0.1275 -0.4545
  225MOL0     C30276   7.535   9.352   3.156  0.2333  0.3231  0.7147
  225MOL0     C30277   7.457   9.371   3.028 -0.4624 -0.1693 -0.4514
  225MOL0     C30278   7.506   9.280   2.919 -0.3830 -0.6942  0.2417
  225MOL0     C30279   7.395   9.262   2.808  0.1409 -0.1481  0.2983
  225MOL0     C30280   7.414   9.144   2.717  0.7769  0.6100  0.5091
  225MOL0     C30281   7.391   9.005   2.791  0.0506 -0.1161 -0.1169
  225MOL0     C30282   7.356   8.892   2.690 -0.0309 -0.4713 -0.1745
  225MOL0     C30283   7.390   8.761   2.750 -1.1957  0.7700 -0.1864
  225MOL0    Cl30284   7.264   8.686   2.859 -0.1020  0.2842  0.7833
  225MOL0     C30285   7.799   9.598   3.239 -0.1210 -0.0758 -0.2112
  225MOL0     C30286   7.898   9.629   3.326 -0.5636 -0.0075 -0.1720
  225MOL0     O30287   7.930   9.735   3.620  0.4768 -0.4105 -0.6568
  225MOL0     C30288   8.103   9.775   3.820  0.1125 -0.0747 -0.0066
  225MOL0     C30289   8.201   9.789   3.922 -0.0574  0.0732 -0.4010
  225MOL0     N30290   8.513   9.919   4.567 -0.2434  0.9483  0.8357
  225MOL0     N30291   8.441   9.919   4.673 -0.4785 -0.2615 -0.8253
  225MOL0     C30292   7.305   9.937   4.497 -0.2434  0.0108  0.9469
  225MOL0     C30293   7.190   9.911   4.417 -0.1559 -0.9836 -0.4928
  225MOL0     C30294   6.779   9.923   4.351  0.5532 -0.5780 -0.2630
  225MOL0     C30295   6.737   9.896   4.219 -0.8827 -0.1119 -1.1597
  225MOL0     C30296   6.621   9.823   4.181 -0.1587 -0.2950 -0.5317
  225MOL0     C30297   6.552   9.767   4.276  0.2507 -0.1335 -0.4305
  225MOL0     O30298   6.444   9.695   4.222  0.6558  0.2220  0.1888
  225MOL0     C30299   6.344   9.660   4.312 -0.3325  0.7341 -0.4990
  225MOL0     C30300   6.219   9.599   4.253  1.6653  0.7946  0.2433
  225MOL0     C30301   6.257   9.450   4.217  0.0211  0.1864 -0.8500
  225MOL0     C30302   6.245   9.345   4.334 -0.8366 -0.8652 -0.4718
  225MOL0     C30303   6.113   9.323   4.401 -0.5557  0.6964 -0.2918
  225MOL0     C30304   6.028   9.295   4.484  1.1432  0.3492 -0.4871
  225MOL0     C30305   6.580   9.786   4.412  0.2711  0.6589  0.6610
  225MOL0     C30306   6.694   9.867   4.451  0.1128  0.3056  0.3806
  225MOL0     C30307   6.716   9.867   4.597  0.3499 -0.1206 -0.3331
  225MOL0     H30308   7.150  10.205   4.272 -0.6181  1.4344  0.2398
  225MOL0     H30309   7.353  10.253   4.397 -1.4757  1.7135  3.0971
  225MOL0     H30310   7.475   9.970   4.707  3.4670 -1.2920  1.9365
  225MOL0     H30311   7.571   9.919   4.551 -2.5530 -2.6396  1.1782
  225MOL0     H30312   7.653  10.118   4.769  0.7644 -0.7741  2.6432
  225MOL0     H30313   7.734  10.085   4.609 -1.5737 -0.0870 -0.8128
  225MOL0     H30314   7.745   9.837   4.671  2.2959 -0.1181  0.8482
  225MOL0     H30315   7.706   9.897   4.842 -1.0956 -0.2894 -0.4999
  225MOL0     H30316   7.931  10.021   4.694 -0.2050  1.2492  1.3979
  225MOL0     H30317   7.872  10.017   4.864 -2.3813  0.1928  0.0780
  225MOL0     H30318   8.084   9.887   4.864  0.2347 -0.9446  0.3240
  225MOL0     H30319   7.954   9.784   4.891 -2.9719  5.2905  2.8717
  225MOL0     H30320   7.973   9.717   4.638 -0.6582 -0.2449  2.0757
  225MOL0     H30321   8.109   9.842   4.622  3.1562  0.2056  2.4822
  225MOL0     H30322   8.161   9.591   4.658 -0.8541  1.1993 -0.6285
  225MOL0     H30323   8.126   9.624   4.822  2.1284 -0.2422  0.6597
  225MOL0     H30324   8.293   9.780   4.856 -2.7543 -1.4714  0.1831
  225MOL0     H30325   8.362   9.635   4.774  2.2003  1.5848 -3.0037
  225MOL0     H30326   8.321   9.668   4.494  1.2429 -0.9728  1.2569
  225MOL0     H30327   8.475   9.887   4.274  1.2253  2.4020  0.5139
  225MOL0     H30328   8.629   9.829   4.341 -1.1899  3.7261 -0.5660
  225MOL0     H30329   8.541   9.612   4.352  1.3757  2.9053  0.3539
  225MOL0     H30330   8.382   9.647   4.283 -0.5383 -0.0606 -0.8074
  225MOL0     H30331   8.510   9.526   4.125  1.0933 -0.4276 -2.4432
  225MOL0     H30332   8.668   9.618   4.162 -1.4708  1.5219  2.9453
  225MOL0     H30333   8.571   9.634   3.933  4.3872  0.1539  1.8125
  225MOL0     H30334   8.619   9.776   4.014  0.1403 -0.7943 -0.4204
  225MOL0     H30335   8.406   9.535   3.807 -2.8817 -1.9282 -0.6873
  225MOL0     H30336   8.249   9.505   3.659  2.0710 -0.4408  1.4769
  225MOL0     H30337   7.902   9.346   3.519  4.5616  1.8844 -0.9187
  225MOL0     H30338   7.705   9.292   3.356 -3.3001  1.7466  1.1269
  225MOL0     H30339   7.562   9.246   3.170  0.7167  0.5318  1.4228
  225MOL0     H30340   7.472   9.379   3.241 -0.0017 -1.3757  1.1197
  225MOL0     H30341   7.356   9.342   3.058 -0.0809  0.5300  1.6303
  225MOL0     H30342   7.460   9.476   2.999  3.2462 -0.2472 -0.8165
  225MOL0     H30343   7.594   9.322   2.868 -0.8432 -0.9646 -0.8037
  225MOL0     H30344   7.546   9.190   2.965  0.2788  1.0550  3.4000
  225MOL0     H30345   7.382   9.351   2.746  0.9951 -1.6597 -2.2240
  225MOL0     H30346   7.296   9.250   2.853 -0.9373  1.8727 -1.3480
  225MOL0     H30347   7.513   9.144   2.670  0.2295  0.8299 -0.7000
  225MOL0     H30348   7.338   9.146   2.638  0.2252  2.6253  1.0411
  225MOL0     H30349   7.486   8.981   2.840  1.0316  3.2899 -0.0873
  225MOL0     H30350   7.316   9.016   2.870  1.4510  0.2560  1.2008
  225MOL0     H30351   7.422   8.921   2.608  1.3611  1.6598  1.5784
  225MOL0     H30352   7.252   8.900   2.660 -0.3201 -0.8705  0.6752
  225MOL0     H30353   7.410   8.687   2.671  0.3794 -1.9188  2.5213
  225MOL0     H30354   7.480   8.757   2.812  0.0895  2.3490 -1.8444
  225MOL0     H30355   7.758   9.674   3.173 -1.6074 -0.5344  0.1463
  225MOL0     H30356   7.965   9.713   3.308 -0.2520 -0.7883 -3.0254
  225MOL0     H30357   8.017   9.839   3.810 -2.1998 -2.9983 -0.2126
  225MOL0     H30358   8.189   9.869   3.995  0.1248 -0.8717  0.7021
  225MOL0     H30359   7.333   9.849   4.555  2.2265 -0.0064 -0.1395
  225MOL0     H30360   7.125   9.824   4.425 -4.9054  2.0741 -1.8608
  225MOL0     H30361   6.804   9.944   4.147 -2.3459 -3.1330 -4.8850
  225MOL0     H30362   6.586   9.813   4.079  3.2588 -1.4458 -1.7042
  225MOL0     H30363   6.316   9.745   4.374 -1.0215 -1.0054  1.7387
  225MOL0     H30364   6.381   9.589   4.387 -0.7723  2.6335  1.6193
  225MOL0     H30365   6.179   9.653   4.167  2.6317  3.0648  1.1435
  225MOL0     H30366   6.135   9.592   4.322  0.8866 -1.5444 -0.8275
  225MOL0     H30367   6.338   9.445   4.144 -1.9422 -0.7859 -3.1113
  225MOL0     H30368   6.169   9.424   4.157  2.2843 -4.7444 -2.5549
  225MOL0     H30369   6.274   9.248   4.293  1.9575  0.5933 -2.2668
  225MOL0     H30370   6.310   9.375   4.416 -3.4798  4.9553  0.0360
  225MOL0     H30371   5.964   9.276   4.568  0.6402  0.6863 -0.7942
  225MOL0     H30372   6.511   9.739   4.481  0.4539 -2.6999 -1.2606
  225MOL0     H30373   6.660   9.793   4.654  0.5059  0.0942  0.1055
  225MOL0     H30374   6.818   9.839   4.625  0.5370 -0.4876 -1.3670
  225MOL0     H30375   6.703   9.967   4.640  1.8444 -1.0969  2.6564
  226MOL0     O30376   0.756   1.258   1.728  0.6146 -0.9886 -0.1549
  226MOL0     C30377   0.753   1.156   1.659  0.8956 -0.1131  0.1906
  226MOL0     O30378   0.798   1.032   1.700 -0.4862  0.3307 -0.5349
  226MOL0     C30379   0.784   0.988   1.832 -0.9628  0.6743  1.6345
  226MOL0     C30380   0.886   0.967   1.917 -1.0967 -0.2156  0.8015
  226MOL0     C30381   0.878   0.896   2.030  0.6061 -0.0111 -0.7036
  226MOL0     C30382   0.751   0.849   2.074  0.0004  0.0116 -0.2249
  226MOL0     O30383   0.744   0.777   2.187 -0.7590  0.0767 -0.7115
  226MOL0     C30384   0.652   0.792   2.293 -0.0393 -0.9390 -0.1929
  226MOL0     C30385   0.710   0.903   2.389  0.4008 -1.5049  0.0755
  226MOL0     C30386   0.836   0.859   2.460  0.0457 -0.8072 -0.0514
  226MOL0     C30387   0.883   0.958   2.570  0.1465  0.0082  0.2102
  226MOL0     C30388   0.979   1.074   2.520 -0.3372  0.3063 -0.3048
  226MOL0     C30389   1.016   1.154   2.641  0.2667 -0.8484 -0.4150
  226MOL0     C30390   1.026   1.307   2.626 -0.2017 -0.4598  0.2570
  226MOL0     C30391   1.139   1.347   2.526 -0.1348  0.2752  0.1279
  226MOL0     N30392   1.273   1.333   2.590 -0.3010  0.7501  0.4928
  226MOL0     C30393   1.350   1.221   2.612 -0.3903  0.0959  0.0400
  226MOL0     C30394   1.448   1.280   2.678  0.0918  0.5215 -0.8709
  226MOL0     C30395   1.572   1.219   2.744 -0.1476  0.5960 -0.0036
  226MOL0     C30396   1.536   1.152   2.873 -0.5997 -0.9905 -0.5180
  226MOL0     C30397   1.674   1.127   2.952  0.5765 -0.9297  0.0246
  226MOL0     C30398   1.720   0.985   2.935  0.1638  0.0708 -0.0918
  226MOL0     O30399   1.636   0.890   3.006 -1.1295  0.4382  0.2837
  226MOL0     C30400   1.639   0.893   3.138  1.0922 -0.4256 -0.7612
  226MOL0     C30401   1.742   0.836   3.213  0.4405  0.2958 -0.6316
  226MOL0     C30402   1.724   0.811   3.357  0.5555  0.1197 -0.3169
  226MOL0     C30403   1.611   0.879   3.422 -0.0378 -0.0843  0.4097
  226MOL0     C30404   1.579   0.874   3.564 -0.1248  0.2016 -0.5927
  226MOL0     O30405   1.485   0.952   3.628 -0.7110  0.4352 -0.9195
  226MOL0     C30406   1.513   0.963   3.763  0.8052  0.7953  0.2796
  226MOL0     C30407   1.598   1.055   3.819  0.3282  0.7774 -0.3032
  226MOL0     C30408   1.627   1.063   3.960 -1.6641  0.6985  0.5504
  226MOL0     C30409   1.558   0.981   4.044 -0.0990 -0.0392 -0.3191
  226MOL0     O30410   1.564   1.016   4.177 -0.3086  0.0098  0.7306
  226MOL0     C30411   1.456   1.094   4.236  0.3961 -0.1749 -0.0276
  226MOL0     C30412   1.484   1.211   4.323  0.0741 -0.3083 -0.1155
  226MOL0     C30413   1.575   1.317   4.252 -1.1834 -0.4886  0.0001
  226MOL0     C30414   1.588   1.434   4.359  0.0710  0.5541 -0.5517
  226MOL0     C30415   1.661   1.550   4.295  0.3589 -0.2436  0.9042
  226MOL0     C30416   1.717   1.647   4.406 -0.0187  0.1367 -0.0018
  226MOL0     C30417   1.759   1.781   4.348 -0.7029  0.4867  0.8242
  226MOL0     C30418   1.896   1.767   4.299 -1.5118  0.3784  0.2940
  226MOL0    Cl30419   1.929   1.914   4.202  0.0628  0.2465  0.4397
  226MOL0     C30420   1.468   0.890   3.989  0.1450  0.4922 -0.5626
  226MOL0     C30421   1.447   0.879   3.842  0.0751 -0.5163  0.2356
  226MOL0     O30422   1.657   0.798   3.620  0.5713 -0.1663 -0.1673
  226MOL0     C30423   1.523   0.955   3.344 -0.3354  0.0009 -0.9706
  226MOL0     C30424   1.533   0.950   3.206 -0.6424  0.0460  0.2977
  226MOL0     N30425   1.446   1.417   2.680  0.3950 -0.1572  0.0813
  226MOL0     N30426   1.343   1.451   2.618  0.4983 -0.2258  0.1071
  226MOL0     C30427   0.634   0.870   1.990  0.1785  0.0228 -0.6779
  226MOL0     C30428   0.655   0.933   1.867  0.9852 -0.4844 -0.0849
  226MOL0     C30429   0.724   1.163   1.515 -0.7017 -0.3957  0.0839
  226MOL0     C30430   0.722   1.046   1.437  0.0664 -0.4314  0.2337
  226MOL0     C30431   0.697   1.063   1.294  0.2844  0.6727 -0.2017
  226MOL0     C30432   0.670   1.177   1.231 -0.0118  1.0313  0.9760
  226MOL0     O30433   0.658   1.163   1.092 -0.4656 -0.1210  0.2434
  226MOL0     C30434   0.585   1.272   1.037 -0.7518 -0.2539  0.8206
  226MOL0     C30435   0.546   1.233   0.897  0.5713 -0.3864  0.7613
  226MOL0     C30436   0.438   1.318   0.832  0.7887  0.9657  0.5369
  226MOL0     C30437   0.498   1.445   0.776  0.0762  0.7035 -0.2929
  226MOL0     C30438   0.567   1.412   0.654  0.7509 -0.2748 -0.3234
  226MOL0     C30439   0.632   1.416   0.547  0.0668  0.5792  0.4970
  226MOL0     C30440   0.650   1.288   1.314 -0.3513 -0.0726  0.6425
  226MOL0     C30441   0.685   1.289   1.450  0.1423 -0.0475  0.9701
  226MOL0     C30442   0.669   1.425   1.520 -0.5979 -0.7175  0.4523
  226MOL0     H30443   0.983   0.991   1.875 -2.1390  0.0363 -1.6333
  226MOL0     H30444   0.965   0.875   2.092 -1.0476 -0.6399  1.5246
  226MOL0     H30445   0.547   0.810   2.266  0.3024 -0.6333 -1.4104
  226MOL0     H30446   0.653   0.698   2.348  0.2433 -0.9003 -0.1303
  226MOL0     H30447   0.632   0.915   2.464  1.4669  1.4901  0.8049
  226MOL0     H30448   0.720   0.995   2.331  2.4381 -0.2825  2.2197
  226MOL0     H30449   0.915   0.831   2.388  1.2926 -0.0684  0.9860
  226MOL0     H30450   0.817   0.769   2.519  1.1668  0.1119  1.7911
  226MOL0     H30451   0.797   1.005   2.618 -2.2426 -0.0812 -3.5935
  226MOL0     H30452   0.928   0.896   2.648  0.5339  0.4129  0.3143
  226MOL0     H30453   1.072   1.039   2.476  1.4969  1.8024  2.1525
  226MOL0     H30454   0.923   1.131   2.445  1.0196 -0.7853 -2.2429
  226MOL0     H30455   0.943   1.132   2.720 -0.5431 -1.9597 -1.4321
  226MOL0     H30456   1.109   1.114   2.681  1.0448  0.0003 -1.3089
  226MOL0     H30457   1.039   1.355   2.723  0.6827  1.8402 -0.9113
  226MOL0     H30458   0.937   1.355   2.585  0.2435 -0.3551 -0.6057
  226MOL0     H30459   1.131   1.282   2.438 -0.8906 -0.8955  1.0200
  226MOL0     H30460   1.115   1.451   2.502  0.9846  0.6440  0.5681
  226MOL0     H30461   1.334   1.114   2.598 -3.2733  0.0496  2.5924
  226MOL0     H30462   1.615   1.147   2.673  2.9082  1.7458  0.5311
  226MOL0     H30463   1.658   1.285   2.750  3.9877 -4.1359 -0.3932
  226MOL0     H30464   1.475   1.226   2.927 -1.8037 -1.6104 -0.9958
  226MOL0     H30465   1.479   1.062   2.849 -1.1733  0.3123 -4.9970
  226MOL0     H30466   1.647   1.143   3.057 -3.7484 -0.6533 -0.9372
  226MOL0     H30467   1.757   1.195   2.930  1.9000 -1.5596  2.6525
  226MOL0     H30468   1.821   0.965   2.973  0.8532  0.7013 -1.5510
  226MOL0     H30469   1.718   0.959   2.829 -4.3673 -1.8304  0.2203
  226MOL0     H30470   1.826   0.790   3.160 -0.1333 -0.1412 -1.1787
  226MOL0     H30471   1.782   0.739   3.414 -2.1147 -1.2018  0.9521
  226MOL0     H30472   1.639   1.119   3.741  0.9160  5.1667  3.1531
  226MOL0     H30473   1.700   1.132   3.998 -1.8637  2.5939 -2.2256
  226MOL0     H30474   1.404   1.116   4.142 -1.3290  1.3090  1.1953
  226MOL0     H30475   1.390   1.021   4.285 -1.6589  1.0349 -0.8319
  226MOL0     H30476   1.384   1.253   4.334  0.2629  0.4622 -1.2102
  226MOL0     H30477   1.521   1.179   4.421 -2.7801  0.4159  1.2871
  226MOL0     H30478   1.672   1.270   4.235 -0.6684  0.4596  0.2891
  226MOL0     H30479   1.534   1.352   4.157  1.7474 -0.8351 -1.5080
  226MOL0     H30480   1.644   1.409   4.450  0.3157  1.1434 -0.5406
  226MOL0     H30481   1.486   1.461   4.389 -0.8397 -2.9197 -0.0967
  226MOL0     H30482   1.582   1.592   4.232 -2.2836 -2.6519  2.3539
  226MOL0     H30483   1.744   1.511   4.236  0.3860  2.4748 -1.0436
  226MOL0     H30484   1.646   1.664   4.487 -0.2907 -1.0568  0.0241
  226MOL0     H30485   1.808   1.604   4.449 -0.0882  0.8187  0.8390
  226MOL0     H30486   1.761   1.851   4.433 -0.5679  0.8590  0.5155
  226MOL0     H30487   1.679   1.815   4.282 -0.6775  0.6063  0.8541
  226MOL0     H30488   1.969   1.753   4.379 -2.0294  2.5227  1.2020
  226MOL0     H30489   1.896   1.682   4.229 -4.4352 -0.8692  1.6353
  226MOL0     H30490   1.408   0.824   4.051  0.5953  1.1710  0.6039
  226MOL0     H30491   1.383   0.796   3.815 -0.1678 -0.8753  1.8364
  226MOL0     H30492   1.445   1.014   3.391 -0.1800 -0.8926  0.4793
  226MOL0     H30493   1.464   1.001   3.140  1.2960  0.6880 -1.3127
  226MOL0     H30494   0.535   0.838   2.019  0.6903 -1.1585 -0.1780
  226MOL0     H30495   0.573   0.960   1.801  0.5267  0.0647  0.6881
  226MOL0     H30496   0.753   0.949   1.475  0.7477 -0.4610 -0.3861
  226MOL0     H30497   0.706   0.970   1.239 -2.1713 -0.5563  1.2969
  226MOL0     H30498   0.657   1.355   1.039  2.1336 -2.5687  0.3318
  226MOL0     H30499   0.494   1.302   1.090 -0.8668  1.1936 -0.1193
  226MOL0     H30500   0.517   1.128   0.898  2.4447 -1.0039 -1.5808
  226MOL0     H30501   0.632   1.222   0.830 -1.1266  2.7378 -2.2163
  226MOL0     H30502   0.353   1.329   0.900 -0.0270 -0.5640 -0.2056
  226MOL0     H30503   0.406   1.269   0.740 -3.5960  1.2534  1.7166
  226MOL0     H30504   0.407   1.497   0.744 -0.8041 -0.3616  0.3840
  226MOL0     H30505   0.561   1.508   0.839  0.1605  2.8765 -2.3918
  226MOL0     H30506   0.686   1.414   0.454  0.5255 -2.4327  0.7522
  226MOL0     H30507   0.629   1.386   1.272  2.9989  0.3443 -0.3727
  226MOL0     H30508   0.621   1.496   1.451  0.0440 -0.5833  0.1371
  226MOL0     H30509   0.609   1.434   1.611 -2.2606  0.6662 -0.7196
  226MOL0     H30510   0.767   1.463   1.552 -0.1894 -1.7611  0.4746
  227MOL0     O30511   3.886   4.163   9.627  0.2021  0.4852 -0.0287
  227MOL0     C30512   3.995   4.138   9.682  0.6315  0.6364  0.6313
  227MOL0     O30513   4.117   4.137   9.619 -0.9681  0.7254 -0.3958
  227MOL0     C30514   4.111   4.133   9.487 -0.2372 -0.1757 -0.1011
  227MOL0     C30515   4.154   4.239   9.406  0.5606  1.0986 -0.7457
  227MOL0     C30516   4.155   4.233   9.269  0.1396 -0.6435  0.3005
  227MOL0     C30517   4.104   4.116   9.201 -0.5981  0.2295  0.1857
  227MOL0     O30518   4.096   4.115   9.065 -0.0527  0.1373  0.0487
  227MOL0     C30519   3.993   4.048   8.994 -0.5809 -0.1540 -0.2304
  227MOL0     C30520   4.019   4.095   8.842 -0.5549 -0.9265  0.6691
  227MOL0     C30521   4.000   4.244   8.814 -0.3730  0.2283 -0.0173
  227MOL0     C30522   4.016   4.280   8.662 -0.8549 -0.0763 -0.3073
  227MOL0     C30523   4.010   4.435   8.642  0.5991  0.1791  1.1024
  227MOL0     C30524   4.024   4.487   8.491 -0.3756  0.4033  0.3536
  227MOL0     C30525   4.033   4.638   8.490  0.3929  0.3354 -0.4024
  227MOL0     C30526   4.176   4.684   8.523 -0.0241 -0.4543  0.4488
  227MOL0     N30527   4.282   4.619   8.449  0.1283  0.7956 -0.5421
  227MOL0     C30528   4.356   4.514   8.506 -0.4993  0.1166 -0.1318
  227MOL0     C30529   4.455   4.491   8.427  0.6864  0.1274 -0.0267
  227MOL0     C30530   4.561   4.384   8.452  0.1652 -0.4268  0.6395
  227MOL0     C30531   4.656   4.425   8.566  0.0167  0.0343 -0.0171
  227MOL0     C30532   4.741   4.305   8.605 -0.7172 -0.4875 -0.4368
  227MOL0     C30533   4.823   4.352   8.728  0.6571 -0.2771  0.7152
  227MOL0     O30534   4.881   4.237   8.795  0.0268 -0.6024  0.0220
  227MOL0     C30535   5.000   4.203   8.740 -0.2689 -1.2174 -0.4778
  227MOL0     C30536   5.119   4.252   8.793  0.6014  0.2203  0.3761
  227MOL0     C30537   5.231   4.202   8.750 -1.0802  0.2309 -0.3569
  227MOL0     C30538   5.241   4.119   8.642  0.9351  0.7424 -0.8197
  227MOL0     C30539   5.370   4.051   8.603 -1.6351 -0.3805 -0.9332
  227MOL0     O30540   5.482   4.106   8.656 -0.4522  0.6458  0.3847
  227MOL0     C30541   5.609   4.086   8.587  0.9669  0.7047  0.1575
  227MOL0     C30542   5.653   3.956   8.546 -0.0333 -0.8693  0.7333
  227MOL0     C30543   5.790   3.934   8.499 -0.7524  0.4394  1.0472
  227MOL0     C30544   5.881   4.037   8.487  0.4855  0.2997  1.2697
  227MOL0     O30545   6.011   4.011   8.446  0.2434 -0.3027 -0.9014
  227MOL0     C30546   6.109   4.113   8.440  0.3251 -0.0460  0.7182
  227MOL0     C30547   6.243   4.057   8.409  0.5085 -0.2967  0.2935
  227MOL0     C30548   6.281   3.956   8.514 -0.7545  0.4838 -0.7498
  227MOL0     C30549   6.407   3.877   8.473 -0.4091  0.2834  1.3187
  227MOL0     C30550   6.528   3.968   8.436 -0.0559  0.8833  1.8411
  227MOL0     C30551   6.589   4.046   8.551 -0.2384  0.2562 -0.3497
  227MOL0     C30552   6.653   3.946   8.649  0.0923 -0.3846 -0.1644
  227MOL0     C30553   6.691   4.014   8.778  0.2561  1.3471 -0.3441
  227MOL0    Cl30554   6.578   4.130   8.842  0.2078 -0.0620 -0.3947
  227MOL0     C30555   5.830   4.166   8.537  0.6502 -0.5788 -0.8131
  227MOL0     C30556   5.698   4.191   8.588 -0.1611 -0.2516  0.1495
  227MOL0     O30557   5.371   3.967   8.517  0.0607 -0.4666 -0.0323
  227MOL0     C30558   5.121   4.078   8.577 -0.6744 -0.3669 -0.4522
  227MOL0     C30559   5.001   4.119   8.625  1.1087 -0.1623  0.0027
  227MOL0     N30560   4.432   4.567   8.314 -0.2824 -1.1105  0.0619
  227MOL0     N30561   4.333   4.656   8.332 -0.0503  0.6106  0.8508
  227MOL0     C30562   4.074   4.002   9.274 -0.5939 -0.1030 -0.2163
  227MOL0     C30563   4.066   4.015   9.419 -1.1459 -0.0548  0.4743
  227MOL0     C30564   3.999   4.082   9.815  0.1514 -0.1232 -0.3535
  227MOL0     C30565   3.878   4.075   9.889  0.8246  0.4459  0.2107
  227MOL0     C30566   3.866   4.013  10.026  0.6185  0.6068  0.6725
  227MOL0     C30567   3.982   3.966  10.082 -0.3247  0.2052 -0.2532
  227MOL0     O30568   3.997   3.902  10.200  0.9858  0.1323 -0.1382
  227MOL0     C30569   3.888   3.906  10.292 -0.3275  0.0555  0.7072
  227MOL0     C30570   3.799   3.782  10.262  1.0117 -0.2767  0.3464
  227MOL0     C30571   3.661   3.803  10.307  0.1732  1.3428  0.4146
  227MOL0     C30572   3.572   3.677  10.294  0.8515  0.9894 -0.5268
  227MOL0     C30573   3.544   3.638  10.155  0.0328 -0.1450 -0.3447
  227MOL0     C30574   3.519   3.606  10.047  0.6225  0.3047 -0.3733
  227MOL0     C30575   4.103   3.979  10.016  0.1862  0.4001  0.6109
  227MOL0     C30576   4.115   4.041   9.888  0.7308  0.5335  0.2305
  227MOL0     C30577   4.254   4.032   9.830  0.1805  0.6158  0.8947
  227MOL0     H30578   4.173   4.334   9.456 -1.4145  1.7063 -1.0701
  227MOL0     H30579   4.176   4.321   9.208  1.3884 -2.8068 -2.6517
  227MOL0     H30580   4.006   3.940   9.003 -0.1551 -0.3087 -2.1751
  227MOL0     H30581   3.899   4.083   9.037 -0.2499  1.4993 -0.7790
  227MOL0     H30582   3.954   4.043   8.771 -0.0134  0.5888 -1.0034
  227MOL0     H30583   4.119   4.064   8.811 -0.5774 -0.1857 -0.2159
  227MOL0     H30584   4.071   4.302   8.874 -2.5880  2.3789  0.7370
  227MOL0     H30585   3.896   4.265   8.842 -0.0113  1.4137  0.5393
  227MOL0     H30586   4.117   4.250   8.630  0.1984  3.1737 -0.4795
  227MOL0     H30587   3.940   4.229   8.603 -3.5125  2.3446  0.7596
  227MOL0     H30588   3.920   4.479   8.685  0.5653  2.4111 -1.0711
  227MOL0     H30589   4.098   4.478   8.693  2.7714 -0.1400 -2.1168
  227MOL0     H30590   4.107   4.447   8.432 -0.0728 -0.0232  1.0619
  227MOL0     H30591   3.935   4.450   8.439  0.8503 -1.2037 -0.7096
  227MOL0     H30592   3.956   4.680   8.556 -0.9819 -0.1327 -1.6675
  227MOL0     H30593   3.996   4.688   8.400  0.5666  0.8948 -0.1685
  227MOL0     H30594   4.175   4.793   8.513 -1.7512 -0.1498  2.8965
  227MOL0     H30595   4.206   4.665   8.626  4.0003  0.5731 -0.3414
  227MOL0     H30596   4.324   4.454   8.590  0.2044 -0.7756 -0.4905
  227MOL0     H30597   4.525   4.281   8.462 -0.1354 -0.1318  3.2856
  227MOL0     H30598   4.616   4.375   8.358 -0.4398  0.8719  0.1423
  227MOL0     H30599   4.714   4.512   8.535  1.9669 -1.5402 -1.0631
  227MOL0     H30600   4.584   4.457   8.642  0.2323 -0.1379  0.2617
  227MOL0     H30601   4.801   4.278   8.518 -3.3626 -0.8507 -2.2540
  227MOL0     H30602   4.687   4.211   8.614  1.8689 -2.0748 -0.2971
  227MOL0     H30603   4.760   4.409   8.797  1.4438 -0.3077  1.4747
  227MOL0     H30604   4.892   4.431   8.696 -2.7609  2.5148 -0.4779
  227MOL0     H30605   5.105   4.325   8.871  0.3459 -0.6234  1.1362
  227MOL0     H30606   5.310   4.243   8.811 -1.5589  0.1080  0.3521
  227MOL0     H30607   5.603   3.866   8.580  1.0506 -1.4615  0.7952
  227MOL0     H30608   5.818   3.834   8.468 -3.0884  0.8917 -3.2815
  227MOL0     H30609   6.075   4.170   8.353 -0.4518 -2.1565 -0.4437
  227MOL0     H30610   6.118   4.165   8.535 -0.0983  0.7090  0.3525
  227MOL0     H30611   6.247   4.009   8.311 -3.0202 -2.6654  1.1205
  227MOL0     H30612   6.306   4.146   8.406 -1.5682  1.2448 -2.7056
  227MOL0     H30613   6.307   4.000   8.611 -0.6729  0.6524 -0.8475
  227MOL0     H30614   6.203   3.880   8.518 -2.2856  1.9468  3.7890
  227MOL0     H30615   6.369   3.819   8.389 -0.0069  0.3114  1.1173
  227MOL0     H30616   6.442   3.805   8.547  0.4125 -0.1080  0.5587
  227MOL0     H30617   6.499   4.020   8.345 -1.5176 -2.9831 -0.1104
  227MOL0     H30618   6.609   3.901   8.406 -1.6220 -1.2695  2.1870
  227MOL0     H30619   6.654   4.129   8.522 -0.1071 -0.5984 -2.7083
  227MOL0     H30620   6.507   4.103   8.596  0.4202  1.5727 -0.7760
  227MOL0     H30621   6.737   3.909   8.591  1.5900  2.1232  0.2781
  227MOL0     H30622   6.593   3.859   8.677  1.5855 -1.8341 -1.2676
  227MOL0     H30623   6.709   3.954   8.867  0.9573  2.0368 -0.0037
  227MOL0     H30624   6.789   4.056   8.752  0.4548 -0.2806 -2.5183
  227MOL0     H30625   5.890   4.256   8.551  0.5360 -0.3024 -2.0399
  227MOL0     H30626   5.673   4.290   8.627 -2.1292 -1.0651  1.0836
  227MOL0     H30627   5.119   4.009   8.493 -0.6383 -0.0087 -0.7523
  227MOL0     H30628   4.906   4.090   8.581 -0.8092  2.1106  2.3578
  227MOL0     H30629   4.042   3.904   9.240 -4.2286  0.6562  0.5893
  227MOL0     H30630   4.026   3.935   9.481  1.7235 -0.9375  1.3490
  227MOL0     H30631   3.781   4.099   9.846  0.0379 -1.3379  0.8862
  227MOL0     H30632   3.768   4.016  10.072  0.3163  0.9680  0.0365
  227MOL0     H30633   3.835   4.002  10.293 -0.4897  0.0799 -1.8881
  227MOL0     H30634   3.929   3.886  10.392 -2.4823 -1.1718  1.3993
  227MOL0     H30635   3.852   3.702  10.314  1.4738  1.6307  3.0627
  227MOL0     H30636   3.795   3.753  10.157 -1.3439 -0.5536  0.4594
  227MOL0     H30637   3.621   3.894  10.261 -3.8949 -0.4739 -0.0718
  227MOL0     H30638   3.648   3.825  10.414  1.9132 -2.9637  1.7352
  227MOL0     H30639   3.599   3.597  10.364 -1.6682  2.8606  2.8948
  227MOL0     H30640   3.471   3.706  10.327  0.1302 -0.6029 -1.2321
  227MOL0     H30641   3.513   3.575   9.944 -2.0299  0.7787 -0.4278
  227MOL0     H30642   4.195   3.949  10.064  0.4279  0.7328  0.3591
  227MOL0     H30643   4.257   3.976   9.735 -0.9154  1.2653  0.4631
  227MOL0     H30644   4.287   4.132   9.803 -1.6655  0.7921 -0.9442
  227MOL0     H30645   4.327   3.982   9.894  0.3528 -0.2254  0.0783
  228MOL0     O30646   4.169   9.789   6.271 -0.3591  0.0053  0.6963
  228MOL0     C30647   4.242   9.732   6.191  0.4628  0.5926 -0.5616
  228MOL0     O30648   4.312   9.614   6.227  0.0072 -0.7461  0.3691
  228MOL0     C30649   4.268   9.549   6.340 -0.4111  0.5977  0.6725
  228MOL0     C30650   4.369   9.507   6.417 -0.3129  0.0876 -0.5365
  228MOL0     C30651   4.365   9.447   6.540  0.1860 -0.8418  0.7126
  228MOL0     C30652   4.229   9.424   6.588 -0.9997  0.0609  0.0730
  228MOL0     O30653   4.192   9.358   6.702 -0.5317 -0.1717  0.5044
  228MOL0     C30654   4.305   9.313   6.777 -0.3626 -0.7029  0.1805
  228MOL0     C30655   4.270   9.251   6.909  0.5641 -0.1918 -0.4103
  228MOL0     C30656   4.174   9.130   6.892  0.0883 -0.6733  1.3718
  228MOL0     C30657   4.242   8.992   6.903 -0.5686 -0.5985  0.4033
  228MOL0     C30658   4.247   8.935   7.048  0.7328 -1.0295 -0.0749
  228MOL0     C30659   4.119   8.880   7.098  0.1291  0.9204 -0.2078
  228MOL0     C30660   4.114   8.837   7.248  0.2303  0.3719 -0.2852
  228MOL0     C30661   4.094   8.959   7.343 -0.2146 -0.3112 -0.5481
  228MOL0     N30662   4.118   8.909   7.480 -0.0751 -0.4038 -0.1115
  228MOL0     C30663   4.021   8.917   7.574 -0.8013 -0.8542  0.2698
  228MOL0     C30664   4.078   8.868   7.682 -0.0439  0.4828  0.1328
  228MOL0     C30665   4.019   8.863   7.821  0.0584  0.2024  0.3349
  228MOL0     C30666   4.067   8.753   7.909  0.0397 -0.3946  0.0642
  228MOL0     C30667   4.197   8.798   7.975  0.0471  0.4870 -0.0412
  228MOL0     C30668   4.289   8.678   8.021  0.0329 -0.3744 -0.0289
  228MOL0     O30669   4.247   8.618   8.150  0.4810 -0.6797  1.0512
  228MOL0     C30670   4.357   8.556   8.212 -0.3205 -0.2153 -0.6152
  228MOL0     C30671   4.430   8.458   8.154 -0.7210 -0.1963  0.1792
  228MOL0     C30672   4.535   8.404   8.218 -1.0218 -0.3499  0.1867
  228MOL0     C30673   4.580   8.441   8.345  0.5420 -0.3731  0.4535
  228MOL0     C30674   4.698   8.386   8.395 -1.0481  0.4941 -0.1774
  228MOL0     O30675   4.733   8.262   8.352  0.6642  0.8114 -0.1827
  228MOL0     C30676   4.838   8.191   8.415 -1.0073 -0.0046  0.2678
  228MOL0     C30677   4.810   8.063   8.473 -0.2607 -0.7705  0.1166
  228MOL0     C30678   4.911   8.000   8.552 -0.0506 -0.9002  0.1217
  228MOL0     C30679   5.035   8.061   8.582  0.2307  0.5153  0.5710
  228MOL0     O30680   5.124   7.980   8.640 -0.2769 -0.5627  0.0687
  228MOL0     C30681   5.238   8.033   8.706  0.5151 -0.9138  0.6578
  228MOL0     C30682   5.278   7.945   8.823 -0.2598  0.1727  0.9954
  228MOL0     C30683   5.421   7.965   8.874  0.2829  0.6321 -0.3399
  228MOL0     C30684   5.528   7.867   8.817  0.2455 -0.4075  0.2559
  228MOL0     C30685   5.660   7.894   8.898  0.5387 -0.1282  0.5354
  228MOL0     C30686   5.677   7.794   9.014 -1.2459 -1.1028  0.5290
  228MOL0     C30687   5.649   7.643   8.995 -0.3856  0.8056 -0.0524
  228MOL0     C30688   5.720   7.581   8.880  0.6169  0.2708  0.0603
  228MOL0    Cl30689   5.899   7.610   8.890  0.0333  0.5604  0.1764
  228MOL0     C30690   5.061   8.191   8.528  1.2846  0.2588  0.4480
  228MOL0     C30691   4.960   8.254   8.445 -0.5777 -0.4268  0.0579
  228MOL0     O30692   4.758   8.457   8.474 -0.2972 -0.2403  0.1942
  228MOL0     C30693   4.502   8.539   8.409 -0.6013 -0.6445  0.4776
  228MOL0     C30694   4.401   8.600   8.343  0.4222 -0.9929 -0.0284
  228MOL0     N30695   4.205   8.818   7.649  0.2675  0.2548  0.9108
  228MOL0     N30696   4.226   8.838   7.526 -0.3849  0.0194 -0.1913
  228MOL0     C30697   4.123   9.462   6.513 -0.7230 -0.0311  0.2347
  228MOL0     C30698   4.137   9.524   6.382 -0.1641  0.5383  0.3424
  228MOL0     C30699   4.274   9.774   6.054 -0.2485  0.4331  0.7486
  228MOL0     C30700   4.403   9.759   6.008  0.1014 -0.2997 -0.3276
  228MOL0     C30701   4.435   9.780   5.876  0.2148 -0.4196  0.3736
  228MOL0     C30702   4.339   9.821   5.774 -0.5997  0.5725 -0.8520
  228MOL0     O30703   4.379   9.848   5.638 -0.2470 -0.3583 -0.0756
  228MOL0     C30704   4.345   9.983   5.602  0.0795  0.0884  0.3493
  228MOL0     C30705   4.286   9.992   5.465  0.2654  0.2504  0.2588
  228MOL0     C30706   4.383   9.927   5.359  0.1722  0.1278 -0.3952
  228MOL0     C30707   4.344   9.942   5.214  0.9883  0.4845  0.4309
  228MOL0     C30708   4.320  10.078   5.164 -0.1892  0.4700 -1.0673
  228MOL0     C30709   4.286  10.186   5.120  0.8443 -0.9318  0.4332
  228MOL0     C30710   4.212   9.823   5.823  0.3572  0.6059  0.9623
  228MOL0     C30711   4.174   9.784   5.956 -1.9746  0.0735  0.2028
  228MOL0     C30712   4.031   9.774   5.996 -0.0921 -0.8463  0.0003
  228MOL0     H30713   4.469   9.537   6.387 -0.8363  1.2718 -1.1450
  228MOL0     H30714   4.456   9.435   6.599 -1.0528 -1.9686  2.5170
  228MOL0     H30715   4.367   9.257   6.707  1.8755  2.1165 -0.3021
  228MOL0     H30716   4.368   9.400   6.797  1.3684 -1.4579 -1.6646
  228MOL0     H30717   4.214   9.321   6.972 -3.3005 -0.9401 -2.6823
  228MOL0     H30718   4.359   9.214   6.960 -0.0686  0.4737  1.2476
  228MOL0     H30719   4.128   9.147   6.794 -2.3397 -0.7320  2.4277
  228MOL0     H30720   4.083   9.133   6.953 -1.0942 -1.0126 -0.2837
  228MOL0     H30721   4.185   8.922   6.842 -1.6354  0.7671 -0.2353
  228MOL0     H30722   4.338   9.009   6.854 -1.6956  1.2646 -1.3523
  228MOL0     H30723   4.333   8.867   7.051  1.6422  0.1319  1.5359
  228MOL0     H30724   4.270   9.023   7.109 -0.6085  0.8627 -2.1490
  228MOL0     H30725   4.031   8.944   7.084  1.3791  2.8934  0.5676
  228MOL0     H30726   4.097   8.794   7.034  2.9601 -0.4174  0.4761
  228MOL0     H30727   4.202   8.774   7.263 -0.8451 -1.2658 -0.5261
  228MOL0     H30728   4.028   8.772   7.265  0.4186 -0.8665 -3.3557
  228MOL0     H30729   4.169   9.032   7.311 -0.4732  0.1682 -0.0855
  228MOL0     H30730   3.999   9.014   7.340  0.9686  2.0622  1.6494
  228MOL0     H30731   3.927   8.972   7.575  0.3005  1.1537 -0.1721
  228MOL0     H30732   4.024   8.964   7.863  1.2269  0.4140 -0.2772
  228MOL0     H30733   3.914   8.841   7.801 -0.1872  2.2409 -0.8968
  228MOL0     H30734   3.999   8.734   7.992 -1.6221  2.3419 -0.5468
  228MOL0     H30735   4.068   8.661   7.850 -3.6012 -2.2461  2.5131
  228MOL0     H30736   4.175   8.865   8.058 -0.4607 -2.8190  2.7240
  228MOL0     H30737   4.254   8.863   7.909  0.4702  0.6226  0.4585
  228MOL0     H30738   4.392   8.707   8.041  0.2307 -0.6617 -0.5902
  228MOL0     H30739   4.293   8.600   7.944  1.6124  0.5152 -0.8964
  228MOL0     H30740   4.391   8.417   8.062  1.1112  0.8045 -1.0955
  228MOL0     H30741   4.585   8.324   8.164 -1.2053  1.6849 -3.3218
  228MOL0     H30742   4.714   8.013   8.467 -0.3191 -0.8646  1.3869
  228MOL0     H30743   4.898   7.901   8.595  1.5135 -0.4572  1.7086
  228MOL0     H30744   5.316   8.022   8.630 -0.1182  5.1635 -1.3964
  228MOL0     H30745   5.222   8.134   8.746 -2.4877 -1.4171  0.9603
  228MOL0     H30746   5.201   7.958   8.899 -3.4046  0.8188 -2.0700
  228MOL0     H30747   5.276   7.841   8.789  0.3906  1.5653 -4.3460
  228MOL0     H30748   5.457   8.066   8.851  1.4158  0.5787  1.0901
  228MOL0     H30749   5.407   7.971   8.982  0.4569  2.4021 -0.3833
  228MOL0     H30750   5.539   7.886   8.710 -2.4171  0.6895  0.0918
  228MOL0     H30751   5.483   7.770   8.842 -1.9579  0.1233 -1.3084
  228MOL0     H30752   5.662   7.995   8.941 -0.6631  0.4380 -0.6186
  228MOL0     H30753   5.748   7.883   8.834  0.8001  1.0312  0.6611
  228MOL0     H30754   5.778   7.807   9.055 -2.0694 -1.5723  2.8498
  228MOL0     H30755   5.619   7.830   9.100 -2.3964  0.3992 -0.8312
  228MOL0     H30756   5.541   7.626   8.998 -0.1902 -0.4497  0.8467
  228MOL0     H30757   5.694   7.595   9.083 -0.7507  0.0486 -0.2731
  228MOL0     H30758   5.689   7.476   8.880 -0.9996  0.7195 -0.3103
  228MOL0     H30759   5.690   7.621   8.783 -0.7449  1.5829  0.9650
  228MOL0     H30760   5.149   8.255   8.535  0.9296  1.1007 -2.0987
  228MOL0     H30761   4.974   8.357   8.413 -0.7053  0.0674  1.5128
  228MOL0     H30762   4.534   8.555   8.511 -0.4733  0.0050  0.3400
  228MOL0     H30763   4.341   8.675   8.394  0.9138 -0.1164 -0.7266
  228MOL0     H30764   4.021   9.446   6.547 -0.7649 -0.0767  0.0891
  228MOL0     H30765   4.052   9.537   6.315 -0.4760  1.1239  0.8430
  228MOL0     H30766   4.491   9.724   6.061  0.3860 -2.4927 -2.0687
  228MOL0     H30767   4.537   9.786   5.839 -0.1780 -1.7137 -0.9994
  228MOL0     H30768   4.438  10.040   5.611 -0.3390  0.5163  2.6953
  228MOL0     H30769   4.273  10.025   5.672  0.1201  0.1764  0.3380
  228MOL0     H30770   4.274  10.095   5.431  1.9212  0.7867  1.1650
  228MOL0     H30771   4.184   9.954   5.460 -0.4378  2.0593  0.1192
  228MOL0     H30772   4.406   9.822   5.383 -1.6257 -0.3113 -0.4896
  228MOL0     H30773   4.480   9.977   5.364  0.6153 -0.7238 -0.2415
  228MOL0     H30774   4.425   9.903   5.152  2.2032  4.4543 -0.7712
  228MOL0     H30775   4.246   9.894   5.203  1.2252 -0.2509  1.4830
  228MOL0     H30776   4.256  10.281   5.083  0.2016 -0.4823  2.0138
  228MOL0     H30777   4.132   9.849   5.755  0.6710  4.4785  1.8625
  228MOL0     H30778   3.987   9.851   6.060 -2.7624 -1.9601 -0.3489
  228MOL0     H30779   3.963   9.763   5.910 -0.6080 -2.6482  0.5898
  228MOL0     H30780   4.019   9.682   6.054 -4.9648 -0.4840  0.0272
  229MOL0     O30781   4.244   3.244   0.005 -0.3897 -0.0005  0.1631
  229MOL0     C30782   4.133   3.238  -0.047  0.6414 -0.3369  0.9452
  229MOL0     O30783   4.058   3.124  -0.071  0.6166 -0.1772 -0.1409
  229MOL0     C30784   4.112   2.999  -0.061 -0.3798 -0.1146 -0.4377
  229MOL0     C30785   4.023   2.908  -0.128  0.0867 -0.4249 -0.6101
  229MOL0     C30786   4.057   2.774  -0.162  0.5362  0.2575  0.6616
  229MOL0     C30787   4.177   2.722  -0.125  0.7795  0.0900  0.4896
  229MOL0     O30788   4.210   2.599  -0.167  0.6770  0.2935  0.0873
  229MOL0     C30789   4.348   2.554  -0.154 -0.3598  0.4666 -0.1287
  229MOL0     C30790   4.372   2.431  -0.245  0.4484  0.4865 -0.0585
  229MOL0     C30791   4.325   2.461  -0.393  0.0373  0.3848 -0.4961
  229MOL0     C30792   4.382   2.359  -0.498  0.0139 -0.3815  0.4766
  229MOL0     C30793   4.338   2.216  -0.492  0.2343  0.9254  0.1753
  229MOL0     C30794   4.188   2.183  -0.547 -0.0533  0.1890  0.4356
  229MOL0     C30795   4.135   2.045  -0.492 -0.6829 -0.0063  0.1369
  229MOL0     C30796   3.998   2.011  -0.538 -0.0602 -0.2416  0.0538
  229MOL0     N30797   3.905   2.114  -0.487 -0.2539  1.5960 -0.4898
  229MOL0     C30798   3.868   2.230  -0.543  0.0868 -0.3886 -0.7399
  229MOL0     C30799   3.769   2.284  -0.464  0.3504 -0.6047 -0.5846
  229MOL0     C30800   3.687   2.412  -0.485 -0.0369  0.2590  1.3267
  229MOL0     C30801   3.537   2.396  -0.505  0.7033 -0.0601 -0.8642
  229MOL0     C30802   3.492   2.298  -0.624  0.1158  0.3143 -0.4095
  229MOL0     C30803   3.493   2.369  -0.770  0.0589  0.3804 -0.6800
  229MOL0     O30804   3.454   2.288  -0.880 -0.4746  0.1967  0.8961
  229MOL0     C30805   3.444   2.344  -1.006  0.5176 -0.6242 -0.3668
  229MOL0     C30806   3.436   2.478  -1.036  1.0348 -0.0408  0.0790
  229MOL0     C30807   3.435   2.524  -1.172  0.5550 -0.3690  0.0729
  229MOL0     C30808   3.464   2.437  -1.277 -1.0754 -0.0472  1.0246
  229MOL0     C30809   3.469   2.485  -1.420 -0.1988  0.2058  0.2003
  229MOL0     O30810   3.437   2.611  -1.438 -0.6560  0.2331  0.2078
  229MOL0     C30811   3.453   2.686  -1.560 -0.5665  0.0842 -0.4452
  229MOL0     C30812   3.511   2.812  -1.557 -0.2673 -1.1949  0.5927
  229MOL0     C30813   3.507   2.881  -1.678 -0.5128  0.3217  0.1187
  229MOL0     C30814   3.456   2.824  -1.789 -0.1164  0.5044 -1.1776
  229MOL0     O30815   3.479   2.874  -1.914  0.5152 -0.3568  0.0730
  229MOL0     C30816   3.396   2.979  -1.941  1.0216  0.0416 -0.3472
  229MOL0     C30817   3.246   2.956  -1.927 -0.2666  0.4467 -1.2530
  229MOL0     C30818   3.188   2.832  -2.007  0.8818  0.8573 -0.1399
  229MOL0     C30819   3.064   2.748  -1.943 -0.8643 -0.4226 -0.2803
  229MOL0     C30820   2.994   2.672  -2.053 -0.2438  1.2380  0.2341
  229MOL0     C30821   3.043   2.527  -2.087  0.4909 -0.3442 -0.0621
  229MOL0     C30822   3.030   2.431  -1.961 -0.2353 -0.5063  0.3450
  229MOL0     C30823   3.070   2.285  -1.997 -0.1881  0.1989  0.1188
  229MOL0    Cl30824   2.969   2.218  -2.122  0.0074 -0.1722 -0.0210
  229MOL0     C30825   3.413   2.691  -1.791 -0.1833  1.0454  0.3981
  229MOL0     C30826   3.399   2.621  -1.677  0.0284  1.1288  0.3078
  229MOL0     O30827   3.505   2.402  -1.511  0.0261  0.3448  0.4607
  229MOL0     C30828   3.470   2.308  -1.241 -0.0526 -1.0235  0.3984
  229MOL0     C30829   3.448   2.260  -1.117  0.3161 -0.2279 -0.7790
  229MOL0     N30830   3.760   2.203  -0.356  0.0561  0.1389 -0.0600
  229MOL0     N30831   3.834   2.099  -0.370 -0.2348 -0.8219 -0.1946
  229MOL0     C30832   4.269   2.806  -0.058  0.7126 -0.1723  0.0649
  229MOL0     C30833   4.241   2.950  -0.040  0.2266 -0.7693 -0.4314
  229MOL0     C30834   4.081   3.370  -0.100 -0.3559 -0.1567  0.7350
  229MOL0     C30835   4.168   3.463  -0.161  0.5364 -1.0404 -0.6820
  229MOL0     C30836   4.122   3.579  -0.227  0.5525  0.3399 -0.4046
  229MOL0     C30837   3.981   3.615  -0.220 -0.8069  0.1567 -0.0755
  229MOL0     O30838   3.935   3.728  -0.276 -0.9486 -0.1254  0.7376
  229MOL0     C30839   3.829   3.712  -0.371  0.1193 -0.2492 -0.7750
  229MOL0     C30840   3.719   3.817  -0.338 -0.7780  1.2464  0.0153
  229MOL0     C30841   3.653   3.788  -0.205  0.3011 -0.3981 -0.3241
  229MOL0     C30842   3.567   3.910  -0.166  0.6277  1.0478 -0.5108
  229MOL0     C30843   3.649   4.026  -0.132 -0.5653 -0.1713  0.2112
  229MOL0     C30844   3.713   4.120  -0.087  0.4879 -0.0904 -0.9344
  229MOL0     C30845   3.891   3.534  -0.151 -0.8019  0.5087  0.0846
  229MOL0     C30846   3.936   3.400  -0.106  0.2792 -1.2502 -0.8818
  229MOL0     C30847   3.828   3.310  -0.048  0.0891 -0.2180  0.6826
  229MOL0     H30848   3.931   2.954  -0.162 -0.4732 -0.5769  0.6369
  229MOL0     H30849   3.984   2.710  -0.210  0.7278 -0.9162  1.8802
  229MOL0     H30850   4.422   2.630  -0.180  0.7970  0.0686  1.7935
  229MOL0     H30851   4.373   2.522  -0.052 -0.7351 -3.5820 -1.1626
  229MOL0     H30852   4.328   2.343  -0.198  2.7810  0.2263  1.8461
  229MOL0     H30853   4.481   2.415  -0.247  0.6147  0.6692  2.8070
  229MOL0     H30854   4.377   2.553  -0.423  4.9921 -1.5135  1.1555
  229MOL0     H30855   4.216   2.468  -0.397 -0.2294  0.5285  3.3585
  229MOL0     H30856   4.361   2.401  -0.597  1.5714  1.9061  1.0533
  229MOL0     H30857   4.491   2.357  -0.494  0.0425  1.2216  1.2913
  229MOL0     H30858   4.412   2.163  -0.552 -0.6229  1.3249 -1.3066
  229MOL0     H30859   4.338   2.177  -0.390 -0.7672  0.0260 -0.1506
  229MOL0     H30860   4.121   2.263  -0.515 -2.6243 -1.6654 -0.0532
  229MOL0     H30861   4.197   2.178  -0.656  3.5743  2.9941  0.4008
  229MOL0     H30862   4.136   2.050  -0.383 -0.6695 -0.5097  0.1607
  229MOL0     H30863   4.199   1.965  -0.530  0.7410  1.4044 -0.5545
  229MOL0     H30864   3.973   1.996  -0.643 -0.6504 -0.5565  0.2321
  229MOL0     H30865   3.964   1.916  -0.495 -3.8467  0.6498 -0.6232
  229MOL0     H30866   3.900   2.279  -0.634 -4.9761 -0.6426 -3.0108
  229MOL0     H30867   3.714   2.476  -0.401 -1.8741  0.4882  1.7711
  229MOL0     H30868   3.738   2.464  -0.567 -1.0723  0.3192  0.7042
  229MOL0     H30869   3.509   2.363  -0.404 -2.1059  0.0487 -1.5067
  229MOL0     H30870   3.489   2.493  -0.522 -1.3564 -0.6914  0.9291
  229MOL0     H30871   3.389   2.264  -0.614 -0.2992  1.7982  0.8167
  229MOL0     H30872   3.557   2.210  -0.629  0.0866  0.3353 -1.2296
  229MOL0     H30873   3.596   2.407  -0.779  1.2816 -2.1308  1.4557
  229MOL0     H30874   3.423   2.453  -0.767 -0.3768  0.0614 -1.5396
  229MOL0     H30875   3.419   2.558  -0.965  1.7492 -0.5104  0.7938
  229MOL0     H30876   3.402   2.627  -1.184 -0.1884 -0.7835 -1.8715
  229MOL0     H30877   3.548   2.868  -1.472 -4.3868  1.5604  0.8507
  229MOL0     H30878   3.547   2.981  -1.681 -0.2282  0.1914 -1.2146
  229MOL0     H30879   3.415   3.055  -1.865  0.0177 -1.7429  1.7657
  229MOL0     H30880   3.416   3.020  -2.041 -0.3702 -1.9601 -1.5315
  229MOL0     H30881   3.221   2.929  -1.823  0.9540 -1.1805 -1.3492
  229MOL0     H30882   3.185   3.040  -1.962 -1.2727  1.5341  2.5986
  229MOL0     H30883   3.165   2.861  -2.110 -1.4430  0.7908  0.3015
  229MOL0     H30884   3.256   2.747  -2.006  1.9955  1.7016 -1.2555
  229MOL0     H30885   2.997   2.814  -1.887 -0.9350 -1.8810  1.4418
  229MOL0     H30886   3.103   2.686  -1.862 -0.3926  0.4371  0.1597
  229MOL0     H30887   2.985   2.740  -2.139 -0.5886 -0.5544 -1.1949
  229MOL0     H30888   2.893   2.658  -2.016  1.0743 -1.9386  3.2277
  229MOL0     H30889   2.971   2.487  -2.159  0.6028 -0.2370 -0.2338
  229MOL0     H30890   3.145   2.532  -2.126  0.9171 -1.9590  0.7562
  229MOL0     H30891   2.927   2.428  -1.922 -0.0032 -0.2023  0.9980
  229MOL0     H30892   3.096   2.469  -1.883 -2.2098  2.6265  0.6795
  229MOL0     H30893   3.169   2.282  -2.044 -0.1512  0.0872  0.2015
  229MOL0     H30894   3.061   2.224  -1.907 -0.5995 -2.1898 -1.4657
  229MOL0     H30895   3.383   2.637  -1.880  1.9259  0.5738 -0.0922
  229MOL0     H30896   3.373   2.515  -1.678 -0.0581  1.1360 -1.5099
  229MOL0     H30897   3.470   2.228  -1.314 -3.2894  0.4175 -1.3970
  229MOL0     H30898   3.442   2.152  -1.101  2.9788 -0.1172  1.8091
  229MOL0     H30899   4.367   2.762  -0.042  0.0452 -1.8930 -0.2916
  229MOL0     H30900   4.318   3.018  -0.004 -1.3574  0.3582  1.0287
  229MOL0     H30901   4.272   3.432  -0.164  1.2019 -0.2677  4.7530
  229MOL0     H30902   4.185   3.651  -0.278  1.7946 -1.0901 -0.9477
  229MOL0     H30903   3.790   3.612  -0.391  0.1573  0.0026 -2.2400
  229MOL0     H30904   3.880   3.736  -0.465  0.0473  1.9113 -0.3187
  229MOL0     H30905   3.638   3.829  -0.411 -1.1435  0.3748  0.2560
  229MOL0     H30906   3.775   3.910  -0.342 -1.1115  1.4130 -0.9238
  229MOL0     H30907   3.724   3.771  -0.124 -0.1331  1.9121  0.6211
  229MOL0     H30908   3.593   3.697  -0.218 -0.5518 -0.0729  1.0515
  229MOL0     H30909   3.500   3.949  -0.244  0.1766  0.0662 -0.6264
  229MOL0     H30910   3.505   3.888  -0.079 -1.0411  2.4048 -1.2773
  229MOL0     H30911   3.755   4.199  -0.027 -0.0558 -1.6552  1.6928
  229MOL0     H30912   3.792   3.572  -0.128 -1.3110 -0.7972  0.1317
  229MOL0     H30913   3.807   3.220  -0.105 -0.4365 -0.3865  1.1300
  229MOL0     H30914   3.856   3.277   0.053  1.4361 -1.5093 -0.0673
  229MOL0     H30915   3.739   3.372  -0.032 -0.1399 -0.6956  1.3121
  230MOL0     O30916   2.101   8.346  10.505 -0.8793 -0.1148  0.4183
  230MOL0     C30917   2.110   8.422  10.599 -0.2434 -0.5807 -0.1488
  230MOL0     O30918   2.149   8.390  10.724 -0.6679 -0.0242  0.1726
  230MOL0     C30919   2.118   8.262  10.755 -0.1990 -0.1837 -0.6502
  230MOL0     C30920   1.984   8.218  10.761 -0.0133 -0.6398 -0.3535
  230MOL0     C30921   1.958   8.091  10.792  0.5231 -0.4939  0.3782
  230MOL0     C30922   2.054   7.986  10.815  1.1499 -0.0612  0.8734
  230MOL0     O30923   2.028   7.862  10.856 -0.0089  0.7915 -0.8145
  230MOL0     C30924   1.940   7.855  10.968 -0.4217 -0.2284  0.3767
  230MOL0     C30925   1.874   7.714  10.982  0.8670 -0.0852 -0.4444
  230MOL0     C30926   1.796   7.715  11.115  0.4678  0.8849  0.2772
  230MOL0     C30927   1.723   7.574  11.112  0.5711 -0.5276 -0.0304
  230MOL0     C30928   1.632   7.562  11.228 -0.1608 -0.1771 -0.0192
  230MOL0     C30929   1.713   7.532  11.359  0.4762 -0.3948  0.0160
  230MOL0     C30930   1.618   7.584  11.470 -1.0612  0.2326  0.3707
  230MOL0     C30931   1.661   7.548  11.610 -0.0957  0.4109 -0.0011
  230MOL0     N30932   1.687   7.395  11.617  0.3407 -0.5683 -0.5185
  230MOL0     C30933   1.578   7.313  11.645 -0.2810  0.2154  0.3237
  230MOL0     C30934   1.640   7.202  11.666 -0.1758 -0.4765  0.2152
  230MOL0     C30935   1.560   7.073  11.665 -0.4389 -0.6139  0.2127
  230MOL0     C30936   1.561   7.014  11.530  0.0691  0.9266  0.1049
  230MOL0     C30937   1.701   6.948  11.501  0.3932  0.0932  0.0020
  230MOL0     C30938   1.689   6.848  11.385 -0.0552  0.2007  0.1841
  230MOL0     O30939   1.631   6.906  11.269 -0.0269 -0.3620  0.0703
  230MOL0     C30940   1.616   6.823  11.160 -0.5837  0.2972 -0.9718
  230MOL0     C30941   1.535   6.860  11.059  0.8464  0.3760  0.8863
  230MOL0     C30942   1.527   6.790  10.934 -0.1144 -0.4672 -0.6112
  230MOL0     C30943   1.589   6.664  10.918 -0.1958  0.5490  0.7820
  230MOL0     C30944   1.597   6.602  10.786  1.3784 -0.1866 -0.3823
  230MOL0     O30945   1.589   6.698  10.678 -0.5644 -0.1468 -0.9054
  230MOL0     C30946   1.561   6.638  10.558 -0.3033  0.3137  0.1858
  230MOL0     C30947   1.431   6.642  10.509 -0.3554  0.2502 -0.1243
  230MOL0     C30948   1.403   6.570  10.392 -0.7391 -0.6363  0.6610
  230MOL0     C30949   1.501   6.501  10.317 -0.3400 -0.0667 -0.1006
  230MOL0     O30950   1.484   6.428  10.202 -0.0277  0.8364 -0.8243
  230MOL0     C30951   1.456   6.291  10.233  0.0296  0.3569  0.1645
  230MOL0     C30952   1.579   6.197  10.223 -0.2563 -0.4207  0.9214
  230MOL0     C30953   1.527   6.061  10.256 -1.1042 -0.1844 -0.2239
  230MOL0     C30954   1.639   5.957  10.232  0.2256  0.1115  0.8538
  230MOL0     C30955   1.599   5.811  10.261  0.3373  0.6433  0.4258
  230MOL0     C30956   1.492   5.740  10.166 -0.1090 -0.3108  1.0388
  230MOL0     C30957   1.506   5.770  10.013 -0.0949 -0.0803  1.1998
  230MOL0     C30958   1.429   5.681   9.924  0.0262 -0.4820  0.2227
  230MOL0    Cl30959   1.258   5.737   9.916  0.0419 -0.3307  0.5314
  230MOL0     C30960   1.628   6.496  10.368  0.4396 -0.1770  0.2857
  230MOL0     C30961   1.661   6.558  10.494  0.3762  0.7096  0.1919
  230MOL0     O30962   1.595   6.477  10.780 -0.2212 -0.1957  0.2434
  230MOL0     C30963   1.649   6.612  11.033  0.3592 -0.2876 -0.2802
  230MOL0     C30964   1.668   6.689  11.146  0.0390 -0.1040  0.7097
  230MOL0     N30965   1.778   7.210  11.661 -0.2746  0.2062 -0.6752
  230MOL0     N30966   1.804   7.332  11.629  0.0472 -0.3056 -0.4350
  230MOL0     C30967   2.184   8.035  10.805 -0.6406  0.3407  0.5207
  230MOL0     C30968   2.217   8.164  10.770  0.4728 -0.7972 -0.9023
  230MOL0     C30969   2.048   8.556  10.581 -0.7702 -0.8059 -0.4715
  230MOL0     C30970   1.932   8.553  10.514  0.4760  0.1411 -0.3295
  230MOL0     C30971   1.852   8.671  10.505  0.2999  0.3895 -1.1076
  230MOL0     C30972   1.897   8.787  10.569 -0.1727 -0.1766 -0.9501
  230MOL0     O30973   1.835   8.905  10.544  0.6812  0.3870 -0.1150
  230MOL0     C30974   1.717   8.910  10.621  0.2615 -0.3104 -0.0573
  230MOL0     C30975   1.667   9.053  10.624 -0.2393 -0.9980 -0.4490
  230MOL0     C30976   1.750   9.161  10.699  0.4465 -0.2757  0.3374
  230MOL0     C30977   1.800   9.108  10.838  0.4821 -0.1803 -1.5155
  230MOL0     C30978   1.690   9.068  10.925  0.1729 -0.1366 -0.2374
  230MOL0     C30979   1.626   9.016  11.014  1.0469 -0.6931  0.1642
  230MOL0     C30980   2.008   8.787  10.654 -1.1223 -0.3464  0.0716
  230MOL0     C30981   2.088   8.668  10.652  0.0826 -0.3166 -0.5875
  230MOL0     C30982   2.206   8.662  10.753 -0.3185 -0.5454  0.5512
  230MOL0     H30983   1.900   8.285  10.748  0.9392  0.8767  0.8729
  230MOL0     H30984   1.859   8.046  10.795  0.3320 -0.1098 -0.0465
  230MOL0     H30985   1.998   7.867  11.060  1.6647 -2.2800 -0.5788
  230MOL0     H30986   1.864   7.934  10.965  1.8944  2.0870 -1.8895
  230MOL0     H30987   1.954   7.641  10.975 -0.0768 -1.3796  1.2741
  230MOL0     H30988   1.802   7.701  10.900  2.5057 -0.8349 -1.8101
  230MOL0     H30989   1.730   7.801  11.119  0.2095  0.7043 -0.1055
  230MOL0     H30990   1.859   7.721  11.205 -0.8648  2.3018  1.1641
  230MOL0     H30991   1.660   7.571  11.023  2.2088  1.6194 -1.3704
  230MOL0     H30992   1.784   7.484  11.111 -2.3622 -2.6788 -1.7714
  230MOL0     H30993   1.571   7.652  11.240  0.9262  0.3893  1.5295
  230MOL0     H30994   1.573   7.471  11.214  3.3290 -2.2180 -3.6525
  230MOL0     H30995   1.740   7.426  11.360 -0.1409 -0.6644  3.6401
  230MOL0     H30996   1.806   7.589  11.367  0.4069 -0.2954  0.1190
  230MOL0     H30997   1.520   7.536  11.462  0.4599 -2.9572 -0.9004
  230MOL0     H30998   1.611   7.692  11.458 -1.9398  0.4382  2.2933
  230MOL0     H30999   1.754   7.603  11.629 -0.5816  0.2190  3.3872
  230MOL0     H31000   1.586   7.590  11.677 -1.2151  0.9505 -1.5240
  230MOL0     H31001   1.471   7.329  11.636 -0.0861  1.7441  0.3880
  230MOL0     H31002   1.602   7.011  11.745  2.4113  0.1779 -0.5577
  230MOL0     H31003   1.456   7.091  11.695 -0.8276 -2.2394 -0.0429
  230MOL0     H31004   1.481   6.942  11.514  0.3792  0.9823 -2.1125
  230MOL0     H31005   1.542   7.096  11.459 -1.9590  1.7595  1.5176
  230MOL0     H31006   1.744   6.907  11.593 -4.0097  0.6505  2.5387
  230MOL0     H31007   1.772   7.026  11.471 -1.5912  1.1801 -2.1261
  230MOL0     H31008   1.623   6.768  11.421 -0.3233  2.4487  5.8333
  230MOL0     H31009   1.786   6.810  11.350 -1.6494 -0.7101 -3.7485
  230MOL0     H31010   1.502   6.964  11.060  3.3128  1.3841 -2.8272
  230MOL0     H31011   1.461   6.825  10.855  0.2903 -0.4969 -0.9634
  230MOL0     H31012   1.366   6.696  10.576 -0.7432 -3.2411  2.6052
  230MOL0     H31013   1.302   6.566  10.352 -1.0709 -3.5807  1.5483
  230MOL0     H31014   1.395   6.280  10.323  0.7971  0.7223  0.7449
  230MOL0     H31015   1.387   6.256  10.156 -1.6614 -0.4267  1.9582
  230MOL0     H31016   1.628   6.199  10.125 -0.9790 -0.3398  0.5464
  230MOL0     H31017   1.652   6.224  10.299  0.0959 -0.4536  0.5951
  230MOL0     H31018   1.507   6.062  10.363 -1.1616  2.2015 -0.1909
  230MOL0     H31019   1.433   6.047  10.201 -3.1178 -0.4512  3.0642
  230MOL0     H31020   1.724   5.996  10.288 -0.0566 -2.2251  3.1469
  230MOL0     H31021   1.667   5.963  10.127  1.5788 -0.2605  1.1806
  230MOL0     H31022   1.558   5.797  10.361 -2.6050  0.0112 -0.7470
  230MOL0     H31023   1.690   5.751  10.247  1.6009  2.6313 -0.3094
  230MOL0     H31024   1.486   5.633  10.186 -2.1329 -0.7372 -1.3863
  230MOL0     H31025   1.393   5.784  10.183  0.0364  2.9122 -4.3099
  230MOL0     H31026   1.607   5.759   9.973 -1.0564 -2.3720 -0.8494
  230MOL0     H31027   1.468   5.872  10.002  2.2725  1.0321  2.5489
  230MOL0     H31028   1.468   5.683   9.822  2.2893  0.6595  1.0443
  230MOL0     H31029   1.446   5.581   9.966  1.6916 -0.2293  0.2106
  230MOL0     H31030   1.701   6.438  10.313 -1.1153 -1.4804 -0.4678
  230MOL0     H31031   1.760   6.542  10.535  0.8932 -4.2184 -2.2266
  230MOL0     H31032   1.679   6.508  11.026 -0.0906 -0.2952 -4.1028
  230MOL0     H31033   1.727   6.649  11.228  0.4647  0.9545  0.9472
  230MOL0     H31034   2.266   7.964  10.801 -3.1520 -2.7412 -0.8615
  230MOL0     H31035   2.317   8.205  10.772 -0.5896  1.9939  0.0257
  230MOL0     H31036   1.887   8.466  10.468 -0.1836 -0.3710  1.2030
  230MOL0     H31037   1.754   8.662  10.460 -1.1383 -0.9075  1.9514
  230MOL0     H31038   1.728   8.858  10.717  1.3703 -1.7560 -0.9232
  230MOL0     H31039   1.643   8.848  10.568 -0.0780  1.0622 -1.2504
  230MOL0     H31040   1.562   9.060  10.656 -0.6935 -1.1837 -1.8496
  230MOL0     H31041   1.673   9.083  10.519  1.9101 -0.1549 -0.1218
  230MOL0     H31042   1.688   9.246  10.728  3.0674  1.9308 -0.0525
  230MOL0     H31043   1.829   9.187  10.628  1.7066  0.4218  1.9155
  230MOL0     H31044   1.867   9.022  10.828 -0.0700 -0.6560 -1.2018
  230MOL0     H31045   1.846   9.188  10.895  0.0716 -0.4438 -0.8042
  230MOL0     H31046   1.568   8.976  11.094  2.5429 -1.8310  0.7338
  230MOL0     H31047   2.036   8.869  10.720 -3.1022  2.3567 -2.2199
  230MOL0     H31048   2.279   8.594  10.708 -1.1447 -0.1270 -1.4976
  230MOL0     H31049   2.252   8.762  10.749  2.0412 -1.5883 -0.9295
  230MOL0     H31050   2.174   8.640  10.855 -4.7510 -0.0496 -0.5324
  231MOL0     O31051   3.995   6.267   7.023 -1.0599 -0.2247 -1.1880
  231MOL0     C31052   4.046   6.178   6.950 -0.3004  0.1892 -0.0440
  231MOL0     O31053   4.071   6.045   6.978  0.0858 -0.9279  0.1533
  231MOL0     C31054   4.031   6.013   7.105  0.2257  0.5560  1.3165
  231MOL0     C31055   3.900   6.017   7.152  0.7992  0.0838 -0.3943
  231MOL0     C31056   3.878   5.997   7.283  0.5136 -0.8009  0.0733
  231MOL0     C31057   3.973   5.923   7.357 -0.2288  0.0576  0.6082
  231MOL0     O31058   3.944   5.871   7.476  0.6703  0.2698  0.0335
  231MOL0     C31059   3.887   5.965   7.579 -0.4391  0.1033  0.3657
  231MOL0     C31060   3.943   5.917   7.715 -0.1972 -0.4808 -0.7336
  231MOL0     C31061   4.100   5.927   7.729 -0.4425  0.9162  0.1399
  231MOL0     C31062   4.147   5.906   7.870 -1.1264 -0.0478 -0.4860
  231MOL0     C31063   4.306   5.920   7.854  0.2294  0.3237  0.6091
  231MOL0     C31064   4.372   6.000   7.969 -0.2233 -0.4699  0.5232
  231MOL0     C31065   4.522   5.992   7.946 -0.6488 -0.3024 -0.3542
  231MOL0     C31066   4.580   6.026   7.812 -0.9932 -0.1431 -0.1840
  231MOL0     N31067   4.684   6.131   7.813 -0.4470 -0.0582 -0.1575
  231MOL0     C31068   4.655   6.258   7.856  0.0613 -0.0645 -0.4683
  231MOL0     C31069   4.761   6.330   7.811  0.5570 -0.2073  0.6526
  231MOL0     C31070   4.774   6.482   7.810  0.3469  0.3269  0.1743
  231MOL0     C31071   4.753   6.539   7.668  0.3234 -0.2063  0.2889
  231MOL0     C31072   4.610   6.535   7.639  0.3786 -0.0307 -1.2805
  231MOL0     C31073   4.563   6.625   7.533  0.0869  0.9952  0.0407
  231MOL0     O31074   4.617   6.753   7.529  0.4533 -0.1705  0.4460
  231MOL0     C31075   4.549   6.850   7.461  0.2670  0.1458  0.0584
  231MOL0     C31076   4.564   6.983   7.522 -0.1796  0.0143 -0.9477
  231MOL0     C31077   4.515   7.092   7.461 -0.5796  1.0132  0.4319
  231MOL0     C31078   4.436   7.066   7.346  0.4522 -0.2906 -0.9423
  231MOL0     C31079   4.367   7.182   7.286  1.4203 -0.0975 -0.2119
  231MOL0     O31080   4.388   7.303   7.343  0.0169 -0.6779  0.4595
  231MOL0     C31081   4.324   7.412   7.280 -0.0622 -0.7748  0.6356
  231MOL0     C31082   4.383   7.498   7.187  0.2751  0.0253 -1.4553
  231MOL0     C31083   4.316   7.608   7.136  0.2719  0.1334 -0.4305
  231MOL0     C31084   4.186   7.632   7.170  0.7760  0.4180  0.5895
  231MOL0     O31085   4.115   7.730   7.102 -0.1859  0.2370 -0.1897
  231MOL0     C31086   4.055   7.684   6.984  0.4373  0.8260 -0.3440
  231MOL0     C31087   3.936   7.770   6.949 -0.1322 -0.1114 -0.0211
  231MOL0     C31088   3.839   7.794   7.064  0.2329 -0.5913 -0.0214
  231MOL0     C31089   3.760   7.683   7.131 -0.6050 -0.1708  0.4614
  231MOL0     C31090   3.683   7.601   7.025 -0.0458 -1.0905 -0.2978
  231MOL0     C31091   3.565   7.535   7.092 -0.8262  0.6233 -0.5380
  231MOL0     C31092   3.501   7.446   6.982 -0.2079  0.1639  0.2865
  231MOL0     C31093   3.353   7.431   6.996 -0.0118  0.4311  0.0139
  231MOL0    Cl31094   3.265   7.584   6.978 -0.1066 -0.0808 -0.1376
  231MOL0     C31095   4.117   7.544   7.257 -0.3630  0.2117  0.6937
  231MOL0     C31096   4.179   7.438   7.307 -1.2952  0.4369  0.2085
  231MOL0     O31097   4.293   7.162   7.184  0.4517 -0.5951  0.5075
  231MOL0     C31098   4.439   6.943   7.277  1.0317 -0.0835 -0.3196
  231MOL0     C31099   4.487   6.831   7.339  0.4194 -0.3715 -0.0080
  231MOL0     N31100   4.849   6.248   7.737 -0.9738  0.9222 -0.1844
  231MOL0     N31101   4.805   6.121   7.745  0.0204 -0.0772  0.4593
  231MOL0     C31102   4.105   5.906   7.307  0.2249 -0.3607  0.2713
  231MOL0     C31103   4.132   5.947   7.178  0.1808 -0.6170 -0.0912
  231MOL0     C31104   4.100   6.217   6.813  0.2497  0.6524 -0.2532
  231MOL0     C31105   4.202   6.138   6.750  0.5599  0.1714  0.7200
  231MOL0     C31106   4.242   6.154   6.616 -0.2680  0.2865 -0.3975
  231MOL0     C31107   4.192   6.256   6.536  0.1190  0.3610 -0.5693
  231MOL0     O31108   4.213   6.258   6.408 -0.3475 -0.7408  0.5376
  231MOL0     C31109   4.345   6.266   6.373  0.0537  0.0627  0.1280
  231MOL0     C31110   4.373   6.127   6.305 -0.3872  0.4515  0.5859
  231MOL0     C31111   4.311   6.118   6.162 -0.5075 -0.6764 -0.4341
  231MOL0     C31112   4.342   6.243   6.072  0.4459  0.1042 -0.5091
  231MOL0     C31113   4.485   6.273   6.065  0.6393 -0.2948  0.8850
  231MOL0     C31114   4.592   6.292   6.048  0.1117  0.0640  1.0832
  231MOL0     C31115   4.091   6.337   6.586  0.0917 -0.5740 -0.3991
  231MOL0     C31116   4.038   6.315   6.722 -0.2691 -0.2955  0.8288
  231MOL0     C31117   3.921   6.386   6.766  1.0896 -0.8657  0.4356
  231MOL0     H31118   3.817   6.062   7.098 -2.0468 -0.0155  3.5178
  231MOL0     H31119   3.788   6.037   7.328  0.2371  1.2955 -2.1826
  231MOL0     H31120   3.915   6.067   7.548 -1.2721  0.6652  1.4248
  231MOL0     H31121   3.778   5.970   7.571 -0.3315  2.3943 -0.6556
  231MOL0     H31122   3.918   5.811   7.723  1.9746 -1.2022 -2.2607
  231MOL0     H31123   3.897   5.976   7.795  4.5440  1.5263  0.8990
  231MOL0     H31124   4.140   6.010   7.669 -2.0153  0.5170 -1.5734
  231MOL0     H31125   4.145   5.845   7.672  2.1031  1.8644  0.6775
  231MOL0     H31126   4.111   5.983   7.939  0.0590 -1.2354  1.5810
  231MOL0     H31127   4.114   5.819   7.928  1.0399 -0.2823  0.4689
  231MOL0     H31128   4.333   5.815   7.865 -1.9170 -0.1789  1.5859
  231MOL0     H31129   4.334   5.960   7.757 -0.5498  0.5977  0.4894
  231MOL0     H31130   4.335   6.103   7.964 -2.8774 -1.3842 -1.5508
  231MOL0     H31131   4.347   5.954   8.065 -0.8828  1.5602  1.4037
  231MOL0     H31132   4.572   5.900   7.977  0.3465  0.4904  0.4522
  231MOL0     H31133   4.564   6.067   8.014  2.9833 -0.2026 -2.4779
  231MOL0     H31134   4.614   5.932   7.766  0.2737 -1.9232  3.8946
  231MOL0     H31135   4.504   6.071   7.748 -1.6680 -1.3350 -0.2547
  231MOL0     H31136   4.577   6.297   7.920  3.3326  3.6602  1.7197
  231MOL0     H31137   4.709   6.528   7.885  0.1883  0.1994  0.1151
  231MOL0     H31138   4.878   6.502   7.834  0.4217 -0.2701  0.3525
  231MOL0     H31139   4.788   6.643   7.669 -1.2625  0.3843 -0.8566
  231MOL0     H31140   4.815   6.490   7.593  0.2375  0.4863 -0.2458
  231MOL0     H31141   4.553   6.562   7.729  1.3141 -2.2825  0.0558
  231MOL0     H31142   4.586   6.431   7.618 -2.1981  0.7127 -2.4593
  231MOL0     H31143   4.454   6.627   7.529 -0.0453  2.2788  2.6011
  231MOL0     H31144   4.590   6.584   7.435  3.0163  2.0048  0.3311
  231MOL0     H31145   4.621   7.007   7.610  0.5979  3.6236 -2.2475
  231MOL0     H31146   4.543   7.189   7.501  1.0072  1.8109 -2.3515
  231MOL0     H31147   4.483   7.478   7.149  0.8392  1.7723 -0.9894
  231MOL0     H31148   4.371   7.672   7.068 -0.9625  1.1264 -0.5203
  231MOL0     H31149   4.123   7.680   6.899  1.5049 -1.2214  0.5526
  231MOL0     H31150   4.003   7.590   7.001  0.6191  0.9495  0.9634
  231MOL0     H31151   3.969   7.864   6.904 -0.3213 -0.3564 -0.6862
  231MOL0     H31152   3.867   7.722   6.878 -0.5713 -0.3353  0.5453
  231MOL0     H31153   3.888   7.846   7.146  0.6232  2.1163 -1.8417
  231MOL0     H31154   3.777   7.877   7.027  0.0026  0.9791  3.5190
  231MOL0     H31155   3.702   7.727   7.213  0.3637  0.3008  0.9080
  231MOL0     H31156   3.825   7.617   7.190  4.6715  2.5102 -1.6922
  231MOL0     H31157   3.743   7.523   6.976 -0.8145 -2.2233  0.5058
  231MOL0     H31158   3.646   7.669   6.948  1.5138  1.4153  1.0422
  231MOL0     H31159   3.594   7.464   7.171 -0.1930 -1.6911 -2.7208
  231MOL0     H31160   3.497   7.616   7.117 -1.8122  0.4568 -2.4949
  231MOL0     H31161   3.524   7.341   7.004  4.2435  1.4695  3.1727
  231MOL0     H31162   3.531   7.479   6.882  0.8731  0.6162  0.7514
  231MOL0     H31163   3.323   7.355   6.923 -2.0746  0.6130  0.6235
  231MOL0     H31164   3.336   7.387   7.094  2.9970 -1.4164 -0.1585
  231MOL0     H31165   4.024   7.574   7.305 -0.3962 -0.3712  0.9977
  231MOL0     H31166   4.147   7.376   7.390  1.3436 -0.1514  0.8844
  231MOL0     H31167   4.384   6.921   7.186  2.5320 -2.1801 -0.7923
  231MOL0     H31168   4.467   6.734   7.296 -0.3147 -0.4013  0.3814
  231MOL0     H31169   4.179   5.855   7.368 -2.3581 -2.6883  1.7395
  231MOL0     H31170   4.228   5.926   7.133  0.4551 -1.1944  0.7454
  231MOL0     H31171   4.241   6.054   6.806  1.4517 -2.6342 -3.6098
  231MOL0     H31172   4.311   6.089   6.564 -1.4322 -1.4612  0.1585
  231MOL0     H31173   4.408   6.281   6.462  1.4365 -2.6618 -0.3066
  231MOL0     H31174   4.352   6.350   6.302  0.8157  0.6164  0.8372
  231MOL0     H31175   4.334   6.047   6.370 -0.5616  1.2344  1.4585
  231MOL0     H31176   4.478   6.100   6.295 -0.5952 -0.3921  0.5687
  231MOL0     H31177   4.205   6.095   6.172 -0.3365 -1.1053  0.5305
  231MOL0     H31178   4.357   6.029   6.116  0.1931 -1.0524  0.9317
  231MOL0     H31179   4.309   6.206   5.974 -1.0843 -0.3297  0.1488
  231MOL0     H31180   4.289   6.332   6.106  1.7792  1.2454 -1.2732
  231MOL0     H31181   4.695   6.313   6.025  0.3050 -0.9174  0.9874
  231MOL0     H31182   4.037   6.396   6.513  1.2677 -0.0642 -0.8834
  231MOL0     H31183   3.899   6.392   6.873  0.9285 -2.4307  0.5126
  231MOL0     H31184   3.930   6.492   6.740  0.9522 -0.9646 -0.0202
  231MOL0     H31185   3.834   6.353   6.708  2.1135  0.7379 -2.2219
  232MOL0     O31186   0.315   0.888   9.808  0.1901  0.7196  0.7365
  232MOL0     C31187   0.357   0.774   9.808 -0.1487 -0.1401  0.2118
  232MOL0     O31188   0.358   0.696   9.920  0.2228  0.4644 -1.1844
  232MOL0     C31189   0.281   0.722  10.028  0.2701 -0.6639 -0.6821
  232MOL0     C31190   0.148   0.778  10.023 -0.0189  0.2215 -0.2270
  232MOL0     C31191   0.078   0.802  10.136 -0.6696  0.9354 -0.4566
  232MOL0     C31192   0.135   0.759  10.253 -0.6823 -0.0732 -0.5097
  232MOL0     O31193   0.060   0.771  10.369 -0.6136  0.2014 -0.3150
  232MOL0     C31194   0.049   0.658  10.450 -0.4537  0.2465 -0.4029
  232MOL0     C31195  -0.004   0.680  10.588  0.0575  0.0900 -1.3314
  232MOL0     C31196  -0.159   0.686  10.587 -0.0335 -0.3466  0.1420
  232MOL0     C31197  -0.196   0.840  10.557 -0.9263  0.2297 -1.2818
  232MOL0     C31198  -0.348   0.850  10.555  0.4666 -0.6595  0.6864
  232MOL0     C31199  -0.423   0.844  10.685  0.1977 -0.0072 -0.9969
  232MOL0     C31200  -0.571   0.888  10.690  0.3152  0.2091  0.7899
  232MOL0     C31201  -0.644   0.784  10.606 -0.1775 -0.1287 -0.7194
  232MOL0     N31202  -0.639   0.652  10.673  1.0768  0.1357  0.3322
  232MOL0     C31203  -0.717   0.623  10.780 -0.5747 -0.8902 -0.4443
  232MOL0     C31204  -0.688   0.487  10.809 -0.4351  0.1702 -0.6372
  232MOL0     C31205  -0.725   0.401  10.926 -0.4816  0.5361  0.0644
  232MOL0     C31206  -0.869   0.345  10.903  0.3514  0.9988  0.7174
  232MOL0     C31207  -0.880   0.193  10.918  0.9878 -0.0489 -0.0748
  232MOL0     C31208  -1.023   0.132  10.914  0.0732 -0.1229  0.1621
  232MOL0     O31209  -1.011  -0.007  10.886 -0.6138 -0.2770 -0.1096
  232MOL0     C31210  -1.123  -0.073  10.877  0.4516  0.4172  0.8886
  232MOL0     C31211  -1.115  -0.206  10.843 -0.6026 -0.0597 -0.1298
  232MOL0     C31212  -1.217  -0.290  10.814  0.2218 -0.3950  0.5233
  232MOL0     C31213  -1.348  -0.251  10.815  0.7205  0.5123 -0.3186
  232MOL0     C31214  -1.460  -0.348  10.794  0.0212  0.4215 -0.3901
  232MOL0     O31215  -1.433  -0.475  10.736  0.5667 -0.3431 -0.0304
  232MOL0     C31216  -1.523  -0.576  10.724  0.2254  0.1543  0.2264
  232MOL0     C31217  -1.661  -0.575  10.750  1.0153  0.4137 -0.1414
  232MOL0     C31218  -1.730  -0.691  10.739  0.3313  0.6192 -0.6719
  232MOL0     C31219  -1.670  -0.807  10.704 -0.3260 -0.1372 -0.6471
  232MOL0     O31220  -1.735  -0.927  10.695  0.3240  0.1809  0.6806
  232MOL0     C31221  -1.844  -0.972  10.769  0.1963 -0.4819 -0.6844
  232MOL0     C31222  -1.890  -1.116  10.772 -0.3787 -0.6470 -1.2737
  232MOL0     C31223  -1.795  -1.213  10.844 -0.2322 -0.7764 -0.5348
  232MOL0     C31224  -1.652  -1.208  10.801 -0.6681  0.1633  0.0493
  232MOL0     C31225  -1.572  -1.338  10.847  0.0876 -0.0319  1.3759
  232MOL0     C31226  -1.426  -1.311  10.861 -0.0374  0.1666 -0.0551
  232MOL0     C31227  -1.348  -1.438  10.906 -0.7561 -1.4608 -0.2410
  232MOL0     C31228  -1.227  -1.451  10.831 -0.5770 -0.0097  0.3450
  232MOL0    Cl31229  -1.115  -1.309  10.854 -0.1408 -0.0804 -0.0689
  232MOL0     C31230  -1.534  -0.804  10.661 -0.6763 -0.2783 -0.2429
  232MOL0     C31231  -1.463  -0.689  10.671  0.1001  0.0206 -0.2813
  232MOL0     O31232  -1.564  -0.316  10.847  0.5795  0.7224  0.5365
  232MOL0     C31233  -1.373  -0.116  10.864 -1.0989 -0.3889  0.8576
  232MOL0     C31234  -1.260  -0.028  10.885 -0.2601  0.7664  0.7368
  232MOL0     N31235  -0.586   0.443  10.722  0.1357  0.2459 -0.6288
  232MOL0     N31236  -0.559   0.545  10.638 -0.6183  0.6079  0.2613
  232MOL0     C31237   0.264   0.707  10.265  0.3714  0.4491  0.4407
  232MOL0     C31238   0.342   0.682  10.147  0.3389  0.5925 -0.7797
  232MOL0     C31239   0.454   0.738   9.696  0.0451 -0.1165 -0.2619
  232MOL0     C31240   0.559   0.652   9.727 -0.5879  0.1776  0.7620
  232MOL0     C31241   0.657   0.606   9.632  0.6523  0.0010 -0.0325
  232MOL0     C31242   0.646   0.649   9.498  0.4340 -0.2038  0.0221
  232MOL0     O31243   0.735   0.594   9.415 -1.0452  0.1942 -0.5785
  232MOL0     C31244   0.704   0.592   9.270 -0.0866  1.0842 -0.4224
  232MOL0     C31245   0.753   0.715   9.199  0.0367 -0.1503  0.0810
  232MOL0     C31246   0.901   0.720   9.230  0.0262 -0.1783  0.6508
  232MOL0     C31247   0.993   0.619   9.170  0.4214 -0.5118  0.3510
  232MOL0     C31248   1.121   0.634   9.231  0.7908 -0.7283  0.0953
  232MOL0     C31249   1.229   0.637   9.278 -0.1137 -0.3104  1.0040
  232MOL0     C31250   0.549   0.747   9.470 -0.0406 -0.2307  0.2663
  232MOL0     C31251   0.450   0.794   9.561 -0.8548 -0.2448 -0.7841
  232MOL0     C31252   0.343   0.897   9.508  0.2447 -0.1638 -0.3249
  232MOL0     H31253   0.104   0.801   9.927 -0.5039  1.3973  0.2646
  232MOL0     H31254  -0.025   0.838  10.132 -0.6586  1.8257  3.4801
  232MOL0     H31255  -0.007   0.587  10.388 -1.4180  1.8164 -1.4024
  232MOL0     H31256   0.143   0.603  10.460 -0.1712  0.7130 -0.4547
  232MOL0     H31257   0.048   0.770  10.619  0.0968 -0.4971  0.3957
  232MOL0     H31258   0.022   0.604  10.662  0.9884  1.1046 -0.5861
  232MOL0     H31259  -0.206   0.664  10.682 -0.5974  1.6031  0.3524
  232MOL0     H31260  -0.195   0.616  10.510  1.9033 -0.5705 -0.6422
  232MOL0     H31261  -0.146   0.905  10.628  0.2967  0.6674 -2.5032
  232MOL0     H31262  -0.157   0.882  10.464 -2.0944  1.7079 -1.1501
  232MOL0     H31263  -0.361   0.953  10.521 -0.0219  0.2260  3.3648
  232MOL0     H31264  -0.393   0.776  10.488  1.0363 -1.8502  1.5813
  232MOL0     H31265  -0.412   0.741  10.720 -0.5476 -0.1417 -1.1371
  232MOL0     H31266  -0.374   0.915  10.753  0.8234 -0.4206 -1.0146
  232MOL0     H31267  -0.590   0.988  10.649 -0.4607  0.6772  2.2225
  232MOL0     H31268  -0.618   0.886  10.789 -0.4881 -1.2380  0.4017
  232MOL0     H31269  -0.749   0.812  10.594  0.0854  0.5488 -1.5646
  232MOL0     H31270  -0.599   0.775  10.507 -0.2451 -0.1489 -0.7489
  232MOL0     H31271  -0.766   0.702  10.836 -0.6642 -0.4606 -1.1237
  232MOL0     H31272  -0.656   0.316  10.925  2.2810  2.6183  0.6487
  232MOL0     H31273  -0.699   0.467  11.010  2.0843  0.4596 -0.6059
  232MOL0     H31274  -0.934   0.398  10.973  1.7389 -0.9427  3.6507
  232MOL0     H31275  -0.894   0.368  10.799 -1.5064 -2.3268  0.2971
  232MOL0     H31276  -0.845   0.174  11.019 -2.6276 -0.4426  1.2541
  232MOL0     H31277  -0.822   0.145  10.839  1.7322  0.9757 -0.1716
  232MOL0     H31278  -1.092   0.167  10.836 -1.4392 -2.1805  0.5116
  232MOL0     H31279  -1.074   0.152  11.008 -1.3188 -0.2909 -0.5367
  232MOL0     H31280  -1.021  -0.256  10.822 -0.6288 -0.1616 -0.0051
  232MOL0     H31281  -1.198  -0.387  10.769 -4.3835 -1.2521 -0.0456
  232MOL0     H31282  -1.715  -0.488  10.786  0.3268 -0.4100  0.8848
  232MOL0     H31283  -1.838  -0.695  10.745  0.2102 -2.5916 -2.7155
  232MOL0     H31284  -1.818  -0.960  10.875 -1.0887 -0.3745 -0.3594
  232MOL0     H31285  -1.928  -0.907  10.741  1.8414  2.1045 -0.0191
  232MOL0     H31286  -1.984  -1.120  10.829  0.2980  0.0533 -0.0696
  232MOL0     H31287  -1.917  -1.156  10.673  1.1586 -1.6741 -1.3055
  232MOL0     H31288  -1.808  -1.207  10.953 -2.5346  3.2350 -0.8540
  232MOL0     H31289  -1.815  -1.318  10.820  1.4097 -1.2987  0.2512
  232MOL0     H31290  -1.591  -1.124  10.836  2.3052 -0.6850 -2.6484
  232MOL0     H31291  -1.649  -1.184  10.695 -2.4456  2.4886  0.4485
  232MOL0     H31292  -1.587  -1.413  10.768 -2.5587  1.4794  0.3183
  232MOL0     H31293  -1.623  -1.361  10.942 -0.7008 -0.4469  0.8629
  232MOL0     H31294  -1.396  -1.276  10.762 -1.1186  3.0047  0.5546
  232MOL0     H31295  -1.416  -1.225  10.928  2.3818  0.3111 -0.5143
  232MOL0     H31296  -1.414  -1.523  10.886 -0.9441 -1.3548 -0.0690
  232MOL0     H31297  -1.332  -1.445  11.014  0.1118 -0.5006 -0.2924
  232MOL0     H31298  -1.171  -1.542  10.854 -2.4745 -1.4032 -0.2483
  232MOL0     H31299  -1.261  -1.471  10.729  2.9164  0.3591 -1.0137
  232MOL0     H31300  -1.490  -0.892  10.613  0.4246 -0.1600  0.5206
  232MOL0     H31301  -1.367  -0.680  10.622 -0.2305 -1.6536 -1.3174
  232MOL0     H31302  -1.474  -0.081  10.879 -1.0466  0.3410 -0.3714
  232MOL0     H31303  -1.272   0.076  10.916 -0.9209  0.8744  0.1606
  232MOL0     H31304   0.312   0.690  10.361 -1.3256  1.4839  1.5393
  232MOL0     H31305   0.440   0.637  10.153  0.3216  0.6938  3.6172
  232MOL0     H31306   0.574   0.618   9.829  0.7838 -1.5969  0.0318
  232MOL0     H31307   0.735   0.536   9.661 -1.4561 -1.6813  2.0186
  232MOL0     H31308   0.595   0.586   9.261  0.0134  0.8103 -1.5632
  232MOL0     H31309   0.736   0.499   9.222 -1.7221  1.9778 -3.5277
  232MOL0     H31310   0.698   0.802   9.237 -0.8030  1.9657 -5.1068
  232MOL0     H31311   0.733   0.709   9.091 -0.9900  1.7946  0.1008
  232MOL0     H31312   0.931   0.727   9.335  4.4380  2.5976 -0.5212
  232MOL0     H31313   0.938   0.813   9.186  2.0048 -1.0304  0.4020
  232MOL0     H31314   0.949   0.520   9.188 -0.5292  0.0418  1.1440
  232MOL0     H31315   1.000   0.637   9.062 -2.4345  1.1248  0.3584
  232MOL0     H31316   1.327   0.648   9.321  0.5615 -3.2088  0.3971
  232MOL0     H31317   0.527   0.790   9.373  0.0463 -1.3778 -0.2860
  232MOL0     H31318   0.374   0.925   9.407 -2.4841  0.7174 -1.0106
  232MOL0     H31319   0.239   0.864   9.498  0.8818 -2.9774  1.1071
  232MOL0     H31320   0.348   0.983   9.576 -1.4306 -1.8185  2.0492
  233MOL0     O31321   5.792   9.680  10.057  0.6465  0.5805  0.1024
  233MOL0     C31322   5.814   9.775   9.980  0.1730 -0.7177 -0.1538
  233MOL0     O31323   5.923   9.856   9.973  0.7514  0.6638  0.6018
  233MOL0     C31324   6.006   9.850  10.079  0.2223  0.4440  0.3335
  233MOL0     C31325   6.003   9.948  10.185 -0.4157  0.6735  0.3993
  233MOL0     C31326   6.090   9.941  10.301  0.9064  0.3614 -0.0799
  233MOL0     C31327   6.190   9.843  10.302  0.8361  0.1671  0.1117
  233MOL0     O31328   6.285   9.835  10.406  0.3300  0.1686 -0.8688
  233MOL0     C31329   6.248   9.887  10.537  0.4348 -0.3255  0.4303
  233MOL0     C31330   6.358   9.854  10.635 -0.3623 -0.2076  0.0727
  233MOL0     C31331   6.355   9.916  10.772 -0.6695 -0.4685 -0.2092
  233MOL0     C31332   6.414  10.063  10.775  0.3143  0.4343  0.0653
  233MOL0     C31333   6.489  10.100  10.908 -0.2370 -0.0755 -1.2659
  233MOL0     C31334   6.512  10.249  10.913 -0.0681 -0.3208  0.1272
  233MOL0     C31335   6.594  10.307  11.024  0.0578  0.1177 -0.2618
  233MOL0     C31336   6.626  10.452  10.992 -0.3796  0.9734 -0.1242
  233MOL0     N31337   6.744  10.470  10.900  0.5663  0.0234 -0.3270
  233MOL0     C31338   6.737  10.493  10.771 -0.5726  0.5404  0.3343
  233MOL0     C31339   6.857  10.491  10.717  1.1658  0.6173 -0.3957
  233MOL0     C31340   6.893  10.493  10.572 -0.0288 -0.1682 -0.3045
  233MOL0     C31341   6.930  10.641  10.530 -0.3482 -0.5665  0.1006
  233MOL0     C31342   7.001  10.666  10.395  0.7409  0.1401 -0.5581
  233MOL0     C31343   6.920  10.645  10.261 -0.3756  0.4133  0.3337
  233MOL0     O31344   6.821  10.753  10.263  0.1291 -0.3763  0.3265
  233MOL0     C31345   6.757  10.761  10.137  0.1822  0.9787  0.4411
  233MOL0     C31346   6.679  10.873  10.127 -0.4530 -0.2736 -0.4492
  233MOL0     C31347   6.591  10.891  10.021  0.3878  0.5383  1.3800
  233MOL0     C31348   6.585  10.791   9.919  0.0626  0.0292 -0.3050
  233MOL0     C31349   6.498  10.812   9.802  0.1979  0.0066  0.8106
  233MOL0     O31350   6.439  10.934   9.795 -0.4739  0.2704  0.5810
  233MOL0     C31351   6.365  10.968   9.684  1.1610 -0.3006 -0.3367
  233MOL0     C31352   6.236  11.024   9.696 -1.1732 -0.1823 -0.5331
  233MOL0     C31353   6.170  11.086   9.586  0.4867 -0.3772  0.1293
  233MOL0     C31354   6.216  11.086   9.457 -0.8287  0.2837  1.2737
  233MOL0     O31355   6.158  11.150   9.349  0.5905 -0.2688 -0.2770
  233MOL0     C31356   6.182  11.108   9.221  0.6327 -0.2239  0.5940
  233MOL0     C31357   6.112  11.199   9.124 -0.8343  0.6003 -0.6297
  233MOL0     C31358   6.151  11.342   9.147  0.3602  0.3793  0.4979
  233MOL0     C31359   6.072  11.425   9.046 -0.2478 -0.2123 -0.0112
  233MOL0     C31360   6.130  11.567   9.049 -0.5372 -0.2498 -0.6232
  233MOL0     C31361   6.103  11.649   8.925  0.0843 -0.4529  0.4965
  233MOL0     C31362   6.152  11.795   8.925  0.4691  0.0602 -0.5126
  233MOL0     C31363   6.115  11.880   9.043  0.3465 -0.3040  0.3027
  233MOL0    Cl31364   6.137  12.049   9.005  0.4696  0.4165 -0.5027
  233MOL0     C31365   6.344  11.013   9.438  0.3369 -0.1797  0.7139
  233MOL0     C31366   6.413  10.962   9.556 -0.5773 -0.6013  0.3579
  233MOL0     O31367   6.489  10.724   9.717  0.0282  0.2394  0.4242
  233MOL0     C31368   6.665  10.673   9.935 -0.5191  0.4000  0.2341
  233MOL0     C31369   6.756  10.657  10.041 -0.0132 -0.7370  0.8040
  233MOL0     N31370   6.948  10.483  10.826  0.7589 -0.4166 -0.3194
  233MOL0     N31371   6.869  10.470  10.934  0.5228  0.1663  0.8464
  233MOL0     C31372   6.187   9.739  10.204  0.4803 -0.1547  0.9947
  233MOL0     C31373   6.100   9.746  10.093  0.3791  0.3093  0.0186
  233MOL0     C31374   5.716   9.792   9.873 -0.3810 -0.3529  0.1156
  233MOL0     C31375   5.738   9.735   9.748  0.0413  0.0186 -0.2349
  233MOL0     C31376   5.649   9.757   9.637 -0.2289 -0.2849  0.2176
  233MOL0     C31377   5.547   9.863   9.651 -0.0554  0.2599 -0.9201
  233MOL0     O31378   5.463   9.905   9.547 -0.5134 -0.6674  0.3357
  233MOL0     C31379   5.480   9.851   9.421 -0.0633  0.2210  0.6549
  233MOL0     C31380   5.610   9.915   9.350 -0.4111 -0.4044  0.0218
  233MOL0     C31381   5.589  10.064   9.318 -0.3872 -0.4471  0.4301
  233MOL0     C31382   5.698  10.140   9.233 -0.2604  0.7086  1.4343
  233MOL0     C31383   5.841  10.145   9.285  0.9152  0.0620 -0.2716
  233MOL0     C31384   5.958  10.158   9.311  0.6201  0.4018 -0.1024
  233MOL0     C31385   5.536   9.930   9.782 -1.4716  0.3062  0.2320
  233MOL0     C31386   5.608   9.891   9.893 -1.2404  0.6957 -0.6913
  233MOL0     C31387   5.578   9.964  10.025  0.2428 -0.8065  0.0448
  233MOL0     H31388   5.940  10.036  10.197 -1.0655  0.2944 -0.1600
  233MOL0     H31389   6.074  10.021  10.373 -0.6475 -0.8718  1.0182
  233MOL0     H31390   6.259   9.996  10.536 -0.0530 -0.2488  1.7282
  233MOL0     H31391   6.147   9.859  10.567 -0.3896  0.4469 -1.4415
  233MOL0     H31392   6.452   9.872  10.582 -1.1880 -2.2921 -2.3137
  233MOL0     H31393   6.333   9.748  10.648  1.2177 -0.7031 -0.7442
  233MOL0     H31394   6.420   9.853  10.833 -1.3998 -0.9572  0.0901
  233MOL0     H31395   6.253   9.923  10.812 -2.2507 -2.0431 -3.6152
  233MOL0     H31396   6.483  10.067  10.691 -1.3138 -0.4985 -1.3853
  233MOL0     H31397   6.325  10.126  10.760 -0.5269 -0.3671  1.3897
  233MOL0     H31398   6.434  10.059  10.993  0.9449 -1.5710 -1.1964
  233MOL0     H31399   6.589  10.056  10.908  0.2399  0.8389  1.0326
  233MOL0     H31400   6.552  10.279  10.815  0.1678 -0.5825  0.1419
  233MOL0     H31401   6.411  10.289  10.922 -1.5776 -3.3175 -1.9468
  233MOL0     H31402   6.688  10.250  11.031 -0.5518 -1.2641 -2.4416
  233MOL0     H31403   6.545  10.295  11.121 -0.5411 -0.8057 -0.6630
  233MOL0     H31404   6.542  10.517  10.967  1.0503  2.7548 -0.5812
  233MOL0     H31405   6.658  10.495  11.088 -0.0535 -2.1846  1.2893
  233MOL0     H31406   6.647  10.493  10.710 -1.2135 -0.9593  1.2171
  233MOL0     H31407   6.976  10.422  10.568 -2.0275 -2.6500  0.0131
  233MOL0     H31408   6.805  10.450  10.524 -0.1471  0.3011 -0.5177
  233MOL0     H31409   6.841  10.703  10.540 -0.6527 -1.1475  1.1977
  233MOL0     H31410   6.985  10.685  10.614 -1.1347 -0.1243  0.3953
  233MOL0     H31411   7.096  10.615  10.381  1.6765  1.8273 -0.6510
  233MOL0     H31412   7.039  10.768  10.404  3.4225 -0.8121 -0.1574
  233MOL0     H31413   6.868  10.548  10.259 -3.1499  1.8151  0.0509
  233MOL0     H31414   6.985  10.647  10.173 -2.2931  3.4612 -1.1759
  233MOL0     H31415   6.684  10.935  10.216 -0.7899  4.5928 -3.4140
  233MOL0     H31416   6.512  10.966  10.022  0.7275  0.9032  1.0884
  233MOL0     H31417   6.196  11.035   9.797  1.2184 -0.2883  0.4963
  233MOL0     H31418   6.071  11.131   9.597  0.8100  0.4095 -0.1417
  233MOL0     H31419   6.286  11.098   9.191  0.5791  0.6378  0.1002
  233MOL0     H31420   6.142  11.007   9.207 -0.1495  0.4286 -2.7519
  233MOL0     H31421   6.123  11.172   9.019 -3.8108  0.2103 -0.9193
  233MOL0     H31422   6.006  11.190   9.150 -1.3077 -0.6352 -2.7609
  233MOL0     H31423   6.125  11.379   9.247 -2.7840 -0.3562  0.0647
  233MOL0     H31424   6.259  11.336   9.138  0.3504  1.9041 -1.2694
  233MOL0     H31425   5.965  11.440   9.063  0.5252  2.6294  3.6591
  233MOL0     H31426   6.089  11.393   8.943  0.4169  2.8616 -0.9730
  233MOL0     H31427   6.239  11.560   9.056 -0.4688  1.6755  1.4193
  233MOL0     H31428   6.087  11.619   9.135 -0.0591 -0.9678  0.0527
  233MOL0     H31429   6.142  11.599   8.836 -0.5665 -1.6606  0.8530
  233MOL0     H31430   5.994  11.641   8.915  0.2227 -1.1290 -0.6520
  233MOL0     H31431   6.099  11.840   8.840  1.6219  1.4107 -0.5486
  233MOL0     H31432   6.258  11.793   8.897  0.3599 -1.6522 -0.9482
  233MOL0     H31433   6.014  11.849   9.072  0.8364 -2.0809  0.2170
  233MOL0     H31434   6.173  11.850   9.130 -1.7301  0.7046  2.1231
  233MOL0     H31435   6.393  11.014   9.342 -0.8139  2.7415  0.0538
  233MOL0     H31436   6.514  10.932   9.533  0.3913  2.6803 -0.2017
  233MOL0     H31437   6.655  10.599   9.856  0.8935 -0.0467  0.4427
  233MOL0     H31438   6.819  10.569  10.050 -1.0627 -1.4182  1.7464
  233MOL0     H31439   6.258   9.657  10.205  2.4063  1.0923 -3.7511
  233MOL0     H31440   6.105   9.664  10.022  0.0048 -1.2797  1.7545
  233MOL0     H31441   5.812   9.656   9.742 -0.6819 -0.6688 -0.2416
  233MOL0     H31442   5.671   9.694   9.552 -0.3374 -2.2584  1.5779
  233MOL0     H31443   5.402   9.889   9.354  0.1345 -0.0692  0.2568
  233MOL0     H31444   5.471   9.742   9.424  0.2761  0.1890  0.5899
  233MOL0     H31445   5.627   9.856   9.260  0.0530  0.3743 -0.4136
  233MOL0     H31446   5.696   9.901   9.417 -0.7268 -3.6244 -0.1050
  233MOL0     H31447   5.584  10.109   9.417  2.4416 -3.8505  2.3861
  233MOL0     H31448   5.507  10.070   9.247  0.8015 -0.4393 -0.9910
  233MOL0     H31449   5.720  10.078   9.146  3.0043  2.7708  0.5914
  233MOL0     H31450   5.666  10.240   9.202  0.7694  0.7041  0.2835
  233MOL0     H31451   6.059  10.170   9.345 -0.1173  1.5945  1.8504
  233MOL0     H31452   5.465  10.010   9.797 -3.2609 -0.5557 -2.8144
  233MOL0     H31453   5.570   9.888  10.103 -0.9305 -0.4956  0.2510
  233MOL0     H31454   5.655  10.041  10.037 -1.7562  0.9594  2.6071
  233MOL0     H31455   5.474   9.997  10.032  0.2249 -0.9016  0.2332
  234MOL0     O31456   9.748   3.053   8.252 -0.1952  1.3906  0.1816
  234MOL0     C31457   9.664   2.973   8.214 -0.6831  0.2645 -0.5469
  234MOL0     O31458   9.651   2.942   8.085  0.0179  0.2560 -0.1204
  234MOL0     C31459   9.729   3.011   8.001  0.5157 -0.0984  0.5591
  234MOL0     C31460   9.844   2.952   7.944  0.1921  0.7330 -0.7153
  234MOL0     C31461   9.905   3.017   7.832  0.5053 -0.3742 -0.5053
  234MOL0     C31462   9.857   3.135   7.776 -0.0388 -0.8791 -0.1299
  234MOL0     O31463   9.909   3.182   7.663 -0.6213 -0.5917  0.1324
  234MOL0     C31464   9.822   3.193   7.552 -0.4758 -0.8547  0.0855
  234MOL0     C31465   9.898   3.172   7.416  0.0832  0.1548 -0.2271
  234MOL0     C31466   9.959   3.036   7.429 -0.0215  0.4080 -0.1314
  234MOL0     C31467  10.035   2.996   7.305 -0.0427 -0.4646 -0.0923
  234MOL0     C31468  10.015   2.847   7.286 -0.4238  0.9293  0.3457
  234MOL0     C31469   9.890   2.814   7.220 -0.5001  0.6384  0.2469
  234MOL0     C31470   9.873   2.669   7.174 -0.1548 -0.2494  0.2778
  234MOL0     C31471   9.939   2.574   7.272  0.6115  0.0409  0.3956
  234MOL0     N31472   9.868   2.567   7.398  0.4540  0.3430 -0.4786
  234MOL0     C31473   9.751   2.632   7.439  0.1901  0.4110  0.3414
  234MOL0     C31474   9.727   2.594   7.565  0.2148  0.6105  0.8429
  234MOL0     C31475   9.610   2.630   7.654 -0.0830 -0.4270  0.2930
  234MOL0     C31476   9.594   2.788   7.659 -0.1849 -0.4113 -0.1890
  234MOL0     C31477   9.466   2.838   7.739 -0.9860  0.8770  0.6531
  234MOL0     C31478   9.324   2.780   7.688 -0.8066  0.0947 -1.1776
  234MOL0     O31479   9.296   2.821   7.558  0.5828  0.2850 -0.6753
  234MOL0     C31480   9.306   2.729   7.457  0.6167  1.0204 -0.4452
  234MOL0     C31481   9.359   2.780   7.339 -0.1926  0.2467  0.3646
  234MOL0     C31482   9.407   2.697   7.242 -0.1499 -0.3529  0.3229
  234MOL0     C31483   9.398   2.555   7.249  0.2355 -0.7541  0.9062
  234MOL0     C31484   9.458   2.457   7.156 -0.1675 -0.9914  1.4184
  234MOL0     O31485   9.473   2.325   7.186  0.7176 -0.0343 -0.2388
  234MOL0     C31486   9.565   2.240   7.130  0.0685 -0.1897 -0.5694
  234MOL0     C31487   9.608   2.139   7.213 -0.6791  0.1417 -1.1628
  234MOL0     C31488   9.704   2.048   7.167 -0.4490 -1.8652  0.0785
  234MOL0     C31489   9.758   2.047   7.041  0.3229 -0.8864  0.6172
  234MOL0     O31490   9.849   1.956   7.009  0.1912  0.5268 -0.8384
  234MOL0     C31491   9.830   1.876   6.892 -0.7646 -0.3487  0.2318
  234MOL0     C31492   9.915   1.754   6.904 -0.2207 -0.1202 -0.3236
  234MOL0     C31493   9.838   1.625   6.905 -0.0874  0.6526 -0.1239
  234MOL0     C31494   9.716   1.614   7.013 -0.7609 -0.5385  0.1751
  234MOL0     C31495   9.620   1.505   6.972  0.5995  0.9763 -0.1218
  234MOL0     C31496   9.500   1.555   6.890 -0.2605 -0.0188 -0.3436
  234MOL0     C31497   9.435   1.446   6.807  0.2585 -0.4622 -0.6789
  234MOL0     C31498   9.298   1.482   6.741 -1.3860  0.1535  1.2132
  234MOL0    Cl31499   9.183   1.585   6.836  0.0296  0.4065 -0.2430
  234MOL0     C31500   9.716   2.151   6.948  0.7307 -0.6856 -1.6977
  234MOL0     C31501   9.626   2.249   7.001 -0.7114 -0.1334 -0.4678
  234MOL0     O31502   9.505   2.504   7.055 -0.1721 -0.2668  0.6261
  234MOL0     C31503   9.339   2.508   7.366  0.3175  0.0332  0.0651
  234MOL0     C31504   9.281   2.589   7.462  0.4921  0.3636  0.2379
  234MOL0     N31505   9.828   2.513   7.598  0.0666  0.0982  0.0986
  234MOL0     N31506   9.905   2.487   7.493  0.6564  0.7716 -0.8620
  234MOL0     C31507   9.736   3.192   7.834  0.1684  1.0132 -0.1066
  234MOL0     C31508   9.675   3.118   7.938  0.5007  0.5628  0.5742
  234MOL0     C31509   9.570   2.907   8.317 -0.7176  0.1885 -0.1374
  234MOL0     C31510   9.454   2.844   8.266  0.0994 -0.4870 -0.0450
  234MOL0     C31511   9.349   2.808   8.345  0.3255  0.4898 -0.3848
  234MOL0     C31512   9.356   2.831   8.481 -0.0523  0.6081 -0.3052
  234MOL0     O31513   9.242   2.802   8.551 -0.4694  0.2547  0.0804
  234MOL0     C31514   9.235   2.840   8.691 -0.1523  0.6292  0.3578
  234MOL0     C31515   9.096   2.832   8.736 -0.4882 -0.3323  0.7336
  234MOL0     C31516   9.040   2.696   8.762  0.2191 -0.2407 -0.5152
  234MOL0     C31517   8.904   2.712   8.826  0.6169  0.2511 -0.1315
  234MOL0     C31518   8.911   2.725   8.973 -0.3131 -0.9071 -0.2826
  234MOL0     C31519   8.917   2.727   9.089 -0.1868 -0.3846 -0.8159
  234MOL0     C31520   9.479   2.881   8.543  0.5211 -0.5551 -0.0228
  234MOL0     C31521   9.580   2.923   8.460 -0.2984  0.1327  0.8011
  234MOL0     C31522   9.703   2.997   8.514 -0.0759 -0.3469  0.2613
  234MOL0     H31523   9.887   2.856   7.970 -0.8255  0.6345  0.7763
  234MOL0     H31524   9.984   2.964   7.779 -1.0245  0.1524 -3.4965
  234MOL0     H31525   9.743   3.117   7.554  0.8034 -2.2608 -0.4540
  234MOL0     H31526   9.777   3.293   7.548  1.3645  0.0803  1.4933
  234MOL0     H31527   9.970   3.252   7.397 -1.4155  1.9235  1.0839
  234MOL0     H31528   9.828   3.173   7.331  2.7679 -1.9798 -2.6652
  234MOL0     H31529   9.882   2.966   7.464 -1.1248  2.6791  2.2442
  234MOL0     H31530  10.031   3.041   7.510 -2.2418  3.2999  1.8403
  234MOL0     H31531  10.002   3.046   7.213  1.4763  1.2491  0.2239
  234MOL0     H31532  10.142   3.016   7.314  0.0611 -0.8467 -0.4375
  234MOL0     H31533  10.096   2.812   7.222  1.0332  2.1554  1.4474
  234MOL0     H31534  10.025   2.799   7.384  0.4679 -0.9184 -0.6036
  234MOL0     H31535   9.806   2.838   7.286 -0.5582 -0.4873  0.5903
  234MOL0     H31536   9.877   2.884   7.137  1.2434  1.3957  0.5571
  234MOL0     H31537   9.917   2.650   7.075 -0.5398 -1.2163  0.2749
  234MOL0     H31538   9.766   2.647   7.178 -0.1233 -0.3557  0.5709
  234MOL0     H31539   9.934   2.482   7.214  1.3968  2.3005 -3.6695
  234MOL0     H31540  10.045   2.596   7.292  0.5403 -1.4350  2.7193
  234MOL0     H31541   9.690   2.690   7.371  1.2439 -1.0623 -1.9839
  234MOL0     H31542   9.517   2.582   7.621 -0.2519  0.5054 -0.6513
  234MOL0     H31543   9.624   2.603   7.759  0.5309  1.2257  0.6694
  234MOL0     H31544   9.676   2.840   7.709 -0.0423 -1.1429  0.3470
  234MOL0     H31545   9.598   2.836   7.561  3.6500 -1.8050 -0.8755
  234MOL0     H31546   9.467   2.948   7.744 -1.0378  0.9906 -1.1689
  234MOL0     H31547   9.473   2.804   7.843  2.3620  0.1663  0.3051
  234MOL0     H31548   9.246   2.821   7.753 -0.4560 -0.4880 -0.3793
  234MOL0     H31549   9.327   2.673   7.707  2.1450  0.6816  3.0220
  234MOL0     H31550   9.379   2.885   7.321 -1.1846  0.5301  0.8250
  234MOL0     H31551   9.465   2.734   7.158 -2.1936 -3.1546 -2.6138
  234MOL0     H31552   9.565   2.137   7.313  0.0733  0.3780 -0.8314
  234MOL0     H31553   9.724   1.955   7.220  0.7894 -2.0993 -0.7428
  234MOL0     H31554   9.726   1.846   6.881 -0.6873 -1.2225  1.5546
  234MOL0     H31555   9.874   1.924   6.804 -0.2086 -2.3176 -0.6441
  234MOL0     H31556   9.992   1.754   6.826  0.1933  3.3499 -0.0734
  234MOL0     H31557   9.968   1.761   6.999  0.2634  0.6816 -0.6414
  234MOL0     H31558   9.792   1.597   6.810 -1.4787 -3.2690  1.5150
  234MOL0     H31559   9.890   1.530   6.922  1.6400  1.5886  0.1099
  234MOL0     H31560   9.654   1.704   7.023 -1.4752 -0.8627 -1.1004
  234MOL0     H31561   9.739   1.592   7.118 -0.6192  1.5368  0.6303
  234MOL0     H31562   9.582   1.450   7.059 -0.4827 -0.2311 -1.3058
  234MOL0     H31563   9.669   1.422   6.920 -5.3268 -2.2778 -1.4247
  234MOL0     H31564   9.426   1.607   6.951  1.2200 -0.8873  2.3326
  234MOL0     H31565   9.546   1.625   6.819 -0.3158 -0.7044 -1.0727
  234MOL0     H31566   9.425   1.367   6.883  3.4813 -0.1763  0.1944
  234MOL0     H31567   9.504   1.412   6.729  2.0409  2.4066 -0.4811
  234MOL0     H31568   9.324   1.552   6.661  0.0058 -0.3246  1.2188
  234MOL0     H31569   9.261   1.394   6.689  4.6680 -1.0832 -1.9361
  234MOL0     H31570   9.746   2.154   6.844  0.6595 -1.7423 -1.7611
  234MOL0     H31571   9.579   2.324   6.938 -2.7327  1.1570  2.3704
  234MOL0     H31572   9.344   2.400   7.381  0.9190 -0.1168 -1.0830
  234MOL0     H31573   9.224   2.548   7.544  1.0336 -0.7557  0.0768
  234MOL0     H31574   9.688   3.281   7.796  0.7979  1.0836 -0.7572
  234MOL0     H31575   9.577   3.150   7.970  1.7695  2.0568  3.3743
  234MOL0     H31576   9.454   2.813   8.162  0.3514 -0.3738 -0.0814
  234MOL0     H31577   9.261   2.758   8.306  0.2235 -0.0182  0.4686
  234MOL0     H31578   9.278   2.937   8.719 -1.6249  1.8110 -1.2556
  234MOL0     H31579   9.290   2.763   8.746 -0.5842 -1.9767 -2.5966
  234MOL0     H31580   9.020   2.888   8.681  0.8775  1.8683  0.9415
  234MOL0     H31581   9.100   2.889   8.829  1.7954  5.0426 -2.1506
  234MOL0     H31582   9.117   2.633   8.806 -0.0040  0.3564  0.7821
  234MOL0     H31583   9.011   2.660   8.663 -1.1937 -3.2972  0.8859
  234MOL0     H31584   8.841   2.790   8.784 -3.8466 -3.2493 -0.6320
  234MOL0     H31585   8.838   2.627   8.811 -2.5857  1.5759  4.3441
  234MOL0     H31586   8.920   2.728   9.196 -1.2563 -0.0592 -0.7702
  234MOL0     H31587   9.475   2.893   8.651 -2.1521  3.1410 -0.3141
  234MOL0     H31588   9.709   2.978   8.621  0.0817  0.5419  0.4163
  234MOL0     H31589   9.800   2.960   8.478  0.1504 -0.5156  1.0371
  234MOL0     H31590   9.692   3.104   8.496 -0.8540 -0.1662  1.6745
  235MOL0     O31591   7.138   5.804   1.267 -0.1042 -0.0850 -0.2388
  235MOL0     C31592   7.156   5.696   1.312 -0.4866  0.4494 -0.0569
  235MOL0     O31593   7.206   5.672   1.432 -0.5695  0.0349 -0.4566
  235MOL0     C31594   7.255   5.777   1.504  0.0617  0.2809 -0.4311
  235MOL0     C31595   7.389   5.807   1.509 -0.5954 -0.4862 -0.3943
  235MOL0     C31596   7.436   5.923   1.584  0.2931  0.4581 -0.3281
  235MOL0     C31597   7.355   6.009   1.650 -0.5218  0.1635 -0.3882
  235MOL0     O31598   7.406   6.121   1.700  0.5288  0.5043 -0.8573
  235MOL0     C31599   7.331   6.242   1.707 -0.7850  0.1941 -0.3270
  235MOL0     C31600   7.328   6.292   1.560 -0.3656  0.0801  0.7463
  235MOL0     C31601   7.263   6.422   1.543 -0.5177 -0.5646  0.0312
  235MOL0     C31602   7.326   6.490   1.423  0.3577  0.4390  0.0195
  235MOL0     C31603   7.278   6.628   1.392  0.2104  0.0163 -0.0335
  235MOL0     C31604   7.371   6.695   1.289  0.3778  0.5151  0.3545
  235MOL0     C31605   7.341   6.838   1.262 -0.0845 -0.1052  0.0703
  235MOL0     C31606   7.195   6.872   1.224 -0.0346  0.2742  0.0477
  235MOL0     N31607   7.178   6.827   1.089  0.1791 -0.2051 -0.0349
  235MOL0     C31608   7.233   6.891   0.977 -0.2453 -0.1223  0.3340
  235MOL0     C31609   7.206   6.810   0.874 -0.1653  0.9199  0.8341
  235MOL0     C31610   7.260   6.825   0.734 -0.4226 -0.2873  0.0698
  235MOL0     C31611   7.366   6.718   0.698 -0.0603 -0.3906 -1.0230
  235MOL0     C31612   7.461   6.689   0.803 -0.7852  0.8353  0.5610
  235MOL0     C31613   7.590   6.628   0.732  0.7188 -0.1314  0.1518
  235MOL0     O31614   7.689   6.575   0.824 -0.2014  0.2087  0.1692
  235MOL0     C31615   7.755   6.465   0.778  0.2213 -0.7743 -1.1995
  235MOL0     C31616   7.802   6.371   0.876  0.4830 -0.5804 -0.7470
  235MOL0     C31617   7.864   6.255   0.837  0.5490 -0.0102  0.6336
  235MOL0     C31618   7.895   6.231   0.708 -0.2194  0.2798 -0.3677
  235MOL0     C31619   7.945   6.092   0.669  0.1917 -1.3239 -0.0520
  235MOL0     O31620   7.954   6.072   0.534  0.2884  0.1139  0.0555
  235MOL0     C31621   8.020   5.953   0.508 -0.2935 -0.5428 -0.5391
  235MOL0     C31622   8.159   5.940   0.488  0.0527 -0.1730 -0.4440
  235MOL0     C31623   8.214   5.821   0.439  0.4642  0.2671 -0.8517
  235MOL0     C31624   8.138   5.709   0.416 -0.1653  0.2759  0.6033
  235MOL0     O31625   8.199   5.593   0.372  0.0865  0.3303  0.3172
  235MOL0     C31626   8.202   5.488   0.467  0.2501  0.8251  0.1298
  235MOL0     C31627   8.238   5.361   0.402 -0.0964 -0.2740 -1.0231
  235MOL0     C31628   8.206   5.227   0.472 -0.1618  0.0980 -0.0549
  235MOL0     C31629   8.289   5.211   0.607 -0.0582  0.2972 -0.6541
  235MOL0     C31630   8.276   5.068   0.660 -0.1812  0.6312 -0.1539
  235MOL0     C31631   8.131   5.051   0.720  0.5277 -0.1831  0.1018
  235MOL0     C31632   8.123   4.928   0.795 -0.0540  0.2466 -0.8339
  235MOL0     C31633   7.979   4.872   0.821 -1.4377 -0.9077 -0.2263
  235MOL0    Cl31634   7.893   4.978   0.930  0.3678  0.5948 -0.6964
  235MOL0     C31635   8.004   5.726   0.415  0.3627  0.2038 -1.0894
  235MOL0     C31636   7.936   5.840   0.469 -0.0442 -0.6957 -0.5149
  235MOL0     O31637   7.987   6.023   0.759 -0.0253 -0.8852  0.0562
  235MOL0     C31638   7.877   6.330   0.610  0.3172  0.6915  0.0883
  235MOL0     C31639   7.805   6.445   0.650  0.8349 -0.3940 -0.3949
  235MOL0     N31640   7.136   6.695   0.925  0.3311 -0.1053 -0.1408
  235MOL0     N31641   7.118   6.712   1.055  0.1256  0.9874  0.9001
  235MOL0     C31642   7.224   5.970   1.654  0.5975  0.1176 -0.5987
  235MOL0     C31643   7.175   5.852   1.585  0.2609 -0.9091 -0.1169
  235MOL0     C31644   7.105   5.575   1.234 -0.0401  0.3172 -0.2440
  235MOL0     C31645   7.102   5.448   1.300 -1.5544 -0.7739  0.6831
  235MOL0     C31646   7.042   5.328   1.262 -0.0106  0.4752  1.0099
  235MOL0     C31647   6.978   5.337   1.141 -0.4240  0.6355  0.3435
  235MOL0     O31648   6.911   5.224   1.111 -0.2759  0.6038 -0.8058
  235MOL0     C31649   6.847   5.204   0.994 -0.2659 -0.7458  0.1246
  235MOL0     C31650   6.808   5.051   0.984 -0.4879 -0.1203 -0.6788
  235MOL0     C31651   6.721   5.018   1.097  0.8668  0.8363 -0.7100
  235MOL0     C31652   6.684   4.872   1.098 -0.9933  0.9181  0.6847
  235MOL0     C31653   6.781   4.796   1.178  0.8115  0.1910  0.1814
  235MOL0     C31654   6.846   4.724   1.254  0.0333 -0.4486  0.0060
  235MOL0     C31655   6.982   5.456   1.063 -1.1052 -0.5268 -0.9757
  235MOL0     C31656   7.045   5.574   1.106 -0.0592 -0.8453  0.1864
  235MOL0     C31657   7.047   5.698   1.019 -0.1012 -0.2145  0.2110
  235MOL0     H31658   7.457   5.735   1.464 -1.3372 -1.1138 -0.5352
  235MOL0     H31659   7.541   5.947   1.577  0.2053  0.6238 -1.1448
  235MOL0     H31660   7.235   6.229   1.757 -1.3505  0.8345 -1.2283
  235MOL0     H31661   7.390   6.323   1.752 -0.4166 -0.1106 -0.2573
  235MOL0     H31662   7.277   6.223   1.493 -1.3856  3.1624 -1.9203
  235MOL0     H31663   7.428   6.292   1.516 -0.1631  3.0533  0.9762
  235MOL0     H31664   7.299   6.485   1.625  1.9364 -2.5706  0.6161
  235MOL0     H31665   7.154   6.416   1.540 -0.5019 -0.9749  0.3289
  235MOL0     H31666   7.435   6.488   1.440 -0.1453 -1.2982  4.4089
  235MOL0     H31667   7.303   6.428   1.336  0.0525  0.0548  0.3727
  235MOL0     H31668   7.178   6.616   1.351 -0.9449  1.4996  2.1055
  235MOL0     H31669   7.280   6.680   1.489  1.3841 -0.8090  0.4160
  235MOL0     H31670   7.474   6.693   1.326  0.4041  3.1067  0.6509
  235MOL0     H31671   7.357   6.638   1.198 -2.3295  0.5675  0.6488
  235MOL0     H31672   7.410   6.875   1.185  0.7055 -2.1912 -0.2951
  235MOL0     H31673   7.366   6.884   1.358  0.1731 -1.3014  0.5932
  235MOL0     H31674   7.130   6.814   1.290  1.1154 -2.0549 -0.7502
  235MOL0     H31675   7.181   6.979   1.242 -0.6880  0.3646 -0.9488
  235MOL0     H31676   7.297   6.978   0.980  1.6121 -1.4296  2.8757
  235MOL0     H31677   7.189   6.819   0.650  1.3009  1.4076 -1.5959
  235MOL0     H31678   7.303   6.924   0.718  2.1133 -1.6482 -2.3280
  235MOL0     H31679   7.307   6.628   0.678 -1.2806 -0.1480  1.1327
  235MOL0     H31680   7.422   6.750   0.610 -2.3754 -1.1175 -2.8717
  235MOL0     H31681   7.425   6.617   0.877 -1.1473  0.4981  0.0626
  235MOL0     H31682   7.484   6.778   0.862  2.8547  0.5979 -0.2212
  235MOL0     H31683   7.649   6.691   0.664  1.8644 -3.4041 -2.1789
  235MOL0     H31684   7.543   6.553   0.666 -3.0346  1.1606  1.1183
  235MOL0     H31685   7.777   6.387   0.981 -2.7804 -0.1199 -1.4735
  235MOL0     H31686   7.870   6.175   0.910  0.9779 -1.3973 -0.8617
  235MOL0     H31687   8.221   6.027   0.509 -0.0390 -0.1400 -0.3106
  235MOL0     H31688   8.322   5.807   0.448  0.4154  0.5620  6.4395
  235MOL0     H31689   8.280   5.517   0.538  0.8358 -2.2485  0.9214
  235MOL0     H31690   8.104   5.469   0.511 -0.9648 -0.5348 -2.9458
  235MOL0     H31691   8.191   5.355   0.303 -0.3509 -3.9345 -0.8202
  235MOL0     H31692   8.347   5.369   0.400 -0.0819 -0.0844  0.0565
  235MOL0     H31693   8.101   5.203   0.494 -0.1126  0.5772  0.7606
  235MOL0     H31694   8.238   5.150   0.401  2.4598  0.9710  0.0986
  235MOL0     H31695   8.260   5.285   0.681  2.3747 -0.2962  0.9824
  235MOL0     H31696   8.393   5.235   0.582  0.1415 -1.1915 -1.4099
  235MOL0     H31697   8.345   5.054   0.744 -0.7649  2.4622  0.7042
  235MOL0     H31698   8.301   4.997   0.581  1.7528 -1.4800  2.1688
  235MOL0     H31699   8.091   5.132   0.782 -2.9528 -2.4269  1.1060
  235MOL0     H31700   8.059   5.036   0.640  0.8658  0.9087 -0.4305
  235MOL0     H31701   8.171   4.951   0.891  1.1955  0.7887 -1.5666
  235MOL0     H31702   8.180   4.842   0.760  0.6746  1.7647 -3.6586
  235MOL0     H31703   7.934   4.850   0.724 -0.4090 -2.5170 -0.3834
  235MOL0     H31704   7.998   4.779   0.876 -0.5057  0.0740  1.1786
  235MOL0     H31705   7.934   5.649   0.387 -0.3628 -1.7478  4.6697
  235MOL0     H31706   7.832   5.857   0.491  0.7780  0.9567  2.6647
  235MOL0     H31707   7.897   6.312   0.505  1.4815  0.8281  0.2817
  235MOL0     H31708   7.773   6.517   0.576 -1.5396  0.3361  1.2377
  235MOL0     H31709   7.166   6.008   1.737  1.8378 -2.8601  1.8363
  235MOL0     H31710   7.081   5.803   1.607  0.0303 -0.0182  0.9828
  235MOL0     H31711   7.145   5.449   1.400  0.5147  2.0076 -0.1094
  235MOL0     H31712   7.040   5.228   1.305 -1.7320 -0.9832 -2.1290
  235MOL0     H31713   6.902   5.234   0.904 -0.0037 -0.5814  0.3376
  235MOL0     H31714   6.761   5.272   0.991  0.2677 -0.0265  0.6786
  235MOL0     H31715   6.901   4.994   0.994  0.0659  1.0367  1.7606
  235MOL0     H31716   6.763   5.028   0.888  1.2299 -3.6155 -0.7990
  235MOL0     H31717   6.628   5.075   1.088  0.2486  0.4156  1.9773
  235MOL0     H31718   6.765   5.052   1.192  1.9054  3.7851 -2.1290
  235MOL0     H31719   6.584   4.861   1.141 -0.2628 -1.1332  2.0072
  235MOL0     H31720   6.684   4.841   0.993 -0.9530 -0.9089  1.1920
  235MOL0     H31721   6.887   4.649   1.319  2.0981  2.4456  2.3476
  235MOL0     H31722   6.942   5.456   0.962 -1.3924  3.4384 -1.0099
  235MOL0     H31723   7.032   5.682   0.912 -2.5999  3.4170 -0.1791
  235MOL0     H31724   6.975   5.776   1.047 -0.3827 -0.1890 -0.5488
  235MOL0     H31725   7.155   5.713   1.030  0.0559 -1.4307  0.4592
  236MOL0     O31726   9.964   0.090   8.153  0.1213  0.8602 -0.5897
  236MOL0     C31727   9.863   0.077   8.220 -0.2270 -0.3124 -1.2854
  236MOL0     O31728   9.748   0.147   8.200 -0.8348  0.7701 -0.3874
  236MOL0     C31729   9.747   0.244   8.096 -0.8853 -0.4622 -0.3857
  236MOL0     C31730   9.645   0.248   8.013 -0.9805 -1.3180  0.0256
  236MOL0     C31731   9.647   0.342   7.898 -0.2747  0.4320  0.8177
  236MOL0     C31732   9.742   0.432   7.881  0.0825 -0.1393 -0.2740
  236MOL0     O31733   9.745   0.526   7.788 -0.2725 -0.4305  0.5550
  236MOL0     C31734   9.675   0.497   7.664  0.5455  0.2484 -0.1801
  236MOL0     C31735   9.722   0.594   7.557  0.7603  0.0483 -0.8401
  236MOL0     C31736   9.873   0.578   7.520  0.1399  0.2138  0.1933
  236MOL0     C31737   9.944   0.703   7.479  0.0102  0.0764 -0.2122
  236MOL0     C31738  10.090   0.676   7.455  0.8126 -0.5261  0.3513
  236MOL0     C31739  10.174   0.807   7.407  1.4216 -0.2784 -0.5932
  236MOL0     C31740  10.173   0.912   7.518 -1.0260  0.7842 -0.4405
  236MOL0     C31741  10.223   1.047   7.474  0.2764 -0.8811 -0.7023
  236MOL0     N31742  10.126   1.116   7.381  0.3883  0.0579 -0.4755
  236MOL0     C31743  10.023   1.199   7.406  0.0159 -0.5225 -0.1249
  236MOL0     C31744   9.976   1.237   7.289 -0.3359 -0.6464  0.4768
  236MOL0     C31745   9.844   1.314   7.263 -0.8349  1.2064  0.5341
  236MOL0     C31746   9.724   1.229   7.299  0.5976 -0.5346 -0.2921
  236MOL0     C31747   9.672   1.130   7.195 -0.3294 -0.4643 -0.2030
  236MOL0     C31748   9.747   1.003   7.190  0.3300  1.2423  0.2249
  236MOL0     O31749   9.671   0.902   7.125  0.3728  0.0018  0.1188
  236MOL0     C31750   9.733   0.779   7.122  0.2797 -0.0763 -0.2330
  236MOL0     C31751   9.843   0.756   7.045 -0.1274 -0.0371  0.4265
  236MOL0     C31752   9.909   0.635   7.037 -0.4291  0.0120  0.2333
  236MOL0     C31753   9.854   0.532   7.118  0.3740 -0.0046 -0.5318
  236MOL0     C31754   9.913   0.401   7.128 -0.5593  1.1034 -0.8050
  236MOL0     O31755  10.024   0.372   7.039 -0.0210  0.5503 -1.1248
  236MOL0     C31756  10.067   0.242   7.004 -0.2766  0.2747 -0.5515
  236MOL0     C31757  10.203   0.219   6.971 -0.4543  0.4297 -0.6817
  236MOL0     C31758  10.242   0.084   6.947 -0.5073 -0.6154  1.0157
  236MOL0     C31759  10.152  -0.023   6.938 -0.0572 -0.7063  0.1469
  236MOL0     O31760  10.197  -0.147   6.903 -0.1030 -0.2860  0.0670
  236MOL0     C31761  10.203  -0.232   7.018  0.3648 -0.0887 -0.9611
  236MOL0     C31762  10.341  -0.228   7.084 -0.3135  0.1118  0.7678
  236MOL0     C31763  10.440  -0.275   6.972  0.2426 -0.3178  0.2766
  236MOL0     C31764  10.583  -0.272   7.030  0.1105 -0.2320 -0.9189
  236MOL0     C31765  10.683  -0.304   6.923  0.4260  0.6668 -0.0543
  236MOL0     C31766  10.822  -0.285   6.958 -1.1957 -0.6727 -0.5354
  236MOL0     C31767  10.924  -0.299   6.849  0.4808 -0.6351  0.7455
  236MOL0     C31768  11.029  -0.410   6.881 -0.3466  0.3675  0.0203
  236MOL0    Cl31769  11.140  -0.344   7.014  0.2288  0.2378 -0.0902
  236MOL0     C31770  10.024  -0.001   6.973  0.0117  0.0149  0.5969
  236MOL0     C31771   9.985   0.132   7.007  0.6414 -0.2715 -0.1970
  236MOL0     O31772   9.856   0.315   7.195 -0.2902  0.1104 -0.2795
  236MOL0     C31773   9.737   0.559   7.187 -0.4676  0.4510 -0.5793
  236MOL0     C31774   9.673   0.683   7.202  0.4960 -0.8222  0.0940
  236MOL0     N31775  10.043   1.167   7.187  0.2871 -0.7685  0.2327
  236MOL0     N31776  10.142   1.118   7.249 -0.3301  0.1709  0.2015
  236MOL0     C31777   9.847   0.431   7.969 -0.1397  0.4629  0.1468
  236MOL0     C31778   9.847   0.340   8.077  0.2575 -0.3808 -0.0739
  236MOL0     C31779   9.850  -0.020   8.338  0.2897  0.3288 -0.0780
  236MOL0     C31780   9.730  -0.027   8.408 -0.2096  0.2450  0.0147
  236MOL0     C31781   9.708  -0.125   8.504 -0.6152  0.2554 -0.2122
  236MOL0     C31782   9.809  -0.214   8.536  0.4041 -0.0729  0.4090
  236MOL0     O31783   9.783  -0.306   8.640  0.2352  0.3187  0.6738
  236MOL0     C31784   9.818  -0.254   8.772 -0.2487  0.2266  0.1153
  236MOL0     C31785   9.763  -0.333   8.889  0.4072  0.9343 -0.0842
  236MOL0     C31786   9.648  -0.255   8.941  0.5189  0.3423  0.2400
  236MOL0     C31787   9.574  -0.326   9.059 -0.0634 -0.2851  0.4981
  236MOL0     C31788   9.459  -0.244   9.103  1.2445 -0.5357 -0.3454
  236MOL0     C31789   9.365  -0.175   9.131  0.9081  0.2283  0.1225
  236MOL0     C31790   9.934  -0.205   8.472 -0.8426 -0.6886  0.1805
  236MOL0     C31791   9.956  -0.110   8.374 -1.2048 -0.8032 -0.9188
  236MOL0     C31792  10.110  -0.093   8.332  0.1123 -0.4969  1.4499
  236MOL0     H31793   9.565   0.176   8.029 -2.5563 -0.5909 -3.5741
  236MOL0     H31794   9.560   0.341   7.832 -0.8340 -2.0960  1.4872
  236MOL0     H31795   9.694   0.395   7.630 -1.0922 -0.8057  1.8370
  236MOL0     H31796   9.572   0.504   7.700  0.1615  0.9645 -1.3749
  236MOL0     H31797   9.713   0.697   7.592  0.2252  0.1083 -1.1424
  236MOL0     H31798   9.650   0.579   7.476 -0.5009 -0.5886  0.3560
  236MOL0     H31799   9.887   0.496   7.449 -1.9350 -0.4036  0.4504
  236MOL0     H31800   9.912   0.549   7.618 -3.2534  0.9008  1.8809
  236MOL0     H31801   9.897   0.760   7.398  0.2358  1.6249  0.7235
  236MOL0     H31802   9.938   0.753   7.575 -1.6814 -2.4593  1.1184
  236MOL0     H31803  10.135   0.631   7.544  0.3369  0.4260  1.0881
  236MOL0     H31804  10.084   0.602   7.374 -0.1732  0.4060 -0.4661
  236MOL0     H31805  10.276   0.777   7.385  0.9423 -2.1640 -0.3999
  236MOL0     H31806  10.132   0.843   7.312 -2.8278 -1.7269  0.4848
  236MOL0     H31807  10.226   0.871   7.605 -0.5506 -0.2326 -1.1890
  236MOL0     H31808  10.071   0.931   7.552 -1.2037 -1.5401  0.5561
  236MOL0     H31809  10.229   1.113   7.562  0.1014 -0.5665 -0.9270
  236MOL0     H31810  10.321   1.037   7.425  1.6645 -0.3544  1.7620
  236MOL0     H31811   9.979   1.219   7.504 -1.6095 -2.1288 -0.4656
  236MOL0     H31812   9.837   1.405   7.324 -0.9188  0.0092  2.3966
  236MOL0     H31813   9.834   1.350   7.160 -0.5236 -1.3665 -0.4612
  236MOL0     H31814   9.743   1.179   7.395 -0.9775  1.4527  1.1620
  236MOL0     H31815   9.641   1.295   7.328 -2.8489 -3.2254 -3.0520
  236MOL0     H31816   9.680   1.178   7.098 -0.7207 -1.9012 -0.9835
  236MOL0     H31817   9.566   1.117   7.223 -1.5912  3.2215 -2.6431
  236MOL0     H31818   9.776   0.970   7.290 -0.4643 -0.3946 -0.0426
  236MOL0     H31819   9.839   1.020   7.133 -0.4307  5.2776 -0.0635
  236MOL0     H31820   9.870   0.832   6.972 -0.8579 -0.7601 -0.6201
  236MOL0     H31821   9.991   0.612   6.970  1.6323  1.2578  2.2031
  236MOL0     H31822  10.274   0.301   6.974  1.9693 -1.5609 -0.8724
  236MOL0     H31823  10.348   0.071   6.931 -0.8981 -1.5643 -1.3256
  236MOL0     H31824  10.127  -0.199   7.090  1.7055  1.2530 -0.0902
  236MOL0     H31825  10.183  -0.333   6.982  2.4814 -0.6331 -0.7110
  236MOL0     H31826  10.366  -0.124   7.107 -1.6148 -0.0740  3.4285
  236MOL0     H31827  10.350  -0.291   7.173  2.7660 -1.6972 -0.7029
  236MOL0     H31828  10.428  -0.380   6.947 -0.5013 -0.2955  0.5062
  236MOL0     H31829  10.434  -0.212   6.883 -2.7568 -1.6732 -0.5740
  236MOL0     H31830  10.600  -0.346   7.109  3.7145  1.4757  0.1135
  236MOL0     H31831  10.589  -0.170   7.070  0.1967 -0.3634 -0.5922
  236MOL0     H31832  10.669  -0.254   6.826  1.6950  1.3234  0.0786
  236MOL0     H31833  10.691  -0.411   6.903 -0.0123  0.2307  1.8948
  236MOL0     H31834  10.829  -0.182   6.994  2.2196 -0.0920 -2.3836
  236MOL0     H31835  10.844  -0.361   7.033  1.9863 -3.6016 -4.0211
  236MOL0     H31836  10.967  -0.200   6.837  2.7756 -1.5691  0.8312
  236MOL0     H31837  10.879  -0.314   6.750 -0.3063 -0.1323  1.0224
  236MOL0     H31838  10.992  -0.513   6.888 -1.6016  0.5422 -2.7723
  236MOL0     H31839  11.084  -0.405   6.786 -0.1388  1.0988  0.1700
  236MOL0     H31840   9.949  -0.079   6.967  0.9086 -0.9269  1.2851
  236MOL0     H31841   9.881   0.141   7.038  0.1063  1.7367 -2.2804
  236MOL0     H31842   9.697   0.478   7.247  0.5306  0.2038 -0.2348
  236MOL0     H31843   9.586   0.696   7.265  0.6485 -2.0923  0.5892
  236MOL0     H31844   9.930   0.498   7.949 -0.7689  0.9552 -0.9062
  236MOL0     H31845   9.932   0.362   8.142  0.7409  2.7894 -1.5880
  236MOL0     H31846   9.642   0.036   8.400 -1.2774 -0.6856  2.9255
  236MOL0     H31847   9.604  -0.123   8.535 -1.4895  1.4879 -2.9311
  236MOL0     H31848   9.789  -0.149   8.778  1.0984  0.5669  1.0080
  236MOL0     H31849   9.926  -0.262   8.785 -0.2180 -2.6890 -1.0066
  236MOL0     H31850   9.844  -0.351   8.960 -1.0596 -0.8158  1.2625
  236MOL0     H31851   9.737  -0.435   8.858 -1.2343  1.0086  0.9200
  236MOL0     H31852   9.575  -0.246   8.860 -0.0809 -4.4058 -0.0049
  236MOL0     H31853   9.671  -0.160   8.991 -2.2733 -0.2866  3.0310
  236MOL0     H31854   9.541  -0.424   9.023  2.3413 -1.4173  1.2072
  236MOL0     H31855   9.642  -0.343   9.143  0.8958 -1.5916 -0.5010
  236MOL0     H31856   9.280  -0.112   9.145  0.0485 -0.9361  0.2371
  236MOL0     H31857  10.016  -0.276   8.485  1.4167  1.8288  0.6299
  236MOL0     H31858  10.120  -0.128   8.229 -0.3308 -1.9532  1.8770
  236MOL0     H31859  10.145   0.011   8.326 -0.0101 -0.5301 -0.5120
  236MOL0     H31860  10.180  -0.153   8.391 -0.3358 -1.3416  1.1362
  237MOL0     O31861   6.526   6.876   7.182 -0.0820 -0.1605 -0.0974
  237MOL0     C31862   6.640   6.929   7.168  1.0121 -0.5145 -0.6236
  237MOL0     O31863   6.665   7.026   7.071 -0.1893  0.3697 -1.4655
  237MOL0     C31864   6.560   7.048   6.986 -0.5820  0.2916  0.1021
  237MOL0     C31865   6.544   7.002   6.860 -0.9842  0.4042 -0.6876
  237MOL0     C31866   6.430   7.041   6.783 -0.7081 -0.3837  0.4745
  237MOL0     C31867   6.334   7.128   6.832  0.7969 -1.0308 -0.0997
  237MOL0     O31868   6.219   7.161   6.770 -0.0090  0.5624  0.9438
  237MOL0     C31869   6.185   7.105   6.640  1.0625  0.7032  0.0072
  237MOL0     C31870   6.050   7.148   6.583 -0.0567 -0.6461 -0.8713
  237MOL0     C31871   6.048   7.296   6.563  0.1209  0.7276 -0.2781
  237MOL0     C31872   5.917   7.346   6.491 -1.0296  0.2185 -0.5691
  237MOL0     C31873   5.904   7.494   6.495 -0.6892 -0.1617  0.1044
  237MOL0     C31874   5.792   7.551   6.403  0.2804  0.5145 -1.0587
  237MOL0     C31875   5.782   7.714   6.419  0.0224  0.4792  0.6582
  237MOL0     C31876   5.713   7.766   6.294 -0.4731  0.7174  0.1259
  237MOL0     N31877   5.577   7.715   6.287 -0.1521  0.3573  0.0287
  237MOL0     C31878   5.506   7.688   6.172  0.2382  0.5790 -0.8558
  237MOL0     C31879   5.381   7.660   6.215  0.4032 -0.1184 -0.3785
  237MOL0     C31880   5.269   7.611   6.118 -0.4880  0.0972  1.0170
  237MOL0     C31881   5.147   7.546   6.182  0.1639  0.1852  0.4747
  237MOL0     C31882   5.030   7.518   6.075 -0.7429  0.1059  0.5255
  237MOL0     C31883   4.965   7.383   6.116  0.1663  0.4013 -0.5857
  237MOL0     O31884   4.919   7.410   6.247 -0.5812  0.4403  0.2469
  237MOL0     C31885   4.784   7.380   6.276  0.0477  0.0222 -0.2134
  237MOL0     C31886   4.755   7.251   6.328  0.0976  0.0781  0.4168
  237MOL0     C31887   4.626   7.210   6.367  0.0199 -0.5753 -0.0428
  237MOL0     C31888   4.522   7.299   6.341  0.4607 -0.1952  0.3928
  237MOL0     C31889   4.377   7.254   6.342  1.2241 -1.1251  0.9871
  237MOL0     O31890   4.353   7.131   6.380 -0.1757  0.7142  0.3463
  237MOL0     C31891   4.221   7.091   6.417  0.2942  0.2990 -0.6007
  237MOL0     C31892   4.174   6.958   6.388 -0.9703 -0.3579  1.1057
  237MOL0     C31893   4.053   6.904   6.422 -0.2438 -0.5038  0.1789
  237MOL0     C31894   3.963   6.981   6.485 -0.1033 -1.4797  0.0748
  237MOL0     O31895   3.842   6.925   6.534  0.0623  0.1703  0.4449
  237MOL0     C31896   3.854   6.833   6.649  0.0065 -1.1408 -0.4874
  237MOL0     C31897   3.719   6.846   6.726  0.3605 -1.1070 -0.1744
  237MOL0     C31898   3.702   6.780   6.866 -0.2594  0.5163 -0.0744
  237MOL0     C31899   3.557   6.765   6.925 -0.2090  0.4960  0.7987
  237MOL0     C31900   3.491   6.896   6.959 -1.4138  0.2334  1.0188
  237MOL0     C31901   3.376   6.890   7.053  0.2052  0.1871  0.8560
  237MOL0     C31902   3.377   6.791   7.167  0.2549 -1.1984  0.0374
  237MOL0     C31903   3.235   6.806   7.240  0.2526  0.4125  0.6544
  237MOL0    Cl31904   3.092   6.847   7.145  0.8967 -0.1984  0.4959
  237MOL0     C31905   4.000   7.120   6.529  0.1482  0.7380 -0.7217
  237MOL0     C31906   4.121   7.171   6.490 -0.3785  0.2902 -0.1968
  237MOL0     O31907   4.289   7.332   6.299 -0.1614 -0.1891  0.1542
  237MOL0     C31908   4.547   7.419   6.288  0.5522 -0.6177  0.9809
  237MOL0     C31909   4.674   7.464   6.257 -0.8424  0.3240  0.1023
  237MOL0     N31910   5.369   7.660   6.352 -0.5676  0.4959 -0.4237
  237MOL0     N31911   5.488   7.695   6.391 -0.0762  0.7627 -0.7541
  237MOL0     C31912   6.353   7.173   6.961 -0.4026 -0.3157  0.1267
  237MOL0     C31913   6.461   7.135   7.041 -0.4143 -0.3463  0.5129
  237MOL0     C31914   6.764   6.873   7.244  1.0731 -0.1963  0.5747
  237MOL0     C31915   6.895   6.904   7.197  0.3538  0.7936  0.1866
  237MOL0     C31916   7.013   6.859   7.246 -0.0892  0.7039 -0.9284
  237MOL0     C31917   7.015   6.792   7.370  0.0469 -0.1295 -0.3634
  237MOL0     O31918   7.123   6.748   7.447  0.8763 -0.7226  0.3235
  237MOL0     C31919   7.160   6.613   7.431 -0.5169  0.7769  0.8687
  237MOL0     C31920   7.268   6.565   7.526  0.5280  0.2667  0.2157
  237MOL0     C31921   7.402   6.629   7.491 -1.1798 -0.4875 -0.0864
  237MOL0     C31922   7.482   6.659   7.622 -0.0026 -0.1527  0.3657
  237MOL0     C31923   7.406   6.767   7.690 -0.2461  0.3946  0.2005
  237MOL0     C31924   7.352   6.866   7.731  0.4401  1.0585 -0.2609
  237MOL0     C31925   6.887   6.764   7.426  0.0607 -0.9538  0.6325
  237MOL0     C31926   6.765   6.785   7.358 -0.7591 -0.7638  0.0917
  237MOL0     C31927   6.642   6.768   7.443  0.7322 -1.1073 -0.1090
  237MOL0     H31928   6.625   6.938   6.824 -0.3124  1.1377 -0.5053
  237MOL0     H31929   6.429   6.998   6.683  2.3014 -0.6525  0.4529
  237MOL0     H31930   6.262   7.134   6.568  1.9539  0.0320  0.6654
  237MOL0     H31931   6.202   7.000   6.666 -0.7091  0.7681  1.7119
  237MOL0     H31932   5.967   7.146   6.654  0.1707  1.8927 -0.4591
  237MOL0     H31933   6.027   7.098   6.488 -2.7890 -0.4802 -0.3594
  237MOL0     H31934   6.129   7.315   6.493  0.3656 -0.3713 -0.3068
  237MOL0     H31935   6.071   7.349   6.656 -0.3096  0.3880  0.0295
  237MOL0     H31936   5.910   7.303   6.390  0.2978  1.5821 -1.2788
  237MOL0     H31937   5.823   7.314   6.538 -1.0100  1.7795  0.5792
  237MOL0     H31938   5.883   7.514   6.600 -0.0255  2.7233 -0.2436
  237MOL0     H31939   5.993   7.551   6.466  0.9752 -2.4967  0.3414
  237MOL0     H31940   5.796   7.512   6.301 -1.1469 -1.2458 -0.4897
  237MOL0     H31941   5.702   7.512   6.450  0.4035  3.7420  2.3835
  237MOL0     H31942   5.882   7.750   6.442  1.0108 -0.2399 -2.2025
  237MOL0     H31943   5.716   7.735   6.504  0.0423  2.1047  0.2901
  237MOL0     H31944   5.716   7.875   6.300 -0.0338  0.6160  2.9945
  237MOL0     H31945   5.774   7.730   6.210 -4.7728 -2.2498 -2.0947
  237MOL0     H31946   5.533   7.691   6.067 -3.7436 -0.4330 -2.1006
  237MOL0     H31947   5.237   7.705   6.072 -2.1863  0.6191  3.0977
  237MOL0     H31948   5.312   7.549   6.039 -0.7554  1.1574  0.0051
  237MOL0     H31949   5.164   7.455   6.239 -0.3820  0.0423  0.4096
  237MOL0     H31950   5.111   7.628   6.246 -0.2206  2.7422 -2.7436
  237MOL0     H31951   5.086   7.511   5.981 -0.2443 -0.4696  0.8540
  237MOL0     H31952   4.949   7.591   6.076  0.4099  1.4592  2.4056
  237MOL0     H31953   5.027   7.293   6.114 -2.7420 -1.7468 -2.5397
  237MOL0     H31954   4.887   7.375   6.039  1.5310  0.1544 -1.9987
  237MOL0     H31955   4.840   7.186   6.343 -2.5689 -3.5645  1.0252
  237MOL0     H31956   4.601   7.111   6.402  0.6903 -1.0364 -0.8440
  237MOL0     H31957   4.245   6.902   6.327  1.0492  1.5198  1.6080
  237MOL0     H31958   4.028   6.807   6.380 -1.7413  0.8509 -2.3158
  237MOL0     H31959   3.856   6.725   6.631 -1.1458 -1.9687  3.4285
  237MOL0     H31960   3.932   6.870   6.716 -0.6290  2.8329 -1.6350
  237MOL0     H31961   3.693   6.951   6.740 -2.3816 -1.4975 -1.6198
  237MOL0     H31962   3.643   6.802   6.660  0.4314 -2.7507  0.7765
  237MOL0     H31963   3.756   6.685   6.869  2.9289  2.1980  0.1674
  237MOL0     H31964   3.753   6.843   6.939  1.4629  0.7425 -1.4057
  237MOL0     H31965   3.569   6.704   7.015  2.2254  1.0648  0.9270
  237MOL0     H31966   3.500   6.716   6.845  0.2062  1.8738 -0.3964
  237MOL0     H31967   3.469   6.945   6.863  2.3109 -2.6380 -1.6437
  237MOL0     H31968   3.564   6.955   7.015 -2.2773 -0.3742  2.8317
  237MOL0     H31969   3.352   6.992   7.081 -2.0459  0.9692 -3.1958
  237MOL0     H31970   3.290   6.863   6.992 -0.7365 -0.1045  2.2760
  237MOL0     H31971   3.452   6.834   7.235  2.6708 -0.3552 -2.9418
  237MOL0     H31972   3.394   6.684   7.160 -2.2009 -1.6579  0.2397
  237MOL0     H31973   3.223   6.704   7.279  1.4562 -0.0674 -0.1412
  237MOL0     H31974   3.244   6.875   7.324 -1.8289  0.7430  0.6461
  237MOL0     H31975   3.936   7.183   6.591  1.3594  0.0325  1.3436
  237MOL0     H31976   4.143   7.273   6.518 -1.0318  0.9127 -1.8119
  237MOL0     H31977   4.469   7.488   6.257  3.3204  1.9238 -0.8073
  237MOL0     H31978   4.702   7.556   6.206 -1.6325 -0.8201 -2.6133
  237MOL0     H31979   6.269   7.219   7.012  0.7891  1.3857  0.6661
  237MOL0     H31980   6.463   7.159   7.146  0.5318 -3.6095  1.3576
  237MOL0     H31981   6.892   6.957   7.102  1.5798 -0.8437 -0.8125
  237MOL0     H31982   7.112   6.870   7.202  0.9680 -4.4290 -0.4863
  237MOL0     H31983   7.206   6.599   7.333  1.0862  0.6627  1.6108
  237MOL0     H31984   7.072   6.552   7.453 -0.1788  0.0040  0.1072
  237MOL0     H31985   7.275   6.457   7.545 -0.8884  0.5011  2.3491
  237MOL0     H31986   7.236   6.600   7.625  1.7414  0.3553  0.5965
  237MOL0     H31987   7.389   6.724   7.439 -1.5599 -0.6535 -0.2996
  237MOL0     H31988   7.461   6.566   7.424 -1.3971 -2.3581  1.3905
  237MOL0     H31989   7.471   6.565   7.676 -1.6812 -0.6788 -0.8109
  237MOL0     H31990   7.588   6.680   7.603 -0.6434  0.9423 -2.6589
  237MOL0     H31991   7.294   6.949   7.765  1.9634  1.5929  1.1670
  237MOL0     H31992   6.878   6.719   7.525 -2.7525  2.2436  2.0204
  237MOL0     H31993   6.664   6.788   7.549 -2.9920 -3.2909  1.2811
  237MOL0     H31994   6.580   6.849   7.405 -1.4721 -1.7581  1.8320
  237MOL0     H31995   6.597   6.668   7.437 -0.3214 -0.7710  1.5168
  238MOL0     O31996   9.202   4.963   7.627  0.2830  0.1648 -0.9129
  238MOL0     C31997   9.247   4.876   7.556  0.7187 -0.3010 -0.1416
  238MOL0     O31998   9.178   4.760   7.523 -0.0502 -0.2065  0.3024
  238MOL0     C31999   9.036   4.763   7.519 -0.8165 -0.2951 -0.1452
  238MOL0     C32000   8.953   4.820   7.421 -0.0963  0.1504  0.1214
  238MOL0     C32001   8.813   4.807   7.434 -0.4537  0.8016 -0.3953
  238MOL0     C32002   8.756   4.747   7.544 -0.0623 -0.0105  0.8773
  238MOL0     O32003   8.621   4.743   7.561  0.3015  0.2852  0.8920
  238MOL0     C32004   8.525   4.728   7.452 -0.2058 -0.2210 -0.3075
  238MOL0     C32005   8.380   4.721   7.498 -0.4146  0.4844 -0.0146
  238MOL0     C32006   8.374   4.579   7.574  0.4890  0.2331 -0.0063
  238MOL0     C32007   8.238   4.517   7.574  0.1161 -0.1542  0.3635
  238MOL0     C32008   8.217   4.431   7.445  0.0942  0.0231  1.2901
  238MOL0     C32009   8.078   4.381   7.451 -1.2055 -0.0208 -0.5833
  238MOL0     C32010   8.060   4.255   7.362  0.5936 -0.3108 -0.1145
  238MOL0     C32011   7.910   4.235   7.323  0.1655  0.3404 -0.3472
  238MOL0     N32012   7.838   4.141   7.410 -0.3282 -0.5275 -0.2478
  238MOL0     C32013   7.833   4.162   7.545 -0.3353 -0.4206 -0.5478
  238MOL0     C32014   7.798   4.043   7.596  0.7642  0.0316  0.2598
  238MOL0     C32015   7.788   4.001   7.735  0.8787 -0.7446 -0.4460
  238MOL0     C32016   7.718   4.092   7.836 -0.2799 -0.0007  0.6089
  238MOL0     C32017   7.746   4.046   7.974  0.2256  0.6834  0.4286
  238MOL0     C32018   7.704   4.138   8.087 -0.3002  0.1134  0.1311
  238MOL0     O32019   7.567   4.113   8.113 -0.6939 -0.0445  0.6653
  238MOL0     C32020   7.498   4.184   8.208 -0.4849  0.0500 -1.0955
  238MOL0     C32021   7.375   4.129   8.252 -0.3837 -0.9103 -0.0943
  238MOL0     C32022   7.281   4.196   8.324 -0.1053 -0.2439  0.0683
  238MOL0     C32023   7.320   4.316   8.382 -0.4210  0.0047  0.0411
  238MOL0     C32024   7.239   4.402   8.468 -0.4717 -0.5310 -0.6641
  238MOL0     O32025   7.286   4.513   8.536 -0.0794  0.1786  0.2318
  238MOL0     C32026   7.208   4.571   8.624  0.1883  0.7252 -0.0646
  238MOL0     C32027   7.117   4.663   8.574  0.8335  0.9638 -0.0749
  238MOL0     C32028   7.047   4.746   8.666  0.1325 -0.4909  0.3783
  238MOL0     C32029   7.041   4.726   8.804  1.2487 -0.0814 -0.4060
  238MOL0     O32030   6.956   4.812   8.874  0.3801  0.0670  0.5090
  238MOL0     C32031   6.991   4.827   9.010 -0.4201 -0.1813 -0.3442
  238MOL0     C32032   6.908   4.946   9.060  0.1421  0.2172 -0.4036
  238MOL0     C32033   6.947   5.007   9.200 -0.9367 -0.2954  0.1909
  238MOL0     C32034   6.864   5.130   9.227  0.2143  0.0186 -0.2250
  238MOL0     C32035   6.831   5.155   9.363 -0.4955 -0.2817 -0.3192
  238MOL0     C32036   6.940   5.218   9.465 -0.9037  0.5068  0.2242
  238MOL0     C32037   6.881   5.257   9.600  1.0749  0.4499  0.6770
  238MOL0     C32038   6.997   5.264   9.705 -0.1169  1.0980 -0.3107
  238MOL0    Cl32039   6.926   5.335   9.851  0.5270 -0.0055 -0.2392
  238MOL0     C32040   7.112   4.619   8.845  0.2550  0.0795 -0.7987
  238MOL0     C32041   7.199   4.550   8.761 -0.4396 -0.4517 -0.1178
  238MOL0     O32042   7.117   4.381   8.469 -0.7130 -0.2285  0.1144
  238MOL0     C32043   7.448   4.373   8.343  0.3771  0.8906 -0.4624
  238MOL0     C32044   7.534   4.312   8.255 -0.3494 -0.7337  0.2553
  238MOL0     N32045   7.771   3.961   7.490 -0.4856  1.5572 -0.1468
  238MOL0     N32046   7.800   4.020   7.385 -0.0592  0.8020  0.9128
  238MOL0     C32047   8.839   4.701   7.651 -0.1659  0.2443  0.1126
  238MOL0     C32048   8.981   4.701   7.632 -0.4303  0.5933  0.1781
  238MOL0     C32049   9.377   4.885   7.498  0.8193 -0.8531 -0.9293
  238MOL0     C32050   9.458   4.988   7.542  0.3077  0.8857  0.6107
  238MOL0     C32051   9.587   5.006   7.482  0.0792  0.0853 -1.2873
  238MOL0     C32052   9.640   4.917   7.385  0.1393  0.8847  0.8310
  238MOL0     O32053   9.764   4.952   7.340 -1.0582 -0.1714  1.1820
  238MOL0     C32054   9.817   4.880   7.218 -0.3066  0.0051  0.8517
  238MOL0     C32055   9.968   4.913   7.211  0.7192 -0.2645 -0.4902
  238MOL0     C32056   9.994   5.061   7.179  0.7781 -0.6561  0.0994
  238MOL0     C32057   9.975   5.083   7.028 -0.1721 -0.8338  0.3858
  238MOL0     C32058  10.096   5.143   6.977 -0.8432 -0.3223  0.2956
  238MOL0     C32059  10.184   5.207   6.916  0.0556  0.5015  0.0986
  238MOL0     C32060   9.551   4.818   7.347 -0.1436  0.4144  0.7873
  238MOL0     C32061   9.416   4.801   7.392 -1.3657 -0.6778  0.0825
  238MOL0     C32062   9.344   4.700   7.313 -0.3954  0.9977 -0.0630
  238MOL0     H32063   9.000   4.866   7.335  0.7282 -1.7000 -0.4525
  238MOL0     H32064   8.747   4.848   7.358  0.2905 -0.7359 -1.9555
  238MOL0     H32065   8.534   4.814   7.386  0.7107 -2.7555 -3.8038
  238MOL0     H32066   8.541   4.639   7.390  1.1078 -0.7952  0.8131
  238MOL0     H32067   8.307   4.727   7.417  1.2432 -0.6320 -1.6758
  238MOL0     H32068   8.350   4.801   7.566  0.2283 -0.5995  1.6321
  238MOL0     H32069   8.370   4.611   7.678 -0.8952 -0.9810  0.3446
  238MOL0     H32070   8.450   4.505   7.546  1.8801  0.7333  2.2230
  238MOL0     H32071   8.220   4.453   7.660 -1.6108 -1.3967 -0.8534
  238MOL0     H32072   8.163   4.597   7.577  1.2914  0.9709  0.6542
  238MOL0     H32073   8.236   4.491   7.356 -0.7544 -0.7892  0.5381
  238MOL0     H32074   8.282   4.343   7.438  0.4716  0.4332 -0.9435
  238MOL0     H32075   8.043   4.356   7.551  1.4351 -1.9816 -0.0159
  238MOL0     H32076   8.022   4.462   7.404  1.3629 -0.6500 -5.4790
  238MOL0     H32077   8.100   4.168   7.414  3.8930  1.9985  1.6212
  238MOL0     H32078   8.114   4.256   7.266 -0.1664 -3.8423 -0.7247
  238MOL0     H32079   7.865   4.333   7.339 -0.8101  0.0873 -1.4149
  238MOL0     H32080   7.896   4.206   7.219 -1.9383 -2.5969  0.6107
  238MOL0     H32081   7.869   4.249   7.598  0.9559 -1.2364 -0.0526
  238MOL0     H32082   7.751   3.898   7.737  0.6255 -0.6521 -0.4176
  238MOL0     H32083   7.892   3.997   7.769  0.1443  0.3726  2.1418
  238MOL0     H32084   7.755   4.195   7.829  0.1706 -0.0328  2.2319
  238MOL0     H32085   7.612   4.096   7.809 -0.7373 -3.9957  1.1847
  238MOL0     H32086   7.846   4.007   7.995  0.1504  0.3405  0.1710
  238MOL0     H32087   7.697   3.949   7.988  2.0669 -0.1582  1.3611
  238MOL0     H32088   7.727   4.242   8.059  0.2538 -0.3125 -1.0683
  238MOL0     H32089   7.757   4.109   8.179 -0.1424 -0.4634 -0.1415
  238MOL0     H32090   7.350   4.027   8.223 -1.7065  0.1962 -3.3302
  238MOL0     H32091   7.181   4.157   8.339 -0.7058  1.2470  0.0723
  238MOL0     H32092   7.107   4.674   8.467 -1.8137 -0.9124 -0.1210
  238MOL0     H32093   6.982   4.826   8.633  0.4934 -0.2374  0.2775
  238MOL0     H32094   6.974   4.734   9.065 -1.0823  0.4161  0.4828
  238MOL0     H32095   7.096   4.854   9.021 -0.7383  0.2656  2.0572
  238MOL0     H32096   6.913   5.031   8.992 -0.5141  0.7817  0.2419
  238MOL0     H32097   6.808   4.902   9.048 -0.4459  1.9494 -2.4873
  238MOL0     H32098   6.935   4.926   9.272  2.6288  0.8582  2.3132
  238MOL0     H32099   7.052   5.033   9.185 -1.9271  3.4727 -1.5376
  238MOL0     H32100   6.775   5.120   9.164 -1.5657 -0.0813  2.1907
  238MOL0     H32101   6.917   5.218   9.190  1.1345  0.0541  1.0985
  238MOL0     H32102   6.785   5.066   9.408 -0.8499 -0.2547 -0.6208
  238MOL0     H32103   6.752   5.230   9.359 -0.2265  0.4287  3.9009
  238MOL0     H32104   7.010   5.138   9.490 -3.1992 -1.5243  0.5994
  238MOL0     H32105   6.986   5.305   9.419 -1.9219  2.1671  2.1526
  238MOL0     H32106   6.821   5.171   9.631  1.4887  0.2184  0.8389
  238MOL0     H32107   6.816   5.345   9.594 -2.3301 -1.7648  1.7038
  238MOL0     H32108   7.018   5.161   9.737 -1.3984  0.0549 -2.5251
  238MOL0     H32109   7.098   5.293   9.673  0.3995  1.1091  1.2603
  238MOL0     H32110   7.131   4.594   8.949  0.2337  1.5650 -0.4156
  238MOL0     H32111   7.279   4.489   8.801 -0.9626 -0.7770  0.4513
  238MOL0     H32112   7.484   4.473   8.366  0.5705  0.0812  3.4426
  238MOL0     H32113   7.615   4.372   8.214 -0.7243  0.5155  1.2502
  238MOL0     H32114   8.796   4.666   7.745 -1.3318  3.2744  0.8470
  238MOL0     H32115   9.050   4.661   7.705  1.3086 -0.4421 -1.9279
  238MOL0     H32116   9.435   5.038   7.636 -1.5481 -0.1208  0.7335
  238MOL0     H32117   9.648   5.089   7.516 -2.7820  2.4186 -1.3724
  238MOL0     H32118   9.765   4.915   7.128 -0.9480  1.6363  1.8060
  238MOL0     H32119   9.795   4.773   7.221 -5.5789  0.7887 -0.3973
  238MOL0     H32120  10.036   4.853   7.150  0.5646 -1.7817  0.7727
  238MOL0     H32121  10.002   4.882   7.310 -2.6559 -0.7564  0.6219
  238MOL0     H32122  10.094   5.092   7.210  0.7427 -0.2155 -0.2287
  238MOL0     H32123   9.927   5.134   7.224 -1.1769 -0.6260 -2.6156
  238MOL0     H32124   9.939   4.996   6.972 -2.2463  1.1180 -1.4845
  238MOL0     H32125   9.905   5.166   7.017  0.4985 -0.3168 -0.0600
  238MOL0     H32126  10.269   5.259   6.877  0.4369 -1.2388 -1.5342
  238MOL0     H32127   9.591   4.749   7.273 -1.7618  1.3763 -1.1087
  238MOL0     H32128   9.337   4.609   7.373 -1.3198 -0.0343 -1.6672
  238MOL0     H32129   9.243   4.739   7.301 -2.5758 -4.4057 -1.9080
  238MOL0     H32130   9.393   4.671   7.220  3.3577  0.9719  1.7039
  239MOL0     O32131   7.405   5.598   6.249  0.4617  0.1187  0.8687
  239MOL0     C32132   7.333   5.664   6.318 -0.1416  0.7222 -0.4345
  239MOL0     O32133   7.254   5.614   6.423  0.7172 -0.4474  0.4060
  239MOL0     C32134   7.303   5.496   6.471 -0.3740  0.1210 -1.3684
  239MOL0     C32135   7.211   5.384   6.482  0.1345 -0.0190  0.7422
  239MOL0     C32136   7.252   5.272   6.557 -1.1913  0.2801 -0.4817
  239MOL0     C32137   7.377   5.279   6.633 -0.2389  0.3452  0.1147
  239MOL0     O32138   7.401   5.181   6.724  0.4319 -0.4190  0.2446
  239MOL0     C32139   7.321   5.066   6.720  0.8695  0.9510 -0.8240
  239MOL0     C32140   7.385   4.981   6.830 -0.0442 -0.3900 -0.4809
  239MOL0     C32141   7.530   4.928   6.779  0.5062 -0.5977 -0.7536
  239MOL0     C32142   7.628   4.880   6.881  0.2612 -0.7196  0.2626
  239MOL0     C32143   7.705   4.978   6.969  0.0784 -0.7807 -0.9700
  239MOL0     C32144   7.792   5.070   6.880  0.5982 -0.1720 -0.5294
  239MOL0     C32145   7.927   5.110   6.935 -0.2535 -0.2627  0.3232
  239MOL0     C32146   8.010   5.190   6.829  0.4684 -0.2890  0.1326
  239MOL0     N32147   8.129   5.237   6.906 -0.1743 -0.6606 -0.3689
  239MOL0     C32148   8.166   5.365   6.936  1.0982  0.4787  0.7449
  239MOL0     C32149   8.306   5.352   6.974  1.1288  0.3426  0.3724
  239MOL0     C32150   8.406   5.449   7.038  0.0005  0.0063 -0.3588
  239MOL0     C32151   8.528   5.497   6.949 -0.1062 -0.3689 -0.0512
  239MOL0     C32152   8.663   5.452   7.009  0.8689 -0.0089  0.0397
  239MOL0     C32153   8.767   5.464   6.908 -0.4545  0.6499  0.2803
  239MOL0     O32154   8.805   5.599   6.905  0.6400  0.2561  0.2117
  239MOL0     C32155   8.803   5.676   6.789  0.1285 -0.3710 -0.1098
  239MOL0     C32156   8.733   5.643   6.668 -0.2098  0.3223 -0.1620
  239MOL0     C32157   8.736   5.737   6.565  0.2790 -0.0586  0.1502
  239MOL0     C32158   8.812   5.860   6.566  0.2071  0.5156  0.2613
  239MOL0     C32159   8.799   5.964   6.453 -0.4573  0.0123 -0.2204
  239MOL0     O32160   8.866   6.080   6.464  0.7329 -0.2425 -0.0504
  239MOL0     C32161   8.889   6.165   6.359  0.6805 -0.3425 -1.0342
  239MOL0     C32162   8.922   6.137   6.236 -0.1530  0.1110  0.4018
  239MOL0     C32163   8.945   6.233   6.141 -0.3988  1.0367 -0.2360
  239MOL0     C32164   8.924   6.368   6.166 -0.0462  0.3265 -0.6459
  239MOL0     O32165   8.942   6.450   6.057  0.5055 -0.4836 -0.1642
  239MOL0     C32166   8.860   6.568   6.037 -0.4291 -1.4625  0.1820
  239MOL0     C32167   8.926   6.653   5.926 -0.0303  0.2420 -0.3745
  239MOL0     C32168   8.914   6.595   5.781 -0.3254 -0.2108 -0.0846
  239MOL0     C32169   8.775   6.555   5.734 -0.8529 -0.3481 -0.1541
  239MOL0     C32170   8.776   6.521   5.590  0.6875 -0.1957 -0.7767
  239MOL0     C32171   8.877   6.418   5.545 -0.3090 -0.5289  0.1117
  239MOL0     C32172   8.844   6.353   5.408  0.1081 -0.2101  0.4411
  239MOL0     C32173   8.841   6.451   5.283 -0.2623  0.3262  0.0151
  239MOL0    Cl32174   8.673   6.518   5.277  0.0776  0.3816 -0.0445
  239MOL0     C32175   8.876   6.404   6.287  0.2644 -0.8391  0.4433
  239MOL0     C32176   8.873   6.301   6.389  0.3681 -0.2201  0.2375
  239MOL0     O32177   8.726   5.927   6.366 -0.7759  0.0989  0.0677
  239MOL0     C32178   8.882   5.884   6.681 -0.2248  0.0758  0.0449
  239MOL0     C32179   8.877   5.795   6.789  0.4482 -1.2081  0.1511
  239MOL0     N32180   8.346   5.220   6.952  0.7372  0.8334 -0.2340
  239MOL0     N32181   8.233   5.150   6.923  0.6458 -0.8134  0.4829
  239MOL0     C32182   7.464   5.387   6.624 -0.3559 -0.5012  1.1090
  239MOL0     C32183   7.433   5.488   6.533  0.2978  0.4400 -0.4854
  239MOL0     C32184   7.295   5.802   6.285 -0.6775 -0.8764  0.0463
  239MOL0     C32185   7.217   5.877   6.370  0.7924 -0.6078  0.1242
  239MOL0     C32186   7.157   6.005   6.337  0.9406 -0.3398 -0.8542
  239MOL0     C32187   7.194   6.067   6.218  0.1342 -0.4919  0.4482
  239MOL0     O32188   7.142   6.188   6.179 -0.4438 -0.2329 -0.6434
  239MOL0     C32189   7.032   6.184   6.079 -0.5288 -0.0765 -0.5827
  239MOL0     C32190   6.926   6.102   6.153  0.5162  0.2621  0.5442
  239MOL0     C32191   6.794   6.095   6.076 -0.5906  0.1793  0.1507
  239MOL0     C32192   6.679   6.022   6.139  0.0140 -0.3497  0.3154
  239MOL0     C32193   6.551   6.055   6.074 -0.7242 -0.6043  1.1689
  239MOL0     C32194   6.453   6.086   6.006 -0.5668 -0.0211  0.1503
  239MOL0     C32195   7.292   6.002   6.129  0.0440 -0.5592 -0.1185
  239MOL0     C32196   7.327   5.868   6.157 -0.2193 -0.5002 -0.0251
  239MOL0     C32197   7.413   5.798   6.053 -0.7805 -0.1930 -0.7692
  239MOL0     H32198   7.115   5.392   6.431  1.5240 -1.9861 -2.5430
  239MOL0     H32199   7.184   5.188   6.550  0.8776 -1.3755 -1.6443
  239MOL0     H32200   7.217   5.091   6.743  0.6111 -0.9100  0.2315
  239MOL0     H32201   7.318   5.002   6.631 -0.9351  0.2927 -0.3415
  239MOL0     H32202   7.321   4.894   6.848  3.0644 -2.5393  1.2200
  239MOL0     H32203   7.390   5.042   6.921 -1.1265 -0.7195 -0.1872
  239MOL0     H32204   7.569   5.012   6.720  2.2834 -1.3537 -0.7022
  239MOL0     H32205   7.506   4.838   6.722  2.9740 -0.7118 -1.7076
  239MOL0     H32206   7.566   4.810   6.936  1.0705 -0.5191  1.4646
  239MOL0     H32207   7.700   4.815   6.830  0.8025 -0.9760  1.3398
  239MOL0     H32208   7.628   5.036   7.021  0.7899 -2.6022  2.4388
  239MOL0     H32209   7.754   4.925   7.052 -1.9555  0.4615  1.1401
  239MOL0     H32210   7.806   5.031   6.779  0.7977 -2.2633  0.2538
  239MOL0     H32211   7.730   5.160   6.874 -2.5069 -1.8802  2.5504
  239MOL0     H32212   7.981   5.027   6.980  1.3066  0.2166 -0.5842
  239MOL0     H32213   7.906   5.184   7.014 -3.9286  2.2511 -2.6266
  239MOL0     H32214   8.054   5.133   6.746  0.0477 -0.4971  0.0499
  239MOL0     H32215   7.947   5.271   6.791  0.6174 -0.7715 -1.2099
  239MOL0     H32216   8.106   5.456   6.937  1.5423  0.7911  0.0690
  239MOL0     H32217   8.344   5.531   7.074 -3.9566 -2.8041 -0.1119
  239MOL0     H32218   8.443   5.409   7.134  0.7586 -2.5784 -1.6291
  239MOL0     H32219   8.510   5.469   6.845 -0.5717  0.1481 -0.1132
  239MOL0     H32220   8.538   5.606   6.951 -0.0207 -0.3713  1.7356
  239MOL0     H32221   8.641   5.350   7.040 -0.8583  0.3204  0.0047
  239MOL0     H32222   8.685   5.508   7.101  3.7107 -1.3014  0.2519
  239MOL0     H32223   8.723   5.425   6.816 -3.2375 -1.5726  2.3655
  239MOL0     H32224   8.846   5.396   6.941 -0.6567  0.2703 -0.0044
  239MOL0     H32225   8.675   5.551   6.660  0.5372 -0.2323  0.6249
  239MOL0     H32226   8.678   5.699   6.482 -0.2614 -1.7012  1.2339
  239MOL0     H32227   8.921   6.030   6.216  0.5717  0.4334 -1.5258
  239MOL0     H32228   8.966   6.191   6.043 -3.0042 -1.1622  0.0338
  239MOL0     H32229   8.761   6.529   6.012 -1.0869  1.5606 -2.4217
  239MOL0     H32230   8.851   6.637   6.121  0.5561 -0.4105 -0.5573
  239MOL0     H32231   8.882   6.753   5.917  0.7934  1.0009  2.8040
  239MOL0     H32232   9.032   6.657   5.955 -0.5729  1.9432  1.5918
  239MOL0     H32233   8.959   6.674   5.719 -0.0214 -0.3456 -0.0364
  239MOL0     H32234   8.986   6.515   5.763  2.7990  2.3126  0.2202
  239MOL0     H32235   8.700   6.633   5.748 -1.5403 -0.8450 -0.9592
  239MOL0     H32236   8.743   6.469   5.795  1.6780 -0.8612  0.5727
  239MOL0     H32237   8.791   6.605   5.522 -1.3640 -0.3256 -1.4557
  239MOL0     H32238   8.671   6.494   5.578 -0.4942  2.2229  2.4610
  239MOL0     H32239   8.980   6.456   5.548 -0.1837 -0.5400 -2.3737
  239MOL0     H32240   8.865   6.339   5.619  2.0577 -1.7812 -0.7196
  239MOL0     H32241   8.747   6.304   5.417 -0.3345 -0.1092 -2.7000
  239MOL0     H32242   8.925   6.280   5.398 -0.6713 -1.3615  2.0619
  239MOL0     H32243   8.923   6.523   5.295  0.6185 -0.6805  0.1392
  239MOL0     H32244   8.849   6.387   5.194  0.4395 -2.9980  2.2861
  239MOL0     H32245   8.863   6.510   6.304  0.6732 -0.6989 -0.0825
  239MOL0     H32246   8.856   6.317   6.495 -2.2021 -3.1678  0.4356
  239MOL0     H32247   8.945   5.973   6.681 -0.1146  0.0085 -0.7376
  239MOL0     H32248   8.937   5.829   6.873  0.0015 -0.7447  0.2875
  239MOL0     H32249   7.552   5.381   6.688 -2.0270 -1.2109  3.4920
  239MOL0     H32250   7.489   5.578   6.509  1.3419  0.3810  1.4786
  239MOL0     H32251   7.197   5.828   6.465 -2.4960 -1.6603 -0.9690
  239MOL0     H32252   7.095   6.055   6.411  1.1412  0.3171 -1.1227
  239MOL0     H32253   7.065   6.142   5.983 -1.8179 -2.8008  0.0682
  239MOL0     H32254   6.991   6.284   6.062  1.3519  1.1577  1.5674
  239MOL0     H32255   6.917   6.147   6.252  4.0158  0.7406  0.7668
  239MOL0     H32256   6.965   6.000   6.157  1.0955  0.0739 -4.1904
  239MOL0     H32257   6.827   6.043   5.986 -1.2196 -2.2104  1.2214
  239MOL0     H32258   6.759   6.196   6.053 -0.5103  0.5889  1.6902
  239MOL0     H32259   6.711   5.918   6.130  2.1015 -0.2680  4.2763
  239MOL0     H32260   6.668   6.058   6.242  1.1556  2.5194 -0.5014
  239MOL0     H32261   6.374   6.114   5.939 -0.2236 -3.8993 -2.2306
  239MOL0     H32262   7.316   6.044   6.032  1.3631  1.0896  0.8504
  239MOL0     H32263   7.381   5.695   6.035  0.0485 -1.5055  3.9710
  239MOL0     H32264   7.420   5.848   5.956  4.8014  0.6242 -0.2373
  239MOL0     H32265   7.516   5.798   6.090 -0.2418 -4.8301 -1.7677
  240MOL0     O32266   6.916   3.676   4.268 -0.0496  0.3561  0.5846
  240MOL0     C32267   6.932   3.558   4.283  0.8135  0.5541 -0.5146
  240MOL0     O32268   7.038   3.490   4.259 -0.3773 -0.5258 -0.5631
  240MOL0     C32269   7.158   3.550   4.219 -0.2783 -0.3435 -0.5776
  240MOL0     C32270   7.186   3.677   4.176  0.2153 -0.1337  0.1104
  240MOL0     C32271   7.316   3.713   4.149  0.8936  0.2290 -0.2125
  240MOL0     C32272   7.431   3.627   4.172 -0.8979  0.1468 -0.0874
  240MOL0     O32273   7.564   3.665   4.181  0.4338 -0.2718 -0.3913
  240MOL0     C32274   7.609   3.795   4.136  0.0403  0.4053  0.5194
  240MOL0     C32275   7.575   3.907   4.244 -0.0055  0.5939  0.0001
  240MOL0     C32276   7.658   3.902   4.366  0.5876  0.5777 -0.3779
  240MOL0     C32277   7.595   3.962   4.482 -0.4807  0.3341  0.5255
  240MOL0     C32278   7.574   4.123   4.470  0.6705 -0.2972  0.1248
  240MOL0     C32279   7.508   4.169   4.598 -0.0241  0.3863 -0.4983
  240MOL0     C32280   7.486   4.307   4.610  1.3463 -0.1396  0.2366
  240MOL0     C32281   7.612   4.398   4.636  0.2692  0.6787 -0.1667
  240MOL0     N32282   7.677   4.376   4.767 -0.0505 -0.0230 -0.3120
  240MOL0     C32283   7.619   4.342   4.887  0.1773 -1.9755  0.5775
  240MOL0     C32284   7.710   4.382   4.978 -0.0732  0.8118 -0.0982
  240MOL0     C32285   7.705   4.366   5.132  0.3898  1.0748  0.4134
  240MOL0     C32286   7.567   4.411   5.177  0.3622  0.4204 -0.6855
  240MOL0     C32287   7.544   4.396   5.333 -0.9749  0.3018  0.5855
  240MOL0     C32288   7.644   4.463   5.424 -0.6779  1.1169 -0.5989
  240MOL0     O32289   7.682   4.594   5.377  0.3032  0.1770  0.1148
  240MOL0     C32290   7.600   4.703   5.399  0.2668 -0.1492 -0.2414
  240MOL0     C32291   7.630   4.820   5.320 -0.3270  0.6370  0.1613
  240MOL0     C32292   7.564   4.937   5.341 -0.4952 -0.2403 -0.6779
  240MOL0     C32293   7.457   4.940   5.430  0.2216  0.4584  0.5929
  240MOL0     C32294   7.398   5.073   5.462  0.1980  0.7844  0.0360
  240MOL0     O32295   7.426   5.171   5.379 -0.4303 -0.6043  0.3853
  240MOL0     C32296   7.361   5.288   5.400  0.3658  0.1735 -0.9758
  240MOL0     C32297   7.227   5.322   5.350 -0.8678 -0.5112 -0.6296
  240MOL0     C32298   7.180   5.446   5.371 -0.5108  0.4773 -0.6016
  240MOL0     C32299   7.256   5.552   5.437 -0.1810 -0.2677 -1.0077
  240MOL0     O32300   7.193   5.678   5.442 -0.0659 -0.1402  0.3762
  240MOL0     C32301   7.267   5.783   5.510  0.2090 -0.9776 -0.2027
  240MOL0     C32302   7.183   5.912   5.536  0.8439  0.0989  0.6864
  240MOL0     C32303   7.104   5.913   5.660  1.1238 -0.1929 -0.5723
  240MOL0     C32304   7.013   6.035   5.664  0.7043 -0.1196  1.1763
  240MOL0     C32305   6.872   5.990   5.648  0.4491 -1.0798 -0.1657
  240MOL0     C32306   6.782   6.127   5.643  0.3062  0.2808  0.0403
  240MOL0     C32307   6.629   6.085   5.625 -0.1852 -0.5612 -0.5518
  240MOL0     C32308   6.549   6.222   5.622 -0.4395 -0.0276  0.1677
  240MOL0    Cl32309   6.601   6.333   5.476 -0.1883 -0.2351 -0.2481
  240MOL0     C32310   7.389   5.517   5.479  1.3054 -0.2841 -0.6807
  240MOL0     C32311   7.440   5.391   5.453  0.1546 -0.0824 -0.0548
  240MOL0     O32312   7.351   5.088   5.576 -0.4755 -0.5831  0.0094
  240MOL0     C32313   7.416   4.827   5.497 -0.0132  0.0800 -1.0295
  240MOL0     C32314   7.496   4.707   5.486 -0.0032  0.9387 -0.7051
  240MOL0     N32315   7.821   4.427   4.907 -0.0195 -0.6259 -0.7247
  240MOL0     N32316   7.802   4.424   4.785 -0.1544 -0.5325 -0.5973
  240MOL0     C32317   7.393   3.493   4.206 -0.2182  1.1662  0.3116
  240MOL0     C32318   7.258   3.463   4.230 -0.8373 -0.5234  0.5640
  240MOL0     C32319   6.820   3.482   4.343 -0.7749  0.8318  0.5464
  240MOL0     C32320   6.789   3.357   4.292  0.5904 -1.0171  0.7472
  240MOL0     C32321   6.687   3.279   4.331 -0.1007 -0.0530  0.4748
  240MOL0     C32322   6.596   3.325   4.436  0.5293  0.2716  0.1606
  240MOL0     O32323   6.488   3.252   4.485  0.8849  0.7436  0.1025
  240MOL0     C32324   6.454   3.126   4.425 -0.3326 -0.5260 -0.4683
  240MOL0     C32325   6.376   3.129   4.292  0.2070 -0.8364  0.1846
  240MOL0     C32326   6.301   3.001   4.258  0.4968  1.2271  0.6339
  240MOL0     C32327   6.197   3.030   4.154  0.5178 -1.5241  1.0313
  240MOL0     C32328   6.097   2.930   4.144 -0.7578 -0.3797 -0.1995
  240MOL0     C32329   6.000   2.865   4.130  0.5077 -0.7794  0.1235
  240MOL0     C32330   6.620   3.460   4.482 -0.7015 -0.3148 -0.7187
  240MOL0     C32331   6.734   3.534   4.443 -0.1391 -0.1466 -0.1715
  240MOL0     C32332   6.753   3.671   4.511 -0.4833 -0.2346 -0.6892
  240MOL0     H32333   7.117   3.759   4.158  1.6467  0.6529 -2.1668
  240MOL0     H32334   7.329   3.812   4.107 -0.1553 -0.2896 -1.8727
  240MOL0     H32335   7.716   3.787   4.117 -0.3669 -1.2355 -1.4005
  240MOL0     H32336   7.558   3.817   4.041 -1.4009  2.1230  1.6262
  240MOL0     H32337   7.468   3.897   4.265 -0.2563 -2.4148 -2.0676
  240MOL0     H32338   7.575   4.004   4.195 -1.6529 -0.2172 -1.7376
  240MOL0     H32339   7.755   3.949   4.346  0.4764  0.5933 -0.9088
  240MOL0     H32340   7.674   3.799   4.399  0.3864  0.8357  0.5515
  240MOL0     H32341   7.498   3.914   4.499 -3.4947  4.2089 -3.2337
  240MOL0     H32342   7.659   3.945   4.569 -0.1467 -0.7055  0.0859
  240MOL0     H32343   7.670   4.176   4.472  0.0184  0.9173  0.6260
  240MOL0     H32344   7.510   4.153   4.387 -1.6725  1.3405  2.3554
  240MOL0     H32345   7.407   4.129   4.602  0.0508 -0.0872 -2.5133
  240MOL0     H32346   7.562   4.121   4.681  0.3265 -1.1341 -1.5591
  240MOL0     H32347   7.422   4.310   4.699 -0.6859 -3.4562 -0.9320
  240MOL0     H32348   7.431   4.336   4.520  1.5064 -0.7030 -0.0467
  240MOL0     H32349   7.698   4.396   4.568  0.6349 -0.0770  0.3136
  240MOL0     H32350   7.570   4.499   4.636 -0.3684  0.5981  4.1138
  240MOL0     H32351   7.521   4.296   4.901 -0.5883 -2.0425 -3.6716
  240MOL0     H32352   7.723   4.262   5.160  0.3747  0.8350 -0.4448
  240MOL0     H32353   7.778   4.434   5.177  1.9403 -0.1269 -0.2078
  240MOL0     H32354   7.546   4.513   5.144 -0.9684 -0.6481 -3.4882
  240MOL0     H32355   7.495   4.345   5.127  0.0080 -0.1045  0.4902
  240MOL0     H32356   7.538   4.289   5.357  1.8551 -0.1536 -0.2729
  240MOL0     H32357   7.450   4.442   5.364 -1.7162 -0.3558 -0.6273
  240MOL0     H32358   7.726   4.392   5.435 -0.8106  1.3217  3.1595
  240MOL0     H32359   7.606   4.462   5.527 -1.9166  1.3752 -1.0272
  240MOL0     H32360   7.723   4.829   5.266 -1.2039  3.4301 -1.0664
  240MOL0     H32361   7.597   5.032   5.302 -2.4283  0.3990 -0.8907
  240MOL0     H32362   7.167   5.244   5.304  0.4149 -0.6536 -2.1448
  240MOL0     H32363   7.075   5.471   5.358 -0.8305 -0.5581 -0.1327
  240MOL0     H32364   7.291   5.752   5.612 -3.1815 -1.5882  0.5235
  240MOL0     H32365   7.357   5.811   5.454  2.4091 -2.4119  2.3743
  240MOL0     H32366   7.265   5.983   5.548  1.1006 -0.0216 -0.3078
  240MOL0     H32367   7.119   5.941   5.452  0.3199 -0.0898  1.0137
  240MOL0     H32368   7.044   5.821   5.657 -0.2013  0.6736 -1.5649
  240MOL0     H32369   7.162   5.917   5.753  1.8292 -2.5654 -0.8511
  240MOL0     H32370   7.032   6.112   5.589  0.0585  1.4584  2.5534
  240MOL0     H32371   7.036   6.075   5.764 -0.7517  1.7677  0.8088
  240MOL0     H32372   6.847   5.917   5.726 -1.1468 -0.5783 -0.1755
  240MOL0     H32373   6.858   5.943   5.550 -0.7513 -0.1455 -0.4528
  240MOL0     H32374   6.796   6.177   5.739  0.2213  0.0073  0.1962
  240MOL0     H32375   6.810   6.205   5.571 -1.3427  4.6824  3.6742
  240MOL0     H32376   6.593   6.025   5.710  1.2756 -1.2142 -0.3757
  240MOL0     H32377   6.595   6.025   5.540 -1.4978 -0.2953 -0.2394
  240MOL0     H32378   6.445   6.196   5.604 -0.3567  0.2928 -0.8190
  240MOL0     H32379   6.565   6.268   5.720  1.5734  0.3378 -0.2939
  240MOL0     H32380   7.450   5.594   5.526  0.5013 -0.8866  1.4666
  240MOL0     H32381   7.539   5.360   5.484 -1.7444 -3.3236  3.6319
  240MOL0     H32382   7.321   4.837   5.548  0.8936  0.7641  0.6292
  240MOL0     H32383   7.471   4.624   5.552 -0.9009  2.1002  0.4577
  240MOL0     H32384   7.472   3.419   4.212  0.7173  2.1247  0.2351
  240MOL0     H32385   7.227   3.365   4.264 -1.6814  0.5348  3.0845
  240MOL0     H32386   6.853   3.317   4.214  1.4229 -1.4503  1.6387
  240MOL0     H32387   6.689   3.180   4.288  1.0982  0.1422  0.0316
  240MOL0     H32388   6.382   3.077   4.492 -3.1919  1.5038 -1.8490
  240MOL0     H32389   6.546   3.066   4.426  0.2632  0.3663 -0.8410
  240MOL0     H32390   6.451   3.165   4.221 -0.5739  0.7709  0.1437
  240MOL0     H32391   6.305   3.211   4.308  0.3993  0.0542 -2.7994
  240MOL0     H32392   6.248   2.969   4.348  0.6187 -0.9007  0.0065
  240MOL0     H32393   6.368   2.923   4.221  0.5025  2.4844 -2.2287
  240MOL0     H32394   6.136   3.120   4.171 -0.8971 -2.5629  1.6382
  240MOL0     H32395   6.246   3.046   4.057 -0.8664 -3.7498 -0.1311
  240MOL0     H32396   5.926   2.794   4.099 -0.5228  0.7015 -0.9185
  240MOL0     H32397   6.556   3.510   4.554 -1.0249 -0.5476 -0.8419
  240MOL0     H32398   6.674   3.685   4.585  1.3785  0.6924  1.2483
  240MOL0     H32399   6.851   3.670   4.561 -1.6355 -1.0311  1.7118
  240MOL0     H32400   6.735   3.757   4.445  0.4609 -0.9611 -1.9303
  241MOL0     O32401   2.599   5.031   1.556  0.7648 -0.6110  0.3138
  241MOL0     C32402   2.605   4.913   1.589 -0.8642  0.5374 -0.0229
  241MOL0     O32403   2.507   4.820   1.568  0.3656  0.8309 -0.3771
  241MOL0     C32404   2.398   4.873   1.512  1.0707  1.0201 -1.2049
  241MOL0     C32405   2.291   4.923   1.589  0.4927 -0.1584 -0.1160
  241MOL0     C32406   2.161   4.957   1.529 -0.9941 -0.1615  0.1187
  241MOL0     C32407   2.139   4.934   1.393 -0.4621  0.5986 -0.8584
  241MOL0     O32408   2.011   4.935   1.352 -0.0954  0.4793  0.7843
  241MOL0     C32409   1.982   4.955   1.213 -0.8252 -0.2261  0.4704
  241MOL0     C32410   1.836   4.953   1.187 -0.2054 -0.2338 -0.4172
  241MOL0     C32411   1.787   4.814   1.147 -0.5992 -0.0791  0.8010
  241MOL0     C32412   1.644   4.828   1.091 -1.0549 -0.5446  0.2935
  241MOL0     C32413   1.591   4.684   1.054 -0.0272  0.3058  0.3260
  241MOL0     C32414   1.440   4.683   1.021 -0.4417 -0.3731 -0.0785
  241MOL0     C32415   1.399   4.552   0.958 -0.1930  1.6943 -0.1030
  241MOL0     C32416   1.398   4.437   1.066 -0.1118  0.6010  0.2434
  241MOL0     N32417   1.292   4.434   1.162 -0.4502 -0.7044 -0.5512
  241MOL0     C32418   1.317   4.477   1.287 -0.5545 -0.1851 -0.2196
  241MOL0     C32419   1.198   4.484   1.342 -0.4675 -0.4725  0.0332
  241MOL0     C32420   1.172   4.543   1.480  0.5318  0.2778 -0.9079
  241MOL0     C32421   1.142   4.692   1.497  0.3878  1.1777 -0.2597
  241MOL0     C32422   1.255   4.772   1.435  0.1689  0.3550  0.2513
  241MOL0     C32423   1.380   4.765   1.518 -0.8288 -0.1578 -0.0702
  241MOL0     O32424   1.474   4.865   1.475  0.2766  0.0992 -0.4176
  241MOL0     C32425   1.579   4.882   1.557 -0.5971 -0.2686 -0.3078
  241MOL0     C32426   1.624   4.797   1.663 -0.8208 -0.4388 -0.4335
  241MOL0     C32427   1.726   4.851   1.743 -0.7517  0.4038  0.0291
  241MOL0     C32428   1.788   4.975   1.731 -0.2912 -0.0752  0.9007
  241MOL0     C32429   1.906   5.021   1.821 -0.3889 -0.0274  0.9527
  241MOL0     O32430   1.964   4.927   1.888  0.5138  0.3468  0.6565
  241MOL0     C32431   2.095   4.934   1.928 -1.1748  1.5301 -0.3501
  241MOL0     C32432   2.151   4.819   1.987  0.1958 -0.4188 -1.1287
  241MOL0     C32433   2.274   4.820   2.042  0.4567  1.4322  0.2234
  241MOL0     C32434   2.358   4.934   2.041 -0.7451  0.3601 -0.3368
  241MOL0     O32435   2.477   4.950   2.105 -0.2538  1.0988 -0.6659
  241MOL0     C32436   2.596   4.977   2.030 -0.0458  1.3943  0.2108
  241MOL0     C32437   2.719   4.905   2.068 -0.0280 -0.3219 -0.4301
  241MOL0     C32438   2.789   4.957   2.193  0.0562 -0.6924 -0.2365
  241MOL0     C32439   2.917   4.882   2.202 -0.1236 -0.5526 -0.4229
  241MOL0     C32440   2.998   4.953   2.316  0.3196 -0.2929 -0.3587
  241MOL0     C32441   3.113   4.859   2.362  0.2024 -0.2165 -0.6893
  241MOL0     C32442   3.177   4.908   2.491  0.2043  1.0824 -0.3310
  241MOL0     C32443   3.290   5.006   2.466  0.5827  0.1346  0.1543
  241MOL0    Cl32444   3.369   5.044   2.628 -0.2324 -0.0171  0.4668
  241MOL0     C32445   2.317   5.041   1.972  0.1466  0.3323 -0.9787
  241MOL0     C32446   2.192   5.039   1.924  0.4263 -0.9989  0.8353
  241MOL0     O32447   1.942   5.137   1.810 -0.1458 -0.7783 -0.4684
  241MOL0     C32448   1.739   5.057   1.623 -0.1020 -0.6393  0.1999
  241MOL0     C32449   1.641   5.009   1.533 -0.4555 -0.1317  0.3515
  241MOL0     N32450   1.099   4.472   1.242  0.5979  0.2698  0.0771
  241MOL0     N32451   1.158   4.432   1.134  0.1736  0.3410 -0.6628
  241MOL0     C32452   2.251   4.878   1.325 -0.4567  0.2793 -0.4073
  241MOL0     C32453   2.372   4.839   1.380  0.5378 -1.1172  0.2138
  241MOL0     C32454   2.723   4.866   1.655  1.2647 -0.6941 -0.9397
  241MOL0     C32455   2.707   4.743   1.718  0.1633 -0.2246  0.1194
  241MOL0     C32456   2.806   4.690   1.805 -0.4781 -0.4324 -0.1101
  241MOL0     C32457   2.918   4.763   1.827  0.2203 -1.0441 -1.1842
  241MOL0     O32458   3.017   4.718   1.906  1.1526 -0.3668 -0.7873
  241MOL0     C32459   3.041   4.574   1.907 -0.1058 -0.3842 -0.0959
  241MOL0     C32460   3.000   4.511   2.035 -0.2148  0.3960  1.0084
  241MOL0     C32461   3.080   4.561   2.152 -0.3061 -0.0367  0.1956
  241MOL0     C32462   3.199   4.469   2.178 -0.9348 -1.2898 -0.0184
  241MOL0     C32463   3.172   4.329   2.200  0.6416 -0.9030  0.4736
  241MOL0     C32464   3.159   4.208   2.205 -1.4949 -0.4085 -0.0151
  241MOL0     C32465   2.943   4.880   1.746  0.1421  0.8814 -0.0421
  241MOL0     C32466   2.847   4.934   1.659  0.9597  0.6412 -0.3475
  241MOL0     C32467   2.878   5.058   1.573  0.4145 -0.0295 -0.5835
  241MOL0     H32468   2.306   4.914   1.696 -0.4805 -0.0630  0.0388
  241MOL0     H32469   2.076   4.988   1.589 -0.9247  1.3394 -0.5086
  241MOL0     H32470   2.007   5.059   1.193 -1.5308 -0.5370 -2.5628
  241MOL0     H32471   2.035   4.890   1.142  1.0449  1.8833 -0.1793
  241MOL0     H32472   1.828   5.016   1.099  5.0719  1.2347 -0.1705
  241MOL0     H32473   1.790   4.999   1.275  1.8661  2.2055 -0.5099
  241MOL0     H32474   1.785   4.754   1.238 -1.0191  0.1931  0.9775
  241MOL0     H32475   1.858   4.777   1.073  1.5392  0.5717  2.4222
  241MOL0     H32476   1.576   4.879   1.160  1.5198  0.7456  2.0659
  241MOL0     H32477   1.644   4.892   1.003 -2.0478  2.1103  2.0895
  241MOL0     H32478   1.637   4.660   0.958 -0.9844 -2.3435  0.4341
  241MOL0     H32479   1.618   4.615   1.135 -0.0710  1.9508  1.7870
  241MOL0     H32480   1.390   4.689   1.118  1.0202 -1.9197  0.8319
  241MOL0     H32481   1.415   4.762   0.949  1.4503 -0.5774 -1.0009
  241MOL0     H32482   1.469   4.519   0.881 -2.4545 -1.0973 -1.1091
  241MOL0     H32483   1.307   4.547   0.900  0.1254  2.4181 -0.6826
  241MOL0     H32484   1.397   4.340   1.016 -2.6291  0.7983 -0.2204
  241MOL0     H32485   1.486   4.437   1.131 -2.8562 -0.5487  4.3153
  241MOL0     H32486   1.408   4.490   1.345 -0.0368 -0.4776 -0.9486
  241MOL0     H32487   1.083   4.496   1.522 -0.2097  3.3192  1.2349
  241MOL0     H32488   1.256   4.528   1.549  0.4525 -0.4837 -0.9630
  241MOL0     H32489   1.046   4.716   1.450 -0.3966 -0.8647  0.1944
  241MOL0     H32490   1.130   4.713   1.604 -3.4731 -3.4312  0.5358
  241MOL0     H32491   1.212   4.872   1.445  1.0929  0.7988 -0.1397
  241MOL0     H32492   1.253   4.756   1.327 -1.7791  1.9193  0.0078
  241MOL0     H32493   1.434   4.670   1.513  0.3529  0.5152 -0.2599
  241MOL0     H32494   1.358   4.794   1.622  1.2967  0.9693  0.1171
  241MOL0     H32495   1.583   4.698   1.675 -0.7378 -0.4652 -0.3714
  241MOL0     H32496   1.761   4.795   1.830 -0.3377  0.3732 -0.1521
  241MOL0     H32497   2.091   4.728   1.987  0.0778 -0.3751  0.3866
  241MOL0     H32498   2.294   4.728   2.095 -1.0070 -0.1268 -1.7617
  241MOL0     H32499   2.572   4.951   1.927 -1.1577  0.9838  0.5643
  241MOL0     H32500   2.618   5.084   2.037  0.3576  1.3173  0.1796
  241MOL0     H32501   2.696   4.798   2.065 -1.1654 -0.0705 -1.6877
  241MOL0     H32502   2.789   4.935   1.988  0.4464  0.4964  0.2726
  241MOL0     H32503   2.792   5.066   2.202 -2.1284 -0.5215 -1.0791
  241MOL0     H32504   2.726   4.926   2.277 -0.0275  0.2442  0.0672
  241MOL0     H32505   2.977   4.897   2.111  0.8889  2.1173  0.5909
  241MOL0     H32506   2.896   4.776   2.220  0.7815 -0.9212 -1.3949
  241MOL0     H32507   2.940   4.978   2.406  0.1583  0.5157 -0.6856
  241MOL0     H32508   3.042   5.041   2.268 -2.8001  0.4603 -2.1259
  241MOL0     H32509   3.062   4.763   2.369 -0.1955 -0.0145 -0.8401
  241MOL0     H32510   3.198   4.838   2.296  1.0198 -1.2800  0.6271
  241MOL0     H32511   3.220   4.828   2.552 -2.0905 -0.2988 -0.3932
  241MOL0     H32512   3.101   4.954   2.555  0.2895 -0.2005  0.7370
  241MOL0     H32513   3.366   4.972   2.395  0.0095 -2.0762  0.5284
  241MOL0     H32514   3.254   5.093   2.411  1.9227 -0.0177 -1.0395
  241MOL0     H32515   2.387   5.121   1.952 -0.5231  0.9417 -0.9387
  241MOL0     H32516   2.163   5.134   1.880  2.5941  0.2319  1.9421
  241MOL0     H32517   1.780   5.151   1.588 -0.8522 -0.7256 -0.9502
  241MOL0     H32518   1.610   5.074   1.451 -0.1520  0.9963  1.1125
  241MOL0     H32519   2.236   4.842   1.224  0.5043  1.4975 -1.0159
  241MOL0     H32520   2.451   4.791   1.322  1.2800 -0.7366  0.8991
  241MOL0     H32521   2.612   4.691   1.710 -1.5637  1.5581  5.0171
  241MOL0     H32522   2.790   4.594   1.854  0.4818 -2.2369 -3.0278
  241MOL0     H32523   3.147   4.558   1.888 -0.3475 -1.2146 -0.8019
  241MOL0     H32524   2.989   4.529   1.822 -1.7826  1.1961  0.0258
  241MOL0     H32525   2.990   4.403   2.021  0.4498  0.2156  1.8157
  241MOL0     H32526   2.896   4.542   2.042 -1.5543 -2.7516 -1.8213
  241MOL0     H32527   3.010   4.549   2.236 -1.9556  0.8678 -0.9777
  241MOL0     H32528   3.117   4.663   2.140  1.0226 -0.2102  2.3552
  241MOL0     H32529   3.276   4.480   2.101 -1.4308  0.7129 -0.2874
  241MOL0     H32530   3.251   4.517   2.261  0.2257  2.6356 -2.6797
  241MOL0     H32531   3.143   4.104   2.221  0.4300 -1.0006 -1.5863
  241MOL0     H32532   3.038   4.932   1.744 -0.1395  1.3859 -0.4324
  241MOL0     H32533   2.984   5.075   1.556  0.1726 -0.0099 -2.2116
  241MOL0     H32534   2.832   5.048   1.475  3.8623  0.2514 -2.3638
  241MOL0     H32535   2.832   5.141   1.628  0.8338 -0.3692  0.2945
  242MOL0     O32536   6.718   7.261   2.521 -0.2824 -0.2109 -0.3597
  242MOL0     C32537   6.705   7.350   2.604  0.0823 -0.9124  0.1027
  242MOL0     O32538   6.584   7.398   2.655  0.3453 -0.5284  0.5723
  242MOL0     C32539   6.477   7.358   2.601  1.7100 -0.0738 -0.3362
  242MOL0     C32540   6.391   7.290   2.682  0.2543 -0.6221 -1.2611
  242MOL0     C32541   6.260   7.265   2.644 -0.2909 -0.0163  0.5188
  242MOL0     C32542   6.210   7.306   2.522  0.6780  0.4169  1.0312
  242MOL0     O32543   6.085   7.261   2.485  0.0756  0.1316 -0.5075
  242MOL0     C32544   6.080   7.218   2.342 -0.9194 -0.0119 -0.3153
  242MOL0     C32545   5.951   7.142   2.324  0.3305  0.7753 -0.5059
  242MOL0     C32546   5.822   7.221   2.342 -0.1157 -0.0647 -0.6885
  242MOL0     C32547   5.692   7.140   2.351  1.1562  0.0250 -0.1068
  242MOL0     C32548   5.688   7.033   2.471  0.3437 -0.2149 -0.3427
  242MOL0     C32549   5.542   6.995   2.478 -0.7676  0.1866 -0.4819
  242MOL0     C32550   5.503   6.897   2.583  1.5223 -0.7283  0.1460
  242MOL0     C32551   5.346   6.868   2.578 -0.8911 -0.4093  0.7882
  242MOL0     N32552   5.301   6.788   2.465 -1.5464 -0.1981 -0.4342
  242MOL0     C32553   5.288   6.828   2.332  0.5250 -0.8881  0.2376
  242MOL0     C32554   5.257   6.715   2.268  0.1700 -0.1872  0.4328
  242MOL0     C32555   5.232   6.715   2.118 -0.2713  0.3789  0.5562
  242MOL0     C32556   5.111   6.803   2.073 -0.1495 -0.3564  0.1063
  242MOL0     C32557   4.984   6.753   2.154 -0.7177 -1.0020 -0.4233
  242MOL0     C32558   4.893   6.869   2.198 -0.2801  0.4683 -0.0780
  242MOL0     O32559   4.964   6.961   2.279 -0.4533  0.0348 -0.4777
  242MOL0     C32560   4.977   6.940   2.415 -0.3018  0.4585  0.3810
  242MOL0     C32561   5.030   7.041   2.496  0.8126  0.4419  0.1080
  242MOL0     C32562   5.028   7.022   2.632 -0.7629 -0.2921  1.3913
  242MOL0     C32563   4.993   6.907   2.689  1.0700  0.7071  0.3442
  242MOL0     C32564   5.014   6.887   2.836  0.2114  0.6648  0.1624
  242MOL0     O32565   5.098   6.984   2.889  0.0491 -0.0945 -0.4422
  242MOL0     C32566   5.137   6.961   3.025  0.4758 -0.4361  0.6851
  242MOL0     C32567   5.160   7.070   3.111 -0.9136  0.0044  0.2433
  242MOL0     C32568   5.209   7.050   3.243  0.1500 -0.2297 -0.5364
  242MOL0     C32569   5.247   6.922   3.295  0.4882  0.8067  0.3287
  242MOL0     O32570   5.305   6.918   3.415 -0.2012  0.9342 -0.1551
  242MOL0     C32571   5.221   6.893   3.527  0.1049  1.1082  0.2063
  242MOL0     C32572   5.315   6.883   3.644 -0.3899  0.2170 -0.0150
  242MOL0     C32573   5.365   6.742   3.673  0.5790 -0.0545 -0.2119
  242MOL0     C32574   5.459   6.753   3.797 -0.1621 -1.2890 -0.0101
  242MOL0     C32575   5.534   6.640   3.827 -0.5942  0.5718  0.1136
  242MOL0     C32576   5.614   6.652   3.958 -0.0263  0.3647  0.2099
  242MOL0     C32577   5.700   6.781   3.964 -0.2177  0.8124  0.7436
  242MOL0     C32578   5.821   6.761   4.045  0.0112 -1.0277 -0.2440
  242MOL0    Cl32579   5.760   6.752   4.216  0.6268 -0.1208 -0.5713
  242MOL0     C32580   5.232   6.815   3.203  0.3136  0.7817 -0.3427
  242MOL0     C32581   5.182   6.835   3.068 -0.9386  0.2746 -0.1614
  242MOL0     O32582   4.964   6.787   2.889  0.2153 -0.2972 -0.7478
  242MOL0     C32583   4.945   6.800   2.614  0.7380  0.3984 -0.7811
  242MOL0     C32584   4.946   6.819   2.479  0.1975  0.1766  0.5708
  242MOL0     N32585   5.252   6.613   2.354  0.2808 -0.2722  0.0179
  242MOL0     N32586   5.277   6.655   2.479 -0.1328  0.2804  0.4636
  242MOL0     C32587   6.294   7.383   2.445 -0.8737 -0.0092  0.0887
  242MOL0     C32588   6.423   7.419   2.485  0.2378  0.7234  0.9166
  242MOL0     C32589   6.822   7.433   2.639  0.2347  0.4930  0.4575
  242MOL0     C32590   6.801   7.571   2.657  0.6669 -0.3988 -0.5110
  242MOL0     C32591   6.903   7.651   2.709  0.2470 -0.2351  0.3907
  242MOL0     C32592   7.030   7.608   2.734 -0.0280  0.1305 -1.3177
  242MOL0     O32593   7.115   7.708   2.783 -0.4785 -0.1082 -0.7826
  242MOL0     C32594   7.244   7.662   2.840  0.9291  0.3220 -0.1264
  242MOL0     C32595   7.321   7.785   2.876 -1.2475 -0.9042  0.1239
  242MOL0     C32596   7.481   7.754   2.867  0.6556 -0.2709 -0.4021
  242MOL0     C32597   7.570   7.806   2.982  0.3736 -0.9836 -0.2853
  242MOL0     C32598   7.702   7.743   2.970  0.3214  0.4471 -0.6861
  242MOL0     C32599   7.818   7.699   2.964  0.3219 -0.7161 -0.1862
  242MOL0     C32600   7.055   7.477   2.713 -0.6549 -0.0854 -0.4579
  242MOL0     C32601   6.961   7.389   2.659 -0.6094 -0.4255  0.2939
  242MOL0     C32602   7.000   7.245   2.639  0.2808 -0.0929  0.0297
  242MOL0     H32603   6.407   7.253   2.783 -2.2785 -2.2264 -1.3511
  242MOL0     H32604   6.212   7.199   2.715 -0.4611 -2.5035 -1.7450
  242MOL0     H32605   6.073   7.302   2.273  1.6010  1.4518  1.0272
  242MOL0     H32606   6.158   7.145   2.321 -1.1073  0.7955 -4.5393
  242MOL0     H32607   5.950   7.066   2.402 -2.6227  0.1713 -0.9864
  242MOL0     H32608   5.952   7.092   2.226  1.6585 -1.6042  0.6255
  242MOL0     H32609   5.804   7.298   2.266 -3.6736 -4.1465 -4.6630
  242MOL0     H32610   5.833   7.271   2.438 -1.3991 -0.0199 -0.5426
  242MOL0     H32611   5.612   7.215   2.360  1.7203  0.8254 -1.5069
  242MOL0     H32612   5.675   7.086   2.258 -1.6474 -2.8000  1.8292
  242MOL0     H32613   5.759   6.951   2.457  2.8439  1.8691 -0.8660
  242MOL0     H32614   5.702   7.084   2.567 -2.7557 -1.7467  1.0502
  242MOL0     H32615   5.487   7.089   2.487 -0.7251  0.1301  0.4325
  242MOL0     H32616   5.520   6.946   2.382 -1.0734  2.3308 -1.5578
  242MOL0     H32617   5.546   6.943   2.673  4.1877 -1.2548 -0.7722
  242MOL0     H32618   5.553   6.800   2.577  1.5293 -1.2129  4.5373
  242MOL0     H32619   5.336   6.812   2.671  0.3066  0.2060  1.3123
  242MOL0     H32620   5.285   6.959   2.577  1.1325  1.0199 -0.5436
  242MOL0     H32621   5.290   6.930   2.295 -3.1957  0.7514  3.7839
  242MOL0     H32622   5.324   6.756   2.075 -2.4591  1.4161 -3.6847
  242MOL0     H32623   5.214   6.614   2.081  2.3078  1.0832 -3.1455
  242MOL0     H32624   5.141   6.903   2.106  1.8903 -0.9862  0.3358
  242MOL0     H32625   5.101   6.804   1.964  1.8424 -2.8200 -0.2147
  242MOL0     H32626   5.007   6.699   2.246  0.9818 -2.2326 -1.4848
  242MOL0     H32627   4.934   6.676   2.094 -0.9795  0.2859 -1.9466
  242MOL0     H32628   4.802   6.832   2.246 -0.5019 -0.7211 -1.3495
  242MOL0     H32629   4.865   6.926   2.108  0.5254  1.3413  0.2099
  242MOL0     H32630   5.056   7.136   2.451 -0.8720 -0.9003 -4.2017
  242MOL0     H32631   5.071   7.110   2.679 -1.4280  0.1601  1.1710
  242MOL0     H32632   5.158   7.175   3.083  4.8121  0.4767  0.5451
  242MOL0     H32633   5.224   7.134   3.310  2.3189 -2.9507  2.7095
  242MOL0     H32634   5.159   6.980   3.553 -2.8670 -1.7453  3.7983
  242MOL0     H32635   5.167   6.798   3.519 -1.8296  1.8464  3.0001
  242MOL0     H32636   5.394   6.957   3.627 -1.0265  1.2509  1.2916
  242MOL0     H32637   5.264   6.908   3.738 -1.5894 -0.5686 -0.4396
  242MOL0     H32638   5.286   6.673   3.703  1.8916 -2.4545 -1.8528
  242MOL0     H32639   5.407   6.694   3.584 -0.6406 -3.7112  1.0080
  242MOL0     H32640   5.409   6.776   3.892  1.5058  0.3343  0.5399
  242MOL0     H32641   5.523   6.839   3.775 -0.3695 -1.1089  0.0821
  242MOL0     H32642   5.593   6.615   3.738  2.6577  0.4243  2.1483
  242MOL0     H32643   5.463   6.558   3.835 -0.0016  0.0081 -0.3161
  242MOL0     H32644   5.552   6.653   4.048  1.2256  0.4957  1.1070
  242MOL0     H32645   5.677   6.563   3.973  2.2394  2.1699  2.1394
  242MOL0     H32646   5.638   6.862   4.002 -2.4567  0.2536 -1.4326
  242MOL0     H32647   5.724   6.809   3.861 -1.7551  2.0395  0.6812
  242MOL0     H32648   5.880   6.673   4.020  1.0884 -0.6371  0.8235
  242MOL0     H32649   5.888   6.846   4.035 -0.8911 -0.4125 -1.3113
  242MOL0     H32650   5.257   6.712   3.226  1.1645  1.6743  3.3475
  242MOL0     H32651   5.188   6.749   3.002 -2.1042  0.2833 -0.3028
  242MOL0     H32652   4.921   6.709   2.668  1.0281 -0.5455 -2.1913
  242MOL0     H32653   4.893   6.742   2.423 -1.8965 -0.0645  2.7066
  242MOL0     H32654   6.236   7.418   2.360  1.0894  1.4388 -0.7275
  242MOL0     H32655   6.495   7.489   2.443  2.2795  0.2794  3.4187
  242MOL0     H32656   6.704   7.608   2.626 -0.2145 -3.6273 -2.0310
  242MOL0     H32657   6.879   7.754   2.734 -0.6988 -0.1617 -0.7471
  242MOL0     H32658   7.299   7.599   2.770  1.5846  1.2826 -0.4919
  242MOL0     H32659   7.236   7.604   2.932  3.4851  2.4871  1.6343
  242MOL0     H32660   7.294   7.825   2.974  1.0453  3.0094 -0.6433
  242MOL0     H32661   7.312   7.867   2.805  1.1858 -0.9212 -0.2904
  242MOL0     H32662   7.517   7.790   2.771 -2.6910  1.5708 -1.1175
  242MOL0     H32663   7.491   7.645   2.855 -0.7493 -0.4453 -0.1882
  242MOL0     H32664   7.575   7.916   2.984 -1.9421 -0.7861 -1.5031
  242MOL0     H32665   7.540   7.771   3.081  2.0332 -3.2658 -0.5255
  242MOL0     H32666   7.921   7.670   2.961 -0.0364 -2.3032  1.4534
  242MOL0     H32667   7.153   7.441   2.743  0.4208  1.6729 -1.6754
  242MOL0     H32668   7.107   7.227   2.652  0.2593 -0.7661 -0.6409
  242MOL0     H32669   6.936   7.174   2.692  1.4708 -1.1096  0.1528
  242MOL0     H32670   6.990   7.223   2.532  1.5668 -1.1466  0.1021
  243MOL0     O32671   4.668  10.601   1.430  0.6169  0.1532  0.4660
  243MOL0     C32672   4.591  10.513   1.377 -0.0004 -0.1340 -1.1617
  243MOL0     O32673   4.611  10.382   1.383  0.2456  0.0732  0.1215
  243MOL0     C32674   4.729  10.318   1.409  0.9675  0.5649  0.2071
  243MOL0     C32675   4.746  10.184   1.360  0.9438 -0.4061  0.2565
  243MOL0     C32676   4.874  10.122   1.368  0.0257  0.0922 -0.7000
  243MOL0     C32677   4.971  10.167   1.456  0.1717 -0.6545 -0.7600
  243MOL0     O32678   5.088  10.105   1.492 -0.0126 -0.5979  0.2554
  243MOL0     C32679   5.179  10.082   1.372 -1.0376 -0.5136  0.1385
  243MOL0     C32680   5.303  10.171   1.364 -0.9996 -0.9450  0.5649
  243MOL0     C32681   5.413  10.154   1.468 -0.6881  0.5023 -1.4479
  243MOL0     C32682   5.498  10.282   1.438  0.8279  0.2576  0.6254
  243MOL0     C32683   5.622  10.310   1.525 -0.7839  0.2486 -0.5154
  243MOL0     C32684   5.702  10.437   1.476 -0.6049  0.6938  0.2421
  243MOL0     C32685   5.844  10.453   1.522 -0.3103 -0.4903  0.2601
  243MOL0     C32686   5.856  10.463   1.681  0.2088  0.6260 -0.6820
  243MOL0     N32687   5.980  10.408   1.736  0.0590  0.3666 -0.1865
  243MOL0     C32688   6.091  10.472   1.782  0.2466  0.1656 -0.2479
  243MOL0     C32689   6.160  10.377   1.842  0.7037 -0.5169 -0.5378
  243MOL0     C32690   6.288  10.406   1.920 -0.1514  0.3196 -1.1374
  243MOL0     C32691   6.300  10.329   2.055 -0.6511  0.1576 -0.1533
  243MOL0     C32692   6.200  10.373   2.160 -0.2842 -0.7671  0.1176
  243MOL0     C32693   6.258  10.475   2.258 -0.3937 -0.6921  0.2173
  243MOL0     O32694   6.254  10.609   2.195 -0.2560  0.6689  0.1796
  243MOL0     C32695   6.325  10.708   2.238 -0.8734  0.1490 -0.0796
  243MOL0     C32696   6.418  10.773   2.158 -1.2197 -0.4271 -0.3262
  243MOL0     C32697   6.483  10.894   2.183  0.1836  0.0713  0.7337
  243MOL0     C32698   6.447  10.956   2.307  0.3397  0.4500 -0.1455
  243MOL0     C32699   6.515  11.076   2.347  0.0920 -0.5037  0.2661
  243MOL0     O32700   6.464  11.153   2.452 -0.2122  0.0892  0.1462
  243MOL0     C32701   6.535  11.269   2.481  0.0494  0.5934 -0.3161
  243MOL0     C32702   6.645  11.273   2.564  0.9272  0.2033 -0.0710
  243MOL0     C32703   6.719  11.390   2.582 -0.2995 -0.2225  0.5049
  243MOL0     C32704   6.695  11.507   2.506  0.0354 -0.4674  0.6409
  243MOL0     O32705   6.758  11.623   2.531 -0.7586  0.0230  0.4268
  243MOL0     C32706   6.708  11.749   2.487 -0.4723  0.0397 -1.0744
  243MOL0     C32707   6.792  11.819   2.388  0.2364 -1.0937 -1.3454
  243MOL0     C32708   6.768  11.970   2.373 -0.1011 -0.3411 -0.1014
  243MOL0     C32709   6.638  11.996   2.293  0.2989 -0.8018  0.1986
  243MOL0     C32710   6.627  11.923   2.159  0.0890 -0.4053 -1.3280
  243MOL0     C32711   6.489  11.957   2.095  0.0232  0.8495 -0.4856
  243MOL0     C32712   6.448  11.843   1.992 -0.3148 -1.2002 -0.8977
  243MOL0     C32713   6.328  11.889   1.909  1.0930 -0.4203  1.1513
  243MOL0    Cl32714   6.183  11.915   2.017  0.0459  0.2853  0.3561
  243MOL0     C32715   6.596  11.493   2.410 -0.3028 -0.1505  1.6191
  243MOL0     C32716   6.518  11.382   2.399 -0.5359 -0.5116  0.3453
  243MOL0     O32717   6.619  11.098   2.280 -0.3580  0.5147  0.0532
  243MOL0     C32718   6.354  10.889   2.388  0.0205 -0.6387 -0.3889
  243MOL0     C32719   6.294  10.768   2.363 -0.3068  0.8002  0.6193
  243MOL0     N32720   6.108  10.253   1.818  0.9043  0.2690 -0.1643
  243MOL0     N32721   5.988  10.273   1.755 -0.8549 -0.3722 -0.0757
  243MOL0     C32722   4.943  10.289   1.523 -0.1321 -0.2033  0.4901
  243MOL0     C32723   4.827  10.366   1.496  0.4183  0.4045 -0.6010
  243MOL0     C32724   4.454  10.565   1.328 -0.4508 -0.6258 -0.2050
  243MOL0     C32725   4.441  10.699   1.285  0.1455 -0.0759 -0.2228
  243MOL0     C32726   4.318  10.758   1.238 -0.7937 -0.8158 -0.6643
  243MOL0     C32727   4.210  10.676   1.234 -0.3843  0.5960  1.4711
  243MOL0     O32728   4.102  10.735   1.178 -0.4442 -0.8059 -0.0661
  243MOL0     C32729   4.103  10.748   1.036 -0.7150  0.1106  0.1288
  243MOL0     C32730   3.964  10.756   0.984  1.3909 -0.4184 -0.0400
  243MOL0     C32731   3.879  10.861   1.064  0.4951  0.0994  0.0467
  243MOL0     C32732   3.742  10.910   0.998 -0.0459 -0.9868  0.6710
  243MOL0     C32733   3.659  10.803   0.968  0.6746  0.1880 -0.5041
  243MOL0     C32734   3.577  10.713   0.951 -0.0006 -0.0119 -0.1098
  243MOL0     C32735   4.216  10.546   1.277  0.0970  0.6145 -0.4340
  243MOL0     C32736   4.337  10.485   1.316  0.1083  0.4889  0.6656
  243MOL0     C32737   4.337  10.341   1.352 -0.1146  0.1393 -0.6346
  243MOL0     H32738   4.665  10.134   1.308  1.0646  0.4661 -0.8059
  243MOL0     H32739   4.912  10.035   1.315 -0.3288 -0.9063  0.6311
  243MOL0     H32740   5.216   9.987   1.410  0.6571  1.6436  4.5168
  243MOL0     H32741   5.127  10.068   1.277 -0.1215 -1.8530 -0.1950
  243MOL0     H32742   5.262  10.272   1.365 -0.1565 -0.5965  0.3330
  243MOL0     H32743   5.342  10.156   1.263 -1.4677  0.0583  0.2231
  243MOL0     H32744   5.477  10.066   1.462  0.0594  0.5200  3.1066
  243MOL0     H32745   5.384  10.155   1.573  0.6270 -0.5827 -1.0501
  243MOL0     H32746   5.524  10.281   1.332 -2.4126  1.3337 -0.2783
  243MOL0     H32747   5.429  10.366   1.441  1.6802  0.9947  4.7705
  243MOL0     H32748   5.575  10.324   1.623 -1.8547  1.2824 -1.1545
  243MOL0     H32749   5.687  10.223   1.540 -1.0148  0.2930  0.8031
  243MOL0     H32750   5.686  10.433   1.368 -4.5467  0.2616  0.7010
  243MOL0     H32751   5.660  10.530   1.515  1.8862  1.5854  0.9836
  243MOL0     H32752   5.900  10.534   1.474  0.8112 -1.4771 -0.1507
  243MOL0     H32753   5.899  10.361   1.498  0.4530 -0.3078  1.2221
  243MOL0     H32754   5.840  10.557   1.734  0.3258 -0.2139  0.8748
  243MOL0     H32755   5.768  10.418   1.728  0.0854  0.4570 -1.0670
  243MOL0     H32756   6.128  10.571   1.758 -1.6925  0.8910 -0.3715
  243MOL0     H32757   6.379  10.383   1.864 -0.8533 -1.3542 -1.6484
  243MOL0     H32758   6.295  10.510   1.955  0.7743  0.2313 -1.0528
  243MOL0     H32759   6.297  10.222   2.033  3.5822  0.1899 -1.8818
  243MOL0     H32760   6.397  10.353   2.100 -0.2457  1.3741 -1.5763
  243MOL0     H32761   6.180  10.275   2.204  1.4577 -2.7678 -3.1649
  243MOL0     H32762   6.117  10.425   2.110 -0.6667 -0.0580  1.4256
  243MOL0     H32763   6.364  10.455   2.277  1.0279  0.8440 -4.5947
  243MOL0     H32764   6.204  10.477   2.352  1.3441 -1.9384  1.3109
  243MOL0     H32765   6.463  10.725   2.072  2.7606 -1.3739  2.0241
  243MOL0     H32766   6.555  10.922   2.107 -2.1284 -0.6501 -1.8610
  243MOL0     H32767   6.659  11.181   2.618 -2.2907 -2.3863 -3.1556
  243MOL0     H32768   6.807  11.400   2.645  1.3437  0.9284 -1.7955
  243MOL0     H32769   6.605  11.750   2.449 -1.5984  1.6275  1.7463
  243MOL0     H32770   6.704  11.807   2.579 -0.4728 -1.7150  0.0676
  243MOL0     H32771   6.891  11.813   2.436 -0.9559 -0.2084  1.4066
  243MOL0     H32772   6.778  11.760   2.296 -0.3335  1.9976 -3.3904
  243MOL0     H32773   6.757  12.019   2.471 -1.1758  0.6792 -0.7080
  243MOL0     H32774   6.860  12.005   2.326  0.9906  0.8465  2.7094
  243MOL0     H32775   6.623  12.103   2.277 -3.2797 -0.9091  1.7925
  243MOL0     H32776   6.551  11.969   2.354 -0.5764  0.1948 -0.5717
  243MOL0     H32777   6.636  11.816   2.178  0.8214  0.0804  1.6416
  243MOL0     H32778   6.714  11.948   2.097 -0.5375 -1.2102 -2.5558
  243MOL0     H32779   6.423  11.969   2.181 -2.1267  0.5124 -2.0010
  243MOL0     H32780   6.499  12.056   2.050  2.9997  1.6641  1.6855
  243MOL0     H32781   6.432  11.753   2.051 -1.3551  1.1672  2.8233
  243MOL0     H32782   6.537  11.840   1.929  2.1483 -0.2843  2.2313
  243MOL0     H32783   6.359  11.985   1.867 -0.4415  0.5848  2.2064
  243MOL0     H32784   6.303  11.814   1.832  1.0443  0.9785 -0.2442
  243MOL0     H32785   6.587  11.577   2.342  2.2509 -1.1336 -0.1140
  243MOL0     H32786   6.435  11.384   2.329 -1.9186 -0.6493  1.9239
  243MOL0     H32787   6.331  10.935   2.484 -1.4877  1.7966 -1.8153
  243MOL0     H32788   6.213  10.740   2.430 -1.3075  3.0880  0.4395
  243MOL0     H32789   4.995  10.342   1.603 -1.7911  1.1742  0.7407
  243MOL0     H32790   4.817  10.467   1.534  2.1161  0.6934 -0.8232
  243MOL0     H32791   4.528  10.763   1.282  0.8093 -0.9490 -0.0573
  243MOL0     H32792   4.322  10.860   1.199  2.1216 -0.2971  0.7362
  243MOL0     H32793   4.144  10.654   0.996 -1.4786 -0.3675  0.4624
  243MOL0     H32794   4.167  10.834   1.013 -0.0449 -0.0086  1.4513
  243MOL0     H32795   3.926  10.653   0.993 -1.8126  0.7687  1.6899
  243MOL0     H32796   3.961  10.788   0.880  0.3676  0.8186  0.3446
  243MOL0     H32797   3.941  10.949   1.081  1.7807 -0.7590 -0.0562
  243MOL0     H32798   3.855  10.829   1.166 -3.7756  1.1236 -0.4691
  243MOL0     H32799   3.692  10.984   1.061  2.3929  0.4228  1.0996
  243MOL0     H32800   3.772  10.959   0.906  1.0392 -0.9447  1.0239
  243MOL0     H32801   3.506  10.636   0.928  1.4106 -1.3938  0.0089
  243MOL0     H32802   4.119  10.503   1.256  0.1129 -0.5913  1.6615
  243MOL0     H32803   4.394  10.282   1.279 -3.3791 -2.3164 -1.4134
  243MOL0     H32804   4.369  10.346   1.456  0.9714  3.3481 -1.0103
  243MOL0     H32805   4.237  10.298   1.359  0.2550 -0.6817 -0.3002
  244MOL0     O32806   7.371  10.032   6.911 -0.1200  0.6520 -0.5966
  244MOL0     C32807   7.365  10.120   6.827 -0.1403 -0.0360  0.2195
  244MOL0     O32808   7.458  10.219   6.824  0.1516 -0.3027 -0.0761
  244MOL0     C32809   7.554  10.238   6.936  0.1659 -0.4610  0.2467
  244MOL0     C32810   7.597  10.143   7.036  0.6578  0.1808 -0.6881
  244MOL0     C32811   7.666  10.180   7.152  0.2315  1.0106  0.3902
  244MOL0     C32812   7.711  10.312   7.165 -0.1535  0.0933  0.4308
  244MOL0     O32813   7.794  10.356   7.262  0.0782  0.5009  0.1669
  244MOL0     C32814   7.750  10.324   7.389  0.5632  0.3386  0.5875
  244MOL0     C32815   7.866  10.370   7.483 -0.5964 -0.2109 -0.0420
  244MOL0     C32816   7.997  10.299   7.442 -0.0485 -0.2318  0.5652
  244MOL0     C32817   8.100  10.329   7.547  0.3478  0.0664  0.5559
  244MOL0     C32818   8.234  10.269   7.500 -0.3357  0.7306 -0.3116
  244MOL0     C32819   8.351  10.282   7.603  1.0254  0.3337  0.5093
  244MOL0     C32820   8.402  10.419   7.652 -0.5804 -0.6458  0.7488
  244MOL0     C32821   8.490  10.501   7.557  0.9520  0.2859 -0.6965
  244MOL0     N32822   8.630  10.463   7.561  0.4291  0.6268  0.6983
  244MOL0     C32823   8.693  10.424   7.671  0.5212  1.0041  0.0261
  244MOL0     C32824   8.807  10.361   7.629  0.2130 -0.3709 -0.0036
  244MOL0     C32825   8.912  10.291   7.711 -0.8126  0.8608  0.3042
  244MOL0     C32826   8.990  10.373   7.815 -0.0645 -0.7915  0.3788
  244MOL0     C32827   8.922  10.355   7.958 -0.9279  0.6015 -0.2307
  244MOL0     C32828   8.984  10.233   8.037  1.3222 -0.1162 -0.5778
  244MOL0     O32829   8.941  10.105   7.982  0.3608  0.0849  0.5376
  244MOL0     C32830   8.976   9.985   8.038  0.6685 -0.1393 -0.3626
  244MOL0     C32831   8.959   9.882   7.950  0.3371 -0.4035 -0.5742
  244MOL0     C32832   8.989   9.748   7.998  0.0451 -0.5924 -0.2197
  244MOL0     C32833   9.031   9.730   8.133 -0.6103  0.3823  0.1323
  244MOL0     C32834   9.040   9.590   8.192  0.2068  0.7854 -0.0283
  244MOL0     O32835   8.988   9.492   8.110 -0.1298 -0.3795 -0.4633
  244MOL0     C32836   9.000   9.365   8.156  0.7615  0.0149  1.0693
  244MOL0     C32837   9.099   9.281   8.113 -1.0958 -0.3931 -0.3602
  244MOL0     C32838   9.106   9.149   8.165  0.2229 -0.0566 -0.4346
  244MOL0     C32839   8.994   9.101   8.236  0.0740 -0.0573 -0.1080
  244MOL0     O32840   8.988   8.976   8.289  0.1417  0.6334  0.2056
  244MOL0     C32841   9.009   8.865   8.194  0.3794  0.5835 -0.6646
  244MOL0     C32842   8.980   8.747   8.285 -1.1817 -1.0409  0.1162
  244MOL0     C32843   8.987   8.611   8.217 -0.6128  0.3907  0.7971
  244MOL0     C32844   8.846   8.551   8.189 -0.4101 -0.1747  0.9498
  244MOL0     C32845   8.849   8.398   8.163  0.2303 -0.4415 -0.1889
  244MOL0     C32846   8.711   8.338   8.183  0.9058 -0.3176  0.0204
  244MOL0     C32847   8.699   8.196   8.137 -0.5679  1.0289 -0.9221
  244MOL0     C32848   8.550   8.160   8.095 -0.5228 -0.6303 -0.1340
  244MOL0    Cl32849   8.501   8.195   7.923 -0.0871  0.2583 -0.4660
  244MOL0     C32850   8.888   9.181   8.275 -0.6717 -0.1916  0.1266
  244MOL0     C32851   8.896   9.311   8.233  0.2300 -1.1549 -0.4668
  244MOL0     O32852   9.099   9.569   8.299  1.0512  0.7702 -0.5877
  244MOL0     C32853   9.070   9.837   8.213  1.0747  0.0415  0.4204
  244MOL0     C32854   9.027   9.963   8.172 -0.5577 -0.8494  0.6473
  244MOL0     N32855   8.803  10.374   7.497  0.3252 -0.1466 -0.9729
  244MOL0     N32856   8.703  10.430   7.453  0.2392 -0.2946  0.6741
  244MOL0     C32857   7.663  10.404   7.067 -0.4638 -0.7210 -0.3117
  244MOL0     C32858   7.582  10.366   6.962 -0.0415 -0.9373  0.3443
  244MOL0     C32859   7.249  10.127   6.731 -0.4227  0.5245  0.3024
  244MOL0     C32860   7.151  10.032   6.728  0.8431  0.3891  0.5405
  244MOL0     C32861   7.039  10.033   6.644  0.0225  0.7822 -0.1550
  244MOL0     C32862   7.026  10.136   6.553 -0.8889  0.4234  0.0407
  244MOL0     O32863   6.936  10.148   6.449 -0.3026 -0.6020  0.0941
  244MOL0     C32864   6.850  10.036   6.420 -0.3569  0.0541  0.2476
  244MOL0     C32865   6.924   9.943   6.326  0.5295 -0.3242 -0.1133
  244MOL0     C32866   6.842   9.822   6.274  0.9476  0.7429 -0.2800
  244MOL0     C32867   6.933   9.704   6.231 -0.2805  1.0121 -0.6061
  244MOL0     C32868   6.860   9.596   6.161  0.3187 -0.4645 -1.1347
  244MOL0     C32869   6.807   9.522   6.090 -0.1523  0.7575  0.8423
  244MOL0     C32870   7.133  10.229   6.549 -0.6361  0.4131 -0.0506
  244MOL0     C32871   7.245  10.229   6.633  0.2558  0.4181 -0.0785
  244MOL0     C32872   7.348  10.338   6.616  0.5872 -0.9534  0.2991
  244MOL0     H32873   7.574  10.038   7.029 -1.9072  0.5142  1.3269
  244MOL0     H32874   7.694  10.099   7.218 -2.2529  1.1665  1.7319
  244MOL0     H32875   7.664  10.387   7.414 -1.7058 -2.8990  1.4713
  244MOL0     H32876   7.722  10.221   7.412 -0.5208  0.3542 -0.5543
  244MOL0     H32877   7.847  10.349   7.589  1.9997 -1.3165  0.2904
  244MOL0     H32878   7.880  10.476   7.465  1.4077 -0.3438  0.4935
  244MOL0     H32879   8.026  10.333   7.342  3.4425 -1.2021  1.1377
  244MOL0     H32880   7.970  10.193   7.431  1.2183 -0.5584  0.5430
  244MOL0     H32881   8.103  10.437   7.561 -1.0398  0.1626  0.2678
  244MOL0     H32882   8.070  10.288   7.644 -2.5752  4.0368  1.5822
  244MOL0     H32883   8.224  10.162   7.482 -1.4891  0.2586  2.5411
  244MOL0     H32884   8.266  10.318   7.408  3.3543 -2.0546 -0.7149
  244MOL0     H32885   8.310  10.237   7.694 -0.7266 -1.9040 -1.2864
  244MOL0     H32886   8.440  10.225   7.575 -1.1866 -2.0394 -2.2680
  244MOL0     H32887   8.443  10.405   7.753  2.3733 -0.8448 -0.3957
  244MOL0     H32888   8.309  10.469   7.682 -1.1859 -0.9735 -0.5138
  244MOL0     H32889   8.451  10.488   7.456 -1.7129 -0.6767  0.3467
  244MOL0     H32890   8.479  10.609   7.575 -2.3374 -0.3270  2.0052
  244MOL0     H32891   8.656  10.430   7.773 -1.3261 -1.1782 -0.4356
  244MOL0     H32892   8.873  10.196   7.748  1.0025 -1.4379 -3.1518
  244MOL0     H32893   8.986  10.249   7.643 -1.6816  0.6470 -0.5227
  244MOL0     H32894   9.095  10.342   7.824 -0.1280 -1.2526 -0.4477
  244MOL0     H32895   9.003  10.477   7.783 -0.6072 -1.0795 -0.8364
  244MOL0     H32896   8.814  10.357   7.941 -0.6370  1.0801 -2.2548
  244MOL0     H32897   8.938  10.448   8.014 -3.2159  1.0039 -0.1729
  244MOL0     H32898   8.948  10.253   8.138 -5.1451 -3.1154 -1.8115
  244MOL0     H32899   9.094  10.236   8.034  1.5406 -3.7307 -1.5874
  244MOL0     H32900   8.916   9.894   7.851 -0.3121 -1.6957 -0.4732
  244MOL0     H32901   8.966   9.661   7.938  2.0610 -1.9007  0.7650
  244MOL0     H32902   9.166   9.310   8.032 -1.7489  2.0204 -0.1004
  244MOL0     H32903   9.183   9.080   8.135 -1.0320 -2.0334  0.6714
  244MOL0     H32904   8.933   8.875   8.117 -1.2889 -0.1213  0.8139
  244MOL0     H32905   9.109   8.849   8.151 -0.0039  2.1883 -2.2835
  244MOL0     H32906   9.052   8.760   8.366 -4.1482  1.5040  2.5846
  244MOL0     H32907   8.880   8.758   8.328 -0.4846  0.2895  1.4830
  244MOL0     H32908   9.049   8.625   8.128 -2.1094  3.3989  0.1010
  244MOL0     H32909   9.039   8.539   8.281 -0.4803 -0.5940 -0.3802
  244MOL0     H32910   8.799   8.607   8.107  1.2276  2.8870  1.9582
  244MOL0     H32911   8.782   8.572   8.275 -1.4049 -1.0586  0.4508
  244MOL0     H32912   8.925   8.356   8.229  2.7453  3.0058 -0.6237
  244MOL0     H32913   8.890   8.387   8.062  4.2258  2.3459  0.8708
  244MOL0     H32914   8.696   8.336   8.291 -0.6655  1.5647 -0.1079
  244MOL0     H32915   8.636   8.404   8.138  2.4374  0.0458 -2.1278
  244MOL0     H32916   8.713   8.125   8.219 -1.4763  0.8300 -0.9387
  244MOL0     H32917   8.769   8.186   8.053 -3.0722 -0.4407 -2.9521
  244MOL0     H32918   8.527   8.057   8.122  1.4325 -0.4244  2.7313
  244MOL0     H32919   8.490   8.225   8.160  1.4265  1.3685 -0.2148
  244MOL0     H32920   8.799   9.153   8.331 -1.6984  1.7608 -0.4413
  244MOL0     H32921   8.810   9.369   8.263  1.1065 -0.7894  1.5615
  244MOL0     H32922   9.101   9.815   8.315  4.6615  2.0143 -0.0911
  244MOL0     H32923   9.044  10.042   8.244 -2.9205 -1.3791  1.8913
  244MOL0     H32924   7.700  10.506   7.071  1.3444 -1.3129 -1.1853
  244MOL0     H32925   7.528  10.432   6.896  0.7845  3.1513  3.3491
  244MOL0     H32926   7.164   9.941   6.786  0.4983 -1.6225 -2.2932
  244MOL0     H32927   6.988   9.938   6.636 -2.2534  1.9945 -0.9724
  244MOL0     H32928   6.766  10.075   6.363  0.8755 -0.8985 -2.3874
  244MOL0     H32929   6.815   9.993   6.514  2.9416 -1.8586  0.7762
  244MOL0     H32930   7.001   9.896   6.388 -0.2000 -0.3708  0.7769
  244MOL0     H32931   6.981  10.001   6.252  0.8489  1.7654  1.6679
  244MOL0     H32932   6.775   9.852   6.193 -1.8703 -0.2277  1.5201
  244MOL0     H32933   6.781   9.788   6.358  1.3688  0.0198 -0.2614
  244MOL0     H32934   7.020   9.738   6.173 -0.7003  0.9665 -1.2768
  244MOL0     H32935   6.968   9.658   6.323  0.7525 -2.4983 -2.5644
  244MOL0     H32936   6.771   9.457   6.014 -1.5191  3.2344 -0.7716
  244MOL0     H32937   7.136  10.300   6.467  0.7018 -1.7759 -2.0465
  244MOL0     H32938   7.456  10.332   6.633  0.6474 -1.6156 -0.3170
  244MOL0     H32939   7.337  10.360   6.510 -1.8207  1.5813  0.9396
  244MOL0     H32940   7.312  10.431   6.663 -5.6313 -0.5628 -3.9841
  245MOL0     O32941   5.862   5.448   8.214  1.1355 -0.9191  0.2316
  245MOL0     C32942   5.928   5.394   8.305  0.0407  0.4983  0.9820
  245MOL0     O32943   5.917   5.429   8.435  0.6951 -0.5157  0.1411
  245MOL0     C32944   5.810   5.519   8.463 -0.1954 -0.0775 -0.8713
  245MOL0     C32945   5.849   5.609   8.559 -0.4879 -0.1118  0.5522
  245MOL0     C32946   5.753   5.686   8.630 -0.3450  0.1235 -0.9756
  245MOL0     C32947   5.622   5.690   8.577 -0.0225  1.1424 -0.5359
  245MOL0     O32948   5.524   5.766   8.636  0.2617  0.1697  0.5545
  245MOL0     C32949   5.556   5.851   8.744  0.7395 -0.4480 -0.2747
  245MOL0     C32950   5.437   5.928   8.798  0.2549  0.5055  0.0567
  245MOL0     C32951   5.330   5.846   8.880 -0.6840 -0.4974  0.1973
  245MOL0     C32952   5.193   5.916   8.886 -0.3136  0.9065 -0.2896
  245MOL0     C32953   5.131   5.880   9.018  0.2189 -0.0411  0.5505
  245MOL0     C32954   5.007   5.957   9.047  0.0735 -0.7065 -0.0737
  245MOL0     C32955   4.906   5.901   9.151  0.1938  0.0833  0.7781
  245MOL0     C32956   4.814   6.007   9.216 -0.0466 -0.5120 -0.6939
  245MOL0     N32957   4.879   6.110   9.292 -0.3834 -0.1524 -0.2081
  245MOL0     C32958   4.863   6.120   9.431  0.0791  0.8164  0.3343
  245MOL0     C32959   4.866   6.253   9.464  0.2864  0.2202 -0.0056
  245MOL0     C32960   4.851   6.319   9.595 -0.2545 -0.4142  0.2739
  245MOL0     C32961   4.708   6.325   9.641 -0.7388  0.1602 -0.4569
  245MOL0     C32962   4.611   6.399   9.542  0.2262 -0.2518 -0.4373
  245MOL0     C32963   4.469   6.443   9.567  0.5150 -0.9831 -0.0549
  245MOL0     O32964   4.445   6.499   9.696  0.7792  1.3111  0.2821
  245MOL0     C32965   4.437   6.409   9.804 -0.3645 -0.4354 -0.0294
  245MOL0     C32966   4.422   6.266   9.793 -0.8389 -0.1123 -0.7169
  245MOL0     C32967   4.415   6.175   9.901  0.1116 -0.0193 -0.1104
  245MOL0     C32968   4.407   6.238  10.037 -0.0063  0.1452 -0.5324
  245MOL0     C32969   4.397   6.144  10.157  0.4808 -0.1107 -1.1895
  245MOL0     O32970   4.365   6.019  10.135 -0.0092  0.6350 -0.0765
  245MOL0     C32971   4.335   5.934  10.231 -0.4805  0.1569  0.5441
  245MOL0     C32972   4.374   5.802  10.202  0.2510 -0.3199 -0.3267
  245MOL0     C32973   4.364   5.702  10.302 -0.3785  0.1191  0.9757
  245MOL0     C32974   4.290   5.726  10.420 -0.2284 -1.1761  0.4549
  245MOL0     O32975   4.276   5.631  10.519 -0.4290  0.1335 -0.9113
  245MOL0     C32976   4.404   5.587  10.569 -0.4376 -0.0134  0.4870
  245MOL0     C32977   4.379   5.432  10.573 -0.8519  0.5861  0.1231
  245MOL0     C32978   4.505   5.353  10.604  0.8879 -0.4853 -0.6222
  245MOL0     C32979   4.519   5.363  10.767  0.3375  1.4436  0.0887
  245MOL0     C32980   4.649   5.298  10.815  0.3138  0.3446  0.6409
  245MOL0     C32981   4.654   5.149  10.790  0.1034  0.0715  0.4998
  245MOL0     C32982   4.804   5.103  10.793  0.7662 -0.1567  0.5630
  245MOL0     C32983   4.824   4.985  10.698  0.5455  0.5987 -0.8778
  245MOL0    Cl32984   4.858   5.030  10.534  0.1406  0.2733  0.1712
  245MOL0     C32985   4.240   5.854  10.442 -0.5407 -1.3737 -0.5118
  245MOL0     C32986   4.265   5.948  10.349  0.7625  0.6326 -0.1829
  245MOL0     O32987   4.404   6.199  10.275  0.5734  0.3492  0.1944
  245MOL0     C32988   4.403   6.381  10.047  0.2124  1.1563 -0.5180
  245MOL0     C32989   4.426   6.461   9.933 -0.2398 -0.1205  1.0421
  245MOL0     N32990   4.894   6.319   9.346  0.2397  0.0942  1.0183
  245MOL0     N32991   4.897   6.236   9.241  0.5106 -0.2341 -0.1865
  245MOL0     C32992   5.584   5.602   8.476 -0.1288  0.1400  0.8937
  245MOL0     C32993   5.677   5.510   8.419  0.3985 -0.7716  0.1517
  245MOL0     C32994   6.027   5.290   8.270  0.3733 -0.4629  0.8140
  245MOL0     C32995   6.101   5.240   8.377 -0.3914 -0.4774  1.2431
  245MOL0     C32996   6.202   5.144   8.358  0.1149  0.0131 -0.1846
  245MOL0     C32997   6.228   5.092   8.240 -1.1209 -0.7592 -0.2126
  245MOL0     O32998   6.314   4.984   8.229 -1.1006 -0.2621 -0.7757
  245MOL0     C32999   6.260   4.863   8.280  0.1610  0.0868  0.7124
  245MOL0     C33000   6.322   4.742   8.217 -0.3141  0.0183 -0.1960
  245MOL0     C33001   6.313   4.718   8.062 -0.5271  0.1590  0.2553
  245MOL0     C33002   6.368   4.583   8.010 -0.6858  0.3959  0.4750
  245MOL0     C33003   6.477   4.602   7.909  0.5565  0.0022 -0.2247
  245MOL0     C33004   6.571   4.581   7.830  0.0289  0.3118 -0.4029
  245MOL0     C33005   6.158   5.135   8.133  0.1241 -0.1773  1.3110
  245MOL0     C33006   6.057   5.241   8.138  1.1734  1.1116 -0.6370
  245MOL0     C33007   6.005   5.293   8.002  0.2610 -0.2117  0.8468
  245MOL0     H33008   5.953   5.617   8.588  0.0708  0.3783 -1.4422
  245MOL0     H33009   5.791   5.743   8.714 -0.8015  0.0105 -0.6872
  245MOL0     H33010   5.602   5.800   8.829 -0.6601 -1.9881 -0.3977
  245MOL0     H33011   5.624   5.929   8.709 -1.7166  0.2551 -4.1256
  245MOL0     H33012   5.379   5.958   8.711  1.3877  1.4451 -0.3967
  245MOL0     H33013   5.481   6.010   8.855 -1.4821  2.8928 -1.8535
  245MOL0     H33014   5.370   5.833   8.981 -0.1433  0.8107  0.1735
  245MOL0     H33015   5.326   5.749   8.829 -1.1882 -1.8912  2.7018
  245MOL0     H33016   5.206   6.024   8.882  1.2037  0.7545 -0.0071
  245MOL0     H33017   5.133   5.885   8.801 -0.8667 -1.9906  1.0339
  245MOL0     H33018   5.115   5.772   9.017  1.9513 -0.3274 -0.8804
  245MOL0     H33019   5.209   5.905   9.091  1.8433  4.1439 -2.2658
  245MOL0     H33020   5.026   6.060   9.080 -1.6982 -0.8739  1.6608
  245MOL0     H33021   4.964   5.966   8.946  1.3771 -0.4218 -0.6188
  245MOL0     H33022   4.953   5.841   9.230 -1.5188 -2.8216 -0.2336
  245MOL0     H33023   4.846   5.822   9.104  4.1271 -2.4781 -0.4806
  245MOL0     H33024   4.766   6.053   9.129 -1.1969 -1.9025 -0.8447
  245MOL0     H33025   4.742   5.957   9.281  0.3277 -0.9587 -0.6175
  245MOL0     H33026   4.837   6.038   9.497  1.2249  0.3792  0.2731
  245MOL0     H33027   4.908   6.262   9.669  0.1930  0.4008  0.5674
  245MOL0     H33028   4.872   6.426   9.592 -1.4420 -0.1581  0.6222
  245MOL0     H33029   4.670   6.228   9.675  0.7601 -0.1935  0.2550
  245MOL0     H33030   4.717   6.378   9.736 -1.4398  1.4598 -1.0799
  245MOL0     H33031   4.623   6.343   9.449  2.5979  0.8552 -0.8754
  245MOL0     H33032   4.647   6.499   9.517 -3.6061  1.7701  1.1999
  245MOL0     H33033   4.399   6.365   9.534  1.7362 -3.1435  2.1221
  245MOL0     H33034   4.451   6.527   9.499 -1.8341 -1.5368 -0.2019
  245MOL0     H33035   4.411   6.243   9.688 -2.4237  1.2038 -0.8799
  245MOL0     H33036   4.406   6.068   9.886 -2.5372  0.4559 -2.8710
  245MOL0     H33037   4.437   5.772  10.119  2.4838 -3.2816  2.1937
  245MOL0     H33038   4.405   5.603  10.288 -1.6454 -0.2612 -0.2369
  245MOL0     H33039   4.495   5.608  10.512 -2.3235  0.5384 -2.5806
  245MOL0     H33040   4.418   5.622  10.672 -0.3641  1.6258 -0.0446
  245MOL0     H33041   4.303   5.413  10.649  0.4351 -0.1364  1.2579
  245MOL0     H33042   4.343   5.394  10.476 -1.1212  2.6941 -0.6754
  245MOL0     H33043   4.502   5.248  10.573 -2.4483 -0.0648 -2.2159
  245MOL0     H33044   4.590   5.404  10.557 -0.6227  2.8520 -0.0150
  245MOL0     H33045   4.434   5.309  10.810  1.2181 -2.2040 -2.2556
  245MOL0     H33046   4.527   5.466  10.800  0.4084  1.8144 -1.0304
  245MOL0     H33047   4.653   5.325  10.921 -4.3691 -4.5729  2.5227
  245MOL0     H33048   4.726   5.344  10.752  1.1129 -1.1358  0.5020
  245MOL0     H33049   4.610   5.080  10.863 -1.7455 -0.4514 -1.0377
  245MOL0     H33050   4.601   5.119  10.699  0.7186  0.2590  0.0778
  245MOL0     H33051   4.824   5.069  10.895  0.2964  2.2309  1.5386
  245MOL0     H33052   4.872   5.186  10.770  1.5539 -0.8459  0.3750
  245MOL0     H33053   4.903   4.920  10.737  0.0283 -0.4133 -1.4780
  245MOL0     H33054   4.730   4.931  10.693 -0.4056  1.7561  2.3573
  245MOL0     H33055   4.200   5.878  10.540  1.1410  3.3605 -0.7359
  245MOL0     H33056   4.227   6.045  10.379 -0.4056  0.3616 -0.7165
  245MOL0     H33057   4.395   6.426  10.145 -3.4022  1.0580 -0.6232
  245MOL0     H33058   4.436   6.569   9.947 -3.9717  0.9469 -2.4945
  245MOL0     H33059   5.477   5.601   8.459 -0.0535 -0.4840  0.3849
  245MOL0     H33060   5.632   5.435   8.354 -4.2985  1.1476  0.8207
  245MOL0     H33061   6.071   5.265   8.478 -0.4537  1.5029  0.7707
  245MOL0     H33062   6.269   5.109   8.436  1.8284  3.3854  0.0543
  245MOL0     H33063   6.152   4.854   8.264  0.3829 -4.0581  0.5287
  245MOL0     H33064   6.278   4.859   8.388 -0.6319 -1.0874  0.8126
  245MOL0     H33065   6.277   4.652   8.261 -0.2436 -1.5685 -3.1040
  245MOL0     H33066   6.427   4.751   8.246  0.2300  2.7142 -2.6114
  245MOL0     H33067   6.353   4.802   8.004 -1.7403  0.3868 -0.2831
  245MOL0     H33068   6.206   4.720   8.042 -0.3196  3.1706 -0.9734
  245MOL0     H33069   6.412   4.523   8.090  1.2956 -0.3009 -1.0481
  245MOL0     H33070   6.301   4.512   7.959  3.2368 -1.8655 -2.1115
  245MOL0     H33071   6.652   4.570   7.761  0.7262 -1.8171  0.6721
  245MOL0     H33072   6.168   5.074   8.044 -0.3567  2.2670 -0.5404
  245MOL0     H33073   5.901   5.275   7.973  0.4554  2.1521 -1.7884
  245MOL0     H33074   6.026   5.400   7.993  0.3660 -0.1189  2.0442
  245MOL0     H33075   6.055   5.237   7.922 -2.3930 -3.0076  0.9663
  246MOL0     O33076   2.291   5.661   6.973  0.4315  0.3554  0.5987
  246MOL0     C33077   2.246   5.672   6.859  0.6396 -0.9335 -0.2706
  246MOL0     O33078   2.115   5.722   6.830 -0.9295  0.2390  0.4909
  246MOL0     C33079   2.023   5.734   6.936  0.2918 -0.0740 -0.2348
  246MOL0     C33080   1.965   5.860   6.956 -0.0853  0.5982  0.0693
  246MOL0     C33081   1.857   5.875   7.041  0.5803 -0.7869  0.4315
  246MOL0     C33082   1.810   5.763   7.113 -1.1580  0.2124  0.6233
  246MOL0     O33083   1.690   5.764   7.179  0.1103 -0.2453 -0.0808
  246MOL0     C33084   1.583   5.793   7.087 -0.5753 -0.3307  0.7629
  246MOL0     C33085   1.457   5.777   7.163  0.2124  0.0476  0.1014
  246MOL0     C33086   1.412   5.888   7.258 -0.2100 -0.1421  0.2874
  246MOL0     C33087   1.527   5.942   7.338 -0.8603  0.8387  0.1328
  246MOL0     C33088   1.474   6.062   7.417 -0.0343 -0.6357  0.1734
  246MOL0     C33089   1.593   6.108   7.492 -0.5968 -0.1759  0.8135
  246MOL0     C33090   1.588   6.260   7.509 -0.5727  0.6085  1.0106
  246MOL0     C33091   1.466   6.309   7.589  0.4202  0.3956  0.4396
  246MOL0     N33092   1.479   6.286   7.730 -0.1873 -0.6909 -0.2947
  246MOL0     C33093   1.436   6.170   7.779  0.9020  1.4593 -0.1992
  246MOL0     C33094   1.434   6.182   7.913  0.7954 -0.8589  0.3214
  246MOL0     C33095   1.404   6.069   8.003 -0.3475  0.4015 -0.1098
  246MOL0     C33096   1.517   5.976   8.057 -0.0295  0.6642 -0.6223
  246MOL0     C33097   1.635   6.052   8.111 -0.3705 -0.7555  0.8606
  246MOL0     C33098   1.766   5.976   8.129  0.3629 -0.0092  0.8893
  246MOL0     O33099   1.761   5.864   8.215 -0.0456 -0.0485  0.2062
  246MOL0     C33100   1.821   5.747   8.173 -0.9278  0.1310 -0.3899
  246MOL0     C33101   1.943   5.763   8.097  0.0901  0.3944 -0.1250
  246MOL0     C33102   2.002   5.647   8.041  0.3064 -0.0198 -0.7801
  246MOL0     C33103   1.944   5.523   8.077 -0.4634  0.4304 -0.6627
  246MOL0     C33104   1.996   5.394   8.020 -0.1558 -0.3480 -0.5678
  246MOL0     O33105   1.916   5.316   7.956 -0.6006  0.5347 -0.1451
  246MOL0     C33106   1.973   5.205   7.898  0.5254 -0.0134  0.0503
  246MOL0     C33107   1.905   5.090   7.948 -1.0033  0.0935 -0.2289
  246MOL0     C33108   1.964   4.962   7.913 -0.2923 -0.1282 -0.6981
  246MOL0     C33109   2.071   4.959   7.823  0.8310  0.1983  0.6367
  246MOL0     O33110   2.120   4.833   7.775  0.6767 -0.2294  0.6111
  246MOL0     C33111   2.020   4.785   7.676 -0.4439 -1.4891 -0.3357
  246MOL0     C33112   2.057   4.809   7.528  0.4411 -0.2951  0.5522
  246MOL0     C33113   1.948   4.756   7.430  0.1870 -0.5107  0.8199
  246MOL0     C33114   2.011   4.758   7.290  0.1516 -0.3922  0.0443
  246MOL0     C33115   1.915   4.730   7.173  0.4317  0.2724 -0.0445
  246MOL0     C33116   1.978   4.756   7.035 -0.2496 -0.4664 -0.0447
  246MOL0     C33117   1.877   4.739   6.930  0.6607  0.2157 -0.3478
  246MOL0     C33118   1.806   4.864   6.879 -0.3751 -0.2494 -0.1390
  246MOL0    Cl33119   1.933   4.962   6.794 -0.2713 -0.5060 -0.2837
  246MOL0     C33120   2.130   5.081   7.785 -0.6000  0.2007 -0.1801
  246MOL0     C33121   2.090   5.207   7.826  0.5996  0.1268  0.0073
  246MOL0     O33122   2.113   5.365   8.048 -0.0145  0.2354 -0.1624
  246MOL0     C33123   1.828   5.512   8.150  0.5675 -0.1609 -0.5678
  246MOL0     C33124   1.761   5.625   8.193 -1.0485 -1.5167 -0.5479
  246MOL0     N33125   1.466   6.321   7.934 -0.1678  0.9937 -0.6444
  246MOL0     N33126   1.500   6.376   7.828 -0.0900 -0.0996  0.4539
  246MOL0     C33127   1.878   5.638   7.107 -1.2923 -0.1029 -0.0425
  246MOL0     C33128   1.993   5.623   7.013  0.5503  0.3994 -0.5887
  246MOL0     C33129   2.331   5.644   6.743  0.4168 -0.2003  0.2903
  246MOL0     C33130   2.285   5.702   6.620 -0.6929  0.1203 -0.2570
  246MOL0     C33131   2.350   5.670   6.508 -0.6360 -0.2321  0.4881
  246MOL0     C33132   2.478   5.606   6.511  0.5225 -0.9362  0.0908
  246MOL0     O33133   2.558   5.588   6.400 -0.1720  0.0302  0.2189
  246MOL0     C33134   2.498   5.591   6.266 -0.7513 -0.1806 -0.4398
  246MOL0     C33135   2.588   5.618   6.147  0.0901  0.5320  0.8805
  246MOL0     C33136   2.684   5.500   6.136 -0.6966  0.1878  0.4632
  246MOL0     C33137   2.799   5.534   6.037  0.5414  0.1890 -0.5754
  246MOL0     C33138   2.778   5.482   5.906 -0.3106 -0.3899  0.6904
  246MOL0     C33139   2.771   5.424   5.795 -0.3091 -0.8423  0.8048
  246MOL0     C33140   2.519   5.562   6.633 -0.3739 -0.4398 -0.3252
  246MOL0     C33141   2.442   5.559   6.745 -0.1428 -0.2760  0.0727
  246MOL0     C33142   2.485   5.476   6.861 -0.0126  0.3168 -1.0551
  246MOL0     H33143   1.991   5.936   6.882 -4.3750  0.5169 -1.8328
  246MOL0     H33144   1.801   5.968   7.044 -2.7289 -2.6465  0.9925
  246MOL0     H33145   1.592   5.885   7.029  1.1645 -0.5501  0.6354
  246MOL0     H33146   1.582   5.713   7.013 -2.5234 -0.9010  1.3391
  246MOL0     H33147   1.466   5.681   7.214  3.0055  0.7291  1.0741
  246MOL0     H33148   1.372   5.775   7.093 -1.4133  1.2205  1.9331
  246MOL0     H33149   1.337   5.849   7.327  0.1348 -2.5315 -0.5700
  246MOL0     H33150   1.367   5.972   7.205 -0.2793  0.2500  0.9579
  246MOL0     H33151   1.559   5.875   7.419 -0.1541  4.1283  2.8208
  246MOL0     H33152   1.603   5.989   7.276 -0.4275  3.4412  2.4566
  246MOL0     H33153   1.431   6.141   7.355  2.0227  1.0852  0.8340
  246MOL0     H33154   1.387   6.029   7.476  0.2266 -3.1403 -0.7314
  246MOL0     H33155   1.620   6.045   7.578  1.0715 -1.0798 -0.3120
  246MOL0     H33156   1.673   6.081   7.422 -2.1958  2.9179 -2.5263
  246MOL0     H33157   1.581   6.300   7.407  2.8864  0.0439  0.4458
  246MOL0     H33158   1.677   6.306   7.551  0.9657 -0.0886 -1.2750
  246MOL0     H33159   1.442   6.414   7.567 -0.4192 -0.3534 -2.9798
  246MOL0     H33160   1.369   6.274   7.553 -0.7336  2.2665  1.5299
  246MOL0     H33161   1.410   6.080   7.724  3.1251  0.1005  0.8379
  246MOL0     H33162   1.356   6.122   8.086  1.0384  1.7167 -0.1178
  246MOL0     H33163   1.326   6.004   7.962 -0.5229 -0.2561  1.1983
  246MOL0     H33164   1.497   5.908   8.141  0.7140  1.1508 -0.0415
  246MOL0     H33165   1.552   5.907   7.980 -3.5262  0.8893 -2.6027
  246MOL0     H33166   1.613   6.093   8.210 -1.1296 -1.5490  1.0251
  246MOL0     H33167   1.648   6.134   8.040 -3.0438 -2.0092 -1.2464
  246MOL0     H33168   1.837   6.040   8.182  0.5923  0.5832 -0.0943
  246MOL0     H33169   1.802   5.950   8.029 -1.0426 -0.7126  0.5381
  246MOL0     H33170   1.994   5.858   8.087 -1.2930  1.3760  1.6194
  246MOL0     H33171   2.094   5.641   7.984 -2.3450 -0.5969 -5.4788
  246MOL0     H33172   1.841   5.115   8.031  0.9233  2.9060  0.5561
  246MOL0     H33173   1.919   4.877   7.963 -2.4020  0.9793 -0.6307
  246MOL0     H33174   2.032   4.677   7.689 -1.4292 -1.9675 -2.7928
  246MOL0     H33175   1.921   4.822   7.702  0.2880  0.2299  0.1679
  246MOL0     H33176   2.091   4.913   7.518  2.0289 -0.4635  3.0950
  246MOL0     H33177   2.136   4.736   7.510  0.9945 -0.1204  2.0566
  246MOL0     H33178   1.932   4.655   7.471  0.6261 -1.1674 -0.5689
  246MOL0     H33179   1.858   4.816   7.446  0.5356 -0.6928  4.3008
  246MOL0     H33180   2.089   4.682   7.284 -1.4111 -1.9798 -2.6591
  246MOL0     H33181   2.058   4.853   7.262  0.4739 -1.2392 -2.6698
  246MOL0     H33182   1.825   4.790   7.182 -0.7352 -1.4563  0.3051
  246MOL0     H33183   1.883   4.626   7.183  2.4305 -0.2504  1.7633
  246MOL0     H33184   2.021   4.857   7.033 -1.4604  0.1651 -3.9113
  246MOL0     H33185   2.064   4.690   7.016  1.3749  1.7819 -1.0564
  246MOL0     H33186   1.800   4.673   6.971  0.9026 -0.4664 -0.9588
  246MOL0     H33187   1.934   4.689   6.850 -1.5834 -2.2715 -0.5394
  246MOL0     H33188   1.718   4.856   6.814 -1.4741  1.4061  1.0769
  246MOL0     H33189   1.765   4.910   6.969  0.6387  0.2944  0.0578
  246MOL0     H33190   2.209   5.062   7.713 -3.1169 -2.8731 -2.3565
  246MOL0     H33191   2.137   5.294   7.783  1.9058  1.1612  3.2479
  246MOL0     H33192   1.777   5.419   8.172  0.3855  0.1922  0.6190
  246MOL0     H33193   1.661   5.630   8.236 -0.4632  3.9990  0.8855
  246MOL0     H33194   1.858   5.546   7.161 -1.4011 -0.7462 -1.1535
  246MOL0     H33195   2.039   5.525   7.006 -1.3866 -0.8166  1.8619
  246MOL0     H33196   2.209   5.779   6.620 -0.2419  0.6314  1.8533
  246MOL0     H33197   2.330   5.728   6.418  2.2832 -1.8695 -1.3577
  246MOL0     H33198   2.417   5.664   6.259 -0.8548 -0.2276  0.1974
  246MOL0     H33199   2.455   5.492   6.248  0.4554 -0.6721 -0.7368
  246MOL0     H33200   2.640   5.713   6.156 -1.9569  1.5571  3.1128
  246MOL0     H33201   2.520   5.624   6.061 -1.2983 -1.3548  1.7665
  246MOL0     H33202   2.637   5.405   6.108  2.4947 -1.1115 -1.0364
  246MOL0     H33203   2.735   5.493   6.232  0.4779 -3.2267 -0.2679
  246MOL0     H33204   2.806   5.643   6.024 -1.2077  0.7244  2.1331
  246MOL0     H33205   2.890   5.494   6.083  0.8041  1.0690 -0.2972
  246MOL0     H33206   2.763   5.378   5.699  2.0132  2.1138 -0.9893
  246MOL0     H33207   2.611   5.506   6.645 -0.5400 -0.3611  1.5113
  246MOL0     H33208   2.427   5.383   6.870 -0.9617  1.0818  2.2025
  246MOL0     H33209   2.593   5.458   6.862  0.0080  0.3637  0.2379
  246MOL0     H33210   2.468   5.519   6.960 -2.8914 -2.6292 -0.0819
  247MOL0     O33211   1.612   9.253   5.556  0.5202 -1.0059  0.3459
  247MOL0     C33212   1.565   9.370   5.570 -0.6682  0.8982 -0.2661
  247MOL0     O33213   1.600   9.471   5.490 -0.2430  0.2323  0.0016
  247MOL0     C33214   1.723   9.450   5.431  0.1590 -1.1583  0.2528
  247MOL0     C33215   1.732   9.394   5.299 -0.0442 -0.4891 -0.5806
  247MOL0     C33216   1.859   9.399   5.244 -0.9921  0.1417  0.0907
  247MOL0     C33217   1.974   9.449   5.301 -0.4581 -0.2362  0.7163
  247MOL0     O33218   2.082   9.435   5.215  0.3692 -0.1903 -0.4347
  247MOL0     C33219   2.217   9.476   5.259 -0.4068 -0.6250  0.0978
  247MOL0     C33220   2.299   9.418   5.148 -0.5906 -0.3420 -0.2407
  247MOL0     C33221   2.311   9.507   5.023 -0.5337  0.2887 -0.6023
  247MOL0     C33222   2.403   9.437   4.922  0.8247  0.3255  0.2995
  247MOL0     C33223   2.437   9.522   4.808 -0.3755  0.2452  0.6232
  247MOL0     C33224   2.485   9.447   4.683  0.1508 -0.5055 -1.0245
  247MOL0     C33225   2.463   9.546   4.568 -0.2289 -0.6064 -0.9297
  247MOL0     C33226   2.531   9.689   4.570 -0.8433 -0.2077 -0.0076
  247MOL0     N33227   2.672   9.707   4.524  0.2353  0.2868  0.4453
  247MOL0     C33228   2.710   9.806   4.438 -0.7287  0.3856  0.4915
  247MOL0     C33229   2.832   9.771   4.406  0.6771 -0.2022  0.4129
  247MOL0     C33230   2.924   9.851   4.322 -0.4092  0.3294 -0.0408
  247MOL0     C33231   3.028   9.770   4.244 -0.5876  0.3847 -0.3575
  247MOL0     C33232   3.024   9.814   4.094  0.1411 -0.2643 -0.8085
  247MOL0     C33233   3.089   9.951   4.089  0.0964  0.3623 -0.0425
  247MOL0     O33234   3.131   9.990   3.963  0.4532 -0.4045  0.5636
  247MOL0     C33235   3.065   9.941   3.854 -0.1460  0.5711 -0.1973
  247MOL0     C33236   2.936   9.988   3.820 -0.0799  0.4234 -0.5398
  247MOL0     C33237   2.851   9.923   3.721  0.4893 -0.0551  0.4139
  247MOL0     C33238   2.927   9.838   3.626  0.3853  0.5719 -0.1697
  247MOL0     C33239   2.858   9.785   3.508  0.3555  0.9042 -0.4895
  247MOL0     O33240   2.747   9.861   3.474 -0.6554  0.0910 -0.0651
  247MOL0     C33241   2.685   9.839   3.356  0.1285 -0.3882  0.2768
  247MOL0     C33242   2.562   9.778   3.372 -0.4568 -0.0891  0.4099
  247MOL0     C33243   2.493   9.754   3.243 -0.3834  1.1094 -0.4422
  247MOL0     C33244   2.559   9.760   3.118 -0.3674  0.2034  0.2945
  247MOL0     O33245   2.493   9.727   3.005  0.0875 -0.0081 -0.2986
  247MOL0     C33246   2.545   9.601   2.956  0.1183  0.3435 -0.6011
  247MOL0     C33247   2.449   9.529   2.855 -0.3268  0.1677 -0.4872
  247MOL0     C33248   2.392   9.405   2.913  0.9376  0.7674 -0.1441
  247MOL0     C33249   2.299   9.339   2.821 -0.1096 -0.7282 -0.3501
  247MOL0     C33250   2.181   9.254   2.879 -0.6468  0.3005 -0.0262
  247MOL0     C33251   2.117   9.149   2.785 -0.4290 -0.9755 -0.7492
  247MOL0     C33252   2.051   9.233   2.667  0.0319 -1.0571  0.2565
  247MOL0     C33253   1.961   9.138   2.584  0.2941 -0.1726  0.5509
  247MOL0    Cl33254   1.823   9.217   2.505  0.2288  0.3493  0.1619
  247MOL0     C33255   2.686   9.818   3.118 -0.0306 -0.4607  0.5768
  247MOL0     C33256   2.749   9.852   3.237  0.2325  0.3619 -0.2707
  247MOL0     O33257   2.896   9.681   3.455 -0.0729  0.0152  0.4255
  247MOL0     C33258   3.060   9.797   3.662  0.2959 -0.4077 -0.0590
  247MOL0     C33259   3.126   9.846   3.773  0.2182  0.4840  0.7730
  247MOL0     N33260   2.869   9.645   4.461 -0.3904 -0.1216  0.2362
  247MOL0     N33261   2.772   9.618   4.543 -0.5044  0.2469  0.8213
  247MOL0     C33262   1.962   9.504   5.427  0.4232 -0.0517  0.4752
  247MOL0     C33263   1.838   9.509   5.497 -0.4271  0.8104  0.8024
  247MOL0     C33264   1.466   9.405   5.664 -0.5886  0.5442  0.8367
  247MOL0     C33265   1.466   9.537   5.710 -0.1936  0.1081 -0.8065
  247MOL0     C33266   1.382   9.567   5.825 -0.6113 -0.2723  0.4484
  247MOL0     C33267   1.307   9.472   5.888  0.7811  0.0424 -0.1933
  247MOL0     O33268   1.259   9.526   6.007 -0.3210  0.6475  0.7739
  247MOL0     C33269   1.228   9.432   6.115 -0.4238 -0.0424 -0.1651
  247MOL0     C33270   1.359   9.363   6.166 -0.1373  0.3710  0.4537
  247MOL0     C33271   1.327   9.272   6.283  0.3531  0.1415  0.0557
  247MOL0     C33272   1.383   9.318   6.420  0.4705 -0.5253  0.7693
  247MOL0     C33273   1.324   9.228   6.517 -0.5116 -0.1282  0.3305
  247MOL0     C33274   1.269   9.168   6.604 -0.1373  0.1542 -0.6282
  247MOL0     C33275   1.296   9.343   5.833 -0.7506  0.2862  0.4102
  247MOL0     C33276   1.377   9.308   5.729  0.9548  0.4795  0.3194
  247MOL0     C33277   1.361   9.163   5.683 -0.3053 -0.3307 -1.0107
  247MOL0     H33278   1.661   9.336   5.241  1.1398 -1.9973 -0.6078
  247MOL0     H33279   1.863   9.359   5.143  1.3463  2.1600 -0.7038
  247MOL0     H33280   2.224   9.585   5.273 -0.5877 -0.6036  0.0244
  247MOL0     H33281   2.243   9.442   5.360  2.2261 -2.2069 -1.0018
  247MOL0     H33282   2.252   9.327   5.112  0.1549  0.9361 -5.0938
  247MOL0     H33283   2.396   9.386   5.187 -1.4212 -0.6595  1.7155
  247MOL0     H33284   2.343   9.611   5.039 -0.2268  0.3187 -1.3622
  247MOL0     H33285   2.211   9.523   4.982 -0.5609 -0.8502 -1.0094
  247MOL0     H33286   2.489   9.407   4.982 -0.1966  1.3054  2.3307
  247MOL0     H33287   2.357   9.340   4.902  0.2072  1.0545 -2.2903
  247MOL0     H33288   2.339   9.565   4.785  0.4787  2.2302  0.4867
  247MOL0     H33289   2.506   9.602   4.834  0.3828 -0.4559  0.8143
  247MOL0     H33290   2.586   9.408   4.699  1.7727  3.9557  1.5506
  247MOL0     H33291   2.417   9.366   4.656 -0.6171 -0.7709  1.3938
  247MOL0     H33292   2.356   9.567   4.561 -0.5315 -1.7132  0.0161
  247MOL0     H33293   2.493   9.494   4.477  1.0302 -1.5807 -0.0049
  247MOL0     H33294   2.469   9.758   4.511  0.5336  0.3858 -0.8459
  247MOL0     H33295   2.537   9.725   4.673  3.8034  0.4308 -0.2683
  247MOL0     H33296   2.658   9.898   4.410  2.1568  1.4190 -1.9408
  247MOL0     H33297   2.872   9.918   4.253 -1.6376 -2.4590 -2.0490
  247MOL0     H33298   2.991   9.899   4.394  2.1235 -2.2934 -0.4172
  247MOL0     H33299   3.126   9.769   4.292  0.4474 -3.5004 -2.1946
  247MOL0     H33300   3.003   9.664   4.239  3.9442 -1.0660  2.4656
  247MOL0     H33301   2.924   9.818   4.051  0.7135  0.1328 -2.1497
  247MOL0     H33302   3.073   9.742   4.028 -2.9105 -1.5430 -1.8524
  247MOL0     H33303   3.163   9.961   4.169 -0.6484 -2.5544  1.1144
  247MOL0     H33304   3.008  10.022   4.108  1.6154  1.9503  0.8481
  247MOL0     H33305   2.892  10.069   3.878  3.4600  1.9576  0.2327
  247MOL0     H33306   2.751   9.962   3.706 -0.8510 -3.3455  0.1139
  247MOL0     H33307   2.512   9.774   3.468 -2.0808  2.9223 -0.1571
  247MOL0     H33308   2.392   9.716   3.233 -0.4593  1.6854 -2.3262
  247MOL0     H33309   2.647   9.605   2.917  1.3921 -1.9793  2.1063
  247MOL0     H33310   2.533   9.530   3.039 -2.3531  0.2211 -0.9868
  247MOL0     H33311   2.372   9.605   2.842  1.3225  2.0114  0.0282
  247MOL0     H33312   2.498   9.533   2.757  0.0445  4.8485 -0.3697
  247MOL0     H33313   2.468   9.332   2.943  0.8197  0.5062 -0.4716
  247MOL0     H33314   2.335   9.440   2.999  0.2779  1.8881 -0.9972
  247MOL0     H33315   2.365   9.278   2.759  1.1274  0.4244 -0.1962
  247MOL0     H33316   2.266   9.411   2.746  1.9135  0.4712 -0.1559
  247MOL0     H33317   2.106   9.323   2.918  1.3900  1.9735  1.1380
  247MOL0     H33318   2.217   9.203   2.969 -3.2951  0.5825  1.2727
  247MOL0     H33319   2.195   9.083   2.745  0.1027 -1.7232  1.3736
  247MOL0     H33320   2.033   9.092   2.824  0.5473 -4.5216 -3.3708
  247MOL0     H33321   2.129   9.269   2.600 -1.4338 -0.7691 -1.3612
  247MOL0     H33322   1.999   9.326   2.690  1.3042  0.4245 -2.3544
  247MOL0     H33323   2.029   9.098   2.508  2.1318  0.1643  1.9403
  247MOL0     H33324   1.934   9.058   2.654  1.3457  0.7759  2.0810
  247MOL0     H33325   2.734   9.844   3.024 -2.3818  2.9131  0.1228
  247MOL0     H33326   2.849   9.893   3.237  1.8955 -3.1034 -2.7386
  247MOL0     H33327   3.103   9.711   3.611 -1.3707  0.1363 -2.5924
  247MOL0     H33328   3.226   9.805   3.778 -0.1023 -1.3480 -3.5751
  247MOL0     H33329   2.047   9.561   5.466 -0.3827  0.5849  1.3528
  247MOL0     H33330   1.842   9.557   5.594  3.4200 -1.2788  1.8776
  247MOL0     H33331   1.525   9.616   5.663 -0.9933  0.8381 -0.6137
  247MOL0     H33332   1.381   9.669   5.863  0.6902 -0.6476  1.5615
  247MOL0     H33333   1.150   9.361   6.088 -2.5990  2.5027 -0.9242
  247MOL0     H33334   1.192   9.489   6.201  0.5894 -0.9243  0.8860
  247MOL0     H33335   1.440   9.434   6.184 -2.7558  3.6106  0.2484
  247MOL0     H33336   1.388   9.301   6.080 -1.7715 -1.3213  1.0456
  247MOL0     H33337   1.375   9.174   6.274  2.6759  0.2599  6.2798
  247MOL0     H33338   1.221   9.254   6.302  1.2634 -2.7994  3.4701
  247MOL0     H33339   1.491   9.332   6.415  0.8615 -3.2459  0.5718
  247MOL0     H33340   1.364   9.421   6.454  0.7694 -0.9838  2.3523
  247MOL0     H33341   1.224   9.105   6.678 -1.8226  2.5890  0.5405
  247MOL0     H33342   1.225   9.276   5.882 -1.4731  1.5775  1.1909
  247MOL0     H33343   1.352   9.152   5.575 -0.8434  0.6136 -1.0671
  247MOL0     H33344   1.455   9.116   5.714  1.4275  2.1737 -2.1684
  247MOL0     H33345   1.277   9.105   5.723  0.0182  0.7133  1.3401
  248MOL0     O33346   7.649   7.889  10.170  0.9342  0.0696 -0.3234
  248MOL0     C33347   7.540   7.895  10.229 -0.7266  0.4982  0.7307
  248MOL0     O33348   7.437   7.804  10.202  0.1577  0.2334 -0.3284
  248MOL0     C33349   7.473   7.678  10.160  0.5597 -0.2569  0.5774
  248MOL0     C33350   7.570   7.592  10.203  0.2689 -0.2674 -0.8359
  248MOL0     C33351   7.602   7.465  10.151  0.8395 -0.4520  0.0548
  248MOL0     C33352   7.511   7.410  10.055 -0.2625  0.5277 -0.0357
  248MOL0     O33353   7.528   7.279  10.020 -0.5347  0.6835  0.2428
  248MOL0     C33354   7.441   7.221   9.917 -0.6528 -0.4059  0.6729
  248MOL0     C33355   7.463   7.064   9.913  0.3608 -0.3480  0.0084
  248MOL0     C33356   7.469   7.005  10.057  0.2311 -0.5260 -0.6999
  248MOL0     C33357   7.479   6.854  10.024 -0.9503  0.0781 -0.6064
  248MOL0     C33358   7.460   6.768  10.147  0.2073  0.0046  0.8281
  248MOL0     C33359   7.590   6.722  10.222 -0.4441  0.3871 -0.6879
  248MOL0     C33360   7.659   6.613  10.142  0.3736  0.0035  0.3482
  248MOL0     C33361   7.775   6.560  10.220 -0.5122 -0.0594  0.0354
  248MOL0     N33362   7.834   6.441  10.148  0.7168 -0.3146 -0.5737
  248MOL0     C33363   7.906   6.434  10.038  0.1956 -0.2277  0.0803
  248MOL0     C33364   7.912   6.297  10.021 -0.5833 -0.4829 -0.3796
  248MOL0     C33365   7.980   6.245   9.905 -0.6115 -0.4995  0.3101
  248MOL0     C33366   7.912   6.120   9.844  0.1527  0.4422  0.3652
  248MOL0     C33367   7.933   6.109   9.694 -1.0012  0.7974  0.4526
  248MOL0     C33368   8.075   6.065   9.679 -0.1421 -0.1260 -0.5218
  248MOL0     O33369   8.096   6.059   9.537  0.2041  0.3011 -0.0533
  248MOL0     C33370   8.224   6.028   9.500 -0.4349  0.4051  0.2017
  248MOL0     C33371   8.254   5.908   9.441 -0.5928 -0.8395 -0.1884
  248MOL0     C33372   8.380   5.879   9.391 -0.4607  0.2164  0.4155
  248MOL0     C33373   8.489   5.964   9.420 -0.9570  0.3183  0.1003
  248MOL0     C33374   8.620   5.943   9.365 -0.4898  0.7049 -0.2635
  248MOL0     O33375   8.636   5.818   9.308 -0.5230 -0.4473  0.4200
  248MOL0     C33376   8.766   5.757   9.299 -0.3316  1.5940  0.2183
  248MOL0     C33377   8.880   5.811   9.352 -0.2087  0.4186  0.3626
  248MOL0     C33378   9.009   5.747   9.333  1.0282  0.4334 -0.9695
  248MOL0     C33379   9.016   5.627   9.271 -0.2412 -0.1740 -0.2803
  248MOL0     O33380   9.144   5.581   9.252 -0.1929  0.4125  0.5812
  248MOL0     C33381   9.225   5.550   9.367 -0.0580  0.6080 -0.3435
  248MOL0     C33382   9.371   5.574   9.350  0.1053  0.8180 -0.7487
  248MOL0     C33383   9.473   5.469   9.404  0.6642  0.5278  0.1214
  248MOL0     C33384   9.615   5.516   9.352  0.4932 -1.2920 -0.2925
  248MOL0     C33385   9.718   5.403   9.326 -0.7929  0.7755  0.4841
  248MOL0     C33386   9.801   5.367   9.447 -0.6989  0.3275 -0.6582
  248MOL0     C33387   9.902   5.259   9.396  0.1113 -0.2536  0.4595
  248MOL0     C33388   9.943   5.168   9.514  0.3812 -0.9100  0.0295
  248MOL0    Cl33389  10.038   5.265   9.624 -1.0671 -0.0630  0.0394
  248MOL0     C33390   8.899   5.568   9.223 -0.2603  0.4129 -0.4052
  248MOL0     C33391   8.773   5.632   9.239 -0.5817  0.3021  0.2044
  248MOL0     O33392   8.707   6.032   9.384 -0.0061  0.7737  0.3255
  248MOL0     C33393   8.462   6.095   9.482  0.3893  0.0978 -0.7488
  248MOL0     C33394   8.324   6.115   9.519  0.0559  0.4533  0.2368
  248MOL0     N33395   7.852   6.232  10.128  0.3147 -0.0133  0.5810
  248MOL0     N33396   7.801   6.320  10.204 -0.6745  1.2085  0.3323
  248MOL0     C33397   7.403   7.490  10.013  0.0359 -0.6645 -0.4580
  248MOL0     C33398   7.381   7.616  10.063 -0.4319 -0.9417 -0.5803
  248MOL0     C33399   7.513   7.992  10.344 -0.9377  0.2956 -0.5052
  248MOL0     C33400   7.377   8.021  10.376 -0.1404 -0.2388  0.3475
  248MOL0     C33401   7.346   8.097  10.496  0.1426 -0.5529 -0.3806
  248MOL0     C33402   7.439   8.151  10.581 -0.4465  0.1643 -0.9142
  248MOL0     O33403   7.388   8.216  10.682  0.3593  0.6610 -0.4147
  248MOL0     C33404   7.479   8.245  10.786 -0.6839  0.8922 -0.1945
  248MOL0     C33405   7.418   8.293  10.917 -0.6205  0.3383 -0.1926
  248MOL0     C33406   7.345   8.168  10.989 -0.6727  0.2399 -0.3848
  248MOL0     C33407   7.285   8.200  11.124  0.1642 -1.0384  0.2285
  248MOL0     C33408   7.192   8.083  11.165  0.5592 -1.6802 -0.1870
  248MOL0     C33409   7.128   7.988  11.201 -0.2136  0.4656 -1.8499
  248MOL0     C33410   7.572   8.160  10.536  0.2121 -1.4940 -0.1267
  248MOL0     C33411   7.607   8.077  10.417  0.2249 -0.7733  0.1826
  248MOL0     C33412   7.758   8.068  10.383 -0.1640  0.2705  0.3849
  248MOL0     H33413   7.636   7.625  10.282  2.4442 -2.3189 -1.6587
  248MOL0     H33414   7.692   7.410  10.178  1.7991  0.2741 -1.4857
  248MOL0     H33415   7.337   7.247   9.940 -0.5803  0.1735  0.3656
  248MOL0     H33416   7.462   7.264   9.819  0.2438  0.5079  1.2495
  248MOL0     H33417   7.558   7.044   9.862  0.7410  0.6181  0.3124
  248MOL0     H33418   7.393   7.020   9.842  1.1932 -0.3900 -0.8189
  248MOL0     H33419   7.374   7.028  10.106  0.9317  1.2183 -0.0742
  248MOL0     H33420   7.546   7.051  10.120 -0.4599  1.5944 -1.3203
  248MOL0     H33421   7.407   6.821   9.950  0.0969 -0.5401 -1.3761
  248MOL0     H33422   7.580   6.845   9.982 -0.6982  3.9390 -1.1621
  248MOL0     H33423   7.392   6.815  10.218 -0.9211 -0.8825  0.3583
  248MOL0     H33424   7.403   6.681  10.115  1.1321 -0.5915  0.7557
  248MOL0     H33425   7.659   6.805  10.240  0.5613 -0.5855  0.0298
  248MOL0     H33426   7.558   6.682  10.319 -1.6424  1.7571 -0.4761
  248MOL0     H33427   7.706   6.650  10.050  2.8982 -3.9826 -0.2519
  248MOL0     H33428   7.585   6.535  10.123  1.8453 -1.2656 -0.4630
  248MOL0     H33429   7.849   6.640  10.230 -1.1633  0.5025  0.4735
  248MOL0     H33430   7.759   6.538  10.326  2.2580  1.2436  0.8212
  248MOL0     H33431   7.949   6.515   9.979  0.1239  0.2210  0.6401
  248MOL0     H33432   7.981   6.320   9.825 -0.7297 -0.9670 -0.1343
  248MOL0     H33433   8.080   6.212   9.935 -0.1924  1.5031  1.2979
  248MOL0     H33434   7.937   6.029   9.897  0.5710 -2.6777 -4.5290
  248MOL0     H33435   7.804   6.136   9.841 -0.6831 -3.7903 -3.5938
  248MOL0     H33436   7.910   6.205   9.646  1.9050  1.9296  1.0967
  248MOL0     H33437   7.866   6.044   9.637  1.9141 -0.8839 -1.2579
  248MOL0     H33438   8.088   5.966   9.724 -1.1200 -1.1501 -2.3703
  248MOL0     H33439   8.151   6.126   9.730 -0.0654 -0.0799 -0.6901
  248MOL0     H33440   8.168   5.842   9.428 -0.5345 -1.3023  1.5405
  248MOL0     H33441   8.406   5.783   9.347 -0.2038 -0.0442  1.1150
  248MOL0     H33442   8.892   5.911   9.390 -2.2401  1.0669 -0.5902
  248MOL0     H33443   9.101   5.785   9.378  0.9906  1.8177 -1.9811
  248MOL0     H33444   9.188   5.591   9.462 -2.0950 -1.6544 -0.0799
  248MOL0     H33445   9.217   5.442   9.376  3.6388  0.1802 -0.6192
  248MOL0     H33446   9.383   5.584   9.242  1.4408 -0.5858 -0.7652
  248MOL0     H33447   9.396   5.664   9.406  1.1741  0.1760 -0.1497
  248MOL0     H33448   9.459   5.451   9.512 -3.4023  0.5538 -0.2376
  248MOL0     H33449   9.446   5.376   9.354  1.7004 -0.6391  1.6513
  248MOL0     H33450   9.653   5.597   9.415  1.8354 -0.6175 -1.8965
  248MOL0     H33451   9.600   5.555   9.250  0.8591 -3.9416 -1.4337
  248MOL0     H33452   9.790   5.449   9.258  0.9273 -0.3012  1.5163
  248MOL0     H33453   9.670   5.321   9.272 -0.4572  2.9150 -3.4484
  248MOL0     H33454   9.847   5.454   9.493  0.4572 -0.0092 -1.1315
  248MOL0     H33455   9.725   5.329   9.516 -1.5433  2.2696 -0.4540
  248MOL0     H33456   9.998   5.300   9.365 -0.4092  2.0658  1.6763
  248MOL0     H33457   9.863   5.186   9.324 -1.4604  0.2307  0.7779
  248MOL0     H33458   9.855   5.132   9.568 -1.4150  0.2563 -1.9884
  248MOL0     H33459  10.001   5.087   9.468  0.8760 -2.4190  2.9982
  248MOL0     H33460   8.915   5.473   9.172  0.7679  0.1351  0.3993
  248MOL0     H33461   8.680   5.584   9.209 -0.4262  1.1840 -1.8559
  248MOL0     H33462   8.534   6.173   9.505  0.4311  0.5430 -2.3064
  248MOL0     H33463   8.298   6.212   9.560  1.6635  2.0352 -2.1819
  248MOL0     H33464   7.328   7.469   9.937  1.4139  1.1719 -2.4517
  248MOL0     H33465   7.297   7.677  10.033 -1.8940 -1.7509  1.6160
  248MOL0     H33466   7.301   7.980  10.311 -0.0668 -0.0033  0.1132
  248MOL0     H33467   7.244   8.095  10.531  0.9919 -3.7986  2.4707
  248MOL0     H33468   7.551   8.316  10.746 -0.1482  0.1239 -0.6162
  248MOL0     H33469   7.534   8.152  10.807 -2.5416  0.0950  1.5071
  248MOL0     H33470   7.343   8.373  10.911 -2.8341 -1.4374  1.6539
  248MOL0     H33471   7.505   8.315  10.979  0.0301 -0.9297 -0.6238
  248MOL0     H33472   7.401   8.074  10.997 -1.9021 -0.5292 -0.4350
  248MOL0     H33473   7.261   8.141  10.924 -1.5544  0.6834  0.5555
  248MOL0     H33474   7.371   8.218  11.189 -1.8284  1.3889  2.3828
  248MOL0     H33475   7.223   8.289  11.128  1.8182  0.1310  0.7684
  248MOL0     H33476   7.069   7.901  11.221  0.1065  0.1092 -2.4093
  248MOL0     H33477   7.642   8.211  10.600 -4.2840  2.8581  1.9727
  248MOL0     H33478   7.774   8.132  10.296 -0.5856 -1.7641 -1.2683
  248MOL0     H33479   7.816   8.094  10.472  3.0833 -3.0814 -0.5345
  248MOL0     H33480   7.782   7.964  10.361 -0.8018 -0.3374  2.3149
  249MOL0     O33481   3.339   1.009   1.554  0.4284 -0.4935  0.0625
  249MOL0     C33482   3.411   1.077   1.628  0.5499 -0.6403 -0.8816
  249MOL0     O33483   3.392   1.198   1.678 -0.1896 -0.1541 -0.2754
  249MOL0     C33484   3.264   1.233   1.697  0.4331 -0.6306 -0.9430
  249MOL0     C33485   3.160   1.225   1.602  0.6553 -0.1169  0.4528
  249MOL0     C33486   3.027   1.251   1.633  0.3895  0.0681 -0.4012
  249MOL0     C33487   2.991   1.286   1.770 -0.7647  0.3301 -0.7471
  249MOL0     O33488   2.859   1.302   1.795  0.3102 -0.6006  0.1682
  249MOL0     C33489   2.798   1.286   1.928 -0.6165 -0.4437  1.0328
  249MOL0     C33490   2.652   1.248   1.913 -0.2090  0.2398 -0.3474
  249MOL0     C33491   2.630   1.098   1.866 -0.3482  0.0392  0.3931
  249MOL0     C33492   2.482   1.054   1.892 -1.7351  0.0514  0.8687
  249MOL0     C33493   2.455   0.927   1.815  0.3632  1.7873 -0.7613
  249MOL0     C33494   2.325   0.859   1.848  0.8207 -0.5802 -0.3879
  249MOL0     C33495   2.289   0.733   1.773 -0.5636  0.8742  0.9869
  249MOL0     C33496   2.148   0.667   1.806  1.8981  1.0923 -0.0346
  249MOL0     N33497   2.075   0.620   1.687 -1.0624 -0.3044  0.1740
  249MOL0     C33498   2.110   0.540   1.580 -0.3346  0.3652 -0.1973
  249MOL0     C33499   1.997   0.517   1.513  0.7191  0.6460  0.2648
  249MOL0     C33500   1.966   0.421   1.412 -0.0792 -0.8810 -0.6115
  249MOL0     C33501   1.986   0.469   1.262  0.5992 -0.4669  0.2710
  249MOL0     C33502   1.952   0.341   1.175 -1.0258 -0.4054 -0.3878
  249MOL0     C33503   1.971   0.351   1.023 -1.0051 -0.1442  1.1568
  249MOL0     O33504   2.106   0.366   0.981  0.7528 -0.2862 -0.1924
  249MOL0     C33505   2.142   0.362   0.850 -0.3248  0.1646  1.8977
  249MOL0     C33506   2.049   0.371   0.736 -0.1819  0.9575 -0.2583
  249MOL0     C33507   2.105   0.369   0.613 -0.9314 -0.5115  0.5176
  249MOL0     C33508   2.244   0.351   0.594 -0.2392 -0.3969 -0.4866
  249MOL0     C33509   2.297   0.336   0.452 -0.7858  0.0484  0.3627
  249MOL0     O33510   2.414   0.278   0.428  0.1332  0.3864  0.6330
  249MOL0     C33511   2.444   0.243   0.300  0.4677 -0.5340 -1.0052
  249MOL0     C33512   2.536   0.314   0.223 -0.3162  0.1256  0.5528
  249MOL0     C33513   2.549   0.275   0.087 -0.0582  0.4596  0.4252
  249MOL0     C33514   2.485   0.159   0.032  0.6166 -0.2234  1.1620
  249MOL0     O33515   2.505   0.135  -0.104 -0.4908  1.1667  0.3393
  249MOL0     C33516   2.523  -0.006  -0.135  0.2879 -0.0608  0.3615
  249MOL0     C33517   2.591  -0.021  -0.273 -0.0807  1.4235 -0.0989
  249MOL0     C33518   2.658  -0.154  -0.297 -0.0359 -0.2834 -1.0375
  249MOL0     C33519   2.722  -0.176  -0.433  0.1519  0.2289 -0.6360
  249MOL0     C33520   2.764  -0.321  -0.454  0.7578  0.7039  0.3257
  249MOL0     C33521   2.842  -0.321  -0.583  0.3228  0.8222 -1.0105
  249MOL0     C33522   2.889  -0.474  -0.598 -1.1026 -0.3782 -0.5424
  249MOL0     C33523   2.976  -0.487  -0.721 -0.6676 -0.1022 -0.2882
  249MOL0    Cl33524   2.874  -0.497  -0.874 -0.3461 -0.3653  0.0519
  249MOL0     C33525   2.390   0.103   0.114  0.7039 -0.1241  0.4822
  249MOL0     C33526   2.366   0.137   0.241 -0.6850  0.5528 -1.0351
  249MOL0     O33527   2.224   0.377   0.364  0.2044  0.1871  0.3680
  249MOL0     C33528   2.329   0.350   0.707 -0.9649 -0.0478  0.6169
  249MOL0     C33529   2.283   0.354   0.832  0.0491 -0.1906  0.2799
  249MOL0     N33530   1.894   0.594   1.572 -0.4822 -0.0975 -0.7824
  249MOL0     N33531   1.953   0.658   1.666 -0.3322 -0.3958 -0.0462
  249MOL0     C33532   3.099   1.302   1.861  1.4191  0.2948  0.0635
  249MOL0     C33533   3.234   1.281   1.827 -0.0915  0.0927 -0.1053
  249MOL0     C33534   3.532   1.014   1.670 -0.3824  0.5357  0.1935
  249MOL0     C33535   3.632   0.981   1.577  0.2067 -0.7268  0.4763
  249MOL0     C33536   3.743   0.900   1.614  1.2136  0.3374 -0.2251
  249MOL0     C33537   3.761   0.859   1.742 -0.1872 -0.6579 -0.0372
  249MOL0     O33538   3.878   0.796   1.779  0.2420  0.4595 -0.4797
  249MOL0     C33539   3.985   0.879   1.836 -0.5114 -0.2749  0.5210
  249MOL0     C33540   4.112   0.792   1.821 -1.3731  0.1234 -0.8381
  249MOL0     C33541   4.180   0.795   1.682 -0.1505 -0.1678  0.3773
  249MOL0     C33542   4.303   0.882   1.686  0.6223 -0.1243 -0.1045
  249MOL0     C33543   4.359   0.921   1.549 -0.4987 -0.4794  0.1628
  249MOL0     C33544   4.400   0.956   1.437  1.0314  0.9293 -0.0448
  249MOL0     C33545   3.674   0.909   1.841  0.5498 -0.2568  0.6996
  249MOL0     C33546   3.561   0.982   1.806 -0.1589  0.2443 -0.5043
  249MOL0     C33547   3.451   0.963   1.913 -0.7346 -1.0533 -0.4067
  249MOL0     H33548   3.182   1.202   1.498  3.6615 -0.6155  1.1114
  249MOL0     H33549   2.951   1.251   1.556 -1.4145 -2.6116  1.2149
  249MOL0     H33550   2.847   1.210   1.990 -0.2647 -1.3900 -0.3457
  249MOL0     H33551   2.799   1.379   1.984  4.5216  0.2459  0.3107
  249MOL0     H33552   2.603   1.315   1.842  1.8990  2.1391 -0.1440
  249MOL0     H33553   2.590   1.264   2.002 -1.9179  1.0489 -1.6391
  249MOL0     H33554   2.689   1.028   1.926  0.3997 -0.8895 -1.3815
  249MOL0     H33555   2.669   1.096   1.764 -0.0087 -1.6484  0.5234
  249MOL0     H33556   2.455   1.046   1.997 -2.4521 -4.0732  0.5554
  249MOL0     H33557   2.428   1.138   1.846  1.3096  1.9831  0.5733
  249MOL0     H33558   2.453   0.941   1.707  2.6789  1.1729 -0.9407
  249MOL0     H33559   2.537   0.863   1.848 -0.2800  2.5373  2.7486
  249MOL0     H33560   2.315   0.839   1.955  1.7274 -1.7227 -0.4976
  249MOL0     H33561   2.250   0.929   1.810  1.2826 -0.6121 -1.3694
  249MOL0     H33562   2.369   0.659   1.774 -2.2060 -1.2125 -2.2292
  249MOL0     H33563   2.292   0.759   1.666 -1.9019 -1.6846  0.2440
  249MOL0     H33564   2.163   0.575   1.864 -2.2758  0.3674  0.2629
  249MOL0     H33565   2.080   0.726   1.868 -0.0461 -1.3691  0.3621
  249MOL0     H33566   2.208   0.494   1.575  0.5983  1.7305  3.1722
  249MOL0     H33567   2.026   0.330   1.426  0.1064 -0.6627  0.0308
  249MOL0     H33568   1.862   0.396   1.439  0.0183  0.4084  1.0895
  249MOL0     H33569   1.916   0.548   1.235  1.9267  1.4089  1.9738
  249MOL0     H33570   2.090   0.489   1.232 -0.2743 -1.3229 -3.9479
  249MOL0     H33571   1.851   0.306   1.196 -0.3400 -2.1453  0.2387
  249MOL0     H33572   2.019   0.259   1.203 -0.6279 -0.1708 -0.6420
  249MOL0     H33573   1.913   0.440   0.997 -1.7920 -0.7372  0.8099
  249MOL0     H33574   1.919   0.273   0.967  0.2761 -0.1096 -0.1448
  249MOL0     H33575   1.942   0.385   0.751 -0.9140 -2.7759 -0.9865
  249MOL0     H33576   2.033   0.385   0.533  1.2191 -1.2873 -1.6714
  249MOL0     H33577   2.577   0.401   0.272 -1.1102 -0.8181  3.0645
  249MOL0     H33578   2.621   0.327   0.025  2.1028 -1.2962  1.3131
  249MOL0     H33579   2.584  -0.070  -0.070 -0.3172 -3.6578 -2.3170
  249MOL0     H33580   2.424  -0.051  -0.139  0.4540 -0.3540 -1.9655
  249MOL0     H33581   2.512  -0.012  -0.348 -1.0420  0.9369  0.8259
  249MOL0     H33582   2.660   0.062  -0.287 -2.0866  3.2919  0.5694
  249MOL0     H33583   2.731  -0.166  -0.217 -3.7039 -0.4706  2.6359
  249MOL0     H33584   2.589  -0.238  -0.285  1.7115 -1.7097 -0.6228
  249MOL0     H33585   2.810  -0.111  -0.438  1.7758 -1.8963 -1.5030
  249MOL0     H33586   2.649  -0.139  -0.506 -2.9326 -1.9780  1.1075
  249MOL0     H33587   2.678  -0.389  -0.449  1.0327  0.4189  1.2665
  249MOL0     H33588   2.832  -0.359  -0.378 -0.3516  0.7945  1.3937
  249MOL0     H33589   2.774  -0.316  -0.668 -0.5371  0.9176 -0.3395
  249MOL0     H33590   2.920  -0.245  -0.585  0.2990  0.8266 -1.9347
  249MOL0     H33591   2.805  -0.543  -0.611 -0.5402 -0.8846 -1.5798
  249MOL0     H33592   2.945  -0.493  -0.506 -1.9584  2.2660  0.6430
  249MOL0     H33593   3.032  -0.393  -0.721  0.4657 -0.7541 -1.1294
  249MOL0     H33594   3.059  -0.559  -0.725  1.1527  1.9260 -0.5172
  249MOL0     H33595   2.318   0.039   0.063  0.7147  1.1296 -1.2085
  249MOL0     H33596   2.289   0.084   0.296  0.2157 -0.1213 -0.3805
  249MOL0     H33597   2.437   0.339   0.697 -1.2364 -0.9990 -1.8049
  249MOL0     H33598   2.341   0.366   0.923  0.2030 -1.7768  0.4210
  249MOL0     H33599   3.080   1.345   1.959 -0.8559  2.7621 -1.3173
  249MOL0     H33600   3.309   1.295   1.905 -1.4167 -0.0752  1.2503
  249MOL0     H33601   3.609   1.021   1.479  0.3336 -0.5644  0.5126
  249MOL0     H33602   3.807   0.877   1.529  2.1213  2.4567 -0.1877
  249MOL0     H33603   3.950   0.909   1.935  0.6032 -0.3048  0.9382
  249MOL0     H33604   4.006   0.970   1.779  2.7235 -2.4095 -2.0858
  249MOL0     H33605   4.103   0.685   1.845 -1.1124  0.2684 -0.0413
  249MOL0     H33606   4.189   0.834   1.886  0.5129 -3.2711 -0.6302
  249MOL0     H33607   4.105   0.827   1.610 -0.6188  1.5429  1.5584
  249MOL0     H33608   4.213   0.692   1.662  0.0515 -0.0424  0.0552
  249MOL0     H33609   4.282   0.974   1.741 -0.4898  0.3755 -1.3030
  249MOL0     H33610   4.376   0.830   1.748 -1.4160  0.5052  3.0420
  249MOL0     H33611   4.436   0.964   1.336  1.9375 -1.4216  0.0285
  249MOL0     H33612   3.691   0.899   1.948  2.3255 -2.4182  0.2945
  249MOL0     H33613   3.460   0.861   1.950 -1.6061 -0.7991  0.5529
  249MOL0     H33614   3.466   1.025   2.002 -1.4965  1.7976 -2.1300
  249MOL0     H33615   3.353   0.980   1.867 -1.8647 -1.9617  1.5609
  250MOL0     O33616  10.430   2.352   4.788  0.0304 -0.4258  0.3487
  250MOL0     C33617  10.526   2.351   4.712  0.2635  0.6249 -0.7107
  250MOL0     O33618  10.533   2.409   4.591  0.1168 -0.1087  0.0054
  250MOL0     C33619  10.429   2.457   4.518 -0.0787  0.0750 -0.5079
  250MOL0     C33620  10.302   2.437   4.540  0.4139 -0.6508  0.0306
  250MOL0     C33621  10.199   2.477   4.450 -0.5423 -0.4705 -0.2482
  250MOL0     C33622  10.225   2.536   4.332  0.1667 -1.0097  0.3163
  250MOL0     O33623  10.128   2.564   4.235 -1.3156 -0.0801  0.5241
  250MOL0     C33624   9.999   2.584   4.290  0.2400  0.0524 -0.0600
  250MOL0     C33625   9.922   2.670   4.187 -0.2359 -0.4925  0.5455
  250MOL0     C33626   9.831   2.577   4.088 -0.4163  0.1785 -0.4992
  250MOL0     C33627   9.728   2.660   4.000 -0.3030  0.0023  0.3999
  250MOL0     C33628   9.617   2.569   3.927  0.0044  0.1496 -0.0659
  250MOL0     C33629   9.508   2.512   4.029 -0.2279 -0.3611  0.7119
  250MOL0     C33630   9.401   2.447   3.944 -0.1947  0.5758 -0.1538
  250MOL0     C33631   9.443   2.343   3.839  0.4037  0.3813 -0.0632
  250MOL0     N33632   9.316   2.297   3.773 -0.9699  0.5213 -0.5364
  250MOL0     C33633   9.240   2.377   3.689 -0.0679 -0.5395 -1.2091
  250MOL0     C33634   9.172   2.299   3.610  0.7679  0.3429 -0.2234
  250MOL0     C33635   9.111   2.338   3.471  0.5918  0.6234 -0.1724
  250MOL0     C33636   9.033   2.472   3.474  0.1014 -0.7480 -0.5076
  250MOL0     C33637   8.889   2.453   3.529  0.0207 -0.7489  0.1505
  250MOL0     C33638   8.869   2.491   3.682  1.1421 -0.6748 -0.1271
  250MOL0     O33639   8.969   2.465   3.782 -0.5975 -0.1537  0.1451
  250MOL0     C33640   8.950   2.487   3.916  0.0872  0.1791 -0.4176
  250MOL0     C33641   8.844   2.561   3.974 -0.5001 -0.0247  0.6377
  250MOL0     C33642   8.833   2.577   4.112 -0.8343 -0.3100 -0.2828
  250MOL0     C33643   8.932   2.517   4.193  0.6696  0.1724 -0.2816
  250MOL0     C33644   8.926   2.521   4.343 -0.3710  0.6803  0.1920
  250MOL0     O33645   8.825   2.589   4.402 -0.3912  0.2561 -0.1825
  250MOL0     C33646   8.809   2.555   4.537 -0.1020  0.3624 -0.2271
  250MOL0     C33647   8.867   2.650   4.615  0.1698  0.5307 -0.2262
  250MOL0     C33648   8.861   2.644   4.743 -1.1601  0.1808 -0.0928
  250MOL0     C33649   8.776   2.553   4.812 -0.9577 -0.1952  0.4602
  250MOL0     O33650   8.766   2.550   4.950 -0.5314  0.2548  1.1075
  250MOL0     C33651   8.759   2.416   5.008  0.1455  0.3923 -0.2076
  250MOL0     C33652   8.628   2.357   5.059 -0.5245  1.3583  0.3773
  250MOL0     C33653   8.556   2.454   5.151 -0.0968  0.0579  0.2045
  250MOL0     C33654   8.426   2.387   5.200  1.1294  0.3225  0.1912
  250MOL0     C33655   8.317   2.457   5.120  0.4023  0.2856  0.1529
  250MOL0     C33656   8.266   2.591   5.174 -0.2881 -0.0950 -0.1551
  250MOL0     C33657   8.158   2.662   5.087 -0.0620 -0.2401  0.1812
  250MOL0     C33658   8.028   2.582   5.055  0.2833  1.2683 -0.3781
  250MOL0    Cl33659   7.925   2.691   4.957 -0.2735 -0.0117 -0.3430
  250MOL0     C33660   8.711   2.463   4.725 -0.1022  0.4417 -0.6333
  250MOL0     C33661   8.725   2.458   4.591 -0.9890 -0.8242 -0.2298
  250MOL0     O33662   9.018   2.463   4.405 -0.3051 -0.7658 -0.6864
  250MOL0     C33663   9.046   2.452   4.136 -0.6742 -0.7916  0.2005
  250MOL0     C33664   9.046   2.426   4.004 -0.4668 -0.4639 -0.2009
  250MOL0     N33665   9.202   2.173   3.643 -0.2244  1.0789  0.1425
  250MOL0     N33666   9.284   2.172   3.739  0.3843  0.3811 -0.3674
  250MOL0     C33667  10.361   2.543   4.295  0.1200  0.7969 -0.3347
  250MOL0     C33668  10.465   2.509   4.395  0.5198  0.2820 -1.0196
  250MOL0     C33669  10.638   2.264   4.758  0.9781  0.1117 -0.1564
  250MOL0     C33670  10.645   2.236   4.896 -0.0481  0.4305  0.7965
  250MOL0     C33671  10.751   2.169   4.950 -0.1063  1.0669  1.1191
  250MOL0     C33672  10.846   2.121   4.874 -0.0928  0.2432  0.5767
  250MOL0     O33673  10.917   2.020   4.927  0.0168 -0.1639 -1.2572
  250MOL0     C33674  11.049   1.994   4.883 -0.0609  0.2092 -0.4265
  250MOL0     C33675  11.114   1.899   4.988 -0.5125 -0.2557 -0.0159
  250MOL0     C33676  11.164   1.963   5.117 -0.1320 -1.2450  0.1668
  250MOL0     C33677  11.198   1.859   5.215 -0.5661  0.1340  0.1465
  250MOL0     C33678  11.215   1.914   5.351  0.7650  1.2133 -0.4859
  250MOL0     C33679  11.233   1.962   5.461  0.2710 -0.0129 -0.2168
  250MOL0     C33680  10.850   2.150   4.733 -0.5552  0.4390  0.1189
  250MOL0     C33681  10.745   2.218   4.673  1.1982 -0.2278 -0.8390
  250MOL0     C33682  10.739   2.233   4.523  0.0300  0.4811 -0.0450
  250MOL0     H33683  10.265   2.371   4.618 -0.8960 -0.8740 -0.7393
  250MOL0     H33684  10.095   2.460   4.475 -0.5873  1.9468  1.4737
  250MOL0     H33685   9.943   2.501   4.333 -4.5317  3.1525  0.3906
  250MOL0     H33686  10.017   2.652   4.375  0.0132 -0.6324  0.5446
  250MOL0     H33687   9.988   2.735   4.129 -0.1937  1.7797  2.9428
  250MOL0     H33688   9.859   2.744   4.237  0.9793  0.6768  0.4063
  250MOL0     H33689   9.767   2.502   4.136  0.2531 -0.6056 -0.8161
  250MOL0     H33690   9.890   2.535   4.006  2.7583  1.2096  1.0945
  250MOL0     H33691   9.681   2.734   4.065  0.3113  0.4684  0.3232
  250MOL0     H33692   9.787   2.716   3.927  1.4414 -1.4667  0.6105
  250MOL0     H33693   9.575   2.634   3.849 -0.4728  0.3150  0.3244
  250MOL0     H33694   9.662   2.480   3.884  0.3726  0.0009  0.6138
  250MOL0     H33695   9.546   2.446   4.107  0.6124 -0.9822 -0.1895
  250MOL0     H33696   9.468   2.597   4.084  1.0812 -0.6778  2.2198
  250MOL0     H33697   9.355   2.526   3.883  0.1428  1.6893  1.0063
  250MOL0     H33698   9.320   2.415   4.011  0.1601  0.1138  0.0597
  250MOL0     H33699   9.509   2.395   3.768 -0.6936  1.3719 -0.3944
  250MOL0     H33700   9.499   2.259   3.881  2.2954  0.8542 -1.4661
  250MOL0     H33701   9.271   2.481   3.694  3.7906 -1.5027  4.3781
  250MOL0     H33702   9.187   2.347   3.394 -0.5838 -1.1796 -1.6199
  250MOL0     H33703   9.047   2.257   3.436 -0.0984  1.9058 -2.0158
  250MOL0     H33704   9.091   2.526   3.549  1.2081 -4.1195  1.2813
  250MOL0     H33705   9.034   2.533   3.383  0.3454  2.0342  1.2361
  250MOL0     H33706   8.867   2.346   3.526 -1.8240 -0.4436  1.1099
  250MOL0     H33707   8.818   2.506   3.464 -0.9792  1.6764  3.0002
  250MOL0     H33708   8.786   2.425   3.709 -0.6092  0.6651 -1.9192
  250MOL0     H33709   8.829   2.592   3.692 -2.4614 -1.7216 -2.2560
  250MOL0     H33710   8.771   2.611   3.910 -2.1781 -2.2801  0.6750
  250MOL0     H33711   8.753   2.637   4.156  0.0112  0.6943 -0.0636
  250MOL0     H33712   8.929   2.721   4.561 -2.0901  3.2295  0.4881
  250MOL0     H33713   8.914   2.716   4.804 -0.8303 -0.2772  0.1661
  250MOL0     H33714   8.789   2.338   4.936 -2.0832 -0.0286 -0.7439
  250MOL0     H33715   8.833   2.419   5.088 -0.0420 -0.1361 -0.0124
  250MOL0     H33716   8.553   2.331   4.984 -0.1788 -0.9077  0.7456
  250MOL0     H33717   8.660   2.262   5.104  0.6717  0.5980 -1.9472
  250MOL0     H33718   8.618   2.468   5.240 -1.2475 -0.8785  1.1726
  250MOL0     H33719   8.549   2.554   5.106 -2.7560 -0.5557 -0.9513
  250MOL0     H33720   8.402   2.395   5.306  0.1384 -2.2372  0.2365
  250MOL0     H33721   8.427   2.279   5.185  2.3025  0.3445  0.0139
  250MOL0     H33722   8.228   2.394   5.111  0.6142 -0.0451  0.3723
  250MOL0     H33723   8.343   2.471   5.015  2.2205 -3.7628 -0.1385
  250MOL0     H33724   8.219   2.562   5.269  0.7140  0.3485  0.4841
  250MOL0     H33725   8.359   2.647   5.185  2.5162 -3.7852 -2.3557
  250MOL0     H33726   8.206   2.695   4.995  0.3055 -3.7975 -1.0751
  250MOL0     H33727   8.122   2.750   5.140  1.3726 -1.4931  3.4760
  250MOL0     H33728   8.053   2.484   5.015 -0.8190  0.5006  0.7631
  250MOL0     H33729   7.979   2.556   5.149  0.6424 -3.0804 -1.1904
  250MOL0     H33730   8.638   2.393   4.766 -0.1668  0.9199  0.0683
  250MOL0     H33731   8.662   2.398   4.526 -2.4697  2.4640 -2.0984
  250MOL0     H33732   9.125   2.408   4.196 -0.8239 -1.0985  0.1744
  250MOL0     H33733   9.115   2.359   3.954 -1.6003  0.6705 -3.5841
  250MOL0     H33734  10.363   2.585   4.195 -2.1868  0.3795 -0.6253
  250MOL0     H33735  10.567   2.510   4.357  0.0698  3.6215 -2.5064
  250MOL0     H33736  10.568   2.271   4.965 -1.4256  0.6645 -0.7965
  250MOL0     H33737  10.738   2.120   5.046 -3.6588 -2.6236 -0.9401
  250MOL0     H33738  11.106   2.086   4.866 -0.8511  0.5460 -1.3079
  250MOL0     H33739  11.042   1.925   4.799 -0.8428 -0.9997  0.5870
  250MOL0     H33740  11.201   1.867   4.931 -0.9729  2.1906 -2.2767
  250MOL0     H33741  11.052   1.812   5.013 -0.6426 -0.6380 -1.5547
  250MOL0     H33742  11.085   2.029   5.155  0.4754  0.2980 -1.1376
  250MOL0     H33743  11.252   2.025   5.098 -1.8287  1.0596 -0.7110
  250MOL0     H33744  11.119   1.784   5.212  0.9669 -1.4953 -2.2939
  250MOL0     H33745  11.295   1.824   5.180 -0.4080  1.9639 -1.4360
  250MOL0     H33746  11.255   1.996   5.560 -2.3574 -0.7884  0.7156
  250MOL0     H33747  10.926   2.120   4.662  1.1339 -2.5106  2.8873
  250MOL0     H33748  10.788   2.154   4.465  0.0037  0.8305 -0.5564
  250MOL0     H33749  10.634   2.237   4.492 -0.6940  2.3581  2.3979
  250MOL0     H33750  10.789   2.320   4.478  2.3560 -0.3987  0.7092
  251MOL0     O33751   3.324   5.150   5.917 -0.6796 -0.0670 -0.3466
  251MOL0     C33752   3.441   5.146   5.960 -0.6809  0.1609 -0.7295
  251MOL0     O33753   3.536   5.054   5.915 -0.8008 -0.3420 -0.6271
  251MOL0     C33754   3.507   4.968   5.812  0.0434 -0.3457  0.8279
  251MOL0     C33755   3.509   4.833   5.843  0.0309 -0.5607  0.4232
  251MOL0     C33756   3.489   4.740   5.756  1.0023  0.4451 -0.2507
  251MOL0     C33757   3.457   4.770   5.614  0.9118  0.0297  0.0158
  251MOL0     O33758   3.434   4.675   5.515  0.5028 -0.6949  0.2653
  251MOL0     C33759   3.488   4.543   5.540  0.2801 -0.7143  0.7331
  251MOL0     C33760   3.387   4.449   5.621  0.2246 -0.0994  1.2814
  251MOL0     C33761   3.268   4.417   5.539  0.0655  1.1615 -0.3259
  251MOL0     C33762   3.184   4.313   5.616  0.7451 -0.5589  0.1390
  251MOL0     C33763   3.240   4.171   5.605  0.7543 -0.1032 -0.3075
  251MOL0     C33764   3.130   4.073   5.649  0.7095  0.5410 -0.5686
  251MOL0     C33765   3.190   3.932   5.655  0.1921 -1.5705 -0.1069
  251MOL0     C33766   3.149   3.859   5.781  0.0240  0.1277  0.5225
  251MOL0     N33767   3.223   3.731   5.773  0.0163  0.0094 -0.5988
  251MOL0     C33768   3.214   3.637   5.668  0.0351 -0.5287  0.3855
  251MOL0     C33769   3.278   3.522   5.715  0.3901  0.9216 -0.0046
  251MOL0     C33770   3.280   3.385   5.654 -0.7490  0.7857  0.1717
  251MOL0     C33771   3.404   3.381   5.544 -0.7309  1.2560 -1.1117
  251MOL0     C33772   3.415   3.244   5.475 -0.6578 -0.0320 -0.4889
  251MOL0     C33773   3.538   3.244   5.384  0.4345  0.2339 -0.1446
  251MOL0     O33774   3.513   3.326   5.269 -0.4849  0.5474 -0.5441
  251MOL0     C33775   3.572   3.289   5.153 -0.4212  1.1341  0.6269
  251MOL0     C33776   3.715   3.262   5.144  0.7767  0.7871 -0.2611
  251MOL0     C33777   3.766   3.213   5.026  0.2263  0.1693 -0.0163
  251MOL0     C33778   3.689   3.206   4.910 -0.8403 -0.3882 -0.6604
  251MOL0     C33779   3.751   3.171   4.785 -0.9875  0.1569 -0.5835
  251MOL0     O33780   3.707   3.233   4.677  0.5980  0.5321 -0.4621
  251MOL0     C33781   3.719   3.178   4.550 -0.3076 -0.2292 -0.4758
  251MOL0     C33782   3.761   3.046   4.522  0.3429 -0.5914  0.2299
  251MOL0     C33783   3.745   2.993   4.395 -0.0911  0.1586  0.1607
  251MOL0     C33784   3.694   3.072   4.290  0.1455  0.4010  0.6377
  251MOL0     O33785   3.697   3.026   4.164  0.3331 -0.5219  0.1376
  251MOL0     C33786   3.607   2.913   4.152  0.0710  0.4008 -0.2485
  251MOL0     C33787   3.464   2.942   4.088 -0.5844 -0.0098 -0.2903
  251MOL0     C33788   3.383   3.057   4.148  0.1927 -0.4286  0.2518
  251MOL0     C33789   3.239   3.064   4.082 -0.5922  0.7527  0.5994
  251MOL0     C33790   3.174   3.193   4.138 -0.1805  0.7195 -0.5537
  251MOL0     C33791   3.089   3.263   4.025 -0.0268 -0.8595 -0.8092
  251MOL0     C33792   2.986   3.173   3.961  0.3300  0.7275  0.4917
  251MOL0     C33793   2.913   3.237   3.842 -0.8920  0.0666  0.2325
  251MOL0    Cl33794   3.033   3.344   3.743 -0.2646 -0.2535  0.5493
  251MOL0     C33795   3.658   3.205   4.317  0.0540 -0.5141  0.0782
  251MOL0     C33796   3.678   3.257   4.440  0.0501 -0.0397 -0.1981
  251MOL0     O33797   3.855   3.094   4.787 -0.1153 -0.3781 -0.2680
  251MOL0     C33798   3.547   3.227   4.920 -0.2746 -1.5190  0.4803
  251MOL0     C33799   3.498   3.275   5.038 -0.2565  0.5628 -0.3523
  251MOL0     N33800   3.330   3.558   5.839 -1.0697  0.7200  0.1408
  251MOL0     N33801   3.304   3.681   5.868  0.0840  0.1061 -0.0685
  251MOL0     C33802   3.452   4.908   5.585 -0.4864  0.3750  0.2684
  251MOL0     C33803   3.488   5.003   5.677  0.4085 -0.0538  0.4493
  251MOL0     C33804   3.475   5.236   6.063  0.6009  0.2897 -0.7076
  251MOL0     C33805   3.373   5.285   6.146  0.1480 -0.1630 -1.1093
  251MOL0     C33806   3.394   5.381   6.240  0.3720 -0.6667 -0.7250
  251MOL0     C33807   3.523   5.426   6.260 -0.3394 -0.0361  0.0604
  251MOL0     O33808   3.527   5.520   6.357 -0.4112  0.5687  0.2898
  251MOL0     C33809   3.627   5.525   6.462  0.5247 -0.2741  0.1746
  251MOL0     C33810   3.560   5.578   6.595 -0.2082 -0.3767  0.1081
  251MOL0     C33811   3.516   5.719   6.581  0.2914  0.1145  0.0454
  251MOL0     C33812   3.386   5.761   6.498 -0.5423 -0.2979 -1.0649
  251MOL0     C33813   3.348   5.898   6.532 -0.0334 -0.3413 -0.4518
  251MOL0     C33814   3.319   6.016   6.550  0.3448 -0.0959  0.0804
  251MOL0     C33815   3.624   5.399   6.177  0.2453  0.1750 -0.0776
  251MOL0     C33816   3.602   5.304   6.077 -0.5419  0.4831  0.3543
  251MOL0     C33817   3.721   5.276   5.987  0.4897  0.6446 -0.0976
  251MOL0     H33818   3.534   4.817   5.947  0.4281  1.8537  0.7660
  251MOL0     H33819   3.495   4.639   5.796  2.7666  1.1138  1.3414
  251MOL0     H33820   3.519   4.498   5.445 -1.2516  0.6286 -0.4401
  251MOL0     H33821   3.583   4.554   5.594  0.5596 -0.9614  0.3060
  251MOL0     H33822   3.355   4.495   5.715  1.7642  0.1802  1.6986
  251MOL0     H33823   3.442   4.358   5.646 -0.0902 -0.5318  0.4166
  251MOL0     H33824   3.306   4.381   5.443 -2.9154 -2.1891 -0.4499
  251MOL0     H33825   3.211   4.508   5.520  2.9347  3.8265  2.5819
  251MOL0     H33826   3.183   4.340   5.722 -0.8508 -0.1223  0.0369
  251MOL0     H33827   3.081   4.313   5.577  0.0692  1.9211  1.7197
  251MOL0     H33828   3.262   4.130   5.506  0.9591 -0.5912 -0.0585
  251MOL0     H33829   3.333   4.166   5.662  0.0862 -2.4327  0.6862
  251MOL0     H33830   3.087   4.107   5.744  0.0326  2.2967 -1.4678
  251MOL0     H33831   3.049   4.066   5.576  0.9681  0.8627 -0.8882
  251MOL0     H33832   3.299   3.926   5.645  0.6541 -1.3372  3.3549
  251MOL0     H33833   3.144   3.882   5.570 -0.8916 -2.7600  1.1149
  251MOL0     H33834   3.168   3.909   5.877  2.9082 -2.9989  1.7488
  251MOL0     H33835   3.041   3.843   5.789 -0.7931  3.7741 -1.0385
  251MOL0     H33836   3.170   3.663   5.572 -1.0101  2.7038  1.5842
  251MOL0     H33837   3.290   3.312   5.735  0.4551  1.2868  0.4951
  251MOL0     H33838   3.189   3.368   5.595 -0.9686  0.9701  0.4588
  251MOL0     H33839   3.387   3.461   5.471 -2.7001  0.8925 -1.1053
  251MOL0     H33840   3.493   3.406   5.601 -1.4904  0.3628  0.5330
  251MOL0     H33841   3.332   3.222   5.408  0.3107 -2.4167 -1.0180
  251MOL0     H33842   3.427   3.158   5.542  0.8801 -0.4223 -1.2146
  251MOL0     H33843   3.557   3.141   5.352  0.5283  0.5846 -1.2500
  251MOL0     H33844   3.629   3.267   5.440  1.1592 -1.6215 -0.4672
  251MOL0     H33845   3.786   3.292   5.221 -1.3877 -0.3274  2.3071
  251MOL0     H33846   3.870   3.181   5.023 -0.0796 -0.9612  0.7906
  251MOL0     H33847   3.797   2.978   4.598 -0.9070 -1.4244  0.1144
  251MOL0     H33848   3.761   2.886   4.379 -0.6178  0.0305  0.4660
  251MOL0     H33849   3.652   2.835   4.089 -1.3999 -1.6421  1.0976
  251MOL0     H33850   3.576   2.864   4.244 -2.0174 -2.7854 -2.4300
  251MOL0     H33851   3.490   2.971   3.986  0.5067 -0.7593 -0.2439
  251MOL0     H33852   3.408   2.848   4.087 -1.7802  0.6826 -0.1274
  251MOL0     H33853   3.374   3.045   4.257  2.2083 -0.9953  0.3885
  251MOL0     H33854   3.436   3.151   4.130 -0.3610  0.1397  1.4371
  251MOL0     H33855   3.185   2.973   4.110  2.9082 -1.3128  1.2349
  251MOL0     H33856   3.250   3.077   3.974 -2.9931 -3.7539 -0.4509
  251MOL0     H33857   3.252   3.265   4.162  0.2964  0.5990 -1.6546
  251MOL0     H33858   3.116   3.182   4.230  1.5284 -0.2737  0.4539
  251MOL0     H33859   3.042   3.346   4.079  1.6417 -0.7294  0.5238
  251MOL0     H33860   3.158   3.306   3.952 -2.1757  0.7069 -2.0487
  251MOL0     H33861   2.916   3.145   4.040 -0.2555  4.2428  1.3959
  251MOL0     H33862   3.028   3.081   3.919 -1.2985  0.1169  0.1317
  251MOL0     H33863   2.854   3.177   3.772 -0.9384  0.7082 -0.2785
  251MOL0     H33864   2.840   3.301   3.893  2.1717  2.6381  1.7920
  251MOL0     H33865   3.623   3.259   4.230 -1.0902 -1.1294  0.1453
  251MOL0     H33866   3.631   3.354   4.456  0.0498  0.1113 -1.0639
  251MOL0     H33867   3.475   3.209   4.841 -0.7703 -1.0716  0.8173
  251MOL0     H33868   3.392   3.296   5.038 -0.5564 -0.2520  3.7533
  251MOL0     H33869   3.416   4.918   5.484 -1.5660 -5.1390 -0.1817
  251MOL0     H33870   3.503   5.108   5.656  3.0984 -0.1630  1.4647
  251MOL0     H33871   3.274   5.241   6.140 -1.0329  1.6463  2.3936
  251MOL0     H33872   3.315   5.413   6.307  0.9406 -0.8035  0.0320
  251MOL0     H33873   3.716   5.581   6.432  2.1546 -2.6704  0.2431
  251MOL0     H33874   3.663   5.423   6.483 -1.1978 -1.3488 -1.7418
  251MOL0     H33875   3.632   5.581   6.677  2.9505  4.8092 -2.2983
  251MOL0     H33876   3.471   5.524   6.627 -0.2135 -1.2820 -1.3769
  251MOL0     H33877   3.605   5.769   6.540  0.5270  1.1349  1.7140
  251MOL0     H33878   3.499   5.751   6.684 -2.8768  0.8214 -0.6090
  251MOL0     H33879   3.400   5.760   6.390  0.3406 -0.2590 -0.9595
  251MOL0     H33880   3.304   5.692   6.519 -0.6569 -1.7349 -5.4455
  251MOL0     H33881   3.302   6.112   6.595  2.2355  0.2409  0.1562
  251MOL0     H33882   3.719   5.451   6.184  0.6384 -0.3684 -1.1586
  251MOL0     H33883   3.793   5.201   6.022  1.9944  2.8915  1.9198
  251MOL0     H33884   3.688   5.264   5.883 -0.6132  0.8734  0.2155
  251MOL0     H33885   3.787   5.363   5.984  2.7461 -0.9957 -1.4947
  252MOL0     O33886   0.441   3.047  11.060 -0.3835 -0.2704  0.2697
  252MOL0     C33887   0.321   3.078  11.075 -0.4241  0.0674  0.7371
  252MOL0     O33888   0.230   3.050  10.977  0.3034  0.2631  0.3264
  252MOL0     C33889   0.276   2.991  10.858  0.2733 -0.8032  0.1485
  252MOL0     C33890   0.292   2.856  10.829  0.0429 -0.1810 -0.4466
  252MOL0     C33891   0.333   2.814  10.702 -0.9936 -0.3987 -0.6560
  252MOL0     C33892   0.366   2.910  10.606 -0.5291  1.4298  0.7364
  252MOL0     O33893   0.419   2.880  10.481 -0.0214 -0.1917 -0.5290
  252MOL0     C33894   0.325   2.858  10.385  0.9511 -0.0082 -0.6834
  252MOL0     C33895   0.382   2.835  10.237  0.1641 -0.0471  0.6523
  252MOL0     C33896   0.282   2.769  10.137 -0.3361 -0.3168 -0.2972
  252MOL0     C33897   0.149   2.837  10.132 -0.0007 -0.3492 -0.3954
  252MOL0     C33898   0.055   2.797  10.018  0.2068  1.2276  0.3100
  252MOL0     C33899  -0.014   2.654  10.042  0.3227 -1.2116 -0.3511
  252MOL0     C33900  -0.090   2.602   9.917  0.3519  0.7403  0.3218
  252MOL0     C33901  -0.212   2.669   9.879  0.5040  0.1057  0.7041
  252MOL0     N33902  -0.289   2.596   9.772 -0.4537  0.6644 -0.1669
  252MOL0     C33903  -0.253   2.571   9.648  0.9706  0.5271  1.0357
  252MOL0     C33904  -0.364   2.519   9.587 -0.3264 -0.5389 -0.0963
  252MOL0     C33905  -0.375   2.473   9.452 -0.0644  0.3649  0.5423
  252MOL0     C33906  -0.263   2.385   9.395 -0.1007  0.4346  0.4874
  252MOL0     C33907  -0.150   2.474   9.357 -0.9268  0.6065  0.3478
  252MOL0     C33908  -0.053   2.399   9.261 -0.8172 -0.3892 -0.5918
  252MOL0     O33909  -0.100   2.412   9.125 -0.3452 -0.6271  0.8468
  252MOL0     C33910  -0.016   2.374   9.022 -1.0946 -0.2008  0.2287
  252MOL0     C33911  -0.036   2.420   8.895  0.8068  0.1902  1.0038
  252MOL0     C33912   0.046   2.378   8.784  0.4414 -0.4443 -0.1784
  252MOL0     C33913   0.140   2.280   8.803  0.2543 -0.6184  0.8282
  252MOL0     C33914   0.211   2.229   8.690 -0.5574 -0.1184  0.6921
  252MOL0     O33915   0.133   2.195   8.586  0.9685 -0.4160 -0.0589
  252MOL0     C33916   0.183   2.140   8.475 -1.1481  0.1184 -0.0770
  252MOL0     C33917   0.179   2.219   8.359  0.4569 -0.4390 -0.1603
  252MOL0     C33918   0.238   2.166   8.246 -0.4650  1.6391 -0.1672
  252MOL0     C33919   0.296   2.037   8.236 -0.6714  1.2729 -0.3741
  252MOL0     O33920   0.356   1.999   8.116  0.6448  0.1352  0.3419
  252MOL0     C33921   0.438   1.882   8.109  0.1510 -0.0376  0.0586
  252MOL0     C33922   0.480   1.865   7.967  0.3597  0.0325  0.1779
  252MOL0     C33923   0.586   1.752   7.946 -0.2467 -0.2099 -0.2639
  252MOL0     C33924   0.727   1.807   7.956 -0.3368 -0.2369 -0.9185
  252MOL0     C33925   0.759   1.883   7.835  0.0644 -1.0223  0.1518
  252MOL0     C33926   0.916   1.920   7.824  0.3562  0.6218 -0.0265
  252MOL0     C33927   0.973   2.002   7.953 -0.3513  0.0955 -0.0314
  252MOL0     C33928   1.124   1.996   7.977 -0.7812 -0.1831 -0.3899
  252MOL0    Cl33929   1.228   2.086   7.852  0.0268  0.0928  0.1102
  252MOL0     C33930   0.279   1.956   8.355 -0.3082  0.9505  0.2398
  252MOL0     C33931   0.230   2.007   8.475 -0.1275 -0.4322 -0.0935
  252MOL0     O33932   0.332   2.221   8.692  0.1288 -0.3627 -0.7147
  252MOL0     C33933   0.166   2.238   8.937 -0.4510  0.1318 -1.4425
  252MOL0     C33934   0.091   2.278   9.046  1.5547 -0.3052 -1.1944
  252MOL0     N33935  -0.454   2.498   9.685 -0.1859  0.0737 -0.8658
  252MOL0     N33936  -0.408   2.536   9.795 -0.3682  0.3591 -0.4154
  252MOL0     C33937   0.335   3.040  10.624 -0.4408 -0.6276 -1.2417
  252MOL0     C33938   0.296   3.084  10.750 -0.3521 -0.1919 -0.2496
  252MOL0     C33939   0.295   3.163  11.197 -0.6681  1.1354 -0.3192
  252MOL0     C33940   0.389   3.172  11.302 -0.7073  0.3470 -0.5215
  252MOL0     C33941   0.363   3.243  11.419 -1.5272 -0.1101  0.5746
  252MOL0     C33942   0.252   3.327  11.429 -0.1395  0.2160  0.4296
  252MOL0     O33943   0.251   3.398  11.542  0.1826  0.2804 -0.5853
  252MOL0     C33944   0.123   3.456  11.567 -1.0781  0.4907  0.0017
  252MOL0     C33945   0.132   3.526  11.693  0.5056 -1.2070  0.6790
  252MOL0     C33946   0.199   3.437  11.799  0.5124 -0.1990  0.2667
  252MOL0     C33947   0.237   3.514  11.914  0.1833 -0.1743  0.4130
  252MOL0     C33948   0.121   3.536  12.001 -0.3762  0.2432 -0.2247
  252MOL0     C33949   0.028   3.555  12.080 -0.3744  0.5747 -0.7989
  252MOL0     C33950   0.156   3.323  11.329 -0.0861  1.0417  0.3940
  252MOL0     C33951   0.177   3.229  11.216 -0.3359 -0.0213 -0.1091
  252MOL0     C33952   0.077   3.222  11.116  0.2160 -0.1676 -0.2673
  252MOL0     H33953   0.266   2.793  10.914 -1.3599  3.2594  1.9102
  252MOL0     H33954   0.326   2.707  10.689 -4.5116  0.0162 -3.9787
  252MOL0     H33955   0.269   2.765  10.397 -1.0474  0.7170 -3.2254
  252MOL0     H33956   0.251   2.938  10.372 -0.0885 -0.5903  1.3116
  252MOL0     H33957   0.462   2.760  10.236 -0.4011 -0.6784 -1.4746
  252MOL0     H33958   0.414   2.933  10.200 -1.6702  0.3667  0.0401
  252MOL0     H33959   0.272   2.662  10.155 -4.5140  0.0186  0.2651
  252MOL0     H33960   0.330   2.785  10.040  0.9215  2.7171  0.6971
  252MOL0     H33961   0.106   2.841  10.232  0.0586 -1.5224 -0.3048
  252MOL0     H33962   0.179   2.939  10.106  0.0695 -0.1439  0.4726
  252MOL0     H33963  -0.021   2.874  10.003  0.4596  1.9048  2.2664
  252MOL0     H33964   0.111   2.793   9.925  3.0967  0.3510  1.9566
  252MOL0     H33965   0.068   2.582  10.041  2.5502  1.1797 -2.2882
  252MOL0     H33966  -0.066   2.642  10.138  0.2374 -0.9039 -0.3578
  252MOL0     H33967  -0.099   2.493   9.925  0.9119  0.4988 -1.7771
  252MOL0     H33968  -0.018   2.605   9.835 -0.4120 -0.5391 -0.4148
  252MOL0     H33969  -0.274   2.685   9.968  1.9432 -0.7081  1.8754
  252MOL0     H33970  -0.190   2.771   9.844 -0.8054  0.1098 -0.1992
  252MOL0     H33971  -0.154   2.588   9.605  0.7328 -1.5385 -0.4992
  252MOL0     H33972  -0.464   2.410   9.440  0.3974 -0.2283  0.2329
  252MOL0     H33973  -0.394   2.566   9.398 -0.7593 -0.5772 -0.9092
  252MOL0     H33974  -0.236   2.298   9.455  0.9180 -1.3319 -2.2859
  252MOL0     H33975  -0.290   2.354   9.293  0.4325  1.9058 -0.1335
  252MOL0     H33976  -0.089   2.491   9.445  1.3499  1.2068 -1.2467
  252MOL0     H33977  -0.187   2.562   9.303  2.0368  1.7669 -0.0058
  252MOL0     H33978  -0.047   2.292   9.278  2.7398 -0.1232  0.6131
  252MOL0     H33979   0.045   2.447   9.272 -2.3893  2.4894  3.2755
  252MOL0     H33980  -0.117   2.491   8.879 -1.8088 -2.5430  1.2856
  252MOL0     H33981   0.019   2.423   8.689 -0.0562  0.4861  0.3853
  252MOL0     H33982   0.148   2.323   8.367  0.2405 -0.3887 -1.4819
  252MOL0     H33983   0.249   2.232   8.160 -1.6274  1.4369 -0.4786
  252MOL0     H33984   0.520   1.907   8.176 -1.2293  0.4502  1.6353
  252MOL0     H33985   0.411   1.781   8.140  1.9159 -0.7223 -0.5144
  252MOL0     H33986   0.393   1.844   7.905 -1.8893  3.7521  1.7393
  252MOL0     H33987   0.523   1.957   7.928 -0.1447  0.0875 -0.2552
  252MOL0     H33988   0.587   1.685   8.033  1.9807  0.6486  0.4513
  252MOL0     H33989   0.551   1.700   7.857 -1.3662 -1.8640  1.0742
  252MOL0     H33990   0.799   1.728   7.982  0.0254  0.2253 -0.5010
  252MOL0     H33991   0.733   1.877   8.039 -1.7926  0.0722 -1.0433
  252MOL0     H33992   0.695   1.971   7.827 -2.2629 -2.7527 -1.2562
  252MOL0     H33993   0.740   1.815   7.752  1.5062  0.9363 -1.9092
  252MOL0     H33994   0.973   1.828   7.803 -4.5910 -2.5185 -1.4740
  252MOL0     H33995   0.937   1.985   7.739  0.5602 -1.2233 -1.4412
  252MOL0     H33996   0.917   1.968   8.041 -1.7535  0.9051 -0.5759
  252MOL0     H33997   0.941   2.107   7.948  1.2136  0.5751 -0.5079
  252MOL0     H33998   1.146   2.024   8.080  1.6443 -2.3616 -0.2229
  252MOL0     H33999   1.157   1.892   7.978  2.2770  0.6840  0.8783
  252MOL0     H34000   0.297   1.849   8.350 -0.5916  0.9350 -0.5042
  252MOL0     H34001   0.241   1.957   8.571 -1.7464  1.6008  1.2686
  252MOL0     H34002   0.244   2.163   8.947 -0.8115 -0.5535 -3.3334
  252MOL0     H34003   0.115   2.243   9.146 -0.2604 -0.0516 -0.6513
  252MOL0     H34004   0.350   3.124  10.556 -1.6920  1.8340  1.3144
  252MOL0     H34005   0.279   3.191  10.755  3.5304  0.6014 -1.2005
  252MOL0     H34006   0.487   3.125  11.298 -0.4521  0.4594  2.2481
  252MOL0     H34007   0.443   3.230  11.491 -1.6324  0.7436  0.8523
  252MOL0     H34008   0.047   3.376  11.574 -1.1059  0.6463  1.8565
  252MOL0     H34009   0.105   3.520  11.480  3.3681 -0.3956 -1.8558
  252MOL0     H34010   0.031   3.559  11.715  0.0634 -1.8294 -0.3221
  252MOL0     H34011   0.199   3.610  11.672 -0.8412 -0.3635 -0.3762
  252MOL0     H34012   0.287   3.382  11.764 -0.0184 -2.2690  1.9608
  252MOL0     H34013   0.127   3.356  11.815  0.9413 -1.0327 -1.7371
  252MOL0     H34014   0.298   3.456  11.984 -0.7340 -1.3288  0.2830
  252MOL0     H34015   0.280   3.610  11.883 -2.8924  1.5022  0.9354
  252MOL0     H34016  -0.054   3.586  12.142  1.1591  3.7710 -0.1413
  252MOL0     H34017   0.068   3.386  11.324  0.3978  1.6678 -0.6470
  252MOL0     H34018   0.031   3.125  11.097  2.3058 -1.2443 -0.1838
  252MOL0     H34019  -0.011   3.276  11.152  1.3611  0.0168  2.5246
  252MOL0     H34020   0.101   3.259  11.016 -1.8358 -1.1360 -1.1556
  253MOL0     O34021   0.287   7.515   7.550 -0.3130  0.2772 -0.0784
  253MOL0     C34022   0.333   7.476   7.661  0.8486 -0.6423 -0.8946
  253MOL0     O34023   0.470   7.427   7.693 -0.1184 -0.4825  0.0877
  253MOL0     C34024   0.543   7.428   7.580 -0.1225 -0.1029  1.9517
  253MOL0     C34025   0.653   7.512   7.559  0.3632 -0.2583  0.1903
  253MOL0     C34026   0.730   7.496   7.440  0.2197 -0.6678  0.6058
  253MOL0     C34027   0.684   7.423   7.330  0.7599 -0.8830 -0.0797
  253MOL0     O34028   0.764   7.424   7.218  0.4346 -0.7033  0.4085
  253MOL0     C34029   0.721   7.346   7.100 -0.7712  0.0362 -0.4437
  253MOL0     C34030   0.758   7.197   7.122  0.1470 -0.5650 -0.5534
  253MOL0     C34031   0.898   7.177   7.070  0.7231  0.2476 -0.2400
  253MOL0     C34032   0.957   7.055   7.128 -0.5736 -0.3459  0.3198
  253MOL0     C34033   0.981   7.059   7.279  0.2958 -0.3175 -0.2995
  253MOL0     C34034   0.889   6.973   7.366 -0.6153 -0.1827  1.0533
  253MOL0     C34035   0.936   6.991   7.506 -0.3873  0.0573 -0.4578
  253MOL0     C34036   0.883   6.873   7.596 -0.0384 -0.0924  0.3013
  253MOL0     N34037   0.914   6.876   7.743 -0.1117 -0.3685  0.2334
  253MOL0     C34038   1.049   6.875   7.784 -0.4252 -0.0901  1.0787
  253MOL0     C34039   1.039   6.873   7.914 -0.7018  0.3940  0.6533
  253MOL0     C34040   1.145   6.881   8.017 -0.3812 -1.2702 -0.0967
  253MOL0     C34041   1.193   6.745   8.051 -0.3362 -0.7048  0.2753
  253MOL0     C34042   1.278   6.761   8.161  0.7108  0.6741 -0.7993
  253MOL0     C34043   1.304   6.630   8.239 -0.3202 -0.4835  0.1135
  253MOL0     O34044   1.207   6.591   8.331  0.5796  0.4608 -1.0382
  253MOL0     C34045   1.217   6.459   8.363 -0.0352  0.0833 -0.0013
  253MOL0     C34046   1.334   6.400   8.411  0.5162  0.4108  0.3679
  253MOL0     C34047   1.350   6.266   8.419 -0.5571  0.1983 -0.7560
  253MOL0     C34048   1.254   6.182   8.365  0.3246 -0.2261  0.4669
  253MOL0     C34049   1.278   6.033   8.364 -0.9121 -0.3493 -0.6004
  253MOL0     O34050   1.348   5.988   8.470 -0.3941 -0.3420 -0.5045
  253MOL0     C34051   1.404   5.865   8.473  0.8834 -0.4002 -0.0526
  253MOL0     C34052   1.544   5.835   8.468 -0.8212  0.5130  0.0755
  253MOL0     C34053   1.598   5.707   8.478 -0.2282  0.9274  0.0253
  253MOL0     C34054   1.502   5.602   8.498 -0.1055  0.2945  0.5276
  253MOL0     O34055   1.555   5.475   8.525 -0.1523 -0.0437  0.2939
  253MOL0     C34056   1.498   5.364   8.483  0.9788  0.5936 -1.0514
  253MOL0     C34057   1.605   5.267   8.425  0.1911  0.4743  0.6370
  253MOL0     C34058   1.530   5.146   8.371 -0.0772 -0.6709 -0.3231
  253MOL0     C34059   1.623   5.059   8.286 -0.8337 -0.1107 -0.5691
  253MOL0     C34060   1.558   4.934   8.238 -0.3888  0.1882  0.0782
  253MOL0     C34061   1.650   4.836   8.152  0.2970 -0.5855 -0.3377
  253MOL0     C34062   1.578   4.707   8.120 -0.7761  0.1309  0.4359
  253MOL0     C34063   1.673   4.596   8.067 -0.1749 -0.4909 -0.1386
  253MOL0    Cl34064   1.721   4.643   7.904 -0.0703 -0.5259 -0.0411
  253MOL0     C34065   1.364   5.632   8.521  0.1792  0.6122  0.0493
  253MOL0     C34066   1.309   5.760   8.513 -0.5008 -0.2943  0.1496
  253MOL0     O34067   1.237   5.969   8.272  0.0824  0.2065 -0.0611
  253MOL0     C34068   1.134   6.234   8.318  0.4200 -0.5437  0.0278
  253MOL0     C34069   1.116   6.375   8.310 -0.5007 -0.2510 -0.0292
  253MOL0     N34070   0.909   6.871   7.943  0.0815  0.5761  0.1283
  253MOL0     N34071   0.827   6.863   7.842  0.5553 -0.2952 -0.7597
  253MOL0     C34072   0.573   7.344   7.350 -0.5161 -0.1793  0.3165
  253MOL0     C34073   0.499   7.351   7.465 -0.8464  0.3202  0.2297
  253MOL0     C34074   0.226   7.454   7.768 -0.1420 -1.0111  0.0004
  253MOL0     C34075   0.132   7.551   7.788  0.0322  0.1261  0.1900
  253MOL0     C34076   0.041   7.552   7.893  0.0861  0.4072  0.3509
  253MOL0     C34077   0.036   7.432   7.978 -0.2690 -0.3971 -0.3588
  253MOL0     O34078  -0.041   7.412   8.086 -0.1386  0.2504  0.1499
  253MOL0     C34079  -0.141   7.504   8.117 -0.3148 -0.1249  0.0944
  253MOL0     C34080  -0.219   7.457   8.226  0.0866 -0.1614  1.1385
  253MOL0     C34081  -0.134   7.428   8.352  0.3151 -0.2438  0.2006
  253MOL0     C34082  -0.125   7.551   8.449 -0.0584 -1.0916  0.4726
  253MOL0     C34083   0.001   7.565   8.528  0.4831 -0.0612  0.0257
  253MOL0     C34084   0.108   7.562   8.592  0.6282  0.2675 -0.0667
  253MOL0     C34085   0.121   7.329   7.947  0.3997  0.0882 -0.2508
  253MOL0     C34086   0.225   7.338   7.851 -0.0175  0.5692  0.1671
  253MOL0     C34087   0.309   7.214   7.824 -0.7424  0.7517  0.1806
  253MOL0     H34088   0.699   7.572   7.637  6.6951  0.0269 -3.1282
  253MOL0     H34089   0.822   7.549   7.416 -1.3280  0.6099 -3.1666
  253MOL0     H34090   0.613   7.364   7.094 -0.5828  1.6153  0.3022
  253MOL0     H34091   0.761   7.374   7.002 -0.0308 -2.9757 -1.0932
  253MOL0     H34092   0.683   7.132   7.076 -3.0316  1.7361  0.9604
  253MOL0     H34093   0.743   7.168   7.227 -1.2413  0.9926 -0.2859
  253MOL0     H34094   0.964   7.262   7.090 -0.3480  0.4794  3.0713
  253MOL0     H34095   0.889   7.158   6.963  0.5341  2.5538 -0.6827
  253MOL0     H34096   0.878   6.982   7.107  0.2201 -1.0957 -0.1275
  253MOL0     H34097   1.053   7.023   7.088  0.7652  1.0544  2.2599
  253MOL0     H34098   1.085   7.030   7.296  1.9176  4.0561 -1.3883
  253MOL0     H34099   0.989   7.161   7.319  0.6042 -0.5236  0.1721
  253MOL0     H34100   0.791   7.019   7.381 -1.0165 -0.6028 -0.1601
  253MOL0     H34101   0.888   6.870   7.329  1.3792  0.1816 -0.1419
  253MOL0     H34102   0.893   7.081   7.549 -2.4931 -1.2125  0.2405
  253MOL0     H34103   1.042   7.012   7.525 -0.9205 -0.3269  3.7681
  253MOL0     H34104   0.774   6.871   7.586 -0.3465  2.3209  2.3221
  253MOL0     H34105   0.944   6.790   7.559  0.8575  1.1057 -1.0130
  253MOL0     H34106   1.144   6.876   7.731 -0.6137 -1.3330  0.6894
  253MOL0     H34107   1.223   6.935   7.964 -1.8441 -0.6152 -1.6871
  253MOL0     H34108   1.113   6.933   8.108 -2.8576 -3.0256  0.1472
  253MOL0     H34109   1.105   6.680   8.059 -0.3514 -1.1427 -2.4721
  253MOL0     H34110   1.253   6.703   7.969 -3.0425  0.4346 -2.5159
  253MOL0     H34111   1.243   6.843   8.224  4.1542  0.7356  1.2741
  253MOL0     H34112   1.368   6.804   8.117  0.4591  1.1093 -0.8962
  253MOL0     H34113   1.387   6.661   8.303 -1.4176  2.4972  0.2459
  253MOL0     H34114   1.335   6.556   8.165 -0.1737 -0.8149  0.5023
  253MOL0     H34115   1.409   6.474   8.440  1.4926 -1.2866  2.5343
  253MOL0     H34116   1.444   6.236   8.466 -0.3416  2.4216  0.4044
  253MOL0     H34117   1.619   5.909   8.442  1.6361 -2.9651 -4.0003
  253MOL0     H34118   1.705   5.696   8.465 -0.7460 -1.9319 -3.5923
  253MOL0     H34119   1.452   5.330   8.576 -2.5047  1.8537 -2.1295
  253MOL0     H34120   1.424   5.397   8.409 -1.1498  0.3994  0.8747
  253MOL0     H34121   1.661   5.316   8.346  0.6079  1.5546  1.5812
  253MOL0     H34122   1.671   5.230   8.504  2.9548  0.1667 -1.6751
  253MOL0     H34123   1.493   5.091   8.458 -1.4374  0.0429 -0.4156
  253MOL0     H34124   1.441   5.173   8.315  0.4547  0.7350 -0.5332
  253MOL0     H34125   1.705   5.020   8.347 -2.8962 -0.9741  1.8238
  253MOL0     H34126   1.670   5.120   8.208 -1.5016 -0.2787 -1.1116
  253MOL0     H34127   1.467   4.961   8.183 -0.5860  6.2471  2.5929
  253MOL0     H34128   1.531   4.874   8.325 -0.0451  0.9191  0.7034
  253MOL0     H34129   1.679   4.888   8.060 -1.8180  1.5417  0.1041
  253MOL0     H34130   1.738   4.821   8.215  0.5034  1.4340 -0.0917
  253MOL0     H34131   1.496   4.731   8.052  1.1746  0.5323 -1.9081
  253MOL0     H34132   1.525   4.685   8.213  0.1133  1.3775  1.2665
  253MOL0     H34133   1.758   4.569   8.130 -3.1796 -4.2341  2.7885
  253MOL0     H34134   1.629   4.496   8.063 -3.4561  0.8297 -0.9922
  253MOL0     H34135   1.312   5.543   8.553  4.1114 -1.4108  1.4523
  253MOL0     H34136   1.204   5.782   8.530  0.5056  4.7870  1.4753
  253MOL0     H34137   1.053   6.172   8.282 -0.7089  1.7408 -1.6460
  253MOL0     H34138   1.024   6.414   8.267 -1.0456  0.3943  1.6479
  253MOL0     H34139   0.533   7.277   7.275 -3.7158 -0.5485  2.1450
  253MOL0     H34140   0.403   7.302   7.475 -2.9877  4.0527 -0.0779
  253MOL0     H34141   0.142   7.643   7.731  0.5887  0.9141  1.5159
  253MOL0     H34142  -0.011   7.642   7.924  0.2469  1.0003 -1.0628
  253MOL0     H34143  -0.209   7.508   8.032  0.4961 -1.7082 -0.6812
  253MOL0     H34144  -0.096   7.602   8.137 -0.2631 -0.1172 -0.0602
  253MOL0     H34145  -0.256   7.359   8.194 -1.4328  1.3854 -2.3627
  253MOL0     H34146  -0.302   7.524   8.251  0.8684  1.0693  0.5061
  253MOL0     H34147  -0.031   7.391   8.340  1.8912  2.8097  2.7926
  253MOL0     H34148  -0.184   7.342   8.398  0.7255  0.3401  1.8157
  253MOL0     H34149  -0.122   7.641   8.388 -0.1994  0.6322  2.8650
  253MOL0     H34150  -0.223   7.558   8.499 -0.5791 -1.5113 -0.4568
  253MOL0     H34151   0.197   7.561   8.651 -0.3856 -0.2238  1.5045
  253MOL0     H34152   0.106   7.243   8.012 -0.7107  0.4584  0.0150
  253MOL0     H34153   0.337   7.227   7.719  1.8258  0.6118  0.7817
  253MOL0     H34154   0.412   7.222   7.861  0.3637  2.0703 -2.8761
  253MOL0     H34155   0.267   7.115   7.845  1.4015  0.0714  1.6462
  254MOL0     O34156   3.417   0.412   9.287  0.7904  0.0367  0.1625
  254MOL0     C34157   3.450   0.303   9.310 -0.3899  0.7753 -0.1346
  254MOL0     O34158   3.403   0.229   9.418  0.1091 -0.0254 -0.4163
  254MOL0     C34159   3.334   0.292   9.517  0.7193 -0.5594 -1.1434
  254MOL0     C34160   3.207   0.245   9.540 -0.3387  0.3237  1.1115
  254MOL0     C34161   3.126   0.297   9.638 -0.1404 -0.0020 -0.3146
  254MOL0     C34162   3.176   0.394   9.724 -0.5540  0.6745  0.1649
  254MOL0     O34163   3.086   0.434   9.811  0.6174 -0.5072 -0.5034
  254MOL0     C34164   3.131   0.472   9.941 -0.5953 -0.4822 -0.1395
  254MOL0     C34165   3.050   0.390  10.045 -0.3562 -0.7564 -0.1537
  254MOL0     C34166   3.099   0.402  10.189  0.1784 -0.5568 -0.3931
  254MOL0     C34167   3.014   0.303  10.266 -0.8692  1.5534  0.1084
  254MOL0     C34168   3.032   0.315  10.413  0.1040  0.2668  0.8969
  254MOL0     C34169   3.179   0.279  10.440  0.0283 -0.6249 -0.7969
  254MOL0     C34170   3.211   0.293  10.595  0.0570  0.1935  0.5196
  254MOL0     C34171   3.225   0.442  10.641  0.7976 -1.7191  0.1826
  254MOL0     N34172   3.317   0.522  10.559  0.1830 -0.4389 -0.3751
  254MOL0     C34173   3.451   0.524  10.566 -0.2935 -0.4638 -0.2016
  254MOL0     C34174   3.494   0.592  10.458 -0.3409  0.5573 -0.5137
  254MOL0     C34175   3.629   0.597  10.426 -0.4327 -0.3356 -0.2537
  254MOL0     C34176   3.670   0.729  10.359  0.3285 -0.7635  0.3813
  254MOL0     C34177   3.826   0.742  10.335 -0.8034  0.1462  0.1437
  254MOL0     C34178   3.851   0.870  10.254 -0.4181  0.7506 -1.2100
  254MOL0     O34179   3.988   0.911  10.266 -0.4400  0.5077  0.2609
  254MOL0     C34180   4.068   0.904  10.152  0.4286  0.4879  0.6385
  254MOL0     C34181   4.028   0.817  10.040  0.4509 -0.7299 -1.0327
  254MOL0     C34182   4.113   0.800   9.934  0.8173 -0.5242  0.8425
  254MOL0     C34183   4.239   0.869   9.923  0.5837 -0.0114 -1.2501
  254MOL0     C34184   4.338   0.832   9.813 -0.3105 -0.1378 -0.2042
  254MOL0     O34185   4.293   0.750   9.712 -0.7349 -0.0358  0.0360
  254MOL0     C34186   4.384   0.691   9.627  0.7981 -0.5909 -0.8156
  254MOL0     C34187   4.453   0.571   9.667  1.0692 -0.3881  0.9772
  254MOL0     C34188   4.514   0.491   9.575 -0.5228 -0.3649  0.5181
  254MOL0     C34189   4.502   0.519   9.439 -0.8492  0.0577  0.0398
  254MOL0     O34190   4.550   0.430   9.356  0.1944 -0.8107  0.2047
  254MOL0     C34191   4.600   0.473   9.236 -0.0544 -0.5611  1.5512
  254MOL0     C34192   4.637   0.341   9.169  0.0473  0.4754  0.3614
  254MOL0     C34193   4.529   0.248   9.131  0.4154 -0.3148 -0.0797
  254MOL0     C34194   4.591   0.127   9.052  0.3481  0.5551  0.2425
  254MOL0     C34195   4.489   0.013   9.022  1.2759  0.0764 -0.2122
  254MOL0     C34196   4.526  -0.098   8.932 -0.0515  0.4031  0.4499
  254MOL0     C34197   4.631  -0.204   8.978  0.0468 -0.0815  0.2976
  254MOL0     C34198   4.553  -0.331   9.032  0.7915  0.2319  0.6499
  254MOL0    Cl34199   4.469  -0.430   8.902  0.3274 -0.0530  0.0422
  254MOL0     C34200   4.447   0.640   9.399 -0.0340 -0.4506  0.1141
  254MOL0     C34201   4.375   0.715   9.487  0.2531 -0.2403  0.0735
  254MOL0     O34202   4.461   0.867   9.834 -0.4339  0.2201  0.0975
  254MOL0     C34203   4.276   0.960  10.024  0.5471 -0.3749 -1.3893
  254MOL0     C34204   4.192   0.976  10.137 -0.1593 -0.1654 -0.0502
  254MOL0     N34205   3.393   0.639  10.383  0.9125  0.1341 -0.3030
  254MOL0     N34206   3.285   0.603  10.456 -1.0386 -0.0899 -0.8796
  254MOL0     C34207   3.310   0.444   9.715 -0.4995 -1.0500 -0.0413
  254MOL0     C34208   3.391   0.384   9.612 -0.6444  0.5365 -0.1180
  254MOL0     C34209   3.540   0.232   9.217  0.0311  0.3749 -0.8695
  254MOL0     C34210   3.638   0.150   9.276  0.0436  0.0926 -0.4833
  254MOL0     C34211   3.750   0.110   9.213 -0.5864 -0.7118  0.7671
  254MOL0     C34212   3.764   0.141   9.077 -0.1979  0.6746 -0.0743
  254MOL0     O34213   3.870   0.119   8.987  1.0491 -0.3060 -0.1838
  254MOL0     C34214   4.001   0.110   9.042 -0.0118 -0.9443  0.5549
  254MOL0     C34215   4.075   0.237   9.050  0.5748  0.1110  0.4190
  254MOL0     C34216   4.102   0.286   8.912 -0.7864 -0.0681  0.0457
  254MOL0     C34217   4.224   0.375   8.903 -0.1145  0.3475 -0.3971
  254MOL0     C34218   4.215   0.484   8.999  0.1133  0.7584 -1.7447
  254MOL0     C34219   4.226   0.556   9.099 -0.3828  0.3180 -0.4955
  254MOL0     C34220   3.653   0.191   9.014 -0.5954 -0.2954 -0.0525
  254MOL0     C34221   3.544   0.241   9.078 -0.0171  0.1429 -1.2131
  254MOL0     C34222   3.439   0.320   9.008  0.2683 -0.6434 -0.2676
  254MOL0     H34223   3.172   0.172   9.468  2.0854  0.9031 -0.7962
  254MOL0     H34224   3.025   0.257   9.648 -1.4642  2.7220 -1.7976
  254MOL0     H34225   3.239   0.463   9.958 -0.5735 -0.3765 -0.2272
  254MOL0     H34226   3.101   0.577   9.945 -3.7393 -1.3143  1.5843
  254MOL0     H34227   3.055   0.285  10.014 -1.4571 -0.6836 -0.6471
  254MOL0     H34228   2.944   0.413  10.029 -0.5338 -1.6092 -0.2398
  254MOL0     H34229   3.078   0.508  10.209 -2.6757 -0.6383 -2.2673
  254MOL0     H34230   3.205   0.378  10.183 -0.3499 -3.1576 -0.5542
  254MOL0     H34231   2.909   0.325  10.240 -0.2860  2.7705 -1.3612
  254MOL0     H34232   3.045   0.204  10.233  0.5309  1.4176  1.6995
  254MOL0     H34233   3.011   0.422  10.425 -0.5244  0.1352  0.9960
  254MOL0     H34234   2.960   0.248  10.459  1.3757 -0.7903  1.4177
  254MOL0     H34235   3.199   0.175  10.412 -2.1755 -1.4694  0.4804
  254MOL0     H34236   3.248   0.342  10.383  2.4938 -3.0824 -0.7335
  254MOL0     H34237   3.311   0.249  10.593  0.4043  0.9935 -1.1200
  254MOL0     H34238   3.144   0.236  10.660 -0.3511  1.2161  1.0182
  254MOL0     H34239   3.123   0.483  10.635  1.7688  1.2454  1.8760
  254MOL0     H34240   3.263   0.459  10.742  1.0392  1.8754 -0.3728
  254MOL0     H34241   3.512   0.482  10.645 -4.2392 -1.0316  2.8284
  254MOL0     H34242   3.687   0.583  10.517 -1.2774 -3.1365 -0.0435
  254MOL0     H34243   3.662   0.517  10.359  0.9248  0.0822 -0.1151
  254MOL0     H34244   3.621   0.730  10.262 -1.5663 -1.0898  1.2807
  254MOL0     H34245   3.635   0.818  10.413  0.9036  0.4688 -1.2139
  254MOL0     H34246   3.853   0.655  10.274 -0.9807  0.5661 -0.5410
  254MOL0     H34247   3.870   0.745  10.435  1.6762  1.5961 -0.8940
  254MOL0     H34248   3.798   0.955  10.299 -1.9916 -0.2653 -1.0815
  254MOL0     H34249   3.802   0.855  10.158 -5.1025 -0.7189  1.1276
  254MOL0     H34250   3.938   0.758  10.048 -2.2127  3.1095  0.2545
  254MOL0     H34251   4.081   0.740   9.849  2.1209 -0.7880  0.5115
  254MOL0     H34252   4.477   0.551   9.771  3.8652  1.1046  0.6914
  254MOL0     H34253   4.565   0.401   9.608  0.6508 -0.0426 -0.3538
  254MOL0     H34254   4.528   0.517   9.166 -1.1355  0.2793  3.1298
  254MOL0     H34255   4.691   0.527   9.261  0.0174 -0.4566  1.0856
  254MOL0     H34256   4.693   0.362   9.078  0.9639 -3.2501 -0.1277
  254MOL0     H34257   4.706   0.279   9.228 -0.0920  0.3075  0.3487
  254MOL0     H34258   4.499   0.219   9.232  2.2298  1.6526  1.1147
  254MOL0     H34259   4.451   0.300   9.075  1.9272 -1.4773 -3.5317
  254MOL0     H34260   4.677   0.095   9.112  1.0489  1.1529 -0.4306
  254MOL0     H34261   4.637   0.153   8.957  2.3361 -0.1960  0.9257
  254MOL0     H34262   4.403   0.053   8.968  1.3744 -0.5492 -0.8490
  254MOL0     H34263   4.454  -0.034   9.115  1.7299 -3.8857 -1.8285
  254MOL0     H34264   4.434  -0.147   8.898 -1.4994  1.7487  2.2213
  254MOL0     H34265   4.574  -0.044   8.850  0.4541 -2.9586 -1.6465
  254MOL0     H34266   4.690  -0.160   9.059 -2.1187  1.4168  1.1681
  254MOL0     H34267   4.682  -0.242   8.889 -0.4633  1.8966 -0.9279
  254MOL0     H34268   4.631  -0.399   9.066 -0.2935 -2.3816 -1.7380
  254MOL0     H34269   4.484  -0.305   9.113 -0.8776 -0.3348 -0.5320
  254MOL0     H34270   4.453   0.679   9.298  2.2065  1.2443  0.7994
  254MOL0     H34271   4.313   0.796   9.449  1.1014 -0.4447 -1.9122
  254MOL0     H34272   4.366   1.021  10.011  0.7039 -0.2460  0.0453
  254MOL0     H34273   4.219   1.048  10.214 -0.7519 -0.1140  0.1105
  254MOL0     H34274   3.355   0.517   9.781 -1.0768 -0.0359 -0.7187
  254MOL0     H34275   3.496   0.414   9.606 -0.5812  0.8152  1.7141
  254MOL0     H34276   3.634   0.145   9.384 -0.4333  1.3628 -0.4301
  254MOL0     H34277   3.825   0.054   9.268  2.0379  2.0490  0.2399
  254MOL0     H34278   4.050   0.032   8.982 -1.3362 -0.3554 -1.3857
  254MOL0     H34279   3.991   0.067   9.142 -1.4715 -0.9885  0.4149
  254MOL0     H34280   4.169   0.225   9.104  1.1746  2.5198  0.0370
  254MOL0     H34281   4.019   0.316   9.101  0.6594  0.3817  0.0989
  254MOL0     H34282   4.009   0.325   8.870  0.7974  1.4339 -2.3380
  254MOL0     H34283   4.134   0.202   8.850 -0.8318  0.3961 -0.6221
  254MOL0     H34284   4.319   0.322   8.917  0.3923  0.3433 -3.1642
  254MOL0     H34285   4.242   0.425   8.807 -2.0569 -2.5410 -2.4257
  254MOL0     H34286   4.232   0.609   9.192 -2.2245  0.2868 -0.3327
  254MOL0     H34287   3.666   0.208   8.908 -0.8930  0.2507 -0.0063
  254MOL0     H34288   3.466   0.426   9.003  2.0814 -1.0632  0.0701
  254MOL0     H34289   3.442   0.279   8.906  3.1317  1.5504 -1.2088
  254MOL0     H34290   3.341   0.312   9.055 -0.1537 -0.0918 -1.0259
  255MOL0     O34291  11.423   3.290   4.034 -0.4020  0.1923  0.0672
  255MOL0     C34292  11.442   3.377   3.951 -1.1287  0.4107  0.8850
  255MOL0     O34293  11.378   3.381   3.836  0.0425  0.1032 -0.4418
  255MOL0     C34294  11.245   3.346   3.824  1.2590 -0.2676  0.0519
  255MOL0     C34295  11.147   3.396   3.914  0.3324  0.0960  0.1899
  255MOL0     C34296  11.013   3.363   3.884  0.3673  0.2879 -0.5112
  255MOL0     C34297  10.972   3.293   3.774  1.0891  0.3652 -0.3749
  255MOL0     O34298  10.839   3.275   3.758  0.0913 -0.3916  0.7749
  255MOL0     C34299  10.794   3.290   3.616 -0.0863  0.3245 -0.5936
  255MOL0     C34300  10.661   3.369   3.623  0.2742 -0.7352  0.5141
  255MOL0     C34301  10.556   3.306   3.715  0.2683  0.3368  0.2678
  255MOL0     C34302  10.459   3.212   3.637 -0.4778  1.1691 -0.4553
  255MOL0     C34303  10.336   3.172   3.725 -0.4188 -0.6449  0.3702
  255MOL0     C34304  10.395   3.097   3.840 -0.0738  0.7260  0.2516
  255MOL0     C34305  10.279   3.018   3.907  0.1457  0.7151 -0.3984
  255MOL0     C34306  10.333   2.926   4.012  0.1954 -0.7792  0.2413
  255MOL0     N34307  10.395   2.995   4.127  0.0726 -0.2085  0.6293
  255MOL0     C34308  10.518   2.960   4.179  0.0153  0.6927 -0.1468
  255MOL0     C34309  10.544   3.055   4.277  0.2563  1.0435 -0.0023
  255MOL0     C34310  10.658   3.059   4.380 -0.2620  0.1418  0.3599
  255MOL0     C34311  10.668   3.191   4.452 -0.1121  0.3531 -0.1807
  255MOL0     C34312  10.785   3.183   4.553  0.4196  0.3627 -0.7558
  255MOL0     C34313  10.742   3.115   4.682  0.0759 -0.5236  0.5404
  255MOL0     O34314  10.850   3.140   4.773  0.5936  0.5233 -1.3332
  255MOL0     C34315  10.864   3.254   4.845 -0.2312  0.0371  1.2056
  255MOL0     C34316  10.996   3.287   4.879 -0.5741 -0.1462  0.7738
  255MOL0     C34317  11.032   3.386   4.955  0.4184  0.1372  0.3520
  255MOL0     C34318  10.930   3.473   5.003  0.6604 -0.1899 -0.1655
  255MOL0     C34319  10.960   3.591   5.091  0.3250  0.2660  0.3260
  255MOL0     O34320  10.863   3.655   5.174 -0.7497  0.2012  0.2549
  255MOL0     C34321  10.903   3.748   5.271 -1.0306  0.2051 -0.1339
  255MOL0     C34322  11.034   3.792   5.291  0.8470  0.3099 -0.4554
  255MOL0     C34323  11.060   3.889   5.388  0.2773  0.6269  0.0511
  255MOL0     C34324  10.955   3.945   5.458 -0.3475 -0.4170  0.1354
  255MOL0     O34325  10.966   4.057   5.535 -0.4801 -0.0118 -0.6113
  255MOL0     C34326  11.062   4.153   5.489 -0.0835 -0.7597  0.2056
  255MOL0     C34327  10.993   4.295   5.487  0.3426  0.6919 -0.5550
  255MOL0     C34328  10.883   4.296   5.381 -0.2397  0.6310  0.5612
  255MOL0     C34329  10.820   4.427   5.371 -0.2352 -0.1301 -0.0800
  255MOL0     C34330  10.718   4.437   5.246 -0.5531 -1.4953  0.0494
  255MOL0     C34331  10.682   4.585   5.220  0.7170  0.2377 -0.3645
  255MOL0     C34332  10.621   4.651   5.348  0.4436 -0.1089  0.1242
  255MOL0     C34333  10.587   4.799   5.342 -1.3181 -0.5216 -0.0798
  255MOL0    Cl34334  10.745   4.874   5.326 -0.2175 -0.6699  0.4624
  255MOL0     C34335  10.827   3.899   5.446  0.2994  0.0084  1.3719
  255MOL0     C34336  10.800   3.793   5.349 -0.0928  0.5956 -0.2114
  255MOL0     O34337  11.077   3.625   5.073 -0.0085 -0.6619 -0.2663
  255MOL0     C34338  10.795   3.451   4.968  0.5530  0.6322 -0.6795
  255MOL0     C34339  10.765   3.345   4.886  0.1592 -0.3767  0.2572
  255MOL0     N34340  10.436   3.143   4.271  0.3881  0.1257  0.4836
  255MOL0     N34341  10.357   3.111   4.175  0.0513  0.0302 -0.5809
  255MOL0     C34342  11.071   3.239   3.693  0.5053 -0.2149  0.0331
  255MOL0     C34343  11.204   3.275   3.711  0.3358  0.4013 -0.1449
  255MOL0     C34344  11.566   3.449   3.952  0.1463 -0.2169 -0.5614
  255MOL0     C34345  11.687   3.381   3.924  0.0824 -0.1987 -1.7153
  255MOL0     C34346  11.799   3.458   3.892  0.8972  0.8453  0.1743
  255MOL0     C34347  11.807   3.592   3.925 -0.0187  0.6019  0.5011
  255MOL0     O34348  11.923   3.661   3.910 -0.5373 -0.3818  0.2067
  255MOL0     C34349  12.036   3.597   3.980  0.2834  0.1524 -0.9842
  255MOL0     C34350  12.145   3.510   3.907 -0.5941  0.2189 -0.0783
  255MOL0     C34351  12.167   3.576   3.769  0.7280 -0.2426  0.3184
  255MOL0     C34352  12.259   3.700   3.764 -0.6053  0.5118 -0.3662
  255MOL0     C34353  12.259   3.771   3.634  0.9421 -0.4929 -0.0043
  255MOL0     C34354  12.268   3.827   3.527  0.3545  0.0949  0.3572
  255MOL0     C34355  11.691   3.661   3.960 -0.4965 -0.1268 -0.2026
  255MOL0     C34356  11.573   3.588   3.968 -0.4056  0.6152 -0.0466
  255MOL0     C34357  11.443   3.666   4.001  0.9741 -0.2394 -0.1776
  255MOL0     H34358  11.179   3.457   3.998  0.8976 -2.1326  1.6717
  255MOL0     H34359  10.934   3.403   3.945 -0.7956  2.9315 -3.4728
  255MOL0     H34360  10.865   3.344   3.552  0.4451  0.7467  0.3277
  255MOL0     H34361  10.782   3.193   3.567 -2.6016  0.3036 -0.0460
  255MOL0     H34362  10.624   3.390   3.522  0.9317  0.9678  0.5973
  255MOL0     H34363  10.686   3.465   3.668  2.0533 -1.1843  0.5615
  255MOL0     H34364  10.487   3.386   3.744  0.5758  0.3182  1.0984
  255MOL0     H34365  10.609   3.268   3.803  1.3238  2.2287  0.5109
  255MOL0     H34366  10.434   3.279   3.554  1.6697  2.9873  0.2583
  255MOL0     H34367  10.510   3.130   3.586 -0.2454  1.4950 -0.7541
  255MOL0     H34368  10.270   3.255   3.752  3.1810  1.9161  1.9889
  255MOL0     H34369  10.283   3.106   3.655 -0.0947 -1.1189  0.5617
  255MOL0     H34370  10.468   3.021   3.809 -0.6204  0.9331 -1.7168
  255MOL0     H34371  10.448   3.163   3.909  0.0808  1.5634 -0.6387
  255MOL0     H34372  10.203   2.968   3.846 -1.8817  1.2438  1.5531
  255MOL0     H34373  10.220   3.090   3.963 -1.2828 -1.6787  1.3435
  255MOL0     H34374  10.256   2.854   4.041 -0.9129  0.4668  0.4924
  255MOL0     H34375  10.407   2.866   3.957 -0.1576 -1.2328  0.2609
  255MOL0     H34376  10.581   2.872   4.171 -1.0220 -0.3076  1.8861
  255MOL0     H34377  10.624   2.991   4.460 -2.0723  2.9159  2.1050
  255MOL0     H34378  10.754   3.023   4.341 -0.3601 -1.6969  1.6534
  255MOL0     H34379  10.700   3.271   4.384 -1.5290  2.1126  1.1357
  255MOL0     H34380  10.577   3.221   4.504 -0.1136  0.0394  0.0003
  255MOL0     H34381  10.822   3.281   4.587 -1.3232  0.4908  0.9190
  255MOL0     H34382  10.879   3.146   4.511  0.4213  0.1034 -0.5218
  255MOL0     H34383  10.725   3.010   4.659 -0.6729 -0.3904  0.4633
  255MOL0     H34384  10.645   3.156   4.713 -0.5464 -1.5259 -0.0482
  255MOL0     H34385  11.070   3.216   4.843 -1.1787 -0.4300  0.0560
  255MOL0     H34386  11.140   3.400   4.961  0.2563  0.9956  2.5298
  255MOL0     H34387  11.117   3.744   5.239  1.3217 -2.2808  2.3721
  255MOL0     H34388  11.164   3.918   5.398  0.3251 -0.0355  1.8939
  255MOL0     H34389  11.134   4.158   5.571  0.9229 -0.8972 -0.6499
  255MOL0     H34390  11.102   4.126   5.391  0.8162 -4.4339  1.4344
  255MOL0     H34391  10.964   4.320   5.590  1.0008  2.5536 -0.7946
  255MOL0     H34392  11.067   4.368   5.454  0.3322  1.7807  1.6525
  255MOL0     H34393  10.932   4.278   5.285 -0.8751  1.3483  0.0895
  255MOL0     H34394  10.805   4.225   5.408 -0.6950  0.7272 -0.4447
  255MOL0     H34395  10.896   4.504   5.357  0.0096 -0.5140 -0.9095
  255MOL0     H34396  10.764   4.445   5.464 -3.1973 -0.3411 -1.6947
  255MOL0     H34397  10.630   4.378   5.275 -1.3453  0.4615  1.9025
  255MOL0     H34398  10.769   4.394   5.160 -0.7278 -0.5616 -0.5318
  255MOL0     H34399  10.780   4.617   5.184  2.5483 -3.6323  0.6517
  255MOL0     H34400  10.597   4.582   5.151 -1.1852 -2.4547  1.8473
  255MOL0     H34401  10.684   4.631   5.435  3.3991  1.5768 -1.4419
  255MOL0     H34402  10.530   4.593   5.361  0.1872 -0.0614 -1.2963
  255MOL0     H34403  10.522   4.821   5.257 -0.2322  0.3460 -0.6990
  255MOL0     H34404  10.535   4.832   5.432  0.9878  0.6210  0.9175
  255MOL0     H34405  10.753   3.961   5.494 -1.4614 -0.8688 -0.0774
  255MOL0     H34406  10.701   3.751   5.342  0.3340 -0.4368 -0.3320
  255MOL0     H34407  10.716   3.520   4.997  1.0666  1.2100 -0.6267
  255MOL0     H34408  10.665   3.319   4.853  1.1822 -1.7418 -2.0068
  255MOL0     H34409  11.056   3.176   3.606  1.3188  0.0642 -0.3178
  255MOL0     H34410  11.271   3.243   3.631  0.5966  3.6540 -1.4032
  255MOL0     H34411  11.685   3.272   3.924 -0.5048 -0.2562  1.0173
  255MOL0     H34412  11.889   3.412   3.854 -0.9445 -2.5591 -0.4872
  255MOL0     H34413  11.990   3.528   4.052 -1.4137  0.1579 -2.0074
  255MOL0     H34414  12.080   3.673   4.045 -0.0203  0.6106 -1.3133
  255MOL0     H34415  12.118   3.406   3.886 -1.6001  0.8628 -2.1948
  255MOL0     H34416  12.236   3.501   3.967 -0.6444 -0.8405 -0.1410
  255MOL0     H34417  12.073   3.582   3.714  0.4851 -1.0101  0.6487
  255MOL0     H34418  12.222   3.499   3.714 -2.8063 -1.7545 -1.3705
  255MOL0     H34419  12.242   3.771   3.845 -1.3274 -2.5137  2.3851
  255MOL0     H34420  12.360   3.659   3.776  0.5130  3.4182  0.9041
  255MOL0     H34421  12.269   3.871   3.429 -1.0201 -0.6663 -0.0251
  255MOL0     H34422  11.686   3.767   3.982  0.3373 -0.7679  3.8457
  255MOL0     H34423  11.380   3.656   3.912  2.3845 -3.0815 -0.9782
  255MOL0     H34424  11.387   3.632   4.088  2.0418  1.4655  1.2461
  255MOL0     H34425  11.469   3.769   4.028  0.4328 -0.1311 -0.0539
  256MOL0     O34426   0.472   6.886   2.018  0.0516  0.1855  0.0738
  256MOL0     C34427   0.591   6.920   2.006  0.6790 -0.9014 -0.0217
  256MOL0     O34428   0.701   6.870   2.065  0.4429  0.2043 -0.2024
  256MOL0     C34429   0.688   6.742   2.124  0.1219  0.0034 -0.4337
  256MOL0     C34430   0.779   6.641   2.087  0.2333 -0.2456 -0.2212
  256MOL0     C34431   0.779   6.519   2.164  0.3778 -0.3030  0.1308
  256MOL0     C34432   0.690   6.495   2.264  0.1426  0.4960 -0.7221
  256MOL0     O34433   0.699   6.369   2.318  0.3813 -0.3242 -0.3400
  256MOL0     C34434   0.570   6.310   2.359 -0.2928 -0.4106  0.1301
  256MOL0     C34435   0.568   6.161   2.321 -0.2016  0.2410  0.1077
  256MOL0     C34436   0.434   6.111   2.274  0.0043  0.5575 -0.1147
  256MOL0     C34437   0.441   6.034   2.143 -0.4303 -0.7026 -0.9911
  256MOL0     C34438   0.320   5.937   2.122  0.5226 -0.5999  0.1982
  256MOL0     C34439   0.271   5.922   1.983 -0.2224  0.4569 -0.1261
  256MOL0     C34440   0.207   6.045   1.931 -0.0987  0.9402 -0.6664
  256MOL0     C34441   0.166   6.021   1.785  0.2872 -1.0378 -0.5262
  256MOL0     N34442   0.286   6.004   1.702 -0.5185  0.1113  0.4877
  256MOL0     C34443   0.370   6.102   1.677  0.0572 -0.5249 -0.0551
  256MOL0     C34444   0.438   6.069   1.563  0.2121  0.6024  0.2162
  256MOL0     C34445   0.528   6.167   1.493 -0.2056  0.7171  0.1636
  256MOL0     C34446   0.491   6.185   1.341 -0.1044 -0.2754 -0.3991
  256MOL0     C34447   0.610   6.256   1.280  0.8833 -0.3222  1.0956
  256MOL0     C34448   0.568   6.301   1.135 -0.5213 -0.2778  0.5693
  256MOL0     O34449   0.446   6.371   1.116  0.3860 -0.2028 -0.1763
  256MOL0     C34450   0.439   6.491   1.166 -0.1761 -0.2739 -0.4787
  256MOL0     C34451   0.547   6.589   1.168 -0.1746  0.3164  0.0281
  256MOL0     C34452   0.525   6.713   1.220 -0.3143 -0.7049  0.9360
  256MOL0     C34453   0.404   6.749   1.278 -0.6532  0.6966  0.2225
  256MOL0     C34454   0.387   6.880   1.335  0.2963 -0.2511 -0.2390
  256MOL0     O34455   0.258   6.903   1.350 -0.0579 -0.1155  0.1889
  256MOL0     C34456   0.234   7.027   1.410 -1.1929  0.7012  0.4691
  256MOL0     C34457   0.241   7.143   1.326  0.7231 -1.2497  0.1402
  256MOL0     C34458   0.198   7.269   1.383 -0.3170 -0.2815 -0.3740
  256MOL0     C34459   0.147   7.274   1.512 -0.4268 -0.5216 -0.2078
  256MOL0     O34460   0.110   7.385   1.576 -0.3004  0.3068 -0.2243
  256MOL0     C34461   0.038   7.481   1.508 -0.2703  0.8379 -0.1417
  256MOL0     C34462   0.068   7.603   1.590  0.4107 -0.4716  0.5664
  256MOL0     C34463   0.217   7.646   1.608 -0.0576 -0.1164  0.4985
  256MOL0     C34464   0.231   7.770   1.696 -0.8664  1.0403  0.2098
  256MOL0     C34465   0.207   7.902   1.610 -0.6510 -0.1756  1.3657
  256MOL0     C34466   0.225   8.030   1.690 -0.3503 -0.4537  0.2901
  256MOL0     C34467   0.379   8.045   1.726 -0.0074  0.3148 -0.2753
  256MOL0     C34468   0.440   8.187   1.704 -0.5825  1.9817  0.3012
  256MOL0    Cl34469   0.359   8.304   1.810  0.2563 -0.0729 -0.4410
  256MOL0     C34470   0.154   7.157   1.586  0.1437 -1.0021  0.1133
  256MOL0     C34471   0.201   7.037   1.536  0.3487  0.1383 -0.1739
  256MOL0     O34472   0.489   6.944   1.376  1.0529 -0.5892  0.0927
  256MOL0     C34473   0.293   6.661   1.277 -0.2910 -0.8630 -1.0977
  256MOL0     C34474   0.308   6.528   1.219 -0.7496 -0.5506  0.2674
  256MOL0     N34475   0.405   5.941   1.526  0.4749 -0.7668 -0.2010
  256MOL0     N34476   0.308   5.908   1.604 -0.9820 -0.1919  0.4791
  256MOL0     C34477   0.597   6.598   2.300 -0.6556  1.1384  0.7981
  256MOL0     C34478   0.599   6.716   2.233 -0.2112  0.5997  0.0995
  256MOL0     C34479   0.636   7.052   1.938  0.0830  0.6440  0.0247
  256MOL0     C34480   0.725   7.140   2.017 -0.4656  0.4299 -0.1834
  256MOL0     C34481   0.753   7.269   1.968  0.0985 -0.8146 -1.1885
  256MOL0     C34482   0.679   7.317   1.860 -0.0934  0.5184  1.2577
  256MOL0     O34483   0.691   7.443   1.803 -0.1729 -0.2835  0.8501
  256MOL0     C34484   0.793   7.530   1.850  0.8104  0.8036 -0.0692
  256MOL0     C34485   0.781   7.662   1.780 -1.1691 -0.3833 -0.6617
  256MOL0     C34486   0.826   7.660   1.634 -0.0460 -0.1286  0.5270
  256MOL0     C34487   0.735   7.760   1.554 -0.8113 -1.5746 -1.5328
  256MOL0     C34488   0.634   7.688   1.484  0.4587 -1.1585 -0.6284
  256MOL0     C34489   0.554   7.628   1.432 -0.1408 -1.6329  0.1153
  256MOL0     C34490   0.589   7.228   1.791 -1.3542  1.2243  0.6226
  256MOL0     C34491   0.574   7.095   1.818  0.3077  1.4494 -1.4436
  256MOL0     C34492   0.476   7.012   1.735  0.5935  0.2305  0.1029
  256MOL0     H34493   0.841   6.668   2.003 -1.0385  1.7102 -0.5925
  256MOL0     H34494   0.859   6.450   2.139 -0.2058 -1.2171  0.7221
  256MOL0     H34495   0.560   6.330   2.466 -0.5683  0.9878 -0.1315
  256MOL0     H34496   0.496   6.361   2.297 -1.9561 -0.6067  1.8786
  256MOL0     H34497   0.609   6.106   2.406  1.4540  0.2354 -0.6615
  256MOL0     H34498   0.638   6.140   2.240 -0.1920 -3.5006  0.9511
  256MOL0     H34499   0.363   6.192   2.252 -0.8129 -0.3052 -0.7624
  256MOL0     H34500   0.396   6.050   2.357  2.2710  0.1544  0.6958
  256MOL0     H34501   0.471   6.096   2.058  2.1562  1.3515  1.2388
  256MOL0     H34502   0.531   5.974   2.157  1.3337  2.2877  1.6982
  256MOL0     H34503   0.353   5.841   2.163 -0.7342 -1.7534 -1.3937
  256MOL0     H34504   0.230   5.967   2.176  0.5693 -2.0097  1.0918
  256MOL0     H34505   0.353   5.892   1.916 -0.1514 -2.5565  1.1609
  256MOL0     H34506   0.194   5.846   1.979  1.5245 -1.3507 -1.7458
  256MOL0     H34507   0.267   6.136   1.940  4.4144 -1.8776  1.1808
  256MOL0     H34508   0.113   6.055   1.986  0.8364 -0.5772  1.3144
  256MOL0     H34509   0.109   5.929   1.770 -0.9151 -0.2029 -1.2776
  256MOL0     H34510   0.111   6.110   1.754  0.9402 -0.5330 -0.2733
  256MOL0     H34511   0.373   6.193   1.736 -2.6918  0.1687 -0.8515
  256MOL0     H34512   0.517   6.261   1.549 -2.3784  0.5429  0.1025
  256MOL0     H34513   0.633   6.139   1.504 -0.6888 -0.3270  2.6249
  256MOL0     H34514   0.483   6.090   1.288  3.5185 -1.1676  0.3801
  256MOL0     H34515   0.398   6.242   1.345  0.7556  1.1315  0.4158
  256MOL0     H34516   0.690   6.182   1.286  1.7360  0.5915  1.2007
  256MOL0     H34517   0.644   6.346   1.332  1.4111  0.0695  0.0986
  256MOL0     H34518   0.540   6.210   1.081  0.1865  2.0724 -4.2958
  256MOL0     H34519   0.650   6.351   1.083  0.1659 -1.7853  0.1501
  256MOL0     H34520   0.649   6.559   1.144 -0.7185  0.1472 -2.2582
  256MOL0     H34521   0.607   6.785   1.229  0.4878 -1.7501  2.4369
  256MOL0     H34522   0.276   7.134   1.224 -1.0158 -0.9011 -0.5219
  256MOL0     H34523   0.194   7.353   1.314 -1.7701 -0.1185 -0.1124
  256MOL0     H34524   0.068   7.496   1.403 -0.8567 -2.3919 -0.8563
  256MOL0     H34525  -0.068   7.455   1.511  0.2618 -1.4961  2.2353
  256MOL0     H34526   0.011   7.684   1.544  1.1077 -0.2928 -0.0027
  256MOL0     H34527   0.028   7.584   1.690 -1.4562 -1.3448 -0.3041
  256MOL0     H34528   0.277   7.562   1.645 -0.6262 -0.8364 -0.2066
  256MOL0     H34529   0.256   7.658   1.507  0.5641  1.3919  0.8862
  256MOL0     H34530   0.327   7.772   1.748 -0.7105 -1.6204  0.1552
  256MOL0     H34531   0.161   7.775   1.780  2.1532 -0.1558  2.9610
  256MOL0     H34532   0.102   7.903   1.578 -0.1176 -2.1923 -0.7199
  256MOL0     H34533   0.276   7.903   1.525  0.6813 -4.6847  2.1437
  256MOL0     H34534   0.190   8.107   1.620  0.1934  0.2230  0.7555
  256MOL0     H34535   0.171   8.029   1.785  2.8150  1.3878  2.2838
  256MOL0     H34536   0.430   7.978   1.658 -1.7952 -0.4914 -0.8857
  256MOL0     H34537   0.407   8.017   1.828 -1.3716 -0.9030 -0.2020
  256MOL0     H34538   0.548   8.173   1.713 -0.5270  2.6990  0.8303
  256MOL0     H34539   0.416   8.204   1.599  1.4103  1.4588 -0.2781
  256MOL0     H34540   0.119   7.158   1.689  3.1048  1.9891  1.2738
  256MOL0     H34541   0.199   6.956   1.608  3.4952  1.2176  1.2900
  256MOL0     H34542   0.191   6.688   1.301  0.2347  1.5913 -1.3464
  256MOL0     H34543   0.219   6.468   1.207 -1.8876  1.0969  0.1833
  256MOL0     H34544   0.515   6.581   2.369 -3.7720  3.3720 -2.0086
  256MOL0     H34545   0.520   6.789   2.248 -2.6417 -0.8612 -3.9310
  256MOL0     H34546   0.779   7.105   2.105 -0.1908 -2.2055 -1.3196
  256MOL0     H34547   0.813   7.333   2.032 -1.9393  0.0614 -0.0452
  256MOL0     H34548   0.890   7.484   1.828 -1.2811 -3.8448 -0.5835
  256MOL0     H34549   0.776   7.541   1.957 -4.9559 -2.3108 -0.3129
  256MOL0     H34550   0.852   7.730   1.828 -0.9651 -1.5439  0.7424
  256MOL0     H34551   0.681   7.703   1.795 -1.1868 -0.7185  0.2298
  256MOL0     H34552   0.824   7.558   1.594  1.6622 -1.1602  2.8090
  256MOL0     H34553   0.928   7.700   1.637 -0.3241  0.5360  1.7132
  256MOL0     H34554   0.707   7.847   1.613  3.8695 -0.4321 -0.5921
  256MOL0     H34555   0.803   7.801   1.479 -1.2640  0.3980 -0.9328
  256MOL0     H34556   0.480   7.583   1.368  1.7842  0.3567 -3.8723
  256MOL0     H34557   0.547   7.269   1.699  2.4046  0.4316 -1.6372
  256MOL0     H34558   0.520   6.918   1.703 -1.6884  0.1888 -3.4027
  256MOL0     H34559   0.379   7.000   1.784 -0.3141  0.0637 -1.6624
  256MOL0     H34560   0.470   7.068   1.641  0.1698  0.3558  0.2003
  257MOL0     O34561   1.081   1.252   5.971  0.1875  0.1035 -0.0885
  257MOL0     C34562   1.133   1.161   5.900  0.5161 -0.4793 -0.5948
  257MOL0     O34563   1.206   1.055   5.948 -0.3652  0.7693 -0.9876
  257MOL0     C34564   1.212   1.032   6.084  0.5537 -0.0158 -0.7110
  257MOL0     C34565   1.324   0.957   6.115 -0.0309  0.4270 -0.0599
  257MOL0     C34566   1.348   0.922   6.252  0.1391  0.1243  0.4192
  257MOL0     C34567   1.258   0.952   6.357  0.0292  0.4877 -1.4390
  257MOL0     O34568   1.294   0.890   6.478  0.5151 -0.5395 -0.2824
  257MOL0     C34569   1.208   0.914   6.589 -0.4254  1.4499  0.4328
  257MOL0     C34570   1.270   0.855   6.715  0.3880  0.4226  0.1747
  257MOL0     C34571   1.367   0.958   6.783 -0.4166  0.0752  0.9324
  257MOL0     C34572   1.510   0.923   6.763 -0.0218  0.3056 -0.0952
  257MOL0     C34573   1.615   0.988   6.865  0.0366 -0.0443 -0.4675
  257MOL0     C34574   1.758   0.977   6.811 -0.7425  0.4011  0.0768
  257MOL0     C34575   1.841   1.076   6.902  0.0638 -0.5212  0.9558
  257MOL0     C34576   1.985   1.038   6.908 -0.9851 -0.1652  0.5524
  257MOL0     N34577   2.033   1.027   7.044  0.1775  0.5254 -0.5332
  257MOL0     C34578   2.084   1.138   7.122 -0.6368  0.9418 -0.7289
  257MOL0     C34579   2.131   1.090   7.240  0.9775  0.8297 -0.1550
  257MOL0     C34580   2.218   1.166   7.335  0.2692 -0.0518 -0.5999
  257MOL0     C34581   2.193   1.113   7.476 -0.6450 -0.1408 -0.1764
  257MOL0     C34582   2.298   0.996   7.516  0.5202 -0.6520  0.7634
  257MOL0     C34583   2.254   0.901   7.633  0.0013  0.3042 -1.0804
  257MOL0     O34584   2.260   0.990   7.756  0.3735  0.1216 -0.0510
  257MOL0     C34585   2.345   0.967   7.861  0.2957 -0.0707  1.0824
  257MOL0     C34586   2.380   1.073   7.943  0.5475  0.1239  0.6644
  257MOL0     C34587   2.481   1.065   8.045 -0.4030  0.2574  0.2447
  257MOL0     C34588   2.546   0.939   8.065  0.5177 -0.0034  0.4983
  257MOL0     C34589   2.654   0.920   8.163 -0.5738 -0.8779 -0.7641
  257MOL0     O34590   2.659   0.793   8.195 -0.1819 -0.3638 -0.2871
  257MOL0     C34591   2.721   0.757   8.309 -0.1119 -0.3574  0.2932
  257MOL0     C34592   2.836   0.679   8.290 -0.5761 -0.8677  0.3574
  257MOL0     C34593   2.894   0.618   8.408  0.1895  0.4120 -0.7318
  257MOL0     C34594   2.837   0.634   8.534  0.9734 -0.0591 -0.7879
  257MOL0     O34595   2.896   0.573   8.645  0.2977 -0.0271 -0.2558
  257MOL0     C34596   2.843   0.608   8.773 -0.0866  0.2403  0.1134
  257MOL0     C34597   2.943   0.587   8.886  0.4479  0.0521 -0.1387
  257MOL0     C34598   3.064   0.664   8.864  0.0620  0.3433 -0.4570
  257MOL0     C34599   3.152   0.678   8.994  0.0243  0.5444 -0.1011
  257MOL0     C34600   3.266   0.773   8.964  0.0473 -0.3596  0.5183
  257MOL0     C34601   3.393   0.743   9.062  0.8811 -0.2397  0.2222
  257MOL0     C34602   3.351   0.779   9.208 -0.0506  0.2136  0.4603
  257MOL0     C34603   3.452   0.768   9.318  0.3478 -0.3043 -0.1365
  257MOL0    Cl34604   3.382   0.841   9.465 -0.1248 -0.1394 -0.1487
  257MOL0     C34605   2.706   0.681   8.537 -0.0078 -0.1061  0.1902
  257MOL0     C34606   2.651   0.746   8.425  0.1861  0.8269 -0.3699
  257MOL0     O34607   2.719   1.014   8.214  0.2009  0.2112  0.0462
  257MOL0     C34608   2.490   0.826   7.990 -0.1335 -1.2565  0.2134
  257MOL0     C34609   2.404   0.847   7.884 -0.0305  0.2464  0.5894
  257MOL0     N34610   2.111   0.954   7.244  0.6902 -0.4127 -0.7841
  257MOL0     N34611   2.061   0.919   7.128  0.7058 -1.2034  1.1596
  257MOL0     C34612   1.141   1.024   6.333 -0.4438 -0.7736  0.6621
  257MOL0     C34613   1.119   1.064   6.197  0.6847  0.1449  0.4142
  257MOL0     C34614   1.132   1.167   5.752 -0.3981  0.6336 -0.1095
  257MOL0     C34615   1.201   1.063   5.675  0.6292 -0.4240 -0.5970
  257MOL0     C34616   1.207   1.064   5.539 -0.4318 -0.0056  0.0249
  257MOL0     C34617   1.139   1.157   5.457 -1.5831  1.1142  0.8903
  257MOL0     O34618   1.138   1.166   5.325  0.1278 -0.2720  0.9145
  257MOL0     C34619   1.222   1.074   5.251  0.6586 -0.0524 -0.0802
  257MOL0     C34620   1.233   1.121   5.103  0.4143 -0.0841 -0.3098
  257MOL0     C34621   1.271   1.275   5.079 -0.3524  0.0335  0.0060
  257MOL0     C34622   1.218   1.325   4.947  0.2828 -0.0494 -0.5855
  257MOL0     C34623   1.293   1.284   4.831  0.5109 -0.3164 -0.0375
  257MOL0     C34624   1.367   1.252   4.734 -0.7513 -0.5547 -0.6843
  257MOL0     C34625   1.070   1.254   5.536 -0.0405  0.2092  0.7162
  257MOL0     C34626   1.062   1.257   5.678  0.2923  0.0110  0.8193
  257MOL0     C34627   0.968   1.360   5.719 -0.6991 -1.2089 -0.2280
  257MOL0     H34628   1.386   0.905   6.043 -1.5402 -0.4742 -0.7614
  257MOL0     H34629   1.422   0.843   6.261 -0.6612 -0.8751 -1.2344
  257MOL0     H34630   1.194   1.022   6.603  1.8084  2.2468 -2.4938
  257MOL0     H34631   1.114   0.865   6.563 -0.3559  1.5120  0.0511
  257MOL0     H34632   1.321   0.761   6.691 -0.4230  0.1999 -0.7417
  257MOL0     H34633   1.192   0.824   6.786  0.5062 -0.6540 -0.1568
  257MOL0     H34634   1.346   0.952   6.891  0.9732 -1.2910  1.1628
  257MOL0     H34635   1.347   1.058   6.743 -2.4886 -0.3465  0.7853
  257MOL0     H34636   1.520   0.814   6.767 -1.4324  0.2019  2.1094
  257MOL0     H34637   1.534   0.946   6.658 -0.6239 -1.0014 -0.5396
  257MOL0     H34638   1.592   1.088   6.900  2.3437 -0.3870  2.4221
  257MOL0     H34639   1.608   0.920   6.951  2.0830  2.5900  1.9328
  257MOL0     H34640   1.787   0.872   6.820 -3.9009 -0.4780  1.4988
  257MOL0     H34641   1.759   1.004   6.705 -4.7125 -3.1477 -1.1562
  257MOL0     H34642   1.817   1.068   7.009  3.0627 -1.0628  1.6898
  257MOL0     H34643   1.823   1.179   6.873  0.2231 -0.7905 -0.1268
  257MOL0     H34644   1.997   0.945   6.851  0.2705  0.5905 -0.4507
  257MOL0     H34645   2.042   1.119   6.862  0.4584 -0.5173  1.6583
  257MOL0     H34646   2.110   1.235   7.083  3.0114  0.3178 -0.2244
  257MOL0     H34647   2.325   1.161   7.310  0.3358 -6.6325 -0.8186
  257MOL0     H34648   2.176   1.267   7.334 -1.6780 -0.8163 -0.7845
  257MOL0     H34649   2.206   1.200   7.541 -6.0919  1.6604 -0.9965
  257MOL0     H34650   2.093   1.077   7.503 -2.2561  2.7777 -1.7217
  257MOL0     H34651   2.405   1.019   7.522  1.3062 -2.6977 -2.5219
  257MOL0     H34652   2.302   0.927   7.431  0.2986 -1.4311  1.3855
  257MOL0     H34653   2.323   0.816   7.637 -2.1341 -1.4560  0.6597
  257MOL0     H34654   2.159   0.851   7.616 -0.3866  0.6555 -0.0286
  257MOL0     H34655   2.327   1.164   7.916 -1.7269 -1.5983 -1.1278
  257MOL0     H34656   2.500   1.151   8.108 -3.1861  0.5297  0.8619
  257MOL0     H34657   2.879   0.663   8.192 -1.4371 -0.4559 -0.1089
  257MOL0     H34658   2.987   0.563   8.398 -0.2711 -0.0063 -3.5591
  257MOL0     H34659   2.799   0.708   8.778  2.3289  1.3305  2.4368
  257MOL0     H34660   2.765   0.535   8.796  0.3408  0.1889  1.4680
  257MOL0     H34661   2.896   0.608   8.983  0.3202  0.9315 -0.3745
  257MOL0     H34662   2.954   0.480   8.870 -2.7683  0.0381 -3.9053
  257MOL0     H34663   3.120   0.620   8.781 -1.3936 -0.0327 -1.2643
  257MOL0     H34664   3.036   0.763   8.826 -0.0972  0.4745 -0.0058
  257MOL0     H34665   3.190   0.581   9.026  2.9200  1.5472 -0.2330
  257MOL0     H34666   3.087   0.724   9.069 -1.2787  1.3152 -1.6392
  257MOL0     H34667   3.244   0.880   8.967  1.3826 -0.0729  0.6764
  257MOL0     H34668   3.305   0.757   8.863 -2.3365 -1.1187 -0.3500
  257MOL0     H34669   3.420   0.637   9.058  0.8056 -0.2870  0.7939
  257MOL0     H34670   3.480   0.801   9.028  1.2022 -1.3202 -0.8497
  257MOL0     H34671   3.264   0.717   9.232  1.4604 -0.9056  3.5762
  257MOL0     H34672   3.324   0.885   9.210  1.3999  0.5856  2.3277
  257MOL0     H34673   3.495   0.668   9.334  2.1972  0.3363 -0.9006
  257MOL0     H34674   3.535   0.835   9.295  0.4520 -0.3850  0.0018
  257MOL0     H34675   2.646   0.686   8.627  0.4264  1.6609  0.4178
  257MOL0     H34676   2.548   0.781   8.423 -0.2128 -0.3076 -0.1729
  257MOL0     H34677   2.525   0.727   8.018  1.6387 -0.5485  0.6481
  257MOL0     H34678   2.385   0.753   7.833 -2.6454 -0.0231  1.9117
  257MOL0     H34679   1.070   1.042   6.413 -0.2442 -0.2164  0.7155
  257MOL0     H34680   1.028   1.120   6.178 -0.5657 -1.0016  2.6172
  257MOL0     H34681   1.254   0.987   5.731  1.4607  1.6591  1.6255
  257MOL0     H34682   1.263   0.979   5.502 -2.4281 -3.2724  3.8351
  257MOL0     H34683   1.190   0.970   5.257 -0.6567  0.3721  0.8322
  257MOL0     H34684   1.321   1.069   5.296  1.6440  0.9018 -1.9990
  257MOL0     H34685   1.135   1.116   5.055 -0.5254  2.0795  1.2037
  257MOL0     H34686   1.295   1.051   5.046  2.4676 -0.3808  2.0693
  257MOL0     H34687   1.379   1.289   5.078 -0.5451  1.6391 -0.1484
  257MOL0     H34688   1.237   1.337   5.163  1.2994 -1.3820  1.8054
  257MOL0     H34689   1.113   1.299   4.931  0.5251 -1.2112 -0.3651
  257MOL0     H34690   1.241   1.432   4.937  4.7349 -0.7040  0.5378
  257MOL0     H34691   1.445   1.224   4.666 -0.6750 -2.8359  0.2414
  257MOL0     H34692   1.014   1.326   5.477  0.9787  0.9177  0.5860
  257MOL0     H34693   0.918   1.348   5.815 -3.1835  0.4867 -1.2187
  257MOL0     H34694   1.034   1.446   5.733 -4.4442  1.4487  3.3440
  257MOL0     H34695   0.886   1.389   5.654  1.0827  1.2070 -1.5663
  258MOL0     O34696   1.907  10.454   8.000  0.2046  0.5953 -0.1417
  258MOL0     C34697   2.001  10.383   8.034 -0.9394 -0.1569 -0.5573
  258MOL0     O34698   2.080  10.330   7.951 -0.1045 -0.0005  0.9065
  258MOL0     C34699   2.066  10.378   7.819 -0.2016  1.0468  0.2622
  258MOL0     C34700   2.034  10.294   7.710 -1.0221  0.5399  0.0344
  258MOL0     C34701   2.044  10.339   7.577  0.0051 -0.8066  0.0159
  258MOL0     C34702   2.098  10.465   7.555  0.9366  0.0998  0.0878
  258MOL0     O34703   2.111  10.513   7.433 -0.2828  0.4439  0.2214
  258MOL0     C34704   2.016  10.596   7.374 -0.1966 -0.6460 -0.1398
  258MOL0     C34705   2.081  10.635   7.247 -0.2522 -0.6589 -0.2893
  258MOL0     C34706   2.204  10.719   7.280  0.7227 -0.7817 -0.0758
  258MOL0     C34707   2.250  10.765   7.137  0.5992  1.3829 -0.9268
  258MOL0     C34708   2.381  10.852   7.162  0.4891  0.0100  0.0928
  258MOL0     C34709   2.444  10.920   7.039 -0.1429  0.4876 -0.6304
  258MOL0     C34710   2.370  11.054   7.004 -0.0124  0.3980  0.6670
  258MOL0     C34711   2.447  11.179   7.022 -0.3854  0.1179 -0.2630
  258MOL0     N34712   2.363  11.301   7.019  0.0074  0.4663 -0.3351
  258MOL0     C34713   2.289  11.333   6.901  0.0461  0.4919 -0.6646
  258MOL0     C34714   2.190  11.412   6.938 -1.0731 -0.0261 -0.2045
  258MOL0     C34715   2.093  11.506   6.873 -0.0280 -0.2762  0.7081
  258MOL0     C34716   2.137  11.514   6.728  0.3417 -0.3632  0.9697
  258MOL0     C34717   2.070  11.640   6.665 -0.6983  0.6301  0.4716
  258MOL0     C34718   2.080  11.640   6.507  0.0358 -0.5839 -0.2237
  258MOL0     O34719   2.207  11.651   6.446  0.1636  0.2370  1.6027
  258MOL0     C34720   2.255  11.532   6.395 -0.0685  0.4220  0.5584
  258MOL0     C34721   2.182  11.438   6.314 -0.1385 -0.7844 -0.5958
  258MOL0     C34722   2.232  11.309   6.286 -0.4000  0.2535 -0.4841
  258MOL0     C34723   2.351  11.266   6.345 -0.7307  0.6613  0.0186
  258MOL0     C34724   2.423  11.141   6.329 -0.3971 -0.1231 -0.3956
  258MOL0     O34725   2.369  11.069   6.229  0.2618 -0.2548 -0.0806
  258MOL0     C34726   2.403  10.933   6.214 -0.3849  0.0392 -0.6426
  258MOL0     C34727   2.429  10.840   6.319  0.5857  0.9004  0.1992
  258MOL0     C34728   2.430  10.697   6.293 -0.1984 -0.9997 -0.4251
  258MOL0     C34729   2.414  10.649   6.161  0.7184 -0.0988 -0.1618
  258MOL0     O34730   2.421  10.518   6.130  0.2884 -0.1028  0.2956
  258MOL0     C34731   2.528  10.492   6.035  0.0414 -0.4770 -0.2927
  258MOL0     C34732   2.555  10.345   6.047 -0.2518  0.6677 -0.5118
  258MOL0     C34733   2.499  10.268   5.926 -0.9716 -0.0394  0.5638
  258MOL0     C34734   2.505  10.114   5.946  0.8323  0.0545 -0.1458
  258MOL0     C34735   2.434  10.045   5.823 -0.0618 -1.6389 -0.3685
  258MOL0     C34736   2.418   9.898   5.847 -0.2249  0.5922 -0.2966
  258MOL0     C34737   2.343   9.831   5.727 -0.1042  0.0917  0.1381
  258MOL0     C34738   2.442   9.822   5.605 -0.4886 -0.4586  0.2471
  258MOL0    Cl34739   2.361   9.809   5.443 -0.4067  0.3025  0.1334
  258MOL0     C34740   2.405  10.745   6.054 -0.1584  0.2846  0.7679
  258MOL0     C34741   2.394  10.882   6.085 -0.2288  0.2921 -0.6221
  258MOL0     O34742   2.509  11.102   6.406  0.3459 -0.0908 -0.4853
  258MOL0     C34743   2.427  11.357   6.422  0.5567 -0.4168 -0.7272
  258MOL0     C34744   2.382  11.492   6.439  0.7426  0.1879  0.2670
  258MOL0     N34745   2.202  11.424   7.075  0.2433  0.2611 -0.1233
  258MOL0     N34746   2.305  11.366   7.123  0.6558  0.1831 -0.8285
  258MOL0     C34747   2.133  10.546   7.665 -0.4257  0.8534  0.8574
  258MOL0     C34748   2.119  10.500   7.787 -0.0857 -0.4840 -0.5799
  258MOL0     C34749   2.006  10.353   8.184 -0.3909  0.1880 -0.3655
  258MOL0     C34750   1.953  10.448   8.268  0.4218 -0.6323  0.5466
  258MOL0     C34751   1.956  10.418   8.401 -0.1954 -0.0464 -0.0644
  258MOL0     C34752   2.015  10.316   8.463  1.9380 -0.1140  0.3192
  258MOL0     O34753   2.019  10.304   8.598  1.0215 -0.4295  0.3506
  258MOL0     C34754   2.127  10.398   8.658 -0.2099  0.5081 -0.4314
  258MOL0     C34755   2.063  10.476   8.769  0.1526  0.8452  0.3603
  258MOL0     C34756   2.154  10.569   8.849  0.1199  0.0646 -0.2455
  258MOL0     C34757   2.088  10.633   8.972 -0.1473 -0.5780 -0.1150
  258MOL0     C34758   2.187  10.701   9.054  0.2311 -1.2637  1.4025
  258MOL0     C34759   2.277  10.762   9.110 -0.0507  0.7672 -0.4689
  258MOL0     C34760   2.081  10.225   8.375 -0.0492 -0.0811  0.4820
  258MOL0     C34761   2.073  10.237   8.236  0.2534  0.1790 -0.2988
  258MOL0     C34762   2.146  10.124   8.150 -0.0672 -0.2341  0.2854
  258MOL0     H34763   1.998  10.195   7.737  0.4967  0.7447  3.2602
  258MOL0     H34764   2.008  10.273   7.499  0.5612 -0.0860 -0.8623
  258MOL0     H34765   1.925  10.541   7.350 -0.1768 -0.2554 -1.1910
  258MOL0     H34766   1.995  10.676   7.446 -0.6987 -1.9673  1.2298
  258MOL0     H34767   2.011  10.699   7.193 -1.3396  0.2127  1.9989
  258MOL0     H34768   2.113  10.557   7.177 -0.3206 -2.4856  1.5935
  258MOL0     H34769   2.286  10.672   7.335 -0.6854 -3.3795 -0.0232
  258MOL0     H34770   2.168  10.807   7.334  0.8525 -1.8163  1.7864
  258MOL0     H34771   2.263  10.678   7.071  3.9049 -0.5829  1.8851
  258MOL0     H34772   2.175  10.829   7.092 -0.3453  1.8454  1.1700
  258MOL0     H34773   2.367  10.929   7.238 -0.8444 -1.8022  1.7973
  258MOL0     H34774   2.445  10.774   7.205  1.4682 -0.3405 -1.9136
  258MOL0     H34775   2.548  10.946   7.061  0.1294  2.2052 -3.4241
  258MOL0     H34776   2.440  10.850   6.954  0.1935 -2.1784  1.4027
  258MOL0     H34777   2.275  11.046   7.059 -0.0843  1.6118  0.7497
  258MOL0     H34778   2.351  11.049   6.896  1.6457 -1.7722  0.4154
  258MOL0     H34779   2.488  11.175   7.123  2.3517 -2.0129 -1.3362
  258MOL0     H34780   2.539  11.171   6.962  0.7929 -0.7563  1.5750
  258MOL0     H34781   2.308  11.296   6.800  0.4454 -2.0233  0.2520
  258MOL0     H34782   1.997  11.455   6.888 -1.0349  1.5840  0.8668
  258MOL0     H34783   2.092  11.602   6.925  0.6951 -1.1802  2.4989
  258MOL0     H34784   2.244  11.534   6.720  0.3125 -0.6914 -0.8941
  258MOL0     H34785   2.126  11.420   6.672  3.8527 -0.6437  0.5032
  258MOL0     H34786   2.112  11.731   6.708 -0.9438  0.8494  0.2495
  258MOL0     H34787   1.964  11.636   6.690 -0.5448  0.9527  1.1874
  258MOL0     H34788   2.021  11.723   6.467  0.0716 -0.0461  0.8097
  258MOL0     H34789   2.036  11.546   6.473 -1.3935 -0.1532  0.3799
  258MOL0     H34790   2.083  11.467   6.282  0.8369  0.2801 -2.9193
  258MOL0     H34791   2.188  11.241   6.213  0.4863 -0.8633 -0.0166
  258MOL0     H34792   2.449  10.870   6.421  2.2966 -0.7334  0.3961
  258MOL0     H34793   2.456  10.621   6.367  3.8544 -1.8848 -2.4685
  258MOL0     H34794   2.493  10.518   5.935 -1.2210 -3.3052 -0.6887
  258MOL0     H34795   2.617  10.551   6.057 -0.8843  0.9401 -0.1618
  258MOL0     H34796   2.663  10.351   6.034  0.0882 -0.5319  1.3065
  258MOL0     H34797   2.527  10.297   6.142  0.8554  3.8795  1.6202
  258MOL0     H34798   2.395  10.298   5.909 -1.5630 -1.2108  1.9367
  258MOL0     H34799   2.548  10.294   5.832 -0.7663  0.6185  0.8502
  258MOL0     H34800   2.462  10.088   6.043 -0.4130  0.5132 -0.5541
  258MOL0     H34801   2.607  10.078   5.957  1.5065  1.6797 -0.6859
  258MOL0     H34802   2.499  10.058   5.736 -1.6400 -2.6173 -1.7578
  258MOL0     H34803   2.340  10.097   5.800 -0.7440 -3.0412 -0.8728
  258MOL0     H34804   2.513   9.849   5.869  0.2719  1.3862 -0.6559
  258MOL0     H34805   2.365   9.881   5.941  1.0843  2.8454  0.9335
  258MOL0     H34806   2.259   9.896   5.702  0.5487 -0.1281 -3.0113
  258MOL0     H34807   2.313   9.729   5.753 -0.8366 -0.2245 -1.7993
  258MOL0     H34808   2.494   9.917   5.589 -3.0183  0.5953 -2.6434
  258MOL0     H34809   2.505   9.734   5.621  0.2813 -0.2117 -1.2793
  258MOL0     H34810   2.402  10.718   5.949 -1.7254 -0.0173  0.8572
  258MOL0     H34811   2.367  10.953   6.007 -1.6675 -0.0448 -0.4613
  258MOL0     H34812   2.529  11.332   6.451 -0.8910 -3.7349  2.2091
  258MOL0     H34813   2.442  11.564   6.493  1.7348 -1.3050  1.2418
  258MOL0     H34814   2.161  10.651   7.666  1.0073  0.4910  1.4474
  258MOL0     H34815   2.144  10.570   7.866 -3.7991  0.0658  0.3175
  258MOL0     H34816   1.909  10.544   8.244  0.3214 -0.7651  0.1880
  258MOL0     H34817   1.903  10.480   8.472 -2.1429 -2.9271  1.1873
  258MOL0     H34818   2.168  10.474   8.592  1.7562 -2.6967 -3.1972
  258MOL0     H34819   2.212  10.344   8.702 -0.5718  2.9477  3.8522
  258MOL0     H34820   2.034  10.387   8.826 -1.1792  0.0038 -1.5251
  258MOL0     H34821   1.970  10.522   8.737  0.0902 -0.8794 -2.2179
  258MOL0     H34822   2.180  10.650   8.779 -2.5353 -0.2580 -1.7258
  258MOL0     H34823   2.241  10.512   8.884 -1.4204 -1.3890  1.4262
  258MOL0     H34824   2.020  10.712   8.940  0.0573 -0.0976  0.6226
  258MOL0     H34825   2.044  10.560   9.040  0.0733 -0.6581 -0.0584
  258MOL0     H34826   2.351  10.822   9.160 -0.4565 -0.9381  2.3843
  258MOL0     H34827   2.127  10.140   8.424 -0.6337 -1.5260 -1.3834
  258MOL0     H34828   2.245  10.148   8.110  0.0715 -2.7101 -1.0881
  258MOL0     H34829   2.170  10.041   8.217  3.1107  1.5185  1.5127
  258MOL0     H34830   2.093  10.095   8.058  4.1336 -2.2831 -1.7711
  259MOL0     O34831   8.682   1.540   1.902  1.1787 -0.0835 -0.7546
  259MOL0     C34832   8.748   1.645   1.891 -0.0627 -0.0038  0.5238
  259MOL0     O34833   8.811   1.715   1.989  0.5393  0.0687  0.4144
  259MOL0     C34834   8.916   1.660   2.070  0.8285 -1.3000 -0.2944
  259MOL0     C34835   8.978   1.747   2.165 -0.8912 -0.5378  1.5963
  259MOL0     C34836   9.078   1.697   2.241  0.2384  0.0835 -0.7347
  259MOL0     C34837   9.119   1.562   2.247 -0.0413  0.5869 -1.4678
  259MOL0     O34838   9.224   1.524   2.329  0.1859  0.9248  0.5551
  259MOL0     C34839   9.215   1.396   2.397 -0.2381 -0.3551 -1.0957
  259MOL0     C34840   9.099   1.400   2.494 -0.3656  0.0495 -0.6022
  259MOL0     C34841   9.095   1.312   2.619  0.3529  0.1056 -0.6688
  259MOL0     C34842   8.961   1.276   2.665  0.9187 -0.6318  0.8292
  259MOL0     C34843   8.972   1.183   2.778  0.6636  0.6896 -0.4939
  259MOL0     C34844   8.852   1.201   2.879 -0.1457 -0.0648  0.8595
  259MOL0     C34845   8.715   1.182   2.822 -1.1523  0.5875 -1.2111
  259MOL0     C34846   8.601   1.212   2.923 -0.0626  0.8692  0.2276
  259MOL0     N34847   8.624   1.155   3.060 -0.5967 -0.0780  0.5352
  259MOL0     C34848   8.575   1.037   3.124 -0.0443  0.4996 -0.1092
  259MOL0     C34849   8.614   1.051   3.253  0.0751 -0.3060  0.2756
  259MOL0     C34850   8.582   0.960   3.366  1.6860  0.0155 -0.6748
  259MOL0     C34851   8.449   1.003   3.435  0.0310  0.8075 -0.6198
  259MOL0     C34852   8.330   1.002   3.339 -0.3893 -0.2998  1.1414
  259MOL0     C34853   8.205   1.029   3.414 -0.5816  0.4355 -0.1666
  259MOL0     O34854   8.090   1.017   3.324 -0.1708  0.3719 -0.0079
  259MOL0     C34855   7.961   1.047   3.370  0.2461 -0.7231  0.1936
  259MOL0     C34856   7.845   1.020   3.288  0.2802  0.2171 -0.6739
  259MOL0     C34857   7.716   1.061   3.335  0.1450 -1.2810 -0.2521
  259MOL0     C34858   7.695   1.119   3.466  0.3070  1.1790  0.2815
  259MOL0     C34859   7.559   1.157   3.508 -0.4392  0.7938  0.2165
  259MOL0     O34860   7.545   1.203   3.638 -0.6260 -0.3034 -0.9929
  259MOL0     C34861   7.424   1.248   3.671  0.3339 -1.1334 -0.2112
  259MOL0     C34862   7.305   1.168   3.679 -0.7122 -0.1203  0.2393
  259MOL0     C34863   7.190   1.220   3.729  0.0688  0.4033 -0.7086
  259MOL0     C34864   7.183   1.344   3.788  0.3490  0.5668 -0.0293
  259MOL0     O34865   7.075   1.378   3.856  0.2590  0.2567  0.6883
  259MOL0     C34866   7.067   1.511   3.909 -0.0614  0.0346 -0.2596
  259MOL0     C34867   6.959   1.538   4.003  0.0725 -0.4939  0.1658
  259MOL0     C34868   6.948   1.450   4.124 -0.2880  0.0927  0.3003
  259MOL0     C34869   6.867   1.509   4.239 -0.4886  0.1433  0.0507
  259MOL0     C34870   6.931   1.628   4.317 -1.4535  0.3332 -0.9130
  259MOL0     C34871   6.840   1.684   4.426 -1.1900 -0.5687  0.3271
  259MOL0     C34872   6.769   1.575   4.521 -0.7918 -0.4136  0.0275
  259MOL0     C34873   6.748   1.639   4.655  0.0594  0.1886 -0.4945
  259MOL0    Cl34874   6.634   1.777   4.609 -0.0357 -0.8978  0.1717
  259MOL0     C34875   7.294   1.430   3.768  0.5016  0.1058 -0.4215
  259MOL0     C34876   7.414   1.386   3.712 -0.0776  0.4822 -0.3439
  259MOL0     O34877   7.468   1.144   3.421  0.1111  0.6471 -0.7583
  259MOL0     C34878   7.811   1.154   3.534 -0.1885 -0.3804 -0.5017
  259MOL0     C34879   7.941   1.112   3.493  0.1712 -1.0828 -0.5479
  259MOL0     N34880   8.686   1.166   3.263 -0.4380 -0.5083 -0.2810
  259MOL0     N34881   8.688   1.228   3.157  0.4109  0.0748  0.3112
  259MOL0     C34882   9.050   1.473   2.170  0.2074  0.1946 -0.3368
  259MOL0     C34883   8.944   1.521   2.075 -0.5042  0.8410  0.0413
  259MOL0     C34884   8.751   1.702   1.755 -1.0581  0.3917  0.2983
  259MOL0     C34885   8.677   1.637   1.659 -0.3791 -0.0158  0.5948
  259MOL0     C34886   8.674   1.680   1.525  0.6133  1.0013  0.2158
  259MOL0     C34887   8.746   1.796   1.487  0.0772  0.3977 -0.3809
  259MOL0     O34888   8.741   1.838   1.356  0.5760  0.0919  0.4652
  259MOL0     C34889   8.824   1.950   1.309 -0.6192  0.2597 -0.3198
  259MOL0     C34890   8.830   1.962   1.158  0.1598 -0.3693  0.6819
  259MOL0     C34891   8.894   2.089   1.097  0.1144  0.6405 -0.1699
  259MOL0     C34892   9.038   2.114   1.124 -0.1253 -0.0303 -0.2152
  259MOL0     C34893   9.075   2.148   1.266  0.1441 -1.1281 -0.9657
  259MOL0     C34894   9.100   2.193   1.374 -0.4528  0.4419  0.0713
  259MOL0     C34895   8.810   1.876   1.591 -0.3360 -0.7720 -0.5454
  259MOL0     C34896   8.812   1.827   1.728 -0.3889 -0.1760 -0.2293
  259MOL0     C34897   8.884   1.920   1.826 -0.4637 -0.2438  0.2154
  259MOL0     H34898   8.962   1.854   2.177  0.6395  0.4084 -2.9363
  259MOL0     H34899   9.130   1.773   2.297 -0.9649  0.0726  0.4523
  259MOL0     H34900   9.198   1.304   2.339  0.5687 -2.6231  2.0527
  259MOL0     H34901   9.306   1.382   2.455  0.3387 -1.6364 -2.2356
  259MOL0     H34902   9.010   1.375   2.435 -2.1011  1.6687  1.2040
  259MOL0     H34903   9.085   1.505   2.521 -2.5153 -0.5877  1.0309
  259MOL0     H34904   9.151   1.364   2.698 -0.5486 -1.7980  1.3271
  259MOL0     H34905   9.147   1.221   2.587 -0.1883 -0.4764  0.0688
  259MOL0     H34906   8.908   1.368   2.690  1.0586 -0.8045  1.7672
  259MOL0     H34907   8.916   1.223   2.580  3.5662 -0.3410 -0.8747
  259MOL0     H34908   8.966   1.086   2.728 -0.3734  0.1078  0.6994
  259MOL0     H34909   9.063   1.208   2.833 -0.1698  1.4091  0.6056
  259MOL0     H34910   8.864   1.138   2.967 -1.6041  0.2797  1.3391
  259MOL0     H34911   8.858   1.304   2.917  1.0162  0.2794 -0.1760
  259MOL0     H34912   8.705   1.080   2.783 -1.6761 -0.7048  2.0084
  259MOL0     H34913   8.698   1.255   2.742  1.6732  3.1115  0.3132
  259MOL0     H34914   8.614   1.318   2.946 -1.6599  0.5192  3.2363
  259MOL0     H34915   8.505   1.187   2.877 -0.0166  1.6862 -0.3430
  259MOL0     H34916   8.523   0.950   3.086 -0.6757  0.8573 -0.0759
  259MOL0     H34917   8.571   0.856   3.333 -0.0638  0.5877 -2.1039
  259MOL0     H34918   8.659   0.965   3.443 -0.6490  0.4837  1.8118
  259MOL0     H34919   8.427   0.936   3.519 -0.2844  3.4259  1.5587
  259MOL0     H34920   8.468   1.098   3.486 -1.5221  2.8482 -3.5352
  259MOL0     H34921   8.317   0.902   3.296 -5.3359  0.1839  0.9263
  259MOL0     H34922   8.348   1.080   3.264  3.1225 -1.5096  0.5124
  259MOL0     H34923   8.208   1.136   3.439  2.9261  1.0138 -2.2469
  259MOL0     H34924   8.189   0.969   3.503 -3.0184  1.2254 -0.0172
  259MOL0     H34925   7.850   0.973   3.190  1.0959  1.5102 -1.2767
  259MOL0     H34926   7.635   1.051   3.262  0.8940 -2.1369 -0.9868
  259MOL0     H34927   7.305   1.069   3.634 -0.8947  1.0966 -2.6884
  259MOL0     H34928   7.111   1.147   3.742  0.7274 -0.0531  0.9717
  259MOL0     H34929   7.160   1.539   3.960  0.4291  2.3814 -2.2447
  259MOL0     H34930   7.056   1.586   3.830 -2.4867  3.6747  3.1188
  259MOL0     H34931   6.983   1.641   4.029 -0.1891  0.3614 -2.7046
  259MOL0     H34932   6.861   1.532   3.954  0.4644  1.1467 -0.8915
  259MOL0     H34933   6.900   1.361   4.084 -0.8214  0.1863  0.7302
  259MOL0     H34934   7.050   1.425   4.155  1.7739  5.7605 -0.7446
  259MOL0     H34935   6.847   1.428   4.310  0.6217  0.0292  0.2573
  259MOL0     H34936   6.774   1.552   4.201 -0.6070 -2.0394 -2.3763
  259MOL0     H34937   6.961   1.705   4.246 -3.8081  2.6413  0.4113
  259MOL0     H34938   7.026   1.593   4.359 -1.8812  0.1526 -0.0762
  259MOL0     H34939   6.893   1.751   4.494  1.0209 -0.9238 -0.9412
  259MOL0     H34940   6.762   1.735   4.369  1.9938  1.0831 -2.9392
  259MOL0     H34941   6.835   1.489   4.534 -0.9902 -0.3424  1.6839
  259MOL0     H34942   6.670   1.540   4.489 -0.1131 -2.4614  0.0268
  259MOL0     H34943   6.700   1.577   4.731 -0.1549  1.9059  0.8286
  259MOL0     H34944   6.837   1.683   4.702 -0.9558  3.4361 -1.3480
  259MOL0     H34945   7.285   1.536   3.785 -0.5545  1.1169 -5.5760
  259MOL0     H34946   7.499   1.454   3.707  0.4006  0.1730  2.1860
  259MOL0     H34947   7.810   1.206   3.629  3.0079  0.9623 -1.0796
  259MOL0     H34948   8.026   1.146   3.551  2.2220 -0.7422 -3.5312
  259MOL0     H34949   9.059   1.365   2.178  1.0488  0.2376 -0.6423
  259MOL0     H34950   8.883   1.447   2.024 -0.0124 -0.6459  1.5043
  259MOL0     H34951   8.619   1.547   1.671 -3.9279  2.0004 -0.1072
  259MOL0     H34952   8.638   1.604   1.457  1.7082  1.6770 -1.1629
  259MOL0     H34953   8.928   1.944   1.340 -0.7713  0.3573  0.2125
  259MOL0     H34954   8.778   2.041   1.349  0.5137 -0.0798  1.8658
  259MOL0     H34955   8.727   1.951   1.123  1.8294 -3.7405 -4.2695
  259MOL0     H34956   8.884   1.878   1.114  0.1828  1.0846 -2.2688
  259MOL0     H34957   8.843   2.175   1.141 -1.1828  0.2351 -0.8292
  259MOL0     H34958   8.869   2.087   0.990  0.8877 -1.3434 -0.3544
  259MOL0     H34959   9.104   2.028   1.104  1.2022  0.2937  2.3231
  259MOL0     H34960   9.071   2.200   1.066  0.4097  0.2648  0.5104
  259MOL0     H34961   9.111   2.221   1.477 -0.4198 -0.1864  0.2455
  259MOL0     H34962   8.856   1.972   1.572 -3.0233  1.1024  1.6104
  259MOL0     H34963   8.815   1.961   1.900  1.0400  0.4152  1.3043
  259MOL0     H34964   8.978   1.881   1.865 -0.4926 -0.8107 -0.2770
  259MOL0     H34965   8.919   2.013   1.780  1.2775  0.4970  2.7846
  260MOL0     O34966   1.434   1.125  10.427  0.4120  0.2632 -0.3607
  260MOL0     C34967   1.452   1.089  10.310  0.0871 -0.1937 -0.3833
  260MOL0     O34968   1.360   1.114  10.209  0.0168  0.3769  0.1444
  260MOL0     C34969   1.240   1.191  10.219  0.5946  0.0266 -0.4388
  260MOL0     C34970   1.132   1.164  10.140 -0.6277 -0.0137  0.1003
  260MOL0     C34971   1.019   1.237  10.155  0.3594  0.4433  0.0255
  260MOL0     C34972   1.009   1.340  10.244  1.0686  0.4256  0.3530
  260MOL0     O34973   0.878   1.382  10.253  0.4430  0.2856  0.0323
  260MOL0     C34974   0.823   1.443  10.369 -0.9450  0.0454 -0.4484
  260MOL0     C34975   0.671   1.455  10.394  0.5943  0.7413  0.6546
  260MOL0     C34976   0.618   1.504  10.256 -0.4354  0.2259 -0.1111
  260MOL0     C34977   0.480   1.553  10.295  0.1346 -0.4528 -0.3654
  260MOL0     C34978   0.402   1.581  10.166  0.0907 -0.0747 -0.3039
  260MOL0     C34979   0.361   1.445  10.102 -0.6015 -0.4162  0.0998
  260MOL0     C34980   0.265   1.470   9.989 -0.4133  0.1314 -0.2526
  260MOL0     C34981   0.236   1.350   9.906 -0.1410  0.7882 -0.5770
  260MOL0     N34982   0.345   1.294   9.827  0.1308  0.1086 -0.3264
  260MOL0     C34983   0.430   1.197   9.871 -0.0291 -0.3330 -0.2685
  260MOL0     C34984   0.494   1.160   9.758 -0.1077  1.4266 -0.7183
  260MOL0     C34985   0.607   1.064   9.761 -0.3254  0.0771  0.8131
  260MOL0     C34986   0.713   1.096   9.865  0.2271  0.0272  0.4827
  260MOL0     C34987   0.830   1.002   9.871 -0.0726  0.1599  0.0744
  260MOL0     C34988   0.931   1.041   9.765 -0.0384  0.7678  0.1524
  260MOL0     O34989   1.042   0.952   9.758 -0.4463  0.2018 -0.1139
  260MOL0     C34990   1.036   0.817   9.738 -0.4307  0.8049 -0.2464
  260MOL0     C34991   1.126   0.744   9.807  0.9651  0.1674 -0.0094
  260MOL0     C34992   1.145   0.606   9.787  0.2636  0.8821 -1.0039
  260MOL0     C34993   1.080   0.539   9.685  0.0937 -0.2452 -1.6294
  260MOL0     C34994   1.118   0.398   9.651  0.2297 -0.8404 -0.6363
  260MOL0     O34995   1.033   0.344   9.557  0.5373  0.5484  0.1718
  260MOL0     C34996   1.034   0.201   9.537 -0.1709  0.0984 -0.4826
  260MOL0     C34997   1.084   0.108   9.622 -0.2376 -0.3859  1.2196
  260MOL0     C34998   1.079  -0.027   9.603  0.2180  0.5868  0.3601
  260MOL0     C34999   1.024  -0.081   9.483  0.4489  0.3229  0.4600
  260MOL0     O35000   1.001  -0.216   9.459  0.1499  0.0956  1.1424
  260MOL0     C35001   1.065  -0.319   9.543  0.4927 -0.4667 -0.1518
  260MOL0     C35002   1.198  -0.334   9.474 -0.5742  1.2511  0.4751
  260MOL0     C35003   1.293  -0.424   9.552 -1.1371  0.9703  0.9788
  260MOL0     C35004   1.357  -0.345   9.672 -0.7945  0.0166 -0.1017
  260MOL0     C35005   1.438  -0.443   9.761 -0.2420  0.3642  0.0984
  260MOL0     C35006   1.562  -0.504   9.696  0.2986 -0.4432 -0.5972
  260MOL0     C35007   1.641  -0.580   9.805 -0.1184  0.2192 -1.1077
  260MOL0     C35008   1.586  -0.720   9.846 -0.6318 -0.0732 -0.2562
  260MOL0    Cl35009   1.637  -0.836   9.723  0.0133  0.4688 -0.0111
  260MOL0     C35010   0.969   0.015   9.398  1.1430 -0.4532  0.6385
  260MOL0     C35011   0.972   0.153   9.420 -0.6766  0.0077  0.2819
  260MOL0     O35012   1.210   0.344   9.709  0.6581  0.7272 -0.0960
  260MOL0     C35013   0.990   0.615   9.613  0.9793  0.0786  0.0916
  260MOL0     C35014   0.962   0.754   9.639  0.0118  1.3972  0.2344
  260MOL0     N35015   0.456   1.231   9.652 -0.7095  0.2457 -0.7711
  260MOL0     N35016   0.354   1.306   9.694  0.2609  0.1458 -0.3701
  260MOL0     C35017   1.116   1.381  10.325  0.7586 -0.1771 -0.5024
  260MOL0     C35018   1.229   1.300  10.315  0.1366 -0.1245 -0.4604
  260MOL0     C35019   1.573   1.010  10.290 -0.3995  0.5929 -0.2472
  260MOL0     C35020   1.690   1.029  10.373 -0.5587 -0.1658  0.3274
  260MOL0     C35021   1.801   0.944  10.367  0.7598 -0.5217  0.2827
  260MOL0     C35022   1.804   0.849  10.265 -0.8406  0.5537 -0.4527
  260MOL0     O35023   1.913   0.767  10.233  0.4359  0.1873  0.3092
  260MOL0     C35024   2.029   0.769  10.319  0.6985 -0.6653 -0.5264
  260MOL0     C35025   2.125   0.651  10.268 -0.0319 -0.6268  0.0652
  260MOL0     C35026   2.101   0.509  10.316  1.3350  0.3003  1.2895
  260MOL0     C35027   2.167   0.474  10.453 -0.4953  0.0439 -0.0291
  260MOL0     C35028   2.129   0.554  10.571  0.3087 -0.0115  0.1597
  260MOL0     C35029   2.094   0.598  10.681  0.1519 -0.5489  0.4282
  260MOL0     C35030   1.700   0.838  10.177 -0.2025  0.4194 -0.8910
  260MOL0     C35031   1.592   0.912  10.186  0.0052 -0.2538 -0.6518
  260MOL0     C35032   1.501   0.897  10.066  0.5649 -0.2964  0.1605
  260MOL0     H35033   1.143   1.080  10.073  0.4162  0.6820 -0.6510
  260MOL0     H35034   0.931   1.222  10.093  0.5876  2.2722 -0.8132
  260MOL0     H35035   0.875   1.401  10.456 -2.0921  0.9743  0.7059
  260MOL0     H35036   0.859   1.546  10.370 -0.7172 -0.0381  0.0343
  260MOL0     H35037   0.641   1.513  10.482  0.4189 -1.3412  2.0319
  260MOL0     H35038   0.621   1.360  10.415  1.9988  0.0560  0.9657
  260MOL0     H35039   0.627   1.420  10.186  0.9539 -2.0204  2.5831
  260MOL0     H35040   0.675   1.589  10.218  0.2569 -0.7390 -1.3085
  260MOL0     H35041   0.435   1.496  10.377 -0.4977  0.6875  0.0978
  260MOL0     H35042   0.498   1.647  10.347  2.9473 -0.5611 -1.0019
  260MOL0     H35043   0.313   1.635  10.198 -1.3838 -1.3985 -1.9274
  260MOL0     H35044   0.461   1.637  10.093  0.8075 -1.7759 -1.0854
  260MOL0     H35045   0.454   1.398  10.070  0.7953  0.3841  2.7210
  260MOL0     H35046   0.328   1.376  10.181 -1.2274 -1.0701 -0.7108
  260MOL0     H35047   0.306   1.550   9.928  0.3835  2.3923  2.9802
  260MOL0     H35048   0.172   1.511  10.030 -0.6612 -0.2189 -0.4513
  260MOL0     H35049   0.199   1.271   9.972  4.1408 -1.0852 -0.0844
  260MOL0     H35050   0.147   1.373   9.847 -2.0529 -1.3441  1.2968
  260MOL0     H35051   0.453   1.163   9.971 -2.0209 -1.6579 -0.2023
  260MOL0     H35052   0.569   0.965   9.788 -0.9753  0.3606  0.9514
  260MOL0     H35053   0.647   1.050   9.660 -1.6424  1.1391  0.1243
  260MOL0     H35054   0.748   1.198   9.845  0.8694 -0.6330 -2.1840
  260MOL0     H35055   0.660   1.079   9.959  0.6991 -3.7116  0.2094
  260MOL0     H35056   0.802   0.897   9.854  0.4337  0.2710 -1.6380
  260MOL0     H35057   0.883   1.024   9.964  0.4422 -0.0405 -0.1634
  260MOL0     H35058   0.961   1.145   9.779 -1.6436  1.3138 -0.3259
  260MOL0     H35059   0.889   1.050   9.665  1.8909  0.3692 -0.7350
  260MOL0     H35060   1.192   0.787   9.882  2.8517 -2.2949 -0.1209
  260MOL0     H35061   1.205   0.554   9.861 -0.4889 -1.9687 -2.2721
  260MOL0     H35062   1.127   0.129   9.719 -1.1486 -1.6575  1.9324
  260MOL0     H35063   1.133  -0.081   9.680 -0.8148  2.9750  2.9108
  260MOL0     H35064   1.079  -0.278   9.643 -2.7945  4.1357 -1.2179
  260MOL0     H35065   1.012  -0.415   9.544  0.4413 -0.4382 -0.1374
  260MOL0     H35066   1.166  -0.376   9.378  1.9071 -0.8703  0.4866
  260MOL0     H35067   1.254  -0.247   9.436  2.0838 -1.5986 -2.7979
  260MOL0     H35068   1.226  -0.507   9.578  0.5355 -1.0421 -0.6443
  260MOL0     H35069   1.365  -0.467   9.482 -0.2643  1.2477  1.6890
  260MOL0     H35070   1.282  -0.294   9.734  0.0220  0.1977  0.7619
  260MOL0     H35071   1.432  -0.274   9.637  2.3380 -0.9168  3.8880
  260MOL0     H35072   1.361  -0.516   9.789 -0.3109 -0.2553 -1.5505
  260MOL0     H35073   1.463  -0.384   9.849  1.2856  3.5347 -2.2488
  260MOL0     H35074   1.527  -0.569   9.616 -0.9872  1.3953 -1.6014
  260MOL0     H35075   1.609  -0.417   9.649  0.0908 -0.6586 -1.2128
  260MOL0     H35076   1.658  -0.511   9.888 -1.8355 -1.1695  0.4857
  260MOL0     H35077   1.738  -0.594   9.756  1.3183  0.8125  1.3569
  260MOL0     H35078   1.640  -0.743   9.939 -1.3397 -2.0081 -0.2802
  260MOL0     H35079   1.481  -0.699   9.865 -0.6757 -0.4772 -0.0376
  260MOL0     H35080   0.919  -0.034   9.314 -0.2877 -1.6288  2.1111
  260MOL0     H35081   0.922   0.219   9.350 -4.3053 -3.5304 -0.8508
  260MOL0     H35082   0.950   0.567   9.525  0.9043  1.0823 -0.4388
  260MOL0     H35083   0.916   0.814   9.561 -1.3214 -3.2466 -3.0663
  260MOL0     H35084   1.111   1.455  10.405 -0.8859 -0.2576 -0.4988
  260MOL0     H35085   1.315   1.324  10.376  0.8643 -1.7552 -0.7811
  260MOL0     H35086   1.703   1.114  10.439  1.4081  0.4094 -0.7261
  260MOL0     H35087   1.874   0.971  10.443 -0.9048 -0.3213  1.8638
  260MOL0     H35088   2.003   0.754  10.425  2.7508  0.6903  0.2210
  260MOL0     H35089   2.083   0.863  10.316  0.2236 -0.3521  0.4079
  260MOL0     H35090   2.228   0.680  10.289  0.1088 -0.6696 -0.5423
  260MOL0     H35091   2.120   0.637  10.159 -0.5726  1.7550 -0.2754
  260MOL0     H35092   2.136   0.445  10.234  1.3748  2.8760 -0.8322
  260MOL0     H35093   1.992   0.502  10.329  0.8748 -0.0254 -1.8498
  260MOL0     H35094   2.156   0.367  10.469  0.4293 -0.2966 -1.4124
  260MOL0     H35095   2.275   0.489  10.443 -0.6949  1.0639 -0.9828
  260MOL0     H35096   2.048   0.628  10.773  0.2655  0.6369  0.1231
  260MOL0     H35097   1.712   0.774  10.091 -1.7053 -1.8408  0.4759
  260MOL0     H35098   1.514   0.804  10.010 -0.2548  1.5961 -3.5249
  260MOL0     H35099   1.399   0.903  10.104  0.2149  1.9005 -0.9812
  260MOL0     H35100   1.533   0.983  10.006  1.3288 -0.6070  0.1135
  261MOL0     O35101   5.481   3.516  10.262 -0.4897  0.8194  0.2843
  261MOL0     C35102   5.407   3.612  10.294  0.1857 -0.3817  0.2724
  261MOL0     O35103   5.322   3.672  10.207  0.4755 -0.2526  0.3909
  261MOL0     C35104   5.315   3.632  10.077  1.3008  0.2069 -0.2947
  261MOL0     C35105   5.396   3.692   9.980  0.1025 -0.6476 -0.1246
  261MOL0     C35106   5.378   3.658   9.839 -0.0870 -0.0354 -0.1762
  261MOL0     C35107   5.279   3.570   9.808  0.3424 -0.1392  0.2406
  261MOL0     O35108   5.261   3.535   9.672 -0.2560 -0.9663 -0.1974
  261MOL0     C35109   5.261   3.391   9.659  0.4572  0.4228 -0.3112
  261MOL0     C35110   5.339   3.337   9.545  0.2340  0.5227  0.1201
  261MOL0     C35111   5.488   3.349   9.562  0.1954  0.2526  0.8592
  261MOL0     C35112   5.555   3.395   9.428  0.5605  0.7964 -0.1848
  261MOL0     C35113   5.710   3.426   9.443  0.2470 -0.1127  0.0043
  261MOL0     C35114   5.800   3.315   9.389 -0.4186  0.4745 -0.0027
  261MOL0     C35115   5.782   3.167   9.436 -0.1176 -0.1100  0.2882
  261MOL0     C35116   5.821   3.147   9.588 -0.0065  0.1231  0.3146
  261MOL0     N35117   5.810   3.005   9.638 -0.4673 -0.0297  0.3735
  261MOL0     C35118   5.824   2.976   9.769  0.5277 -0.6466  0.3077
  261MOL0     C35119   5.789   2.849   9.791  0.3388 -0.7202  0.2467
  261MOL0     C35120   5.772   2.770   9.919  1.6951  1.2721  0.3242
  261MOL0     C35121   5.861   2.806  10.037 -0.8286 -0.2438  0.2110
  261MOL0     C35122   5.876   2.708  10.160  0.3337  0.5252  0.7214
  261MOL0     C35123   5.951   2.577  10.134  0.1900 -0.4483 -0.0476
  261MOL0     O35124   5.965   2.514  10.255  0.2322 -0.5551 -1.2032
  261MOL0     C35125   6.029   2.387  10.264 -0.2630 -0.6881 -0.6367
  261MOL0     C35126   6.078   2.321  10.156 -0.4814 -0.6158 -0.1521
  261MOL0     C35127   6.135   2.189  10.170  0.7197 -0.0970 -0.0360
  261MOL0     C35128   6.129   2.128  10.286 -0.0249  0.3165  0.4597
  261MOL0     C35129   6.159   1.986  10.310 -0.1598 -1.2466  0.3340
  261MOL0     O35130   6.267   1.939  10.238 -0.1067  0.0882  0.7735
  261MOL0     C35131   6.289   1.804  10.256 -0.9489  0.1814  0.4506
  261MOL0     C35132   6.202   1.710  10.198 -0.6426  0.7258  0.1582
  261MOL0     C35133   6.240   1.572  10.196 -0.1793 -1.5143  0.8738
  261MOL0     C35134   6.354   1.530  10.268  0.1869 -0.6543 -0.0382
  261MOL0     O35135   6.390   1.400  10.271  0.0173  0.1087 -0.9287
  261MOL0     C35136   6.479   1.353  10.379  1.2474  0.5424  0.6287
  261MOL0     C35137   6.477   1.195  10.368  0.2111  0.5422  0.1610
  261MOL0     C35138   6.357   1.129  10.437 -0.2004 -0.5400  1.4948
  261MOL0     C35139   6.395   0.990  10.487 -0.1919  0.8010 -0.2762
  261MOL0     C35140   6.268   0.907  10.526 -0.9287  0.1543 -0.1128
  261MOL0     C35141   6.300   0.782  10.614  0.1249  0.2816 -0.2815
  261MOL0     C35142   6.175   0.703  10.659 -0.2943  0.4471 -0.1683
  261MOL0     C35143   6.099   0.747  10.774  0.3361  1.0454 -0.2403
  261MOL0    Cl35144   6.002   0.890  10.750  0.1035  0.2275 -0.0247
  261MOL0     C35145   6.442   1.629  10.323 -0.1292 -1.2549  0.2514
  261MOL0     C35146   6.407   1.766  10.315  0.0890 -0.7679  0.0474
  261MOL0     O35147   6.090   1.932  10.391 -0.4373 -0.7345 -0.2536
  261MOL0     C35148   6.086   2.197  10.396  0.1161  0.2412  0.6506
  261MOL0     C35149   6.038   2.322  10.389  0.0657  0.4565 -0.3363
  261MOL0     N35150   5.774   2.795   9.668 -0.2370 -0.4096  0.7684
  261MOL0     N35151   5.783   2.884   9.582 -0.2586 -0.1492  0.6485
  261MOL0     C35152   5.186   3.521   9.910 -0.2084 -0.0054  0.3148
  261MOL0     C35153   5.206   3.553  10.043  1.0012 -0.8208  1.2933
  261MOL0     C35154   5.409   3.666  10.431  0.1023  0.5418 -0.0803
  261MOL0     C35155   5.308   3.741  10.471 -0.4244 -0.3426 -0.6753
  261MOL0     C35156   5.290   3.783  10.604 -1.3313  0.5948 -0.3669
  261MOL0     C35157   5.398   3.771  10.698  0.9499 -0.2141 -0.0566
  261MOL0     O35158   5.405   3.833  10.818  0.0378 -0.0642 -0.0845
  261MOL0     C35159   5.318   3.945  10.840  0.0292  0.0175 -0.2796
  261MOL0     C35160   5.204   3.923  10.952  0.6576  0.2058 -0.2370
  261MOL0     C35161   5.258   3.858  11.080  0.3974  0.2279  0.4561
  261MOL0     C35162   5.141   3.812  11.168  0.7261  0.2960  0.0619
  261MOL0     C35163   5.193   3.737  11.283  0.1128  0.8437  0.3063
  261MOL0     C35164   5.238   3.693  11.392 -0.6544 -0.3990  1.1105
  261MOL0     C35165   5.506   3.702  10.652 -0.0395 -0.4911 -0.2228
  261MOL0     C35166   5.513   3.648  10.522  0.8722 -0.3091 -0.5816
  261MOL0     C35167   5.633   3.560  10.496 -0.5719 -0.2898 -0.2020
  261MOL0     H35168   5.478   3.757  10.005 -0.7453  0.0733  0.8751
  261MOL0     H35169   5.436   3.707   9.762 -2.9606  2.6680 -0.8244
  261MOL0     H35170   5.278   3.343   9.755 -0.2198  0.2653 -0.2668
  261MOL0     H35171   5.163   3.353   9.627 -1.1937  4.5318 -0.7385
  261MOL0     H35172   5.304   3.392   9.457 -1.5763 -0.3955  0.2137
  261MOL0     H35173   5.314   3.235   9.514 -1.2588  0.7874  0.3598
  261MOL0     H35174   5.523   3.250   9.589 -2.2290 -0.9714 -0.2047
  261MOL0     H35175   5.497   3.427   9.638  0.2268  0.8722  0.2362
  261MOL0     H35176   5.537   3.322   9.348  2.2144 -0.0487  0.1732
  261MOL0     H35177   5.509   3.489   9.397  0.5633  0.7673 -0.2798
  261MOL0     H35178   5.724   3.527   9.401 -0.1196  0.9826  2.3664
  261MOL0     H35179   5.739   3.436   9.547  3.8503 -0.2129 -0.8584
  261MOL0     H35180   5.787   3.325   9.281 -5.8998  1.3695  0.4491
  261MOL0     H35181   5.905   3.339   9.406 -0.5925  2.2143 -1.0956
  261MOL0     H35182   5.848   3.101   9.379 -1.7030 -1.8529  0.3778
  261MOL0     H35183   5.678   3.135   9.426 -1.0960  1.5412  3.7218
  261MOL0     H35184   5.925   3.177   9.599 -0.5156  2.1169  0.1211
  261MOL0     H35185   5.753   3.209   9.648 -2.4786 -1.6307 -0.4925
  261MOL0     H35186   5.851   3.047   9.847  0.5435 -0.4030  0.0788
  261MOL0     H35187   5.667   2.775   9.949  0.2298 -3.0778 -2.9340
  261MOL0     H35188   5.795   2.665   9.896 -0.1991  1.1684 -1.4253
  261MOL0     H35189   5.961   2.796   9.992  0.1748 -3.4944  2.7611
  261MOL0     H35190   5.832   2.907  10.067  0.4499  0.2481 -0.1367
  261MOL0     H35191   5.779   2.669  10.194 -0.4306  3.2157  1.8882
  261MOL0     H35192   5.925   2.758  10.243  3.5850  0.2042 -0.8355
  261MOL0     H35193   6.043   2.612  10.086  0.2402 -1.7315 -0.9329
  261MOL0     H35194   5.900   2.510  10.064 -3.1370  1.3522  0.4403
  261MOL0     H35195   6.080   2.361  10.055  0.9623  0.4767  0.2768
  261MOL0     H35196   6.183   2.123  10.098  0.4764  1.0191 -1.2635
  261MOL0     H35197   6.108   1.749  10.160 -2.6725 -2.2859  1.6038
  261MOL0     H35198   6.162   1.506  10.159  0.9019 -2.2787 -0.1124
  261MOL0     H35199   6.581   1.383  10.352  0.4333 -0.2833 -4.2644
  261MOL0     H35200   6.443   1.400  10.471  0.0987  0.0103  0.4583
  261MOL0     H35201   6.483   1.166  10.263  1.2208 -0.1698  0.3992
  261MOL0     H35202   6.567   1.154  10.415  0.7004  1.9060  0.4503
  261MOL0     H35203   6.336   1.194  10.522 -1.0026  0.5115  0.5277
  261MOL0     H35204   6.277   1.120  10.363  2.0743 -1.1093 -1.0781
  261MOL0     H35205   6.457   0.994  10.577  2.8378 -0.1191 -2.1614
  261MOL0     H35206   6.438   0.931  10.405 -0.7037  0.2950 -0.1883
  261MOL0     H35207   6.223   0.873  10.433 -0.9702  2.1527 -0.8781
  261MOL0     H35208   6.196   0.974  10.574 -2.8619 -1.3078 -0.8614
  261MOL0     H35209   6.380   0.720  10.574 -1.5061 -2.3091  0.2069
  261MOL0     H35210   6.336   0.814  10.712 -1.4878  1.2128  0.0468
  261MOL0     H35211   6.209   0.600  10.674  0.0205  0.1541 -2.5306
  261MOL0     H35212   6.099   0.697  10.581  2.2644 -1.0824 -2.7397
  261MOL0     H35213   6.031   0.669  10.809  1.9049 -0.0142  0.5550
  261MOL0     H35214   6.158   0.773  10.862 -0.3975 -0.0611  0.6036
  261MOL0     H35215   6.534   1.599  10.372 -0.8262 -2.1276  1.0415
  261MOL0     H35216   6.471   1.840  10.362 -2.5523  1.7308 -0.0776
  261MOL0     H35217   6.093   2.148  10.493 -0.5018  2.6691  2.0081
  261MOL0     H35218   5.998   2.369  10.479 -2.6022  2.7355 -2.5144
  261MOL0     H35219   5.104   3.457   9.880 -2.0171  1.0934  2.5916
  261MOL0     H35220   5.154   3.509  10.128  0.5211  1.1512  2.0762
  261MOL0     H35221   5.240   3.776  10.394  0.2697  1.3165 -0.5890
  261MOL0     H35222   5.190   3.809  10.635 -2.4327 -2.2649 -1.2402
  261MOL0     H35223   5.267   3.994  10.757 -0.5280 -2.4171 -1.4601
  261MOL0     H35224   5.381   4.025  10.880  0.4383 -0.1789 -0.5217
  261MOL0     H35225   5.133   3.850  10.911  0.9145  0.6304 -1.5001
  261MOL0     H35226   5.146   4.013  10.977 -0.8831 -0.9209  0.3837
  261MOL0     H35227   5.322   3.932  11.130 -0.6228 -0.5872  3.1136
  261MOL0     H35228   5.293   3.762  11.043 -4.0916 -1.5985  0.2623
  261MOL0     H35229   5.065   3.883  11.202 -2.1650 -2.4929 -0.1353
  261MOL0     H35230   5.091   3.735  11.108  1.1827 -2.0689  2.5383
  261MOL0     H35231   5.276   3.651  11.483  0.5727 -1.3197  0.1939
  261MOL0     H35232   5.592   3.693  10.718  1.4708  0.3383 -1.9864
  261MOL0     H35233   5.602   3.456  10.481  0.4005 -0.4755 -1.0306
  261MOL0     H35234   5.694   3.587  10.410 -0.5040 -0.0582 -0.0815
  261MOL0     H35235   5.705   3.571  10.578  0.5552  1.9362 -1.3901
  262MOL0     O35236   3.644   0.786   3.368 -0.2473  0.7246  0.3725
  262MOL0     C35237   3.635   0.884   3.290  0.6261 -0.1023 -0.3971
  262MOL0     O35238   3.703   0.896   3.173 -0.1930 -0.4734 -0.1343
  262MOL0     C35239   3.766   0.795   3.091 -0.0154  0.0717 -0.8154
  262MOL0     C35240   3.846   0.846   2.995  0.8288  0.2800 -0.5462
  262MOL0     C35241   3.914   0.764   2.906  0.3323  0.0143 -0.3648
  262MOL0     C35242   3.917   0.628   2.920  0.1526  0.5389  0.8226
  262MOL0     O35243   3.978   0.541   2.826 -0.4976 -0.5035  0.2337
  262MOL0     C35244   3.977   0.401   2.854 -0.3432  0.3629  0.2348
  262MOL0     C35245   4.067   0.326   2.754  0.2124 -0.0871 -0.2669
  262MOL0     C35246   4.032   0.346   2.607 -0.4190  0.1100  0.7239
  262MOL0     C35247   4.137   0.272   2.516 -0.0535 -0.2250 -0.8150
  262MOL0     C35248   4.112   0.236   2.370  0.2204 -0.3884 -0.1389
  262MOL0     C35249   4.237   0.184   2.301 -1.0906 -0.0726 -0.4894
  262MOL0     C35250   4.213   0.174   2.149  0.0491 -0.1236 -0.3319
  262MOL0     C35251   4.350   0.134   2.087  0.2791 -0.4263 -0.3785
  262MOL0     N35252   4.343   0.107   1.947  0.0052  0.2431  0.6773
  262MOL0     C35253   4.342  -0.018   1.889  0.4281 -0.3098 -0.5537
  262MOL0     C35254   4.377  -0.012   1.755 -0.0272  0.5426 -0.0645
  262MOL0     C35255   4.402  -0.120   1.658 -0.0467  0.0394 -0.2998
  262MOL0     C35256   4.320  -0.249   1.659 -0.2237 -0.5794 -0.1165
  262MOL0     C35257   4.336  -0.326   1.527 -0.9736 -0.2340 -1.2783
  262MOL0     C35258   4.260  -0.459   1.526 -0.6853 -0.0927  0.7021
  262MOL0     O35259   4.237  -0.490   1.395  0.9023  0.2860  0.0510
  262MOL0     C35260   4.130  -0.441   1.327 -0.3953  0.4499  0.2895
  262MOL0     C35261   4.155  -0.390   1.202  0.0270 -0.4219 -0.7883
  262MOL0     C35262   4.063  -0.333   1.121  0.3271 -0.0195 -0.2392
  262MOL0     C35263   3.925  -0.325   1.162  0.0136  0.3095 -0.3103
  262MOL0     C35264   3.826  -0.258   1.074  0.5158 -0.1052 -0.4316
  262MOL0     O35265   3.869  -0.174   0.982 -0.3998 -0.2897  0.4852
  262MOL0     C35266   3.781  -0.106   0.905 -0.4418 -0.0324 -0.0594
  262MOL0     C35267   3.764   0.032   0.912 -0.0359  0.2713 -0.3293
  262MOL0     C35268   3.667   0.090   0.835  0.5474  1.0815  0.1202
  262MOL0     C35269   3.606   0.006   0.739 -0.1277 -0.3866 -0.1954
  262MOL0     O35270   3.522   0.052   0.646  0.9165  0.1492  0.2808
  262MOL0     C35271   3.457   0.177   0.661  0.1608  0.1946 -0.8154
  262MOL0     C35272   3.371   0.184   0.539  0.0204 -0.2121 -0.1566
  262MOL0     C35273   3.257   0.073   0.523  0.2022 -0.3317 -0.3026
  262MOL0     C35274   3.158   0.121   0.423 -1.1354 -0.4840 -0.0040
  262MOL0     C35275   3.216   0.149   0.281 -0.5623  0.6287  0.4126
  262MOL0     C35276   3.109   0.189   0.171 -0.4778  0.0293 -0.5360
  262MOL0     C35277   3.016   0.304   0.216 -0.0226 -1.2117  0.0326
  262MOL0     C35278   2.940   0.369   0.099 -1.4722 -0.2830  0.5367
  262MOL0    Cl35279   2.860   0.233   0.024  0.5112  0.0571  0.3509
  262MOL0     C35280   3.618  -0.131   0.731  0.3199 -0.5426 -0.6218
  262MOL0     C35281   3.711  -0.184   0.816  0.4097 -1.1980  1.0245
  262MOL0     O35282   3.705  -0.271   1.099  0.3371 -0.2664  0.1329
  262MOL0     C35283   3.892  -0.371   1.291 -0.9822  0.1399 -0.6028
  262MOL0     C35284   3.999  -0.422   1.374  1.0757 -0.6700 -0.1048
  262MOL0     N35285   4.409   0.118   1.742  0.0319 -0.2007  0.1338
  262MOL0     N35286   4.394   0.188   1.850  0.3044 -0.3072 -0.4587
  262MOL0     C35287   3.838   0.570   3.017  0.0920 -0.7933  0.3849
  262MOL0     C35288   3.770   0.654   3.103 -0.1867 -0.0197  0.2473
  262MOL0     C35289   3.548   0.998   3.327  0.6163 -0.8915  0.1601
  262MOL0     C35290   3.540   1.043   3.467 -0.3455  0.1059  0.3386
  262MOL0     C35291   3.466   1.151   3.501  0.7829 -0.9118  0.1290
  262MOL0     C35292   3.395   1.221   3.405  0.1174 -0.2495  0.4778
  262MOL0     O35293   3.322   1.334   3.439 -0.3554 -0.3601  0.0517
  262MOL0     C35294   3.304   1.453   3.362 -0.2213  0.5408 -0.4941
  262MOL0     C35295   3.317   1.580   3.464  0.4723 -0.0797 -0.0817
  262MOL0     C35296   3.256   1.708   3.405 -0.2873  0.2775  0.3886
  262MOL0     C35297   3.271   1.831   3.496 -0.5479  0.6672  0.0376
  262MOL0     C35298   3.406   1.876   3.482  0.3586 -0.2180 -0.7210
  262MOL0     C35299   3.506   1.918   3.463  0.0399  0.0244  0.2388
  262MOL0     C35300   3.402   1.182   3.274 -1.0708  0.0488 -0.7073
  262MOL0     C35301   3.473   1.071   3.233 -0.7904 -0.0225 -0.7750
  262MOL0     C35302   3.473   1.028   3.087  0.8038  0.3286  0.3359
  262MOL0     H35303   3.844   0.954   2.981 -4.1321  0.9672  2.9314
  262MOL0     H35304   3.968   0.809   2.824 -1.2553 -2.3015 -2.8834
  262MOL0     H35305   4.009   0.378   2.955  0.1348  0.7501  0.1748
  262MOL0     H35306   3.877   0.357   2.847 -0.5418  0.3260  2.5402
  262MOL0     H35307   4.068   0.221   2.784  1.5219  0.9772  4.2385
  262MOL0     H35308   4.170   0.357   2.776 -0.2196  1.0241  0.2689
  262MOL0     H35309   4.039   0.451   2.576 -1.3541 -0.4753 -1.7424
  262MOL0     H35310   3.931   0.311   2.585 -0.9886  0.8514  2.0375
  262MOL0     H35311   4.235   0.320   2.522 -1.3554  2.6003 -0.7110
  262MOL0     H35312   4.150   0.173   2.562  1.5256 -0.7364 -2.2426
  262MOL0     H35313   4.034   0.161   2.354 -1.9996  1.9050 -0.7027
  262MOL0     H35314   4.089   0.326   2.312  1.5661 -0.5875 -1.0297
  262MOL0     H35315   4.317   0.253   2.330 -1.9788  0.0263  1.9915
  262MOL0     H35316   4.248   0.083   2.341 -0.1062  0.3389  0.3444
  262MOL0     H35317   4.185   0.276   2.119  0.2941  0.3327  0.9528
  262MOL0     H35318   4.124   0.115   2.124 -0.1930  0.4816 -0.9434
  262MOL0     H35319   4.431   0.205   2.108  2.3758 -2.0347 -2.4344
  262MOL0     H35320   4.383   0.048   2.145  0.8558 -0.0747 -0.1818
  262MOL0     H35321   4.338  -0.112   1.944 -1.3966 -0.7982 -1.4375
  262MOL0     H35322   4.400  -0.065   1.564  1.2559 -1.2825 -1.1578
  262MOL0     H35323   4.507  -0.149   1.663  0.3565  0.9528 -2.2805
  262MOL0     H35324   4.337  -0.318   1.743 -3.5061 -1.7168 -0.2214
  262MOL0     H35325   4.214  -0.230   1.679 -0.7903 -1.9345 -1.6523
  262MOL0     H35326   4.442  -0.347   1.513 -0.3208  1.1967  0.9739
  262MOL0     H35327   4.299  -0.264   1.445 -1.9143  4.3666  2.1886
  262MOL0     H35328   4.174  -0.456   1.593 -1.8089  1.8463 -0.7117
  262MOL0     H35329   4.324  -0.534   1.573  0.2841  0.8492  0.9094
  262MOL0     H35330   4.259  -0.395   1.170 -0.1854 -2.4298 -1.2807
  262MOL0     H35331   4.096  -0.280   1.032 -1.2565 -0.1163 -0.9023
  262MOL0     H35332   3.814   0.101   0.978 -0.9948 -0.7900  1.5859
  262MOL0     H35333   3.642   0.195   0.837 -1.9809  0.5609 -0.0877
  262MOL0     H35334   3.391   0.186   0.747  1.6778  0.1639  0.3886
  262MOL0     H35335   3.534   0.255   0.658  0.8463 -0.2992  1.7679
  262MOL0     H35336   3.329   0.284   0.548 -1.3402 -0.9165  2.2886
  262MOL0     H35337   3.437   0.178   0.452 -2.5347  1.1490 -2.3288
  262MOL0     H35338   3.312  -0.020   0.509 -0.1727 -0.5207 -0.5091
  262MOL0     H35339   3.204   0.064   0.618  0.9818  0.0717  0.1867
  262MOL0     H35340   3.105   0.203   0.471  2.1414  1.5321  0.4630
  262MOL0     H35341   3.088   0.038   0.406 -3.4513  1.6444 -1.5131
  262MOL0     H35342   3.263   0.059   0.242  1.7180  0.9019  2.2768
  262MOL0     H35343   3.285   0.234   0.287  1.7707 -1.2097  0.9853
  262MOL0     H35344   3.147   0.225   0.075 -0.7642 -1.7822 -1.3734
  262MOL0     H35345   3.060   0.092   0.161 -1.2613  0.4470 -0.8498
  262MOL0     H35346   3.084   0.377   0.261  0.9964 -2.5409  0.7776
  262MOL0     H35347   2.943   0.282   0.295  0.3372 -0.9478  0.4462
  262MOL0     H35348   2.885   0.461   0.123  1.1399  2.4083 -2.6482
  262MOL0     H35349   3.007   0.421   0.030 -0.1360  1.4037  2.9826
  262MOL0     H35350   3.556  -0.190   0.664  0.3958 -0.4622 -0.7618
  262MOL0     H35351   3.736  -0.289   0.819 -2.2841 -1.9095  2.4685
  262MOL0     H35352   3.797  -0.352   1.339 -0.8884 -1.1349  0.1344
  262MOL0     H35353   3.975  -0.454   1.475  1.7565  1.0871  0.6506
  262MOL0     H35354   3.821   0.467   3.048  3.5229 -1.1314  1.6241
  262MOL0     H35355   3.718   0.602   3.183  0.1080 -2.5889 -1.1360
  262MOL0     H35356   3.608   0.995   3.536  2.5419  1.4998 -1.3273
  262MOL0     H35357   3.459   1.193   3.601 -1.3946  2.1411 -1.1535
  262MOL0     H35358   3.209   1.457   3.308 -1.0727  1.6829  0.9974
  262MOL0     H35359   3.388   1.452   3.291  2.3235  0.1881  2.3124
  262MOL0     H35360   3.424   1.597   3.476  0.6210 -1.5661  1.0469
  262MOL0     H35361   3.265   1.557   3.558 -2.5856 -0.7461 -1.7807
  262MOL0     H35362   3.154   1.676   3.382  0.3623 -2.1576  0.6615
  262MOL0     H35363   3.313   1.722   3.313  1.2998 -4.3113  0.4342
  262MOL0     H35364   3.198   1.905   3.463 -2.0501  0.1440  1.9705
  262MOL0     H35365   3.240   1.805   3.598 -1.6849 -3.0416 -1.0827
  262MOL0     H35366   3.602   1.963   3.449 -0.7003  2.6013  2.4345
  262MOL0     H35367   3.352   1.244   3.200  0.9428  0.0970 -2.0852
  262MOL0     H35368   3.381   1.065   3.040  0.3232 -1.1155  0.0951
  262MOL0     H35369   3.564   1.057   3.033  0.9945 -4.6025 -2.6206
  262MOL0     H35370   3.469   0.919   3.078 -0.3601  0.3950 -0.0152
  263MOL0     O35371   0.738   0.022   2.050  0.5833 -0.7292 -0.3920
  263MOL0     C35372   0.624   0.004   2.004 -0.3111 -0.6825  0.3346
  263MOL0     O35373   0.507   0.054   2.048  0.2206  0.2417 -0.3101
  263MOL0     C35374   0.496   0.164   2.138  0.3467 -1.6876  0.4014
  263MOL0     C35375   0.564   0.183   2.249 -1.1901  0.2529  0.0999
  263MOL0     C35376   0.549   0.300   2.330 -0.0199 -0.4670  0.7454
  263MOL0     C35377   0.454   0.389   2.295 -0.2258 -0.3977 -0.4059
  263MOL0     O35378   0.435   0.502   2.369  0.2579  0.1106 -0.7178
  263MOL0     C35379   0.300   0.515   2.412 -0.3043 -0.0088 -0.5929
  263MOL0     C35380   0.298   0.620   2.530 -0.4240  0.6829 -0.5253
  263MOL0     C35381   0.385   0.574   2.650  0.3878  0.1154  0.2288
  263MOL0     C35382   0.471   0.687   2.716 -0.4540  0.3095 -0.5003
  263MOL0     C35383   0.389   0.764   2.815  0.3227 -0.2530  0.1635
  263MOL0     C35384   0.422   0.917   2.806  1.2109 -0.3685 -0.6402
  263MOL0     C35385   0.328   0.988   2.907 -0.1537 -0.0244  0.7871
  263MOL0     C35386   0.314   1.131   2.855  0.2641 -0.2686 -0.2431
  263MOL0     N35387   0.439   1.204   2.843  0.4304  1.1915 -0.6220
  263MOL0     C35388   0.494   1.268   2.949 -0.0946 -0.4520 -0.2138
  263MOL0     C35389   0.607   1.319   2.888  0.9475  0.3788 -0.1033
  263MOL0     C35390   0.722   1.391   2.952 -0.6262  0.9117  0.0638
  263MOL0     C35391   0.697   1.536   2.973  0.0416 -1.1331 -0.0397
  263MOL0     C35392   0.599   1.560   3.090  0.0631  0.9389  0.3042
  263MOL0     C35393   0.683   1.601   3.210  0.3494  0.3313 -0.4286
  263MOL0     O35394   0.772   1.711   3.194 -0.1973  0.0029  0.7283
  263MOL0     C35395   0.722   1.838   3.152 -0.4688  0.1920  0.2675
  263MOL0     C35396   0.826   1.933   3.116  0.4095 -0.1660  0.8683
  263MOL0     C35397   0.779   2.063   3.075  0.6432  0.1048  1.0091
  263MOL0     C35398   0.641   2.092   3.071  0.3034  0.5040  0.2609
  263MOL0     C35399   0.587   2.221   3.033 -0.1876 -0.9964  0.8258
  263MOL0     O35400   0.477   2.271   3.096  0.5117 -0.2656  0.7764
  263MOL0     C35401   0.394   2.367   3.038  0.1634 -0.3340 -0.2022
  263MOL0     C35402   0.260   2.348   3.079  0.8736  0.0577  0.3812
  263MOL0     C35403   0.155   2.439   3.034 -0.8984  0.4148 -0.0176
  263MOL0     C35404   0.190   2.555   2.961 -0.5819  0.3716 -0.0407
  263MOL0     O35405   0.100   2.646   2.916 -0.0779 -0.3663  0.7105
  263MOL0     C35406  -0.004   2.601   2.838  0.9502  1.0263  0.4014
  263MOL0     C35407  -0.063   2.720   2.752 -0.2459  0.4559 -0.6066
  263MOL0     C35408  -0.218   2.745   2.783 -0.4345  0.9444  0.2836
  263MOL0     C35409  -0.234   2.797   2.927  0.4096 -1.0284  0.0031
  263MOL0     C35410  -0.377   2.798   2.976  0.2520  1.0802 -0.1391
  263MOL0     C35411  -0.479   2.878   2.888  0.0846 -0.0364 -0.0634
  263MOL0     C35412  -0.623   2.873   2.938 -0.3699 -0.5867 -0.5702
  263MOL0     C35413  -0.688   2.738   2.964  0.5059  0.2125  0.2492
  263MOL0    Cl35414  -0.715   2.643   2.820 -0.0644 -0.5809  0.5679
  263MOL0     C35415   0.326   2.581   2.936  0.8371  0.9190 -0.3966
  263MOL0     C35416   0.426   2.482   2.966 -0.5051  0.0792  0.0976
  263MOL0     O35417   0.651   2.283   2.946 -1.2741 -0.3168 -0.0942
  263MOL0     C35418   0.544   1.996   3.110  0.1496 -1.0790 -0.8432
  263MOL0     C35419   0.586   1.872   3.157  0.1533  0.0966  0.2386
  263MOL0     N35420   0.606   1.294   2.758  0.4628 -0.5030  1.3336
  263MOL0     N35421   0.499   1.231   2.728  0.7861  0.2215 -0.0417
  263MOL0     C35422   0.375   0.364   2.179 -0.3006 -0.1861  1.1436
  263MOL0     C35423   0.396   0.253   2.097 -0.2624 -0.2580  0.4281
  263MOL0     C35424   0.615  -0.093   1.889  0.0113  0.4218 -0.4048
  263MOL0     C35425   0.542  -0.208   1.922 -1.4121 -0.1677  0.1742
  263MOL0     C35426   0.527  -0.300   1.815 -0.6487 -0.8646  0.3646
  263MOL0     C35427   0.593  -0.286   1.690 -0.5424  0.3969 -0.1035
  263MOL0     O35428   0.588  -0.377   1.587  0.4209 -0.0128  0.0458
  263MOL0     C35429   0.523  -0.510   1.588  0.2125  0.1934 -0.0609
  263MOL0     C35430   0.469  -0.530   1.444 -0.0359 -0.5834  0.7371
  263MOL0     C35431   0.523  -0.648   1.379 -0.1085 -0.7771  0.3939
  263MOL0     C35432   0.440  -0.693   1.253  1.3980 -1.3263 -0.2719
  263MOL0     C35433   0.479  -0.830   1.207 -0.3223  0.6636 -0.4996
  263MOL0     C35434   0.490  -0.953   1.172  0.9538 -0.3380  0.2085
  263MOL0     C35435   0.676  -0.175   1.673  0.8205  0.0100 -0.3258
  263MOL0     C35436   0.684  -0.076   1.766  0.5973  0.0059  0.9719
  263MOL0     C35437   0.740   0.057   1.721 -0.4287 -0.9143 -0.4872
  263MOL0     H35438   0.639   0.106   2.267  0.6261  1.8686 -0.2063
  263MOL0     H35439   0.612   0.336   2.411  1.4299  1.4679 -1.1294
  263MOL0     H35440   0.232   0.552   2.335 -1.5497  0.8874  0.8830
  263MOL0     H35441   0.257   0.421   2.447  0.0165 -0.6941 -2.0086
  263MOL0     H35442   0.194   0.644   2.554  0.0060  1.8373  0.3180
  263MOL0     H35443   0.343   0.715   2.502  2.2386 -0.5656 -0.7741
  263MOL0     H35444   0.450   0.504   2.597  1.1703  2.2880 -1.8497
  263MOL0     H35445   0.323   0.520   2.721 -2.1597  0.6539 -1.4486
  263MOL0     H35446   0.558   0.640   2.764 -1.3972 -0.2047  0.7666
  263MOL0     H35447   0.505   0.740   2.626  1.8192 -2.3417 -1.3711
  263MOL0     H35448   0.283   0.753   2.790 -0.5086 -3.5180  3.9830
  263MOL0     H35449   0.391   0.727   2.918 -1.2227  0.3532  0.4369
  263MOL0     H35450   0.525   0.950   2.823  1.7782 -1.4414 -1.8561
  263MOL0     H35451   0.395   0.946   2.704  2.1227  3.6443  0.0713
  263MOL0     H35452   0.367   0.991   3.009 -0.3252 -1.3460  0.9107
  263MOL0     H35453   0.228   0.945   2.891 -0.5575  1.3373 -0.6213
  263MOL0     H35454   0.263   1.121   2.759 -2.1299 -3.2368  1.1364
  263MOL0     H35455   0.241   1.186   2.916  0.2728  2.1978 -2.2983
  263MOL0     H35456   0.472   1.265   3.055  1.6986  1.2179  0.2695
  263MOL0     H35457   0.747   1.330   3.039 -0.9799 -1.9217 -1.6987
  263MOL0     H35458   0.804   1.380   2.880 -0.4395  1.1493  0.2407
  263MOL0     H35459   0.792   1.590   2.979 -1.0574  0.7572  2.2383
  263MOL0     H35460   0.641   1.575   2.887 -2.0854  1.3700  2.2735
  263MOL0     H35461   0.555   1.463   3.113  3.9587 -1.6864 -1.9963
  263MOL0     H35462   0.523   1.633   3.063 -0.1830  0.3068 -0.7825
  263MOL0     H35463   0.729   1.514   3.259 -1.8728 -0.0324  1.1777
  263MOL0     H35464   0.606   1.627   3.283  0.5029  1.7743 -0.7489
  263MOL0     H35465   0.926   1.898   3.093  0.1469  0.6709 -1.8850
  263MOL0     H35466   0.848   2.147   3.061 -0.2227  0.5162 -1.2959
  263MOL0     H35467   0.236   2.273   3.153 -0.9931 -1.9724 -2.0917
  263MOL0     H35468   0.059   2.419   3.081  0.7427 -1.3667  2.8542
  263MOL0     H35469   0.021   2.519   2.770  0.4200 -1.5678  3.0833
  263MOL0     H35470  -0.085   2.551   2.893  0.7341  1.3698  0.3953
  263MOL0     H35471  -0.015   2.809   2.793  1.1477 -0.5133 -0.0404
  263MOL0     H35472  -0.027   2.706   2.650  1.0887 -1.6779  0.0836
  263MOL0     H35473  -0.253   2.825   2.716 -0.0873  2.5089  1.9010
  263MOL0     H35474  -0.286   2.662   2.763  0.3147 -0.1896  2.1507
  263MOL0     H35475  -0.190   2.897   2.935 -0.2959 -0.3582 -3.2438
  263MOL0     H35476  -0.180   2.733   2.998 -2.0902 -2.2363  0.9621
  263MOL0     H35477  -0.375   2.837   3.078 -1.0864  2.6119 -0.6627
  263MOL0     H35478  -0.407   2.693   2.973 -0.6153  1.3445 -0.9930
  263MOL0     H35479  -0.461   2.986   2.893  0.3635 -0.0928  0.2268
  263MOL0     H35480  -0.474   2.844   2.785  1.6766  0.2840 -0.1226
  263MOL0     H35481  -0.692   2.933   2.878 -1.1630  0.0308  0.9168
  263MOL0     H35482  -0.620   2.923   3.035 -2.0992 -0.8399 -0.3487
  263MOL0     H35483  -0.637   2.674   3.036  1.0437  1.0315  0.6171
  263MOL0     H35484  -0.789   2.758   3.002  0.1240 -1.1561  0.0063
  263MOL0     H35485   0.347   2.675   2.884 -3.0965  1.7637 -0.8107
  263MOL0     H35486   0.529   2.502   2.939 -0.5678 -0.0627 -0.2501
  263MOL0     H35487   0.444   2.037   3.107  1.2695  2.0812  0.2436
  263MOL0     H35488   0.511   1.799   3.185  1.8086 -2.7136 -2.1236
  263MOL0     H35489   0.305   0.444   2.158 -0.6787 -0.7574  0.1518
  263MOL0     H35490   0.318   0.220   2.029 -1.0625  1.3578  0.5341
  263MOL0     H35491   0.503  -0.222   2.022  0.9570 -4.6129  0.7197
  263MOL0     H35492   0.458  -0.384   1.820 -1.5856 -0.3366 -2.2277
  263MOL0     H35493   0.451  -0.524   1.670  0.1507  1.3374  0.1060
  263MOL0     H35494   0.609  -0.577   1.594  0.7002  0.8419  0.2825
  263MOL0     H35495   0.499  -0.439   1.391 -1.8117  1.8157  3.5408
  263MOL0     H35496   0.360  -0.533   1.446 -0.0807  0.2362  0.1666
  263MOL0     H35497   0.507  -0.722   1.457 -1.3087 -0.8865  0.0558
  263MOL0     H35498   0.631  -0.641   1.364 -0.1438  2.8080  0.7364
  263MOL0     H35499   0.333  -0.681   1.269  1.4591 -0.0869 -0.6754
  263MOL0     H35500   0.463  -0.629   1.167 -0.1536  0.3991  0.5201
  263MOL0     H35501   0.501  -1.058   1.157  1.3313 -0.4905  1.4207
  263MOL0     H35502   0.713  -0.154   1.573 -0.0607  1.0220 -0.4615
  263MOL0     H35503   0.719   0.071   1.615  0.8818 -4.9802 -1.4894
  263MOL0     H35504   0.700   0.139   1.780  1.3012  0.7696 -1.5473
  263MOL0     H35505   0.848   0.049   1.741 -0.4158  1.9850  1.1171
  264MOL0     O35506   3.197   7.940   3.051  0.3681  0.6197 -0.3271
  264MOL0     C35507   3.206   8.033   3.123  0.3790  0.0632 -0.2618
  264MOL0     O35508   3.315   8.049   3.203  0.3770  0.5119 -0.2441
  264MOL0     C35509   3.429   7.974   3.174 -0.7181 -0.9756  0.6025
  264MOL0     C35510   3.478   7.969   3.040 -0.8097  0.5916  0.4944
  264MOL0     C35511   3.605   7.914   3.013  0.6755  0.3622  0.7217
  264MOL0     C35512   3.693   7.893   3.121 -0.5047  0.1039 -0.1866
  264MOL0     O35513   3.819   7.827   3.111  0.7142  0.1819  0.6005
  264MOL0     C35514   3.929   7.900   3.076 -0.4227  0.0935  0.5010
  264MOL0     C35515   4.046   7.798   3.044 -0.3271 -0.0822  0.7283
  264MOL0     C35516   4.190   7.833   3.091 -0.0803 -0.2815 -0.4101
  264MOL0     C35517   4.257   7.746   3.198  0.1858 -1.2548 -0.2253
  264MOL0     C35518   4.382   7.816   3.271 -0.0171 -0.5391  1.2567
  264MOL0     C35519   4.480   7.715   3.329  1.0584 -0.6368  0.2426
  264MOL0     C35520   4.406   7.611   3.424  0.6735  0.3716  0.7810
  264MOL0     C35521   4.488   7.582   3.550 -0.3999 -0.5925  0.1126
  264MOL0     N35522   4.401   7.519   3.652  0.4816 -0.4595 -1.0508
  264MOL0     C35523   4.342   7.399   3.635  0.9500  0.6176 -0.0272
  264MOL0     C35524   4.234   7.417   3.716  0.6939 -0.6548  0.5074
  264MOL0     C35525   4.131   7.309   3.745 -0.4168 -0.2369 -0.5015
  264MOL0     C35526   4.183   7.203   3.841 -0.1463 -0.0012 -0.2514
  264MOL0     C35527   4.059   7.132   3.901  0.9981  0.1431 -0.0873
  264MOL0     C35528   4.096   7.015   3.983  1.1258  0.2455  0.2008
  264MOL0     O35529   3.973   6.940   3.978  0.4562  0.3979 -0.0103
  264MOL0     C35530   3.971   6.830   4.065 -0.7964  0.1693  0.4306
  264MOL0     C35531   4.088   6.779   4.133  0.2745 -0.1959 -0.0578
  264MOL0     C35532   4.087   6.687   4.228  0.3621  0.0746 -1.1611
  264MOL0     C35533   3.969   6.617   4.247 -0.1866 -0.1843  0.2084
  264MOL0     C35534   3.967   6.499   4.339  0.0181 -0.7628 -0.7556
  264MOL0     O35535   4.089   6.458   4.395 -0.2519 -0.0607 -0.8191
  264MOL0     C35536   4.085   6.330   4.439  1.0364  0.0219 -0.0328
  264MOL0     C35537   4.176   6.237   4.384  0.4401  0.6105 -0.2749
  264MOL0     C35538   4.160   6.104   4.419  0.5903 -0.1046  0.8894
  264MOL0     C35539   4.067   6.059   4.519 -0.0578 -0.2652 -0.0116
  264MOL0     O35540   4.040   5.929   4.553 -0.4648 -0.2444  0.4009
  264MOL0     C35541   4.142   5.835   4.533  0.2487  0.7509  0.5670
  264MOL0     C35542   4.093   5.689   4.555 -0.0985 -0.4490  0.3652
  264MOL0     C35543   4.089   5.654   4.700 -0.6429  0.6596 -0.5547
  264MOL0     C35544   4.132   5.508   4.724  0.4518 -0.5423  0.4555
  264MOL0     C35545   4.099   5.457   4.867  0.1970 -1.2754  0.3771
  264MOL0     C35546   4.086   5.306   4.881  0.9262  0.0546 -0.2812
  264MOL0     C35547   3.959   5.269   4.801  0.2119 -0.2645 -0.1784
  264MOL0     C35548   3.914   5.131   4.822  0.3865 -0.2104 -0.2017
  264MOL0    Cl35549   4.034   5.003   4.791  0.7044 -0.3163  0.1357
  264MOL0     C35550   3.995   6.156   4.585 -0.6549 -0.3813  0.0902
  264MOL0     C35551   4.010   6.294   4.545  0.1925  0.9246 -0.6332
  264MOL0     O35552   3.856   6.451   4.370 -0.2680 -0.7415  0.4155
  264MOL0     C35553   3.855   6.658   4.178 -0.7199  1.3739  0.4479
  264MOL0     C35554   3.856   6.765   4.093 -0.7757 -0.8474  1.1934
  264MOL0     N35555   4.230   7.541   3.769 -0.3814 -1.0592 -0.5912
  264MOL0     N35556   4.332   7.610   3.728  0.9622  0.1590  0.0723
  264MOL0     C35557   3.644   7.909   3.255 -0.1190 -0.3712 -0.3293
  264MOL0     C35558   3.515   7.957   3.278 -0.0511  0.2657 -0.4625
  264MOL0     C35559   3.095   8.132   3.118  0.2346  0.1060 -0.6151
  264MOL0     C35560   2.975   8.101   3.041 -0.9901  0.1528 -0.0168
  264MOL0     C35561   2.867   8.190   3.028  0.5192  0.3354  0.1222
  264MOL0     C35562   2.878   8.305   3.089  0.6209 -0.5885 -0.4119
  264MOL0     O35563   2.781   8.406   3.082 -0.4502  0.3164  0.3170
  264MOL0     C35564   2.641   8.371   3.094 -1.0202  0.2886  0.4014
  264MOL0     C35565   2.590   8.393   3.242 -0.3200  0.2610  0.6680
  264MOL0     C35566   2.613   8.537   3.282  0.9794  0.4862 -0.3932
  264MOL0     C35567   2.570   8.564   3.421  1.4189  0.8243  0.0668
  264MOL0     C35568   2.433   8.537   3.457 -0.1160 -0.2322  0.9131
  264MOL0     C35569   2.317   8.508   3.475 -0.2579 -0.6074  0.2530
  264MOL0     C35570   2.972   8.333   3.188 -0.3261 -0.2052  0.7117
  264MOL0     C35571   3.085   8.246   3.202 -0.1239 -0.2225 -0.4142
  264MOL0     C35572   3.191   8.287   3.302 -0.3632  0.6192 -0.2016
  264MOL0     H35573   3.424   8.016   2.959 -1.1924 -2.1607 -0.9945
  264MOL0     H35574   3.646   7.910   2.913 -1.1962  0.6687 -0.1085
  264MOL0     H35575   3.892   7.970   3.001  0.7448  0.1746 -0.0297
  264MOL0     H35576   3.952   7.966   3.160 -0.5421  1.8378 -0.7685
  264MOL0     H35577   4.041   7.776   2.937  1.8013 -0.8516  0.7411
  264MOL0     H35578   4.024   7.702   3.089 -0.9817  0.0052  0.5993
  264MOL0     H35579   4.171   7.934   3.130  2.1467  0.9374 -2.2401
  264MOL0     H35580   4.260   7.838   3.008  1.6352 -0.1824  0.9833
  264MOL0     H35581   4.178   7.737   3.273 -1.0770  4.0109 -0.5705
  264MOL0     H35582   4.290   7.649   3.159  2.3108 -1.5112  1.9648
  264MOL0     H35583   4.427   7.870   3.187 -2.0558 -1.6406 -0.6693
  264MOL0     H35584   4.358   7.891   3.348 -3.5024  1.0043 -1.0345
  264MOL0     H35585   4.546   7.675   3.252  2.1530 -0.1159  0.8823
  264MOL0     H35586   4.544   7.777   3.394 -0.6010  0.2106  1.1278
  264MOL0     H35587   4.387   7.517   3.372  2.8649  0.0842  0.4011
  264MOL0     H35588   4.310   7.655   3.452 -0.4237  0.1988 -2.3323
  264MOL0     H35589   4.582   7.536   3.518  0.7026  2.1334 -0.8677
  264MOL0     H35590   4.506   7.681   3.594 -1.6914  0.8261 -2.3327
  264MOL0     H35591   4.372   7.313   3.576  5.7767  2.5617 -0.9456
  264MOL0     H35592   4.039   7.356   3.780  0.6314  2.7714 -1.4899
  264MOL0     H35593   4.110   7.258   3.651  1.3413  1.4877 -1.9142
  264MOL0     H35594   4.245   7.126   3.794  1.4456  1.6799 -1.0008
  264MOL0     H35595   4.250   7.249   3.914  2.3774 -0.0259 -2.3919
  264MOL0     H35596   3.994   7.098   3.820 -0.0969  2.4788 -0.2831
  264MOL0     H35597   4.009   7.211   3.958  0.1893  0.5412 -1.3153
  264MOL0     H35598   4.134   7.048   4.080  1.2307  0.3269  0.1308
  264MOL0     H35599   4.174   6.963   3.927 -0.3662 -0.2848 -1.4927
  264MOL0     H35600   4.183   6.824   4.106 -0.3140 -1.0695 -4.1501
  264MOL0     H35601   4.187   6.673   4.267 -0.5136  0.3402  1.3150
  264MOL0     H35602   4.251   6.236   4.306  0.5293  0.3954 -0.1873
  264MOL0     H35603   4.220   6.031   4.365 -1.0181 -0.4354 -0.5285
  264MOL0     H35604   4.159   5.841   4.425 -0.2530 -2.0162  0.2570
  264MOL0     H35605   4.226   5.858   4.599 -1.3891  1.9647  2.3187
  264MOL0     H35606   4.002   5.664   4.501 -1.2290  0.5998  1.7093
  264MOL0     H35607   4.176   5.628   4.518  1.7345  0.7699  2.2531
  264MOL0     H35608   4.162   5.711   4.759 -0.6897 -0.3979  0.5881
  264MOL0     H35609   3.989   5.678   4.737 -0.7005 -1.4413  0.8557
  264MOL0     H35610   4.240   5.496   4.715  0.3486 -2.0317  0.7952
  264MOL0     H35611   4.097   5.441   4.645 -3.3934  2.7068 -0.9479
  264MOL0     H35612   4.006   5.499   4.907  1.7835  1.7747  1.1563
  264MOL0     H35613   4.188   5.488   4.921  1.2226  0.0481 -1.9043
  264MOL0     H35614   4.174   5.256   4.837  1.4980 -0.4940  1.4070
  264MOL0     H35615   4.078   5.279   4.987 -1.0675 -0.2669 -0.4765
  264MOL0     H35616   3.974   5.275   4.692  0.0642 -1.9210 -0.3091
  264MOL0     H35617   3.876   5.337   4.822 -1.0754 -1.6211 -0.7477
  264MOL0     H35618   3.881   5.131   4.927 -2.9737  1.3669 -1.1021
  264MOL0     H35619   3.831   5.108   4.755  2.6133  2.2731 -4.1848
  264MOL0     H35620   3.925   6.131   4.664  0.9960  0.3531  1.8727
  264MOL0     H35621   3.942   6.371   4.581 -2.7074 -0.7939 -2.0847
  264MOL0     H35622   3.761   6.610   4.204  0.7510 -4.5425 -3.1493
  264MOL0     H35623   3.766   6.787   4.037  2.1984 -0.4919 -4.2385
  264MOL0     H35624   3.702   7.884   3.344 -1.6806 -1.2976  0.4720
  264MOL0     H35625   3.494   7.984   3.381 -1.3889 -1.5158 -0.2074
  264MOL0     H35626   2.975   8.004   2.993 -1.1102 -0.1625  0.6019
  264MOL0     H35627   2.789   8.161   2.958 -0.4239 -0.0822  1.3186
  264MOL0     H35628   2.619   8.270   3.059  2.1553  0.1532 -1.6083
  264MOL0     H35629   2.574   8.430   3.031 -0.0950 -0.8680 -1.7733
  264MOL0     H35630   2.629   8.318   3.312  3.6450  2.9564  1.6841
  264MOL0     H35631   2.482   8.378   3.233 -0.6139  2.3145  0.3014
  264MOL0     H35632   2.561   8.610   3.220  1.1123  0.0190 -1.0657
  264MOL0     H35633   2.722   8.544   3.274  1.1855 -2.1591 -1.0256
  264MOL0     H35634   2.628   8.497   3.486 -0.7002  0.8454  2.0874
  264MOL0     H35635   2.593   8.670   3.435  0.5245  1.0776 -0.3193
  264MOL0     H35636   2.221   8.481   3.514 -0.2239 -4.2883 -1.7677
  264MOL0     H35637   2.956   8.428   3.237  2.0550 -0.7641  2.7557
  264MOL0     H35638   3.171   8.393   3.322 -1.6024  0.1661  1.0882
  264MOL0     H35639   3.190   8.224   3.392  3.5223 -1.9856 -1.7137
  264MOL0     H35640   3.284   8.274   3.245  0.4647 -0.1655  1.2744
  265MOL0     O35641   2.875   1.990   5.096  0.2443 -0.1448 -0.7253
  265MOL0     C35642   2.916   2.014   4.981 -0.5370 -0.4990 -0.4730
  265MOL0     O35643   3.015   1.949   4.926 -0.9531 -0.8426 -0.6732
  265MOL0     C35644   3.087   1.862   5.011 -0.1308 -0.4461  0.4851
  265MOL0     C35645   3.192   1.914   5.082 -0.4950 -0.3987  0.1467
  265MOL0     C35646   3.270   1.831   5.162 -1.0692  0.5263  0.6731
  265MOL0     C35647   3.253   1.692   5.162 -0.4294 -0.4555  0.0204
  265MOL0     O35648   3.343   1.611   5.224  0.2976 -0.1225  0.1277
  265MOL0     C35649   3.355   1.479   5.177  0.0175  0.7153  0.2609
  265MOL0     C35650   3.458   1.402   5.262  0.7308  0.5109 -1.0049
  265MOL0     C35651   3.492   1.264   5.204 -0.2393 -0.1676  0.2840
  265MOL0     C35652   3.606   1.206   5.295  1.6855  0.7817  0.7076
  265MOL0     C35653   3.660   1.074   5.241 -0.2668  0.0973 -0.3947
  265MOL0     C35654   3.716   1.091   5.099 -0.2860 -0.0657  0.1101
  265MOL0     C35655   3.802   0.967   5.052 -0.2153  0.3277  0.2696
  265MOL0     C35656   3.872   0.990   4.919 -0.6162 -1.1644  0.7422
  265MOL0     N35657   3.887   0.866   4.842 -0.7488  0.9630 -0.1727
  265MOL0     C35658   3.787   0.782   4.818  0.3700  0.8003 -0.6123
  265MOL0     C35659   3.836   0.665   4.771  0.6846  0.3227  0.5110
  265MOL0     C35660   3.761   0.538   4.743  0.9372  0.4960 -0.1496
  265MOL0     C35661   3.621   0.541   4.811  0.3128  1.2818 -0.9002
  265MOL0     C35662   3.537   0.422   4.766  0.0782 -0.4017  0.5623
  265MOL0     C35663   3.406   0.418   4.855 -1.6041 -0.1689  0.2092
  265MOL0     O35664   3.310   0.335   4.792 -0.1191 -0.1796 -0.1037
  265MOL0     C35665   3.198   0.309   4.858  0.0541  0.3835  0.0716
  265MOL0     C35666   3.134   0.393   4.952 -0.2232 -0.4982  0.7465
  265MOL0     C35667   3.014   0.351   5.005  0.4463  0.3053 -0.0394
  265MOL0     C35668   2.952   0.232   4.972 -0.1204 -1.0176 -0.5344
  265MOL0     C35669   2.842   0.171   5.050  0.0012  0.0120 -0.0014
  265MOL0     O35670   2.784   0.048   5.015 -0.3821  0.4577 -0.3911
  265MOL0     C35671   2.660   0.012   5.069  0.6165 -0.0022  0.0699
  265MOL0     C35672   2.639  -0.037   5.194  0.0467  0.5124  0.7706
  265MOL0     C35673   2.504  -0.057   5.237 -0.3781  0.1263 -0.1060
  265MOL0     C35674   2.391  -0.035   5.160 -0.1825 -0.7638  0.0725
  265MOL0     O35675   2.261  -0.038   5.215 -0.1003 -0.2832 -0.4771
  265MOL0     C35676   2.242  -0.155   5.295 -0.1809 -0.0241  0.7542
  265MOL0     C35677   2.093  -0.177   5.312 -0.5411 -0.8532  0.0480
  265MOL0     C35678   2.061  -0.277   5.423 -0.0950  0.2402  0.8732
  265MOL0     C35679   2.102  -0.419   5.406 -0.3196  0.8252 -0.1918
  265MOL0     C35680   2.089  -0.488   5.540 -0.8221 -0.4239 -0.4483
  265MOL0     C35681   2.145  -0.625   5.537  0.0551  0.0999 -0.0821
  265MOL0     C35682   2.112  -0.698   5.670 -0.0745  0.3262  0.5703
  265MOL0     C35683   2.147  -0.848   5.661 -0.5004 -0.3278 -0.2040
  265MOL0    Cl35684   2.320  -0.860   5.698 -0.3511  0.0094  0.5392
  265MOL0     C35685   2.412   0.012   5.037 -0.5027 -0.7588  0.6865
  265MOL0     C35686   2.541   0.039   4.993 -0.6612 -0.7627  0.1648
  265MOL0     O35687   2.806   0.231   5.153  0.1263  0.9279 -0.0153
  265MOL0     C35688   3.022   0.155   4.872  0.9210  1.0848  0.1141
  265MOL0     C35689   3.138   0.189   4.815 -0.3343  0.2845  0.5737
  265MOL0     N35690   3.960   0.682   4.765  0.4835 -0.0905  0.6965
  265MOL0     N35691   4.003   0.801   4.801 -0.3592  0.1680 -0.1908
  265MOL0     C35692   3.136   1.646   5.092 -0.6552  0.0159  0.6386
  265MOL0     C35693   3.057   1.725   5.008  0.5238 -0.1348 -0.1335
  265MOL0     C35694   2.822   2.098   4.910 -1.0178  0.1678  0.4256
  265MOL0     C35695   2.763   2.210   4.965  0.2255 -0.2229  0.3422
  265MOL0     C35696   2.674   2.292   4.902  0.6285  0.3341 -0.3358
  265MOL0     C35697   2.635   2.261   4.769 -0.6406  0.9947 -1.0419
  265MOL0     O35698   2.530   2.322   4.697  0.0500  0.4458 -0.0431
  265MOL0     C35699   2.439   2.398   4.764  0.0735  0.0053 -0.4707
  265MOL0     C35700   2.422   2.540   4.717 -0.0757  0.3043 -0.2808
  265MOL0     C35701   2.550   2.625   4.737  0.8183  0.3044 -0.1455
  265MOL0     C35702   2.564   2.724   4.616 -0.6071  0.5284 -0.9676
  265MOL0     C35703   2.454   2.825   4.624 -1.1341  0.3200  0.0992
  265MOL0     C35704   2.356   2.898   4.628  0.5873  0.4725  0.2474
  265MOL0     C35705   2.690   2.152   4.709 -0.7591 -0.3324  0.1596
  265MOL0     C35706   2.782   2.069   4.773  0.4023 -0.2254 -0.5036
  265MOL0     C35707   2.829   1.941   4.708 -0.2087 -0.3347  0.8376
  265MOL0     H35708   3.207   2.021   5.082 -2.3949 -0.0676 -1.6582
  265MOL0     H35709   3.339   1.877   5.232 -1.6382  0.7859  1.0736
  265MOL0     H35710   3.259   1.427   5.175  0.5786 -0.6205  3.0973
  265MOL0     H35711   3.386   1.505   5.075  2.0870 -0.2219  0.5881
  265MOL0     H35712   3.413   1.385   5.360  1.4812 -2.2238 -1.0523
  265MOL0     H35713   3.548   1.464   5.271  1.2507 -0.4092  0.4982
  265MOL0     H35714   3.524   1.276   5.100 -1.0601 -2.7917 -0.3320
  265MOL0     H35715   3.411   1.191   5.195 -1.2453  0.9305  0.0625
  265MOL0     H35716   3.687   1.278   5.301  0.4724  2.1979  0.5423
  265MOL0     H35717   3.561   1.185   5.392 -1.2987  1.2020 -0.4782
  265MOL0     H35718   3.732   1.047   5.319 -2.4951  0.2332  1.8353
  265MOL0     H35719   3.582   0.998   5.242 -0.6611  0.4936 -0.3752
  265MOL0     H35720   3.631   1.110   5.033 -1.8402  2.3627  2.6097
  265MOL0     H35721   3.781   1.179   5.096  1.5939 -1.3595  1.0009
  265MOL0     H35722   3.729   0.886   5.049  0.3009 -0.1136 -2.0539
  265MOL0     H35723   3.885   0.958   5.123 -1.9655 -2.0471  2.1795
  265MOL0     H35724   3.820   1.065   4.859  1.0428 -1.4112 -1.1418
  265MOL0     H35725   3.976   1.019   4.939  0.1720 -3.6199  0.5346
  265MOL0     H35726   3.683   0.803   4.840 -1.0365 -3.4097 -2.0507
  265MOL0     H35727   3.746   0.539   4.635 -0.8626 -0.4401  0.0456
  265MOL0     H35728   3.807   0.450   4.790 -1.1429  0.7511  2.6045
  265MOL0     H35729   3.640   0.530   4.918  3.1566  1.1147 -1.3537
  265MOL0     H35730   3.573   0.638   4.793  0.3892  1.6027  0.5005
  265MOL0     H35731   3.589   0.326   4.774  1.9486  0.7113  3.7463
  265MOL0     H35732   3.502   0.440   4.664 -0.4770  2.0923  1.1219
  265MOL0     H35733   3.367   0.521   4.860  0.1128  0.4534  1.9285
  265MOL0     H35734   3.425   0.379   4.955  1.5575 -0.0267 -0.2429
  265MOL0     H35735   3.165   0.494   4.976 -1.8376 -0.2388  1.9242
  265MOL0     H35736   2.958   0.424   5.063 -1.6247  0.0120 -1.5770
  265MOL0     H35737   2.719  -0.062   5.263 -0.3366  3.2506  2.3825
  265MOL0     H35738   2.507  -0.089   5.340  1.9219 -0.9646 -0.4500
  265MOL0     H35739   2.279  -0.245   5.243  0.0877  0.7730 -0.4836
  265MOL0     H35740   2.291  -0.142   5.391 -1.3206 -1.1091  1.5147
  265MOL0     H35741   2.051  -0.079   5.338 -1.8114 -0.4779 -3.0098
  265MOL0     H35742   2.056  -0.212   5.215  0.8632 -3.0311  0.2231
  265MOL0     H35743   2.091  -0.241   5.522 -1.5516 -1.1165  1.8556
  265MOL0     H35744   1.952  -0.265   5.429 -0.4444 -2.1476  0.3369
  265MOL0     H35745   2.204  -0.444   5.375 -1.0646 -2.3041 -0.4800
  265MOL0     H35746   2.041  -0.466   5.329 -0.4244  0.8101 -0.1012
  265MOL0     H35747   1.996  -0.485   5.597  1.0507  4.9467  3.1770
  265MOL0     H35748   2.146  -0.432   5.615  0.8315  3.4195 -4.1547
  265MOL0     H35749   2.102  -0.671   5.448  2.1027  6.0718 -4.8536
  265MOL0     H35750   2.255  -0.627   5.534  0.0466 -0.0338 -0.3311
  265MOL0     H35751   2.009  -0.692   5.705 -1.0569  0.8644 -2.1550
  265MOL0     H35752   2.175  -0.658   5.749 -0.0561  1.8444 -0.1816
  265MOL0     H35753   2.085  -0.893   5.738 -1.3006  0.1067 -0.5881
  265MOL0     H35754   2.123  -0.902   5.569 -0.6072 -0.9338  0.1763
  265MOL0     H35755   2.329   0.043   4.976  2.2083  0.4719 -2.7046
  265MOL0     H35756   2.564   0.100   4.906  1.3007 -2.9150 -0.9417
  265MOL0     H35757   2.974   0.060   4.852  0.3433  1.5848 -1.0023
  265MOL0     H35758   3.193   0.132   4.741  2.2636  1.6978  1.2919
  265MOL0     H35759   3.105   1.543   5.105 -1.6812 -0.0677 -1.8905
  265MOL0     H35760   2.972   1.689   4.952 -0.6816  0.0852  1.4910
  265MOL0     H35761   2.789   2.224   5.070  1.2917 -2.7725  0.4865
  265MOL0     H35762   2.630   2.368   4.966  0.9320 -1.1329  1.7043
  265MOL0     H35763   2.468   2.427   4.865  1.8473 -0.5895 -0.7684
  265MOL0     H35764   2.345   2.343   4.759  1.1839 -2.3513  1.9909
  265MOL0     H35765   2.340   2.590   4.770 -3.1547 -2.7449 -1.7669
  265MOL0     H35766   2.395   2.543   4.611  2.4424 -1.4473 -1.0729
  265MOL0     H35767   2.636   2.558   4.747  0.4157 -0.0776  1.0003
  265MOL0     H35768   2.539   2.686   4.827 -0.8122  1.8539 -1.3218
  265MOL0     H35769   2.661   2.774   4.611  0.4413 -1.4510 -1.7470
  265MOL0     H35770   2.555   2.670   4.522  1.4406 -1.5228 -0.0971
  265MOL0     H35771   2.276   2.968   4.632 -4.2287 -4.4167  1.6766
  265MOL0     H35772   2.650   2.126   4.612  2.5368  1.0048 -1.7078
  265MOL0     H35773   2.783   1.850   4.748 -2.2068 -1.4345 -3.4395
  265MOL0     H35774   2.797   1.933   4.604 -3.8519 -2.5937  1.9607
  265MOL0     H35775   2.938   1.933   4.702 -0.1305  0.8205  0.3850
  266MOL0     O35776   7.773   2.253   0.243  0.0430 -0.0778 -0.0682
  266MOL0     C35777   7.667   2.272   0.187  1.1162 -1.3722  1.0511
  266MOL0     O35778   7.577   2.381   0.198 -0.9958 -0.1736 -0.1155
  266MOL0     C35779   7.627   2.498   0.252  0.9735  0.9195 -0.0521
  266MOL0     C35780   7.545   2.605   0.209 -0.5136  0.3361 -0.1191
  266MOL0     C35781   7.562   2.729   0.266 -0.8663 -0.5162 -0.0080
  266MOL0     C35782   7.662   2.757   0.361 -0.5379  0.8575 -0.6341
  266MOL0     O35783   7.694   2.875   0.421 -0.2306  0.5067  0.2650
  266MOL0     C35784   7.647   2.999   0.363 -0.0537  0.0729  0.7341
  266MOL0     C35785   7.611   3.098   0.470  0.0408 -0.0230 -1.2006
  266MOL0     C35786   7.597   3.235   0.411 -0.4704  0.6001 -0.5451
  266MOL0     C35787   7.563   3.348   0.505 -0.1803  0.2966  0.2986
  266MOL0     C35788   7.552   3.485   0.441  0.2605  0.0601  0.8847
  266MOL0     C35789   7.541   3.593   0.555  0.3813  0.0233  1.5992
  266MOL0     C35790   7.464   3.557   0.684  0.1008 -0.8809 -0.2386
  266MOL0     C35791   7.441   3.685   0.774  0.0905 -1.0749  0.0421
  266MOL0     N35792   7.550   3.786   0.751  0.2308  0.4206 -0.1526
  266MOL0     C35793   7.535   3.909   0.669 -0.0525  0.5422 -0.7430
  266MOL0     C35794   7.628   3.992   0.728  1.7333 -0.2330  1.1404
  266MOL0     C35795   7.674   4.138   0.708  0.2895  0.2352  0.8324
  266MOL0     C35796   7.785   4.152   0.607 -0.7618 -0.5260 -0.2306
  266MOL0     C35797   7.774   4.278   0.516 -0.2075 -0.6564 -0.2733
  266MOL0     C35798   7.899   4.303   0.423 -1.1125  0.5527 -0.4339
  266MOL0     O35799   7.908   4.205   0.318  0.3492  0.4576 -0.6556
  266MOL0     C35800   7.998   4.196   0.212 -0.3090 -0.4560 -0.3136
  266MOL0     C35801   8.076   4.311   0.171  0.3349  0.2846  0.4475
  266MOL0     C35802   8.176   4.296   0.075 -0.2557  0.2507 -1.3106
  266MOL0     C35803   8.184   4.181   0.004  0.8363  0.0873  0.9345
  266MOL0     C35804   8.295   4.161  -0.093 -0.2746 -0.8347  0.5340
  266MOL0     O35805   8.286   4.034  -0.153  0.7030  0.8213 -0.2960
  266MOL0     C35806   8.371   3.984  -0.243 -0.2015 -0.1372 -0.4356
  266MOL0     C35807   8.512   4.011  -0.256 -0.3761 -0.5808  0.3511
  266MOL0     C35808   8.596   3.943  -0.338  0.7483  0.8251 -0.2869
  266MOL0     C35809   8.535   3.853  -0.423 -0.5449 -0.7394 -0.6241
  266MOL0     O35810   8.626   3.814  -0.516  0.0605  0.2990 -0.7903
  266MOL0     C35811   8.584   3.841  -0.648  0.3552 -0.0950  0.8798
  266MOL0     C35812   8.707   3.901  -0.712  0.7580  0.2084 -0.0219
  266MOL0     C35813   8.804   3.785  -0.741  0.3596 -1.5527  0.0526
  266MOL0     C35814   8.917   3.827  -0.827  0.4451  0.0388 -0.6493
  266MOL0     C35815   9.056   3.773  -0.788  1.1194 -0.0316  0.0761
  266MOL0     C35816   9.090   3.634  -0.839  0.4255  0.1469  0.2107
  266MOL0     C35817   9.226   3.571  -0.803  0.7579  1.1208 -0.0094
  266MOL0     C35818   9.222   3.480  -0.673  0.4499  0.9711  0.3887
  266MOL0    Cl35819   9.388   3.424  -0.645  0.0145 -0.2119 -0.5205
  266MOL0     C35820   8.405   3.820  -0.429  0.8385 -0.0931 -0.2042
  266MOL0     C35821   8.323   3.893  -0.343  0.5398  0.2047 -0.8373
  266MOL0     O35822   8.394   4.240  -0.102 -0.6447  0.4138 -0.8668
  266MOL0     C35823   8.092   4.078   0.030 -0.8142  0.1579 -1.1522
  266MOL0     C35824   8.017   4.087   0.140  1.0241 -0.6166  0.2187
  266MOL0     N35825   7.707   3.916   0.809  0.9124  0.5601 -0.3684
  266MOL0     N35826   7.661   3.792   0.828 -0.5929  0.3037  0.2705
  266MOL0     C35827   7.736   2.647   0.399 -0.7510 -0.3421  0.0178
  266MOL0     C35828   7.719   2.522   0.353  0.1177 -0.3830 -0.0612
  266MOL0     C35829   7.624   2.159   0.104  0.6398  0.0139  0.3735
  266MOL0     C35830   7.597   2.037   0.163  0.1953  0.5407 -0.5312
  266MOL0     C35831   7.567   1.921   0.094  0.5474  0.4402  0.5790
  266MOL0     C35832   7.576   1.920  -0.041 -0.1093 -0.1703  0.0196
  266MOL0     O35833   7.572   1.808  -0.130 -0.3074  0.3279 -0.1475
  266MOL0     C35834   7.552   1.682  -0.065 -0.5109 -0.6975 -0.5446
  266MOL0     C35835   7.504   1.578  -0.171  0.7002  0.2355 -0.9873
  266MOL0     C35836   7.478   1.440  -0.109 -0.0119 -0.7932 -0.2053
  266MOL0     C35837   7.429   1.349  -0.222  0.2465 -0.2194 -0.1372
  266MOL0     C35838   7.411   1.208  -0.173 -0.1035 -0.1738  0.4937
  266MOL0     C35839   7.413   1.083  -0.146 -0.5436  0.1195  0.2522
  266MOL0     C35840   7.580   2.045  -0.110  0.6389  0.3533 -0.0811
  266MOL0     C35841   7.605   2.167  -0.038 -0.3189  0.4417 -0.0403
  266MOL0     C35842   7.584   2.301  -0.119 -0.1879  0.3720  0.0364
  266MOL0     H35843   7.472   2.610   0.129 -3.2870 -2.4387  1.9999
  266MOL0     H35844   7.499   2.814   0.243  0.0262 -0.6072 -3.2218
  266MOL0     H35845   7.733   3.029   0.302  0.3936 -1.5409  0.5316
  266MOL0     H35846   7.569   2.993   0.287  0.2548 -1.7646  0.5153
  266MOL0     H35847   7.683   3.112   0.551 -2.1438 -0.7646  0.9693
  266MOL0     H35848   7.516   3.068   0.515  0.6357  1.5184  1.2703
  266MOL0     H35849   7.510   3.235   0.344 -0.9526 -2.3683 -0.0739
  266MOL0     H35850   7.687   3.257   0.353  1.4429 -2.6747  0.9126
  266MOL0     H35851   7.471   3.317   0.556 -2.9541  2.7159 -2.7569
  266MOL0     H35852   7.643   3.365   0.577 -2.8704  3.7726  2.8709
  266MOL0     H35853   7.645   3.503   0.386 -0.8018  0.8966 -0.7176
  266MOL0     H35854   7.467   3.502   0.375  2.3654 -0.0449 -2.0547
  266MOL0     H35855   7.645   3.618   0.579  1.1457  2.2546 -3.0181
  266MOL0     H35856   7.501   3.684   0.509  2.3422  1.0468  1.8116
  266MOL0     H35857   7.523   3.482   0.736  0.8242  0.3487  0.7705
  266MOL0     H35858   7.365   3.520   0.657 -1.1120  1.0148  1.3288
  266MOL0     H35859   7.347   3.733   0.745  0.7392  2.1604  2.6393
  266MOL0     H35860   7.431   3.653   0.878  1.6177 -1.1313  0.1878
  266MOL0     H35861   7.459   3.935   0.597  1.7330  0.1483 -2.8572
  266MOL0     H35862   7.589   4.184   0.659 -0.5703 -1.5366  0.5670
  266MOL0     H35863   7.698   4.197   0.797 -2.9606 -1.2468  2.8837
  266MOL0     H35864   7.881   4.140   0.657 -0.8048 -0.4540 -0.1293
  266MOL0     H35865   7.768   4.066   0.542 -1.7208 -0.5579  0.0467
  266MOL0     H35866   7.780   4.367   0.579  1.5180 -1.5803  0.9270
  266MOL0     H35867   7.680   4.278   0.460 -0.6999 -2.1815  0.5100
  266MOL0     H35868   7.989   4.280   0.479  0.0495 -3.0241 -3.3231
  266MOL0     H35869   7.895   4.404   0.381  3.8686  1.6601  1.0833
  266MOL0     H35870   8.074   4.400   0.233 -0.8032 -0.4009  1.4315
  266MOL0     H35871   8.236   4.385   0.056 -0.7598  1.8687  3.3194
  266MOL0     H35872   8.557   4.082  -0.188 -0.0713 -1.8144  1.4638
  266MOL0     H35873   8.704   3.958  -0.341  1.0220 -0.6950  0.8905
  266MOL0     H35874   8.544   3.753  -0.699 -1.5308  2.3031 -2.2273
  266MOL0     H35875   8.511   3.922  -0.655  3.2843  2.7127  0.4660
  266MOL0     H35876   8.664   3.941  -0.804 -0.7869 -3.0646 -0.8752
  266MOL0     H35877   8.751   3.978  -0.649  0.4719  1.9837 -1.9111
  266MOL0     H35878   8.850   3.761  -0.645  0.9077  4.4825  1.7205
  266MOL0     H35879   8.756   3.697  -0.785  2.2849 -0.1380 -5.7675
  266MOL0     H35880   8.927   3.935  -0.809 -0.9052  0.2331 -0.9452
  266MOL0     H35881   8.896   3.809  -0.932  1.7714  1.0729 -1.1173
  266MOL0     H35882   9.073   3.770  -0.680 -0.5740 -1.8664  0.3570
  266MOL0     H35883   9.131   3.833  -0.840 -0.2408  0.7151 -1.1110
  266MOL0     H35884   9.015   3.561  -0.806  2.0460 -2.9416 -2.4501
  266MOL0     H35885   9.093   3.635  -0.948 -3.2433 -1.2704 -0.0526
  266MOL0     H35886   9.294   3.645  -0.758  3.1393  0.2032 -1.8536
  266MOL0     H35887   9.269   3.519  -0.889  1.8285 -0.1006  1.2133
  266MOL0     H35888   9.181   3.535  -0.589 -1.7116 -1.5361  1.1068
  266MOL0     H35889   9.160   3.391  -0.686  0.1646  1.2344 -0.0460
  266MOL0     H35890   8.363   3.747  -0.498  0.5312  0.8623 -1.0543
  266MOL0     H35891   8.216   3.882  -0.352  0.4187 -0.5351  1.0256
  266MOL0     H35892   8.101   3.984  -0.024 -0.6974  0.5625 -1.8477
  266MOL0     H35893   7.979   3.992   0.176 -0.3123 -0.6860 -1.2487
  266MOL0     H35894   7.813   2.661   0.475  0.5112 -3.3299 -0.5862
  266MOL0     H35895   7.763   2.433   0.395 -1.0075 -2.0796 -2.2552
  266MOL0     H35896   7.606   2.023   0.270 -0.3122 -2.3512 -0.8032
  266MOL0     H35897   7.560   1.825   0.144  0.6868  0.4012  0.5252
  266MOL0     H35898   7.477   1.699   0.012 -0.9703 -0.9649 -0.9312
  266MOL0     H35899   7.646   1.662  -0.012 -0.2836 -2.1683 -1.4228
  266MOL0     H35900   7.589   1.564  -0.239  0.7160 -0.7561 -0.7869
  266MOL0     H35901   7.418   1.627  -0.216  1.3124  0.9021 -1.4469
  266MOL0     H35902   7.415   1.445  -0.019 -0.0229  0.6610 -0.2671
  266MOL0     H35903   7.571   1.402  -0.067 -1.8896 -1.7147  3.6373
  266MOL0     H35904   7.331   1.373  -0.266  0.4579 -1.2017 -1.1998
  266MOL0     H35905   7.506   1.354  -0.299  0.9973  1.2128  0.6630
  266MOL0     H35906   7.387   0.982  -0.119 -1.7636  0.5074  0.5734
  266MOL0     H35907   7.574   2.043  -0.219  2.8509 -2.3263 -0.2737
  266MOL0     H35908   7.521   2.270  -0.203 -3.9721 -2.0721  3.3884
  266MOL0     H35909   7.529   2.373  -0.058  0.9284  2.9245 -1.8170
  266MOL0     H35910   7.679   2.344  -0.151 -0.9961  2.3674  0.2064
  267MOL0     O35911   5.317   6.051   3.028 -0.3190 -0.3333 -0.1098
  267MOL0     C35912   5.323   5.976   2.932 -0.0318  0.4578  0.0430
  267MOL0     O35913   5.278   5.849   2.927 -0.4188  0.3006 -0.0892
  267MOL0     C35914   5.214   5.783   3.029  0.7462 -0.6732 -0.8910
  267MOL0     C35915   5.177   5.832   3.163 -0.1903 -0.8199  0.2829
  267MOL0     C35916   5.118   5.753   3.255  0.8800  0.8172  0.1279
  267MOL0     C35917   5.084   5.625   3.220 -0.5579 -0.1515 -0.3537
  267MOL0     O35918   5.008   5.537   3.298  0.1314 -0.5703 -0.4118
  267MOL0     C35919   5.005   5.562   3.437 -0.1518  1.0214 -0.8846
  267MOL0     C35920   4.970   5.434   3.518  1.0642 -0.3465 -0.0477
  267MOL0     C35921   4.834   5.375   3.488 -0.9535 -0.0418 -0.0043
  267MOL0     C35922   4.771   5.338   3.628  0.6405  1.6072  0.3376
  267MOL0     C35923   4.662   5.232   3.619  0.4358 -0.2420  0.2125
  267MOL0     C35924   4.607   5.191   3.752  0.1556 -0.0163 -0.1147
  267MOL0     C35925   4.532   5.302   3.833  0.8681  0.1717 -0.2419
  267MOL0     C35926   4.446   5.250   3.950 -0.2054 -1.6744  0.7144
  267MOL0     N35927   4.383   5.362   4.029  0.1790  0.4074 -0.0525
  267MOL0     C35928   4.277   5.428   3.991  0.5194  0.4338 -0.3684
  267MOL0     C35929   4.262   5.539   4.066  0.1854  0.0322  0.5401
  267MOL0     C35930   4.153   5.644   4.060 -0.8075  0.5706  0.3722
  267MOL0     C35931   4.057   5.630   4.177  0.2193  0.6250 -0.2104
  267MOL0     C35932   3.955   5.739   4.186 -0.4560 -0.2884  0.2195
  267MOL0     C35933   3.881   5.784   4.050 -0.5968 -0.0415 -0.7305
  267MOL0     O35934   3.752   5.749   4.043 -0.1682 -0.3949 -0.1595
  267MOL0     C35935   3.676   5.802   3.945  0.6304 -0.1452 -0.1164
  267MOL0     C35936   3.717   5.860   3.822  0.4072 -0.2183  0.0414
  267MOL0     C35937   3.622   5.914   3.738  1.2410  0.4138 -0.9690
  267MOL0     C35938   3.487   5.934   3.785 -0.1370 -0.9399  0.6492
  267MOL0     C35939   3.393   6.001   3.680 -0.4529 -0.4433 -0.2298
  267MOL0     O35940   3.434   6.083   3.577  0.4270  0.8574  0.7344
  267MOL0     C35941   3.342   6.147   3.493  0.6021 -0.0165  0.6821
  267MOL0     C35942   3.250   6.080   3.409 -0.6921  0.0086 -0.5761
  267MOL0     C35943   3.156   6.149   3.336  0.2992 -0.7857  0.2190
  267MOL0     C35944   3.158   6.289   3.321 -0.7579 -0.0612 -1.1635
  267MOL0     O35945   3.054   6.355   3.261 -0.2293  0.6560 -0.5330
  267MOL0     C35946   2.996   6.289   3.144  0.4145 -0.3094  0.4184
  267MOL0     C35947   2.890   6.394   3.086 -0.2144  0.3260 -0.3967
  267MOL0     C35948   2.851   6.373   2.941  0.5926  0.1257 -0.7800
  267MOL0     C35949   2.785   6.234   2.921  0.7829 -0.0326 -0.0299
  267MOL0     C35950   2.666   6.207   3.019 -0.2276  0.1649 -0.5268
  267MOL0     C35951   2.541   6.297   3.018 -0.2128 -1.4800  0.2352
  267MOL0     C35952   2.450   6.282   3.131 -0.9114  0.0197  1.3375
  267MOL0     C35953   2.375   6.408   3.151  0.2191 -0.3432 -0.4332
  267MOL0    Cl35954   2.253   6.386   3.276  0.3048 -0.4926  0.4450
  267MOL0     C35955   3.250   6.362   3.404  0.2752 -0.8253 -0.5018
  267MOL0     C35956   3.335   6.292   3.497  0.1967  0.7381 -0.2055
  267MOL0     O35957   3.283   5.968   3.702 -0.3232  0.3717 -0.0940
  267MOL0     C35958   3.448   5.876   3.905 -0.5497 -0.6341 -0.5329
  267MOL0     C35959   3.543   5.815   3.989  0.0583 -0.2966 -0.0044
  267MOL0     N35960   4.365   5.530   4.152  0.5153 -0.9119 -0.5683
  267MOL0     N35961   4.431   5.418   4.143 -0.5064 -0.1882  0.5781
  267MOL0     C35962   5.128   5.568   3.101 -0.7556 -0.4891 -0.0046
  267MOL0     C35963   5.198   5.648   3.008 -0.1609 -0.0350 -0.3568
  267MOL0     C35964   5.367   6.045   2.814 -0.4748 -0.0033 -0.5892
  267MOL0     C35965   5.485   6.117   2.829 -0.5094 -0.3346 -0.2764
  267MOL0     C35966   5.537   6.188   2.722 -0.0345 -0.4297  0.1329
  267MOL0     C35967   5.491   6.173   2.595  1.0089 -0.9594  0.3984
  267MOL0     O35968   5.547   6.245   2.490 -0.5674  0.0941  0.3081
  267MOL0     C35969   5.454   6.320   2.405 -0.8287  1.0448 -0.4492
  267MOL0     C35970   5.539   6.424   2.320 -0.6611  0.2415 -0.0980
  267MOL0     C35971   5.600   6.534   2.411 -0.5768 -0.4455 -0.4161
  267MOL0     C35972   5.644   6.660   2.339 -0.2930  0.5294  0.2227
  267MOL0     C35973   5.755   6.647   2.238 -0.3307  1.0333 -1.0904
  267MOL0     C35974   5.856   6.641   2.175 -0.1501 -0.1867  0.1013
  267MOL0     C35975   5.368   6.098   2.580 -0.2819  0.2403 -0.0779
  267MOL0     C35976   5.307   6.033   2.690 -1.1063 -0.0906 -0.5762
  267MOL0     C35977   5.179   5.961   2.671 -0.2033 -0.4271 -0.5624
  267MOL0     H35978   5.210   5.930   3.199  0.0669 -1.1414  0.9284
  267MOL0     H35979   5.083   5.795   3.349 -1.4455 -1.4170  0.3603
  267MOL0     H35980   5.092   5.608   3.484  2.5535 -4.7469  0.7507
  267MOL0     H35981   4.929   5.638   3.455 -1.0686  0.0517 -0.5254
  267MOL0     H35982   4.964   5.474   3.620  0.0936  1.8928 -0.9315
  267MOL0     H35983   5.050   5.360   3.506 -1.3902 -3.3078  0.6375
  267MOL0     H35984   4.852   5.292   3.420  1.7410  1.7152 -1.6067
  267MOL0     H35985   4.771   5.447   3.435  1.5569  1.5127 -1.0576
  267MOL0     H35986   4.839   5.294   3.701 -1.0257  1.7441  2.0460
  267MOL0     H35987   4.734   5.431   3.672  0.3915  2.3508 -1.3495
  267MOL0     H35988   4.590   5.273   3.548 -0.4044  1.3207  1.9106
  267MOL0     H35989   4.720   5.146   3.584  0.6068 -0.8453  1.9050
  267MOL0     H35990   4.547   5.102   3.730  1.0746 -0.0929 -2.6727
  267MOL0     H35991   4.682   5.159   3.825  1.1407  0.7499 -0.7717
  267MOL0     H35992   4.469   5.369   3.774 -1.1130 -1.1153  0.3169
  267MOL0     H35993   4.607   5.363   3.886  1.7992 -2.4380  1.6577
  267MOL0     H35994   4.362   5.192   3.913  1.0739 -2.7478 -0.6126
  267MOL0     H35995   4.505   5.176   4.005  0.3123 -4.2853 -3.0267
  267MOL0     H35996   4.210   5.388   3.916 -0.3902 -2.9978  2.0296
  267MOL0     H35997   4.203   5.742   4.055  2.9291 -1.2194 -1.7850
  267MOL0     H35998   4.112   5.633   3.959 -0.4070 -3.7621  0.5139
  267MOL0     H35999   4.013   5.529   4.174  1.7206 -0.0549 -0.3753
  267MOL0     H36000   4.122   5.616   4.263  1.8481 -0.6123 -1.5749
  267MOL0     H36001   4.013   5.822   4.228 -0.2838 -0.1853 -0.2190
  267MOL0     H36002   3.884   5.705   4.262 -1.1209 -1.5512 -0.9071
  267MOL0     H36003   3.933   5.741   3.963 -1.5232  1.5569 -2.1447
  267MOL0     H36004   3.878   5.893   4.039 -1.2075  0.1206  0.8567
  267MOL0     H36005   3.823   5.852   3.797  0.4439 -3.0338  0.7687
  267MOL0     H36006   3.651   5.961   3.644 -2.6588 -0.5224 -2.8499
  267MOL0     H36007   3.237   5.972   3.417  1.0630 -0.0602  2.6296
  267MOL0     H36008   3.086   6.088   3.280 -0.6561  1.9902 -1.8532
  267MOL0     H36009   3.065   6.269   3.061 -0.4213 -0.5275 -0.2373
  267MOL0     H36010   2.948   6.194   3.168 -0.2792 -0.0013  0.2815
  267MOL0     H36011   2.802   6.397   3.151  0.3899 -2.2887  0.6617
  267MOL0     H36012   2.949   6.486   3.088  0.4354 -0.1058  1.3231
  267MOL0     H36013   2.773   6.443   2.909 -0.4420 -1.3732 -1.6382
  267MOL0     H36014   2.941   6.394   2.882  1.3281  1.6772  0.7811
  267MOL0     H36015   2.858   6.155   2.942 -1.9487 -2.3885  1.2124
  267MOL0     H36016   2.748   6.228   2.818 -0.1439 -2.2784  0.3855
  267MOL0     H36017   2.715   6.192   3.116  1.3713  0.3752 -1.2707
  267MOL0     H36018   2.627   6.106   2.999 -1.3001  1.1506 -4.2818
  267MOL0     H36019   2.576   6.400   3.004 -1.1439 -1.1797  0.0859
  267MOL0     H36020   2.491   6.278   2.923 -1.0745  1.1093  0.0742
  267MOL0     H36021   2.503   6.260   3.225  2.4086  2.4197  0.2518
  267MOL0     H36022   2.371   6.211   3.106  1.3148 -1.8396 -1.0280
  267MOL0     H36023   2.445   6.489   3.168  2.2599 -2.2300  0.7227
  267MOL0     H36024   2.311   6.417   3.063  0.2975  1.9659 -0.3110
  267MOL0     H36025   3.248   6.470   3.415  0.4545 -0.4975 -3.1041
  267MOL0     H36026   3.405   6.340   3.564 -0.3800 -1.3651  2.0718
  267MOL0     H36027   3.340   5.879   3.916 -0.7535 -0.4558 -2.3795
  267MOL0     H36028   3.506   5.789   4.088  0.0628 -0.2600  0.0069
  267MOL0     H36029   5.107   5.464   3.077 -1.2349  0.1486 -2.6491
  267MOL0     H36030   5.230   5.608   2.912 -0.7620 -1.5412  0.0424
  267MOL0     H36031   5.527   6.129   2.929  1.3800  0.9456 -1.1648
  267MOL0     H36032   5.635   6.234   2.730  1.2610 -1.4340 -5.3974
  267MOL0     H36033   5.362   6.344   2.458 -3.1829 -3.5258 -1.9066
  267MOL0     H36034   5.419   6.256   2.323  0.3364  1.1013 -1.0116
  267MOL0     H36035   5.471   6.452   2.239  1.4604 -0.9152 -2.3993
  267MOL0     H36036   5.630   6.376   2.284  1.6280  2.5870  2.0571
  267MOL0     H36037   5.685   6.486   2.460 -0.0763  0.9716  0.1493
  267MOL0     H36038   5.514   6.566   2.471 -0.5693 -2.5670  0.8185
  267MOL0     H36039   5.562   6.713   2.290 -0.1693 -0.5561 -1.2261
  267MOL0     H36040   5.682   6.736   2.408  2.5266  1.4105 -2.0895
  267MOL0     H36041   5.949   6.617   2.128 -1.2682 -1.3987 -1.5995
  267MOL0     H36042   5.323   6.105   2.481  0.0235  0.7482 -0.1845
  267MOL0     H36043   5.093   5.975   2.738 -3.1089  0.7819 -4.2240
  267MOL0     H36044   5.138   5.967   2.570 -1.6812  0.4142  0.0479
  267MOL0     H36045   5.211   5.857   2.685 -2.1831 -1.1656 -1.0572
  268MOL0     O36046   4.264   0.054   5.184  0.5810 -1.1185  0.6406
  268MOL0     C36047   4.324   0.096   5.087  0.4811 -0.9375  0.0398
  268MOL0     O36048   4.271   0.182   4.988 -0.0976 -0.9444 -0.8867
  268MOL0     C36049   4.151   0.239   4.997 -0.9236  0.3680 -0.3297
  268MOL0     C36050   4.133   0.367   5.042 -0.0416  1.2897  0.2945
  268MOL0     C36051   4.000   0.414   5.058  0.3858  0.4170  0.2407
  268MOL0     C36052   3.888   0.338   5.020 -0.5820  0.6434 -0.0275
  268MOL0     O36053   3.756   0.377   5.035  0.2549  0.0601 -0.4971
  268MOL0     C36054   3.720   0.339   5.169  0.0572  0.1302 -0.5474
  268MOL0     C36055   3.766   0.444   5.273 -0.4083 -0.1569  0.1320
  268MOL0     C36056   3.725   0.591   5.247 -0.6210  0.4240  1.3471
  268MOL0     C36057   3.779   0.692   5.353  0.8341  0.4074 -0.6778
  268MOL0     C36058   3.684   0.690   5.480 -0.0851  0.7116  0.2347
  268MOL0     C36059   3.726   0.808   5.564  0.0851  0.0364 -0.2738
  268MOL0     C36060   3.647   0.829   5.693  1.3428 -0.7933 -0.3206
  268MOL0     C36061   3.668   0.976   5.745 -0.7135  0.4360  0.5408
  268MOL0     N36062   3.794   0.979   5.814  0.6272 -0.8997  0.1455
  268MOL0     C36063   3.920   1.010   5.761  1.1910 -0.5124  0.1224
  268MOL0     C36064   4.001   1.016   5.868  0.2133  0.5277 -0.3977
  268MOL0     C36065   4.144   1.051   5.842  0.1207  0.3424  0.1393
  268MOL0     C36066   4.221   0.922   5.792  0.3168 -0.2808 -0.0140
  268MOL0     C36067   4.369   0.938   5.788 -0.0796  0.7894 -0.2565
  268MOL0     C36068   4.438   0.805   5.811  0.3043 -0.0894  0.5835
  268MOL0     O36069   4.407   0.703   5.720  0.0185  0.5267  0.0854
  268MOL0     C36070   4.432   0.714   5.586  0.2373  0.5450 -0.3850
  268MOL0     C36071   4.519   0.810   5.522 -0.6954  0.5210  0.7114
  268MOL0     C36072   4.538   0.820   5.381  0.7017  0.1709 -0.8693
  268MOL0     C36073   4.452   0.743   5.300 -0.8937 -0.5762 -0.5742
  268MOL0     C36074   4.438   0.764   5.159  0.0009  0.1836  0.4527
  268MOL0     O36075   4.501   0.871   5.118 -0.1655 -0.0046 -0.2893
  268MOL0     C36076   4.456   0.946   5.018 -0.8696  0.4911 -0.4145
  268MOL0     C36077   4.541   1.048   4.965  0.3420 -0.0309  0.1950
  268MOL0     C36078   4.501   1.126   4.860  0.2142 -0.5184 -0.2127
  268MOL0     C36079   4.371   1.114   4.806 -0.4599 -0.2973  0.1843
  268MOL0     O36080   4.332   1.205   4.711  0.3748 -0.0521  0.8175
  268MOL0     C36081   4.218   1.191   4.633  0.0052  0.7682  0.2599
  268MOL0     C36082   4.235   1.281   4.521 -0.9240 -0.0901  0.5764
  268MOL0     C36083   4.364   1.255   4.443  0.4939  0.5401 -0.9037
  268MOL0     C36084   4.435   1.382   4.397 -0.2882 -0.6229 -0.4450
  268MOL0     C36085   4.530   1.365   4.281 -0.0827 -0.3160 -0.0140
  268MOL0     C36086   4.459   1.332   4.156  0.0314  0.2106  0.0001
  268MOL0     C36087   4.352   1.437   4.112  0.7157  0.0592 -0.6254
  268MOL0     C36088   4.309   1.380   3.968 -0.6003 -0.4283  0.5566
  268MOL0    Cl36089   4.326   1.521   3.869  0.0375  0.1801 -0.2058
  268MOL0     C36090   4.285   1.013   4.863 -0.3461 -0.1398 -0.2263
  268MOL0     C36091   4.324   0.930   4.965 -0.0420  0.0580 -0.7552
  268MOL0     O36092   4.389   0.674   5.089  0.5967 -0.7789 -0.3976
  268MOL0     C36093   4.364   0.648   5.368  0.7629  0.1072 -0.3155
  268MOL0     C36094   4.363   0.619   5.504 -0.2803 -0.0744 -0.8637
  268MOL0     N36095   3.922   0.991   5.978 -0.6062 -0.7267 -0.0507
  268MOL0     N36096   3.800   0.968   5.947 -0.4961 -0.5428 -0.0014
  268MOL0     C36097   3.917   0.206   4.976  0.9328  0.0443 -0.4411
  268MOL0     C36098   4.045   0.158   4.965  0.6655  0.3406 -0.7438
  268MOL0     C36099   4.467   0.093   5.092 -0.0651  0.1575 -0.3854
  268MOL0     C36100   4.521  -0.028   5.148 -0.3786 -0.1692  0.3304
  268MOL0     C36101   4.655  -0.057   5.147 -0.2076 -1.0672 -0.0157
  268MOL0     C36102   4.746   0.021   5.081  0.2387  0.7780 -0.8801
  268MOL0     O36103   4.874  -0.006   5.065  0.0705 -0.1997  0.2313
  268MOL0     C36104   4.950   0.054   4.965 -0.7926 -0.0417 -0.4636
  268MOL0     C36105   5.087  -0.029   4.955 -0.2358 -0.1193 -0.0556
  268MOL0     C36106   5.155  -0.004   4.824 -0.5700  0.2995 -0.1319
  268MOL0     C36107   5.217   0.134   4.817 -0.4469  0.0582  0.2488
  268MOL0     C36108   5.302   0.164   4.706  0.6227  0.0925 -0.1355
  268MOL0     C36109   5.379   0.183   4.617  0.4068  0.1152  0.3474
  268MOL0     C36110   4.693   0.141   5.027 -0.9436 -1.1949  1.4572
  268MOL0     C36111   4.560   0.173   5.025  0.4008 -0.3827 -0.1021
  268MOL0     C36112   4.520   0.302   4.951  0.2758 -0.0182 -0.6338
  268MOL0     H36113   4.219   0.432   5.049 -0.2205  1.3434  3.0322
  268MOL0     H36114   3.983   0.513   5.098 -0.0737  0.3195  0.3007
  268MOL0     H36115   3.611   0.329   5.168 -0.2398  2.4572  0.9806
  268MOL0     H36116   3.751   0.242   5.207  0.2251  0.7476  0.9501
  268MOL0     H36117   3.871   0.454   5.299 -0.2496  2.8880 -1.2329
  268MOL0     H36118   3.728   0.417   5.372  0.2757 -1.5714  0.0412
  268MOL0     H36119   3.616   0.600   5.249 -0.8690 -0.7375 -1.9021
  268MOL0     H36120   3.736   0.622   5.143  0.2607 -3.4278  0.1470
  268MOL0     H36121   3.877   0.666   5.393  0.9719  1.9935  0.0717
  268MOL0     H36122   3.777   0.791   5.307  1.3409  1.2435  1.0253
  268MOL0     H36123   3.579   0.714   5.460 -0.3215  2.0916  2.7099
  268MOL0     H36124   3.686   0.593   5.531 -0.5210  0.7349  0.3063
  268MOL0     H36125   3.834   0.805   5.582 -0.0533 -0.8210  0.4453
  268MOL0     H36126   3.700   0.900   5.511 -1.7288  1.2842  2.5377
  268MOL0     H36127   3.676   0.761   5.773  0.1722  0.3916  1.1693
  268MOL0     H36128   3.539   0.824   5.675  1.7927 -1.0880 -3.4607
  268MOL0     H36129   3.674   1.051   5.664 -0.9247  0.4097  0.4984
  268MOL0     H36130   3.600   0.994   5.828 -0.6899  1.6178  0.3236
  268MOL0     H36131   3.955   1.027   5.660  2.2543  0.1058  0.5731
  268MOL0     H36132   4.150   1.135   5.772  2.9417  3.3131  3.5655
  268MOL0     H36133   4.201   1.079   5.931  1.0861 -0.9138 -0.0563
  268MOL0     H36134   4.187   0.852   5.869  0.0057  1.3124  1.3618
  268MOL0     H36135   4.178   0.906   5.693  0.2750 -1.2592  0.1494
  268MOL0     H36136   4.401   1.001   5.871  3.2549 -0.0092 -0.7885
  268MOL0     H36137   4.410   0.987   5.700 -0.0689 -2.9921 -2.5841
  268MOL0     H36138   4.412   0.778   5.914  3.5715  0.7634  1.7657
  268MOL0     H36139   4.546   0.824   5.813  0.1829  0.7898  3.3439
  268MOL0     H36140   4.568   0.888   5.579 -2.7403  2.3498  0.0693
  268MOL0     H36141   4.602   0.894   5.335 -0.1707  3.3312  2.4887
  268MOL0     H36142   4.632   1.070   5.020  0.4522  2.0776 -0.7409
  268MOL0     H36143   4.559   1.214   4.833 -1.4694  0.9527  0.7044
  268MOL0     H36144   4.218   1.089   4.593  0.0990  0.0809  1.9263
  268MOL0     H36145   4.130   1.209   4.695 -1.5869  5.1457 -2.7776
  268MOL0     H36146   4.146   1.282   4.457 -0.2228  0.5051 -0.4085
  268MOL0     H36147   4.227   1.384   4.556 -3.7190  0.7602 -2.0802
  268MOL0     H36148   4.429   1.195   4.507  0.8948 -0.4283 -2.1765
  268MOL0     H36149   4.336   1.186   4.364  3.2432 -2.6972  0.7226
  268MOL0     H36150   4.501   1.432   4.469  0.4960  1.2232 -2.3584
  268MOL0     H36151   4.361   1.462   4.393  1.5153  1.3450  2.2723
  268MOL0     H36152   4.598   1.282   4.303  0.5083  0.1085 -0.2382
  268MOL0     H36153   4.588   1.457   4.275 -1.6857  0.6607 -1.9298
  268MOL0     H36154   4.532   1.312   4.077  0.0968 -2.9728  0.7478
  268MOL0     H36155   4.407   1.237   4.165  1.1035 -0.2425  2.0615
  268MOL0     H36156   4.396   1.538   4.105  1.8999 -0.2096  1.8260
  268MOL0     H36157   4.273   1.435   4.186  0.4492  0.6552 -0.8846
  268MOL0     H36158   4.377   1.302   3.932  0.2301 -0.1345  1.4365
  268MOL0     H36159   4.210   1.333   3.963 -1.9791  2.3204  0.5471
  268MOL0     H36160   4.179   0.994   4.847 -1.1157  0.7613  3.0360
  268MOL0     H36161   4.253   0.867   5.017 -0.6304 -0.0405 -1.6551
  268MOL0     H36162   4.286   0.589   5.320  0.9890  0.6290 -1.3582
  268MOL0     H36163   4.297   0.542   5.543 -0.5491  1.3309  1.6926
  268MOL0     H36164   3.825   0.152   4.951 -0.6708  0.9638  2.8807
  268MOL0     H36165   4.058   0.055   4.935 -3.6844  0.2064 -2.8274
  268MOL0     H36166   4.467  -0.084   5.224  1.1807 -1.2443  0.6823
  268MOL0     H36167   4.694  -0.139   5.206  1.1415 -0.0765  0.5392
  268MOL0     H36168   4.972   0.160   4.981  1.5141 -0.2893 -1.5302
  268MOL0     H36169   4.903   0.047   4.866  0.9597 -0.5556 -1.3123
  268MOL0     H36170   5.072  -0.135   4.978 -0.8095  0.3409  1.9534
  268MOL0     H36171   5.152   0.003   5.036 -1.9296 -0.2571  1.4457
  268MOL0     H36172   5.088  -0.017   4.737  0.2312  2.4991 -1.1495
  268MOL0     H36173   5.231  -0.080   4.804 -2.0130 -0.8568 -1.5644
  268MOL0     H36174   5.138   0.210   4.810 -1.1249 -0.1100  4.0160
  268MOL0     H36175   5.268   0.162   4.910 -0.9193  1.1243  0.2076
  268MOL0     H36176   5.456   0.200   4.545  1.5269 -2.3524  0.8961
  268MOL0     H36177   4.747   0.214   4.968 -0.7475 -1.2431  1.5756
  268MOL0     H36178   4.463   0.278   4.860 -1.8527  0.6500  0.4644
  268MOL0     H36179   4.459   0.356   5.024  0.7009 -0.9677  0.4353
  268MOL0     H36180   4.591   0.375   4.911  0.1738  0.6282  0.3234
  269MOL0     O36181   7.812  10.571   6.637  0.0355  0.3614 -0.4455
  269MOL0     C36182   7.910  10.578   6.564 -0.9879  0.9560 -0.9746
  269MOL0     O36183   7.922  10.528   6.437  0.9438  0.3507 -0.0300
  269MOL0     C36184   7.820  10.442   6.398 -0.5803  0.6204  0.4948
  269MOL0     C36185   7.764  10.442   6.276  0.9126  0.7064  0.1194
  269MOL0     C36186   7.649  10.369   6.246  0.2908 -0.7291 -0.8387
  269MOL0     C36187   7.613  10.265   6.338 -0.5660 -0.6526  0.1817
  269MOL0     O36188   7.504  10.183   6.314 -0.1458 -0.1129  0.3424
  269MOL0     C36189   7.419  10.198   6.192 -0.5765 -0.9484  0.4983
  269MOL0     C36190   7.316  10.093   6.196 -0.8554  0.2939  1.4294
  269MOL0     C36191   7.245  10.080   6.063 -0.0423  0.3941 -0.0682
  269MOL0     C36192   7.146   9.963   6.054 -1.1221 -0.1431  0.3378
  269MOL0     C36193   7.189   9.880   5.930  0.7785  0.4111  0.6630
  269MOL0     C36194   7.073   9.786   5.869  0.2382  0.2791 -0.0322
  269MOL0     C36195   7.124   9.646   5.824  1.4351  1.0506  1.1404
  269MOL0     C36196   7.006   9.568   5.757  0.1161  0.5274  1.1028
  269MOL0     N36197   7.017   9.425   5.720  0.2500 -0.2543 -0.3115
  269MOL0     C36198   7.013   9.334   5.826 -0.3547  0.0028 -0.7338
  269MOL0     C36199   6.996   9.216   5.755  0.6886 -0.5674 -0.1994
  269MOL0     C36200   6.966   9.083   5.829  1.5915  0.0202  0.5952
  269MOL0     C36201   6.822   9.038   5.790 -0.5193  0.6383 -0.1545
  269MOL0     C36202   6.725   9.100   5.895 -0.6224  0.6881 -0.0215
  269MOL0     C36203   6.583   9.087   5.853  0.9058  0.7309  0.0359
  269MOL0     O36204   6.554   9.192   5.766  0.5821 -0.0386  0.5204
  269MOL0     C36205   6.540   9.312   5.827  1.7899 -0.2942 -0.5520
  269MOL0     C36206   6.544   9.423   5.739 -0.6351 -0.1491 -0.7642
  269MOL0     C36207   6.506   9.549   5.783 -0.6989 -0.9466 -0.1059
  269MOL0     C36208   6.466   9.584   5.911 -0.0297 -0.1869 -0.7510
  269MOL0     C36209   6.397   9.709   5.949  0.3751 -0.4717  0.1288
  269MOL0     O36210   6.422   9.821   5.870 -0.6537  0.0470 -0.8585
  269MOL0     C36211   6.360   9.942   5.898 -0.0033  0.1864 -0.9284
  269MOL0     C36212   6.295   9.981   6.020 -0.0699 -0.3362 -0.4136
  269MOL0     C36213   6.215  10.094   6.022 -0.1460  0.2687  0.7718
  269MOL0     C36214   6.197  10.174   5.901  0.6991  0.8891 -0.9928
  269MOL0     O36215   6.112  10.283   5.918 -0.1239 -0.0232 -0.3333
  269MOL0     C36216   6.100  10.368   5.803  0.5029 -0.3073 -0.8087
  269MOL0     C36217   5.996  10.481   5.821  0.1023  0.3192 -0.5865
  269MOL0     C36218   6.021  10.549   5.957  0.3304 -0.1299 -0.0192
  269MOL0     C36219   5.950  10.681   5.968  0.7081  1.1461  1.0615
  269MOL0     C36220   5.790  10.667   5.976 -0.9522 -0.3480 -0.1186
  269MOL0     C36221   5.726  10.804   5.939 -0.6086 -0.6013 -0.1925
  269MOL0     C36222   5.571  10.802   5.973  0.7119 -0.3464 -0.1919
  269MOL0     C36223   5.483  10.710   5.878 -0.4168  0.6956  1.1197
  269MOL0    Cl36224   5.467  10.772   5.707 -0.1518 -0.1425  0.1262
  269MOL0     C36225   6.278  10.137   5.792 -0.3707 -1.0862 -0.8440
  269MOL0     C36226   6.360  10.024   5.794  0.1874 -0.8529  1.6343
  269MOL0     O36227   6.298   9.697   6.016  0.6654  0.4615  0.2186
  269MOL0     C36228   6.469   9.468   6.003 -0.1638  0.8660 -0.2463
  269MOL0     C36229   6.507   9.342   5.966  1.1632 -1.0750  1.0033
  269MOL0     N36230   7.005   9.241   5.618 -0.2003 -0.3891  0.4762
  269MOL0     N36231   7.008   9.366   5.596 -0.7681 -1.1707 -0.6481
  269MOL0     C36232   7.683  10.254   6.460 -0.6233  0.9303  0.4485
  269MOL0     C36233   7.788  10.335   6.483  0.0011 -0.0685  0.2010
  269MOL0     C36234   8.031  10.642   6.621 -0.3902 -0.3017 -0.1927
  269MOL0     C36235   8.112  10.720   6.540 -0.1383  1.1006  0.2271
  269MOL0     C36236   8.229  10.773   6.593 -0.1456  0.6354 -0.0850
  269MOL0     C36237   8.275  10.760   6.720 -0.2227  0.2101 -0.8749
  269MOL0     O36238   8.386  10.815   6.774 -0.4231  0.0416 -0.4055
  269MOL0     C36239   8.456  10.924   6.701 -0.4016 -0.4945  0.3010
  269MOL0     C36240   8.599  10.929   6.740 -0.7506 -0.9993  0.2280
  269MOL0     C36241   8.673  10.808   6.678  0.0745  0.5570  0.7514
  269MOL0     C36242   8.826  10.807   6.685 -0.0516  0.3351 -1.5605
  269MOL0     C36243   8.893  10.714   6.593 -0.9942  0.2778  0.0251
  269MOL0     C36244   8.952  10.636   6.532  0.0493 -1.2338 -0.1701
  269MOL0     C36245   8.190  10.682   6.798 -0.2099  0.2273 -0.7180
  269MOL0     C36246   8.075  10.609   6.755  0.1435 -0.8849 -0.4814
  269MOL0     C36247   8.000  10.535   6.854 -0.6901 -0.3008 -0.0042
  269MOL0     H36248   7.800  10.520   6.209 -0.9682  0.9039 -0.7136
  269MOL0     H36249   7.596  10.395   6.155 -1.9706 -1.0582  0.3022
  269MOL0     H36250   7.370  10.295   6.191  0.0468 -0.5870 -2.0393
  269MOL0     H36251   7.483  10.189   6.103 -0.0113 -4.6892  1.1065
  269MOL0     H36252   7.244  10.095   6.279 -0.6585 -6.3017  2.2731
  269MOL0     H36253   7.367  10.001   6.222 -2.6666 -0.3626  2.9204
  269MOL0     H36254   7.323  10.065   5.987  0.0973 -0.8542  0.3056
  269MOL0     H36255   7.205  10.180   6.045 -0.5172  0.0850 -0.7777
  269MOL0     H36256   7.161   9.901   6.143 -0.0050 -1.8544 -0.9887
  269MOL0     H36257   7.047  10.005   6.033 -1.6066 -1.8125 -0.9632
  269MOL0     H36258   7.213   9.955   5.855  3.4861 -0.9357  0.0694
  269MOL0     H36259   7.277   9.817   5.948  0.0596 -1.7768 -2.5751
  269MOL0     H36260   6.990   9.760   5.936 -0.3125 -2.8946 -1.7411
  269MOL0     H36261   7.027   9.838   5.784 -2.6340  0.4967  1.5124
  269MOL0     H36262   7.145   9.577   5.906 -2.5257 -2.0695 -0.1780
  269MOL0     H36263   7.208   9.650   5.755 -1.0984  1.2056 -2.2239
  269MOL0     H36264   6.921   9.570   5.826 -0.5305 -2.0374  0.4765
  269MOL0     H36265   6.985   9.620   5.663  2.0118 -2.6532 -1.2930
  269MOL0     H36266   7.028   9.355   5.931  0.5784  0.2396 -0.9063
  269MOL0     H36267   7.026   8.997   5.798 -1.2754 -2.3679  1.2013
  269MOL0     H36268   6.977   9.086   5.938 -5.6196  0.2191  1.7811
  269MOL0     H36269   6.797   9.070   5.689 -0.5623  0.1152 -0.3152
  269MOL0     H36270   6.807   8.929   5.790 -1.9667  0.7917 -1.8830
  269MOL0     H36271   6.756   9.202   5.922  0.5010  0.0396  1.2556
  269MOL0     H36272   6.725   9.052   5.993 -2.6725 -2.3162 -1.3749
  269MOL0     H36273   6.511   9.090   5.936 -0.1311  1.4910 -0.8538
  269MOL0     H36274   6.550   8.999   5.797 -3.2554  1.2431  1.3093
  269MOL0     H36275   6.580   9.411   5.637  1.7888 -1.6486  0.1965
  269MOL0     H36276   6.487   9.625   5.707 -2.4084 -2.4475 -1.2450
  269MOL0     H36277   6.295   9.914   6.105 -1.8865 -0.2046 -0.2725
  269MOL0     H36278   6.158  10.118   6.111 -2.6070 -1.3842 -0.2513
  269MOL0     H36279   6.196  10.411   5.773  1.5309 -2.4117 -0.7186
  269MOL0     H36280   6.068  10.320   5.710  2.7686  2.0177 -2.9530
  269MOL0     H36281   6.021  10.556   5.746  0.6077 -0.0093 -0.7512
  269MOL0     H36282   5.891  10.454   5.809 -0.0583  0.2736  0.7660
  269MOL0     H36283   6.014  10.491   6.049  0.9866 -0.2444 -0.0337
  269MOL0     H36284   6.127  10.577   5.955 -0.2295  2.2595  0.2852
  269MOL0     H36285   5.970  10.745   5.882  2.4289  1.8423  1.9188
  269MOL0     H36286   5.983  10.721   6.065 -0.0479 -1.5150  2.5183
  269MOL0     H36287   5.763  10.636   6.077  0.3326  0.4502  0.4958
  269MOL0     H36288   5.760  10.587   5.908 -0.3211 -1.5302  0.9453
  269MOL0     H36289   5.794  10.876   5.986  0.1689 -1.2340 -0.3187
  269MOL0     H36290   5.733  10.831   5.834 -0.0155  0.7034  0.1637
  269MOL0     H36291   5.535  10.905   5.977 -2.3717 -1.3762  2.4207
  269MOL0     H36292   5.559  10.781   6.079 -0.0018  0.0515 -0.1886
  269MOL0     H36293   5.525  10.609   5.874  0.6567  1.1609 -0.0919
  269MOL0     H36294   5.383  10.694   5.919 -0.7205 -0.4770 -0.0420
  269MOL0     H36295   6.268  10.199   5.704  0.5890 -0.5373 -0.5855
  269MOL0     H36296   6.402   9.992   5.699 -1.5531  1.2222  0.0655
  269MOL0     H36297   6.453   9.481   6.110  0.3822  2.0092 -0.2835
  269MOL0     H36298   6.514   9.272   6.048  3.1652 -4.4923 -1.7491
  269MOL0     H36299   7.656  10.180   6.534  1.0194 -2.2276 -1.8722
  269MOL0     H36300   7.828  10.331   6.583 -0.8896 -1.1597  0.5385
  269MOL0     H36301   8.084  10.730   6.436  1.8671 -3.7642 -1.0875
  269MOL0     H36302   8.281  10.838   6.524  2.0371 -1.8230 -0.9346
  269MOL0     H36303   8.401  11.016   6.723 -1.5429 -0.4040 -2.6369
  269MOL0     H36304   8.449  10.903   6.594  0.6020  0.2405  0.0703
  269MOL0     H36305   8.619  10.926   6.848  5.2482 -1.8099 -0.5352
  269MOL0     H36306   8.640  11.026   6.712  0.3345 -0.8431  2.2064
  269MOL0     H36307   8.644  10.796   6.573 -0.9301 -1.5920  1.2231
  269MOL0     H36308   8.644  10.713   6.724  1.8057 -1.5671 -2.1904
  269MOL0     H36309   8.866  10.908   6.683 -0.8608  0.7179 -0.2363
  269MOL0     H36310   8.853  10.774   6.786 -0.4278  1.2828 -1.1332
  269MOL0     H36311   9.000  10.590   6.448 -1.0696 -1.2468 -0.8220
  269MOL0     H36312   8.230  10.662   6.897 -1.5423  0.4732 -0.1129
  269MOL0     H36313   8.055  10.522   6.948 -0.1273 -1.3915 -0.4643
  269MOL0     H36314   7.909  10.588   6.883 -0.0949  0.2207  0.9670
  269MOL0     H36315   7.991  10.429   6.831  1.4899 -0.4562 -0.3849
  270MOL0     O36316   5.559   0.356   7.689 -0.1508 -0.5741 -0.1705
  270MOL0     C36317   5.447   0.304   7.669 -0.1226  0.8376 -0.2746
  270MOL0     O36318   5.339   0.328   7.748 -0.3367  1.3039 -0.9114
  270MOL0     C36319   5.373   0.351   7.880 -0.2508 -0.4075 -0.7290
  270MOL0     C36320   5.344   0.469   7.950  0.3403  0.2609 -0.3469
  270MOL0     C36321   5.376   0.489   8.087  0.4910  0.0982 -0.4034
  270MOL0     C36322   5.443   0.386   8.161 -0.5599  0.0720 -0.3951
  270MOL0     O36323   5.478   0.422   8.292  0.1176  0.4918 -0.3235
  270MOL0     C36324   5.620   0.407   8.329 -0.0280 -0.1715 -0.5321
  270MOL0     C36325   5.652   0.485   8.451  0.5792 -0.7887  0.2220
  270MOL0     C36326   5.596   0.633   8.450  0.4194  0.3616  1.6149
  270MOL0     C36327   5.638   0.713   8.326  0.1832  0.6552  0.2243
  270MOL0     C36328   5.608   0.865   8.331  0.9993  1.4726  0.3841
  270MOL0     C36329   5.673   0.927   8.223 -0.8127 -0.1161 -0.6679
  270MOL0     C36330   5.654   0.878   8.081 -0.1633 -0.3109 -0.6019
  270MOL0     C36331   5.504   0.858   8.053  0.1656  0.2025  0.0111
  270MOL0     N36332   5.451   0.831   7.917 -0.1916 -0.2020  0.3226
  270MOL0     C36333   5.509   0.753   7.819 -0.2426  0.8304  0.9688
  270MOL0     C36334   5.417   0.739   7.716  0.1749  0.4005 -0.2675
  270MOL0     C36335   5.443   0.660   7.590 -0.0726  0.0094  0.7369
  270MOL0     C36336   5.385   0.719   7.458  0.3138 -0.0976  0.4862
  270MOL0     C36337   5.420   0.858   7.416 -0.8910 -0.4416  0.8499
  270MOL0     C36338   5.346   0.899   7.286 -0.0654  0.3125 -0.3349
  270MOL0     O36339   5.377   0.812   7.174  0.5560 -0.4045 -0.2405
  270MOL0     C36340   5.297   0.706   7.154 -0.0963 -0.1335  0.4154
  270MOL0     C36341   5.360   0.589   7.134 -0.2388 -0.7170 -0.3656
  270MOL0     C36342   5.282   0.472   7.106  0.5087 -0.2916 -0.7124
  270MOL0     C36343   5.138   0.483   7.101  1.0181 -0.6816 -0.0628
  270MOL0     C36344   5.059   0.363   7.061 -0.0849 -1.3393  0.4153
  270MOL0     O36345   4.933   0.390   7.011 -0.0542  0.0890 -0.6549
  270MOL0     C36346   4.848   0.288   6.995 -0.4972  0.4007  0.7117
  270MOL0     C36347   4.762   0.296   6.888  0.3747 -0.5462  0.3946
  270MOL0     C36348   4.660   0.200   6.873  0.1298 -0.1027  0.9126
  270MOL0     C36349   4.647   0.095   6.967  0.4305  0.7162  0.7932
  270MOL0     O36350   4.553  -0.002   6.948 -0.1180  0.1391 -0.6984
  270MOL0     C36351   4.543  -0.047   6.808 -0.2696 -1.0727 -0.0572
  270MOL0     C36352   4.511  -0.201   6.793 -0.2428 -0.7965  0.1549
  270MOL0     C36353   4.360  -0.224   6.779 -0.5614 -0.4134 -0.2181
  270MOL0     C36354   4.327  -0.373   6.806  0.2637 -0.3071  0.2887
  270MOL0     C36355   4.179  -0.389   6.846 -0.3650 -0.0778 -0.1493
  270MOL0     C36356   4.162  -0.528   6.894  0.0183 -1.0357  0.8485
  270MOL0     C36357   4.018  -0.538   6.939 -0.0673  0.3442  0.4750
  270MOL0     C36358   3.968  -0.675   6.954  1.0318 -0.4982  0.2072
  270MOL0    Cl36359   4.043  -0.779   7.075 -0.3308  0.4578 -0.2463
  270MOL0     C36360   4.729   0.093   7.079 -0.1715  0.5086  0.1579
  270MOL0     C36361   4.829   0.188   7.091 -0.6321 -1.0231  0.1780
  270MOL0     O36362   5.116   0.260   7.065  0.1858  0.5755 -0.8939
  270MOL0     C36363   5.080   0.605   7.139 -0.3169  0.6210  0.0377
  270MOL0     C36364   5.161   0.713   7.152  0.4852 -0.0732  0.7757
  270MOL0     N36365   5.309   0.807   7.751  0.6839  0.4243  0.0662
  270MOL0     N36366   5.329   0.859   7.868  0.7615  0.0490  0.6767
  270MOL0     C36367   5.473   0.272   8.084  0.6253  0.2983 -0.6460
  270MOL0     C36368   5.428   0.246   7.958  0.8016 -0.0965 -0.2027
  270MOL0     C36369   5.437   0.219   7.548  0.4206  0.4928  0.1077
  270MOL0     C36370   5.542   0.134   7.510  0.2284 -0.1868 -0.6029
  270MOL0     C36371   5.531   0.052   7.400 -0.2671 -0.4942  0.0065
  270MOL0     C36372   5.430   0.068   7.314  0.8294  0.8954  0.4273
  270MOL0     O36373   5.443  -0.027   7.217  0.6290 -0.0105 -0.6501
  270MOL0     C36374   5.324  -0.076   7.152  0.3660  0.6043  0.4612
  270MOL0     C36375   5.261  -0.194   7.241 -0.1031 -0.6716 -0.1497
  270MOL0     C36376   5.357  -0.309   7.269  0.6315 -0.3341 -0.4692
  270MOL0     C36377   5.266  -0.422   7.341 -0.6093  0.2997 -0.0321
  270MOL0     C36378   5.200  -0.506   7.238 -0.4886  0.4158 -0.2186
  270MOL0     C36379   5.151  -0.587   7.163 -0.1121 -0.3367 -0.4803
  270MOL0     C36380   5.315   0.149   7.334 -0.7186 -0.5754 -0.2265
  270MOL0     C36381   5.323   0.224   7.451  0.2504  0.1595  0.2373
  270MOL0     C36382   5.224   0.323   7.460  0.0461 -0.2054 -0.3442
  270MOL0     H36383   5.299   0.551   7.894  0.5500  1.9828  1.8960
  270MOL0     H36384   5.349   0.589   8.120  2.7075  1.0387 -1.2693
  270MOL0     H36385   5.627   0.298   8.338 -2.2173 -0.4778 -1.8601
  270MOL0     H36386   5.692   0.425   8.248 -0.9335 -0.4167 -1.4025
  270MOL0     H36387   5.757   0.495   8.480 -0.0321  2.9885  1.6875
  270MOL0     H36388   5.608   0.451   8.545 -0.7660  0.5281  0.1052
  270MOL0     H36389   5.635   0.678   8.542 -1.4251  1.8491  1.7170
  270MOL0     H36390   5.487   0.627   8.456 -0.0492  2.7046 -2.0004
  270MOL0     H36391   5.744   0.702   8.301 -0.5692  0.4910 -3.4087
  270MOL0     H36392   5.581   0.674   8.241 -0.9393  1.9179  0.3619
  270MOL0     H36393   5.499   0.876   8.332  0.8726  0.3434  0.1437
  270MOL0     H36394   5.628   0.899   8.433  0.3097 -0.2910  1.1632
  270MOL0     H36395   5.633   1.028   8.227 -0.6747 -0.0900  0.4200
  270MOL0     H36396   5.780   0.933   8.242 -0.8296 -1.7860  0.1638
  270MOL0     H36397   5.710   0.785   8.068 -3.8859 -2.9176  0.3130
  270MOL0     H36398   5.693   0.955   8.015 -1.3529  0.1652 -0.7855
  270MOL0     H36399   5.466   0.792   8.132  1.6433 -2.1022 -1.0737
  270MOL0     H36400   5.451   0.950   8.075  0.2820 -0.2438  2.4014
  270MOL0     H36401   5.602   0.699   7.833 -2.2914 -2.7213  2.0491
  270MOL0     H36402   5.550   0.657   7.565 -0.8524 -1.1603 -3.1022
  270MOL0     H36403   5.409   0.560   7.617 -5.2983  1.5449  0.9877
  270MOL0     H36404   5.427   0.643   7.391 -0.8312  0.6782 -1.1910
  270MOL0     H36405   5.278   0.711   7.480 -0.0329  1.6422 -0.3594
  270MOL0     H36406   5.529   0.870   7.407 -0.8984 -1.0534 -0.2378
  270MOL0     H36407   5.398   0.938   7.487 -0.4349  0.1134  0.3765
  270MOL0     H36408   5.377   1.003   7.271 -0.0138  0.2248 -0.8868
  270MOL0     H36409   5.243   0.910   7.321  0.6039 -2.1069  2.8259
  270MOL0     H36410   5.469   0.582   7.131 -0.3429 -2.7375 -1.4634
  270MOL0     H36411   5.327   0.379   7.072 -0.3337 -0.9236 -0.1335
  270MOL0     H36412   4.772   0.375   6.815  0.3492 -1.5234 -0.7009
  270MOL0     H36413   4.597   0.212   6.785  0.1535  2.4550  1.1655
  270MOL0     H36414   4.475   0.022   6.757 -1.7301 -1.9232  0.6602
  270MOL0     H36415   4.643  -0.041   6.764  0.3894 -2.2554  1.1996
  270MOL0     H36416   4.547  -0.243   6.699 -2.4761 -2.8854  0.1285
  270MOL0     H36417   4.556  -0.254   6.877 -0.4373  1.9201  2.1415
  270MOL0     H36418   4.319  -0.156   6.854  0.8238  0.2501 -0.0300
  270MOL0     H36419   4.333  -0.179   6.683  0.4875 -1.6482 -1.1171
  270MOL0     H36420   4.386  -0.414   6.888 -0.8675  1.3903  2.0485
  270MOL0     H36421   4.340  -0.427   6.712 -1.7352  0.8821 -0.7432
  270MOL0     H36422   4.114  -0.363   6.763  0.1743  2.1328  0.0633
  270MOL0     H36423   4.152  -0.329   6.934  1.4854 -1.9508  1.8334
  270MOL0     H36424   4.181  -0.599   6.812  0.6027 -0.6802  0.6701
  270MOL0     H36425   4.221  -0.557   6.981  0.3783 -0.0082  0.9563
  270MOL0     H36426   3.947  -0.477   6.881  1.7924  3.5389  1.3258
  270MOL0     H36427   4.033  -0.495   7.038 -0.5160  1.4193  0.0914
  270MOL0     H36428   3.865  -0.658   6.987  0.8146 -2.6363  0.7663
  270MOL0     H36429   3.970  -0.718   6.854 -1.0061  1.4983 -0.7732
  270MOL0     H36430   4.701   0.011   7.144  0.4095 -0.6278 -0.9741
  270MOL0     H36431   4.891   0.194   7.181  1.2342  1.4676 -1.1690
  270MOL0     H36432   4.976   0.624   7.163 -0.5180 -1.9558  1.5697
  270MOL0     H36433   5.129   0.816   7.150  1.7779  0.3521 -0.8512
  270MOL0     H36434   5.536   0.200   8.135 -0.7019 -1.0781 -0.8600
  270MOL0     H36435   5.453   0.148   7.918  1.0591  0.0604 -0.4361
  270MOL0     H36436   5.635   0.145   7.564  1.9240  1.8961 -3.6343
  270MOL0     H36437   5.602  -0.030   7.392  0.3956  0.0504  0.2041
  270MOL0     H36438   5.344  -0.116   7.052 -2.7817  3.3457 -1.4680
  270MOL0     H36439   5.244  -0.003   7.137 -0.8037 -0.0669  2.9038
  270MOL0     H36440   5.167  -0.239   7.207 -0.6929 -1.9235  2.7396
  270MOL0     H36441   5.240  -0.155   7.342  0.1979 -0.6589 -0.0906
  270MOL0     H36442   5.429  -0.281   7.347  1.1586  0.4626 -1.2352
  270MOL0     H36443   5.415  -0.336   7.181  2.5822 -3.0239  1.4574
  270MOL0     H36444   5.327  -0.482   7.409  0.5168  1.4608  0.0096
  270MOL0     H36445   5.184  -0.379   7.399 -1.1788  1.4629 -1.6228
  270MOL0     H36446   5.117  -0.665   7.097  2.6524 -2.0815  0.0109
  270MOL0     H36447   5.227   0.146   7.270  0.3273  3.9469 -2.2417
  270MOL0     H36448   5.140   0.283   7.517  0.2164  1.0816  0.8770
  270MOL0     H36449   5.281   0.405   7.506 -0.4178 -0.7457  1.2492
  270MOL0     H36450   5.196   0.369   7.365  2.4609  0.9295 -0.5939
  271MOL0     O36451   8.926  10.116   6.512 -0.2957  0.8114  0.1476
  271MOL0     C36452   8.879  10.139   6.622  0.2408  0.5256 -0.0411
  271MOL0     O36453   8.755  10.076   6.668 -0.3752 -0.9586  0.2038
  271MOL0     C36454   8.711   9.960   6.608  0.1023  0.0772  0.2677
  271MOL0     C36455   8.639   9.958   6.487  0.0840  0.3634 -0.3885
  271MOL0     C36456   8.607   9.830   6.427 -0.0374 -0.1230 -0.5146
  271MOL0     C36457   8.654   9.710   6.487 -0.8047  0.0428 -0.6074
  271MOL0     O36458   8.651   9.586   6.425  0.5530  0.7006 -0.2978
  271MOL0     C36459   8.570   9.553   6.314  0.3830 -0.4545  0.0878
  271MOL0     C36460   8.420   9.568   6.350  0.1594  0.8831 -0.5267
  271MOL0     C36461   8.395   9.456   6.445  0.6046 -0.7823  0.6636
  271MOL0     C36462   8.261   9.467   6.510  1.6543  0.5133  0.2791
  271MOL0     C36463   8.142   9.480   6.419 -0.0727 -0.0878 -0.5165
  271MOL0     C36464   8.133   9.382   6.302  0.1537  0.5243 -0.5616
  271MOL0     C36465   8.004   9.395   6.213  0.7402  0.0749 -0.5405
  271MOL0     C36466   8.027   9.302   6.096 -0.1993 -0.6274 -0.7302
  271MOL0     N36467   7.895   9.263   6.036  0.4315  0.2906 -0.4161
  271MOL0     C36468   7.825   9.313   5.925  0.4033  0.9778 -0.7618
  271MOL0     C36469   7.718   9.236   5.903  0.2312  0.8478  0.9662
  271MOL0     C36470   7.614   9.268   5.788 -0.4067  1.1725  0.3677
  271MOL0     C36471   7.498   9.168   5.797  0.1491 -0.5408 -0.5827
  271MOL0     C36472   7.372   9.245   5.734  0.1447 -0.6356 -0.3690
  271MOL0     C36473   7.372   9.281   5.585  0.3564 -0.1002  0.1182
  271MOL0     O36474   7.358   9.152   5.537  0.4264  0.1742  0.4439
  271MOL0     C36475   7.316   9.158   5.412 -0.7816  0.4813 -0.4458
  271MOL0     C36476   7.401   9.177   5.308  0.0470 -0.1404  0.2774
  271MOL0     C36477   7.366   9.172   5.174 -0.6824  0.5550 -0.0437
  271MOL0     C36478   7.234   9.160   5.132 -0.0144  0.1029 -0.2050
  271MOL0     C36479   7.198   9.133   4.994 -0.0731 -0.2385  0.5079
  271MOL0     O36480   7.080   9.063   4.977  0.3671 -0.1546 -0.6239
  271MOL0     C36481   7.028   9.045   4.851 -0.3289  0.1849 -0.1863
  271MOL0     C36482   7.031   9.147   4.757 -0.0249 -0.6467 -0.0811
  271MOL0     C36483   6.975   9.134   4.632  0.7840 -0.4708  0.3851
  271MOL0     C36484   6.887   9.029   4.606  0.6443 -0.7381  0.5358
  271MOL0     O36485   6.806   9.048   4.490 -0.8885  0.2686  0.3583
  271MOL0     C36486   6.882   9.060   4.367  0.1617  0.8169 -0.6908
  271MOL0     C36487   6.923   8.926   4.315 -0.9354  0.3430  0.0933
  271MOL0     C36488   6.812   8.834   4.256 -0.9436  0.0224 -0.7476
  271MOL0     C36489   6.731   8.770   4.371 -0.8231  0.9681  0.0586
  271MOL0     C36490   6.601   8.716   4.309 -0.2014  0.2247  0.2421
  271MOL0     C36491   6.623   8.561   4.314 -0.3718  0.3170 -0.4031
  271MOL0     C36492   6.485   8.491   4.286 -0.6675  0.4758  0.0484
  271MOL0     C36493   6.489   8.342   4.235 -0.2192 -0.6019 -0.7787
  271MOL0    Cl36494   6.317   8.278   4.216 -0.3977 -0.1144  0.0869
  271MOL0     C36495   6.869   8.926   4.704  0.8194  0.0966 -0.0371
  271MOL0     C36496   6.939   8.934   4.826 -0.0096 -0.7902  0.5063
  271MOL0     O36497   7.280   9.154   4.909 -0.1684 -0.1021 -0.2563
  271MOL0     C36498   7.139   9.142   5.239  0.2917  0.9310 -0.3138
  271MOL0     C36499   7.184   9.141   5.370  0.1528  0.2250 -0.5673
  271MOL0     N36500   7.719   9.142   6.001  0.4585 -0.1379 -0.3485
  271MOL0     N36501   7.821   9.162   6.076 -1.6047  0.2863  0.2588
  271MOL0     C36502   8.713   9.716   6.618 -0.6827 -0.0364 -0.0546
  271MOL0     C36503   8.745   9.844   6.674 -0.0159  1.1886 -0.3293
  271MOL0     C36504   8.934  10.248   6.703  0.8331  0.5464  0.0045
  271MOL0     C36505   8.869  10.304   6.809  0.0453  0.3112 -0.1051
  271MOL0     C36506   8.911  10.417   6.878  0.6650  0.8201 -0.2678
  271MOL0     C36507   9.037  10.471   6.850 -0.6257  0.2081  0.9361
  271MOL0     O36508   9.085  10.576   6.926  0.9118  0.2614  0.9127
  271MOL0     C36509   9.203  10.653   6.898 -0.8787 -1.0113  0.5535
  271MOL0     C36510   9.201  10.784   6.975  0.4850  0.1201 -0.5329
  271MOL0     C36511   9.054  10.847   6.984 -0.8594  0.9545  0.5067
  271MOL0     C36512   9.058  10.988   7.045 -0.1849  0.0549  0.2855
  271MOL0     C36513   9.071  10.990   7.187  0.1695 -0.2461 -0.3654
  271MOL0     C36514   9.093  11.004   7.300  0.9452 -0.0846  0.1102
  271MOL0     C36515   9.110  10.409   6.752 -0.0126 -0.2094  0.2682
  271MOL0     C36516   9.071  10.295   6.686 -0.0203 -0.1654  0.0459
  271MOL0     C36517   9.170  10.240   6.587 -0.2313 -0.3549  0.6540
  271MOL0     H36518   8.612  10.049   6.436  0.9365 -0.3222 -2.1173
  271MOL0     H36519   8.558   9.822   6.331 -0.4316 -1.1892 -0.2340
  271MOL0     H36520   8.609   9.609   6.229  0.9768  0.3964  0.8994
  271MOL0     H36521   8.594   9.452   6.279 -1.1903 -1.9298  2.8603
  271MOL0     H36522   8.362   9.566   6.257 -3.6494 -0.0730  1.7031
  271MOL0     H36523   8.392   9.663   6.396 -1.9879 -0.0088  0.1021
  271MOL0     H36524   8.471   9.466   6.523  1.7796  2.1669 -0.7159
  271MOL0     H36525   8.400   9.362   6.390 -3.1433  0.0758 -1.5330
  271MOL0     H36526   8.242   9.386   6.580 -0.8582 -0.2746 -1.1966
  271MOL0     H36527   8.258   9.552   6.579  0.9509  0.3382  0.4656
  271MOL0     H36528   8.058   9.484   6.489  0.4162  4.5005  0.1011
  271MOL0     H36529   8.139   9.582   6.380  1.3876  1.2482  2.5536
  271MOL0     H36530   8.227   9.392   6.248 -0.6175  0.3010 -2.0182
  271MOL0     H36531   8.156   9.282   6.342 -1.0203  0.9441  1.3099
  271MOL0     H36532   8.009   9.501   6.187  2.7940  0.1098 -0.1719
  271MOL0     H36533   7.917   9.378   6.277  0.3613  0.6373 -0.8969
  271MOL0     H36534   8.091   9.353   6.024 -0.5646  0.3534 -0.3682
  271MOL0     H36535   8.088   9.218   6.132 -0.0102 -0.7510 -1.3177
  271MOL0     H36536   7.865   9.401   5.876  1.2875  0.7823 -0.4099
  271MOL0     H36537   7.590   9.371   5.818  1.9579  1.0696  3.0102
  271MOL0     H36538   7.668   9.260   5.693 -1.9977  1.5654 -0.6241
  271MOL0     H36539   7.533   9.080   5.743  0.7649  1.3203 -3.4506
  271MOL0     H36540   7.470   9.143   5.900  1.3309 -1.2676 -0.4251
  271MOL0     H36541   7.353   9.340   5.784 -1.4615 -3.0140  4.0339
  271MOL0     H36542   7.276   9.200   5.757 -1.7293  2.6387 -1.1852
  271MOL0     H36543   7.460   9.329   5.541 -1.6987  2.4101 -1.6725
  271MOL0     H36544   7.286   9.345   5.559 -0.4167 -0.3501  1.9574
  271MOL0     H36545   7.508   9.189   5.321 -0.2207  2.0354  0.8365
  271MOL0     H36546   7.448   9.173   5.104  0.1167 -0.3135  0.8474
  271MOL0     H36547   7.076   9.243   4.780 -3.7641  0.7743  2.0331
  271MOL0     H36548   6.993   9.217   4.565  4.0154 -0.6032  0.9238
  271MOL0     H36549   6.808   9.096   4.295 -0.7832 -1.6718 -1.0933
  271MOL0     H36550   6.967   9.128   4.374  0.1601  0.8540 -1.0081
  271MOL0     H36551   6.993   8.933   4.231  0.2608  0.8659  1.1109
  271MOL0     H36552   6.982   8.883   4.397 -0.6949 -2.4491 -1.4232
  271MOL0     H36553   6.755   8.894   4.184  0.8542  1.9904 -0.6441
  271MOL0     H36554   6.857   8.761   4.188  0.0189  2.9186 -3.4652
  271MOL0     H36555   6.697   8.846   4.442 -0.1986  1.7476 -0.4531
  271MOL0     H36556   6.803   8.705   4.419 -3.7920 -1.7712  1.1341
  271MOL0     H36557   6.583   8.736   4.203  2.6258 -0.9962 -0.5677
  271MOL0     H36558   6.515   8.758   4.364  0.5452  0.3816  1.3252
  271MOL0     H36559   6.708   8.538   4.250  0.8081 -0.9181  1.4914
  271MOL0     H36560   6.662   8.538   4.414 -1.5255 -3.4826 -0.6641
  271MOL0     H36561   6.417   8.533   4.212 -0.1369 -2.7308 -2.4823
  271MOL0     H36562   6.428   8.490   4.380 -1.6427  0.1043 -0.5343
  271MOL0     H36563   6.535   8.316   4.139 -1.1193 -0.4265 -1.2670
  271MOL0     H36564   6.532   8.292   4.322 -0.4497  2.1140  1.0256
  271MOL0     H36565   6.796   8.850   4.679  0.4605  0.2702  0.4783
  271MOL0     H36566   6.918   8.865   4.908 -0.1269  0.5599  1.6442
  271MOL0     H36567   7.036   9.111   5.234  0.6983 -0.2193 -3.5843
  271MOL0     H36568   7.104   9.131   5.443  1.1917 -1.2730  0.4140
  271MOL0     H36569   8.746   9.626   6.669  0.1973  0.6405  0.6092
  271MOL0     H36570   8.792   9.836   6.771 -2.8880 -0.4505  1.0650
  271MOL0     H36571   8.778  10.249   6.831  0.5411 -0.7887 -0.7005
  271MOL0     H36572   8.844  10.462   6.951  1.6328  2.1027 -0.1234
  271MOL0     H36573   9.212  10.665   6.790  1.4319 -1.2917  0.6699
  271MOL0     H36574   9.293  10.600   6.930 -0.4599 -1.4314 -1.1981
  271MOL0     H36575   9.273  10.855   6.934  1.6532  0.5812  2.0809
  271MOL0     H36576   9.247  10.763   7.072 -1.4049 -1.0745  0.1681
  271MOL0     H36577   8.998  10.783   7.053  0.0472 -0.1949  0.1923
  271MOL0     H36578   9.016  10.855   6.882  2.0975 -1.6260 -0.9688
  271MOL0     H36579   9.142  11.043   7.003 -0.1889  0.6553  1.0344
  271MOL0     H36580   8.977  11.055   7.014 -1.5453 -1.4470  0.4619
  271MOL0     H36581   9.112  11.038   7.400  2.4461 -0.4289 -0.0323
  271MOL0     H36582   9.206  10.453   6.725 -0.2615 -0.6049 -1.3527
  271MOL0     H36583   9.148  10.282   6.489  1.4663  0.6623  0.6657
  271MOL0     H36584   9.276  10.259   6.606  1.4161 -4.8619 -2.5668
  271MOL0     H36585   9.154  10.132   6.584 -2.1602 -0.0989  0.5522
  272MOL0     O36586  10.928   7.105   5.874 -0.3481  0.0267 -0.1028
  272MOL0     C36587  10.926   7.097   5.752 -0.3100 -0.4225  0.2164
  272MOL0     O36588  10.980   6.999   5.675  0.4694  0.0235 -0.7905
  272MOL0     C36589  11.036   6.893   5.740 -0.0321 -0.2741 -0.5243
  272MOL0     C36590  10.960   6.791   5.805  0.1708  1.1799  0.2274
  272MOL0     C36591  11.009   6.701   5.907  0.5769  0.3792 -0.1389
  272MOL0     C36592  11.144   6.703   5.930 -0.1687  0.0019 -0.5328
  272MOL0     O36593  11.193   6.611   6.023 -0.2075  0.3386  0.1697
  272MOL0     C36594  11.313   6.549   6.008 -0.7007 -0.8545  0.3390
  272MOL0     C36595  11.312   6.452   5.889  0.2507 -0.7825 -0.3255
  272MOL0     C36596  11.445   6.376   5.906 -0.0446 -1.2190 -0.6200
  272MOL0     C36597  11.467   6.289   5.787  0.8524  0.0273 -0.6287
  272MOL0     C36598  11.591   6.194   5.809 -0.1405  0.5056  0.0347
  272MOL0     C36599  11.714   6.269   5.852 -0.2617 -0.4028  1.2422
  272MOL0     C36600  11.839   6.181   5.869 -1.0609  0.2293 -0.7751
  272MOL0     C36601  11.878   6.128   6.004  0.3883  0.5352 -0.1184
  272MOL0     N36602  11.780   6.043   6.073  0.4318 -0.2090  0.0019
  272MOL0     C36603  11.672   6.089   6.142 -1.5745 -0.9702 -0.9501
  272MOL0     C36604  11.638   5.972   6.206  0.4149 -0.9353  0.7435
  272MOL0     C36605  11.533   5.980   6.316  0.6633 -0.7892  0.4741
  272MOL0     C36606  11.543   5.858   6.407 -0.3182  0.1693  0.6587
  272MOL0     C36607  11.439   5.876   6.505  0.3062  0.3799 -0.4051
  272MOL0     C36608  11.430   5.742   6.580 -0.2231 -1.0815  0.0354
  272MOL0     O36609  11.354   5.782   6.705  0.5316  1.0675  1.4248
  272MOL0     C36610  11.356   5.685   6.804  0.1619 -0.5747 -0.0105
  272MOL0     C36611  11.354   5.546   6.785 -0.0612  0.3645  0.1425
  272MOL0     C36612  11.354   5.454   6.892 -0.2880 -0.2745  0.3922
  272MOL0     C36613  11.385   5.496   7.018 -0.7707  0.4544 -1.2197
  272MOL0     C36614  11.434   5.401   7.128  1.0876  0.4163  0.1119
  272MOL0     O36615  11.399   5.269   7.113  0.4035  0.1423  0.8712
  272MOL0     C36616  11.444   5.162   7.183  0.0153  1.1223  0.7180
  272MOL0     C36617  11.538   5.152   7.290  0.0175 -0.3487  0.1380
  272MOL0     C36618  11.554   5.038   7.361 -0.5172  0.3301 -0.9821
  272MOL0     C36619  11.503   4.911   7.318 -0.3520 -0.0638 -0.4682
  272MOL0     O36620  11.543   4.805   7.392 -0.5096  0.4027  0.2942
  272MOL0     C36621  11.435   4.734   7.443 -0.7532  1.1404  0.3938
  272MOL0     C36622  11.481   4.658   7.574 -0.2423 -1.0512  0.6871
  272MOL0     C36623  11.569   4.533   7.563 -0.0618 -0.0615 -0.1559
  272MOL0     C36624  11.631   4.498   7.693 -0.0346 -0.4468  0.6465
  272MOL0     C36625  11.662   4.349   7.695 -0.2564  0.5157 -0.6062
  272MOL0     C36626  11.726   4.299   7.825 -0.0752 -0.8317 -0.2671
  272MOL0     C36627  11.738   4.145   7.833 -0.0167  0.0621 -0.7628
  272MOL0     C36628  11.843   4.103   7.937 -0.9690 -0.3086 -1.1734
  272MOL0    Cl36629  11.871   3.922   7.955  0.2620 -0.5290  0.1505
  272MOL0     C36630  11.407   4.912   7.219  0.5656 -0.5354  0.7517
  272MOL0     C36631  11.375   5.033   7.155 -0.6851 -0.0313  0.7968
  272MOL0     O36632  11.482   5.455   7.227  0.3008 -0.0175 -0.1714
  272MOL0     C36633  11.379   5.635   7.041  0.1150  0.0740  0.0085
  272MOL0     C36634  11.353   5.721   6.936 -0.9470 -0.7958  0.6160
  272MOL0     N36635  11.693   5.860   6.151  0.2935  0.1438  0.0856
  272MOL0     N36636  11.783   5.900   6.072  0.0328  0.2908 -0.0011
  272MOL0     C36637  11.226   6.803   5.864 -0.1718 -0.1713  0.0764
  272MOL0     C36638  11.175   6.894   5.768  0.4636  0.8097 -0.0356
  272MOL0     C36639  10.861   7.203   5.675 -0.8507  0.5648  0.1227
  272MOL0     C36640  10.902   7.337   5.698  0.5869  0.2570  0.0739
  272MOL0     C36641  10.841   7.447   5.632  0.8161 -0.1716 -1.0761
  272MOL0     C36642  10.763   7.414   5.517  0.4359  0.0214  0.6094
  272MOL0     O36643  10.719   7.503   5.418  0.6568  0.1097 -0.0252
  272MOL0     C36644  10.779   7.635   5.423  0.1362 -0.0585  0.7542
  272MOL0     C36645  10.895   7.648   5.321  0.1984  0.2456  0.2764
  272MOL0     C36646  10.957   7.790   5.313 -1.0460 -0.7618 -0.2499
  272MOL0     C36647  11.083   7.805   5.216  0.4631  0.1004  0.4329
  272MOL0     C36648  11.211   7.748   5.281 -0.0536  0.0460  1.0531
  272MOL0     C36649  11.315   7.715   5.338 -0.1898 -1.3032 -1.4865
  272MOL0     C36650  10.726   7.287   5.491 -0.3033  0.0185  0.0903
  272MOL0     C36651  10.769   7.178   5.567  0.2891 -0.4071 -0.3782
  272MOL0     C36652  10.727   7.044   5.522 -0.0554  0.1037  0.2625
  272MOL0     H36653  10.851   6.792   5.799  0.1012 -0.0887  0.8605
  272MOL0     H36654  10.951   6.631   5.967  2.1081  1.5255  2.8771
  272MOL0     H36655  11.400   6.615   6.015  0.3980 -2.4163  3.9173
  272MOL0     H36656  11.342   6.492   6.097 -1.5435  2.4983  2.9991
  272MOL0     H36657  11.307   6.495   5.789 -0.5810  0.6844  0.3131
  272MOL0     H36658  11.222   6.392   5.908  0.9785 -1.8778 -0.2438
  272MOL0     H36659  11.436   6.320   6.000 -1.0953  0.3055  0.2460
  272MOL0     H36660  11.527   6.447   5.923 -0.0906 -0.9722 -1.3922
  272MOL0     H36661  11.377   6.228   5.774  0.0051  1.5840 -2.7063
  272MOL0     H36662  11.484   6.339   5.691 -2.8689  0.0861 -1.4103
  272MOL0     H36663  11.572   6.112   5.878  1.1013 -1.1562 -1.5113
  272MOL0     H36664  11.601   6.146   5.711  1.5776  1.0240 -0.0818
  272MOL0     H36665  11.732   6.343   5.773 -3.3461 -1.6887 -0.8423
  272MOL0     H36666  11.704   6.316   5.950  1.4475  1.8345  0.4304
  272MOL0     H36667  11.923   6.238   5.830  1.3417 -1.9069  0.9725
  272MOL0     H36668  11.833   6.100   5.796 -0.4303  0.8084 -1.4945
  272MOL0     H36669  11.972   6.073   5.991 -0.7591 -1.0061 -2.6666
  272MOL0     H36670  11.900   6.214   6.069 -0.2812  0.5447  0.1034
  272MOL0     H36671  11.647   6.189   6.176  1.3454  0.2874 -2.1810
  272MOL0     H36672  11.535   6.076   6.370 -2.2365 -0.1385 -0.3932
  272MOL0     H36673  11.442   5.983   6.256  1.4170  1.0179 -0.6659
  272MOL0     H36674  11.534   5.760   6.359  0.1757  0.1450  0.6080
  272MOL0     H36675  11.636   5.856   6.464 -0.0769 -0.9961  0.2435
  272MOL0     H36676  11.342   5.897   6.460  0.9661  0.3963 -1.8729
  272MOL0     H36677  11.463   5.954   6.578 -1.7178 -1.0345  1.8949
  272MOL0     H36678  11.530   5.703   6.601  1.1586  1.6557 -0.9574
  272MOL0     H36679  11.378   5.667   6.519 -0.3708 -3.3875  2.7605
  272MOL0     H36680  11.342   5.513   6.682 -4.1411  1.2052  0.1911
  272MOL0     H36681  11.334   5.351   6.865 -0.7397 -0.2040  0.4395
  272MOL0     H36682  11.566   5.250   7.327  1.3046  0.4395 -2.6261
  272MOL0     H36683  11.622   5.046   7.445 -1.6311  5.2886 -0.2675
  272MOL0     H36684  11.363   4.810   7.472 -1.6987  0.8972 -1.2095
  272MOL0     H36685  11.387   4.671   7.368  2.5810 -1.9228  0.5186
  272MOL0     H36686  11.538   4.744   7.611 -1.2841  0.5274 -1.1898
  272MOL0     H36687  11.393   4.636   7.635 -2.7986 -0.6008 -2.5280
  272MOL0     H36688  11.516   4.446   7.522 -0.8653  0.0489  0.6223
  272MOL0     H36689  11.649   4.554   7.492  2.1781  1.5341  2.6494
  272MOL0     H36690  11.557   4.521   7.771  0.1740  3.2553 -0.0787
  272MOL0     H36691  11.725   4.554   7.699  0.5181 -0.9216 -2.1749
  272MOL0     H36692  11.723   4.321   7.609 -2.1412  1.0114 -2.1622
  272MOL0     H36693  11.561   4.308   7.684  0.0498 -0.5185  0.2107
  272MOL0     H36694  11.824   4.347   7.829  1.0478 -3.0941  0.6114
  272MOL0     H36695  11.670   4.321   7.916  3.5037  0.4730  1.8028
  272MOL0     H36696  11.764   4.108   7.733  1.9879  0.7426 -0.5348
  272MOL0     H36697  11.648   4.101   7.876  1.1922 -0.1996  1.6611
  272MOL0     H36698  11.938   4.153   7.918 -0.4545 -0.5207  0.6795
  272MOL0     H36699  11.821   4.139   8.038 -0.5635 -0.8424 -0.8926
  272MOL0     H36700  11.347   4.826   7.191 -1.4314  0.9861  0.1008
  272MOL0     H36701  11.286   5.044   7.094 -0.5693  0.3839  0.7042
  272MOL0     H36702  11.388   5.688   7.135 -0.9588  0.6869 -0.2181
  272MOL0     H36703  11.355   5.826   6.961  1.9836 -1.0073  1.6835
  272MOL0     H36704  11.332   6.809   5.884 -0.2111 -0.3459  0.3359
  272MOL0     H36705  11.240   6.963   5.715  1.0062 -0.0907 -0.5535
  272MOL0     H36706  10.978   7.354   5.773  0.9831  0.0439 -0.2714
  272MOL0     H36707  10.874   7.547   5.659  0.4763 -0.1153 -0.8698
  272MOL0     H36708  10.808   7.668   5.523 -3.0425  0.5188  1.6159
  272MOL0     H36709  10.703   7.705   5.384  0.1965  0.0923  0.9061
  272MOL0     H36710  10.854   7.624   5.222 -1.4090 -0.3469  1.0426
  272MOL0     H36711  10.970   7.573   5.347  0.6203  0.5764  0.0057
  272MOL0     H36712  11.001   7.830   5.405  0.6648 -0.1880 -1.2785
  272MOL0     H36713  10.877   7.864   5.306 -0.0547  0.5869  1.7265
  272MOL0     H36714  11.071   7.743   5.127 -2.5536  0.6182  0.3494
  272MOL0     H36715  11.099   7.906   5.177  0.2216 -0.2479 -0.6139
  272MOL0     H36716  11.403   7.687   5.391  0.5807  3.5408  0.2955
  272MOL0     H36717  10.677   7.271   5.396  2.5024 -0.0749 -1.4524
  272MOL0     H36718  10.752   6.968   5.596  1.6019 -2.1651 -2.4575
  272MOL0     H36719  10.618   7.041   5.511 -0.1392  0.4338  0.9472
  272MOL0     H36720  10.785   7.022   5.432  0.8465 -1.3509  1.1734
  273MOL0     O36721   2.902   1.500   4.611 -0.0658  0.5850 -0.4051
  273MOL0     C36722   2.982   1.410   4.657 -0.1032 -0.6709  0.1790
  273MOL0     O36723   3.069   1.337   4.570 -1.1044 -0.9474 -0.3204
  273MOL0     C36724   3.122   1.401   4.460  0.4733 -0.1533  0.5712
  273MOL0     C36725   3.193   1.520   4.483  0.2077  0.0450  0.1025
  273MOL0     C36726   3.227   1.600   4.372  0.3343  0.1484  0.3326
  273MOL0     C36727   3.217   1.543   4.239 -0.7496 -0.5357 -0.2226
  273MOL0     O36728   3.252   1.618   4.129  0.5269  0.5838  0.5713
  273MOL0     C36729   3.330   1.551   4.024 -0.5425  0.3074 -0.2729
  273MOL0     C36730   3.379   1.659   3.929 -0.7417 -0.0794  0.3744
  273MOL0     C36731   3.529   1.648   3.899  0.3458 -0.3556 -0.0820
  273MOL0     C36732   3.564   1.540   3.798  0.0912  0.3566  0.1741
  273MOL0     C36733   3.718   1.547   3.780  0.0487 -0.4764 -0.0920
  273MOL0     C36734   3.763   1.441   3.673  0.0400 -0.0260  0.1594
  273MOL0     C36735   3.910   1.385   3.692 -0.4018 -0.3661  0.1415
  273MOL0     C36736   3.912   1.234   3.719  0.3831  0.4907 -0.4157
  273MOL0     N36737   3.866   1.172   3.847  0.4882 -0.0598 -1.0408
  273MOL0     C36738   3.743   1.121   3.874  0.3934 -0.0928 -0.5080
  273MOL0     C36739   3.731   1.124   4.009 -0.6511 -0.0398 -0.2834
  273MOL0     C36740   3.612   1.070   4.092  0.7702 -1.0103 -0.2381
  273MOL0     C36741   3.545   1.181   4.153  0.0110 -0.0225 -0.1128
  273MOL0     C36742   3.503   1.146   4.296 -0.1536 -0.1135 -0.2164
  273MOL0     C36743   3.446   1.250   4.384 -0.7370 -0.3281  0.0093
  273MOL0     O36744   3.553   1.326   4.453 -0.4529  0.7125 -0.2067
  273MOL0     C36745   3.634   1.408   4.388  0.0023  0.8963  0.5824
  273MOL0     C36746   3.587   1.525   4.346  0.2877  0.1788 -1.1375
  273MOL0     C36747   3.671   1.617   4.273 -0.1053  0.1060 -0.2626
  273MOL0     C36748   3.803   1.589   4.249 -0.3630 -0.0050 -0.0942
  273MOL0     C36749   3.892   1.684   4.179  0.5359 -0.2327  0.0481
  273MOL0     O36750   3.821   1.778   4.100  0.0927 -0.7254  0.3437
  273MOL0     C36751   3.868   1.807   3.973  0.0757  0.4334  0.4831
  273MOL0     C36752   3.786   1.882   3.888 -0.1783 -0.0579 -0.3135
  273MOL0     C36753   3.816   1.902   3.751 -0.0008 -0.3562  0.4442
  273MOL0     C36754   3.931   1.854   3.697 -0.4275 -0.9128  1.2490
  273MOL0     O36755   3.942   1.875   3.560 -1.0227  0.1299  0.0862
  273MOL0     C36756   4.076   1.886   3.493  0.3902 -1.4740 -0.2531
  273MOL0     C36757   4.089   1.794   3.379 -0.0240 -0.4403  0.3575
  273MOL0     C36758   3.991   1.805   3.274  0.8740 -0.0121  0.4666
  273MOL0     C36759   4.006   1.687   3.180 -0.3083 -0.6324 -0.1741
  273MOL0     C36760   3.925   1.556   3.202  0.3559  0.1365  0.0133
  273MOL0     C36761   3.771   1.595   3.234 -0.4198  0.4027 -0.3022
  273MOL0     C36762   3.706   1.680   3.128 -0.2710  0.6424  0.2082
  273MOL0     C36763   3.677   1.602   3.002 -0.2321  0.7038  0.1106
  273MOL0    Cl36764   3.562   1.466   3.030 -0.2426 -0.0619  0.0904
  273MOL0     C36765   4.018   1.776   3.773 -0.1243 -0.3701  0.4214
  273MOL0     C36766   3.980   1.753   3.915  0.7941  1.6559  0.3725
  273MOL0     O36767   4.014   1.667   4.177 -0.1753 -0.2319  0.1337
  273MOL0     C36768   3.851   1.471   4.291  0.0057  0.0194 -0.1097
  273MOL0     C36769   3.764   1.374   4.346  0.1284  0.1903 -0.6480
  273MOL0     N36770   3.846   1.171   4.064  0.4041 -0.0518  0.6130
  273MOL0     N36771   3.927   1.203   3.972 -0.7278  0.0538  0.3753
  273MOL0     C36772   3.149   1.420   4.222  0.0302 -0.3314  0.7117
  273MOL0     C36773   3.098   1.353   4.332 -0.8313  0.2722  0.3721
  273MOL0     C36774   2.980   1.360   4.796  0.7347  0.8276 -0.4981
  273MOL0     C36775   3.098   1.294   4.847 -0.1627 -0.0239  0.0926
  273MOL0     C36776   3.113   1.245   4.981 -0.0183 -0.7575 -0.2461
  273MOL0     C36777   3.014   1.268   5.073  1.0616 -0.1756  0.8465
  273MOL0     O36778   3.014   1.228   5.203  0.5481  0.4185  0.6487
  273MOL0     C36779   3.039   1.082   5.226  0.1624  0.2839  0.2447
  273MOL0     C36780   2.921   1.003   5.172  0.0999 -1.2563  1.0134
  273MOL0     C36781   2.932   0.851   5.199  0.5258 -0.3800  0.0490
  273MOL0     C36782   2.844   0.815   5.317 -0.1305  0.4015 -0.8333
  273MOL0     C36783   2.854   0.672   5.341  0.0269  0.6720  0.4607
  273MOL0     C36784   2.834   0.555   5.362 -1.0729  0.1752 -0.0786
  273MOL0     C36785   2.898   1.329   5.025 -0.6940  1.4040 -0.2577
  273MOL0     C36786   2.882   1.381   4.895  0.4008  0.5648 -0.6152
  273MOL0     C36787   2.758   1.467   4.868 -0.2386  0.9563  0.1563
  273MOL0     H36788   3.199   1.557   4.585  2.3801  2.8262 -0.9149
  273MOL0     H36789   3.275   1.694   4.399  2.1487 -0.8000  0.5312
  273MOL0     H36790   3.418   1.496   4.059 -2.1379 -2.3278 -0.1180
  273MOL0     H36791   3.264   1.481   3.971 -1.1099  2.4213 -2.5374
  273MOL0     H36792   3.346   1.759   3.958  1.8174  0.6259  1.1486
  273MOL0     H36793   3.319   1.650   3.838  2.2777 -0.9809 -1.6819
  273MOL0     H36794   3.572   1.632   3.998 -5.2268 -2.5288  2.3804
  273MOL0     H36795   3.563   1.744   3.857  3.8755 -1.3365  0.2007
  273MOL0     H36796   3.521   1.445   3.831 -1.8612  0.2148 -2.4829
  273MOL0     H36797   3.517   1.568   3.704 -2.5619 -0.3292  1.1976
  273MOL0     H36798   3.739   1.651   3.752 -0.5867 -0.2186  0.3787
  273MOL0     H36799   3.763   1.537   3.879  0.4079 -1.3669 -0.3345
  273MOL0     H36800   3.691   1.359   3.661  0.7431 -0.7184  0.5210
  273MOL0     H36801   3.757   1.493   3.577 -0.8563  0.1525  0.3122
  273MOL0     H36802   3.965   1.451   3.760  0.2362  0.1628 -0.8450
  273MOL0     H36803   3.965   1.402   3.598 -1.4951 -2.1435 -0.8654
  273MOL0     H36804   3.861   1.177   3.641 -1.9746 -0.6069  1.7586
  273MOL0     H36805   4.013   1.196   3.703 -0.9579 -2.9047 -1.8973
  273MOL0     H36806   3.670   1.090   3.799 -1.8000 -0.8824  1.8345
  273MOL0     H36807   3.537   1.024   4.026 -0.9869  0.9956  0.2428
  273MOL0     H36808   3.649   1.000   4.167  1.1894 -0.9797 -0.4146
  273MOL0     H36809   3.609   1.270   4.152  1.7630 -1.2314 -2.0291
  273MOL0     H36810   3.459   1.210   4.091 -1.8412 -1.1480  1.8069
  273MOL0     H36811   3.588   1.099   4.347  0.7650  1.1820 -0.5001
  273MOL0     H36812   3.415   1.081   4.296 -2.0659  2.3075  1.2251
  273MOL0     H36813   3.380   1.212   4.463  0.0403  2.3981  2.1570
  273MOL0     H36814   3.374   1.316   4.334 -2.1245 -1.5017  0.3882
  273MOL0     H36815   3.489   1.558   4.380  0.1142  1.3749 -2.6408
  273MOL0     H36816   3.624   1.711   4.244 -1.7881 -0.8395 -0.6994
  273MOL0     H36817   3.700   1.933   3.931  1.8041  1.5720  2.0452
  273MOL0     H36818   3.748   1.958   3.688  1.5743  1.2343  0.0554
  273MOL0     H36819   4.084   1.992   3.469  1.9846 -1.3144  0.8336
  273MOL0     H36820   4.154   1.877   3.569 -1.4680  1.0988  2.1776
  273MOL0     H36821   4.190   1.821   3.349 -0.6734 -1.1735 -2.9331
  273MOL0     H36822   4.087   1.692   3.417  0.8350 -1.3591 -1.8859
  273MOL0     H36823   3.890   1.821   3.315 -0.4100 -2.7311 -1.3470
  273MOL0     H36824   4.011   1.892   3.210 -0.1151 -0.6519 -0.7741
  273MOL0     H36825   4.113   1.663   3.172 -0.0837  0.3118 -0.1074
  273MOL0     H36826   3.969   1.721   3.083 -2.7575  0.4271  1.0551
  273MOL0     H36827   3.970   1.501   3.285 -4.6434 -2.5290  1.3621
  273MOL0     H36828   3.936   1.497   3.110  1.7619  1.6590 -0.8476
  273MOL0     H36829   3.716   1.501   3.247 -0.1653  0.2910  0.0024
  273MOL0     H36830   3.753   1.637   3.333 -3.1311 -3.0741  0.9047
  273MOL0     H36831   3.770   1.762   3.096 -0.7495  0.8882 -0.1226
  273MOL0     H36832   3.608   1.718   3.159 -1.5112 -0.3273 -2.2947
  273MOL0     H36833   3.641   1.665   2.919  3.1852  2.1524 -0.4638
  273MOL0     H36834   3.768   1.565   2.953  0.1204  1.0854  0.4665
  273MOL0     H36835   4.114   1.747   3.731 -0.2893 -0.0306 -0.2194
  273MOL0     H36836   4.051   1.687   3.963  0.3935  3.2375  3.3529
  273MOL0     H36837   3.956   1.446   4.284  0.3732  1.7808 -1.9886
  273MOL0     H36838   3.797   1.271   4.357 -2.1580 -0.6590 -1.1742
  273MOL0     H36839   3.114   1.393   4.123 -0.9411 -1.1525  1.2636
  273MOL0     H36840   3.032   1.269   4.311  0.1136  0.1822 -2.7461
  273MOL0     H36841   3.183   1.281   4.780  0.1631  0.7631  0.3517
  273MOL0     H36842   3.201   1.196   5.023 -0.1553 -0.1982  0.7270
  273MOL0     H36843   3.045   1.073   5.335  0.4436  0.9806  0.2928
  273MOL0     H36844   3.127   1.042   5.174 -0.5827 -0.3399 -0.5589
  273MOL0     H36845   2.919   1.011   5.063  0.3873 -0.3286  1.0638
  273MOL0     H36846   2.830   1.050   5.212 -0.0306 -0.8422  0.2525
  273MOL0     H36847   3.034   0.827   5.228 -0.0262 -0.2968  2.2678
  273MOL0     H36848   2.912   0.810   5.099 -0.1373  1.3887 -0.5864
  273MOL0     H36849   2.880   0.867   5.406 -1.9364  1.5043 -0.7002
  273MOL0     H36850   2.739   0.845   5.311 -2.0084 -3.7862  4.0789
  273MOL0     H36851   2.818   0.449   5.370  2.1358 -0.5120 -0.9994
  273MOL0     H36852   2.836   1.343   5.113 -0.7792 -0.2209 -0.0308
  273MOL0     H36853   2.702   1.433   4.781 -0.8511 -0.9810  1.2595
  273MOL0     H36854   2.706   1.459   4.964  5.3856 -1.3488  3.4951
  273MOL0     H36855   2.780   1.572   4.846 -0.2311  0.4295 -2.7356
  274MOL0     O36856   3.240   9.414   3.114 -0.0031 -0.3277 -0.4362
  274MOL0     C36857   3.171   9.324   3.078  0.0697  0.2831  0.4473
  274MOL0     O36858   3.211   9.220   3.012 -0.4659 -0.0993 -0.4280
  274MOL0     C36859   3.350   9.189   3.021  0.3854  0.0188  0.8760
  274MOL0     C36860   3.443   9.181   2.905  0.6750  0.5271 -1.0981
  274MOL0     C36861   3.583   9.174   2.920 -0.5996  0.1527 -0.5391
  274MOL0     C36862   3.641   9.154   3.050 -0.8119  1.4945 -0.5016
  274MOL0     O36863   3.776   9.143   3.080 -0.3691 -0.7616  0.5347
  274MOL0     C36864   3.863   9.167   2.970  1.1112 -0.1554  0.4505
  274MOL0     C36865   3.998   9.143   3.022 -0.4847  0.1040 -0.9351
  274MOL0     C36866   4.045   9.006   2.997  0.7350  0.0423  1.1018
  274MOL0     C36867   4.193   8.992   2.985 -0.3630  0.1409  0.2190
  274MOL0     C36868   4.264   9.043   3.114  0.3952 -0.3697  0.4975
  274MOL0     C36869   4.413   9.023   3.116  0.1075  0.1205 -0.0451
  274MOL0     C36870   4.483   9.019   3.258  0.3345 -0.6191  0.1280
  274MOL0     C36871   4.615   8.945   3.269 -0.7385  0.6412  0.1369
  274MOL0     N36872   4.729   9.037   3.227 -0.3721 -0.6591 -0.1974
  274MOL0     C36873   4.723   9.124   3.120  0.1931  0.1662  0.6359
  274MOL0     C36874   4.833   9.197   3.125  0.4211  0.2120 -1.0068
  274MOL0     C36875   4.873   9.318   3.048  0.2463 -0.1627  0.7064
  274MOL0     C36876   4.860   9.288   2.897  0.4152 -0.0399  0.1188
  274MOL0     C36877   4.932   9.404   2.828  0.3123 -0.6841  0.4437
  274MOL0     C36878   4.944   9.386   2.668  0.6230 -0.3119 -0.4946
  274MOL0     O36879   4.812   9.397   2.612 -0.1569  0.3260  0.2223
  274MOL0     C36880   4.779   9.514   2.548 -0.3102 -1.0136 -0.2226
  274MOL0     C36881   4.842   9.640   2.562 -0.0981  0.6793 -0.9701
  274MOL0     C36882   4.781   9.758   2.503  0.0341  1.1019 -0.7862
  274MOL0     C36883   4.665   9.741   2.429  0.4643 -0.1403  0.1335
  274MOL0     C36884   4.594   9.859   2.373 -0.2276 -0.0794  0.7051
  274MOL0     O36885   4.488   9.840   2.287  0.5159  0.2142  0.3282
  274MOL0     C36886   4.422   9.937   2.225  0.3382  0.2229 -0.3076
  274MOL0     C36887   4.478  10.050   2.162 -0.6447 -0.3724  0.1634
  274MOL0     C36888   4.394  10.142   2.098 -0.7418  0.5353 -0.1651
  274MOL0     C36889   4.257  10.129   2.095  0.9609  0.5194 -0.5437
  274MOL0     O36890   4.177  10.212   2.019  0.5908 -0.7299 -0.5191
  274MOL0     C36891   4.047  10.245   2.084  0.5828  0.4507 -0.3295
  274MOL0     C36892   4.053  10.294   2.224 -0.0745  0.6753  0.5411
  274MOL0     C36893   3.923  10.315   2.307 -0.4059 -0.4307  0.5177
  274MOL0     C36894   3.895  10.195   2.403  1.1614  0.3145  0.1932
  274MOL0     C36895   3.813  10.087   2.328  0.2501  0.2616 -0.7347
  274MOL0     C36896   3.791   9.963   2.403  0.3380  0.9142  0.1352
  274MOL0     C36897   3.909   9.861   2.384 -0.4391 -0.7438  0.3104
  274MOL0     C36898   3.871   9.727   2.427  0.4605  0.5391  0.8260
  274MOL0    Cl36899   4.004   9.611   2.429 -0.1697  0.7009  0.2316
  274MOL0     C36900   4.198  10.018   2.160 -0.1141 -0.2606 -0.5965
  274MOL0     C36901   4.278   9.925   2.221 -0.9334 -0.0040  0.8957
  274MOL0     O36902   4.640   9.973   2.408  0.2555 -0.0053  0.2988
  274MOL0     C36903   4.606   9.614   2.411  0.7685 -0.2012  0.4120
  274MOL0     C36904   4.662   9.504   2.469  0.0342 -0.2978  0.3155
  274MOL0     N36905   4.904   9.164   3.237 -0.4304 -0.5511  0.2063
  274MOL0     N36906   4.842   9.071   3.299  0.1750 -0.5248  0.9912
  274MOL0     C36907   3.554   9.142   3.157  0.0786 -0.3100  0.1025
  274MOL0     C36908   3.413   9.166   3.143 -0.5258  0.6304 -0.4908
  274MOL0     C36909   3.020   9.324   3.100  0.1825 -0.2166  0.0912
  274MOL0     C36910   2.944   9.209   3.088 -0.6959 -1.1107 -0.2987
  274MOL0     C36911   2.811   9.196   3.124  0.0299 -0.0013 -0.4082
  274MOL0     C36912   2.738   9.309   3.159  0.8708 -0.7684 -0.4556
  274MOL0     O36913   2.609   9.305   3.157  0.0944  0.4404  0.1641
  274MOL0     C36914   2.539   9.355   3.267  0.6625 -0.1729  0.3642
  274MOL0     C36915   2.453   9.239   3.324 -0.0235  0.4177  0.0453
  274MOL0     C36916   2.380   9.298   3.443  0.0931 -0.2815 -0.3046
  274MOL0     C36917   2.231   9.319   3.413 -0.2927  0.3869 -0.2590
  274MOL0     C36918   2.156   9.397   3.512  0.3028  1.2366 -0.0150
  274MOL0     C36919   2.074   9.443   3.593 -0.9721  0.0748 -0.0706
  274MOL0     C36920   2.807   9.433   3.169 -0.4961  0.1398 -0.0965
  274MOL0     C36921   2.943   9.438   3.140  0.5507  0.0846  0.1346
  274MOL0     C36922   2.991   9.578   3.148  0.3334 -0.2488  0.4537
  274MOL0     H36923   3.406   9.189   2.803  0.3084 -0.7244 -1.0737
  274MOL0     H36924   3.640   9.166   2.828 -0.8518  0.6069 -0.7359
  274MOL0     H36925   3.859   9.102   2.882  2.5575  0.2634  0.0454
  274MOL0     H36926   3.868   9.271   2.937  1.1272  0.1810  1.4750
  274MOL0     H36927   4.004   9.162   3.129  1.1711  1.3333 -1.2132
  274MOL0     H36928   4.069   9.216   2.981  0.7623 -0.0517  0.8474
  274MOL0     H36929   4.002   8.958   2.909  0.9090  1.2503  0.3436
  274MOL0     H36930   4.011   8.950   3.085  0.2962  2.3357  2.4637
  274MOL0     H36931   4.226   8.890   2.964 -0.0413  0.3098 -0.1122
  274MOL0     H36932   4.225   9.047   2.896 -1.0820  2.3280  1.2295
  274MOL0     H36933   4.236   9.146   3.136  1.2025  0.0109 -0.2221
  274MOL0     H36934   4.227   8.982   3.197 -1.1578  0.2956  0.3196
  274MOL0     H36935   4.435   8.920   3.085 -2.0972 -0.5718  0.4896
  274MOL0     H36936   4.461   9.092   3.047 -1.0873  1.4865  0.4290
  274MOL0     H36937   4.423   8.964   3.331  1.3264 -1.0853  0.6064
  274MOL0     H36938   4.488   9.121   3.298 -0.9348 -0.9783  1.2751
  274MOL0     H36939   4.628   8.908   3.371  0.3520  0.7884  0.0678
  274MOL0     H36940   4.627   8.859   3.202  0.0593  1.0098 -0.2115
  274MOL0     H36941   4.645   9.125   3.045 -1.2824  1.1702  2.1162
  274MOL0     H36942   4.810   9.406   3.064  1.1803  0.2240  2.4848
  274MOL0     H36943   4.977   9.338   3.072  0.4259 -1.0217  0.6804
  274MOL0     H36944   4.913   9.196   2.870  1.1613  0.8466 -1.6455
  274MOL0     H36945   4.753   9.275   2.877  0.9008 -5.3728 -0.4095
  274MOL0     H36946   5.031   9.414   2.874 -0.4890 -0.0962  2.1032
  274MOL0     H36947   4.887   9.500   2.853  0.6400 -0.7960  1.5135
  274MOL0     H36948   4.973   9.281   2.654  0.7312 -0.6109  1.5720
  274MOL0     H36949   5.024   9.452   2.633  1.7282  0.0811  2.4705
  274MOL0     H36950   4.940   9.659   2.605 -1.4679 -0.8513  3.3998
  274MOL0     H36951   4.816   9.857   2.533  3.9107 -0.2879 -0.1608
  274MOL0     H36952   4.586  10.057   2.170 -0.4238 -3.4507  1.6473
  274MOL0     H36953   4.453  10.221   2.054  0.6296 -2.1471 -3.5201
  274MOL0     H36954   4.008  10.324   2.018  1.1132  0.7735 -0.2652
  274MOL0     H36955   3.972  10.167   2.070 -4.3619  4.3470  1.5542
  274MOL0     H36956   4.117  10.233   2.289 -1.9024 -2.5988 -0.5205
  274MOL0     H36957   4.103  10.388   2.200  3.4901 -1.3892 -0.9470
  274MOL0     H36958   3.938  10.401   2.373 -4.7089 -1.0549  2.6654
  274MOL0     H36959   3.834  10.347   2.253  1.1431  4.3595  0.3092
  274MOL0     H36960   3.836  10.225   2.490  2.1809  0.0922  0.9918
  274MOL0     H36961   3.988  10.152   2.442 -0.1612 -1.8421  1.1905
  274MOL0     H36962   3.845  10.064   2.225 -0.3735  0.7674 -1.0458
  274MOL0     H36963   3.718  10.140   2.318  0.1255  0.7203  2.0640
  274MOL0     H36964   3.772   9.961   2.511  0.6527 -1.7969  0.2088
  274MOL0     H36965   3.711   9.905   2.357  0.3871  0.0811  1.0536
  274MOL0     H36966   4.001   9.904   2.426 -0.0513  1.0280 -2.1118
  274MOL0     H36967   3.917   9.834   2.279  0.4593 -4.4325  1.1966
  274MOL0     H36968   3.839   9.731   2.531  2.6951  2.8547  1.5278
  274MOL0     H36969   3.781   9.698   2.372 -1.7306 -0.3919  4.5642
  274MOL0     H36970   4.092   9.996   2.160 -0.1348 -0.1722  0.2081
  274MOL0     H36971   4.232   9.846   2.281  0.4621  0.1540  2.2406
  274MOL0     H36972   4.514   9.603   2.354  1.2358  3.7598 -1.3955
  274MOL0     H36973   4.605   9.412   2.464 -0.4508 -0.0050  0.3683
  274MOL0     H36974   3.590   9.127   3.258 -0.3733  0.0628  0.3263
  274MOL0     H36975   3.352   9.165   3.232  1.1904 -1.4444  0.7756
  274MOL0     H36976   2.992   9.118   3.053  1.8753  0.0819 -0.0592
  274MOL0     H36977   2.749   9.113   3.092  0.3988 -0.7567  0.7752
  274MOL0     H36978   2.461   9.427   3.239  1.8712  0.2676 -2.1748
  274MOL0     H36979   2.601   9.401   3.344  2.1488  3.5929 -2.7520
  274MOL0     H36980   2.521   9.157   3.348  1.1946  1.2998 -0.3093
  274MOL0     H36981   2.383   9.198   3.250  1.6651 -2.1233 -0.2834
  274MOL0     H36982   2.437   9.387   3.471  1.9225 -1.3541 -0.4082
  274MOL0     H36983   2.391   9.231   3.528  0.5677  1.7714  1.3406
  274MOL0     H36984   2.227   9.355   3.310  4.1847 -1.4234 -1.2943
  274MOL0     H36985   2.198   9.215   3.410  5.5643 -1.8206 -0.6427
  274MOL0     H36986   2.004   9.481   3.665  0.9056  3.8427  0.0483
  274MOL0     H36987   2.758   9.529   3.175  0.6916  0.9955 -2.6425
  274MOL0     H36988   3.078   9.587   3.213 -0.0528 -0.3883  1.0065
  274MOL0     H36989   3.002   9.611   3.045  0.0743 -1.0873  0.1461
  274MOL0     H36990   2.920   9.647   3.195 -0.4030 -0.4497 -0.3268
  275MOL0     O36991   0.310   2.619   5.304  0.2868  0.2475  0.0884
  275MOL0     C36992   0.208   2.628   5.232  0.9517  0.1007  0.4181
  275MOL0     O36993   0.120   2.528   5.202  0.1148  0.1553  0.2458
  275MOL0     C36994   0.128   2.410   5.264  0.0895  1.9995  1.4711
  275MOL0     C36995   0.217   2.308   5.231 -0.1308  0.2399 -0.3921
  275MOL0     C36996   0.209   2.183   5.294 -0.2290 -0.6785  1.0349
  275MOL0     C36997   0.103   2.155   5.384 -0.2306  0.2099  0.0151
  275MOL0     O36998   0.100   2.032   5.439 -0.4233  0.3087 -0.3899
  275MOL0     C36999   0.027   2.010   5.561  0.1651 -0.6259 -0.4597
  275MOL0     C37000   0.002   1.864   5.605  0.9241 -0.0167  0.2798
  275MOL0     C37001  -0.059   1.836   5.748  1.5752 -0.3777 -0.6168
  275MOL0     C37002   0.049   1.854   5.849 -0.0542 -1.3126  0.5209
  275MOL0     C37003   0.051   1.754   5.967  0.7373 -0.5615  0.2687
  275MOL0     C37004  -0.079   1.751   6.035  0.6258 -0.2838  0.6043
  275MOL0     C37005  -0.073   1.667   6.170 -0.1905  1.3825 -0.2386
  275MOL0     C37006  -0.005   1.739   6.287 -0.5952 -0.7214  1.1918
  275MOL0     N37007  -0.027   1.687   6.423  0.3394  0.0142 -0.0860
  275MOL0     C37008  -0.153   1.705   6.486  1.2128  0.7744 -0.1423
  275MOL0     C37009  -0.132   1.709   6.621 -0.2863 -0.5100  0.3720
  275MOL0     C37010  -0.233   1.734   6.741 -0.2675 -0.3597 -0.0374
  275MOL0     C37011  -0.368   1.816   6.699  0.1279  0.3844 -0.5902
  275MOL0     C37012  -0.327   1.967   6.714 -0.4065  0.9802  0.3381
  275MOL0     C37013  -0.434   2.046   6.648 -0.5926  0.7739  0.2399
  275MOL0     O37014  -0.404   2.061   6.502 -0.6772  0.0283 -0.2744
  275MOL0     C37015  -0.293   2.127   6.455 -0.2691 -0.6000 -0.1773
  275MOL0     C37016  -0.238   2.240   6.524  1.1166  0.1804  0.8082
  275MOL0     C37017  -0.138   2.312   6.463  0.0449  0.1778 -0.1071
  275MOL0     C37018  -0.078   2.269   6.341 -0.8032  0.3666 -0.2165
  275MOL0     C37019   0.016   2.353   6.257 -0.1072 -0.2404 -0.7492
  275MOL0     O37020   0.060   2.317   6.135  0.5301  0.6219 -0.1616
  275MOL0     C37021   0.136   2.401   6.062 -0.9116 -0.0463  0.3429
  275MOL0     C37022   0.135   2.361   5.921 -0.0544  0.2783 -0.8886
  275MOL0     C37023   0.218   2.437   5.833 -0.2931  0.6776 -1.2391
  275MOL0     C37024   0.304   2.538   5.888  0.3492 -0.5637  0.5845
  275MOL0     O37025   0.395   2.604   5.808 -0.8118 -0.3072  0.8661
  275MOL0     C37026   0.344   2.647   5.682  0.7298  0.6113 -0.1384
  275MOL0     C37027   0.368   2.804   5.687  0.0295 -0.3435 -0.3642
  275MOL0     C37028   0.268   2.887   5.606  1.1087  0.8273  0.7327
  275MOL0     C37029   0.322   3.031   5.609  0.7233 -0.1483 -0.3511
  275MOL0     C37030   0.211   3.123   5.551 -0.0224 -0.9678 -0.6049
  275MOL0     C37031   0.106   3.149   5.654 -0.6012 -0.3022  0.0113
  275MOL0     C37032   0.029   3.271   5.606 -0.2562 -0.2640  0.5050
  275MOL0     C37033  -0.095   3.293   5.693 -0.1660  0.1033 -0.1651
  275MOL0    Cl37034  -0.184   3.425   5.634  0.6346  0.3932  0.1371
  275MOL0     C37035   0.301   2.566   6.019 -0.1323 -0.0105 -0.2026
  275MOL0     C37036   0.223   2.502   6.109  0.7763  0.0654 -0.1514
  275MOL0     O37037   0.019   2.471   6.300  0.0525  1.1292  0.1372
  275MOL0     C37038  -0.123   2.150   6.285 -0.1493 -0.6650  0.7583
  275MOL0     C37039  -0.230   2.079   6.339  0.7566 -0.0559 -0.1801
  275MOL0     N37040   0.006   1.701   6.640  0.0436  0.2349  0.5564
  275MOL0     N37041   0.064   1.686   6.524 -0.1121 -0.3441 -0.4715
  275MOL0     C37042   0.020   2.262   5.424  0.4110 -1.2483  0.2807
  275MOL0     C37043   0.023   2.384   5.358 -0.3120  0.2763  0.0583
  275MOL0     C37044   0.176   2.776   5.186 -0.4686  1.3478 -0.6147
  275MOL0     C37045   0.044   2.803   5.152 -0.6418  1.4878 -0.3078
  275MOL0     C37046  -0.003   2.932   5.111 -0.0882  0.7957 -0.9951
  275MOL0     C37047   0.079   3.037   5.122  0.6599 -0.9716  1.5444
  275MOL0     O37048   0.039   3.164   5.087 -0.3627  0.9637 -0.2903
  275MOL0     C37049  -0.094   3.193   5.114  0.5179  0.5931  0.8849
  275MOL0     C37050  -0.123   3.342   5.128  0.4477  0.8280  0.3685
  275MOL0     C37051  -0.047   3.412   5.236 -0.6051 -0.6746  0.5514
  275MOL0     C37052   0.097   3.446   5.204  0.1805 -0.1758  0.7014
  275MOL0     C37053   0.161   3.498   5.321 -0.3249 -1.0464 -0.8022
  275MOL0     C37054   0.206   3.546   5.421 -0.1595  0.1811 -0.0118
  275MOL0     C37055   0.204   3.017   5.177  0.4105  1.2229 -0.3316
  275MOL0     C37056   0.256   2.888   5.199  1.2383 -0.5886 -0.5621
  275MOL0     C37057   0.408   2.887   5.233  0.8458 -0.1497  0.8878
  275MOL0     H37058   0.313   2.342   5.193  0.2579 -1.0250 -0.6178
  275MOL0     H37059   0.275   2.100   5.270 -0.0042  0.4535 -2.9206
  275MOL0     H37060   0.095   2.053   5.635 -0.3814  2.7065 -1.7113
  275MOL0     H37061  -0.062   2.072   5.578  1.8311  1.6171  0.6101
  275MOL0     H37062   0.082   1.792   5.585 -0.5326 -0.9386 -2.7638
  275MOL0     H37063  -0.074   1.830   5.534  2.1626 -1.9245 -0.1828
  275MOL0     H37064  -0.095   1.734   5.764 -1.0315  0.6720  0.9506
  275MOL0     H37065  -0.143   1.903   5.768  0.4602 -2.0501  0.5905
  275MOL0     H37066   0.147   1.853   5.800  1.0786  1.6400  2.4218
  275MOL0     H37067   0.036   1.960   5.873 -1.7971 -1.5617  0.8258
  275MOL0     H37068   0.078   1.656   5.927 -2.2783 -1.2070 -0.3863
  275MOL0     H37069   0.124   1.794   6.037 -1.7006 -1.1346  3.3330
  275MOL0     H37070  -0.116   1.853   6.046  0.5980 -0.2123 -0.0970
  275MOL0     H37071  -0.151   1.707   5.965 -1.8717  2.6389  1.1186
  275MOL0     H37072  -0.010   1.579   6.165 -1.8949  0.1440 -0.9421
  275MOL0     H37073  -0.172   1.650   6.215  1.7549  0.3004  4.1900
  275MOL0     H37074   0.101   1.761   6.274 -0.3110 -2.3955  0.4469
  275MOL0     H37075  -0.040   1.843   6.287  3.6799  0.9191  1.5166
  275MOL0     H37076  -0.253   1.713   6.444  1.7019  1.3695 -1.2467
  275MOL0     H37077  -0.257   1.638   6.787 -1.8196  0.7528  1.5764
  275MOL0     H37078  -0.183   1.793   6.818  1.3325 -0.5184 -0.9132
  275MOL0     H37079  -0.412   1.784   6.604 -0.0600 -1.7462  0.1500
  275MOL0     H37080  -0.448   1.796   6.770 -1.8170 -0.9436 -3.0046
  275MOL0     H37081  -0.230   1.981   6.665 -0.1348 -0.3427  0.4595
  275MOL0     H37082  -0.315   1.988   6.821  6.1847  1.8805 -0.1562
  275MOL0     H37083  -0.464   2.141   6.695 -2.9732 -0.3429  1.1506
  275MOL0     H37084  -0.523   1.985   6.671 -2.2005  2.7211 -0.4715
  275MOL0     H37085  -0.268   2.265   6.625 -0.9791  0.0933  0.2415
  275MOL0     H37086  -0.101   2.407   6.499 -1.8068  0.9018  0.0016
  275MOL0     H37087   0.093   2.266   5.889 -1.4975  1.2613 -2.0727
  275MOL0     H37088   0.216   2.397   5.733 -1.8244  1.8488 -1.7089
  275MOL0     H37089   0.405   2.607   5.601  0.1315  0.4951 -0.5421
  275MOL0     H37090   0.237   2.624   5.672  0.6838  0.6231  0.3144
  275MOL0     H37091   0.351   2.833   5.791 -2.6466 -0.1663 -0.7844
  275MOL0     H37092   0.470   2.823   5.652  0.4467  1.0924  1.4391
  275MOL0     H37093   0.259   2.851   5.504  1.9342 -2.7769  1.7856
  275MOL0     H37094   0.168   2.887   5.652 -0.6659 -0.5588 -2.8088
  275MOL0     H37095   0.405   3.025   5.537  0.4001 -2.4867 -0.6176
  275MOL0     H37096   0.361   3.056   5.708  2.8066 -0.4235 -1.0549
  275MOL0     H37097   0.164   3.076   5.465  2.3623 -0.3553 -2.3516
  275MOL0     H37098   0.254   3.215   5.510 -2.0127  1.1896  1.8068
  275MOL0     H37099   0.032   3.070   5.670 -0.9700 -0.0679 -0.5001
  275MOL0     H37100   0.152   3.184   5.747  1.4582  0.3079 -1.1795
  275MOL0     H37101  -0.008   3.254   5.505  1.8214 -0.3915 -0.2811
  275MOL0     H37102   0.095   3.359   5.605  0.8017 -1.0459 -0.5505
  275MOL0     H37103  -0.169   3.213   5.694 -2.6994  2.2699 -1.4888
  275MOL0     H37104  -0.072   3.312   5.799  0.7057 -1.9436  0.0632
  275MOL0     H37105   0.371   2.628   6.075  3.0285 -2.8282 -0.7759
  275MOL0     H37106   0.242   2.530   6.212  1.2569  0.1038 -0.2460
  275MOL0     H37107  -0.066   2.108   6.202 -1.8958 -0.4093 -0.6238
  275MOL0     H37108  -0.274   1.993   6.289 -0.5594  1.8208 -2.4570
  275MOL0     H37109  -0.046   2.261   5.510 -0.3648 -1.5329 -0.3000
  275MOL0     H37110  -0.043   2.467   5.380  0.8635  1.1163  0.5411
  275MOL0     H37111  -0.034   2.729   5.144  1.2456 -0.5248 -1.2460
  275MOL0     H37112  -0.101   2.936   5.066  0.3854 -0.6541 -2.2640
  275MOL0     H37113  -0.113   3.153   5.214 -0.4798  0.8058  0.7946
  275MOL0     H37114  -0.162   3.151   5.038  1.3151 -1.1568  1.0838
  275MOL0     H37115  -0.230   3.349   5.149  0.7954  1.5583  2.0774
  275MOL0     H37116  -0.098   3.391   5.033  4.3778 -1.0213  0.2806
  275MOL0     H37117  -0.055   3.349   5.325  0.9250  0.6649  1.6782
  275MOL0     H37118  -0.096   3.507   5.259 -0.1381 -0.4933  0.8146
  275MOL0     H37119   0.154   3.357   5.177  0.2978  0.7920 -2.6979
  275MOL0     H37120   0.107   3.527   5.132 -0.3716 -1.3079 -0.6956
  275MOL0     H37121   0.239   3.602   5.506  2.8573 -1.5045  0.0860
  275MOL0     H37122   0.274   3.100   5.180 -1.2597  2.6704  1.6387
  275MOL0     H37123   0.447   2.797   5.186 -0.1349 -0.2574  0.2630
  275MOL0     H37124   0.459   2.971   5.185 -0.6121 -0.8505 -2.0840
  275MOL0     H37125   0.423   2.889   5.342  0.5813 -2.5961  1.0239
  276MOL0     O37126   8.902   2.907   5.162  0.2863  0.0178  0.2853
  276MOL0     C37127   8.975   2.839   5.095 -1.0063 -0.1093 -0.2113
  276MOL0     O37128   9.002   2.851   4.959 -0.3101  0.0501 -0.9156
  276MOL0     C37129   8.949   2.962   4.901 -0.0131 -0.2262  0.6537
  276MOL0     C37130   8.825   2.974   4.847 -0.7235  1.0958 -0.2789
  276MOL0     C37131   8.786   3.084   4.773  0.0408 -0.4850 -0.6854
  276MOL0     C37132   8.873   3.187   4.747 -0.4661 -0.0565 -0.3623
  276MOL0     O37133   8.832   3.288   4.667 -0.3238  0.0591  0.1325
  276MOL0     C37134   8.920   3.403   4.673  0.2141  0.5258 -0.4619
  276MOL0     C37135   8.837   3.523   4.622  1.1371 -0.2657 -0.1382
  276MOL0     C37136   8.809   3.493   4.465  0.1748 -0.5585  0.0774
  276MOL0     C37137   8.689   3.568   4.409 -0.1024 -0.8413  0.2260
  276MOL0     C37138   8.632   3.482   4.292 -1.6871  0.1554  1.3919
  276MOL0     C37139   8.733   3.493   4.167  0.4497  0.4768  0.2476
  276MOL0     C37140   8.782   3.644   4.127  0.4170 -0.1664 -0.5837
  276MOL0     C37141   8.865   3.646   3.991 -0.0057 -0.9107 -0.0705
  276MOL0     N37142   8.928   3.784   3.966 -0.4258 -0.3227  0.1315
  276MOL0     C37143   8.861   3.895   3.920 -0.7387 -0.3481  0.0809
  276MOL0     C37144   8.954   3.985   3.892  0.4500  0.4597 -0.4199
  276MOL0     C37145   8.936   4.123   3.832  0.4710 -1.0348  0.3970
  276MOL0     C37146   8.944   4.124   3.674  0.3604  0.0048 -0.9870
  276MOL0     C37147   8.828   4.037   3.616 -0.1745 -0.8371 -0.0751
  276MOL0     C37148   8.811   4.038   3.464  0.1641  0.6528 -0.7835
  276MOL0     O37149   8.939   4.007   3.395 -0.2497  0.0323  0.1335
  276MOL0     C37150   8.917   3.984   3.262 -0.4091 -1.2142 -1.4797
  276MOL0     C37151   8.850   3.868   3.217 -0.7427  0.0706 -0.0518
  276MOL0     C37152   8.823   3.857   3.080  0.4157 -0.2579 -0.8878
  276MOL0     C37153   8.853   3.959   2.986 -0.0593 -0.6724  0.8496
  276MOL0     C37154   8.806   3.958   2.848 -1.3820 -0.0081 -0.7728
  276MOL0     O37155   8.792   4.071   2.780 -0.3194  0.2958 -0.2583
  276MOL0     C37156   8.737   4.100   2.656 -0.5945 -0.0921 -0.0108
  276MOL0     C37157   8.688   4.226   2.630  0.9548 -0.2068 -0.6457
  276MOL0     C37158   8.641   4.248   2.494 -0.2216 -0.1385 -0.3049
  276MOL0     C37159   8.640   4.157   2.394  0.3768 -0.2717  0.1484
  276MOL0     O37160   8.600   4.207   2.272 -1.0402 -0.5614  0.5028
  276MOL0     C37161   8.594   4.116   2.162  0.1607  0.3347  0.2730
  276MOL0     C37162   8.523   4.174   2.038  1.0020 -0.6960 -0.5300
  276MOL0     C37163   8.495   4.060   1.938  1.0225  0.2267  0.1086
  276MOL0     C37164   8.407   4.115   1.836 -0.0366 -1.0351  0.2660
  276MOL0     C37165   8.356   4.001   1.747 -0.0593  0.4425 -0.2312
  276MOL0     C37166   8.198   4.000   1.724 -0.5010  0.1980  0.6989
  276MOL0     C37167   8.151   4.118   1.645 -1.3067  0.3772 -0.3159
  276MOL0     C37168   8.002   4.117   1.643 -1.2517  0.0199 -0.0061
  276MOL0    Cl37169   7.920   3.995   1.537  0.4081 -0.1884 -0.4047
  276MOL0     C37170   8.682   4.032   2.430 -0.1975  0.1147  0.1579
  276MOL0     C37171   8.732   4.001   2.555 -0.1896  0.1439 -0.1751
  276MOL0     O37172   8.768   3.845   2.815  0.2359 -0.2633 -0.0108
  276MOL0     C37173   8.922   4.072   3.034  0.2177  0.0230 -0.1073
  276MOL0     C37174   8.951   4.081   3.177  0.4174 -0.0797 -0.1736
  276MOL0     N37175   9.077   3.929   3.920  0.1053 -0.9521 -0.3396
  276MOL0     N37176   9.060   3.807   3.962  0.6774  0.0773  0.3129
  276MOL0     C37177   8.998   3.189   4.813  0.2183  1.1399 -0.4924
  276MOL0     C37178   9.030   3.079   4.892 -1.0277  0.4959  0.5138
  276MOL0     C37179   9.045   2.727   5.160  0.0034  0.5508  0.6472
  276MOL0     C37180   9.178   2.699   5.122  0.1869  0.5313  0.0006
  276MOL0     C37181   9.254   2.601   5.185  0.4003  1.0087  0.0226
  276MOL0     C37182   9.202   2.518   5.283 -0.0785 -0.1001 -0.6562
  276MOL0     O37183   9.269   2.415   5.345  0.3569 -0.4977  0.5707
  276MOL0     C37184   9.399   2.453   5.388 -0.0863  0.2144  0.4072
  276MOL0     C37185   9.415   2.532   5.509 -0.4803  0.8610  0.4224
  276MOL0     C37186   9.563   2.546   5.567  0.8486 -0.1125 -1.0395
  276MOL0     C37187   9.640   2.669   5.527  0.0270 -1.2128  0.3956
  276MOL0     C37188   9.771   2.636   5.468  0.0698 -0.2703  0.3246
  276MOL0     C37189   9.876   2.619   5.411  0.4045  1.0530  0.5811
  276MOL0     C37190   9.068   2.549   5.332  1.3868  0.3510  0.4897
  276MOL0     C37191   8.990   2.651   5.272 -0.6648  0.1776 -0.2943
  276MOL0     C37192   8.857   2.679   5.334 -0.2221  0.0174 -0.0004
  276MOL0     H37193   8.763   2.886   4.862  1.8433 -0.4005  2.6337
  276MOL0     H37194   8.683   3.094   4.739 -0.0855 -0.2913 -0.2471
  276MOL0     H37195   8.944   3.429   4.776 -1.0550 -0.4200  0.1131
  276MOL0     H37196   9.010   3.397   4.612  0.1363 -1.2075 -0.4805
  276MOL0     H37197   8.893   3.617   4.628  2.3188 -0.9996  0.8675
  276MOL0     H37198   8.749   3.536   4.687 -0.3741  2.0244 -2.4268
  276MOL0     H37199   8.799   3.384   4.465  0.7806 -0.6617  2.0870
  276MOL0     H37200   8.902   3.525   4.417  0.9066  2.2592  2.9403
  276MOL0     H37201   8.610   3.568   4.485  2.4156  2.6558  3.2160
  276MOL0     H37202   8.701   3.670   4.371  2.1766 -1.5333 -1.0503
  276MOL0     H37203   8.624   3.378   4.323  0.9525 -0.6286 -0.1991
  276MOL0     H37204   8.531   3.510   4.261 -1.8563 -0.3362  1.4927
  276MOL0     H37205   8.821   3.434   4.195  0.5679  1.0415  1.1189
  276MOL0     H37206   8.684   3.446   4.081 -0.2964 -0.7089  1.2779
  276MOL0     H37207   8.849   3.682   4.206  1.3783  1.9406 -2.2938
  276MOL0     H37208   8.708   3.723   4.112  2.8006  2.1165 -1.1576
  276MOL0     H37209   8.946   3.572   3.989  0.9006  0.0293 -2.1244
  276MOL0     H37210   8.794   3.626   3.911 -1.2076  2.8213 -0.1482
  276MOL0     H37211   8.754   3.910   3.907 -1.0337 -0.1746  2.3484
  276MOL0     H37212   8.854   4.179   3.877 -0.6042 -1.9522 -0.3357
  276MOL0     H37213   9.024   4.178   3.867 -0.3663 -0.2958  1.4105
  276MOL0     H37214   8.935   4.228   3.640 -3.8448 -0.3633 -1.5356
  276MOL0     H37215   9.041   4.078   3.653 -0.2270 -3.0267  2.1551
  276MOL0     H37216   8.739   4.070   3.670  0.3792 -0.9345  0.9172
  276MOL0     H37217   8.860   3.935   3.641  2.5461 -0.4272 -1.4343
  276MOL0     H37218   8.779   4.137   3.430  2.0944  0.6104 -3.0713
  276MOL0     H37219   8.739   3.959   3.443 -0.4787  0.9902  0.1225
  276MOL0     H37220   8.814   3.793   3.287 -2.4609  0.0836 -0.8713
  276MOL0     H37221   8.758   3.773   3.058 -0.3750 -0.5478  2.1122
  276MOL0     H37222   8.688   4.299   2.710  0.2556 -1.0937  0.2033
  276MOL0     H37223   8.600   4.342   2.460  2.6127  1.5713  0.5796
  276MOL0     H37224   8.697   4.097   2.130 -0.0706  1.5354 -1.3404
  276MOL0     H37225   8.554   4.021   2.199 -0.2303 -0.1489 -1.2983
  276MOL0     H37226   8.430   4.228   2.058  1.0260 -0.2592 -1.5560
  276MOL0     H37227   8.576   4.254   1.985  0.3929  3.6111  4.5166
  276MOL0     H37228   8.590   4.036   1.890  1.6690  0.7359  1.0949
  276MOL0     H37229   8.450   3.971   1.984 -1.7598 -0.0474 -2.7854
  276MOL0     H37230   8.446   4.200   1.780  0.0532 -0.9364  0.4765
  276MOL0     H37231   8.323   4.170   1.880 -0.4853  0.7911 -2.5985
  276MOL0     H37232   8.387   3.909   1.799  1.8040  0.1958 -1.6639
  276MOL0     H37233   8.411   3.998   1.653 -1.1622  1.0513 -0.9078
  276MOL0     H37234   8.173   3.910   1.666  1.9011 -0.5361  0.7159
  276MOL0     H37235   8.146   3.995   1.820  0.2030 -4.4111  1.0719
  276MOL0     H37236   8.204   4.112   1.550 -1.3173  0.1251 -0.3071
  276MOL0     H37237   8.180   4.215   1.687 -1.7928  0.7089 -0.7460
  276MOL0     H37238   7.966   4.115   1.746 -3.1724  2.6567 -0.5274
  276MOL0     H37239   7.963   4.214   1.611 -4.0648 -0.4698  1.6875
  276MOL0     H37240   8.685   3.948   2.362 -2.8086 -1.2763  1.6064
  276MOL0     H37241   8.766   3.903   2.586 -0.2830  0.4283  0.8374
  276MOL0     H37242   8.956   4.146   2.962 -0.5593 -2.6942 -3.5448
  276MOL0     H37243   9.024   4.152   3.215  0.3955 -0.4376  0.5561
  276MOL0     H37244   9.068   3.272   4.809  0.9858  0.5037 -0.7474
  276MOL0     H37245   9.128   3.069   4.938 -1.1606 -0.5092  0.5999
  276MOL0     H37246   9.232   2.757   5.048  0.9723  0.3406  0.4129
  276MOL0     H37247   9.355   2.588   5.148  0.2414  0.0901 -0.1108
  276MOL0     H37248   9.464   2.499   5.313  2.0562  0.3916  2.2471
  276MOL0     H37249   9.457   2.366   5.422 -0.8160 -1.0599 -1.4066
  276MOL0     H37250   9.359   2.489   5.592 -1.5037  0.8920 -0.2282
  276MOL0     H37251   9.351   2.618   5.485 -2.6187 -1.4986 -3.3434
  276MOL0     H37252   9.630   2.468   5.531 -0.0747 -0.2053 -2.6800
  276MOL0     H37253   9.540   2.543   5.674  1.5506  1.9760 -0.7776
  276MOL0     H37254   9.584   2.738   5.464  2.4162  1.5530  1.0720
  276MOL0     H37255   9.647   2.721   5.623 -0.6599 -1.4578  0.5859
  276MOL0     H37256   9.972   2.592   5.370 -1.3028 -1.8887 -1.9047
  276MOL0     H37257   9.027   2.482   5.407  0.1822  1.6565  1.0455
  276MOL0     H37258   8.841   2.636   5.433 -5.4707  4.8962  1.8668
  276MOL0     H37259   8.848   2.787   5.354  2.2609  0.0907  1.0566
  276MOL0     H37260   8.784   2.643   5.261  2.6386 -3.7081 -1.3290
  277MOL0     O37261   1.554   2.002   9.316 -0.6770  0.1243 -0.2182
  277MOL0     C37262   1.670   2.035   9.319 -0.2651 -0.7169 -0.8275
  277MOL0     O37263   1.732   2.065   9.432  0.0578  0.0575 -0.4912
  277MOL0     C37264   1.664   2.098   9.543  0.0337 -0.0437 -0.1677
  277MOL0     C37265   1.677   2.047   9.668 -0.7964  0.2650 -0.2868
  277MOL0     C37266   1.633   2.127   9.781  0.5968 -0.2927  0.4720
  277MOL0     C37267   1.558   2.239   9.768 -0.9674  0.4371  0.5979
  277MOL0     O37268   1.514   2.304   9.881 -0.2775  0.5566 -0.3982
  277MOL0     C37269   1.379   2.359   9.867 -0.0323 -0.4659 -0.0220
  277MOL0     C37270   1.322   2.389  10.008  0.4389  1.0282  0.5420
  277MOL0     C37271   1.327   2.276  10.116 -0.2216  0.2295  0.8902
  277MOL0     C37272   1.241   2.318  10.224 -0.6754 -0.0741 -0.5085
  277MOL0     C37273   1.236   2.223  10.341  0.3045  0.0471 -0.5463
  277MOL0     C37274   1.201   2.083  10.297  0.9034 -0.6541 -0.5464
  277MOL0     C37275   1.126   1.999  10.407 -0.1011 -0.8683 -1.1129
  277MOL0     C37276   1.105   1.848  10.373 -0.2777 -0.1854 -0.5242
  277MOL0     N37277   1.031   1.784  10.482  0.6566 -0.3715  0.0466
  277MOL0     C37278   1.091   1.723  10.592  0.5710  0.5456  0.1841
  277MOL0     C37279   0.982   1.708  10.677 -1.1047 -1.4397  0.4131
  277MOL0     C37280   1.009   1.647  10.814 -0.2907  1.1233 -0.3916
  277MOL0     C37281   0.883   1.573  10.871  0.0645  0.0759 -0.1558
  277MOL0     C37282   0.823   1.460  10.787 -0.0612 -0.2061 -0.0013
  277MOL0     C37283   0.685   1.423  10.826 -0.2312  0.2776  0.4386
  277MOL0     O37284   0.695   1.381  10.963 -0.2030 -0.8124 -0.3776
  277MOL0     C37285   0.610   1.278  10.996  0.0843 -1.1758  0.4054
  277MOL0     C37286   0.652   1.164  11.060  0.8291 -0.3053 -0.0161
  277MOL0     C37287   0.564   1.071  11.110 -1.1973  0.8480 -0.5159
  277MOL0     C37288   0.427   1.099  11.113 -0.2100  0.4680 -0.9792
  277MOL0     C37289   0.337   1.005  11.192 -0.0666  1.4030 -0.7406
  277MOL0     O37290   0.399   0.932  11.294  0.2009 -0.0265 -0.0476
  277MOL0     C37291   0.330   0.830  11.354  0.2897  0.4031  0.8954
  277MOL0     C37292   0.339   0.817  11.488 -0.3716  0.1211  0.3384
  277MOL0     C37293   0.251   0.733  11.560  0.9303 -0.2346 -1.0968
  277MOL0     C37294   0.166   0.643  11.496  0.1737 -0.7849  1.3589
  277MOL0     O37295   0.083   0.564  11.576  0.3149  0.4944  0.2673
  277MOL0     C37296   0.048   0.583  11.713 -0.0463  0.0750  0.7155
  277MOL0     C37297  -0.087   0.541  11.757 -0.6221  0.4169 -1.4147
  277MOL0     C37298  -0.111   0.555  11.908 -0.1382 -0.0937  0.8249
  277MOL0     C37299  -0.213   0.451  11.948 -0.8229  0.4407  0.4270
  277MOL0     C37300  -0.275   0.468  12.087 -1.0585 -0.1724 -0.4911
  277MOL0     C37301  -0.347   0.341  12.133 -0.0276 -0.0826  0.5515
  277MOL0     C37302  -0.386   0.356  12.283  0.3278 -0.0726  1.0954
  277MOL0     C37303  -0.461   0.228  12.338  0.0183  0.6536 -0.6442
  277MOL0    Cl37304  -0.536   0.284  12.488  0.3560  0.0412  0.0121
  277MOL0     C37305   0.165   0.649  11.353 -0.9373  0.1494 -0.6213
  277MOL0     C37306   0.245   0.744  11.284  0.7850  0.8774 -0.8052
  277MOL0     O37307   0.219   1.018  11.175 -0.0675  0.6561  0.0734
  277MOL0     C37308   0.375   1.211  11.036  0.4964 -1.3293  0.7449
  277MOL0     C37309   0.470   1.305  10.992 -0.7624  0.2290 -0.1289
  277MOL0     N37310   0.871   1.758  10.621  0.4605  0.4256  0.7018
  277MOL0     N37311   0.899   1.803  10.504  0.2770 -0.2206 -0.5190
  277MOL0     C37312   1.527   2.279   9.641  0.0007 -1.0417 -0.0338
  277MOL0     C37313   1.583   2.209   9.530  0.5731 -1.1389  0.9409
  277MOL0     C37314   1.757   2.035   9.198  0.5500  0.6431 -1.2186
  277MOL0     C37315   1.896   2.055   9.224 -0.3559 -1.2333  0.6209
  277MOL0     C37316   1.978   2.059   9.109  1.6648 -0.3725  0.6246
  277MOL0     C37317   1.920   2.046   8.972 -0.3276  0.2486  0.7684
  277MOL0     O37318   2.003   2.051   8.858  0.4039 -0.2611 -0.0464
  277MOL0     C37319   2.146   2.033   8.871 -0.3770  0.3541  0.1837
  277MOL0     C37320   2.217   2.064   8.741  0.8784 -0.0510 -0.4406
  277MOL0     C37321   2.365   2.072   8.770 -0.6568  0.2531  0.1850
  277MOL0     C37322   2.452   2.075   8.643  0.3361 -0.0778 -0.4109
  277MOL0     C37323   2.589   2.107   8.672 -0.0057 -0.3023  1.1124
  277MOL0     C37324   2.699   2.154   8.692  0.0233  0.0899  0.4399
  277MOL0     C37325   1.787   2.030   8.954  0.1332  0.4147 -0.0842
  277MOL0     C37326   1.703   2.030   9.066  0.2784  0.4469 -0.4170
  277MOL0     C37327   1.555   2.014   9.026 -0.9336 -0.0024 -0.3853
  277MOL0     H37328   1.742   1.963   9.690 -1.0926 -0.7176 -2.8401
  277MOL0     H37329   1.660   2.095   9.881  1.2227  1.3057  0.8422
  277MOL0     H37330   1.386   2.457   9.820  2.1804  0.7965  2.6642
  277MOL0     H37331   1.316   2.287   9.813 -1.8270  1.1807 -0.2293
  277MOL0     H37332   1.215   2.411   9.999 -0.0292 -0.8215  1.1869
  277MOL0     H37333   1.373   2.482  10.034 -0.2030  1.8794 -1.1421
  277MOL0     H37334   1.431   2.258  10.144 -1.0441 -1.5607  3.0639
  277MOL0     H37335   1.302   2.186  10.060 -1.7686  1.1710 -0.0204
  277MOL0     H37336   1.291   2.408  10.260  1.9102 -0.2979 -3.1972
  277MOL0     H37337   1.140   2.342  10.189 -0.2741  1.5725 -0.6377
  277MOL0     H37338   1.331   2.217  10.396 -0.4298  3.2304  1.3535
  277MOL0     H37339   1.167   2.274  10.408  1.7463  0.7746  0.4504
  277MOL0     H37340   1.126   2.087  10.217 -1.3287 -3.8317  1.1704
  277MOL0     H37341   1.289   2.034  10.253  2.2689  2.0197 -0.9930
  277MOL0     H37342   1.034   2.052  10.433  1.1288  0.1205  1.5691
  277MOL0     H37343   1.190   2.021  10.493 -1.7390  3.0231 -0.7089
  277MOL0     H37344   1.048   1.839  10.280 -1.0698 -0.4497 -0.0289
  277MOL0     H37345   1.205   1.805  10.365 -0.1056  0.2829 -1.0120
  277MOL0     H37346   1.194   1.694  10.604  0.0418 -1.5098  0.0654
  277MOL0     H37347   1.082   1.566  10.798 -1.2329  0.0452  0.5667
  277MOL0     H37348   1.067   1.709  10.883  2.5202 -0.9606 -0.7089
  277MOL0     H37349   0.888   1.520  10.966  0.2400 -1.4168 -0.9604
  277MOL0     H37350   0.815   1.658  10.879  1.0415  1.1447 -2.2336
  277MOL0     H37351   0.899   1.382  10.797  1.1668  1.1018  1.4392
  277MOL0     H37352   0.812   1.499  10.686  0.2282  1.0992  0.4503
  277MOL0     H37353   0.642   1.357  10.751 -0.2613 -1.1699  1.6926
  277MOL0     H37354   0.622   1.513  10.821  0.8824  1.0019 -1.9195
  277MOL0     H37355   0.759   1.145  11.061  0.4734 -3.2196 -2.5284
  277MOL0     H37356   0.612   0.984  11.156 -2.7818 -1.0789 -2.3195
  277MOL0     H37357   0.421   0.874  11.531  0.7964  1.5693 -3.4196
  277MOL0     H37358   0.260   0.730  11.668  0.7661  0.7903 -1.0514
  277MOL0     H37359   0.130   0.526  11.759  0.2208 -0.4794 -0.4122
  277MOL0     H37360   0.058   0.687  11.746  0.5120  0.0670  0.5897
  277MOL0     H37361  -0.164   0.590  11.696 -0.5734  0.3641 -1.5210
  277MOL0     H37362  -0.109   0.436  11.735  0.1452 -0.7525  2.5808
  277MOL0     H37363  -0.021   0.528  11.964  1.0997  1.2363 -0.4763
  277MOL0     H37364  -0.152   0.653  11.934  0.4900  0.1408  0.9408
  277MOL0     H37365  -0.164   0.354  11.938  1.6897  1.7497 -0.7530
  277MOL0     H37366  -0.298   0.450  11.878 -0.4822 -0.7871 -0.0033
  277MOL0     H37367  -0.339   0.556  12.083 -1.3275 -0.4119 -2.5333
  277MOL0     H37368  -0.185   0.484  12.147  0.7627 -2.2581 -2.4672
  277MOL0     H37369  -0.429   0.346  12.060  0.2106  2.1192  0.3639
  277MOL0     H37370  -0.286   0.252  12.119  0.1684  0.3971 -2.1562
  277MOL0     H37371  -0.458   0.439  12.282  0.7480  0.3642 -1.9013
  277MOL0     H37372  -0.300   0.380  12.347  0.4682 -1.9148  1.6350
  277MOL0     H37373  -0.530   0.189  12.263  0.4406 -0.7046 -0.3653
  277MOL0     H37374  -0.400   0.139  12.360 -3.5519 -1.2377  2.8416
  277MOL0     H37375   0.105   0.578  11.297 -1.0938  0.2523 -0.5861
  277MOL0     H37376   0.228   0.754  11.177 -0.2592  1.4282 -0.5999
  277MOL0     H37377   0.273   1.237  11.011  1.3044 -2.1142 -4.7148
  277MOL0     H37378   0.439   1.396  10.940 -3.1288 -1.3951 -1.8146
  277MOL0     H37379   1.486   2.379   9.641  3.2424  0.4335 -1.1129
  277MOL0     H37380   1.565   2.255   9.433  3.0134 -1.2753  0.3500
  277MOL0     H37381   1.954   2.085   9.311 -2.9326  0.5224  1.8688
  277MOL0     H37382   2.084   2.069   9.131  1.6705 -0.7285  0.7675
  277MOL0     H37383   2.182   1.936   8.907  0.7151  0.7095  0.0873
  277MOL0     H37384   2.175   2.088   8.961 -1.2784  2.2761 -0.6272
  277MOL0     H37385   2.172   2.161   8.717 -1.6433 -0.2651  2.8063
  277MOL0     H37386   2.199   1.988   8.664 -0.7385  0.3832 -0.5282
  277MOL0     H37387   2.395   1.989   8.834 -3.0183 -0.4345  0.4985
  277MOL0     H37388   2.392   2.163   8.823  2.3791  0.4332 -1.4320
  277MOL0     H37389   2.445   1.981   8.588 -3.9211  0.8370 -1.8519
  277MOL0     H37390   2.411   2.150   8.575  2.0328  1.5629  0.2916
  277MOL0     H37391   2.801   2.182   8.707  0.0519  0.0848  0.2538
  277MOL0     H37392   1.745   2.017   8.855 -0.0566 -0.7444  0.1407
  277MOL0     H37393   1.488   2.089   9.069  0.4289  0.5428  0.9065
  277MOL0     H37394   1.546   2.052   8.923 -1.4924  3.0832  0.6818
  277MOL0     H37395   1.508   1.916   9.033  0.4554 -0.6972 -0.3378
  278MOL0     O37396   9.015   6.723   6.382 -0.0967 -0.8385 -0.4645
  278MOL0     C37397   9.127   6.667   6.370 -0.6642 -0.1006  0.0019
  278MOL0     O37398   9.200   6.598   6.460  0.2960  0.5344  0.6937
  278MOL0     C37399   9.145   6.565   6.576 -0.1836  0.3346  0.5698
  278MOL0     C37400   9.109   6.662   6.667 -1.1101  0.3698  0.2914
  278MOL0     C37401   9.048   6.614   6.786 -0.1137  0.2551  0.2770
  278MOL0     C37402   9.038   6.476   6.813 -0.4711  0.3106 -0.1443
  278MOL0     O37403   8.987   6.434   6.939 -0.1351 -0.3066  0.3825
  278MOL0     C37404   9.051   6.318   6.997  0.1149  0.3610  0.0405
  278MOL0     C37405   9.058   6.332   7.147 -1.1610  0.0420  0.2062
  278MOL0     C37406   9.052   6.196   7.214 -0.1029  0.2661  0.5594
  278MOL0     C37407   9.030   6.199   7.366  0.0590 -0.7621  0.0422
  278MOL0     C37408   9.023   6.047   7.419 -0.3912  1.2592 -0.9983
  278MOL0     C37409   8.979   6.044   7.567 -0.3304  0.6902  0.0712
  278MOL0     C37410   9.091   6.044   7.669  0.9022 -0.0092  0.6507
  278MOL0     C37411   9.022   6.024   7.804 -0.1055 -0.9217  0.2588
  278MOL0     N37412   8.958   6.158   7.844 -0.0786 -0.1288 -0.2042
  278MOL0     C37413   8.827   6.199   7.819  1.2321 -0.2616  0.2175
  278MOL0     C37414   8.822   6.320   7.870 -0.4136 -0.4529 -0.9783
  278MOL0     C37415   8.696   6.403   7.863 -0.0321 -0.3047  0.6333
  278MOL0     C37416   8.702   6.477   7.732  0.1856 -0.1565 -0.2348
  278MOL0     C37417   8.586   6.570   7.684 -0.8293  0.6977 -0.6219
  278MOL0     C37418   8.625   6.621   7.547 -0.4301 -0.4902 -1.5967
  278MOL0     O37419   8.749   6.684   7.548  0.1388 -0.1277  0.1100
  278MOL0     C37420   8.792   6.779   7.464 -0.5638  0.2817 -0.0116
  278MOL0     C37421   8.924   6.810   7.482 -0.4958 -0.0182  0.8549
  278MOL0     C37422   8.977   6.925   7.412 -0.2558 -0.1646  0.0277
  278MOL0     C37423   8.891   6.998   7.325  1.1194 -0.1980  0.7261
  278MOL0     C37424   8.933   7.121   7.259  0.2830  0.9845 -0.5862
  278MOL0     O37425   9.046   7.174   7.312 -0.7995 -1.1063 -0.2011
  278MOL0     C37426   9.083   7.289   7.249  0.5376  0.2281  0.0694
  278MOL0     C37427   9.196   7.286   7.169  0.1833 -0.3814 -0.5229
  278MOL0     C37428   9.208   7.398   7.089 -0.7844  0.6955 -0.2290
  278MOL0     C37429   9.121   7.512   7.092  0.1773 -0.1412 -0.0639
  278MOL0     O37430   9.123   7.613   7.000  0.7582 -0.3839 -0.4500
  278MOL0     C37431   9.248   7.665   6.962 -0.6549  0.1878 -0.3707
  278MOL0     C37432   9.238   7.756   6.834 -0.2209  0.2845 -0.3726
  278MOL0     C37433   9.216   7.897   6.873  0.4414 -0.4223 -0.4260
  278MOL0     C37434   9.189   7.992   6.756 -0.4113 -0.0838  0.8992
  278MOL0     C37435   9.218   8.134   6.796  0.6679  0.2335  0.8520
  278MOL0     C37436   9.219   8.234   6.679  0.0665  0.1787 -1.3713
  278MOL0     C37437   9.083   8.219   6.604  0.7620 -0.3861  0.0847
  278MOL0     C37438   9.066   8.347   6.511 -1.0547  0.2531 -0.9448
  278MOL0    Cl37439   9.043   8.494   6.621  0.2391  0.0673  0.0191
  278MOL0     C37440   9.005   7.504   7.163 -1.0177 -0.0453  0.0489
  278MOL0     C37441   8.992   7.392   7.250 -0.1165 -0.4339  0.1403
  278MOL0     O37442   8.862   7.161   7.165  0.4691 -0.3045 -0.5483
  278MOL0     C37443   8.756   6.953   7.305 -0.2277 -0.2188 -0.7662
  278MOL0     C37444   8.717   6.837   7.371  1.0162  0.0900  0.6337
  278MOL0     N37445   8.941   6.353   7.926  0.3366  0.1988 -0.1601
  278MOL0     N37446   9.029   6.261   7.905 -0.1918 -0.0600 -0.1830
  278MOL0     C37447   9.080   6.382   6.716 -0.5817  0.5252 -1.2765
  278MOL0     C37448   9.123   6.429   6.593  1.1387  0.5615 -0.4961
  278MOL0     C37449   9.192   6.687   6.242  0.2341  0.1879  0.5948
  278MOL0     C37450   9.210   6.574   6.158  0.5083  0.5515  0.0356
  278MOL0     C37451   9.268   6.585   6.037  0.3627  0.2373 -0.6272
  278MOL0     C37452   9.312   6.712   5.998 -0.8429  0.4783 -0.2264
  278MOL0     O37453   9.383   6.745   5.881  0.2880 -0.5346 -0.3318
  278MOL0     C37454   9.373   6.661   5.773 -0.1412  0.9954 -0.0169
  278MOL0     C37455   9.467   6.722   5.668 -0.3574  0.7400 -1.2124
  278MOL0     C37456   9.618   6.673   5.674  0.4061  0.2525  0.1513
  278MOL0     C37457   9.655   6.637   5.532 -0.6574 -0.1121  0.2953
  278MOL0     C37458   9.661   6.761   5.442 -0.4660  0.7187 -0.0808
  278MOL0     C37459   9.655   6.860   5.386 -0.4555  0.2515  0.6224
  278MOL0     C37460   9.275   6.821   6.070 -0.3117 -0.4156 -0.6341
  278MOL0     C37461   9.225   6.816   6.192  0.8840  0.5273  0.0397
  278MOL0     C37462   9.200   6.936   6.282 -0.1232 -0.4793 -1.4698
  278MOL0     H37463   9.128   6.767   6.652  1.0425  0.5363  3.2929
  278MOL0     H37464   9.028   6.692   6.858  3.2024  0.3078  1.3048
  278MOL0     H37465   8.985   6.237   6.966 -1.7328  1.5733  0.6330
  278MOL0     H37466   9.148   6.301   6.950 -1.6413 -6.4271 -2.3054
  278MOL0     H37467   8.970   6.387   7.181 -1.6235  1.9740 -3.6033
  278MOL0     H37468   9.152   6.383   7.167 -1.2233  1.3888 -2.4713
  278MOL0     H37469   9.151   6.154   7.199 -0.1345  1.2106 -3.1247
  278MOL0     H37470   8.975   6.132   7.169  0.1732  1.3225 -1.5492
  278MOL0     H37471   9.115   6.253   7.408  1.4575  0.7152 -4.1823
  278MOL0     H37472   8.936   6.256   7.371 -1.5188 -3.2083  4.5768
  278MOL0     H37473   8.954   5.983   7.363  0.5795 -1.3053  0.5827
  278MOL0     H37474   9.126   6.012   7.406 -0.0787  1.6220  0.4089
  278MOL0     H37475   8.910   6.126   7.591 -0.3009  0.4108  1.1521
  278MOL0     H37476   8.934   5.946   7.587  3.2607 -0.9223  0.9786
  278MOL0     H37477   9.145   6.139   7.666 -0.2986  0.6600 -0.4396
  278MOL0     H37478   9.167   5.967   7.648  2.1183  0.7807  1.9013
  278MOL0     H37479   8.948   5.944   7.802  2.1887 -3.2679  1.9376
  278MOL0     H37480   9.106   5.998   7.869 -0.0561 -0.7055  0.2831
  278MOL0     H37481   8.741   6.151   7.773  0.5056  0.4529  0.7952
  278MOL0     H37482   8.606   6.343   7.868  1.6279 -2.8747  2.1729
  278MOL0     H37483   8.707   6.473   7.947 -3.1615 -0.3943  1.2363
  278MOL0     H37484   8.795   6.534   7.740  1.2004 -1.9375  1.6609
  278MOL0     H37485   8.712   6.399   7.656 -0.9012  0.0014 -0.5471
  278MOL0     H37486   8.590   6.651   7.757  1.7956  0.5892 -0.5200
  278MOL0     H37487   8.486   6.526   7.687 -1.4120  2.0280 -0.2245
  278MOL0     H37488   8.549   6.696   7.528  0.9562  2.2115  2.2557
  278MOL0     H37489   8.626   6.541   7.472 -1.1807 -1.5636 -0.4821
  278MOL0     H37490   8.985   6.753   7.552 -0.7574 -2.4647 -0.7927
  278MOL0     H37491   9.081   6.955   7.423 -0.2397 -1.1232  3.7993
  278MOL0     H37492   9.253   7.194   7.174 -0.0394 -0.4928  0.0516
  278MOL0     H37493   9.299   7.406   7.030 -1.9175 -0.2286 -2.2032
  278MOL0     H37494   9.293   7.725   7.042 -0.0322 -0.1368 -0.4699
  278MOL0     H37495   9.301   7.572   6.941 -1.7400 -1.2436  2.6859
  278MOL0     H37496   9.333   7.752   6.780 -0.2040  1.9821 -0.5323
  278MOL0     H37497   9.160   7.709   6.773  0.7910 -2.7125  0.4858
  278MOL0     H37498   9.124   7.903   6.932 -0.5056  0.0691 -1.8783
  278MOL0     H37499   9.304   7.928   6.930  0.1841 -1.6138  0.6563
  278MOL0     H37500   9.089   7.982   6.713 -0.0058  3.1826 -1.1643
  278MOL0     H37501   9.243   7.961   6.665 -1.5959 -1.7040  0.7014
  278MOL0     H37502   9.310   8.162   6.847  1.4074  4.3658 -2.2374
  278MOL0     H37503   9.144   8.175   6.866 -0.3150  0.7335 -0.4367
  278MOL0     H37504   9.244   8.330   6.724  1.2339 -1.1363  1.0097
  278MOL0     H37505   9.304   8.213   6.613  1.2984 -2.9660  0.9689
  278MOL0     H37506   9.000   8.204   6.672  0.9172  0.2760  0.4293
  278MOL0     H37507   9.088   8.133   6.537 -1.1273  0.7193 -1.6041
  278MOL0     H37508   9.163   8.354   6.460  0.6287 -0.1712  1.9561
  278MOL0     H37509   8.979   8.338   6.446 -1.5675  1.0883 -0.3925
  278MOL0     H37510   8.932   7.584   7.150  1.2790  2.1685  0.1244
  278MOL0     H37511   8.904   7.397   7.314 -0.5937  0.7075 -0.5821
  278MOL0     H37512   8.682   7.005   7.245 -0.7427  1.7703  1.4493
  278MOL0     H37513   8.616   6.798   7.359  0.4792  1.5728 -0.0705
  278MOL0     H37514   9.052   6.278   6.731 -1.7088  0.7593 -1.6912
  278MOL0     H37515   9.144   6.363   6.510 -1.2574  2.6908 -2.9514
  278MOL0     H37516   9.192   6.479   6.208  1.8125  0.8183  1.0556
  278MOL0     H37517   9.285   6.497   5.976 -0.2904  0.8700 -1.7537
  278MOL0     H37518   9.269   6.642   5.744 -0.0642 -1.6596  1.1476
  278MOL0     H37519   9.404   6.562   5.808 -0.5133  0.9837  0.2894
  278MOL0     H37520   9.458   6.830   5.676  1.4555  0.8651 -0.2435
  278MOL0     H37521   9.413   6.702   5.575 -1.9375 -2.4188  0.2340
  278MOL0     H37522   9.637   6.588   5.741  0.8972  1.9868  2.3315
  278MOL0     H37523   9.679   6.758   5.706  0.2720  0.7305 -0.8462
  278MOL0     H37524   9.757   6.597   5.536 -0.1432  1.1063 -0.1872
  278MOL0     H37525   9.587   6.565   5.485  1.1144 -2.7396  1.4984
  278MOL0     H37526   9.640   6.950   5.330 -2.3938 -0.4417 -0.0505
  278MOL0     H37527   9.305   6.914   6.022 -1.8981 -0.0082 -0.8717
  278MOL0     H37528   9.209   6.908   6.387 -1.7915  0.9279 -0.9032
  278MOL0     H37529   9.277   7.012   6.278 -1.1006  0.5826 -0.7999
  278MOL0     H37530   9.112   6.999   6.263  0.0178 -0.5631 -2.4472
  279MOL0     O37531   0.571   8.941   9.761 -0.6498 -0.1413 -0.7629
  279MOL0     C37532   0.533   8.992   9.863  0.7055 -0.8700 -0.7981
  279MOL0     O37533   0.554   8.934   9.987 -0.3898 -0.6102 -0.2202
  279MOL0     C37534   0.523   8.800   9.993  0.0930  0.8655  0.6638
  279MOL0     C37535   0.485   8.697   9.895  0.9731 -0.6545 -0.1429
  279MOL0     C37536   0.456   8.567   9.941 -0.2440  0.3677 -0.1822
  279MOL0     C37537   0.465   8.525  10.074 -0.0523 -0.0425 -0.6440
  279MOL0     O37538   0.432   8.395  10.107  1.0529 -0.4436 -0.4587
  279MOL0     C37539   0.473   8.334  10.230 -0.3577 -0.5567 -0.2303
  279MOL0     C37540   0.400   8.204  10.263 -0.9611 -0.9887 -0.4691
  279MOL0     C37541   0.426   8.161  10.409 -0.1275  1.2719  0.8855
  279MOL0     C37542   0.333   8.042  10.430  0.6899 -0.9323 -0.7559
  279MOL0     C37543   0.380   7.931  10.530 -0.7199 -0.3927 -0.1766
  279MOL0     C37544   0.281   7.827  10.579 -1.1599  0.2790  0.2144
  279MOL0     C37545   0.270   7.703  10.498  0.1415 -0.2344 -0.2781
  279MOL0     C37546   0.153   7.610  10.546 -0.3064  0.2421  0.5294
  279MOL0     N37547   0.163   7.490  10.461  1.3142  0.2134  0.7319
  279MOL0     C37548   0.235   7.378  10.496 -0.1323  0.2196  0.2959
  279MOL0     C37549   0.178   7.277  10.430  0.1975 -0.5178  0.0295
  279MOL0     C37550   0.183   7.122  10.443  0.5318  0.0896  0.4753
  279MOL0     C37551   0.313   7.058  10.403 -1.4022  0.4786 -0.2861
  279MOL0     C37552   0.402   7.044  10.524  0.2027 -0.4277 -0.3229
  279MOL0     C37553   0.551   7.010  10.481 -0.2153 -0.1654 -0.1246
  279MOL0     O37554   0.622   7.138  10.502  0.3865 -0.3858 -0.3017
  279MOL0     C37555   0.752   7.127  10.477 -0.8681 -1.1968 -1.2802
  279MOL0     C37556   0.839   7.048  10.556 -0.4180  1.0278  0.1814
  279MOL0     C37557   0.970   7.030  10.531 -0.8516 -0.9051  0.0614
  279MOL0     C37558   1.034   7.090  10.428 -0.4673 -0.3112  0.1761
  279MOL0     C37559   1.174   7.067  10.410 -0.5950  0.5687 -0.0117
  279MOL0     O37560   1.230   7.147  10.326 -0.1531 -0.7325  0.2126
  279MOL0     C37561   1.363   7.141  10.289  0.3998  0.8155  0.3612
  279MOL0     C37562   1.409   7.042  10.192  0.2604  1.1338 -0.4699
  279MOL0     C37563   1.542   7.025  10.165 -1.2079 -0.9366  0.2137
  279MOL0     C37564   1.634   7.110  10.224 -1.0708 -0.0360  0.0160
  279MOL0     O37565   1.771   7.108  10.196 -0.0749  0.2922 -0.1241
  279MOL0     C37566   1.833   6.988  10.160 -0.2937 -0.4209 -0.5106
  279MOL0     C37567   1.979   7.015  10.174 -0.8506 -0.0914  0.0977
  279MOL0     C37568   2.025   7.043  10.323  0.9864 -0.0002  0.6658
  279MOL0     C37569   1.988   6.924  10.420 -0.0848  0.3743  0.0199
  279MOL0     C37570   1.868   6.956  10.509  0.5827 -0.5832 -0.2391
  279MOL0     C37571   1.854   7.081  10.595 -0.0743 -0.2116 -0.8668
  279MOL0     C37572   1.729   7.074  10.683 -0.6510  0.5909 -0.3296
  279MOL0     C37573   1.728   7.192  10.779  0.4024  0.6710 -0.2279
  279MOL0    Cl37574   1.596   7.193  10.911  0.8738  0.0740 -0.5186
  279MOL0     C37575   1.591   7.193  10.335  0.8820 -0.7978  0.6957
  279MOL0     C37576   1.452   7.218  10.355  0.1790 -0.9480  0.8062
  279MOL0     O37577   1.224   6.967  10.466 -0.3112 -0.3651  0.3529
  279MOL0     C37578   0.961   7.189  10.359  0.2611 -0.3858  0.0693
  279MOL0     C37579   0.821   7.214  10.388  0.0228  0.0204  0.5493
  279MOL0     N37580   0.075   7.329  10.361 -0.2026 -0.0783  1.1616
  279MOL0     N37581   0.059   7.451  10.382  0.1890  0.7494  0.2858
  279MOL0     C37582   0.508   8.621  10.169 -0.0210 -0.3937 -0.3763
  279MOL0     C37583   0.542   8.758  10.127  0.4179 -0.2204 -0.2374
  279MOL0     C37584   0.466   9.129   9.856 -0.2359  0.4093 -0.3130
  279MOL0     C37585   0.445   9.191   9.979 -0.0716 -0.5904 -0.5450
  279MOL0     C37586   0.398   9.320   9.989 -0.3476 -0.9289  0.5661
  279MOL0     C37587   0.378   9.399   9.878 -0.1053 -0.7705  0.1847
  279MOL0     O37588   0.339   9.534   9.905 -0.1592  0.6208  0.6770
  279MOL0     C37589   0.410   9.636   9.826 -0.1908  0.1091  0.8198
  279MOL0     C37590   0.489   9.741   9.905  1.0856  0.9090  0.4193
  279MOL0     C37591   0.610   9.792   9.832 -0.1984 -0.8067  0.3072
  279MOL0     C37592   0.574   9.871   9.700 -1.1145  0.2685 -0.0152
  279MOL0     C37593   0.495   9.989   9.729  0.4769 -0.4249 -1.1781
  279MOL0     C37594   0.424  10.090   9.750  0.2918  0.1481 -1.1455
  279MOL0     C37595   0.405   9.348   9.757  0.9850  0.7455  0.3286
  279MOL0     C37596   0.439   9.213   9.740 -0.2660 -0.3459  0.2843
  279MOL0     C37597   0.443   9.150   9.601 -0.9654 -0.1196 -0.1283
  279MOL0     H37598   0.486   8.704   9.787 -0.9126 -3.8835 -0.4990
  279MOL0     H37599   0.428   8.487   9.873  0.5057  0.1206 -0.2107
  279MOL0     H37600   0.582   8.336  10.227 -0.2428  1.5857  2.0200
  279MOL0     H37601   0.450   8.400  10.315  2.8594  1.2558 -0.6448
  279MOL0     H37602   0.438   8.126  10.196  4.3358  0.8396 -0.0785
  279MOL0     H37603   0.294   8.216  10.238 -0.7507 -1.1446 -1.4614
  279MOL0     H37604   0.401   8.245  10.475  1.6080  1.7337  0.9883
  279MOL0     H37605   0.531   8.135  10.423  0.0510  0.6821 -1.1801
  279MOL0     H37606   0.240   8.089  10.462  0.6402  0.1254 -2.3459
  279MOL0     H37607   0.299   7.985  10.343  2.2885 -0.2706 -1.8863
  279MOL0     H37608   0.466   7.884  10.482 -0.1100  1.8057 -1.4224
  279MOL0     H37609   0.411   7.983  10.621  0.8267  0.7041 -1.2694
  279MOL0     H37610   0.314   7.801  10.680 -1.3274 -1.6192 -0.1834
  279MOL0     H37611   0.184   7.878  10.576 -1.0258  0.5035 -0.4928
  279MOL0     H37612   0.365   7.650  10.511 -0.0702 -0.7188 -0.6627
  279MOL0     H37613   0.232   7.719  10.397 -2.6268 -2.9441  0.1629
  279MOL0     H37614   0.143   7.593  10.654  2.8159  2.0959  1.2415
  279MOL0     H37615   0.054   7.651  10.525 -0.6288  0.7999  2.8508
  279MOL0     H37616   0.300   7.350  10.578 -1.9349 -4.2908  0.4956
  279MOL0     H37617   0.149   7.093  10.543 -3.6866  0.9182 -0.5266
  279MOL0     H37618   0.113   7.080  10.370  3.1738  1.1381 -2.9320
  279MOL0     H37619   0.304   6.956  10.366  2.4198  0.1879 -0.7768
  279MOL0     H37620   0.355   7.117  10.321  3.4474 -1.2958  0.5718
  279MOL0     H37621   0.368   6.955  10.576 -0.6199 -0.6692 -1.2363
  279MOL0     H37622   0.395   7.136  10.584 -1.5386 -0.1568 -0.8847
  279MOL0     H37623   0.563   6.975  10.379 -1.7158 -3.5755  0.7169
  279MOL0     H37624   0.596   6.940  10.552  0.4259 -3.1246 -3.2251
  279MOL0     H37625   0.796   6.988  10.635  1.8295 -3.7336 -1.7608
  279MOL0     H37626   1.034   6.982  10.605  0.3822  0.8216  0.1891
  279MOL0     H37627   1.339   6.991  10.127  0.5551  3.2178 -2.5739
  279MOL0     H37628   1.576   6.962  10.084 -0.7289  0.6229 -0.8397
  279MOL0     H37629   1.813   6.894  10.211  0.9589 -0.1164  0.5997
  279MOL0     H37630   1.816   6.979  10.052  2.8511 -2.1294 -0.9817
  279MOL0     H37631   2.044   6.938  10.133 -2.5000 -2.1041  1.0382
  279MOL0     H37632   2.002   7.110  10.125  0.6128  1.6043  3.6816
  279MOL0     H37633   2.132   7.066  10.317  1.6550 -2.9558 -3.7941
  279MOL0     H37634   1.977   7.131  10.367  1.2600 -1.5525  4.4871
  279MOL0     H37635   2.079   6.911  10.479  1.1406 -0.3766 -1.9190
  279MOL0     H37636   1.959   6.827  10.377 -5.8039 -0.3650  4.2821
  279MOL0     H37637   1.869   6.867  10.572  2.6108 -1.3986 -1.3122
  279MOL0     H37638   1.790   6.953  10.432  0.8563  2.0406 -0.6960
  279MOL0     H37639   1.935   7.084  10.668  1.3729 -0.6094 -2.4062
  279MOL0     H37640   1.846   7.169  10.531 -1.9796  0.5761  0.3372
  279MOL0     H37641   1.730   6.983  10.744 -1.4128 -0.7148 -2.1697
  279MOL0     H37642   1.640   7.073  10.621 -3.3958  1.4640  3.2442
  279MOL0     H37643   1.825   7.189  10.829  0.4077  0.6509 -0.2391
  279MOL0     H37644   1.725   7.286  10.724 -1.0381  0.4494 -0.5592
  279MOL0     H37645   1.663   7.251  10.392  1.1346  0.7516 -1.1235
  279MOL0     H37646   1.417   7.294  10.424  1.0373 -2.1601  2.6605
  279MOL0     H37647   1.008   7.242  10.276 -0.0369 -1.4194 -0.7724
  279MOL0     H37648   0.766   7.292  10.335 -0.4043 -1.0151 -0.5625
  279MOL0     H37649   0.530   8.594  10.272 -1.3228 -0.0608  0.0068
  279MOL0     H37650   0.558   8.830  10.207  0.3551 -0.1593 -0.2792
  279MOL0     H37651   0.473   9.138  10.070  1.6155  1.5959  0.3107
  279MOL0     H37652   0.401   9.359  10.091 -3.4521 -0.6670  0.6615
  279MOL0     H37653   0.345   9.682   9.751  0.6901 -0.3116 -0.2305
  279MOL0     H37654   0.481   9.573   9.771 -2.2534 -1.5625 -0.0260
  279MOL0     H37655   0.517   9.704  10.004 -2.1139 -1.0718  0.7247
  279MOL0     H37656   0.407   9.812   9.920 -0.2540  0.1216 -2.4552
  279MOL0     H37657   0.685   9.719   9.801  0.0804  0.0258 -1.0845
  279MOL0     H37658   0.665   9.861   9.897  1.7612 -2.5214  0.5836
  279MOL0     H37659   0.668   9.899   9.652 -0.9688 -2.2142 -1.3582
  279MOL0     H37660   0.517   9.806   9.633  0.9161 -0.3157 -1.2487
  279MOL0     H37661   0.340  10.156   9.752 -0.2800 -0.4871 -2.5056
  279MOL0     H37662   0.374   9.401   9.667  0.3129  0.6245  0.4814
  279MOL0     H37663   0.351   9.193   9.560  0.0897  2.3581 -0.0427
  279MOL0     H37664   0.523   9.188   9.538 -1.1794 -1.1250 -1.0428
  279MOL0     H37665   0.432   9.041   9.593  3.0963 -0.5522 -2.2813
  280MOL0     O37666   6.762  10.552   5.261  0.8456  0.0768 -0.3028
  280MOL0     C37667   6.687  10.470   5.207 -0.1058  0.1246  0.1611
  280MOL0     O37668   6.606  10.379   5.276  0.6499  0.5738 -0.2716
  280MOL0     C37669   6.580  10.402   5.408  0.1098  0.0842  0.1259
  280MOL0     C37670   6.563  10.291   5.494  0.0896  0.2063  0.0453
  280MOL0     C37671   6.531  10.316   5.629 -0.9845  0.4507 -0.4058
  280MOL0     C37672   6.497  10.449   5.674 -0.5473  0.7767  0.0501
  280MOL0     O37673   6.460  10.468   5.805 -0.4503 -0.1396  0.2453
  280MOL0     C37674   6.515  10.390   5.903  0.0544  0.2282  0.0635
  280MOL0     C37675   6.529  10.451   6.052  0.6950 -0.9695 -1.2965
  280MOL0     C37676   6.388  10.497   6.111 -0.4146  0.3528 -0.2154
  280MOL0     C37677   6.396  10.551   6.258  0.1013 -0.3516 -0.5616
  280MOL0     C37678   6.261  10.574   6.333  0.9958  0.1328 -0.1168
  280MOL0     C37679   6.186  10.447   6.378 -0.1920  0.6886 -0.3936
  280MOL0     C37680   6.045  10.479   6.434  0.0176 -0.0124  0.3003
  280MOL0     C37681   5.983  10.344   6.446  0.9316 -0.0812 -0.2804
  280MOL0     N37682   5.852  10.362   6.511 -0.1920 -0.0391 -0.0433
  280MOL0     C37683   5.800  10.467   6.584  0.2458  0.2152 -0.0462
  280MOL0     C37684   5.663  10.453   6.596  1.4817  0.5871 -0.0616
  280MOL0     C37685   5.586  10.563   6.662  0.3561 -0.5333 -0.2214
  280MOL0     C37686   5.622  10.600   6.807 -0.8615 -0.1596 -0.3824
  280MOL0     C37687   5.602  10.477   6.905 -0.2114  0.8741  0.2522
  280MOL0     C37688   5.610  10.520   7.051  0.5993 -1.0456  0.1372
  280MOL0     O37689   5.730  10.587   7.088 -0.4172 -0.1854 -0.6826
  280MOL0     C37690   5.723  10.671   7.187  0.0156  0.0415 -0.8487
  280MOL0     C37691   5.765  10.619   7.310 -0.6815  0.1626 -0.7513
  280MOL0     C37692   5.743  10.695   7.420 -0.4778  0.0264  0.6697
  280MOL0     C37693   5.700  10.834   7.414  0.4945  0.9743 -0.5789
  280MOL0     C37694   5.686  10.912   7.540 -0.8072  1.0139  0.1671
  280MOL0     O37695   5.654  10.839   7.656  0.2440  0.9716  1.2598
  280MOL0     C37696   5.650  10.890   7.778 -0.4725 -1.2826 -0.9306
  280MOL0     C37697   5.571  10.997   7.815  0.2680  0.7414  0.3224
  280MOL0     C37698   5.577  11.058   7.941  0.9130 -0.1742  0.2948
  280MOL0     C37699   5.671  11.013   8.045 -0.4260  1.2929  0.0765
  280MOL0     O37700   5.666  11.049   8.181 -0.0300 -0.5483 -0.3451
  280MOL0     C37701   5.574  11.148   8.237 -0.9778 -0.2947  0.8506
  280MOL0     C37702   5.571  11.156   8.390  0.1790  0.7994 -0.5378
  280MOL0     C37703   5.698  11.217   8.460  0.3210  0.9713 -0.2451
  280MOL0     C37704   5.678  11.204   8.610 -0.0207  0.4947  0.4503
  280MOL0     C37705   5.777  11.296   8.690 -0.0173 -0.6117 -0.3508
  280MOL0     C37706   5.934  11.252   8.680  0.9752 -0.4630  0.3876
  280MOL0     C37707   5.952  11.114   8.745  0.2022 -0.5394 -0.1504
  280MOL0     C37708   6.098  11.060   8.713  0.4912 -0.1119 -0.3841
  280MOL0    Cl37709   6.102  11.024   8.528  0.3173 -0.2572  0.0518
  280MOL0     C37710   5.759  10.908   8.002  1.0360 -0.1993  0.2428
  280MOL0     C37711   5.752  10.860   7.870 -0.9548  0.2579 -0.5360
  280MOL0     O37712   5.697  11.030   7.527 -0.8283  0.3023  0.5543
  280MOL0     C37713   5.656  10.876   7.294  0.4645 -0.9972 -0.3862
  280MOL0     C37714   5.665  10.798   7.182  0.7642 -0.5352  0.1419
  280MOL0     N37715   5.629  10.334   6.529  0.1801  0.2190 -0.3678
  280MOL0     N37716   5.744  10.284   6.491  0.2911  0.1967  0.5688
  280MOL0     C37717   6.501  10.556   5.588  0.2421 -0.2967  1.0806
  280MOL0     C37718   6.541  10.527   5.454  0.2042  0.0216 -0.2627
  280MOL0     C37719   6.682  10.478   5.064  0.8548 -0.1289  0.4537
  280MOL0     C37720   6.762  10.565   4.994 -0.1268 -0.0191  1.1011
  280MOL0     C37721   6.766  10.567   4.852  0.8378 -0.1443 -0.4632
  280MOL0     C37722   6.698  10.469   4.773  0.2509  0.2846 -0.1000
  280MOL0     O37723   6.720  10.457   4.633  0.5426  0.1440 -0.9338
  280MOL0     C37724   6.715  10.323   4.576  0.8804  0.2984 -0.0707
  280MOL0     C37725   6.695  10.335   4.430  0.1812  0.4185  0.3584
  280MOL0     C37726   6.833  10.369   4.365  0.5101 -0.3174  0.6353
  280MOL0     C37727   6.810  10.379   4.210  0.6503 -0.5496 -0.1783
  280MOL0     C37728   6.931  10.435   4.146  0.4250 -0.4301 -0.2182
  280MOL0     C37729   7.015  10.495   4.085 -1.2982 -0.1337 -0.3288
  280MOL0     C37730   6.615  10.387   4.840 -0.5471 -0.0663 -0.3946
  280MOL0     C37731   6.601  10.388   4.982  0.0040  0.4742 -0.4108
  280MOL0     C37732   6.502  10.277   5.030  0.6717  0.3227  0.0742
  280MOL0     H37733   6.593  10.197   5.450  1.4958  1.7454 -2.5297
  280MOL0     H37734   6.515  10.227   5.689  0.7260 -0.3228 -1.0182
  280MOL0     H37735   6.444  10.309   5.920  0.0863  0.7506  3.0917
  280MOL0     H37736   6.613  10.345   5.884  0.1932  0.3192  0.5554
  280MOL0     H37737   6.600  10.534   6.059 -1.1672  0.5830  0.6920
  280MOL0     H37738   6.584  10.378   6.112  2.4190  0.6825 -0.7815
  280MOL0     H37739   6.328  10.406   6.103  0.6568 -0.4525  0.5956
  280MOL0     H37740   6.338  10.566   6.042 -2.3077  0.4567  1.1896
  280MOL0     H37741   6.462  10.491   6.321 -1.2547 -1.6760 -0.3541
  280MOL0     H37742   6.442  10.650   6.258 -2.7320  1.1675  2.6499
  280MOL0     H37743   6.271  10.646   6.415 -1.2148  4.1325 -2.9858
  280MOL0     H37744   6.193  10.630   6.268 -0.1840 -3.2662 -2.0800
  280MOL0     H37745   6.188  10.370   6.300  0.8250  1.7790 -1.4913
  280MOL0     H37746   6.246  10.404   6.460 -1.4542 -3.3015 -1.3560
  280MOL0     H37747   5.986  10.549   6.373 -1.3376  1.1087  2.7677
  280MOL0     H37748   6.061  10.521   6.534 -0.4436 -1.4306  0.9861
  280MOL0     H37749   5.986  10.297   6.347  2.5665  0.5879 -0.5835
  280MOL0     H37750   6.040  10.285   6.518 -0.7335  0.5577  1.6884
  280MOL0     H37751   5.854  10.555   6.617  1.5696 -0.7902  0.5157
  280MOL0     H37752   5.608  10.653   6.604  2.2565 -1.7806 -1.5448
  280MOL0     H37753   5.478  10.552   6.648 -0.3304  1.0223  2.9912
  280MOL0     H37754   5.721  10.645   6.820 -0.9680  0.4442 -1.4807
  280MOL0     H37755   5.549  10.677   6.834 -0.3836  0.8924 -1.9656
  280MOL0     H37756   5.676  10.399   6.884 -1.9115 -0.9115  0.6304
  280MOL0     H37757   5.502  10.438   6.887  1.2710 -3.1427 -0.1515
  280MOL0     H37758   5.592  10.429   7.109 -0.8047  0.1172  1.6036
  280MOL0     H37759   5.526  10.583   7.079  1.2794 -1.5563  3.8952
  280MOL0     H37760   5.811  10.520   7.314 -1.7081 -0.2979  2.1370
  280MOL0     H37761   5.768  10.669   7.523 -0.9630 -4.6207 -0.1991
  280MOL0     H37762   5.503  11.025   7.735  2.3431  3.2055 -0.7345
  280MOL0     H37763   5.510  11.140   7.964 -1.5723 -1.3164 -2.2905
  280MOL0     H37764   5.614  11.245   8.207 -0.8426 -1.0568 -1.7171
  280MOL0     H37765   5.473  11.139   8.197 -0.3172 -3.0811 -0.4884
  280MOL0     H37766   5.489  11.226   8.405  1.4547  2.0823  0.7083
  280MOL0     H37767   5.552  11.058   8.436 -3.1665  1.9039  0.7326
  280MOL0     H37768   5.778  11.146   8.435 -0.3896  0.7076 -1.8694
  280MOL0     H37769   5.725  11.314   8.418 -1.4529  0.5795 -2.4814
  280MOL0     H37770   5.682  11.104   8.655  0.3234  0.3557  0.1138
  280MOL0     H37771   5.583  11.251   8.638 -0.0736 -0.6176  2.3091
  280MOL0     H37772   5.745  11.295   8.795 -3.3671  0.2830 -1.2311
  280MOL0     H37773   5.771  11.396   8.647  1.3254 -1.3596 -2.4417
  280MOL0     H37774   5.964  11.237   8.576 -1.9075  0.0454 -0.6090
  280MOL0     H37775   6.001  11.330   8.717  1.8891 -1.1720  0.2750
  280MOL0     H37776   5.885  11.039   8.701 -1.4981 -1.2458  3.2819
  280MOL0     H37777   5.931  11.117   8.852  2.3488 -0.8353  0.3228
  280MOL0     H37778   6.174  11.133   8.743  3.7173 -4.5094  3.4782
  280MOL0     H37779   6.116  10.972   8.774 -0.6268 -0.9062 -1.1590
  280MOL0     H37780   5.833  10.850   8.057  0.9575 -0.6510 -0.1219
  280MOL0     H37781   5.828  10.788   7.842 -1.0819 -0.9148  1.8312
  280MOL0     H37782   5.609  10.973   7.277 -1.5756 -2.1160 -1.5264
  280MOL0     H37783   5.634  10.841   7.087  1.5764  0.1687  0.1889
  280MOL0     H37784   6.469  10.654   5.621 -0.9044 -0.8560  1.7156
  280MOL0     H37785   6.560  10.623   5.406 -1.5119  0.3179 -0.3939
  280MOL0     H37786   6.831  10.636   5.039  0.3046  0.7656 -0.7207
  280MOL0     H37787   6.822  10.637   4.791 -0.7452  0.9189 -0.7580
  280MOL0     H37788   6.621  10.275   4.607 -0.2743  1.2076 -2.0268
  280MOL0     H37789   6.802  10.262   4.603  1.9009  2.0985  0.8333
  280MOL0     H37790   6.616  10.408   4.412 -1.4207 -1.3187  0.0271
  280MOL0     H37791   6.665  10.233   4.405  0.1605  0.2189  1.1589
  280MOL0     H37792   6.917  10.301   4.384 -0.6047 -1.0159  3.5207
  280MOL0     H37793   6.855  10.473   4.389 -2.0736  0.1569  1.1806
  280MOL0     H37794   6.795  10.284   4.158  1.6977  0.9249 -3.4582
  280MOL0     H37795   6.729  10.451   4.196 -0.5996 -1.6006  1.2928
  280MOL0     H37796   7.080  10.558   4.028  0.7274 -1.0729  0.8628
  280MOL0     H37797   6.534  10.335   4.791 -0.5855 -0.0588 -0.3386
  280MOL0     H37798   6.422  10.325   5.088  0.2267 -0.5777  0.2121
  280MOL0     H37799   6.457  10.230   4.943  1.0177 -0.0630  0.1037
  280MOL0     H37800   6.551  10.189   5.071  2.0873  1.1760  0.3096
  281MOL0     O37801  10.571  10.471   2.629  0.8348 -0.5503 -0.7257
  281MOL0     C37802  10.582  10.589   2.624  0.1984  0.6164  0.4398
  281MOL0     O37803  10.694  10.653   2.570  0.0089  0.6586  0.7109
  281MOL0     C37804  10.804  10.566   2.548  0.1628 -0.3564 -0.0377
  281MOL0     C37805  10.912  10.546   2.647 -0.4900  0.1874  0.0988
  281MOL0     C37806  11.027  10.484   2.608 -0.5701  0.6536  0.3986
  281MOL0     C37807  11.046  10.444   2.475 -0.8179  0.6359 -0.2043
  281MOL0     O37808  11.152  10.358   2.452  0.3203  0.1445 -0.3948
  281MOL0     C37809  11.246  10.363   2.335  0.5584 -0.0122  0.9635
  281MOL0     C37810  11.389  10.336   2.391  0.5230  0.1938 -0.8755
  281MOL0     C37811  11.451  10.457   2.470  0.3646  0.9502  0.4173
  281MOL0     C37812  11.497  10.567   2.372 -0.2719 -0.1796  0.2874
  281MOL0     C37813  11.547  10.693   2.444  0.7895  0.1782 -0.8461
  281MOL0     C37814  11.587  10.804   2.354  1.0666 -0.1251 -0.1999
  281MOL0     C37815  11.725  10.776   2.303  0.6332 -0.1149  0.9470
  281MOL0     C37816  11.757  10.828   2.160 -0.5123 -0.1115 -0.0165
  281MOL0     N37817  11.789  10.969   2.144  0.5191 -0.6722 -0.1006
  281MOL0     C37818  11.730  11.069   2.229 -0.3657  0.6071 -0.3520
  281MOL0     C37819  11.757  11.192   2.176  0.5337  0.5573  0.4323
  281MOL0     C37820  11.705  11.331   2.203  0.4829  0.3821 -1.2126
  281MOL0     C37821  11.795  11.393   2.321  0.1916  0.0017 -0.5093
  281MOL0     C37822  11.757  11.548   2.348 -0.3723  0.0713 -0.3809
  281MOL0     C37823  11.612  11.558   2.370  0.1824  0.1787 -0.1015
  281MOL0     O37824  11.576  11.688   2.428  0.1996  0.5320 -0.3324
  281MOL0     C37825  11.533  11.695   2.556  0.0416 -0.0012  0.5820
  281MOL0     C37826  11.594  11.787   2.626 -0.3783 -0.2921 -0.4351
  281MOL0     C37827  11.548  11.828   2.754 -0.0641  0.8392 -0.1403
  281MOL0     C37828  11.448  11.744   2.811  0.3443  0.1329 -0.5402
  281MOL0     C37829  11.408  11.765   2.949 -0.3619  0.2247  0.1327
  281MOL0     O37830  11.503  11.771   3.043 -0.0350 -0.5705  0.4607
  281MOL0     C37831  11.472  11.813   3.172  0.3044  0.7508  0.3238
  281MOL0     C37832  11.349  11.793   3.247  0.6867 -0.5776 -0.0258
  281MOL0     C37833  11.327  11.852   3.376  0.1637  1.0801 -0.8295
  281MOL0     C37834  11.427  11.942   3.421  0.6736  1.8983 -0.5329
  281MOL0     O37835  11.434  11.992   3.551 -0.0403  0.1892  0.2363
  281MOL0     C37836  11.400  11.899   3.652 -0.0735 -0.8279  0.2199
  281MOL0     C37837  11.418  11.971   3.780  0.0839  0.5165 -0.6158
  281MOL0     C37838  11.288  12.018   3.847  1.1850  0.8414 -0.6799
  281MOL0     C37839  11.187  11.911   3.882  1.0406  0.1351  0.0913
  281MOL0     C37840  11.065  11.963   3.958 -0.6456  0.6762  0.1983
  281MOL0     C37841  10.962  11.840   3.984 -0.4463  0.3385 -0.8309
  281MOL0     C37842  10.847  11.865   4.088 -0.3521  0.1889  0.4599
  281MOL0     C37843  10.759  11.979   4.035  0.1926  1.1245  0.0777
  281MOL0    Cl37844  10.645  11.955   3.896 -0.5197  0.3460 -0.0186
  281MOL0     C37845  11.539  11.972   3.342  0.8540  0.8086 -0.8125
  281MOL0     C37846  11.560  11.908   3.223  0.3222  0.0585  0.6605
  281MOL0     O37847  11.285  11.772   2.968 -0.3704 -0.2826  0.1747
  281MOL0     C37848  11.393  11.638   2.741  0.3194  0.7254  0.0252
  281MOL0     C37849  11.430  11.619   2.610 -0.0056 -0.1965  0.4115
  281MOL0     N37850  11.820  11.167   2.057 -0.9089  0.1944 -0.4963
  281MOL0     N37851  11.843  11.037   2.036  0.6879  0.3807  0.8634
  281MOL0     C37852  10.944  10.457   2.377  0.5383 -0.3055  0.1807
  281MOL0     C37853  10.830  10.533   2.412 -0.0127  0.2254  1.2651
  281MOL0     C37854  10.472  10.683   2.670 -0.3092 -0.1676 -0.1161
  281MOL0     C37855  10.496  10.825   2.679  0.3231 -0.5391  0.3744
  281MOL0     C37856  10.404  10.916   2.721  0.2920  0.4352 -0.3407
  281MOL0     C37857  10.285  10.872   2.768 -0.5327 -0.2480  0.5230
  281MOL0     O37858  10.200  10.969   2.821 -0.2389  0.5261  0.3339
  281MOL0     C37859  10.106  10.939   2.921 -1.1551  0.1669  0.7171
  281MOL0     C37860  10.056  11.058   2.992  0.1029 -0.9103  0.2353
  281MOL0     C37861  10.013  11.177   2.881 -0.2861  0.4089 -0.5650
  281MOL0     C37862   9.894  11.270   2.931  0.6224  0.9095  0.9917
  281MOL0     C37863   9.922  11.323   3.062  0.1306 -0.0836  1.0575
  281MOL0     C37864   9.948  11.364   3.171 -0.3054  0.2453 -0.2569
  281MOL0     C37865  10.255  10.736   2.762 -0.0399  0.5357 -0.6517
  281MOL0     C37866  10.342  10.647   2.706 -0.0685  0.6425 -0.3481
  281MOL0     C37867  10.295  10.495   2.702  0.7407  0.0685 -0.4396
  281MOL0     H37868  10.918  10.583   2.749  2.3838 -0.2234  0.1684
  281MOL0     H37869  11.103  10.471   2.684 -0.2972  0.4139  0.0820
  281MOL0     H37870  11.208  10.288   2.265 -1.8440  2.8056 -1.0090
  281MOL0     H37871  11.246  10.455   2.276 -0.0427  0.4382  1.6560
  281MOL0     H37872  11.461  10.301   2.316  0.6071 -1.3016 -0.1445
  281MOL0     H37873  11.374  10.252   2.460  0.7005  0.4839 -0.4829
  281MOL0     H37874  11.538  10.422   2.526  0.8649 -0.4241 -1.1400
  281MOL0     H37875  11.377  10.501   2.538 -0.9503  0.3454 -0.5675
  281MOL0     H37876  11.580  10.521   2.317 -1.8521 -0.8326 -1.6862
  281MOL0     H37877  11.418  10.585   2.299  1.2285 -2.1710 -2.0158
  281MOL0     H37878  11.463  10.723   2.507 -0.6853 -1.5951 -1.8624
  281MOL0     H37879  11.632  10.661   2.505 -0.1706  0.3214  0.6158
  281MOL0     H37880  11.522  10.799   2.267 -0.9803 -0.1235  1.2511
  281MOL0     H37881  11.597  10.900   2.407  1.9200 -0.9930  1.2914
  281MOL0     H37882  11.741  10.668   2.306 -0.7700 -0.3429  3.6688
  281MOL0     H37883  11.782  10.835   2.375  0.7378  1.0930 -0.0870
  281MOL0     H37884  11.826  10.763   2.106  0.1457 -1.0165  1.8383
  281MOL0     H37885  11.673  10.812   2.092 -1.7155 -0.6022  1.5359
  281MOL0     H37886  11.661  11.069   2.313  0.9282 -0.7801  0.7812
  281MOL0     H37887  11.700  11.396   2.115 -1.0691 -2.0877 -3.0789
  281MOL0     H37888  11.603  11.319   2.240  1.8448 -1.2246  2.6142
  281MOL0     H37889  11.782  11.337   2.414  0.1194 -1.0638 -1.1457
  281MOL0     H37890  11.899  11.378   2.292  0.5830 -0.3560  0.9696
  281MOL0     H37891  11.789  11.609   2.263  4.9206 -0.3987  0.9303
  281MOL0     H37892  11.821  11.576   2.432  1.6107 -1.3203 -1.3411
  281MOL0     H37893  11.588  11.478   2.440  1.4733  0.6279  0.9155
  281MOL0     H37894  11.558  11.542   2.276 -1.7453 -1.8776  1.2531
  281MOL0     H37895  11.666  11.851   2.577  0.2445 -1.4601 -1.0821
  281MOL0     H37896  11.581  11.913   2.812  2.0866 -1.4107  2.2105
  281MOL0     H37897  11.276  11.721   3.213 -0.6357 -0.6270  2.6172
  281MOL0     H37898  11.235  11.830   3.430 -0.1873 -0.5155 -2.0052
  281MOL0     H37899  11.295  11.871   3.649 -1.3778  3.4492 -0.3351
  281MOL0     H37900  11.458  11.806   3.639 -1.6022 -2.3532  3.2042
  281MOL0     H37901  11.470  11.909   3.854 -0.4235 -0.5354 -1.1141
  281MOL0     H37902  11.477  12.063   3.772  1.5087 -0.4151 -1.1729
  281MOL0     H37903  11.317  12.076   3.935  1.2510 -2.4707  1.6790
  281MOL0     H37904  11.228  12.076   3.777  0.8604 -1.7312 -2.6927
  281MOL0     H37905  11.244  11.837   3.940  1.9843  0.2982 -0.6295
  281MOL0     H37906  11.152  11.862   3.791 -0.0725  0.3857  0.3652
  281MOL0     H37907  11.024  12.040   3.892  1.5287 -0.2566 -2.4318
  281MOL0     H37908  11.103  12.016   4.046  0.4440  0.9228 -0.3908
  281MOL0     H37909  10.914  11.795   3.896 -3.4286 -2.4198  1.9249
  281MOL0     H37910  11.022  11.760   4.030 -1.0768  2.1473  3.6119
  281MOL0     H37911  10.894  11.887   4.184  0.4651  2.2871 -0.3657
  281MOL0     H37912  10.774  11.784   4.095 -1.1250  0.9549  1.5749
  281MOL0     H37913  10.699  12.015   4.119  0.7256 -1.2778  1.6003
  281MOL0     H37914  10.830  12.056   4.003  1.7922  0.1971  1.2516
  281MOL0     H37915  11.612  12.033   3.394 -1.4116  1.1575  2.2686
  281MOL0     H37916  11.658  11.920   3.179  0.4725  0.1505  1.0178
  281MOL0     H37917  11.312  11.571   2.770  0.7002 -0.3926 -1.4117
  281MOL0     H37918  11.381  11.536   2.560 -0.3287  0.1828  0.0809
  281MOL0     H37919  10.954  10.405   2.282 -1.3563 -3.5737  1.5979
  281MOL0     H37920  10.762  10.567   2.336  1.4806 -2.3306 -1.4254
  281MOL0     H37921  10.591  10.873   2.656 -0.5176  0.1146 -2.1247
  281MOL0     H37922  10.435  11.018   2.703 -0.0686  0.6073  0.0081
  281MOL0     H37923  10.152  10.871   2.992  0.4313  0.4790  0.0310
  281MOL0     H37924  10.025  10.898   2.859  1.1688  2.6944 -4.7251
  281MOL0     H37925  10.127  11.088   3.069 -1.6928 -3.8869  3.3410
  281MOL0     H37926   9.960  11.027   3.035 -2.4873  0.3398 -4.0836
  281MOL0     H37927   9.977  11.123   2.793  0.0849 -1.3483  0.3049
  281MOL0     H37928  10.104  11.234   2.865 -0.2526  0.1234 -1.4286
  281MOL0     H37929   9.878  11.336   2.846  0.7141 -2.3340 -1.7434
  281MOL0     H37930   9.805  11.206   2.936  0.7560  0.6375 -0.0068
  281MOL0     H37931   9.979  11.415   3.260 -2.4428  3.6563 -1.2686
  281MOL0     H37932  10.154  10.703   2.783  0.5862 -2.0231 -1.2200
  281MOL0     H37933  10.185  10.491   2.701  0.6743  1.3685 -2.0463
  281MOL0     H37934  10.330  10.425   2.626 -0.5488 -2.9234  1.5078
  281MOL0     H37935  10.316  10.451   2.800 -0.1072  3.7691  1.5830
  282MOL0     O37936   6.500   9.541   4.778  0.0400 -0.6786 -0.4320
  282MOL0     C37937   6.460   9.653   4.813  0.7331 -0.0293  0.3534
  282MOL0     O37938   6.498   9.729   4.925 -0.0537  0.3678  0.1391
  282MOL0     C37939   6.604   9.670   4.994 -0.2704  0.1058  0.7356
  282MOL0     C37940   6.589   9.601   5.115  0.0784 -0.6552  0.3463
  282MOL0     C37941   6.691   9.543   5.177 -0.1308 -0.5237 -0.1741
  282MOL0     C37942   6.818   9.537   5.127 -0.5059  0.0508  0.8354
  282MOL0     O37943   6.920   9.460   5.189 -0.2751 -0.5509  0.3451
  282MOL0     C37944   6.967   9.508   5.309 -0.0980 -0.5675 -0.7374
  282MOL0     C37945   7.086   9.593   5.313  0.6437  0.1857  0.4842
  282MOL0     C37946   7.062   9.739   5.273  0.7711  0.0058 -0.0862
  282MOL0     C37947   7.080   9.828   5.403  0.2112 -0.1546 -0.3060
  282MOL0     C37948   7.130   9.976   5.398 -1.6303 -0.2728  0.2284
  282MOL0     C37949   7.271   9.978   5.314  0.3766 -0.0242  0.5882
  282MOL0     C37950   7.359  10.094   5.341 -0.0035  0.0729  0.1829
  282MOL0     C37951   7.422  10.090   5.484  0.5455  0.6132 -0.4514
  282MOL0     N37952   7.466   9.956   5.534  1.0557 -0.5096 -0.1825
  282MOL0     C37953   7.575   9.889   5.483  0.0188 -0.4059 -0.7676
  282MOL0     C37954   7.564   9.767   5.538  0.4343  0.3348  1.5820
  282MOL0     C37955   7.659   9.657   5.496 -0.9688  0.5528  0.8041
  282MOL0     C37956   7.790   9.667   5.577 -0.4759  0.4893  1.9857
  282MOL0     C37957   7.787   9.626   5.723  0.1706 -0.7354  0.1048
  282MOL0     C37958   7.902   9.695   5.815 -0.8199 -0.0073  0.0981
  282MOL0     O37959   7.903   9.667   5.957 -0.4650 -0.7400 -0.6497
  282MOL0     C37960   7.995   9.730   6.039  1.0761 -0.0449  0.1468
  282MOL0     C37961   8.125   9.765   6.015  0.5189 -0.0727  1.0504
  282MOL0     C37962   8.203   9.830   6.101 -0.3016 -0.3355 -0.1456
  282MOL0     C37963   8.151   9.849   6.229 -0.6817 -0.7952  0.1901
  282MOL0     C37964   8.226   9.945   6.317  1.1549  0.4612 -0.0787
  282MOL0     O37965   8.164   9.968   6.442  0.1831 -0.4928  0.4114
  282MOL0     C37966   8.211  10.076   6.510  0.3926  0.4263  0.0126
  282MOL0     C37967   8.142  10.198   6.513 -0.9155  0.0935  0.3550
  282MOL0     C37968   8.208  10.300   6.573  1.0053 -0.2480  0.2183
  282MOL0     C37969   8.336  10.292   6.633 -0.4701 -1.0516 -0.0601
  282MOL0     O37970   8.367  10.413   6.693  0.1500 -0.3898  0.3320
  282MOL0     C37971   8.497  10.426   6.724 -0.3020  0.9713  0.9952
  282MOL0     C37972   8.579  10.422   6.592  0.2621  0.4446  0.5349
  282MOL0     C37973   8.537  10.508   6.467  0.0066  0.0720 -0.0864
  282MOL0     C37974   8.646  10.515   6.362 -0.1121  0.2406  0.2508
  282MOL0     C37975   8.591  10.562   6.224  0.0061 -0.1042 -0.2185
  282MOL0     C37976   8.705  10.579   6.123  0.0230 -1.3470  0.3685
  282MOL0     C37977   8.650  10.618   5.982  0.6264  0.6832  0.1506
  282MOL0     C37978   8.656  10.496   5.889 -0.0286  0.1799  1.1068
  282MOL0    Cl37979   8.530  10.383   5.930  0.2460 -0.0104 -0.0890
  282MOL0     C37980   8.386  10.164   6.647 -0.1738 -0.3418 -0.6124
  282MOL0     C37981   8.330  10.057   6.580 -0.2050 -0.3182 -0.2675
  282MOL0     O37982   8.327   9.998   6.276  0.3310 -0.3807 -0.0429
  282MOL0     C37983   8.017   9.817   6.263  0.4238  0.3482  0.2588
  282MOL0     C37984   7.939   9.753   6.172  0.4011  0.1020 -1.2633
  282MOL0     N37985   7.463   9.750   5.625 -0.1055 -0.1178  0.1110
  282MOL0     N37986   7.392   9.867   5.616 -0.5891 -0.2127  0.5065
  282MOL0     C37987   6.840   9.605   5.005  0.5025  0.1581  0.5075
  282MOL0     C37988   6.732   9.666   4.939  0.1902 -0.4438 -0.7157
  282MOL0     C37989   6.338   9.696   4.743  0.5022  0.2253  0.0435
  282MOL0     C37990   6.259   9.604   4.666  0.1226 -0.0856  0.2120
  282MOL0     C37991   6.145   9.654   4.589  0.2205 -0.0745 -0.2090
  282MOL0     C37992   6.111   9.795   4.595  1.0776  1.5222  0.6081
  282MOL0     O37993   6.005   9.851   4.537 -0.2978  0.3996  0.1384
  282MOL0     C37994   5.925   9.767   4.448  0.5738 -0.6361  0.1200
  282MOL0     C37995   5.797   9.846   4.401 -0.4797  0.3597  0.1424
  282MOL0     C37996   5.812   9.989   4.381 -1.1633 -0.0854  0.5204
  282MOL0     C37997   5.696  10.058   4.305 -0.0740  0.4865 -0.2936
  282MOL0     C37998   5.711  10.203   4.299 -0.1998 -0.5107 -0.4793
  282MOL0     C37999   5.729  10.322   4.322 -0.4307  0.7118  0.5437
  282MOL0     C38000   6.181   9.874   4.681  0.5670  0.1328 -0.6310
  282MOL0     C38001   6.287   9.830   4.759  0.5708 -0.0955  0.5982
  282MOL0     C38002   6.348   9.938   4.844  0.3828  0.2189  0.2235
  282MOL0     H38003   6.489   9.601   5.157  0.9103  1.5189  2.6020
  282MOL0     H38004   6.664   9.505   5.275  0.1244 -2.2767 -0.7492
  282MOL0     H38005   6.887   9.556   5.367  1.4364 -2.7592  3.6048
  282MOL0     H38006   6.996   9.426   5.375  0.2621 -0.8375 -1.2322
  282MOL0     H38007   7.161   9.546   5.249 -0.5568  0.8752 -1.5296
  282MOL0     H38008   7.137   9.587   5.410  1.9894 -2.0871 -0.2814
  282MOL0     H38009   6.967   9.761   5.223 -0.8033  0.6856  2.9833
  282MOL0     H38010   7.147   9.754   5.206  1.0696  0.7950  0.4536
  282MOL0     H38011   6.986   9.841   5.456 -0.3220 -0.1647 -1.2224
  282MOL0     H38012   7.149   9.783   5.476 -0.0249 -3.1213 -1.7634
  282MOL0     H38013   7.058  10.044   5.352  0.2151  1.0842 -0.7622
  282MOL0     H38014   7.145  10.006   5.502 -1.0203 -0.4962  0.2106
  282MOL0     H38015   7.332   9.891   5.338 -0.1369 -0.4145  0.4890
  282MOL0     H38016   7.245   9.984   5.208  0.7877 -3.6993  0.1396
  282MOL0     H38017   7.296  10.180   5.319 -0.7688 -1.2097 -3.2241
  282MOL0     H38018   7.445  10.098   5.273  0.9013 -0.2715  1.2597
  282MOL0     H38019   7.503  10.163   5.488 -0.4441  1.7238 -0.0114
  282MOL0     H38020   7.348  10.144   5.545  2.0147  0.5986  1.4479
  282MOL0     H38021   7.644   9.916   5.403 -1.3126 -4.4967 -3.6678
  282MOL0     H38022   7.609   9.562   5.520  1.6661 -1.5126 -1.1796
  282MOL0     H38023   7.672   9.666   5.388  2.7727  0.7308  1.1398
  282MOL0     H38024   7.869   9.614   5.523 -2.1785 -0.0359 -0.1659
  282MOL0     H38025   7.819   9.772   5.567 -1.1542  0.6084  1.0506
  282MOL0     H38026   7.816   9.521   5.720  1.9297 -0.2801 -0.0094
  282MOL0     H38027   7.689   9.646   5.769  0.2848 -0.3472  0.1863
  282MOL0     H38028   7.891   9.803   5.804  2.3559  0.2464 -1.7076
  282MOL0     H38029   8.002   9.668   5.780 -0.3430  1.1025  0.5628
  282MOL0     H38030   8.155   9.746   5.912 -1.3554  1.3469  0.1728
  282MOL0     H38031   8.301   9.868   6.078  0.1965 -2.4647 -1.9713
  282MOL0     H38032   8.047  10.215   6.464 -0.4345 -2.0789 -1.5289
  282MOL0     H38033   8.168  10.400   6.561  0.1333 -0.5175  0.7699
  282MOL0     H38034   8.519  10.520   6.774 -1.1787  2.1173 -0.6615
  282MOL0     H38035   8.523  10.344   6.791 -0.3086 -1.3256 -1.6223
  282MOL0     H38036   8.683  10.443   6.618 -0.5968  0.8849  4.1472
  282MOL0     H38037   8.582  10.318   6.559  2.0014 -0.2743  2.7172
  282MOL0     H38038   8.459  10.455   6.410  1.9663 -1.4039 -1.5749
  282MOL0     H38039   8.504  10.610   6.486  2.8947  1.3722 -1.3364
  282MOL0     H38040   8.707  10.426   6.344  0.7563  0.9243 -0.2477
  282MOL0     H38041   8.717  10.591   6.396 -2.3882  1.7374  2.0482
  282MOL0     H38042   8.537  10.655   6.241 -0.6458 -0.1888 -1.7055
  282MOL0     H38043   8.517  10.490   6.190  0.9690 -2.2075  1.8684
  282MOL0     H38044   8.766  10.667   6.148 -0.7401 -0.4198 -0.9100
  282MOL0     H38045   8.763  10.486   6.112  5.1849  1.3868  1.0253
  282MOL0     H38046   8.705  10.698   5.932  0.6297  0.3759 -0.3402
  282MOL0     H38047   8.544  10.645   5.993  0.2579  0.5217 -2.5389
  282MOL0     H38048   8.638  10.534   5.789 -1.7115 -0.4486  1.1472
  282MOL0     H38049   8.754  10.449   5.909 -0.2940 -0.6644  0.4729
  282MOL0     H38050   8.473  10.150   6.710 -1.1551  1.2512  1.1942
  282MOL0     H38051   8.356   9.952   6.586 -1.5319 -0.6886 -0.6520
  282MOL0     H38052   7.983   9.862   6.356  0.8629 -0.7270  0.9643
  282MOL0     H38053   7.834   9.734   6.192  0.6814 -0.0687  0.0985
  282MOL0     H38054   6.943   9.602   4.972  0.4077 -2.5518  0.1609
  282MOL0     H38055   6.748   9.716   4.844  1.8889 -1.5448 -1.0526
  282MOL0     H38056   6.282   9.500   4.646  2.2683  0.4606 -0.4432
  282MOL0     H38057   6.082   9.590   4.528  0.0799  1.5707 -1.8809
  282MOL0     H38058   5.892   9.674   4.495  0.7220 -1.0250 -0.5318
  282MOL0     H38059   5.983   9.741   4.360  0.4107 -4.2434  0.9514
  282MOL0     H38060   5.711   9.821   4.465 -0.4844 -0.1251 -0.0443
  282MOL0     H38061   5.767   9.793   4.310  4.0075 -1.8246 -0.3213
  282MOL0     H38062   5.888  10.000   4.303 -2.7241 -1.6969 -1.3184
  282MOL0     H38063   5.843  10.044   4.471 -3.0586 -1.1035  1.8393
  282MOL0     H38064   5.691  10.025   4.200 -0.8052 -0.9433  0.1607
  282MOL0     H38065   5.602  10.023   4.350  0.2886 -4.0366 -2.5175
  282MOL0     H38066   5.750  10.423   4.348  0.2610  0.8858 -0.6197
  282MOL0     H38067   6.139   9.974   4.687  0.8385  0.3085 -1.4521
  282MOL0     H38068   6.457   9.941   4.843  0.4789  0.5702  3.0842
  282MOL0     H38069   6.310  10.035   4.813 -0.6128 -0.0895  0.4190
  282MOL0     H38070   6.308   9.920   4.945  0.0638 -2.2810 -0.2702
  283MOL0     O38071   0.847   5.543   4.763 -0.4899  0.3760 -0.4910
  283MOL0     C38072   0.734   5.533   4.702 -0.2627 -0.0315 -0.8625
  283MOL0     O38073   0.680   5.631   4.622 -0.4862 -0.0161  0.6625
  283MOL0     C38074   0.752   5.741   4.580  0.1687  0.0988  0.1570
  283MOL0     C38075   0.690   5.856   4.548  0.3586  0.2914 -0.1896
  283MOL0     C38076   0.759   5.964   4.487 -0.2999  0.5974  0.7019
  283MOL0     C38077   0.902   5.956   4.473  0.0091 -0.1772  0.6617
  283MOL0     O38078   0.978   6.054   4.404  1.0580  0.4018  0.0757
  283MOL0     C38079   0.937   6.087   4.275  0.8040  0.8265 -0.8349
  283MOL0     C38080   1.057   6.074   4.179 -0.0661  0.1300  0.4943
  283MOL0     C38081   1.023   6.108   4.038 -0.7761 -0.2108 -0.0009
  283MOL0     C38082   1.140   6.108   3.947  0.4079 -1.2115  0.4769
  283MOL0     C38083   1.093   6.111   3.795 -0.3600 -0.0063 -0.6165
  283MOL0     C38084   1.212   6.127   3.689  0.5538 -0.9280 -0.7707
  283MOL0     C38085   1.145   6.144   3.550  0.1151  0.4680  0.1176
  283MOL0     C38086   1.255   6.152   3.438 -0.3576 -1.2014 -1.3176
  283MOL0     N38087   1.197   6.138   3.300  0.3265  0.2280 -0.1790
  283MOL0     C38088   1.103   6.037   3.270 -0.6520 -0.0034 -0.6596
  283MOL0     C38089   1.032   6.086   3.171  0.2512 -0.0579 -0.5568
  283MOL0     C38090   0.946   6.023   3.064 -0.2319  0.2616 -0.6989
  283MOL0     C38091   0.790   6.024   3.089  0.2362  0.3782  0.4461
  283MOL0     C38092   0.735   5.928   3.183  0.5621  0.3614  0.6276
  283MOL0     C38093   0.600   5.970   3.245 -0.4038 -0.1582  0.3100
  283MOL0     O38094   0.559   5.876   3.342  0.1615 -0.9292 -1.0615
  283MOL0     C38095   0.429   5.884   3.384  0.6634 -0.0162  0.1786
  283MOL0     C38096   0.376   5.760   3.430  0.0847  0.3711  0.2179
  283MOL0     C38097   0.245   5.745   3.467 -0.5666  0.3277 -0.0833
  283MOL0     C38098   0.156   5.845   3.445  0.4361 -0.6220  0.7603
  283MOL0     C38099   0.009   5.828   3.488  0.4624 -0.6773  0.5261
  283MOL0     O38100  -0.040   5.703   3.519 -0.3550 -0.2637 -0.6248
  283MOL0     C38101  -0.177   5.684   3.529 -0.3513  0.2929  1.3446
  283MOL0     C38102  -0.277   5.734   3.434  0.2223  0.2783  0.0055
  283MOL0     C38103  -0.415   5.698   3.457 -0.4231 -0.4164 -1.1794
  283MOL0     C38104  -0.454   5.612   3.562 -0.1158  0.8360 -0.1204
  283MOL0     O38105  -0.582   5.568   3.552 -0.3288  0.7336 -0.3563
  283MOL0     C38106  -0.625   5.489   3.673  0.2898  0.5681  0.7672
  283MOL0     C38107  -0.664   5.569   3.796 -0.6790  0.2434 -0.5545
  283MOL0     C38108  -0.757   5.693   3.772 -0.2493  1.1619 -0.6507
  283MOL0     C38109  -0.892   5.644   3.713 -0.1678  0.4107  1.1708
  283MOL0     C38110  -0.978   5.769   3.688  0.3065  0.2446  1.0505
  283MOL0     C38111  -1.102   5.753   3.602  0.0767 -1.0176  0.3168
  283MOL0     C38112  -1.196   5.648   3.653 -0.6957  0.1449  0.6599
  283MOL0     C38113  -1.317   5.635   3.563  0.2895 -0.7119  0.0482
  283MOL0    Cl38114  -1.452   5.728   3.631 -0.3363 -0.1029 -0.4486
  283MOL0     C38115  -0.353   5.570   3.653  0.0047  0.3347  0.0695
  283MOL0     C38116  -0.219   5.612   3.638  0.1395 -0.0757  0.6707
  283MOL0     O38117  -0.059   5.931   3.487 -0.0293 -0.3409  0.2467
  283MOL0     C38118   0.203   5.964   3.395 -0.3919 -0.7303 -0.9181
  283MOL0     C38119   0.337   5.992   3.365  0.0614 -0.6172 -0.1605
  283MOL0     N38120   1.053   6.215   3.171 -0.9136 -0.3818 -0.7102
  283MOL0     N38121   1.159   6.243   3.236  1.1142 -0.2082 -0.3609
  283MOL0     C38122   0.963   5.842   4.508 -0.3274 -0.6291  0.1201
  283MOL0     C38123   0.894   5.734   4.557 -0.2227 -0.1798 -0.9144
  283MOL0     C38124   0.649   5.412   4.730  0.6924  0.0634 -0.2610
  283MOL0     C38125   0.685   5.330   4.844 -0.7348  0.0366  0.2464
  283MOL0     C38126   0.619   5.204   4.861 -0.1541  0.2207  0.3124
  283MOL0     C38127   0.507   5.177   4.774  0.7365  0.2681 -0.8053
  283MOL0     O38128   0.432   5.058   4.783  0.3816 -0.4154 -0.2846
  283MOL0     C38129   0.307   5.034   4.721 -0.5672  0.2615  1.0506
  283MOL0     C38130   0.315   4.951   4.588 -0.1292  0.1650  0.0041
  283MOL0     C38131   0.386   4.819   4.594  0.5841  0.3119  0.6025
  283MOL0     C38132   0.287   4.721   4.666  0.3071 -1.0445 -1.0390
  283MOL0     C38133   0.202   4.656   4.572 -1.0375 -0.1929  0.1462
  283MOL0     C38134   0.109   4.595   4.520  0.0677  0.4707  0.3367
  283MOL0     C38135   0.472   5.260   4.669  0.2577 -1.0281  0.0171
  283MOL0     C38136   0.539   5.383   4.642 -0.0347  0.3998 -0.9102
  283MOL0     C38137   0.482   5.461   4.520 -0.1798 -0.5791 -0.0717
  283MOL0     H38138   0.583   5.866   4.568  0.2520 -0.4221 -0.3448
  283MOL0     H38139   0.707   6.053   4.452 -2.6708 -1.2636 -0.7840
  283MOL0     H38140   0.842   6.042   4.242  0.4681 -1.7579  3.0421
  283MOL0     H38141   0.917   6.194   4.265  4.3082  1.5882 -1.0085
  283MOL0     H38142   1.093   5.970   4.182  1.0127  0.4758 -0.1325
  283MOL0     H38143   1.134   6.139   4.220 -1.1308  0.0706  2.7677
  283MOL0     H38144   0.966   6.202   4.034 -0.3593  0.0123 -2.7068
  283MOL0     H38145   0.949   6.035   4.004 -1.8107  0.7838  0.0217
  283MOL0     H38146   1.199   6.200   3.962 -2.8022  1.2262 -0.6356
  283MOL0     H38147   1.209   6.025   3.963 -0.0935 -1.6214  0.5222
  283MOL0     H38148   1.028   6.026   3.774 -0.6728  0.2829 -0.8159
  283MOL0     H38149   1.019   6.191   3.789 -0.6434  0.0713  2.2727
  283MOL0     H38150   1.275   6.213   3.712 -4.5585  3.1099  0.1171
  283MOL0     H38151   1.274   6.037   3.693 -0.9794 -2.0614 -1.3802
  283MOL0     H38152   1.080   6.233   3.548 -0.1558  0.2640 -1.3184
  283MOL0     H38153   1.079   6.059   3.528  0.4509  0.0817  0.5906
  283MOL0     H38154   1.323   6.235   3.460 -1.3108 -1.0703  1.6383
  283MOL0     H38155   1.334   6.077   3.446  2.1306  1.1863 -1.9767
  283MOL0     H38156   1.105   5.934   3.303 -3.2688 -0.3702 -1.4145
  283MOL0     H38157   0.980   6.070   2.972  2.5709  0.0821  0.1699
  283MOL0     H38158   0.984   5.921   3.067  2.5054  1.2332  0.5649
  283MOL0     H38159   0.764   6.122   3.130 -1.8475 -0.6265  1.7072
  283MOL0     H38160   0.744   6.011   2.990  4.1640  3.7476 -2.1779
  283MOL0     H38161   0.807   5.924   3.265  0.9872  0.2258  0.2521
  283MOL0     H38162   0.706   5.831   3.141 -0.9524  0.2583  1.8101
  283MOL0     H38163   0.517   5.966   3.174  0.2047 -1.3230 -0.3617
  283MOL0     H38164   0.607   6.062   3.305 -0.2577 -1.1937  1.9356
  283MOL0     H38165   0.447   5.679   3.426  0.8360  0.9729  0.9253
  283MOL0     H38166   0.205   5.651   3.502 -2.1308  1.4135  1.2391
  283MOL0     H38167  -0.256   5.785   3.341  3.1313 -2.9564 -1.3431
  283MOL0     H38168  -0.477   5.735   3.376  1.7674  0.4888 -2.5359
  283MOL0     H38169  -0.704   5.421   3.641 -0.5240  0.2069  3.2819
  283MOL0     H38170  -0.546   5.420   3.702 -0.7467 -1.1247 -0.3069
  283MOL0     H38171  -0.707   5.497   3.866  1.8546 -0.9159 -0.0775
  283MOL0     H38172  -0.572   5.600   3.846 -2.5060 -0.2231  3.4207
  283MOL0     H38173  -0.765   5.743   3.869  1.8569 -0.6660  0.5650
  283MOL0     H38174  -0.702   5.757   3.702  1.3763 -0.7064 -1.1848
  283MOL0     H38175  -0.950   5.585   3.784 -0.3501  1.9478  2.3429
  283MOL0     H38176  -0.879   5.600   3.614 -0.7169  1.4181  0.6349
  283MOL0     H38177  -0.917   5.846   3.640  1.1727  0.1327  1.9362
  283MOL0     H38178  -1.003   5.821   3.780  2.0631 -0.3792  1.9332
  283MOL0     H38179  -1.158   5.847   3.608 -2.3588 -1.9581 -3.8631
  283MOL0     H38180  -1.068   5.735   3.499 -0.9535 -0.1687 -0.1809
  283MOL0     H38181  -1.228   5.643   3.757  2.6624 -4.0849  1.7576
  283MOL0     H38182  -1.133   5.559   3.656 -1.6228 -0.5347  3.4059
  283MOL0     H38183  -1.297   5.672   3.462 -1.9555  2.5463  0.6392
  283MOL0     H38184  -1.369   5.539   3.564 -3.6859  1.2332  0.9892
  283MOL0     H38185  -0.370   5.517   3.746 -0.1780 -0.7418 -0.5534
  283MOL0     H38186  -0.144   5.580   3.709 -0.3226 -0.3616  1.0342
  283MOL0     H38187   0.133   6.043   3.368 -0.0654 -0.5278 -1.1804
  283MOL0     H38188   0.373   6.082   3.316 -0.5528 -0.7602 -0.8944
  283MOL0     H38189   1.071   5.837   4.501 -0.1320  1.5475  0.8401
  283MOL0     H38190   0.951   5.643   4.573 -0.7272 -0.2774  0.4981
  283MOL0     H38191   0.785   5.347   4.882  0.1329  3.3651 -3.0049
  283MOL0     H38192   0.660   5.123   4.921 -1.8363 -2.5231 -1.9663
  283MOL0     H38193   0.251   5.126   4.701 -4.7027 -2.6812 -2.7636
  283MOL0     H38194   0.260   4.972   4.799 -0.1925  1.1242  1.9907
  283MOL0     H38195   0.374   5.009   4.517  3.7101 -3.8815 -0.5197
  283MOL0     H38196   0.215   4.935   4.548  0.4229  0.3832 -1.5066
  283MOL0     H38197   0.490   4.830   4.627  0.9245 -1.0707  0.0406
  283MOL0     H38198   0.395   4.783   4.491 -1.1992  0.6914  0.2806
  283MOL0     H38199   0.335   4.636   4.715 -2.6953 -1.5806  1.3239
  283MOL0     H38200   0.228   4.770   4.744 -0.5303 -2.2591 -0.8782
  283MOL0     H38201   0.017   4.557   4.482  0.3168 -0.0489  0.2534
  283MOL0     H38202   0.392   5.244   4.597  0.9002 -0.2779 -0.8949
  283MOL0     H38203   0.409   5.541   4.538  0.1198 -0.4653  0.7019
  283MOL0     H38204   0.562   5.508   4.463 -1.6587  1.0331 -0.9206
  283MOL0     H38205   0.425   5.405   4.445 -2.7094  0.4060  1.0031
  284MOL0     O38206   4.291   6.669   5.930  0.4934  0.2550 -0.3653
  284MOL0     C38207   4.312   6.762   6.010  0.5496  0.1119  0.4633
  284MOL0     O38208   4.215   6.817   6.090 -0.1262  0.7868 -0.2794
  284MOL0     C38209   4.094   6.753   6.082 -0.4456 -0.5510 -1.4012
  284MOL0     C38210   3.978   6.836   6.049 -0.0417  0.3060 -0.8708
  284MOL0     C38211   3.853   6.780   6.074  0.9330  0.9899 -0.6607
  284MOL0     C38212   3.837   6.641   6.111  0.1896 -0.7976 -0.2731
  284MOL0     O38213   3.708   6.594   6.131  0.3685  0.1258 -0.4085
  284MOL0     C38214   3.620   6.688   6.208  0.2133 -0.5775  0.1109
  284MOL0     C38215   3.505   6.618   6.287  0.7284  0.4262 -1.4244
  284MOL0     C38216   3.565   6.542   6.406 -0.1302 -0.4826  0.7658
  284MOL0     C38217   3.468   6.506   6.519  0.4947 -0.2715  0.3022
  284MOL0     C38218   3.541   6.454   6.639 -0.3107 -0.0278  0.0295
  284MOL0     C38219   3.443   6.419   6.749  0.3709  0.3699  0.5384
  284MOL0     C38220   3.503   6.361   6.872  0.1941  0.3318 -0.0320
  284MOL0     C38221   3.400   6.314   6.978  0.0852 -0.4873  0.0306
  284MOL0     N38222   3.473   6.257   7.090 -0.7608  0.1267  0.7878
  284MOL0     C38223   3.453   6.127   7.125 -0.5628  0.0787  1.0916
  284MOL0     C38224   3.483   6.112   7.251  0.6255 -0.7775  0.5780
  284MOL0     C38225   3.492   5.986   7.342 -0.0161  0.8228 -0.6958
  284MOL0     C38226   3.379   5.952   7.448  0.6021 -1.0939 -0.1914
  284MOL0     C38227   3.381   5.818   7.522  0.3179  0.0699  0.0517
  284MOL0     C38228   3.511   5.789   7.599 -0.7226 -1.3576 -0.1502
  284MOL0     O38229   3.514   5.867   7.719 -0.4452  0.2373 -0.1798
  284MOL0     C38230   3.605   5.852   7.815 -0.3107 -0.7043  0.0542
  284MOL0     C38231   3.623   5.967   7.889  0.5973  0.7083  1.1822
  284MOL0     C38232   3.700   5.970   8.004 -0.3865  0.1355 -0.2945
  284MOL0     C38233   3.778   5.856   8.037 -0.4225  0.1306 -0.0291
  284MOL0     C38234   3.883   5.861   8.143 -0.5700  0.4835 -0.2374
  284MOL0     O38235   3.899   5.976   8.208  0.7826  0.0359  0.2019
  284MOL0     C38236   3.968   5.995   8.326 -0.0969  0.2870 -0.0428
  284MOL0     C38237   4.114   6.006   8.327  0.3248 -0.2534  1.1901
  284MOL0     C38238   4.185   6.048   8.435  0.1937  0.4549 -0.3346
  284MOL0     C38239   4.112   6.072   8.563 -0.3190 -0.1483 -0.3082
  284MOL0     O38240   4.191   6.104   8.674  0.6631 -0.1337  0.5189
  284MOL0     C38241   4.142   6.093   8.806  0.3071  0.0140 -0.2931
  284MOL0     C38242   4.133   5.943   8.835 -0.2555  0.2432  0.4867
  284MOL0     C38243   4.137   5.890   8.982 -0.5284  0.0035 -0.4175
  284MOL0     C38244   4.091   5.746   8.998  0.2065 -0.1558  0.9939
  284MOL0     C38245   4.047   5.718   9.144 -0.2733  0.7676 -0.0544
  284MOL0     C38246   3.972   5.588   9.144 -0.5145 -0.3523 -0.5142
  284MOL0     C38247   3.934   5.552   9.289 -0.2568  0.9187  0.0815
  284MOL0     C38248   3.801   5.621   9.321  0.1963  0.5126  0.2163
  284MOL0    Cl38249   3.816   5.797   9.351  0.5544  0.1206  0.4053
  284MOL0     C38250   3.973   6.056   8.555  0.1638 -0.3803  0.7063
  284MOL0     C38251   3.896   6.021   8.444 -0.1689  0.7996 -0.7104
  284MOL0     O38252   3.939   5.757   8.179 -0.0065  0.4334  1.2694
  284MOL0     C38253   3.774   5.745   7.952  1.2571 -0.1962  0.2412
  284MOL0     C38254   3.684   5.743   7.835  0.1774  0.5057 -1.0224
  284MOL0     N38255   3.502   6.245   7.295  0.2854  1.0790  0.6228
  284MOL0     N38256   3.505   6.325   7.200  0.7115  0.1704  0.2714
  284MOL0     C38257   3.950   6.563   6.126 -0.4732  1.0101  0.2162
  284MOL0     C38258   4.083   6.615   6.110  0.3640  0.4147  0.4018
  284MOL0     C38259   4.427   6.856   5.975  0.3918  0.0652  0.2915
  284MOL0     C38260   4.433   6.982   6.035 -0.0303 -0.4231 -0.3670
  284MOL0     C38261   4.537   7.080   5.998 -0.4450  0.1839  0.5393
  284MOL0     C38262   4.630   7.052   5.897 -0.6267 -0.8872 -0.6453
  284MOL0     O38263   4.727   7.151   5.872  0.0955 -0.4313  0.4122
  284MOL0     C38264   4.820   7.126   5.767  0.3365  0.8901  0.7054
  284MOL0     C38265   4.929   7.223   5.747  0.4119 -0.6298  0.2650
  284MOL0     C38266   5.035   7.163   5.668  0.0489  0.0961  0.6352
  284MOL0     C38267   5.158   7.249   5.645  1.0116  0.7337  0.1087
  284MOL0     C38268   5.231   7.262   5.767  0.1089  0.5478  0.5494
  284MOL0     C38269   5.294   7.275   5.869 -0.0753  1.0637 -0.0877
  284MOL0     C38270   4.611   6.931   5.829 -0.1186 -0.7404  0.0459
  284MOL0     C38271   4.522   6.834   5.871  0.1337 -0.0988  0.0551
  284MOL0     C38272   4.552   6.699   5.809 -0.2223  0.6596  0.3364
  284MOL0     H38273   3.997   6.943   6.050 -0.1611  0.5911  5.2161
  284MOL0     H38274   3.766   6.845   6.063  0.3743  0.1647 -1.3121
  284MOL0     H38275   3.679   6.750   6.277 -0.9708  0.0368  0.5912
  284MOL0     H38276   3.573   6.741   6.125  1.9312  0.0672 -0.5075
  284MOL0     H38277   3.448   6.549   6.223 -0.2071 -0.1529 -0.0228
  284MOL0     H38278   3.437   6.694   6.326  0.2376 -0.4455 -0.5536
  284MOL0     H38279   3.645   6.606   6.446  2.4636 -2.3194 -1.1299
  284MOL0     H38280   3.613   6.453   6.365  0.8718  0.5995 -0.4922
  284MOL0     H38281   3.401   6.585   6.552 -2.9719 -2.4227 -0.9862
  284MOL0     H38282   3.407   6.425   6.478 -2.4495  2.1750 -0.4829
  284MOL0     H38283   3.606   6.371   6.607 -0.0717  1.5737 -4.2239
  284MOL0     H38284   3.614   6.531   6.669  0.2451  0.6983 -2.8963
  284MOL0     H38285   3.390   6.513   6.769  0.5127  0.9411 -1.4710
  284MOL0     H38286   3.375   6.348   6.701  3.5500 -1.2963 -1.8900
  284MOL0     H38287   3.564   6.439   6.919  0.1748  0.2250  0.1678
  284MOL0     H38288   3.574   6.285   6.837 -0.1659  0.1664 -0.4065
  284MOL0     H38289   3.332   6.385   7.026 -3.5913 -4.4842  1.3915
  284MOL0     H38290   3.340   6.231   6.940 -3.3304  0.8117  2.0974
  284MOL0     H38291   3.422   6.048   7.058  0.6383  0.6176 -0.1623
  284MOL0     H38292   3.483   5.894   7.284  0.4289 -0.1018  0.6654
  284MOL0     H38293   3.597   5.983   7.370  0.6769 -0.5486 -3.0952
  284MOL0     H38294   3.372   6.036   7.518  1.8373 -0.7019 -0.5191
  284MOL0     H38295   3.276   5.954   7.410  0.6544 -0.9357 -0.3263
  284MOL0     H38296   3.368   5.738   7.449 -3.4350  0.6605 -0.0985
  284MOL0     H38297   3.299   5.815   7.594  1.4444 -1.3409  1.3491
  284MOL0     H38298   3.592   5.830   7.538 -1.5982 -0.8131 -0.9773
  284MOL0     H38299   3.529   5.684   7.622  1.7989 -0.5819  1.9644
  284MOL0     H38300   3.564   6.050   7.853 -0.7017 -0.9567 -0.7648
  284MOL0     H38301   3.701   6.067   8.053  1.3505 -0.4512  0.9250
  284MOL0     H38302   4.172   5.998   8.236  0.5614  2.8646  0.9818
  284MOL0     H38303   4.289   6.078   8.435 -0.4955  3.2646  1.8130
  284MOL0     H38304   4.201   6.139   8.885 -0.1472 -0.2781  0.2286
  284MOL0     H38305   4.042   6.138   8.805  0.1425 -0.2577 -3.0208
  284MOL0     H38306   4.047   5.898   8.785  1.6841 -1.4341 -1.5893
  284MOL0     H38307   4.222   5.894   8.794 -0.3904  0.5607 -0.1820
  284MOL0     H38308   4.238   5.901   9.024  1.0901 -1.2144 -3.6241
  284MOL0     H38309   4.067   5.949   9.042 -1.0516 -2.5637  1.7059
  284MOL0     H38310   4.170   5.673   8.976 -0.9937 -1.2326  0.0972
  284MOL0     H38311   4.011   5.719   8.928  0.7238 -1.4144  0.8557
  284MOL0     H38312   3.997   5.804   9.191  0.7589  0.0572  2.5521
  284MOL0     H38313   4.132   5.709   9.212 -1.5529  0.3225  1.5550
  284MOL0     H38314   3.883   5.596   9.080  0.1438 -1.0308 -1.5302
  284MOL0     H38315   4.035   5.517   9.090 -2.5296 -0.3655 -3.0695
  284MOL0     H38316   4.014   5.578   9.359  0.9366 -2.5546  0.1881
  284MOL0     H38317   3.917   5.445   9.303  0.9228  0.1283 -3.4256
  284MOL0     H38318   3.724   5.614   9.244 -1.2789 -1.5524  1.7680
  284MOL0     H38319   3.754   5.574   9.408 -1.5892  1.8388  0.0279
  284MOL0     H38320   3.919   6.065   8.648 -1.3477 -2.9290  0.1515
  284MOL0     H38321   3.788   6.024   8.454  0.0010  4.6528  1.8797
  284MOL0     H38322   3.826   5.654   7.981 -0.4522 -0.8566  1.3656
  284MOL0     H38323   3.660   5.659   7.770 -0.9231  0.7144 -0.9042
  284MOL0     H38324   3.933   6.460   6.156 -3.0950  0.7131 -1.8517
  284MOL0     H38325   4.163   6.543   6.126  0.5402  1.1333  3.2304
  284MOL0     H38326   4.356   7.018   6.102 -0.9998 -0.8222 -1.2535
  284MOL0     H38327   4.552   7.173   6.051  1.1085 -0.7751  1.8852
  284MOL0     H38328   4.759   7.126   5.676  2.9660  0.4090 -1.1690
  284MOL0     H38329   4.853   7.022   5.768 -1.7103  0.0366 -2.7235
  284MOL0     H38330   4.962   7.262   5.844 -0.2983  1.5954 -0.3302
  284MOL0     H38331   4.904   7.316   5.695  0.8785 -1.2229 -1.0680
  284MOL0     H38332   4.997   7.154   5.566 -3.7104  0.4309  1.8594
  284MOL0     H38333   5.059   7.066   5.713  1.2290 -0.4583 -1.0960
  284MOL0     H38334   5.220   7.196   5.571 -0.1588  0.4080 -0.6579
  284MOL0     H38335   5.121   7.347   5.615  0.2902  0.4002 -0.1025
  284MOL0     H38336   5.337   7.279   5.967 -0.0553 -0.8358  0.0008
  284MOL0     H38337   4.677   6.901   5.749  0.4789 -1.3209  0.7449
  284MOL0     H38338   4.656   6.683   5.840 -0.2260 -1.3504 -0.5724
  284MOL0     H38339   4.492   6.614   5.840  3.1731 -2.9206 -1.9205
  284MOL0     H38340   4.534   6.711   5.701 -3.9020 -2.6930  0.3528
  285MOL0     O38341  10.417   2.493  10.997 -0.0618 -0.7702 -0.1968
  285MOL0     C38342  10.380   2.522  11.116 -0.1613 -0.0759 -0.0977
  285MOL0     O38343  10.301   2.437  11.192 -0.3425 -0.6785  0.2172
  285MOL0     C38344  10.273   2.311  11.152 -0.0394  0.4679 -0.0974
  285MOL0     C38345  10.261   2.226  11.258 -0.2970 -0.4925  0.7419
  285MOL0     C38346  10.215   2.092  11.240  1.4032 -1.0164 -0.2644
  285MOL0     C38347  10.194   2.045  11.117  0.4786 -0.1090  1.1005
  285MOL0     O38348  10.140   1.924  11.103  0.0187 -0.2621 -0.3899
  285MOL0     C38349  10.073   1.880  10.984  0.5653  0.0763 -0.5194
  285MOL0     C38350  10.076   1.731  10.965  0.2499  0.6641 -0.1272
  285MOL0     C38351   9.971   1.687  10.856 -0.0131  0.8571 -0.6664
  285MOL0     C38352  10.008   1.740  10.715 -0.0342 -1.1307 -0.1231
  285MOL0     C38353   9.966   1.662  10.586 -0.7120 -0.7322 -0.6322
  285MOL0     C38354  10.018   1.519  10.589  0.7382  0.3729 -0.2213
  285MOL0     C38355   9.980   1.443  10.462 -1.2717 -0.6918 -0.2981
  285MOL0     C38356  10.100   1.445  10.372  0.6784 -0.2523 -0.1534
  285MOL0     N38357  10.115   1.570  10.310 -1.1425 -0.2296 -0.4727
  285MOL0     C38358  10.232   1.648  10.312 -0.1147  0.5629 -0.7288
  285MOL0     C38359  10.225   1.722  10.199 -0.9164  0.9779  0.0382
  285MOL0     C38360  10.329   1.818  10.144  0.5590 -1.1661 -0.6847
  285MOL0     C38361  10.308   1.952  10.205 -0.5884  0.0040  0.9762
  285MOL0     C38362  10.366   2.069  10.117 -0.2747  0.1528 -0.7729
  285MOL0     C38363  10.507   2.045  10.051  0.6717  1.3199 -0.3069
  285MOL0     O38364  10.591   1.979  10.151  0.6891 -0.0478  0.5581
  285MOL0     C38365  10.646   2.048  10.251  0.0310 -0.0578  0.0866
  285MOL0     C38366  10.604   2.178  10.285 -0.1511  0.5076  0.4874
  285MOL0     C38367  10.670   2.255  10.386  0.3798  0.2608 -0.0853
  285MOL0     C38368  10.774   2.194  10.460  0.5450 -0.2884  0.3147
  285MOL0     C38369  10.862   2.259  10.550 -1.0451  0.5804 -0.2998
  285MOL0     O38370  10.928   2.170  10.629  0.9784 -0.2345 -0.3394
  285MOL0     C38371  10.994   2.239  10.732 -0.4318  0.2154 -0.3239
  285MOL0     C38372  11.132   2.257  10.719  0.2426  0.1437 -0.2004
  285MOL0     C38373  11.198   2.318  10.827 -0.5246  0.4506 -0.3466
  285MOL0     C38374  11.128   2.354  10.944 -0.1000 -0.6107 -0.6993
  285MOL0     O38375  11.181   2.410  11.066 -0.5249  0.4555 -0.1525
  285MOL0     C38376  11.322   2.466  11.056  0.6321 -0.2882 -0.1759
  285MOL0     C38377  11.426   2.353  11.079  0.2346 -0.0017  0.3565
  285MOL0     C38378  11.446   2.360  11.229 -0.5359  0.3094  0.2444
  285MOL0     C38379  11.331   2.329  11.329  0.0263 -0.7391  0.7669
  285MOL0     C38380  11.268   2.191  11.316  0.0788 -0.5300 -0.2274
  285MOL0     C38381  11.188   2.151  11.440 -0.1380  0.5499  0.3440
  285MOL0     C38382  11.122   2.009  11.421  0.1747 -0.6059 -0.0947
  285MOL0     C38383  11.180   1.908  11.521  0.2836  0.0147 -0.2344
  285MOL0    Cl38384  11.359   1.889  11.526  0.4192  0.4693  0.1680
  285MOL0     C38385  10.996   2.331  10.952 -0.5017  0.0190 -0.1681
  285MOL0     C38386  10.920   2.280  10.847 -0.1879 -0.2218 -0.7908
  285MOL0     O38387  10.888   2.382  10.540 -0.0075 -0.2420 -0.1537
  285MOL0     C38388  10.806   2.060  10.421  0.4467 -0.5170  0.3964
  285MOL0     C38389  10.743   1.990  10.329  0.8753  0.8498  0.9698
  285MOL0     N38390  10.095   1.715  10.152  0.3901  0.0617 -0.4139
  285MOL0     N38391  10.029   1.625  10.220 -1.0785 -0.7417  0.4648
  285MOL0     C38392  10.195   2.139  11.009 -0.1082  0.3320 -0.3784
  285MOL0     C38393  10.230   2.269  11.022  0.5995 -0.0784 -0.5582
  285MOL0     C38394  10.436   2.649  11.185  0.2078 -0.0678  1.1094
  285MOL0     C38395  10.462   2.650  11.320  0.0376 -0.6925 -0.3242
  285MOL0     C38396  10.527   2.766  11.382 -0.5293 -0.0661  0.4579
  285MOL0     C38397  10.554   2.875  11.306 -0.4059 -0.5238 -0.3869
  285MOL0     O38398  10.607   2.975  11.377 -0.8589 -0.3244 -0.0176
  285MOL0     C38399  10.609   3.105  11.313 -0.3085  0.1794  0.7267
  285MOL0     C38400  10.647   3.220  11.404 -0.0161 -1.1940  0.0703
  285MOL0     C38401  10.541   3.271  11.506  0.5797 -0.6953  0.3288
  285MOL0     C38402  10.578   3.411  11.562  0.2309  0.3280  0.5987
  285MOL0     C38403  10.716   3.424  11.601 -0.5313 -0.6306  0.7178
  285MOL0     C38404  10.827   3.445  11.638 -0.3675  1.3308  0.1682
  285MOL0     C38405  10.522   2.876  11.169 -0.3946 -0.6486  0.1695
  285MOL0     C38406  10.455   2.768  11.104 -0.1858 -0.6560  0.5516
  285MOL0     C38407  10.427   2.792  10.948 -0.0551 -0.8904 -0.7065
  285MOL0     H38408  10.282   2.267  11.356 -4.5747  1.1434  1.2205
  285MOL0     H38409  10.189   2.017  11.315  0.3480  0.2885  0.7258
  285MOL0     H38410   9.969   1.912  10.998 -0.5048 -2.5636 -1.7052
  285MOL0     H38411  10.123   1.915  10.894  4.3076  0.9170  1.6591
  285MOL0     H38412  10.052   1.678  11.058 -1.2252  0.0325 -0.8288
  285MOL0     H38413  10.180   1.709  10.941  1.0471  2.9632  0.9568
  285MOL0     H38414   9.873   1.720  10.893 -1.7767  0.1563 -4.3126
  285MOL0     H38415   9.962   1.579  10.850 -0.0356  0.8849 -1.1153
  285MOL0     H38416   9.982   1.845  10.697  0.0441 -0.7225  1.9320
  285MOL0     H38417  10.118   1.745  10.719 -0.0382  1.4617 -1.2941
  285MOL0     H38418   9.857   1.668  10.571 -0.8679  3.6106  0.7667
  285MOL0     H38419  10.013   1.716  10.503  0.6365  0.1131  0.6511
  285MOL0     H38420  10.126   1.518  10.609  0.5459  0.0355  0.8396
  285MOL0     H38421   9.965   1.457  10.661 -0.0961 -0.8045 -1.7966
  285MOL0     H38422   9.892   1.487  10.415  0.5435  2.0919 -1.3754
  285MOL0     H38423   9.946   1.340  10.479 -0.9194 -0.9040 -0.8505
  285MOL0     H38424  10.195   1.432  10.425  0.1414  2.7245  1.8074
  285MOL0     H38425  10.084   1.369  10.295 -0.5605  1.1282 -1.3145
  285MOL0     H38426  10.318   1.642  10.378  2.2970  0.1780 -3.6832
  285MOL0     H38427  10.431   1.786  10.166  0.6555 -0.7354 -0.4811
  285MOL0     H38428  10.318   1.829  10.036  0.0059  1.1931 -0.4549
  285MOL0     H38429  10.204   1.984  10.219 -0.8478  1.3596 -2.8466
  285MOL0     H38430  10.369   1.942  10.295 -0.1737 -2.2534  0.5118
  285MOL0     H38431  10.354   2.154  10.184 -2.2267 -0.6485 -0.0407
  285MOL0     H38432  10.287   2.081  10.042 -1.3176 -0.4916  0.1975
  285MOL0     H38433  10.552   2.136  10.011  0.8492  1.1372 -0.5252
  285MOL0     H38434  10.484   1.968   9.976 -0.8324  2.2773 -0.8803
  285MOL0     H38435  10.523   2.240  10.247  1.1217  1.2549 -1.1044
  285MOL0     H38436  10.631   2.355  10.399  0.6481  0.4787 -0.9213
  285MOL0     H38437  11.189   2.234  10.629 -1.5908 -0.5634 -1.2292
  285MOL0     H38438  11.292   2.373  10.821 -2.0050  3.1050 -1.1313
  285MOL0     H38439  11.311   2.514  10.958 -2.6420  0.6476  0.5218
  285MOL0     H38440  11.337   2.544  11.132 -1.5416 -1.1711  1.2571
  285MOL0     H38441  11.384   2.254  11.061  0.2701 -0.0912  0.7578
  285MOL0     H38442  11.521   2.370  11.028  0.3262 -0.0505  0.5078
  285MOL0     H38443  11.528   2.293  11.255 -0.9961 -0.5889 -0.5711
  285MOL0     H38444  11.475   2.462  11.254 -0.6754 -0.1022  2.2846
  285MOL0     H38445  11.250   2.402  11.322  1.3011  0.5384 -2.7814
  285MOL0     H38446  11.374   2.336  11.429  0.1052  1.7707  0.6070
  285MOL0     H38447  11.356   2.128  11.303  1.1112  0.2704  2.2357
  285MOL0     H38448  11.203   2.188  11.227  0.4367 -1.3903 -0.4682
  285MOL0     H38449  11.262   2.145  11.520  0.2702 -5.6595 -0.0181
  285MOL0     H38450  11.125   2.235  11.471  1.2189  1.2706  1.2216
  285MOL0     H38451  11.137   1.968  11.321 -3.7262 -0.4328 -0.9150
  285MOL0     H38452  11.013   2.017  11.428  0.3315  1.3298  1.0148
  285MOL0     H38453  11.141   1.932  11.620  1.1424  2.0556 -0.3462
  285MOL0     H38454  11.141   1.811  11.488  0.2913  0.0880 -0.4602
  285MOL0     H38455  10.941   2.361  11.041  0.7529 -0.2908  0.7408
  285MOL0     H38456  10.814   2.262  10.860 -0.1734  1.1475  2.1389
  285MOL0     H38457  10.879   2.003  10.478  3.8633  1.6401 -1.4638
  285MOL0     H38458  10.755   1.884  10.310 -1.5148  0.5892  0.6265
  285MOL0     H38459  10.165   2.105  10.910  0.0955 -2.5003  0.4521
  285MOL0     H38460  10.223   2.333  10.935 -1.6257  3.6108  2.0160
  285MOL0     H38461  10.439   2.563  11.380 -0.1914 -0.2342  0.2626
  285MOL0     H38462  10.569   2.758  11.482  1.3646 -2.1668 -0.4049
  285MOL0     H38463  10.522   3.128  11.250 -0.4599  3.2408  1.8842
  285MOL0     H38464  10.681   3.091  11.232 -0.6661 -2.3980  0.7703
  285MOL0     H38465  10.696   3.297  11.344 -1.3188 -1.1440 -0.9753
  285MOL0     H38466  10.727   3.187  11.471  0.3058 -0.9894 -0.2133
  285MOL0     H38467  10.539   3.199  11.588 -1.1142 -0.2239  0.7274
  285MOL0     H38468  10.438   3.275  11.471  1.3502  2.7566 -2.0672
  285MOL0     H38469  10.579   3.472  11.471  1.8935  1.2298  1.1948
  285MOL0     H38470  10.503   3.456  11.628 -2.9300 -0.5755 -2.0670
  285MOL0     H38471  10.925   3.478  11.663 -0.8658  2.4500  0.7403
  285MOL0     H38472  10.556   2.959  11.107  3.9729 -2.7310 -0.6173
  285MOL0     H38473  10.511   2.750  10.893  1.7998  1.4576  0.1427
  285MOL0     H38474  10.351   2.730  10.899 -0.1938 -0.9437 -0.4321
  285MOL0     H38475  10.411   2.898  10.928  1.8046 -0.7863 -1.8789
  286MOL0     O38476   1.074   9.598  10.243 -0.5905  0.2342 -0.8586
  286MOL0     C38477   1.118   9.654  10.145 -0.0161  0.3939 -0.1899
  286MOL0     O38478   1.075   9.769  10.104 -0.1574  0.2742  0.1549
  286MOL0     C38479   0.988   9.832  10.185  0.4173  0.0433 -0.7630
  286MOL0     C38480   0.865   9.874  10.150 -0.1804 -0.6471  0.4047
  286MOL0     C38481   0.784   9.966  10.228 -0.7017  0.4444  0.2132
  286MOL0     C38482   0.841  10.007  10.353  0.2363 -0.4270 -0.2668
  286MOL0     O38483   0.774  10.065  10.461 -0.2032 -0.0645 -0.2591
  286MOL0     C38484   0.639  10.026  10.492  0.2684 -0.1517 -0.1703
  286MOL0     C38485   0.603  10.066  10.640 -0.8447 -0.5467  0.8389
  286MOL0     C38486   0.563  10.213  10.641  0.0528  0.3615  0.3656
  286MOL0     C38487   0.561  10.266  10.788  0.1536  0.4051  0.1766
  286MOL0     C38488   0.458  10.196  10.872  0.0731 -0.4864  0.5187
  286MOL0     C38489   0.321  10.194  10.806  0.3828  0.2042 -0.0571
  286MOL0     C38490   0.225  10.130  10.910  0.1374 -0.1240  0.1382
  286MOL0     C38491   0.108  10.057  10.839  0.0776  0.2410 -1.0723
  286MOL0     N38492   0.033   9.984  10.929  0.1940 -0.5904  0.2399
  286MOL0     C38493   0.004  10.023  11.059 -0.3142 -0.0603 -0.1224
  286MOL0     C38494  -0.020   9.907  11.114 -0.1761  0.5474 -0.4541
  286MOL0     C38495  -0.054   9.880  11.248  0.0228  0.2336 -0.7825
  286MOL0     C38496  -0.195   9.832  11.266  0.9698 -0.1518  0.6122
  286MOL0     C38497  -0.221   9.802  11.416 -0.0429 -0.4199  0.1029
  286MOL0     C38498  -0.368   9.761  11.450 -0.1127 -0.3173  0.9186
  286MOL0     O38499  -0.405   9.749  11.580 -0.0188 -0.9793  0.1204
  286MOL0     C38500  -0.364   9.650  11.657 -0.5154 -1.1017 -0.3848
  286MOL0     C38501  -0.286   9.541  11.609  0.2736 -0.4278  0.2241
  286MOL0     C38502  -0.249   9.451  11.707 -0.3774  0.8531  0.0486
  286MOL0     C38503  -0.265   9.471  11.843 -0.1561  0.0615 -0.0658
  286MOL0     C38504  -0.221   9.363  11.943 -0.0939 -0.2754 -0.0279
  286MOL0     O38505  -0.255   9.385  12.077 -0.5233 -0.0286  0.3088
  286MOL0     C38506  -0.242   9.287  12.170 -0.0894  0.9435  0.2041
  286MOL0     C38507  -0.168   9.319  12.284 -0.4281  0.0786 -0.4468
  286MOL0     C38508  -0.171   9.229  12.385  0.2653  0.1593  0.8174
  286MOL0     C38509  -0.230   9.102  12.375 -0.1320 -0.3815  0.1187
  286MOL0     O38510  -0.195   9.021  12.488  0.5339  0.5846 -0.0118
  286MOL0     C38511  -0.280   8.914  12.496  0.2111  0.4414 -0.4910
  286MOL0     C38512  -0.277   8.853  12.640  0.3321  0.8570 -0.7653
  286MOL0     C38513  -0.133   8.835  12.672 -0.3168  0.9472  0.7223
  286MOL0     C38514  -0.091   8.934  12.778  0.7690 -0.4417  0.6861
  286MOL0     C38515   0.050   8.903  12.822 -0.4684  0.8332 -0.0794
  286MOL0     C38516   0.158   8.930  12.710 -0.0908  0.4695 -0.5004
  286MOL0     C38517   0.154   9.065  12.639 -0.0556  0.5086  0.6297
  286MOL0     C38518   0.165   9.190  12.730  0.9066 -1.1444  0.9539
  286MOL0    Cl38519   0.339   9.205  12.780  0.0112  0.6474 -0.0181
  286MOL0     C38520  -0.290   9.058  12.255 -0.0816 -0.4718 -0.9100
  286MOL0     C38521  -0.279   9.150  12.147  0.5349  0.2951 -0.0663
  286MOL0     O38522  -0.159   9.268  11.896 -0.7150  0.2868  0.3707
  286MOL0     C38523  -0.347   9.580  11.880  0.1882  0.4347 -1.0291
  286MOL0     C38524  -0.411   9.660  11.786 -0.0488  0.4115  0.1776
  286MOL0     N38525  -0.027   9.808  11.016 -0.1419  0.0714 -0.0204
  286MOL0     N38526   0.002   9.858  10.904 -0.6244  0.2326 -0.5324
  286MOL0     C38527   0.969   9.978  10.386 -0.5940  0.6583  0.1674
  286MOL0     C38528   1.040   9.878  10.312  0.5346 -0.8733  0.5892
  286MOL0     C38529   1.214   9.591  10.057 -0.2371  0.1252  0.2657
  286MOL0     C38530   1.316   9.529  10.129 -1.1078  0.2228  0.6471
  286MOL0     C38531   1.416   9.471  10.054 -0.7850 -0.5767 -0.5065
  286MOL0     C38532   1.421   9.478   9.914  0.0587 -0.9124 -0.0880
  286MOL0     O38533   1.528   9.419   9.854  0.1860 -0.1291  0.3102
  286MOL0     C38534   1.490   9.327   9.751 -0.1720  0.4303 -0.1405
  286MOL0     C38535   1.609   9.233   9.738 -0.1002  0.2074  0.6325
  286MOL0     C38536   1.575   9.146   9.626 -0.4970  0.5901 -0.1553
  286MOL0     C38537   1.690   9.055   9.577 -0.6044  0.8677  0.0286
  286MOL0     C38538   1.667   9.018   9.436 -0.1259 -0.2452  0.8842
  286MOL0     C38539   1.665   8.980   9.319  0.8025 -0.6951 -0.1002
  286MOL0     C38540   1.323   9.552   9.836 -0.2421  0.4808 -0.1959
  286MOL0     C38541   1.221   9.602   9.918  0.0567 -0.7696  0.2663
  286MOL0     C38542   1.110   9.680   9.843 -0.4348  0.0794 -0.9252
  286MOL0     H38543   0.829   9.842  10.052 -1.9286 -2.8210  1.6755
  286MOL0     H38544   0.684   9.999  10.199  0.8074  2.1600 -3.8361
  286MOL0     H38545   0.571  10.074  10.421  1.6113  3.3561  0.7104
  286MOL0     H38546   0.621   9.918  10.488 -1.5548  0.0285  1.2684
  286MOL0     H38547   0.681  10.041  10.713  0.2890 -0.8077 -0.4190
  286MOL0     H38548   0.507  10.019  10.660 -1.3515  1.5235  4.1699
  286MOL0     H38549   0.466  10.222  10.591 -0.0591 -0.5734  0.4090
  286MOL0     H38550   0.627  10.273  10.574  0.7319  0.0071  0.6919
  286MOL0     H38551   0.659  10.268  10.835  0.3734 -2.7342  0.0762
  286MOL0     H38552   0.526  10.369  10.775  2.8381  1.0794 -3.0025
  286MOL0     H38553   0.493  10.101  10.912 -0.5389 -0.6853  0.5943
  286MOL0     H38554   0.448  10.262  10.958  3.5602 -0.9646  1.4320
  286MOL0     H38555   0.299  10.296  10.775  2.8449  0.3544 -1.4902
  286MOL0     H38556   0.331  10.131  10.718  2.0320  1.2683 -0.6751
  286MOL0     H38557   0.195  10.213  10.974 -2.0423  0.4166 -1.4388
  286MOL0     H38558   0.270  10.052  10.972 -0.7152 -1.8219 -1.2585
  286MOL0     H38559   0.039  10.124  10.787 -1.8922 -2.2583 -1.9006
  286MOL0     H38560   0.161   9.992  10.769 -1.9561 -1.5499 -1.0639
  286MOL0     H38561   0.005  10.114  11.118  0.4142 -1.7469  2.5840
  286MOL0     H38562   0.023   9.818  11.294 -2.9955 -1.4667  2.4615
  286MOL0     H38563  -0.055   9.972  11.307  3.5273  1.9049 -2.9717
  286MOL0     H38564  -0.283   9.894  11.246  0.1327 -1.7722 -1.0110
  286MOL0     H38565  -0.222   9.741  11.212  2.3678  0.0322 -0.4723
  286MOL0     H38566  -0.197   9.891  11.475  2.0976  1.4754 -3.2984
  286MOL0     H38567  -0.151   9.723  11.446 -1.4647 -1.0583  1.9356
  286MOL0     H38568  -0.389   9.669  11.394  2.8835  0.5383 -1.9657
  286MOL0     H38569  -0.426   9.845  11.412 -0.1151 -0.4031  0.7310
  286MOL0     H38570  -0.250   9.518  11.509  1.3995 -3.5731  1.2292
  286MOL0     H38571  -0.184   9.370  11.675 -1.1553 -0.4925  1.7136
  286MOL0     H38572  -0.122   9.417  12.296 -0.2420 -0.1027  0.3083
  286MOL0     H38573  -0.107   9.255  12.469 -1.3375 -2.4354  3.0055
  286MOL0     H38574  -0.384   8.948  12.491 -0.0437 -0.0354  1.1384
  286MOL0     H38575  -0.256   8.830  12.430  3.2828 -1.8510  3.1513
  286MOL0     H38576  -0.333   8.903  12.720 -0.6957 -1.7165  0.2538
  286MOL0     H38577  -0.343   8.767  12.626 -0.4440  1.5593 -1.5109
  286MOL0     H38578  -0.115   8.736  12.714 -1.3274  2.0591  4.1032
  286MOL0     H38579  -0.081   8.847  12.576 -1.4499  3.6873  0.3403
  286MOL0     H38580  -0.164   8.938  12.860 -0.0631 -1.4993  0.0342
  286MOL0     H38581  -0.103   9.034  12.735  0.1767  0.2252  2.2944
  286MOL0     H38582   0.051   8.799  12.855  1.8238  0.1631 -1.9347
  286MOL0     H38583   0.078   8.963  12.909 -2.4445  3.5359 -1.1605
  286MOL0     H38584   0.258   8.920  12.752 -1.3009 -4.6617  2.0259
  286MOL0     H38585   0.154   8.854  12.632 -0.2477  0.4281 -0.4527
  286MOL0     H38586   0.069   9.075  12.571  0.0573  0.8708  0.5389
  286MOL0     H38587   0.234   9.060  12.565  1.5465 -2.9795  2.3831
  286MOL0     H38588   0.140   9.274  12.665  2.8336 -1.0911  0.2029
  286MOL0     H38589   0.100   9.193  12.817 -2.2089  2.2976 -1.1960
  286MOL0     H38590  -0.339   8.962  12.245 -1.4017  0.2113 -1.2967
  286MOL0     H38591  -0.345   9.116  12.067  0.2697  1.3311 -0.3122
  286MOL0     H38592  -0.372   9.578  11.985 -0.5406 -1.8931 -1.1892
  286MOL0     H38593  -0.480   9.738  11.814 -0.3002 -0.1748  1.2341
  286MOL0     H38594   1.011  10.021  10.477 -2.1097 -0.6206  1.5273
  286MOL0     H38595   1.144   9.855  10.331  1.3040  0.4043 -1.5979
  286MOL0     H38596   1.312   9.516  10.237 -2.4470  0.6287  0.6641
  286MOL0     H38597   1.491   9.403  10.094 -1.1608 -1.7166 -1.6444
  286MOL0     H38598   1.479   9.376   9.654  4.9610 -0.8144 -1.6654
  286MOL0     H38599   1.397   9.273   9.773 -1.3099  2.3210 -0.1122
  286MOL0     H38600   1.632   9.176   9.828  3.8510  0.0873 -0.2797
  286MOL0     H38601   1.700   9.292   9.724  1.2839 -1.3495  2.5969
  286MOL0     H38602   1.548   9.210   9.541  0.0610  1.2361  0.1434
  286MOL0     H38603   1.493   9.078   9.650  1.6916 -1.8269  1.0162
  286MOL0     H38604   1.784   9.110   9.584 -0.2911  0.3170  0.2042
  286MOL0     H38605   1.697   8.966   9.640 -1.3174  0.8663  0.1219
  286MOL0     H38606   1.685   8.964   9.215 -4.3171 -3.4649 -0.9561
  286MOL0     H38607   1.313   9.560   9.729 -0.8287  0.2133 -0.1646
  286MOL0     H38608   1.111   9.789   9.856 -1.5893  0.2222 -1.9364
  286MOL0     H38609   1.115   9.653   9.737 -4.2872 -1.1668 -0.9315
  286MOL0     H38610   1.017   9.641   9.883  1.6300 -1.7405  2.6326
  287MOL0     O38611   1.739   2.079   7.019 -0.4062 -0.2008  0.1112
  287MOL0     C38612   1.721   2.139   6.913 -0.3348 -0.2071  0.3832
  287MOL0     O38613   1.725   2.272   6.897 -0.6020 -0.4061  0.1993
  287MOL0     C38614   1.779   2.343   6.997  0.5029  0.4027 -0.4013
  287MOL0     C38615   1.698   2.451   7.035  1.8300 -1.0697 -0.3622
  287MOL0     C38616   1.734   2.542   7.137  1.2589  0.3018 -0.6263
  287MOL0     C38617   1.856   2.522   7.196 -0.0369 -0.2446  0.0441
  287MOL0     O38618   1.897   2.602   7.301  0.8870  0.0613 -0.4417
  287MOL0     C38619   1.807   2.663   7.395  0.4689  1.4829  0.1605
  287MOL0     C38620   1.817   2.816   7.399 -0.4383  0.8644  0.0535
  287MOL0     C38621   1.785   2.888   7.266  0.7590  0.0890  0.7384
  287MOL0     C38622   1.836   3.033   7.236 -0.6581 -0.8942 -0.0048
  287MOL0     C38623   1.836   3.057   7.081  0.5462 -0.1188  0.6777
  287MOL0     C38624   1.797   3.203   7.042 -0.4967  0.2312  0.5879
  287MOL0     C38625   1.827   3.216   6.897 -0.0283  0.5339  0.3588
  287MOL0     C38626   1.778   3.357   6.842  0.9636  0.2700  0.2887
  287MOL0     N38627   1.635   3.389   6.875  0.6482  0.1580  0.2394
  287MOL0     C38628   1.526   3.308   6.861  0.2115  0.1902 -0.0483
  287MOL0     C38629   1.415   3.384   6.899 -0.1171  0.8725  0.1002
  287MOL0     C38630   1.269   3.342   6.907  0.5204 -0.8962 -0.5165
  287MOL0     C38631   1.190   3.427   6.808  0.2087  0.0681  0.4822
  287MOL0     C38632   1.052   3.364   6.781  0.0755 -0.2204 -0.4941
  287MOL0     C38633   0.964   3.462   6.708  0.6158  0.3915 -0.5234
  287MOL0     O38634   0.833   3.413   6.696 -0.3966 -0.2828  0.0559
  287MOL0     C38635   0.752   3.398   6.810  0.5549 -0.3732  0.5546
  287MOL0     C38636   0.738   3.488   6.921 -0.1909  0.8080 -0.3421
  287MOL0     C38637   0.669   3.456   7.036 -0.1949  0.1040 -0.3765
  287MOL0     C38638   0.594   3.331   7.027 -0.4880 -0.3446 -0.5690
  287MOL0     C38639   0.510   3.277   7.143 -0.1901  0.4083 -0.0155
  287MOL0     O38640   0.425   3.167   7.127  0.0525  0.3816  0.2962
  287MOL0     C38641   0.385   3.079   7.235  0.4796 -0.6312  0.4167
  287MOL0     C38642   0.331   3.123   7.358  0.2887  0.0601 -0.4669
  287MOL0     C38643   0.279   3.036   7.457 -0.5025  0.3185 -0.0246
  287MOL0     C38644   0.267   2.903   7.424 -0.2097  0.1973 -0.0101
  287MOL0     O38645   0.209   2.811   7.504  0.3685 -0.0242  0.2464
  287MOL0     C38646   0.272   2.688   7.537 -0.1978 -0.4218 -0.7357
  287MOL0     C38647   0.392   2.702   7.629  0.5745 -1.1936 -0.1962
  287MOL0     C38648   0.491   2.591   7.598 -0.1475 -0.7220  0.8618
  287MOL0     C38649   0.626   2.609   7.676  0.5201 -0.5546 -0.2843
  287MOL0     C38650   0.724   2.496   7.647  0.4962 -0.0739  0.7350
  287MOL0     C38651   0.864   2.526   7.708 -0.0542 -1.8558  1.2451
  287MOL0     C38652   0.955   2.405   7.676  0.0406 -0.1068  0.2534
  287MOL0     C38653   1.049   2.431   7.552  1.3613  0.6167  0.1466
  287MOL0    Cl38654   0.946   2.429   7.407 -0.6273 -0.2633 -0.4340
  287MOL0     C38655   0.307   2.860   7.301 -0.2898 -0.1973 -0.5159
  287MOL0     C38656   0.365   2.944   7.203  0.1105 -0.2791 -0.4853
  287MOL0     O38657   0.561   3.308   7.255 -0.8273  0.2698  0.5023
  287MOL0     C38658   0.589   3.254   6.915 -1.0443  0.0645 -0.7834
  287MOL0     C38659   0.667   3.284   6.806  0.0566 -0.7972  0.0856
  287MOL0     N38660   1.453   3.518   6.910  0.0181 -0.1084  0.4161
  287MOL0     N38661   1.581   3.513   6.895 -0.0643 -0.4538 -0.0303
  287MOL0     C38662   1.947   2.420   7.146 -0.6627 -0.5683  0.3338
  287MOL0     C38663   1.908   2.333   7.051 -0.0104  0.1227 -0.2534
  287MOL0     C38664   1.699   2.056   6.801  0.4730 -0.3953  0.8463
  287MOL0     C38665   1.603   2.105   6.712 -0.1989  1.1573 -0.3509
  287MOL0     C38666   1.585   2.030   6.593 -0.6759 -1.0885 -0.6604
  287MOL0     C38667   1.653   1.907   6.569 -0.0016  0.2283 -0.2144
  287MOL0     O38668   1.626   1.850   6.445 -0.2800  0.6203 -0.0265
  287MOL0     C38669   1.742   1.803   6.376  0.0376  0.5890 -0.1475
  287MOL0     C38670   1.753   1.649   6.366  0.6307  0.3100 -0.8465
  287MOL0     C38671   1.827   1.628   6.227  1.1835 -0.8902  0.2699
  287MOL0     C38672   1.866   1.474   6.209 -0.1136  0.0765 -0.5071
  287MOL0     C38673   1.982   1.442   6.301  0.5311 -0.7300 -0.8934
  287MOL0     C38674   2.087   1.426   6.362 -0.7480 -0.8077  0.6928
  287MOL0     C38675   1.741   1.855   6.668  0.3737 -0.0115 -0.3665
  287MOL0     C38676   1.768   1.930   6.783  1.2987 -0.0378  0.0168
  287MOL0     C38677   1.848   1.851   6.885 -0.6249  0.8254  0.1410
  287MOL0     H38678   1.601   2.463   6.987  1.6792  3.2779  0.6360
  287MOL0     H38679   1.662   2.618   7.162  0.6519  0.2329 -2.0732
  287MOL0     H38680   1.707   2.628   7.369  2.0033 -4.3201  0.7325
  287MOL0     H38681   1.841   2.620   7.489  1.4630  2.3857  0.2365
  287MOL0     H38682   1.919   2.844   7.427 -0.3021 -0.3691  0.8551
  287MOL0     H38683   1.752   2.850   7.481 -1.5552 -0.3612 -0.2897
  287MOL0     H38684   1.677   2.883   7.247  0.6544 -0.4785  1.4464
  287MOL0     H38685   1.817   2.832   7.178  0.9015 -1.1345  1.5497
  287MOL0     H38686   1.768   3.104   7.284  3.3876  3.6526 -0.2233
  287MOL0     H38687   1.931   3.058   7.285 -0.7116 -0.4952 -0.1072
  287MOL0     H38688   1.931   3.018   7.045 -0.5935 -1.0603 -1.5033
  287MOL0     H38689   1.754   2.998   7.040  1.3086 -1.9727  1.7339
  287MOL0     H38690   1.693   3.217   7.073  0.1554 -0.7966  3.6616
  287MOL0     H38691   1.844   3.288   7.093 -0.4791 -0.6025  2.0123
  287MOL0     H38692   1.779   3.129   6.850  1.8113 -2.2348  3.2344
  287MOL0     H38693   1.932   3.192   6.879 -0.5308  0.6084 -3.4207
  287MOL0     H38694   1.846   3.439   6.868  2.3483 -0.2894 -1.3518
  287MOL0     H38695   1.792   3.369   6.734  0.7921  2.2566  0.4427
  287MOL0     H38696   1.521   3.207   6.822  2.5815  0.6443 -1.7386
  287MOL0     H38697   1.242   3.236   6.911 -2.0999 -0.2858  0.1499
  287MOL0     H38698   1.236   3.382   7.003 -1.3096 -1.1732 -0.9918
  287MOL0     H38699   1.180   3.531   6.841  2.5780  0.7931 -0.8477
  287MOL0     H38700   1.242   3.422   6.712 -1.3596 -2.7563 -0.3603
  287MOL0     H38701   1.005   3.330   6.874  0.1668 -0.3065 -0.4794
  287MOL0     H38702   1.074   3.284   6.709  2.7906 -1.9940  2.0810
  287MOL0     H38703   0.998   3.472   6.604 -0.5224 -1.3962 -1.1029
  287MOL0     H38704   0.965   3.559   6.760  0.1426  1.8454 -3.0282
  287MOL0     H38705   0.796   3.580   6.925 -0.6365  1.0977 -0.5005
  287MOL0     H38706   0.651   3.520   7.121  0.9141 -0.1751  0.0872
  287MOL0     H38707   0.340   3.229   7.380 -0.2253  0.5087 -2.2118
  287MOL0     H38708   0.240   3.085   7.545  1.1873  1.6253  0.0519
  287MOL0     H38709   0.203   2.621   7.589 -0.8229  1.9862  1.7766
  287MOL0     H38710   0.282   2.650   7.435 -1.0292 -0.1296 -0.9371
  287MOL0     H38711   0.436   2.797   7.596 -1.8082  0.1970  0.3887
  287MOL0     H38712   0.351   2.704   7.731 -1.8001  0.5254 -1.0779
  287MOL0     H38713   0.452   2.491   7.617  2.0113 -2.0671 -1.3439
  287MOL0     H38714   0.493   2.592   7.489 -0.6500 -1.7483  0.8353
  287MOL0     H38715   0.607   2.611   7.783 -1.1326 -2.6205 -0.4664
  287MOL0     H38716   0.683   2.698   7.647  1.1275 -0.7023  0.4337
  287MOL0     H38717   0.724   2.486   7.538 -2.8609 -0.1604  0.6387
  287MOL0     H38718   0.679   2.403   7.684  0.3612 -0.7852 -1.0923
  287MOL0     H38719   0.903   2.623   7.676  0.2009 -0.6922  4.6533
  287MOL0     H38720   0.845   2.540   7.815 -0.4548 -1.6952  1.1529
  287MOL0     H38721   0.894   2.314   7.673 -1.5601  0.9353 -2.1109
  287MOL0     H38722   1.017   2.394   7.765 -0.4262 -1.4378  0.4436
  287MOL0     H38723   1.092   2.530   7.573  2.1557  0.6257 -1.4068
  287MOL0     H38724   1.128   2.355   7.550  0.3699 -0.4209 -0.1780
  287MOL0     H38725   0.284   2.760   7.266  2.0729 -1.0115  0.1105
  287MOL0     H38726   0.383   2.896   7.107  0.9052  0.9885 -0.9908
  287MOL0     H38727   0.524   3.167   6.908 -3.0762  1.0251  3.1106
  287MOL0     H38728   0.645   3.243   6.708 -1.2261  0.4760 -0.1846
  287MOL0     H38729   2.044   2.410   7.195  0.2675 -1.1389 -1.5405
  287MOL0     H38730   1.970   2.246   7.031 -0.9000 -0.4506 -0.5503
  287MOL0     H38731   1.555   2.201   6.729  0.9748  1.5780  0.8108
  287MOL0     H38732   1.508   2.063   6.524 -0.2043  0.8917 -0.2783
  287MOL0     H38733   1.839   1.834   6.415 -0.6231  1.8397  0.5495
  287MOL0     H38734   1.732   1.843   6.275  1.0539  3.8900  0.9554
  287MOL0     H38735   1.650   1.612   6.358  0.6950 -0.2484  0.6349
  287MOL0     H38736   1.801   1.595   6.448 -4.3689 -1.6302  1.2064
  287MOL0     H38737   1.908   1.698   6.208  0.2565 -0.0734 -0.8666
  287MOL0     H38738   1.757   1.652   6.146  1.7791 -0.1129 -0.0257
  287MOL0     H38739   1.779   1.410   6.230 -1.5998  2.9442  3.2676
  287MOL0     H38740   1.912   1.461   6.111 -1.5824  2.0845 -1.5243
  287MOL0     H38741   2.181   1.410   6.410 -0.0604 -0.2112 -0.4111
  287MOL0     H38742   1.769   1.752   6.651 -0.4286  0.2096 -3.6990
  287MOL0     H38743   1.903   1.912   6.957  1.7583  0.0380 -0.8970
  287MOL0     H38744   1.773   1.795   6.941 -0.0718  1.1475  1.2176
  287MOL0     H38745   1.922   1.791   6.831 -1.5156  1.1245 -1.5121
  288MOL0     O38746   8.329   9.204   3.624  0.6718 -0.1324  0.3349
  288MOL0     C38747   8.389   9.267   3.537 -0.0709 -0.1040 -0.4031
  288MOL0     O38748   8.340   9.304   3.414  0.2752  0.3989  0.8846
  288MOL0     C38749   8.232   9.243   3.358  0.4191  0.7830 -0.0713
  288MOL0     C38750   8.223   9.098   3.357 -0.4591  0.0798 -0.0337
  288MOL0     C38751   8.112   9.026   3.312 -0.7686 -0.4335  0.6028
  288MOL0     C38752   8.008   9.093   3.251  0.5072 -0.2381  0.5687
  288MOL0     O38753   7.892   9.030   3.208 -1.1843 -0.3825  0.5981
  288MOL0     C38754   7.832   8.966   3.316 -0.5551  0.2721  0.8447
  288MOL0     C38755   7.703   8.915   3.261  0.6118  0.6840 -0.8886
  288MOL0     C38756   7.713   8.791   3.162 -0.1276 -0.0318  0.0561
  288MOL0     C38757   7.842   8.777   3.072 -0.0090 -0.2177 -0.2889
  288MOL0     C38758   7.842   8.644   2.991 -0.4560 -0.0499  0.2133
  288MOL0     C38759   7.960   8.651   2.892 -0.7826 -0.2854  0.5535
  288MOL0     C38760   7.952   8.527   2.789 -0.9818 -0.2860 -0.2829
  288MOL0     C38761   8.025   8.541   2.651 -0.0215 -0.1967  0.7106
  288MOL0     N38762   8.166   8.569   2.663 -0.3797  0.5014  0.3535
  288MOL0     C38763   8.258   8.635   2.583  0.2767  0.5475 -0.3167
  288MOL0     C38764   8.376   8.640   2.657  0.0073  0.1285  0.6104
  288MOL0     C38765   8.496   8.707   2.603 -0.1837 -0.7876  0.2594
  288MOL0     C38766   8.551   8.819   2.707  0.0811  0.7372  0.1073
  288MOL0     C38767   8.457   8.936   2.711  0.5541 -0.6884  0.7798
  288MOL0     C38768   8.508   9.048   2.800  0.0147 -0.5335 -0.0459
  288MOL0     O38769   8.464   9.178   2.772  0.5144 -0.4960 -0.8649
  288MOL0     C38770   8.531   9.251   2.680 -0.3440 -0.3639 -0.0070
  288MOL0     C38771   8.480   9.379   2.644 -0.4377  1.1005 -0.0145
  288MOL0     C38772   8.548   9.463   2.555 -0.0546  0.6453  1.0269
  288MOL0     C38773   8.670   9.426   2.497 -0.0277 -0.1552 -0.2962
  288MOL0     C38774   8.755   9.502   2.395  0.7598 -0.8850  0.7283
  288MOL0     O38775   8.688   9.597   2.332 -0.3090  0.3397 -0.5757
  288MOL0     C38776   8.743   9.678   2.243 -0.1760  0.0238 -0.3827
  288MOL0     C38777   8.754   9.813   2.282  0.1928  0.7702 -0.1036
  288MOL0     C38778   8.796   9.907   2.198  1.2645 -0.3513 -0.1945
  288MOL0     C38779   8.845   9.875   2.075 -0.5253 -0.5276  0.7825
  288MOL0     O38780   8.903   9.980   2.004  0.0892 -0.5802  0.9791
  288MOL0     C38781   8.929   9.961   1.866  0.0384 -0.4580  0.4341
  288MOL0     C38782   8.972  10.095   1.810 -0.0491  1.0437  0.7064
  288MOL0     C38783   8.976  10.101   1.655 -0.0498 -0.5287 -0.2994
  288MOL0     C38784   9.003  10.254   1.615  0.5067 -0.0621  0.2588
  288MOL0     C38785   9.033  10.277   1.467  0.1832  0.6269 -0.3128
  288MOL0     C38786   9.069  10.425   1.451  0.1322  0.8816  0.3510
  288MOL0     C38787   9.126  10.452   1.313 -0.3960 -0.1872  0.4771
  288MOL0     C38788   9.171  10.598   1.291  0.0727 -0.4296 -0.5565
  288MOL0    Cl38789   9.335  10.598   1.216 -0.6345  0.6930  0.2968
  288MOL0     C38790   8.837   9.739   2.024 -0.2092  0.7343  1.1383
  288MOL0     C38791   8.796   9.636   2.117  1.1633  0.8250 -0.1310
  288MOL0     O38792   8.871   9.475   2.383 -0.5146  1.0703 -0.3665
  288MOL0     C38793   8.718   9.302   2.524  0.5065 -0.0474 -0.3484
  288MOL0     C38794   8.646   9.208   2.606  0.2022 -0.6073  1.4781
  288MOL0     N38795   8.360   8.572   2.772 -0.1476  0.0555 -0.2449
  288MOL0     N38796   8.228   8.534   2.777  0.0653  0.4063 -0.6779
  288MOL0     C38797   8.013   9.236   3.238  0.2854 -0.3898 -0.4429
  288MOL0     C38798   8.123   9.313   3.293 -0.2008  0.0287 -0.4462
  288MOL0     C38799   8.526   9.313   3.570  0.5992 -0.2125  1.0868
  288MOL0     C38800   8.586   9.401   3.469  0.0597  0.7863 -0.6171
  288MOL0     C38801   8.715   9.451   3.494 -0.2588 -0.4903  0.2947
  288MOL0     C38802   8.794   9.419   3.599  0.1271  0.1715  0.2766
  288MOL0     O38803   8.916   9.478   3.630 -0.2241 -0.0195 -0.2979
  288MOL0     C38804   9.016   9.376   3.652 -0.4457  0.7846 -0.3919
  288MOL0     C38805   9.106   9.385   3.536  0.3973 -0.3072 -0.5745
  288MOL0     C38806   9.060   9.297   3.413 -0.2475  0.1457 -0.1895
  288MOL0     C38807   9.152   9.319   3.303  0.3738 -1.1608  0.2744
  288MOL0     C38808   9.146   9.226   3.192  1.3126  1.0656 -0.4949
  288MOL0     C38809   9.131   9.139   3.108  1.4663  0.3463  0.3996
  288MOL0     C38810   8.735   9.339   3.697 -0.7253 -0.3906  0.2185
  288MOL0     C38811   8.604   9.284   3.683 -0.7869 -0.4674 -1.0254
  288MOL0     C38812   8.549   9.220   3.810  0.7239  1.2231  0.0552
  288MOL0     H38813   8.313   9.039   3.366 -1.6947 -1.5739  2.4777
  288MOL0     H38814   8.108   8.918   3.324  0.2940 -0.6329 -0.5143
  288MOL0     H38815   7.872   8.870   3.351 -1.5595  0.4102  2.4939
  288MOL0     H38816   7.800   9.028   3.400 -2.1073  1.3384 -0.4807
  288MOL0     H38817   7.641   9.000   3.231 -0.0415 -0.6066 -3.4256
  288MOL0     H38818   7.648   8.873   3.345 -2.3155  0.6303 -2.7024
  288MOL0     H38819   7.622   8.787   3.102 -0.7196  2.6919  0.6550
  288MOL0     H38820   7.720   8.700   3.223  1.7572  0.2744  0.3801
  288MOL0     H38821   7.852   8.867   3.011  1.4819  0.8395  1.3914
  288MOL0     H38822   7.932   8.773   3.134  0.1695 -0.9546 -0.5913
  288MOL0     H38823   7.861   8.563   3.062  4.6142  1.2643  0.7520
  288MOL0     H38824   7.759   8.623   2.923  1.0692 -1.4069 -1.3344
  288MOL0     H38825   7.969   8.742   2.833  2.8827 -1.0998 -0.4242
  288MOL0     H38826   8.050   8.647   2.954 -1.1966 -0.6451  1.1375
  288MOL0     H38827   7.845   8.520   2.763 -0.9977  2.1997 -1.0691
  288MOL0     H38828   7.993   8.435   2.833  1.3022 -0.9719 -3.4554
  288MOL0     H38829   8.014   8.445   2.599  0.5195 -0.0481  0.3127
  288MOL0     H38830   7.981   8.619   2.588 -2.4000 -2.0586 -0.1041
  288MOL0     H38831   8.231   8.679   2.488 -0.1265  2.4348  0.6191
  288MOL0     H38832   8.575   8.634   2.587  0.5188  0.5346 -3.0069
  288MOL0     H38833   8.479   8.743   2.501 -1.0463 -1.8060  0.0229
  288MOL0     H38834   8.561   8.774   2.806  0.5084  2.2410  0.7880
  288MOL0     H38835   8.652   8.848   2.677 -0.1206  3.6933  1.8250
  288MOL0     H38836   8.352   8.914   2.730  0.1623  0.9782  0.7586
  288MOL0     H38837   8.453   8.983   2.612 -0.9019  1.6611  1.8842
  288MOL0     H38838   8.616   9.034   2.809  0.6483  2.3913 -1.7666
  288MOL0     H38839   8.471   9.035   2.902  0.2689  0.2661  0.1592
  288MOL0     H38840   8.391   9.423   2.690 -2.0256 -0.6177 -1.3059
  288MOL0     H38841   8.511   9.564   2.544  2.8664  1.5249 -3.2892
  288MOL0     H38842   8.721   9.844   2.381  0.0666  0.3918 -0.0227
  288MOL0     H38843   8.798  10.012   2.225 -0.8923  0.0358 -1.2950
  288MOL0     H38844   9.004   9.883   1.849  1.1198  0.5345  0.5721
  288MOL0     H38845   8.836   9.924   1.821 -0.8475 -0.1591  1.9614
  288MOL0     H38846   8.907  10.172   1.853  2.1707  3.1083  0.6292
  288MOL0     H38847   9.073  10.108   1.852  0.9724 -1.2019 -0.8862
  288MOL0     H38848   9.046  10.029   1.612  1.0518 -0.5456  1.4522
  288MOL0     H38849   8.870  10.080   1.635  0.0215 -0.3462 -0.8996
  288MOL0     H38850   9.086  10.288   1.678  1.6336  0.7572 -1.5928
  288MOL0     H38851   8.926  10.324   1.648  1.1803  0.5721  0.4982
  288MOL0     H38852   8.951  10.254   1.399  1.3593 -1.6166 -1.0917
  288MOL0     H38853   9.125  10.221   1.447  1.6294  1.9507  2.0852
  288MOL0     H38854   8.975  10.481   1.458 -1.4314 -1.3988 -0.8999
  288MOL0     H38855   9.148  10.463   1.517  0.1472  1.3367  0.0709
  288MOL0     H38856   9.075  10.413   1.224  2.8998 -0.1433 -1.5969
  288MOL0     H38857   9.222  10.398   1.311 -0.4127 -0.2823 -2.2242
  288MOL0     H38858   9.104  10.647   1.219 -0.5526 -0.6913 -0.1594
  288MOL0     H38859   9.166  10.663   1.379 -0.8210  0.1313 -1.0001
  288MOL0     H38860   8.869   9.731   1.921 -1.9860 -0.3212  0.6373
  288MOL0     H38861   8.791   9.537   2.073 -1.2416 -0.6578  3.0915
  288MOL0     H38862   8.806   9.264   2.473 -0.0753 -0.2094 -1.2609
  288MOL0     H38863   8.690   9.109   2.612 -2.0427 -1.8278 -0.1588
  288MOL0     H38864   7.936   9.282   3.176  1.1228 -0.6946 -1.7707
  288MOL0     H38865   8.142   9.419   3.296  2.1950 -0.3335  2.7421
  288MOL0     H38866   8.527   9.433   3.383  1.8787  2.6148 -1.2591
  288MOL0     H38867   8.761   9.527   3.431 -0.5622 -0.5774 -0.0310
  288MOL0     H38868   8.973   9.277   3.667  1.2201 -0.0973 -1.2530
  288MOL0     H38869   9.063   9.393   3.749 -0.1969 -4.6919  0.7623
  288MOL0     H38870   9.197   9.341   3.578 -0.8917 -0.6114  2.0830
  288MOL0     H38871   9.125   9.489   3.505  1.2264  0.8399  3.2991
  288MOL0     H38872   8.963   9.333   3.378 -0.3822 -0.4358 -0.4141
  288MOL0     H38873   9.050   9.190   3.432 -0.4790 -0.0168 -1.1316
  288MOL0     H38874   9.116   9.410   3.254  2.5629 -0.8700 -0.9658
  288MOL0     H38875   9.259   9.336   3.319  1.0395 -3.3328 -1.2898
  288MOL0     H38876   9.101   9.064   3.037 -2.5459  1.8581  0.2057
  288MOL0     H38877   8.788   9.327   3.791 -1.2127 -0.1245  0.5277
  288MOL0     H38878   8.473   9.289   3.847  0.2801  1.0442 -0.4978
  288MOL0     H38879   8.495   9.127   3.787  0.3327  1.3990  0.2411
  288MOL0     H38880   8.630   9.187   3.875  1.0816 -0.3123 -1.1117
  289MOL0     O38881   8.099   4.528  10.418  0.3570  0.0051  0.7454
  289MOL0     C38882   8.081   4.417  10.465  0.1518  0.1109  0.2055
  289MOL0     O38883   7.970   4.379  10.523 -0.1996  0.4925 -0.6655
  289MOL0     C38884   7.867   4.448  10.568 -0.1671  0.0179 -0.3151
  289MOL0     C38885   7.868   4.593  10.575  0.2464 -0.0049 -0.5275
  289MOL0     C38886   7.755   4.656  10.629 -0.1241 -0.0914  0.2373
  289MOL0     C38887   7.647   4.587  10.683  0.3301 -0.3380  0.0567
  289MOL0     O38888   7.537   4.653  10.737  0.5534 -0.1666 -0.2469
  289MOL0     C38889   7.467   4.762  10.665  0.6253 -0.6950 -0.1766
  289MOL0     C38890   7.417   4.872  10.755 -0.6940  0.5496  0.2411
  289MOL0     C38891   7.525   4.953  10.833 -0.2843  0.1868  0.8202
  289MOL0     C38892   7.572   5.090  10.764  0.5204  0.9857  0.6318
  289MOL0     C38893   7.713   5.120  10.806 -0.1294  0.6215 -0.2368
  289MOL0     C38894   7.759   5.257  10.754  0.5535 -0.5751  0.4322
  289MOL0     C38895   7.907   5.273  10.769 -0.3384 -0.5862  0.0919
  289MOL0     C38896   7.957   5.412  10.744  0.2000 -0.5789 -0.0837
  289MOL0     N38897   8.104   5.436  10.727 -0.1462  0.3466 -0.2481
  289MOL0     C38898   8.193   5.353  10.663  0.4035  0.4003  0.7204
  289MOL0     C38899   8.307   5.426  10.672  0.8194 -0.6229 -1.0616
  289MOL0     C38900   8.423   5.373  10.598  0.4321  0.1996 -1.0730
  289MOL0     C38901   8.426   5.431  10.455  0.2172  0.5149 -0.9165
  289MOL0     C38902   8.550   5.393  10.369  0.8466 -0.3249 -1.1682
  289MOL0     C38903   8.563   5.441  10.223  0.1272  0.2948 -0.2341
  289MOL0     O38904   8.450   5.394  10.146 -0.0136 -0.1911  0.4811
  289MOL0     C38905   8.451   5.407  10.006  0.3829  0.2435  0.3815
  289MOL0     C38906   8.352   5.337   9.928 -0.1608  0.5029  0.7222
  289MOL0     C38907   8.347   5.326   9.787  0.0415 -0.2450 -1.1028
  289MOL0     C38908   8.428   5.408   9.710  0.0315  0.9278 -0.8393
  289MOL0     C38909   8.406   5.412   9.565 -0.5847 -0.6386  0.2174
  289MOL0     O38910   8.310   5.334   9.518  1.0847  0.0681 -0.7708
  289MOL0     C38911   8.277   5.336   9.383 -0.3559 -1.5224  0.4425
  289MOL0     C38912   8.169   5.423   9.352 -0.0566 -0.8598  0.0825
  289MOL0     C38913   8.127   5.438   9.219  0.1077  0.0934 -0.1054
  289MOL0     C38914   8.180   5.361   9.116  0.0317  0.1455  0.6103
  289MOL0     O38915   8.139   5.386   8.995  0.0223  1.0575 -0.3788
  289MOL0     C38916   8.123   5.261   8.917  0.1873 -0.8685  0.1294
  289MOL0     C38917   8.050   5.270   8.785 -0.2242 -0.4417 -0.8047
  289MOL0     C38918   7.910   5.322   8.803  0.4557 -0.2850  0.5855
  289MOL0     C38919   7.917   5.471   8.767  0.1049 -0.9879 -0.7939
  289MOL0     C38920   7.775   5.538   8.766  0.5442  0.0676  0.6508
  289MOL0     C38921   7.753   5.650   8.670 -0.0939 -0.1065 -0.5883
  289MOL0     C38922   7.634   5.736   8.708  0.0775  0.2067  1.1547
  289MOL0     C38923   7.584   5.830   8.596  0.2617  0.3411 -0.8645
  289MOL0    Cl38924   7.432   5.905   8.644  0.2159 -0.2296  0.2252
  289MOL0     C38925   8.285   5.266   9.154  0.9320  0.0174 -0.4212
  289MOL0     C38926   8.332   5.263   9.281 -0.3051 -0.1783  0.4395
  289MOL0     O38927   8.476   5.491   9.498  0.5784 -0.9091 -0.0974
  289MOL0     C38928   8.532   5.477   9.786 -0.1617  0.0166  0.2409
  289MOL0     C38929   8.532   5.486   9.926 -0.0967 -0.6461 -0.5362
  289MOL0     N38930   8.289   5.544  10.735 -0.1558 -0.4723  0.4802
  289MOL0     N38931   8.164   5.547  10.775  0.0931 -0.1346  0.7158
  289MOL0     C38932   7.644   4.448  10.674  0.1994 -0.2144 -0.5831
  289MOL0     C38933   7.749   4.380  10.617 -0.4349 -0.1422 -0.5125
  289MOL0     C38934   8.196   4.319  10.467 -0.1620 -0.1385  0.1337
  289MOL0     C38935   8.281   4.317  10.355 -0.2055  0.9436  0.3106
  289MOL0     C38936   8.381   4.216  10.344  0.5661 -0.2227 -0.1823
  289MOL0     C38937   8.398   4.125  10.449  0.8371  0.1438  0.7142
  289MOL0     O38938   8.494   4.029  10.457  0.8549 -0.2293  0.2664
  289MOL0     C38939   8.604   4.026  10.368  0.3123 -0.0523  0.0952
  289MOL0     C38940   8.695   3.920  10.430 -0.1501 -0.1220 -0.2543
  289MOL0     C38941   8.820   3.886  10.338 -0.3039 -0.4339 -0.9376
  289MOL0     C38942   8.779   3.819  10.207  0.2059  0.2450  0.6619
  289MOL0     C38943   8.700   3.691  10.221  0.1655 -1.0967  0.7317
  289MOL0     C38944   8.658   3.577  10.199 -0.2849  0.1895  0.0231
  289MOL0     C38945   8.312   4.127  10.555  0.5612 -0.2369 -1.3809
  289MOL0     C38946   8.208   4.220  10.569  0.5466  0.4866  0.2994
  289MOL0     C38947   8.117   4.209  10.690  0.0138  0.5253  0.6958
  289MOL0     H38948   7.956   4.650  10.548  0.2507  0.6481  0.7719
  289MOL0     H38949   7.756   4.763  10.648  1.5451  0.4626 -2.3872
  289MOL0     H38950   7.538   4.807  10.595 -0.0920 -1.5273 -1.4792
  289MOL0     H38951   7.391   4.731  10.592 -0.8339  3.5503 -0.7249
  289MOL0     H38952   7.362   4.813  10.829  1.3225 -2.6135 -0.5653
  289MOL0     H38953   7.345   4.934  10.700  0.3405  1.2758 -0.3270
  289MOL0     H38954   7.615   4.891  10.843  0.3286  0.6102 -1.4072
  289MOL0     H38955   7.490   4.966  10.936  0.0992  0.7429  0.8880
  289MOL0     H38956   7.567   5.079  10.655 -1.4894  0.7354  0.7128
  289MOL0     H38957   7.504   5.169  10.795 -0.2865 -0.4346  2.6858
  289MOL0     H38958   7.716   5.124  10.915  1.3769  4.1224 -0.2805
  289MOL0     H38959   7.776   5.039  10.766 -0.2805  1.6349 -2.7266
  289MOL0     H38960   7.735   5.259  10.647  1.9422 -1.4428  0.0822
  289MOL0     H38961   7.709   5.330  10.818  0.3406 -0.6675  0.3732
  289MOL0     H38962   7.956   5.218  10.688  2.1529 -0.8738  1.6725
  289MOL0     H38963   7.938   5.231  10.866 -1.9221 -3.0353 -0.3784
  289MOL0     H38964   7.907   5.439  10.651 -2.1218 -3.0687  0.3221
  289MOL0     H38965   7.925   5.481  10.823  2.1076  0.9250 -0.5421
  289MOL0     H38966   8.182   5.264  10.601 -4.6421  0.7801  0.6852
  289MOL0     H38967   8.512   5.403  10.653  0.2930 -0.0772 -0.6894
  289MOL0     H38968   8.429   5.264  10.595 -0.0545  0.1023  0.5204
  289MOL0     H38969   8.341   5.385  10.403  0.3417 -0.7994 -0.0065
  289MOL0     H38970   8.424   5.541  10.462  2.0448  0.5327 -0.1391
  289MOL0     H38971   8.564   5.286  10.382 -0.5891 -0.1777  3.5164
  289MOL0     H38972   8.637   5.437  10.418  1.2650 -0.8833 -1.4057
  289MOL0     H38973   8.643   5.393  10.166 -1.7055  1.8120 -4.5112
  289MOL0     H38974   8.563   5.549  10.208  2.4692  0.8960  3.0422
  289MOL0     H38975   8.266   5.291   9.975 -0.8672  1.1029  0.0414
  289MOL0     H38976   8.283   5.255   9.735 -3.0491  1.2950  0.3144
  289MOL0     H38977   8.143   5.500   9.425  1.4695 -1.5919  1.4637
  289MOL0     H38978   8.050   5.509   9.190 -1.2255 -2.0436 -2.1901
  289MOL0     H38979   8.214   5.214   8.878  0.9268  1.0772 -0.5689
  289MOL0     H38980   8.070   5.193   8.985 -0.0917  0.6608  1.5054
  289MOL0     H38981   8.103   5.332   8.712 -2.9034  2.1546 -0.7635
  289MOL0     H38982   8.034   5.169   8.745 -0.7185 -1.5829  2.0413
  289MOL0     H38983   7.839   5.264   8.744 -1.2672  0.2577  2.0284
  289MOL0     H38984   7.886   5.306   8.909 -0.2227 -0.0755  0.4705
  289MOL0     H38985   7.967   5.484   8.671  0.7997 -1.5764 -0.5214
  289MOL0     H38986   7.968   5.532   8.842  0.5317  0.0533 -1.8969
  289MOL0     H38987   7.740   5.569   8.865 -0.4997 -0.9507  0.6144
  289MOL0     H38988   7.705   5.459   8.739 -0.0152 -0.0612  2.3980
  289MOL0     H38989   7.830   5.727   8.664 -1.4097  1.3419  0.3519
  289MOL0     H38990   7.735   5.614   8.568 -1.1519  2.0277 -1.2279
  289MOL0     H38991   7.647   5.786   8.805 -1.9891  1.2516  0.9500
  289MOL0     H38992   7.546   5.674   8.724 -0.3697  1.0905  2.2546
  289MOL0     H38993   7.667   5.901   8.589  3.2747 -3.0342 -3.6018
  289MOL0     H38994   7.578   5.791   8.494  0.7792 -2.1930 -0.0015
  289MOL0     H38995   8.336   5.201   9.084  1.1933 -1.2490  0.8987
  289MOL0     H38996   8.406   5.192   9.318 -0.0057 -1.1253 -1.8164
  289MOL0     H38997   8.608   5.523   9.723 -0.7964 -1.0270 -1.3423
  289MOL0     H38998   8.595   5.568   9.962 -2.4522  1.1526 -0.2359
  289MOL0     H38999   7.554   4.392  10.698 -0.5399  2.0929  2.8418
  289MOL0     H39000   7.731   4.275  10.602 -2.9304  0.4004 -1.7851
  289MOL0     H39001   8.246   4.381  10.275 -0.3549 -1.1283 -1.3775
  289MOL0     H39002   8.457   4.221  10.267  2.6121  1.2656  1.8043
  289MOL0     H39003   8.664   4.116  10.351  2.6237 -0.7114  3.7954
  289MOL0     H39004   8.564   3.986  10.274 -0.8414  1.2067  0.0124
  289MOL0     H39005   8.632   3.837  10.465  0.4124  1.7377  6.6011
  289MOL0     H39006   8.731   3.967  10.522 -2.3796  1.4650 -0.1237
  289MOL0     H39007   8.883   3.818  10.396 -0.4318 -1.6507 -2.1637
  289MOL0     H39008   8.887   3.970  10.318 -0.0768 -0.9722 -2.6155
  289MOL0     H39009   8.727   3.884  10.136  3.0112  0.5453 -1.2774
  289MOL0     H39010   8.871   3.794  10.154  0.1448 -0.6176  0.9472
  289MOL0     H39011   8.644   3.482  10.152  4.2596  0.7421 -2.9945
  289MOL0     H39012   8.328   4.043  10.621  0.6265  0.5838 -0.3285
  289MOL0     H39013   8.145   4.141  10.770  1.0530 -0.2295 -0.2687
  289MOL0     H39014   8.110   4.305  10.742 -3.3749 -0.8335  3.1242
  289MOL0     H39015   8.011   4.192  10.666 -0.2161  0.6330  1.5972
  290MOL0     O39016   0.935   6.599   6.750 -0.5117 -0.8657 -0.0547
  290MOL0     C39017   0.961   6.720   6.774 -0.7177  0.4295  0.4694
  290MOL0     O39018   0.900   6.792   6.866  0.1740  0.4954  0.0425
  290MOL0     C39019   0.841   6.728   6.975  0.2796  0.2881  0.8602
  290MOL0     C39020   0.892   6.614   7.041  0.8447  0.2176 -0.0978
  290MOL0     C39021   0.826   6.567   7.163 -0.0505  0.4595  0.8471
  290MOL0     C39022   0.724   6.639   7.224  0.2309 -0.4608  0.3654
  290MOL0     O39023   0.655   6.613   7.338  0.4084 -0.0508 -0.6609
  290MOL0     C39024   0.633   6.467   7.348  1.2176  0.6442 -0.0501
  290MOL0     C39025   0.523   6.460   7.461 -0.4723  1.0822  0.1937
  290MOL0     C39026   0.595   6.499   7.589  0.9034 -0.3975  0.3956
  290MOL0     C39027   0.500   6.529   7.706 -0.1365  0.4826 -0.1160
  290MOL0     C39028   0.569   6.606   7.821  0.8673  0.3997 -0.3002
  290MOL0     C39029   0.476   6.631   7.941 -0.4959 -0.5727  0.2161
  290MOL0     C39030   0.548   6.692   8.059 -0.4922  0.2474 -0.3396
  290MOL0     C39031   0.510   6.840   8.058  1.1574 -0.9426 -0.2073
  290MOL0     N39032   0.375   6.888   8.102  0.0946  0.2187 -0.6406
  290MOL0     C39033   0.313   6.873   8.229 -0.6052 -0.1626 -0.2118
  290MOL0     C39034   0.183   6.899   8.208  0.0911 -0.4340  0.2164
  290MOL0     C39035   0.070   6.893   8.311 -0.2841  1.0920  0.0885
  290MOL0     C39036   0.046   7.020   8.383  1.3605 -0.6414 -0.3351
  290MOL0     C39037   0.127   7.025   8.512 -0.2379 -0.3817  0.2069
  290MOL0     C39038   0.135   7.159   8.578  0.1833 -0.9842 -0.4785
  290MOL0     O39039   0.183   7.279   8.501  1.1599 -0.5349  1.1479
  290MOL0     C39040   0.315   7.274   8.458  0.5723 -0.0626 -0.3703
  290MOL0     C39041   0.336   7.262   8.323 -0.0366 -0.0086  0.2126
  290MOL0     C39042   0.458   7.251   8.260  1.0235 -0.5131 -0.3125
  290MOL0     C39043   0.575   7.268   8.339  0.6875  0.0598  0.2184
  290MOL0     C39044   0.710   7.273   8.283  0.4552 -0.1246  0.5324
  290MOL0     O39045   0.719   7.266   8.143 -0.5984  0.4492  0.1592
  290MOL0     C39046   0.843   7.251   8.078  0.1003  0.5781 -0.3463
  290MOL0     C39047   0.835   7.213   7.945  0.0088  0.5465 -0.4890
  290MOL0     C39048   0.943   7.187   7.865  0.1421  0.1286 -0.7957
  290MOL0     C39049   1.080   7.210   7.910  0.3739 -0.2998  0.1876
  290MOL0     O39050   1.182   7.183   7.818  0.6811  0.0072 -0.3618
  290MOL0     C39051   1.322   7.189   7.853 -0.4194  0.7251  0.1196
  290MOL0     C39052   1.417   7.209   7.734 -0.2622 -0.1947  0.6305
  290MOL0     C39053   1.417   7.095   7.625 -0.9610  0.4127  0.2835
  290MOL0     C39054   1.444   7.161   7.493  1.3462  0.0610 -1.4582
  290MOL0     C39055   1.414   7.086   7.365 -0.8240  0.3354 -0.8829
  290MOL0     C39056   1.409   7.171   7.239  0.3011  0.3719  1.0931
  290MOL0     C39057   1.475   7.098   7.114  0.8644  0.7194  0.3563
  290MOL0     C39058   1.447   6.952   7.107 -0.9679  0.1075  0.1391
  290MOL0    Cl39059   1.501   6.898   6.949 -0.1041  0.3782 -0.2258
  290MOL0     C39060   1.095   7.243   8.048 -0.0770 -1.0190  0.1650
  290MOL0     C39061   0.980   7.270   8.122 -0.3356  0.3248 -0.1047
  290MOL0     O39062   0.801   7.257   8.366 -0.1361 -0.3345 -0.7887
  290MOL0     C39063   0.548   7.281   8.478  0.0204  0.0502 -0.1394
  290MOL0     C39064   0.425   7.288   8.541  0.3899  0.1892 -0.1458
  290MOL0     N39065   0.161   6.914   8.069  0.1890  0.7166 -0.1314
  290MOL0     N39066   0.280   6.905   8.004 -0.7203 -0.4586 -0.2148
  290MOL0     C39067   0.674   6.751   7.155 -0.1682  0.3265 -0.3643
  290MOL0     C39068   0.726   6.787   7.029  0.3742  0.5870  0.2735
  290MOL0     C39069   1.074   6.785   6.700  0.7254  0.0200  0.0556
  290MOL0     C39070   1.151   6.879   6.769  0.1828 -0.0170  0.9658
  290MOL0     C39071   1.269   6.932   6.721 -0.9696  0.1223  0.3192
  290MOL0     C39072   1.312   6.884   6.596  0.5125  0.4700 -0.2730
  290MOL0     O39073   1.422   6.932   6.526  0.3895  0.1681 -0.5130
  290MOL0     C39074   1.500   7.036   6.589 -0.3734  0.6969  0.6057
  290MOL0     C39075   1.434   7.176   6.582 -0.6435 -0.6730  0.3351
  290MOL0     C39076   1.446   7.236   6.432 -0.4772  0.8495 -0.3126
  290MOL0     C39077   1.367   7.148   6.334  0.1424  0.0174 -0.0084
  290MOL0     C39078   1.342   7.208   6.209  0.0693 -0.5859  0.5056
  290MOL0     C39079   1.305   7.257   6.098 -0.5261  0.1485 -0.1968
  290MOL0     C39080   1.229   6.803   6.522 -0.0934  0.0480  0.3007
  290MOL0     C39081   1.119   6.748   6.574 -0.2294  0.3223 -0.2554
  290MOL0     C39082   1.032   6.664   6.481 -0.1947  0.1440  1.1266
  290MOL0     H39083   0.974   6.560   6.996  1.4237  1.7728 -0.9492
  290MOL0     H39084   0.871   6.478   7.205  0.3472 -1.0964 -2.4945
  290MOL0     H39085   0.585   6.424   7.259  1.1959 -1.8544  1.1030
  290MOL0     H39086   0.715   6.403   7.381  0.0067 -0.9776 -0.0660
  290MOL0     H39087   0.483   6.359   7.460 -0.0987  0.9318  0.1336
  290MOL0     H39088   0.442   6.529   7.435 -1.5019 -0.4206 -0.7122
  290MOL0     H39089   0.661   6.585   7.576  1.4802 -0.7514  0.9248
  290MOL0     H39090   0.667   6.424   7.622  0.0867  0.1711  3.9382
  290MOL0     H39091   0.415   6.586   7.670 -0.7023  0.0314  0.4884
  290MOL0     H39092   0.459   6.432   7.737  2.1451  0.7164  4.4097
  290MOL0     H39093   0.651   6.557   7.874  0.3442 -1.1975 -0.8947
  290MOL0     H39094   0.615   6.690   7.768 -0.3233 -0.5806 -3.1314
  290MOL0     H39095   0.389   6.684   7.901  1.3011  1.3212 -1.3733
  290MOL0     H39096   0.440   6.534   7.978  1.7433 -1.5403  0.0241
  290MOL0     H39097   0.656   6.683   8.047 -0.3898  1.3751 -0.3403
  290MOL0     H39098   0.519   6.649   8.155  1.6011 -1.7049 -0.4966
  290MOL0     H39099   0.581   6.873   8.133 -1.0518 -0.0811  1.6361
  290MOL0     H39100   0.524   6.881   7.957 -1.4935 -0.0254 -0.2944
  290MOL0     H39101   0.359   6.850   8.324 -1.9077  3.4073  1.4984
  290MOL0     H39102  -0.023   6.863   8.262 -0.0462  0.4548  0.0163
  290MOL0     H39103   0.084   6.814   8.386 -2.1864  1.0516  0.4536
  290MOL0     H39104   0.084   7.096   8.314  0.6425 -2.7143 -3.1901
  290MOL0     H39105  -0.061   7.035   8.398  1.4380 -0.5081  0.1160
  290MOL0     H39106   0.225   6.985   8.485 -0.1799 -1.0139  1.3294
  290MOL0     H39107   0.088   6.957   8.588 -0.3972 -0.9055 -0.3377
  290MOL0     H39108   0.189   7.152   8.673 -0.7274 -1.3634  0.0184
  290MOL0     H39109   0.033   7.178   8.612  0.1540 -2.8639  0.5925
  290MOL0     H39110   0.254   7.238   8.255 -1.4626 -0.4897  2.0159
  290MOL0     H39111   0.455   7.242   8.151 -2.7687  0.7110 -0.4626
  290MOL0     H39112   0.748   7.197   7.883  1.3333  1.5514 -2.7344
  290MOL0     H39113   0.931   7.177   7.758 -0.1571  2.0915 -0.9767
  290MOL0     H39114   1.354   7.264   7.926  0.9547 -0.6561  0.9755
  290MOL0     H39115   1.337   7.092   7.902 -5.2862  0.3360  1.4127
  290MOL0     H39116   1.398   7.307   7.691 -4.0126 -1.6140 -1.4441
  290MOL0     H39117   1.520   7.199   7.768  0.6487 -0.3416 -1.9566
  290MOL0     H39118   1.494   7.022   7.653 -1.5868  0.5447  2.5417
  290MOL0     H39119   1.318   7.047   7.622 -1.5774  1.5083  1.9601
  290MOL0     H39120   1.549   7.193   7.491  0.5008  3.7551  2.0112
  290MOL0     H39121   1.383   7.251   7.497  0.5140 -0.5251 -0.0138
  290MOL0     H39122   1.323   7.030   7.391  0.9919 -1.3961  2.4146
  290MOL0     H39123   1.487   7.006   7.350  1.3603  1.6347  1.8484
  290MOL0     H39124   1.304   7.198   7.219 -0.0107 -0.3311  1.7305
  290MOL0     H39125   1.462   7.265   7.256 -1.6856  1.8058 -0.1740
  290MOL0     H39126   1.584   7.110   7.115  0.6604  2.9978  0.2277
  290MOL0     H39127   1.441   7.145   7.021  2.3365 -2.8663 -2.2391
  290MOL0     H39128   1.503   6.884   7.171 -0.3442 -1.4860 -1.9645
  290MOL0     H39129   1.340   6.929   7.098 -0.3986 -1.8318 -4.5419
  290MOL0     H39130   1.187   7.256   8.104 -1.5017 -1.6098  2.8210
  290MOL0     H39131   0.983   7.308   8.224  0.6228 -2.3562  0.9306
  290MOL0     H39132   0.636   7.311   8.534  1.4772 -0.2823 -2.1540
  290MOL0     H39133   0.424   7.308   8.648  1.7317  1.9151 -0.4167
  290MOL0     H39134   0.592   6.814   7.188  0.1079  2.2120 -2.9838
  290MOL0     H39135   0.691   6.874   6.974  2.1348  2.4048  1.8634
  290MOL0     H39136   1.122   6.905   6.871  1.5060 -1.1216  1.6538
  290MOL0     H39137   1.333   6.999   6.777  1.5252  0.3218 -2.4926
  290MOL0     H39138   1.592   7.047   6.532 -0.6545  0.2590  0.0606
  290MOL0     H39139   1.531   7.009   6.690 -0.7471  0.2814  0.6174
  290MOL0     H39140   1.476   7.244   6.657 -1.6766 -2.0394  2.2430
  290MOL0     H39141   1.330   7.165   6.614 -0.1092 -2.0966  1.7045
  290MOL0     H39142   1.553   7.244   6.411 -0.4188  0.1175 -0.3501
  290MOL0     H39143   1.402   7.335   6.427 -3.1520 -0.1829  1.0533
  290MOL0     H39144   1.408   7.047   6.321  0.6273  0.2077  0.0525
  290MOL0     H39145   1.271   7.128   6.384 -1.6440  0.4270 -2.9917
  290MOL0     H39146   1.276   7.283   5.998 -4.2340  0.0688  0.7109
  290MOL0     H39147   1.256   6.769   6.422 -0.3547  2.4567 -0.6478
  290MOL0     H39148   1.033   6.563   6.522  2.3233 -0.4239 -0.1718
  290MOL0     H39149   0.934   6.712   6.476 -0.0054  0.4325 -1.9604
  290MOL0     H39150   1.074   6.660   6.380  1.8283 -0.5310  1.9517
  291MOL0     O39151   4.712   2.682   4.197 -0.5378 -0.1875  0.3124
  291MOL0     C39152   4.621   2.619   4.135 -0.4762 -0.3308 -0.1505
  291MOL0     O39153   4.509   2.567   4.197 -0.5158 -0.0184  0.4754
  291MOL0     C39154   4.503   2.545   4.331  1.0314  0.1367 -0.0803
  291MOL0     C39155   4.504   2.415   4.374 -0.5683 -0.4478  0.2666
  291MOL0     C39156   4.490   2.390   4.508 -0.5523  0.7040 -0.1580
  291MOL0     C39157   4.482   2.492   4.602  1.0249 -0.5660  0.6039
  291MOL0     O39158   4.469   2.462   4.731 -0.2406 -0.2286  0.6540
  291MOL0     C39159   4.538   2.527   4.846  0.5242 -1.5892  0.0360
  291MOL0     C39160   4.651   2.453   4.888 -0.2465  1.6498 -1.1187
  291MOL0     C39161   4.622   2.301   4.902  0.0440 -0.5950  0.1471
  291MOL0     C39162   4.746   2.226   4.949  0.8079  0.2881  0.5818
  291MOL0     C39163   4.852   2.209   4.847  0.3984 -1.1488 -0.1213
  291MOL0     C39164   4.975   2.131   4.915  1.1816  0.5766 -0.2810
  291MOL0     C39165   5.083   2.112   4.815 -0.4001  0.4457  0.3529
  291MOL0     C39166   5.086   1.980   4.729  0.2233  0.6332  0.5117
  291MOL0     N39167   5.197   1.995   4.638 -0.7216  0.7483  0.3470
  291MOL0     C39168   5.206   2.062   4.520 -0.0387 -0.6476 -0.4853
  291MOL0     C39169   5.328   2.038   4.477 -0.3669 -0.3510 -0.6210
  291MOL0     C39170   5.386   2.109   4.351 -0.7211  0.0137 -0.9536
  291MOL0     C39171   5.452   2.238   4.387 -0.1890 -0.1563  0.2734
  291MOL0     C39172   5.480   2.333   4.261  0.1501  0.5659  0.9864
  291MOL0     C39173   5.474   2.476   4.312  0.7772 -0.1522  0.4223
  291MOL0     O39174   5.532   2.557   4.210 -0.4165 -0.0118  0.3157
  291MOL0     C39175   5.545   2.695   4.211 -1.6217 -0.4066 -0.8186
  291MOL0     C39176   5.469   2.776   4.297  0.5191 -0.5287 -0.1773
  291MOL0     C39177   5.469   2.920   4.291  0.0264  0.2205  0.7325
  291MOL0     C39178   5.533   2.980   4.178 -0.0014  0.0331  0.1238
  291MOL0     C39179   5.550   3.124   4.159  0.8642 -0.1010 -0.2922
  291MOL0     O39180   5.531   3.211   4.260 -0.2477  0.4943 -0.3240
  291MOL0     C39181   5.535   3.344   4.226 -0.2922  0.0488 -1.0707
  291MOL0     C39182   5.662   3.407   4.208 -0.3108  0.0490  0.2711
  291MOL0     C39183   5.664   3.544   4.171 -0.4236  0.4122  0.4118
  291MOL0     C39184   5.548   3.621   4.161  0.6050  0.6061  0.0564
  291MOL0     O39185   5.566   3.755   4.135 -0.3820  0.5086 -0.5450
  291MOL0     C39186   5.454   3.828   4.093  0.9491 -0.6679 -0.1011
  291MOL0     C39187   5.505   3.969   4.069 -0.5422  0.9304  0.0622
  291MOL0     C39188   5.394   4.065   4.042 -0.7867  0.4928 -0.1587
  291MOL0     C39189   5.451   4.184   3.951  0.4565  0.6048 -0.2242
  291MOL0     C39190   5.343   4.292   3.928 -0.0608 -0.5619 -0.0859
  291MOL0     C39191   5.220   4.236   3.849  0.2053  0.4168  0.6333
  291MOL0     C39192   5.249   4.165   3.711 -0.0542  0.2029 -0.9205
  291MOL0     C39193   5.314   4.274   3.615  0.2360  0.3522 -0.8088
  291MOL0    Cl39194   5.194   4.371   3.544 -0.1306  0.0881 -0.2563
  291MOL0     C39195   5.426   3.555   4.197  0.8836 -0.7363  0.0200
  291MOL0     C39196   5.415   3.416   4.228  0.2292 -1.6661 -0.5626
  291MOL0     O39197   5.573   3.167   4.041 -0.6762 -0.0945 -0.1011
  291MOL0     C39198   5.607   2.898   4.090  0.6288  0.5062 -0.3101
  291MOL0     C39199   5.619   2.755   4.107  0.3322  0.0953  0.0748
  291MOL0     N39200   5.380   1.934   4.551  0.3952  0.1098 -0.2888
  291MOL0     N39201   5.300   1.908   4.646 -0.3864 -0.2992  0.6465
  291MOL0     C39202   4.462   2.630   4.558 -0.4841 -0.5113  1.0273
  291MOL0     C39203   4.468   2.653   4.413 -0.0635 -0.2002 -0.0089
  291MOL0     C39204   4.637   2.596   3.989  0.7736  0.5329  0.3612
  291MOL0     C39205   4.534   2.521   3.919 -1.0696  0.6457 -0.0688
  291MOL0     C39206   4.544   2.483   3.787  0.3485  0.3907 -0.2328
  291MOL0     C39207   4.662   2.498   3.721  0.6098  0.1996 -1.0629
  291MOL0     O39208   4.677   2.477   3.588  0.1660  0.3684  0.4243
  291MOL0     C39209   4.593   2.393   3.508 -0.2999 -0.2423 -0.2575
  291MOL0     C39210   4.585   2.251   3.559  0.2458 -0.0727 -0.6334
  291MOL0     C39211   4.451   2.188   3.497  0.3605 -1.1197  0.5480
  291MOL0     C39212   4.422   2.045   3.515 -0.2931 -0.4847  0.4110
  291MOL0     C39213   4.524   1.966   3.445  0.3620 -0.1033  0.8477
  291MOL0     C39214   4.612   1.907   3.393  0.7539  1.3441  0.1966
  291MOL0     C39215   4.767   2.569   3.776  0.5357  0.1934  0.6750
  291MOL0     C39216   4.759   2.615   3.914  0.0426 -0.0570  0.2868
  291MOL0     C39217   4.872   2.700   3.956  0.0684 -0.6419 -0.1004
  291MOL0     H39218   4.511   2.336   4.299 -3.2317 -0.2592 -0.2986
  291MOL0     H39219   4.492   2.286   4.540  0.3858  1.1325  1.2611
  291MOL0     H39220   4.572   2.624   4.808  2.0146 -1.1234  2.3586
  291MOL0     H39221   4.474   2.545   4.932  0.5947  1.4154 -0.4324
  291MOL0     H39222   4.674   2.489   4.989 -1.7136 -1.3568  0.4408
  291MOL0     H39223   4.743   2.469   4.831  2.0424 -0.4946  1.6682
  291MOL0     H39224   4.595   2.265   4.803 -0.7271 -0.2102  0.2149
  291MOL0     H39225   4.531   2.280   4.960  0.7531 -0.8061  1.2287
  291MOL0     H39226   4.798   2.262   5.038  1.1484 -0.3650  0.6546
  291MOL0     H39227   4.708   2.128   4.979  0.1630  0.1461 -0.6334
  291MOL0     H39228   4.832   2.146   4.760  1.8595 -2.3479  0.3663
  291MOL0     H39229   4.894   2.307   4.819  1.9256 -1.2776  1.5391
  291MOL0     H39230   5.002   2.196   4.999 -3.4248  2.1664  0.2963
  291MOL0     H39231   4.954   2.033   4.960 -0.7411  0.8793 -0.4035
  291MOL0     H39232   5.176   2.093   4.869 -0.3886  1.1851  0.6121
  291MOL0     H39233   5.092   2.198   4.747  0.6509  1.1400  1.3206
  291MOL0     H39234   5.097   1.894   4.796 -0.2782  0.0693 -0.1132
  291MOL0     H39235   4.987   1.977   4.683 -0.1777  1.8525  1.2817
  291MOL0     H39236   5.136   2.131   4.474 -2.0326 -2.7638 -0.7883
  291MOL0     H39237   5.448   2.030   4.307  3.0892  2.0963  0.2393
  291MOL0     H39238   5.313   2.135   4.274 -1.2291  2.4462  0.2597
  291MOL0     H39239   5.390   2.306   4.447  0.8269 -0.1068  1.3008
  291MOL0     H39240   5.545   2.220   4.443  0.8786  1.1977 -0.9568
  291MOL0     H39241   5.399   2.318   4.188  0.1836  2.3360  0.5504
  291MOL0     H39242   5.574   2.311   4.211 -0.2213  0.4436  0.3253
  291MOL0     H39243   5.523   2.490   4.409 -0.0545  0.4196  0.7691
  291MOL0     H39244   5.369   2.502   4.326  1.6339  3.1484  1.7360
  291MOL0     H39245   5.405   2.732   4.373  0.1610 -0.6004 -0.5167
  291MOL0     H39246   5.401   2.976   4.355 -1.1299 -0.0721 -0.1996
  291MOL0     H39247   5.755   3.351   4.213 -0.2402 -0.0904 -1.8228
  291MOL0     H39248   5.758   3.595   4.157  0.3511 -1.2877 -0.9894
  291MOL0     H39249   5.395   3.794   4.007  0.4738 -0.5033  0.1568
  291MOL0     H39250   5.379   3.836   4.172  1.3414  0.3146  0.1878
  291MOL0     H39251   5.568   4.009   4.149 -2.0854 -0.1733  1.9259
  291MOL0     H39252   5.566   3.967   3.978 -0.6008 -0.4209  0.0393
  291MOL0     H39253   5.312   4.010   3.994 -1.1916 -0.0515  1.1083
  291MOL0     H39254   5.353   4.105   4.135 -3.3763 -0.7079 -0.6975
  291MOL0     H39255   5.489   4.151   3.853  0.2161 -0.8135  0.1344
  291MOL0     H39256   5.536   4.228   4.003  0.5427  1.3278 -0.9525
  291MOL0     H39257   5.381   4.378   3.872 -2.1315  2.8566  3.2516
  291MOL0     H39258   5.323   4.323   4.031 -0.2196  2.3807 -0.9131
  291MOL0     H39259   5.161   4.160   3.901 -1.7895  1.0530 -0.5708
  291MOL0     H39260   5.155   4.323   3.831  1.9246  2.3538  3.0774
  291MOL0     H39261   5.163   4.104   3.681  0.8483 -2.1397  0.8927
  291MOL0     H39262   5.323   4.091   3.744 -0.7071 -0.1379 -0.1782
  291MOL0     H39263   5.396   4.330   3.662  2.1078 -1.6026 -1.5572
  291MOL0     H39264   5.369   4.216   3.540  3.5787  2.0061  0.1475
  291MOL0     H39265   5.333   3.610   4.200  2.1609  1.6983  4.4229
  291MOL0     H39266   5.316   3.372   4.241 -0.2123 -0.1870  1.9499
  291MOL0     H39267   5.659   2.944   4.007 -1.7739  3.3950 -0.3740
  291MOL0     H39268   5.677   2.691   4.042 -0.5143 -1.0936  0.4628
  291MOL0     H39269   4.417   2.706   4.620  2.2533  1.4944  0.7100
  291MOL0     H39270   4.446   2.753   4.377 -3.3180 -0.5446  0.7036
  291MOL0     H39271   4.449   2.490   3.979 -0.0152  0.1046  1.1800
  291MOL0     H39272   4.449   2.452   3.743  0.7037  0.0595 -0.7701
  291MOL0     H39273   4.612   2.388   3.401 -0.7073 -0.6792 -0.3161
  291MOL0     H39274   4.487   2.420   3.517 -0.5621 -0.3629 -2.5917
  291MOL0     H39275   4.589   2.256   3.668 -1.1399 -0.1548 -0.5597
  291MOL0     H39276   4.672   2.206   3.511  1.3433  3.0285 -1.7731
  291MOL0     H39277   4.470   2.205   3.391  2.6281 -0.2635  1.0217
  291MOL0     H39278   4.364   2.247   3.526 -0.1669 -2.5497  2.0986
  291MOL0     H39279   4.424   2.035   3.624 -0.1702  2.1431  0.7145
  291MOL0     H39280   4.320   2.027   3.481  0.4170 -0.4783 -1.8789
  291MOL0     H39281   4.691   1.844   3.356 -0.1125  0.1853  0.2903
  291MOL0     H39282   4.854   2.588   3.714  2.5915 -0.5321  3.1635
  291MOL0     H39283   4.927   2.755   3.880  0.7469  4.0161  3.3039
  291MOL0     H39284   4.836   2.783   4.018 -2.5866 -0.2050 -2.0656
  291MOL0     H39285   4.948   2.644   4.011  2.8480  0.6638 -2.4121
  292MOL0     O39286  11.287   1.313   9.971  0.0715 -0.0863 -0.0854
  292MOL0     C39287  11.206   1.325  10.064 -0.2528  0.7078  0.5818
  292MOL0     O39288  11.084   1.380  10.048  0.1030  0.7370 -0.0702
  292MOL0     C39289  11.044   1.410   9.921  0.6045 -0.0643 -0.0541
  292MOL0     C39290  11.124   1.472   9.824 -0.1247  0.0935  1.2806
  292MOL0     C39291  11.077   1.513   9.696  0.3752 -0.2417  0.8321
  292MOL0     C39292  10.947   1.478   9.655 -1.0140  0.2422 -0.7516
  292MOL0     O39293  10.905   1.496   9.531  0.1093  0.2772 -0.2580
  292MOL0     C39294  10.940   1.620   9.488 -0.6334 -0.2326  0.4616
  292MOL0     C39295  10.877   1.657   9.355 -0.5047  0.0910 -0.7081
  292MOL0     C39296  10.933   1.791   9.297  0.3278  0.4875 -0.3684
  292MOL0     C39297  10.826   1.845   9.205  0.1386 -0.0910 -0.8001
  292MOL0     C39298  10.867   1.968   9.128  0.6664 -0.2849 -0.0125
  292MOL0     C39299  10.767   1.981   9.004 -1.4539  0.5502  0.1593
  292MOL0     C39300  10.805   2.094   8.887 -0.1386 -0.0347  0.1587
  292MOL0     C39301  10.804   2.228   8.946  1.2852  0.7979  0.1326
  292MOL0     N39302  10.876   2.318   8.856 -0.2066 -0.3001  0.2992
  292MOL0     C39303  10.935   2.433   8.901  0.3588 -0.1203 -0.1083
  292MOL0     C39304  10.965   2.513   8.791 -1.0971  0.2082 -0.1661
  292MOL0     C39305  11.025   2.655   8.791  0.0155 -0.1233  0.0183
  292MOL0     C39306  11.154   2.655   8.870 -0.0022 -0.4047 -0.4660
  292MOL0     C39307  11.237   2.779   8.846 -0.7492  0.4012 -0.5661
  292MOL0     C39308  11.331   2.817   8.967  0.1485 -0.2492 -0.8621
  292MOL0     O39309  11.426   2.926   8.960 -0.7800  0.1178  0.2723
  292MOL0     C39310  11.545   2.913   8.895 -0.5155  0.1908  0.2433
  292MOL0     C39311  11.590   2.789   8.844 -0.2631 -0.1089  0.2892
  292MOL0     C39312  11.710   2.779   8.769  0.1203  0.0608  0.9238
  292MOL0     C39313  11.772   2.893   8.717 -0.0406  0.3137 -0.2434
  292MOL0     C39314  11.877   2.891   8.614  0.1958  0.3119  1.5999
  292MOL0     O39315  11.910   3.009   8.546 -0.5749  0.2873 -0.1223
  292MOL0     C39316  12.023   3.018   8.475  0.0134  0.3667  0.1295
  292MOL0     C39317  12.009   3.076   8.352 -0.8196 -0.1193  0.3527
  292MOL0     C39318  12.119   3.081   8.271 -0.6018  0.2473  0.3529
  292MOL0     C39319  12.252   3.040   8.311 -1.1990 -0.2805  0.1895
  292MOL0     O39320  12.366   3.056   8.236  0.1608 -0.2896  0.5777
  292MOL0     C39321  12.387   3.162   8.144  0.4603  0.1562 -0.0653
  292MOL0     C39322  12.436   3.282   8.227  0.9243 -0.9388  0.6765
  292MOL0     C39323  12.574   3.246   8.295 -0.7562 -0.0505  0.1256
  292MOL0     C39324  12.655   3.380   8.330  0.1318  0.2259 -0.5154
  292MOL0     C39325  12.791   3.365   8.380 -0.6946  0.0229 -0.9916
  292MOL0     C39326  12.804   3.321   8.530 -0.2974  0.2845 -0.6199
  292MOL0     C39327  12.944   3.276   8.578 -0.9604  0.7950  0.6896
  292MOL0     C39328  12.966   3.258   8.733  0.3652  0.6900  1.0689
  292MOL0    Cl39329  12.857   3.142   8.814  0.0303 -0.2864 -0.1700
  292MOL0     C39330  12.268   2.979   8.429  0.5135 -0.7710  0.1665
  292MOL0     C39331  12.155   2.975   8.514  0.2220  0.8296 -0.3836
  292MOL0     O39332  11.944   2.787   8.605 -0.5654 -0.6350 -0.3178
  292MOL0     C39333  11.719   3.016   8.757 -0.7210 -0.6168 -0.4150
  292MOL0     C39334  11.616   3.026   8.852 -0.6858 -0.3582 -0.4395
  292MOL0     N39335  10.930   2.433   8.684 -0.2523  0.3353  0.1274
  292MOL0     N39336  10.875   2.321   8.716  0.9378  0.1579  0.1654
  292MOL0     C39337  10.873   1.393   9.741 -0.4716  0.0020  0.5175
  292MOL0     C39338  10.920   1.361   9.874  0.0184  0.4475  0.6865
  292MOL0     C39339  11.250   1.285  10.209  0.0985  0.1652  0.3760
  292MOL0     C39340  11.187   1.363  10.307  0.8906 -1.0920 -0.1396
  292MOL0     C39341  11.216   1.344  10.446 -0.0342 -0.4307  0.1748
  292MOL0     C39342  11.305   1.239  10.490  0.0285 -0.5765  0.8958
  292MOL0     O39343  11.350   1.227  10.624 -0.2233 -0.6288  0.1545
  292MOL0     C39344  11.270   1.263  10.737  0.1835  0.7405  0.5296
  292MOL0     C39345  11.292   1.172  10.856 -1.2571  0.2328  0.5017
  292MOL0     C39346  11.410   1.220  10.944  0.0919  0.4143  0.6892
  292MOL0     C39347  11.389   1.345  11.024 -0.1018  0.6273 -0.4027
  292MOL0     C39348  11.359   1.333  11.168 -0.6891  0.0148  1.2352
  292MOL0     C39349  11.360   1.313  11.285 -0.8230  0.9698  0.1613
  292MOL0     C39350  11.370   1.168  10.382  0.6816 -1.1783 -0.4065
  292MOL0     C39351  11.346   1.187  10.249  0.7968  0.6145 -0.3651
  292MOL0     C39352  11.419   1.109  10.149 -0.9619  0.3307 -0.4340
  292MOL0     H39353  11.224   1.511   9.839  0.9877 -2.0829  0.0163
  292MOL0     H39354  11.141   1.585   9.645  2.0777 -1.7014  0.8296
  292MOL0     H39355  10.912   1.704   9.552 -0.9792  1.2111 -1.5182
  292MOL0     H39356  11.046   1.624   9.464 -0.8157 -1.5799 -0.6996
  292MOL0     H39357  10.769   1.663   9.371 -0.1655 -0.6434  2.3120
  292MOL0     H39358  10.911   1.588   9.277  0.3276  0.4803 -0.7122
  292MOL0     H39359  11.013   1.761   9.229  0.4472 -0.4811  0.1765
  292MOL0     H39360  10.963   1.855   9.380 -0.4063 -0.0969  0.3653
  292MOL0     H39361  10.803   1.768   9.130 -2.9708 -0.3959  0.2947
  292MOL0     H39362  10.733   1.861   9.262  0.9082 -0.3360  0.5736
  292MOL0     H39363  10.873   2.059   9.188  3.1909  0.0638 -0.6657
  292MOL0     H39364  10.969   1.957   9.088  0.9059  2.4030 -0.3539
  292MOL0     H39365  10.768   1.884   8.953 -1.3871 -1.6823  4.0015
  292MOL0     H39366  10.668   1.998   9.048 -1.8139  3.7184 -1.5295
  292MOL0     H39367  10.737   2.084   8.802 -4.1436 -1.4303  3.1830
  292MOL0     H39368  10.908   2.076   8.855 -0.5101 -1.4668 -0.2989
  292MOL0     H39369  10.700   2.259   8.961  1.7599  0.6542  5.5493
  292MOL0     H39370  10.853   2.236   9.043  1.0885  2.0903  0.1488
  292MOL0     H39371  10.945   2.471   9.002  0.7813 -1.8245  0.5243
  292MOL0     H39372  11.041   2.664   8.683 -1.0803 -1.4031 -0.2749
  292MOL0     H39373  10.953   2.733   8.816 -0.2483 -0.1271 -0.7149
  292MOL0     H39374  11.106   2.665   8.968  1.3207 -0.3010  0.1863
  292MOL0     H39375  11.207   2.562   8.849  0.4877 -0.2709  0.1814
  292MOL0     H39376  11.180   2.869   8.821 -0.6977  0.7281  0.4511
  292MOL0     H39377  11.300   2.748   8.762  0.3034  0.5334  0.1517
  292MOL0     H39378  11.374   2.724   9.002 -1.6671 -0.7032  0.3158
  292MOL0     H39379  11.265   2.843   9.051 -1.0946 -0.8894 -1.5981
  292MOL0     H39380  11.531   2.699   8.852 -2.8455  1.1960 -2.2643
  292MOL0     H39381  11.743   2.682   8.733 -1.0609  0.1100 -0.3638
  292MOL0     H39382  11.912   3.111   8.317  0.0268  2.0189 -0.0167
  292MOL0     H39383  12.083   3.111   8.173 -3.4468 -0.8297  0.9601
  292MOL0     H39384  12.463   3.130   8.073  0.3770 -0.4096  0.0977
  292MOL0     H39385  12.289   3.189   8.103 -1.8799 -3.8730  2.1993
  292MOL0     H39386  12.457   3.348   8.142  3.0379  0.2988  2.0595
  292MOL0     H39387  12.362   3.336   8.285  2.8225  4.1965 -1.0936
  292MOL0     H39388  12.557   3.181   8.381  1.2869 -1.2097 -0.2679
  292MOL0     H39389  12.638   3.183   8.232  0.4223  0.6898  0.5369
  292MOL0     H39390  12.595   3.446   8.393 -0.9989  0.5785 -1.9182
  292MOL0     H39391  12.668   3.426   8.231 -3.3638  1.0603 -0.7088
  292MOL0     H39392  12.850   3.457   8.381 -2.6067  1.3080 -0.7652
  292MOL0     H39393  12.843   3.291   8.318  0.3907 -1.8879  1.9623
  292MOL0     H39394  12.786   3.410   8.591  0.7729 -2.0038  3.4139
  292MOL0     H39395  12.737   3.243   8.565  0.7964  0.8912  3.4091
  292MOL0     H39396  13.021   3.334   8.527 -0.6701 -1.2197 -1.2962
  292MOL0     H39397  12.964   3.175   8.542  3.3833  1.9484 -0.7109
  292MOL0     H39398  13.065   3.245   8.776 -0.8299 -0.4882  3.6897
  292MOL0     H39399  12.951   3.360   8.771  0.7154  1.1996 -0.1007
  292MOL0     H39400  12.363   2.936   8.458  1.3135  0.4458 -0.5342
  292MOL0     H39401  12.167   2.930   8.612  1.8909  0.0150 -0.9221
  292MOL0     H39402  11.760   3.112   8.726 -1.5352 -0.3067 -0.5447
  292MOL0     H39403  11.569   3.112   8.898 -3.1028 -1.9746  0.3192
  292MOL0     H39404  10.780   1.355   9.701  0.4461 -0.4339 -1.2810
  292MOL0     H39405  10.858   1.316   9.951 -0.6550  2.6687  1.5152
  292MOL0     H39406  11.111   1.440  10.296  1.1320 -1.0109 -1.4807
  292MOL0     H39407  11.171   1.415  10.514  1.2840  1.0241 -0.4023
  292MOL0     H39408  11.165   1.254  10.707  0.4997 -0.0274 -0.4165
  292MOL0     H39409  11.284   1.369  10.760  1.8408  0.5962  0.3076
  292MOL0     H39410  11.310   1.070  10.821 -0.0221  1.5596 -3.3144
  292MOL0     H39411  11.207   1.180  10.924 -0.8283 -1.3037  1.2735
  292MOL0     H39412  11.495   1.238  10.878  0.2741  1.8631  1.2738
  292MOL0     H39413  11.441   1.140  11.012 -0.5502 -2.9656 -2.6841
  292MOL0     H39414  11.478   1.406  11.005  0.6936 -0.3610  0.0773
  292MOL0     H39415  11.312   1.408  10.977 -1.3536 -2.1833 -2.3731
  292MOL0     H39416  11.379   1.296  11.389  0.6051 -2.9205 -0.5615
  292MOL0     H39417  11.448   1.100  10.416 -0.0198 -2.3326 -1.0365
  292MOL0     H39418  11.518   1.157  10.140 -1.2692  1.0780  0.0121
  292MOL0     H39419  11.447   1.016  10.199  1.5752  0.8248 -0.7644
  292MOL0     H39420  11.364   1.093  10.056 -1.3383 -1.6360  0.0780
  293MOL0     O39421   7.734  11.429   4.112 -0.8968 -0.0089 -0.0955
  293MOL0     C39422   7.720  11.315   4.068 -0.0995 -0.1186 -0.1629
  293MOL0     O39423   7.609  11.240   4.079  0.7169 -0.3383 -0.7176
  293MOL0     C39424   7.508  11.299   4.146  0.5327  0.3022  1.0303
  293MOL0     C39425   7.505  11.288   4.281 -0.7572  0.2218  0.3238
  293MOL0     C39426   7.398  11.335   4.356  0.2495 -0.1416  0.3661
  293MOL0     C39427   7.290  11.392   4.292  1.6211  1.2955 -1.1343
  293MOL0     O39428   7.174  11.427   4.362  0.4114 -0.4379 -0.0530
  293MOL0     C39429   7.188  11.526   4.473  1.1036 -0.1436  0.3891
  293MOL0     C39430   7.165  11.666   4.429 -0.8432  0.2284 -0.0220
  293MOL0     C39431   7.172  11.750   4.562  0.0055 -0.5480 -0.2251
  293MOL0     C39432   7.196  11.888   4.535 -0.5967  0.3197  0.2118
  293MOL0     C39433   7.226  11.954   4.670  0.4081 -0.2618  0.3366
  293MOL0     C39434   7.230  12.114   4.651 -0.4228  0.1460 -0.3651
  293MOL0     C39435   7.337  12.182   4.748 -0.6437  1.1956  0.1802
  293MOL0     C39436   7.320  12.152   4.894  0.1181  0.9462 -0.0453
  293MOL0     N39437   7.411  12.238   4.974  0.7016  0.1770  0.3301
  293MOL0     C39438   7.541  12.206   5.022 -0.5066  0.3058 -0.0418
  293MOL0     C39439   7.563  12.301   5.121  0.0053 -0.9143  0.2642
  293MOL0     C39440   7.683  12.321   5.211 -0.0060  0.1385  1.2882
  293MOL0     C39441   7.747  12.464   5.198 -0.6380  0.6034 -0.2123
  293MOL0     C39442   7.854  12.473   5.299 -0.9480 -0.3924  0.2023
  293MOL0     C39443   7.975  12.386   5.274 -0.4882  0.3849 -0.0377
  293MOL0     O39444   8.030  12.404   5.147 -0.9565  0.3362  0.3566
  293MOL0     C39445   8.128  12.499   5.126 -0.1092  0.5952  0.3248
  293MOL0     C39446   8.211  12.485   5.015 -0.4473 -0.0537  0.0936
  293MOL0     C39447   8.332  12.558   4.995 -0.4249 -0.2139 -0.0794
  293MOL0     C39448   8.380  12.651   5.086 -0.1655  1.4482  0.3650
  293MOL0     C39449   8.510  12.716   5.060 -0.5925  0.1233 -0.7132
  293MOL0     O39450   8.601  12.672   4.964  0.1397  0.1025 -0.6036
  293MOL0     C39451   8.737  12.680   4.986 -0.0407  1.0296  0.7212
  293MOL0     C39452   8.809  12.660   4.866 -0.0888 -0.4990  0.3978
  293MOL0     C39453   8.939  12.629   4.867 -0.4548  0.9947  0.4167
  293MOL0     C39454   9.009  12.614   4.988 -0.1004 -0.0296 -0.9876
  293MOL0     O39455   9.149  12.606   5.000  0.4050 -0.7234 -1.1313
  293MOL0     C39456   9.215  12.536   4.898  0.0826  0.0573  1.3211
  293MOL0     C39457   9.343  12.463   4.947  0.1447 -0.0832  0.0230
  293MOL0     C39458   9.470  12.553   4.976 -0.4186  0.0808  0.1417
  293MOL0     C39459   9.600  12.501   4.921  0.0932 -0.3241 -1.4130
  293MOL0     C39460   9.717  12.593   4.950  0.8498  1.4050  0.6778
  293MOL0     C39461   9.760  12.576   5.090  0.3022  0.2667 -1.2727
  293MOL0     C39462   9.895  12.647   5.121 -0.1423 -0.3872  0.7487
  293MOL0     C39463   9.993  12.561   5.196 -0.2212 -0.2961 -0.8321
  293MOL0    Cl39464  10.023  12.423   5.091 -0.2212  0.1090 -0.2541
  293MOL0     C39465   8.942  12.655   5.102  0.0482 -0.7638 -0.3094
  293MOL0     C39466   8.813  12.680   5.105  0.4558 -0.1976 -0.3226
  293MOL0     O39467   8.530  12.814   5.138  0.0431  0.3867 -0.7168
  293MOL0     C39468   8.299  12.669   5.201  0.3544 -0.1544  0.3014
  293MOL0     C39469   8.182  12.594   5.218 -0.1466 -0.3334 -0.9224
  293MOL0     N39470   7.454  12.380   5.125 -0.6274  0.4274 -0.1674
  293MOL0     N39471   7.365  12.350   5.035 -0.7148  0.8564 -0.0418
  293MOL0     C39472   7.300  11.407   4.158  0.4382 -0.4321  0.3499
  293MOL0     C39473   7.398  11.348   4.076 -0.2998 -0.0343  0.2605
  293MOL0     C39474   7.830  11.229   4.003  0.9299  0.2062 -0.2013
  293MOL0     C39475   7.802  11.094   3.961  0.0639 -0.2282  0.7010
  293MOL0     C39476   7.901  11.011   3.905 -0.0414  0.1069  0.4433
  293MOL0     C39477   8.033  11.035   3.917 -0.4989 -0.8356 -0.0808
  293MOL0     O39478   8.145  10.952   3.900 -0.5656  0.1062  0.2663
  293MOL0     C39479   8.144  10.817   3.837  0.0119 -0.6589  0.1409
  293MOL0     C39480   8.140  10.711   3.950  0.0972 -0.3679  1.1693
  293MOL0     C39481   8.281  10.717   4.018  0.1157  0.5277  0.2782
  293MOL0     C39482   8.385  10.610   3.962 -0.4441 -0.0380 -1.1443
  293MOL0     C39483   8.412  10.602   3.815 -0.2561 -0.1897 -0.9417
  293MOL0     C39484   8.427  10.616   3.695 -0.3232  0.6240 -0.8997
  293MOL0     C39485   8.060  11.167   3.958 -0.2029 -0.3334 -0.4095
  293MOL0     C39486   7.961  11.264   3.996  0.0614  0.0096 -0.0874
  293MOL0     C39487   8.008  11.412   4.021  0.7538 -0.6060 -0.6226
  293MOL0     H39488   7.595  11.259   4.334  0.0776  3.7246  1.0668
  293MOL0     H39489   7.401  11.324   4.464 -0.8338  1.2956  0.5756
  293MOL0     H39490   7.103  11.514   4.540 -0.3879  0.9769 -1.2202
  293MOL0     H39491   7.280  11.521   4.532  1.0722  0.7667  0.5308
  293MOL0     H39492   7.065  11.684   4.388 -2.5155 -1.0170  3.1934
  293MOL0     H39493   7.242  11.705   4.363  0.3488  0.6005  1.5463
  293MOL0     H39494   7.253  11.712   4.625  1.8957  1.2360 -1.4158
  293MOL0     H39495   7.079  11.736   4.617  1.2188 -2.5869  1.4496
  293MOL0     H39496   7.287  11.895   4.474  0.7552  1.9238  2.2740
  293MOL0     H39497   7.104  11.926   4.490  0.6853 -0.2397 -3.2050
  293MOL0     H39498   7.166  11.935   4.759  1.3007 -0.1923  0.9692
  293MOL0     H39499   7.326  11.921   4.700  0.3020  0.9006  2.0457
  293MOL0     H39500   7.254  12.143   4.549  0.6799  2.6510  0.5075
  293MOL0     H39501   7.132  12.148   4.685  0.0689 -0.6142  2.0309
  293MOL0     H39502   7.311  12.287   4.730 -2.3539  1.0366  1.4925
  293MOL0     H39503   7.437  12.161   4.708 -0.4533 -0.1296  1.2882
  293MOL0     H39504   7.215  12.172   4.920 -0.6725 -2.9262  0.3381
  293MOL0     H39505   7.357  12.052   4.918 -1.6057  1.0897  4.1139
  293MOL0     H39506   7.601  12.118   5.000 -4.2004 -2.5971  0.6412
  293MOL0     H39507   7.652  12.299   5.313 -0.7000  2.5975  1.6615
  293MOL0     H39508   7.766  12.257   5.178 -0.7249  0.4518 -1.4111
  293MOL0     H39509   7.770  12.496   5.096 -0.0764  1.7986  0.2648
  293MOL0     H39510   7.663  12.524   5.234 -2.7073 -2.3687  0.1943
  293MOL0     H39511   7.808  12.454   5.396  0.3659 -2.4242  0.4969
  293MOL0     H39512   7.885  12.577   5.305 -1.0935 -0.4113  1.7057
  293MOL0     H39513   7.943  12.284   5.292 -1.3701  1.0138  2.2168
  293MOL0     H39514   8.046  12.414   5.353  0.1980  2.6750 -1.3494
  293MOL0     H39515   8.181  12.406   4.947 -0.5795 -0.8835  1.0925
  293MOL0     H39516   8.378  12.532   4.901 -1.0179  0.4793 -0.5686
  293MOL0     H39517   8.766  12.672   4.767  0.1063  3.2587  0.6450
  293MOL0     H39518   9.003  12.625   4.779 -1.9218  4.1522 -0.9591
  293MOL0     H39519   9.142  12.463   4.861 -0.9636  1.3741  0.6903
  293MOL0     H39520   9.223  12.602   4.811  1.4222 -2.9534 -1.0051
  293MOL0     H39521   9.319  12.406   5.037 -0.1957  1.9073  1.2583
  293MOL0     H39522   9.382  12.390   4.875  0.3819 -1.0510  1.0998
  293MOL0     H39523   9.444  12.647   4.927  0.7478 -0.3289 -1.3388
  293MOL0     H39524   9.474  12.573   5.083 -3.3910  0.2227  0.3197
  293MOL0     H39525   9.591  12.493   4.812 -1.1230  2.4886 -1.5886
  293MOL0     H39526   9.614  12.402   4.966  1.9433  1.1005  1.4758
  293MOL0     H39527   9.691  12.698   4.940 -0.0464  1.0769 -0.8977
  293MOL0     H39528   9.799  12.561   4.884 -2.4136 -4.3622 -1.3839
  293MOL0     H39529   9.685  12.610   5.162  1.5512  1.4365 -0.4738
  293MOL0     H39530   9.780  12.470   5.107  0.0964 -0.1367 -3.3420
  293MOL0     H39531   9.877  12.730   5.190 -0.1155 -1.2717  1.8441
  293MOL0     H39532   9.946  12.677   5.029 -1.3983  0.1008  0.1874
  293MOL0     H39533  10.089  12.602   5.228  0.3755 -2.3454  0.1854
  293MOL0     H39534   9.939  12.546   5.290  1.2460 -0.4949  0.0116
  293MOL0     H39535   8.992  12.668   5.198  0.4282 -2.7876 -0.1923
  293MOL0     H39536   8.767  12.701   5.201 -0.4568  2.4217 -1.2446
  293MOL0     H39537   8.325  12.754   5.263  1.1174  0.8571 -1.3412
  293MOL0     H39538   8.139  12.614   5.316  1.0491  3.8505 -1.0609
  293MOL0     H39539   7.221  11.443   4.094  0.8778 -0.5236 -0.2614
  293MOL0     H39540   7.409  11.346   3.968  0.3817 -1.8477  0.3321
  293MOL0     H39541   7.708  11.039   3.969  1.8930 -3.8777 -0.5564
  293MOL0     H39542   7.864  10.909   3.898 -2.6280  0.6540  3.7471
  293MOL0     H39543   8.227  10.797   3.769 -0.5301 -2.6111 -0.0077
  293MOL0     H39544   8.063  10.790   3.768  0.4654 -3.5903  0.6288
  293MOL0     H39545   8.115  10.613   3.910  3.4577 -1.4209  1.3102
  293MOL0     H39546   8.059  10.747   4.015 -1.2013  2.1091 -1.5989
  293MOL0     H39547   8.282  10.714   4.127  1.1644 -0.2877  0.2545
  293MOL0     H39548   8.322  10.816   3.995  0.4258 -0.2605 -3.1185
  293MOL0     H39549   8.480  10.653   3.993  0.0902 -1.6799 -0.3895
  293MOL0     H39550   8.383  10.513   4.012  0.8602  0.0185 -0.9604
  293MOL0     H39551   8.428  10.626   3.589  2.3499 -0.3210 -1.0461
  293MOL0     H39552   8.166  11.184   3.967 -0.1185 -1.6364  2.1492
  293MOL0     H39553   8.016  11.438   4.127 -1.3364  1.5060 -0.8957
  293MOL0     H39554   8.111  11.420   3.987  0.4712 -0.0255 -1.3830
  293MOL0     H39555   7.950  11.487   3.965  1.2933 -0.7708 -1.4183
  294MOL0     O39556   6.820   6.097   4.385  0.1979  0.1477 -0.4731
  294MOL0     C39557   6.737   6.169   4.333 -0.0973  0.6042  0.6189
  294MOL0     O39558   6.762   6.299   4.293 -1.1113  0.2631 -0.1120
  294MOL0     C39559   6.850   6.368   4.363 -1.2660  0.4461 -1.2201
  294MOL0     C39560   6.850   6.413   4.500 -0.1937  0.7168 -0.7207
  294MOL0     C39561   6.950   6.481   4.564 -0.1836  0.3042 -0.3574
  294MOL0     C39562   7.067   6.509   4.500 -0.0569 -0.2661  0.4313
  294MOL0     O39563   7.183   6.558   4.555 -0.7349  0.0247 -0.0651
  294MOL0     C39564   7.200   6.562   4.693  0.1058 -0.5207  0.6394
  294MOL0     C39565   7.339   6.622   4.709 -0.5258  0.3757 -0.7627
  294MOL0     C39566   7.353   6.665   4.855 -0.7367 -0.5404 -0.0762
  294MOL0     C39567   7.506   6.695   4.873  0.3483 -0.2624  0.0613
  294MOL0     C39568   7.549   6.738   5.014  0.3681  0.1011 -0.7265
  294MOL0     C39569   7.697   6.786   5.022  0.9934  0.0095  0.5009
  294MOL0     C39570   7.745   6.819   5.162  0.1689 -0.2398 -0.7291
  294MOL0     C39571   7.680   6.949   5.226  0.4059  0.5764 -0.0983
  294MOL0     N39572   7.779   7.057   5.201 -0.2560 -0.7081 -1.4519
  294MOL0     C39573   7.861   7.127   5.284  0.7229 -0.1934  1.2169
  294MOL0     C39574   7.925   7.214   5.205  0.1694  0.4307  0.4331
  294MOL0     C39575   8.038   7.309   5.239  0.4253  0.0847  0.4807
  294MOL0     C39576   8.076   7.416   5.144 -0.3041 -0.4497  0.2689
  294MOL0     C39577   8.184   7.511   5.204  0.2624 -0.7802  0.8272
  294MOL0     C39578   8.321   7.445   5.246  0.2924  1.0387  0.6203
  294MOL0     O39579   8.422   7.542   5.270 -0.6822  0.3819 -0.8916
  294MOL0     C39580   8.554   7.501   5.259 -0.2925 -0.1497  1.2204
  294MOL0     C39581   8.647   7.599   5.223  0.3859 -0.3407  0.4176
  294MOL0     C39582   8.782   7.572   5.197  0.2724  0.2279 -0.3960
  294MOL0     C39583   8.825   7.444   5.206  0.1033  0.5351 -0.1590
  294MOL0     C39584   8.971   7.423   5.201  0.4682 -0.7547  0.7353
  294MOL0     O39585   9.018   7.302   5.250 -0.7443  0.6864  0.4145
  294MOL0     C39586   9.146   7.259   5.228 -0.4308 -0.8303  0.0607
  294MOL0     C39587   9.193   7.243   5.099 -0.6566 -0.3941 -1.2054
  294MOL0     C39588   9.336   7.235   5.081 -0.4819  0.3683  0.6975
  294MOL0     C39589   9.426   7.216   5.190  0.7788 -0.4405  0.2104
  294MOL0     O39590   9.567   7.205   5.188  0.2388 -0.8099  0.8185
  294MOL0     C39591   9.636   7.196   5.067  0.9328  0.5710 -0.4071
  294MOL0     C39592   9.788   7.184   5.089  0.1688 -0.2156  0.3455
  294MOL0     C39593   9.845   7.324   5.105 -0.7058 -0.3729 -1.0065
  294MOL0     C39594   9.897   7.403   4.975 -0.2816  0.2804  0.3141
  294MOL0     C39595   9.788   7.424   4.857 -0.0353  0.3031  0.0053
  294MOL0     C39596   9.676   7.516   4.891 -0.4822  0.6062 -0.3793
  294MOL0     C39597   9.575   7.520   4.771 -0.1464 -0.4504  0.1286
  294MOL0     C39598   9.436   7.595   4.777 -0.9919 -0.3120 -1.1358
  294MOL0    Cl39599   9.330   7.540   4.922 -0.2538  0.1017 -0.5229
  294MOL0     C39600   9.364   7.218   5.320  0.3492 -0.4894  0.5184
  294MOL0     C39601   9.235   7.246   5.340  0.1317 -0.2712  0.0967
  294MOL0     O39602   9.042   7.519   5.175  0.3574  0.2276 -0.8080
  294MOL0     C39603   8.733   7.341   5.233  0.9837  0.0869  0.5961
  294MOL0     C39604   8.600   7.373   5.273 -1.0461  0.7230  1.6851
  294MOL0     N39605   7.881   7.196   5.072 -0.7379 -0.4718 -0.8826
  294MOL0     N39606   7.799   7.103   5.080  0.2534 -0.4949  0.4950
  294MOL0     C39607   7.076   6.469   4.367 -0.5422  0.1810 -1.0807
  294MOL0     C39608   6.977   6.400   4.295 -0.3821  0.2426 -0.8179
  294MOL0     C39609   6.611   6.096   4.276  0.5993  0.0241 -0.5222
  294MOL0     C39610   6.496   6.142   4.338  0.9896 -0.5971 -0.4162
  294MOL0     C39611   6.372   6.079   4.305  0.8471  0.5132 -0.4245
  294MOL0     C39612   6.365   5.979   4.214 -0.2145  1.0226 -0.2102
  294MOL0     O39613   6.238   5.929   4.186 -0.7437 -0.2294  0.3788
  294MOL0     C39614   6.218   5.801   4.107 -1.0318  1.2504  0.5749
  294MOL0     C39615   6.075   5.746   4.140  0.0827 -0.9214 -0.5013
  294MOL0     C39616   5.971   5.868   4.159  0.4361 -0.6439  0.6516
  294MOL0     C39617   5.905   5.926   4.027 -0.2656 -0.1564  0.0654
  294MOL0     C39618   5.821   5.813   3.978 -0.8129 -0.0661  0.0542
  294MOL0     C39619   5.752   5.712   3.948  0.6207 -1.2498 -1.0335
  294MOL0     C39620   6.489   5.929   4.165 -0.0152 -0.9411  1.8135
  294MOL0     C39621   6.612   5.985   4.188 -0.6670  1.2027  0.3476
  294MOL0     C39622   6.739   5.933   4.129 -0.2731  0.7532 -0.0506
  294MOL0     H39623   6.756   6.399   4.553  1.4960  0.4356  2.5011
  294MOL0     H39624   6.919   6.535   4.653 -2.1534  2.1075 -2.0178
  294MOL0     H39625   7.128   6.634   4.733 -1.3289 -0.1613 -2.2817
  294MOL0     H39626   7.206   6.461   4.733  0.4095 -0.4257  0.8340
  294MOL0     H39627   7.350   6.710   4.645 -1.5491  1.2631  0.2281
  294MOL0     H39628   7.420   6.554   4.682  0.1448  0.5193  0.7892
  294MOL0     H39629   7.333   6.580   4.921  2.7385  0.7730  3.0055
  294MOL0     H39630   7.285   6.749   4.874  2.1031  1.9480 -0.1040
  294MOL0     H39631   7.568   6.614   4.831 -0.6701 -0.5767 -0.8923
  294MOL0     H39632   7.525   6.775   4.801  2.1761 -0.8785 -0.2076
  294MOL0     H39633   7.483   6.817   5.050 -0.7231 -1.0363 -0.1701
  294MOL0     H39634   7.535   6.651   5.078  0.7757 -1.3842 -2.5466
  294MOL0     H39635   7.761   6.707   4.984  1.5707  1.3626 -1.4854
  294MOL0     H39636   7.694   6.864   4.945 -0.9100  0.9908  1.4837
  294MOL0     H39637   7.853   6.831   5.155  0.2116  3.6450  2.9050
  294MOL0     H39638   7.720   6.734   5.227 -0.4451  2.7162  3.3110
  294MOL0     H39639   7.578   6.967   5.189  0.7363 -1.8942 -2.5282
  294MOL0     H39640   7.681   6.951   5.335 -0.7542  0.5326 -0.0700
  294MOL0     H39641   7.881   7.124   5.391 -0.9819  2.0029  1.6683
  294MOL0     H39642   8.041   7.349   5.341  1.9043  2.0128 -0.2608
  294MOL0     H39643   8.126   7.244   5.237  0.1707 -0.3578  2.3564
  294MOL0     H39644   8.125   7.376   5.055 -1.1672 -1.5894  0.2753
  294MOL0     H39645   7.987   7.471   5.113  0.4205  1.4491  1.4008
  294MOL0     H39646   8.141   7.561   5.291 -1.8550 -0.9855 -0.0565
  294MOL0     H39647   8.208   7.594   5.136  0.8146 -0.5405  1.2984
  294MOL0     H39648   8.352   7.376   5.168  3.2323  0.6453  2.0141
  294MOL0     H39649   8.291   7.389   5.335 -2.3424  3.1159  1.1780
  294MOL0     H39650   8.612   7.700   5.240  0.6492 -0.2798  0.6095
  294MOL0     H39651   8.851   7.652   5.172  0.8037 -0.6609 -1.9095
  294MOL0     H39652   9.141   7.260   5.006  1.9318  2.3746 -2.3219
  294MOL0     H39653   9.377   7.225   4.982  2.9913  0.3239  2.0221
  294MOL0     H39654   9.606   7.101   5.022  3.2205 -0.2888 -0.2651
  294MOL0     H39655   9.615   7.279   5.000  0.4499 -2.6063 -4.5694
  294MOL0     H39656   9.820   7.113   5.166 -1.7239  0.6953  2.0485
  294MOL0     H39657   9.827   7.137   4.998  1.4793 -0.7481  1.1533
  294MOL0     H39658   9.774   7.387   5.159  1.1823  1.7835 -0.8777
  294MOL0     H39659   9.925   7.316   5.179 -0.9084  2.5461 -0.3475
  294MOL0     H39660   9.972   7.341   4.927 -0.7011  3.1886 -4.7928
  294MOL0     H39661   9.943   7.499   4.998 -1.9307  1.6971 -1.9058
  294MOL0     H39662   9.749   7.330   4.817 -0.8691  0.3308  0.7311
  294MOL0     H39663   9.844   7.453   4.768  0.4552 -0.2216  0.1362
  294MOL0     H39664   9.637   7.487   4.989  1.1770 -0.5307 -0.0131
  294MOL0     H39665   9.723   7.614   4.901 -0.2366  0.6583 -1.8144
  294MOL0     H39666   9.535   7.421   4.750  3.0245 -1.3708 -2.4957
  294MOL0     H39667   9.637   7.546   4.684 -0.2602  0.7489  0.3861
  294MOL0     H39668   9.460   7.700   4.798 -1.1263 -0.9367  2.7069
  294MOL0     H39669   9.388   7.582   4.680 -0.3791  0.5223 -1.5715
  294MOL0     H39670   9.428   7.214   5.407  0.0675  1.2974  0.8396
  294MOL0     H39671   9.202   7.263   5.442 -0.3361  2.3689 -0.4343
  294MOL0     H39672   8.763   7.237   5.241  2.4573  0.6030  2.4106
  294MOL0     H39673   8.533   7.291   5.299 -0.3209  1.0541  4.9958
  294MOL0     H39674   7.169   6.491   4.315 -1.0726  0.7386 -1.8109
  294MOL0     H39675   6.972   6.374   4.189  0.8008 -1.6104 -0.4574
  294MOL0     H39676   6.495   6.217   4.417  0.4224 -0.4099 -0.6014
  294MOL0     H39677   6.283   6.105   4.362  0.9981  1.5400 -0.6444
  294MOL0     H39678   6.288   5.722   4.136 -0.9830 -0.8536 -4.3106
  294MOL0     H39679   6.219   5.818   3.999 -1.7642 -0.4227  0.2682
  294MOL0     H39680   6.090   5.697   4.236  1.4194  0.4899  0.0510
  294MOL0     H39681   6.043   5.677   4.061  0.2284 -2.1729  0.5014
  294MOL0     H39682   6.025   5.953   4.203  0.0901  1.0829 -2.0515
  294MOL0     H39683   5.880   5.845   4.216  1.7849 -1.0289  2.7659
  294MOL0     H39684   5.839   6.007   4.057 -2.2811 -0.5636 -2.8106
  294MOL0     H39685   5.969   5.955   3.943  1.8107 -1.5295  1.0816
  294MOL0     H39686   5.686   5.630   3.928 -0.6277 -0.4394 -0.3784
  294MOL0     H39687   6.472   5.835   4.114 -0.9250 -0.7691  1.7700
  294MOL0     H39688   6.729   5.974   4.028  0.6348  0.2278 -0.3704
  294MOL0     H39689   6.829   5.979   4.172  0.2239 -0.5667  0.3509
  294MOL0     H39690   6.738   5.825   4.112 -3.4519  1.0074 -2.2703
  295MOL0     O39691   1.865   3.450   3.040  0.2304  0.3414  0.0104
  295MOL0     C39692   1.925   3.345   3.041 -0.3128 -0.0372  0.1900
  295MOL0     O39693   2.062   3.331   3.032 -0.0436  0.5994  0.4214
  295MOL0     C39694   2.131   3.413   3.108 -0.4256 -0.1275 -0.0147
  295MOL0     C39695   2.192   3.520   3.045  0.0177 -0.1772 -0.8931
  295MOL0     C39696   2.268   3.604   3.122 -0.3966 -0.3808 -0.4096
  295MOL0     C39697   2.283   3.587   3.262 -0.3691 -0.2733  0.7233
  295MOL0     O39698   2.364   3.669   3.348 -0.1803  0.3306 -0.4567
  295MOL0     C39699   2.503   3.666   3.301 -0.4812  0.1511 -0.3811
  295MOL0     C39700   2.602   3.696   3.413  0.2959  0.3914 -0.3671
  295MOL0     C39701   2.602   3.846   3.445  0.6686 -0.0118 -0.2423
  295MOL0     C39702   2.684   3.937   3.350 -0.3590 -0.7083  0.0549
  295MOL0     C39703   2.619   4.073   3.350 -0.0774 -0.4526  0.3429
  295MOL0     C39704   2.695   4.204   3.298 -0.7708 -1.0598 -0.2052
  295MOL0     C39705   2.604   4.300   3.227 -0.6328  0.1179  0.6928
  295MOL0     C39706   2.518   4.374   3.331  0.5710  0.8716  0.1911
  295MOL0     N39707   2.583   4.439   3.445  0.3251  0.3070  0.2417
  295MOL0     C39708   2.619   4.564   3.439  0.0123 -0.0010  1.1827
  295MOL0     C39709   2.657   4.599   3.559  0.4682  0.9684  0.2969
  295MOL0     C39710   2.682   4.740   3.609 -0.0489  0.5637 -0.0114
  295MOL0     C39711   2.836   4.766   3.609 -0.4130  0.7595  0.2910
  295MOL0     C39712   2.928   4.694   3.700  0.0075  0.9163 -0.3066
  295MOL0     C39713   3.073   4.748   3.679  0.5083 -0.3786 -0.2223
  295MOL0     O39714   3.109   4.687   3.553 -0.1197  0.3204 -1.1429
  295MOL0     C39715   3.204   4.743   3.481  0.2544 -0.2059 -0.8221
  295MOL0     C39716   3.220   4.694   3.345 -0.3175 -1.7146 -0.1130
  295MOL0     C39717   3.317   4.756   3.261 -0.9335 -0.2088  0.3499
  295MOL0     C39718   3.406   4.854   3.311 -0.1424 -0.6904  0.2633
  295MOL0     C39719   3.501   4.918   3.221  0.4391  0.3515  0.2583
  295MOL0     O39720   3.516   4.861   3.099 -0.0007  0.3105  0.0915
  295MOL0     C39721   3.625   4.906   3.022 -0.5646 -0.4561 -0.3582
  295MOL0     C39722   3.744   4.837   3.038  0.1695 -0.5861  0.1830
  295MOL0     C39723   3.861   4.868   2.964  1.0336  0.5682  0.5018
  295MOL0     C39724   3.854   4.976   2.872 -0.0169  1.1843 -0.5961
  295MOL0     O39725   3.951   5.037   2.814 -0.5493 -0.6369  0.1925
  295MOL0     C39726   4.070   4.959   2.786  0.6560  0.1796  0.5300
  295MOL0     C39727   4.143   5.021   2.665  0.2020  0.7745  0.0834
  295MOL0     C39728   4.092   4.977   2.530 -0.3658  1.1880 -0.8899
  295MOL0     C39729   3.947   4.987   2.499 -0.1902 -0.3749 -0.3852
  295MOL0     C39730   3.918   4.961   2.352  0.3384 -0.5299 -1.0706
  295MOL0     C39731   3.770   4.929   2.318  1.0663  0.4495  0.0188
  295MOL0     C39732   3.760   4.870   2.169  0.0265  0.6975 -0.0072
  295MOL0     C39733   3.806   4.979   2.075 -0.3300 -0.3112  0.5210
  295MOL0    Cl39734   3.747   4.941   1.898 -0.1697  0.0971  0.2759
  295MOL0     C39735   3.734   5.030   2.854  0.6491 -0.3741  1.2692
  295MOL0     C39736   3.618   4.996   2.923 -0.0071 -0.3338 -1.0166
  295MOL0     O39737   3.572   5.010   3.266 -0.3198  0.4069  0.6039
  295MOL0     C39738   3.386   4.894   3.444  0.4767 -0.1957 -0.0054
  295MOL0     C39739   3.294   4.833   3.531 -0.1873  0.2512  0.4021
  295MOL0     N39740   2.650   4.490   3.642 -0.1523  0.2030  0.0697
  295MOL0     N39741   2.596   4.397   3.577 -0.0468  0.3313 -0.6069
  295MOL0     C39742   2.215   3.476   3.317  0.3630  0.1685 -0.1128
  295MOL0     C39743   2.144   3.388   3.237  0.4661  0.5465  0.6244
  295MOL0     C39744   1.851   3.223   3.011 -0.2530 -0.0871 -0.7576
  295MOL0     C39745   1.906   3.124   2.930  0.3700  0.2595  0.0491
  295MOL0     C39746   1.837   3.013   2.873  0.8254 -0.1376  0.4221
  295MOL0     C39747   1.702   2.986   2.918  0.2453 -1.4085 -1.5534
  295MOL0     O39748   1.619   2.883   2.878 -0.1046 -0.7235 -0.6122
  295MOL0     C39749   1.668   2.769   2.806  0.0450 -0.9377  0.4257
  295MOL0     C39750   1.541   2.694   2.751 -0.1589  0.2400  0.2859
  295MOL0     C39751   1.525   2.554   2.810 -0.5346 -0.0318  0.5256
  295MOL0     C39752   1.477   2.561   2.963  0.0362 -0.0870 -0.2473
  295MOL0     C39753   1.543   2.447   3.030 -0.1298 -0.1702 -0.0220
  295MOL0     C39754   1.594   2.346   3.069 -0.3075  0.5028  0.3086
  295MOL0     C39755   1.651   3.089   3.005 -1.2791 -0.5941  1.0644
  295MOL0     C39756   1.720   3.207   3.049  0.2143  0.2682  0.2171
  295MOL0     C39757   1.631   3.300   3.131 -0.8827 -0.1357 -1.0952
  295MOL0     H39758   2.179   3.549   2.941 -0.1617  2.7454 -0.1431
  295MOL0     H39759   2.312   3.686   3.065 -0.9402 -0.0275 -0.3258
  295MOL0     H39760   2.536   3.572   3.256  4.0397  2.3791 -2.3679
  295MOL0     H39761   2.522   3.740   3.223  0.1239 -3.0729 -3.5582
  295MOL0     H39762   2.705   3.676   3.384  0.3850 -0.4867  0.5128
  295MOL0     H39763   2.585   3.647   3.509  0.5822 -3.3716 -2.0413
  295MOL0     H39764   2.651   3.839   3.542  0.3554 -0.4452 -0.1157
  295MOL0     H39765   2.499   3.882   3.446  0.9576  0.8358  0.3883
  295MOL0     H39766   2.782   3.944   3.400 -2.1236  0.9562  3.6614
  295MOL0     H39767   2.694   3.903   3.247 -1.1435  1.0949 -0.6629
  295MOL0     H39768   2.519   4.066   3.306  0.1958  0.4898 -0.4781
  295MOL0     H39769   2.592   4.094   3.454  3.1131  0.2779  1.1338
  295MOL0     H39770   2.749   4.248   3.382 -1.9095 -1.2477  0.6554
  295MOL0     H39771   2.773   4.176   3.226  0.0423 -0.6940  0.5158
  295MOL0     H39772   2.530   4.248   3.165 -0.4419  0.8355 -0.1595
  295MOL0     H39773   2.655   4.377   3.169 -0.2907 -1.7266 -1.6053
  295MOL0     H39774   2.458   4.457   3.295  0.2364  0.5801  0.0742
  295MOL0     H39775   2.451   4.299   3.373  0.8025  1.2217  1.2242
  295MOL0     H39776   2.592   4.634   3.360  1.9289 -0.1807  0.3163
  295MOL0     H39777   2.610   4.799   3.551 -0.0231 -1.1360 -1.8449
  295MOL0     H39778   2.659   4.756   3.715 -1.6135 -1.8648  0.0859
  295MOL0     H39779   2.864   4.736   3.507 -0.0584  1.8286  0.0548
  295MOL0     H39780   2.852   4.874   3.621  1.0738  0.4239  1.6125
  295MOL0     H39781   2.923   4.586   3.686 -0.2891  0.9765 -0.7016
  295MOL0     H39782   2.904   4.714   3.805  1.5042 -0.5220  0.3568
  295MOL0     H39783   3.147   4.719   3.755 -0.0299 -0.0700  0.4249
  295MOL0     H39784   3.066   4.857   3.672  2.7652 -0.0498  1.4170
  295MOL0     H39785   3.145   4.625   3.309  1.1102 -3.1678 -0.4392
  295MOL0     H39786   3.317   4.724   3.157  0.1398 -2.9334  1.0988
  295MOL0     H39787   3.748   4.757   3.111 -1.6419  0.7099  1.8071
  295MOL0     H39788   3.949   4.806   2.975  1.0042  0.5050  0.3805
  295MOL0     H39789   4.136   4.960   2.873  2.1411 -1.5048 -0.5230
  295MOL0     H39790   4.047   4.853   2.771  5.1397 -1.3579  2.7991
  295MOL0     H39791   4.140   5.130   2.670 -0.8256  0.7538  0.0830
  295MOL0     H39792   4.248   4.991   2.677  0.4130  1.4687  0.0016
  295MOL0     H39793   4.146   5.037   2.456  3.5005  1.1535  1.6349
  295MOL0     H39794   4.124   4.874   2.513 -2.5897  0.2866  0.0606
  295MOL0     H39795   3.915   5.091   2.507 -1.0910 -0.6047 -0.7990
  295MOL0     H39796   3.901   4.914   2.566  3.6763 -1.7224  1.0826
  295MOL0     H39797   3.978   4.875   2.323 -2.1453 -3.0281  0.6574
  295MOL0     H39798   3.958   5.044   2.293 -1.0410  0.1593 -1.0937
  295MOL0     H39799   3.718   4.862   2.388 -0.4188  1.7117  0.1917
  295MOL0     H39800   3.714   5.023   2.321  1.6906  0.8124  3.3631
  295MOL0     H39801   3.659   4.830   2.164  1.0293 -2.2659  1.2356
  295MOL0     H39802   3.821   4.779   2.160  0.0125  0.5855  0.9113
  295MOL0     H39803   3.761   5.073   2.108  1.7473 -0.2239  3.5076
  295MOL0     H39804   3.915   4.992   2.077  0.2673 -4.1837  0.0951
  295MOL0     H39805   3.737   5.118   2.791  3.5082 -0.3530  1.3103
  295MOL0     H39806   3.528   5.054   2.906 -0.6142  0.1426  2.8898
  295MOL0     H39807   3.447   4.976   3.481  1.9084  0.2549 -3.0510
  295MOL0     H39808   3.283   4.863   3.635 -3.1282  3.3077 -0.6135
  295MOL0     H39809   2.227   3.465   3.424  2.4331  1.0062 -0.2108
  295MOL0     H39810   2.091   3.302   3.277 -1.1276  0.8110 -0.7682
  295MOL0     H39811   2.011   3.141   2.909  1.4252 -1.2052  3.4225
  295MOL0     H39812   1.889   2.944   2.808 -0.5168 -2.3174  1.5455
  295MOL0     H39813   1.715   2.701   2.878  1.3963  1.0047  1.4420
  295MOL0     H39814   1.735   2.796   2.723 -0.4239 -1.1685 -0.0365
  295MOL0     H39815   1.540   2.680   2.642 -1.4540 -1.8007  0.5190
  295MOL0     H39816   1.450   2.752   2.770 -2.7142 -3.4196  0.2403
  295MOL0     H39817   1.617   2.495   2.801 -0.3788  0.2966 -0.1302
  295MOL0     H39818   1.438   2.513   2.758 -0.3062  0.7858 -0.5406
  295MOL0     H39819   1.517   2.649   3.014 -1.4643 -0.1558  1.1532
  295MOL0     H39820   1.369   2.573   2.977  0.1158 -0.7328  1.0551
  295MOL0     H39821   1.625   2.252   3.110 -0.8444 -0.4305 -1.3454
  295MOL0     H39822   1.547   3.072   3.028 -1.6282 -0.7719 -0.5335
  295MOL0     H39823   1.585   3.383   3.077  0.3447  1.1292 -0.2759
  295MOL0     H39824   1.545   3.255   3.182  1.0487 -0.0496  2.5443
  295MOL0     H39825   1.692   3.341   3.213 -1.4757 -0.2681 -0.5765
  296MOL0     O39826  11.542   8.774   8.983  0.3506  0.9175  0.2660
  296MOL0     C39827  11.561   8.895   8.983 -0.3122 -0.3153  0.0238
  296MOL0     O39828  11.469   8.989   8.984 -0.4399  0.5323  0.1240
  296MOL0     C39829  11.332   8.970   8.957 -0.1856 -0.8098 -1.4762
  296MOL0     C39830  11.235   9.071   9.002 -0.2602  0.6861 -0.2782
  296MOL0     C39831  11.094   9.064   9.000 -1.3019  0.2866  1.0906
  296MOL0     C39832  11.044   8.944   8.934 -0.5477 -0.6572  0.3321
  296MOL0     O39833  10.912   8.916   8.921  0.0013 -0.1720  0.2794
  296MOL0     C39834  10.810   9.007   8.966  0.9739 -1.1765 -0.1746
  296MOL0     C39835  10.682   8.942   8.935 -0.2897  0.0374  0.4770
  296MOL0     C39836  10.649   8.988   8.789  0.3137  0.5621 -0.0980
  296MOL0     C39837  10.526   8.935   8.727 -0.5409  0.4956 -0.3460
  296MOL0     C39838  10.481   8.984   8.583  0.1058  0.1358 -0.4830
  296MOL0     C39839  10.589   8.963   8.486 -0.1224 -0.3980  0.1855
  296MOL0     C39840  10.544   8.985   8.334  0.7835  0.2171  0.6327
  296MOL0     C39841  10.501   9.129   8.313  0.5557 -1.0091  0.5831
  296MOL0     N39842  10.473   9.165   8.170 -0.3871  0.3769  0.1007
  296MOL0     C39843  10.581   9.208   8.089  0.2403  0.4746 -0.0566
  296MOL0     C39844  10.536   9.264   7.975 -0.5250 -0.4450  0.2022
  296MOL0     C39845  10.619   9.292   7.853  0.2882  0.4211  1.3659
  296MOL0     C39846  10.603   9.444   7.810 -0.7862 -0.9805 -0.1244
  296MOL0     C39847  10.452   9.497   7.820  0.5201  0.6256 -0.7946
  296MOL0     C39848  10.441   9.624   7.747 -0.6011  0.3783 -1.3125
  296MOL0     O39849  10.527   9.710   7.815  0.0852 -0.4352  0.2037
  296MOL0     C39850  10.511   9.844   7.782 -0.6197  0.9285 -0.2421
  296MOL0     C39851  10.432   9.905   7.680  0.7163 -1.0608 -0.5561
  296MOL0     C39852  10.427  10.048   7.666 -0.7861 -0.0391  0.3571
  296MOL0     C39853  10.508  10.136   7.742 -0.0553 -0.3989  0.0940
  296MOL0     C39854  10.520  10.282   7.703 -0.3686  0.8184  0.1180
  296MOL0     O39855  10.624  10.344   7.768  0.0397  0.5055  0.2680
  296MOL0     C39856  10.615  10.480   7.784 -0.3191 -0.6686 -0.1111
  296MOL0     C39857  10.502  10.554   7.820 -0.2072  1.0991 -0.5115
  296MOL0     C39858  10.500  10.689   7.844 -0.0989  0.0649 -0.0066
  296MOL0     C39859  10.615  10.765   7.846 -0.1110 -0.4452  0.3403
  296MOL0     O39860  10.616  10.902   7.880  0.0645  0.9776  0.9148
  296MOL0     C39861  10.734  10.974   7.864 -0.3107  0.2207  0.4856
  296MOL0     C39862  10.713  11.130   7.886 -0.2072 -0.4780 -0.2836
  296MOL0     C39863  10.708  11.174   8.035 -0.3786 -0.7557  0.0465
  296MOL0     C39864  10.625  11.310   8.048 -1.1193 -0.0049  0.4074
  296MOL0     C39865  10.576  11.337   8.189  0.0615  0.2480 -0.0638
  296MOL0     C39866  10.475  11.451   8.194  0.4397 -0.4387 -0.0959
  296MOL0     C39867  10.542  11.584   8.212 -0.2536 -0.2265 -0.6644
  296MOL0     C39868  10.437  11.681   8.272  0.3668 -0.1898 -0.8724
  296MOL0    Cl39869  10.343  11.761   8.133  0.5375 -0.0093 -0.1061
  296MOL0     C39870  10.737  10.702   7.809  0.7736  0.1641 -0.1542
  296MOL0     C39871  10.734  10.555   7.780  0.2300  0.3520 -0.3315
  296MOL0     O39872  10.439  10.326   7.620  0.0488  0.1846  0.3084
  296MOL0     C39873  10.591  10.073   7.840 -0.2420 -0.7154  0.0825
  296MOL0     C39874  10.585   9.929   7.859  0.5757  0.1969 -0.6464
  296MOL0     N39875  10.397   9.254   8.002 -0.4165  0.7319 -0.1729
  296MOL0     N39876  10.357   9.193   8.115 -0.2611  0.3422  0.6732
  296MOL0     C39877  11.136   8.852   8.890  0.9595  0.7241  0.6712
  296MOL0     C39878  11.274   8.857   8.900  0.6310 -0.1232  0.7625
  296MOL0     C39879  11.700   8.938   9.012  0.2214  0.9847 -0.4655
  296MOL0     C39880  11.785   8.861   9.084  1.0341 -0.3355  0.1479
  296MOL0     C39881  11.904   8.905   9.138  0.7116  0.1349  0.4879
  296MOL0     C39882  11.935   9.036   9.115 -0.7420  1.1396  0.4035
  296MOL0     O39883  12.062   9.091   9.164 -0.2618  0.0516  0.8793
  296MOL0     C39884  12.167   8.999   9.208  0.7205 -0.7357 -0.0264
  296MOL0     C39885  12.267   9.071   9.290  0.5045  0.5084 -0.5678
  296MOL0     C39886  12.340   8.985   9.395  0.1988 -0.9431  0.3435
  296MOL0     C39887  12.434   8.897   9.319 -0.4184  0.3229 -0.8946
  296MOL0     C39888  12.551   8.841   9.398  0.6026 -0.7078  0.4073
  296MOL0     C39889  12.648   8.813   9.461  0.2970 -1.8732 -0.1376
  296MOL0     C39890  11.863   9.108   9.024  0.2839 -0.0403 -0.7576
  296MOL0     C39891  11.747   9.059   8.967 -0.0608  0.6476  0.3149
  296MOL0     C39892  11.673   9.141   8.857 -0.3475  0.0935  0.7515
  296MOL0     H39893  11.265   9.166   9.046  1.0574  0.9013 -1.5833
  296MOL0     H39894  11.029   9.139   9.044 -1.7073 -0.2907  1.4861
  296MOL0     H39895  10.817   9.024   9.074 -0.8259 -3.3244  0.3522
  296MOL0     H39896  10.810   9.106   8.919  4.2808 -1.3342 -0.7436
  296MOL0     H39897  10.614   8.949   9.020  1.6800 -2.1834  2.3899
  296MOL0     H39898  10.694   8.834   8.937  0.9898 -0.0436 -3.6046
  296MOL0     H39899  10.727   8.965   8.716 -2.1155  0.0478 -2.7397
  296MOL0     H39900  10.642   9.097   8.789 -2.3716  0.5499  3.1358
  296MOL0     H39901  10.558   8.832   8.707  1.0245  1.1856 -1.5892
  296MOL0     H39902  10.437   8.945   8.790  0.4533 -0.1085  1.2166
  296MOL0     H39903  10.391   8.935   8.545  1.4242 -2.0395 -0.9626
  296MOL0     H39904  10.460   9.087   8.613 -0.1335 -0.6493  2.2782
  296MOL0     H39905  10.666   9.035   8.516 -1.7057  1.8070 -0.7343
  296MOL0     H39906  10.639   8.866   8.490  0.3112 -0.1530  0.9838
  296MOL0     H39907  10.464   8.917   8.304 -0.8860  2.6968 -0.9529
  296MOL0     H39908  10.633   8.960   8.277  0.2725 -0.5952  0.1770
  296MOL0     H39909  10.405   9.123   8.366 -0.5473  1.7142 -0.9351
  296MOL0     H39910  10.571   9.201   8.358  1.1883 -1.1909 -0.0851
  296MOL0     H39911  10.687   9.194   8.104 -0.1539 -0.5971  2.0158
  296MOL0     H39912  10.720   9.249   7.856 -0.2916 -1.0795  0.4197
  296MOL0     H39913  10.574   9.223   7.781  1.5756 -2.0164  2.7240
  296MOL0     H39914  10.662   9.511   7.872 -2.4739  2.8602 -2.3343
  296MOL0     H39915  10.644   9.455   7.709 -0.8436  0.7191  0.0217
  296MOL0     H39916  10.421   9.513   7.924  1.4764  2.3987 -0.7507
  296MOL0     H39917  10.379   9.428   7.777 -0.4035 -0.2062  1.8946
  296MOL0     H39918  10.335   9.652   7.750  0.0450  3.2910  2.7405
  296MOL0     H39919  10.470   9.629   7.641  1.8985  1.8525 -0.6315
  296MOL0     H39920  10.366   9.853   7.612  2.0484  0.7492 -3.4137
  296MOL0     H39921  10.353  10.073   7.592  0.5696 -4.9896 -3.1792
  296MOL0     H39922  10.405  10.506   7.834  0.7834 -0.3859  1.7358
  296MOL0     H39923  10.408  10.743   7.867 -0.4408  2.2071 -5.1271
  296MOL0     H39924  10.811  10.940   7.933 -0.0970 -2.6140 -0.9911
  296MOL0     H39925  10.759  10.972   7.757 -2.9394 -2.2174 -0.2219
  296MOL0     H39926  10.805  11.175   7.849 -1.0946  1.6572 -0.0115
  296MOL0     H39927  10.627  11.169   7.831  0.2131  0.9898  0.0570
  296MOL0     H39928  10.639  11.095   8.066 -2.3808  0.3183 -1.4611
  296MOL0     H39929  10.801  11.181   8.092 -0.8406 -0.4333  0.7800
  296MOL0     H39930  10.540  11.306   7.980 -1.0417  3.5330 -0.0936
  296MOL0     H39931  10.695  11.390   8.022  2.1382 -2.8897 -0.5127
  296MOL0     H39932  10.670  11.361   8.239  1.3880  0.7793 -2.6839
  296MOL0     H39933  10.534  11.245   8.231 -0.5494 -0.3074 -1.8291
  296MOL0     H39934  10.422  11.455   8.099 -2.1903 -0.3874  1.2976
  296MOL0     H39935  10.395  11.440   8.268  0.5826  2.7962  0.6767
  296MOL0     H39936  10.589  11.621   8.121  0.6555  2.3597  0.7677
  296MOL0     H39937  10.623  11.574   8.286  0.9638  0.5749 -1.8407
  296MOL0     H39938  10.361  11.628   8.331 -1.5428 -4.0276 -5.9872
  296MOL0     H39939  10.488  11.758   8.329  0.5268 -0.6069 -0.4436
  296MOL0     H39940  10.841  10.735   7.805  1.7643 -2.7006 -0.6226
  296MOL0     H39941  10.826  10.505   7.754  0.4748  1.2024 -1.1685
  296MOL0     H39942  10.659  10.125   7.906  0.0022 -2.4710  1.2759
  296MOL0     H39943  10.642   9.893   7.944  0.2667  3.8971  1.3713
  296MOL0     H39944  11.103   8.769   8.829  1.6418  0.6668  0.3649
  296MOL0     H39945  11.333   8.780   8.851 -1.6455 -1.2044 -0.4215
  296MOL0     H39946  11.736   8.767   9.108 -1.9223  1.0191 -0.2102
  296MOL0     H39947  11.958   8.850   9.215  2.0733  0.1539 -0.4248
  296MOL0     H39948  12.227   8.947   9.132  2.2487 -2.3137  2.1543
  296MOL0     H39949  12.122   8.929   9.278 -1.8613 -0.6070 -1.4519
  296MOL0     H39950  12.220   9.141   9.360 -1.3176  0.4529 -1.6789
  296MOL0     H39951  12.334   9.135   9.231  2.0300  0.2457  0.8063
  296MOL0     H39952  12.270   8.922   9.451 -0.8423  0.1007  0.2548
  296MOL0     H39953  12.394   9.055   9.459 -1.3055 -0.0991  0.7486
  296MOL0     H39954  12.379   8.815   9.273 -1.7031  1.4606 -1.4605
  296MOL0     H39955  12.476   8.963   9.243 -1.3300 -0.6907 -2.3353
  296MOL0     H39956  12.733   8.791   9.523  1.4038  0.4816 -0.7132
  296MOL0     H39957  11.902   9.206   9.000 -2.3727  0.6895 -2.6172
  296MOL0     H39958  11.741   9.183   8.781 -1.6548 -0.5812 -0.8540
  296MOL0     H39959  11.616   9.073   8.793  1.7282 -1.4857  0.4651
  296MOL0     H39960  11.590   9.205   8.886 -1.8123 -1.8752  1.0686
  297MOL0     O39961  11.396  10.318   1.573 -0.0794 -0.4189  1.0451
  297MOL0     C39962  11.498  10.360   1.620 -1.1765  0.1428 -1.1289
  297MOL0     O39963  11.578  10.298   1.713  0.0182 -0.5626  0.4325
  297MOL0     C39964  11.545  10.170   1.758 -0.0388 -0.7334 -0.7245
  297MOL0     C39965  11.636  10.069   1.765 -0.5022  0.3181  0.2626
  297MOL0     C39966  11.601   9.938   1.792 -0.7941  0.6597  0.9552
  297MOL0     C39967  11.465   9.906   1.819 -0.1811 -1.3379 -0.3947
  297MOL0     O39968  11.435   9.771   1.826  0.6574 -0.3595  0.0960
  297MOL0     C39969  11.298   9.744   1.801  0.4646 -0.1217 -0.0092
  297MOL0     C39970  11.275   9.592   1.808  1.1389 -0.0921  0.8338
  297MOL0     C39971  11.299   9.538   1.948 -0.4846 -0.2929 -0.2419
  297MOL0     C39972  11.175   9.569   2.038  0.1442 -0.3069 -0.2707
  297MOL0     C39973  11.165   9.480   2.159 -0.0131  0.1245  0.3356
  297MOL0     C39974  11.034   9.498   2.236 -0.5523 -0.3993  0.6867
  297MOL0     C39975  11.023   9.403   2.349 -0.0489  0.0413  0.5816
  297MOL0     C39976  10.881   9.421   2.398  0.0882 -0.2395  0.7615
  297MOL0     N39977  10.781   9.370   2.302 -0.3781  0.3418 -0.1894
  297MOL0     C39978  10.746   9.240   2.312 -0.0332  0.5358 -0.2249
  297MOL0     C39979  10.659   9.225   2.207  0.1153  0.4411 -0.0739
  297MOL0     C39980  10.600   9.080   2.166 -0.5274 -0.9064 -0.7030
  297MOL0     C39981  10.642   9.028   2.017  0.7261  0.5781  0.1871
  297MOL0     C39982  10.570   8.894   1.980 -0.3620  0.1287 -0.3975
  297MOL0     C39983  10.645   8.832   1.855 -1.0828 -0.0997 -0.4871
  297MOL0     O39984  10.785   8.812   1.871 -0.1145  0.8388  0.2223
  297MOL0     C39985  10.818   8.745   1.987 -0.0436  0.5234 -0.1944
  297MOL0     C39986  10.928   8.790   2.062  0.9100  0.1357  0.6303
  297MOL0     C39987  10.976   8.718   2.168 -0.1542  0.0020 -0.2876
  297MOL0     C39988  10.925   8.591   2.200  0.2871  0.8443 -0.7445
  297MOL0     C39989  10.982   8.510   2.307  0.3579  0.6816 -1.0353
  297MOL0     O39990  11.109   8.485   2.302 -0.3821 -0.4435  0.0810
  297MOL0     C39991  11.166   8.397   2.391 -0.5216 -0.6828  0.9710
  297MOL0     C39992  11.274   8.445   2.475 -0.4474  1.5695 -0.4191
  297MOL0     C39993  11.338   8.359   2.570  0.0135  0.5121  0.8195
  297MOL0     C39994  11.295   8.224   2.582 -0.2553 -0.0174 -0.4099
  297MOL0     O39995  11.359   8.138   2.672  0.4861 -0.7500  1.1056
  297MOL0     C39996  11.394   8.185   2.799 -0.3088 -0.1576 -0.0893
  297MOL0     C39997  11.400   8.073   2.897  0.0336  0.4503  0.1674
  297MOL0     C39998  11.292   7.966   2.906  0.9462  0.6470  0.4157
  297MOL0     C39999  11.157   8.025   2.947  0.0908  0.4514 -0.1474
  297MOL0     C40000  11.040   7.921   2.931  0.2620  0.9432  0.2828
  297MOL0     C40001  11.056   7.808   3.030 -0.0311 -0.6992 -0.1270
  297MOL0     C40002  10.998   7.844   3.162 -0.6114 -1.0053  0.1138
  297MOL0     C40003  10.984   7.716   3.252 -0.0469 -0.7390 -0.2001
  297MOL0    Cl40004  10.828   7.643   3.214  0.1033 -0.5546 -0.2646
  297MOL0     C40005  11.196   8.172   2.491 -0.4641 -0.0620 -0.5793
  297MOL0     C40006  11.135   8.262   2.406  0.4333 -0.1829  0.6034
  297MOL0     O40007  10.909   8.473   2.392 -0.0780  0.1658 -0.1742
  297MOL0     C40008  10.808   8.560   2.130 -0.7753  0.1591  0.1478
  297MOL0     C40009  10.751   8.629   2.027 -0.3177  0.6978 -0.3514
  297MOL0     N40010  10.650   9.337   2.132  1.2264  0.5486 -0.2609
  297MOL0     N40011  10.713   9.429   2.205  0.2770  0.7997 -0.1905
  297MOL0     C40012  11.371  10.009   1.811  0.0047 -0.0081 -0.0853
  297MOL0     C40013  11.417  10.141   1.791 -0.6341 -0.0511 -0.3196
  297MOL0     C40014  11.535  10.497   1.567  0.8532 -0.0848  0.5462
  297MOL0     C40015  11.470  10.536   1.450 -0.5318 -0.1212  0.6524
  297MOL0     C40016  11.465  10.667   1.412 -0.2372  0.1990  0.7999
  297MOL0     C40017  11.535  10.766   1.477 -0.1089  0.3984 -0.8407
  297MOL0     O40018  11.536  10.894   1.449  0.3873 -0.5819 -0.2031
  297MOL0     C40019  11.586  10.928   1.325  0.0600 -1.6592  0.4228
  297MOL0     C40020  11.467  11.009   1.262  0.9377  0.5192  0.0699
  297MOL0     C40021  11.363  10.917   1.201 -0.0576  0.6962  0.6589
  297MOL0     C40022  11.253  10.985   1.130  0.0149  0.2559  0.7950
  297MOL0     C40023  11.132  10.991   1.214  0.6265  0.9218 -1.2741
  297MOL0     C40024  11.037  10.994   1.287  0.5284 -0.4206 -0.3916
  297MOL0     C40025  11.596  10.727   1.604  0.1465 -0.7831  0.4881
  297MOL0     C40026  11.594  10.593   1.646  0.2647  0.0460 -0.0526
  297MOL0     C40027  11.665  10.568   1.785 -0.4512  1.1682  0.0730
  297MOL0     H40028  11.737  10.094   1.733 -0.4884 -0.4824 -0.3495
  297MOL0     H40029  11.667   9.853   1.781 -4.2482 -1.9609 -2.1525
  297MOL0     H40030  11.231   9.789   1.874 -0.9790  0.1554 -1.4345
  297MOL0     H40031  11.266   9.787   1.705  4.9277  3.9994 -0.0696
  297MOL0     H40032  11.341   9.558   1.728  0.4389  1.0002 -0.2265
  297MOL0     H40033  11.175   9.571   1.770  1.0503 -0.1585  1.1022
  297MOL0     H40034  11.389   9.583   1.991 -0.2401 -0.1646 -0.8686
  297MOL0     H40035  11.309   9.429   1.945 -0.8998 -0.3440  0.1835
  297MOL0     H40036  11.197   9.669   2.078  0.6501 -0.1809 -0.8433
  297MOL0     H40037  11.082   9.567   1.981  0.0500 -0.0343 -0.1312
  297MOL0     H40038  11.168   9.376   2.124  3.1344  0.0590  0.5410
  297MOL0     H40039  11.248   9.489   2.230  0.4020 -1.6455  0.1202
  297MOL0     H40040  11.012   9.599   2.275  0.2486  0.9104 -2.0218
  297MOL0     H40041  10.962   9.481   2.155  0.9221  1.2494 -1.0680
  297MOL0     H40042  11.099   9.437   2.420  0.9346  0.8768 -0.8200
  297MOL0     H40043  11.062   9.308   2.312  2.5150  0.6530  1.4775
  297MOL0     H40044  10.877   9.370   2.495  2.5618  0.6408  1.4089
  297MOL0     H40045  10.868   9.527   2.420 -1.8282 -0.5442  1.2157
  297MOL0     H40046  10.774   9.169   2.389 -2.0021 -0.0018  0.0462
  297MOL0     H40047  10.641   9.006   2.235  1.1392 -0.2751 -0.9760
  297MOL0     H40048  10.490   9.076   2.167 -0.5245 -0.9803  0.3732
  297MOL0     H40049  10.615   9.101   1.940  1.1468  0.1318 -0.3979
  297MOL0     H40050  10.750   9.019   2.029  0.3804 -3.0798  1.9653
  297MOL0     H40051  10.463   8.906   1.956 -0.5260 -0.2866  0.1121
  297MOL0     H40052  10.591   8.822   2.059  1.1352 -0.2896 -1.1420
  297MOL0     H40053  10.648   8.892   1.763  0.1562  0.1228 -0.3229
  297MOL0     H40054  10.600   8.735   1.831 -1.1512  0.3997 -2.6647
  297MOL0     H40055  10.980   8.876   2.021 -0.7450 -0.4256 -3.0539
  297MOL0     H40056  11.063   8.755   2.222 -0.1719  0.4642 -0.5731
  297MOL0     H40057  11.311   8.547   2.475  1.4872  1.0493  3.2198
  297MOL0     H40058  11.414   8.412   2.627 -0.4583  0.6682  1.3132
  297MOL0     H40059  11.489   8.239   2.785 -1.4443  1.8418 -0.4751
  297MOL0     H40060  11.323   8.263   2.830  0.5693  0.2585  0.9794
  297MOL0     H40061  11.500   8.031   2.883 -0.4980 -0.2007 -1.9564
  297MOL0     H40062  11.391   8.114   2.999 -2.6382 -3.3233  1.7060
  297MOL0     H40063  11.288   7.935   2.801 -2.2872  2.6492 -0.1958
  297MOL0     H40064  11.326   7.877   2.960  2.7681  1.5446  0.8298
  297MOL0     H40065  11.137   8.101   2.872  1.4258  1.6197  0.6423
  297MOL0     H40066  11.169   8.062   3.049  0.6524 -0.2950  0.0657
  297MOL0     H40067  11.049   7.890   2.827  1.2790  2.8759 -0.2472
  297MOL0     H40068  10.941   7.969   2.936 -2.4928 -3.8147 -1.5716
  297MOL0     H40069  10.993   7.726   2.993 -0.9221 -2.2156  4.1326
  297MOL0     H40070  11.161   7.786   3.050  0.1152  0.6594  0.6945
  297MOL0     H40071  10.895   7.879   3.147 -0.9775 -1.5830  1.1020
  297MOL0     H40072  11.048   7.925   3.216 -3.8218  0.8478  0.5611
  297MOL0     H40073  11.063   7.649   3.219 -0.9814 -1.3786 -1.2225
  297MOL0     H40074  10.984   7.746   3.357 -1.5435  2.0595 -0.8793
  297MOL0     H40075  11.165   8.068   2.503  2.1176 -0.6211  2.5152
  297MOL0     H40076  11.047   8.220   2.359 -0.4926  2.3965 -0.1315
  297MOL0     H40077  10.752   8.472   2.157 -0.0671  0.2850  2.2634
  297MOL0     H40078  10.669   8.587   1.969 -0.8537  3.4791 -1.8044
  297MOL0     H40079  11.264  10.012   1.828  0.4612  0.3027  3.4027
  297MOL0     H40080  11.344  10.222   1.791  0.4468  0.9399 -0.3486
  297MOL0     H40081  11.421  10.460   1.390  1.7208 -1.1685  0.0476
  297MOL0     H40082  11.418  10.687   1.316  2.2443  1.8592 -0.1738
  297MOL0     H40083  11.616  10.844   1.262  0.8140 -0.0257 -1.5360
  297MOL0     H40084  11.667  10.994   1.358  0.6992 -2.9608  1.5618
  297MOL0     H40085  11.508  11.070   1.181 -1.0132  2.6169  0.5459
  297MOL0     H40086  11.424  11.076   1.337 -1.7525  0.7138 -1.5279
  297MOL0     H40087  11.320  10.845   1.271  0.0345 -0.0386 -0.0184
  297MOL0     H40088  11.420  10.852   1.133  0.8065 -0.0194  2.0194
  297MOL0     H40089  11.280  11.081   1.084 -0.0299 -0.4988 -0.8969
  297MOL0     H40090  11.222  10.922   1.046  1.8345  0.9949 -0.5055
  297MOL0     H40091  10.949  10.999   1.349  2.2500  0.1442  2.1891
  297MOL0     H40092  11.630  10.794   1.682 -0.8778  2.3289 -1.5623
  297MOL0     H40093  11.743  10.642   1.801  0.4353  0.8074 -2.1940
  297MOL0     H40094  11.590  10.566   1.865  0.9562 -1.7487  1.4621
  297MOL0     H40095  11.721  10.476   1.766  2.6727  3.5463 -3.8786
  298MOL0     O40096   6.254   5.071   9.338 -0.4250 -0.6425 -0.6714
  298MOL0     C40097   6.363   5.077   9.395 -0.1766 -1.2928 -0.5368
  298MOL0     O40098   6.486   5.062   9.334 -0.0884 -1.2651 -0.0046
  298MOL0     C40099   6.478   5.016   9.209  0.1812 -0.1687  0.2376
  298MOL0     C40100   6.493   5.104   9.107  0.5186  0.7644  0.4848
  298MOL0     C40101   6.480   5.068   8.972 -0.9207 -0.1450 -0.4445
  298MOL0     C40102   6.458   4.945   8.933 -0.2205  0.0916 -0.3204
  298MOL0     O40103   6.451   4.895   8.805  0.3478  0.0272  0.0592
  298MOL0     C40104   6.462   4.984   8.695 -0.1868  0.8892  0.0412
  298MOL0     C40105   6.612   5.012   8.680  1.0978  0.0716 -0.3358
  298MOL0     C40106   6.610   5.130   8.575 -0.1335  0.4864 -0.1066
  298MOL0     C40107   6.759   5.175   8.558  0.3256  0.5063 -0.0986
  298MOL0     C40108   6.770   5.234   8.417  1.2052 -1.2468  0.4747
  298MOL0     C40109   6.858   5.353   8.419  0.4250 -0.4605  1.4127
  298MOL0     C40110   6.880   5.390   8.271 -0.6733 -0.4147  0.2639
  298MOL0     C40111   6.770   5.469   8.196  0.2703  0.1436 -0.3496
  298MOL0     N40112   6.751   5.611   8.243 -0.1293 -0.0950  0.3838
  298MOL0     C40113   6.755   5.718   8.155 -0.0927  0.1037 -0.0456
  298MOL0     C40114   6.698   5.820   8.223  0.2577  0.3088  0.2919
  298MOL0     C40115   6.679   5.960   8.170  0.8966 -1.0252 -1.4567
  298MOL0     C40116   6.530   6.011   8.186 -1.3770  0.3141  0.2612
  298MOL0     C40117   6.496   6.056   8.322 -0.6146 -0.7929 -0.9270
  298MOL0     C40118   6.427   6.191   8.311  0.8244  0.2998  0.1737
  298MOL0     O40119   6.523   6.298   8.312  0.3981  0.5441  0.6659
  298MOL0     C40120   6.491   6.413   8.234 -0.4901  0.0553 -0.2766
  298MOL0     C40121   6.404   6.518   8.274 -0.0993 -0.1090  0.5167
  298MOL0     C40122   6.387   6.636   8.193 -0.4597 -0.3094  1.2879
  298MOL0     C40123   6.474   6.652   8.074  0.4335  0.3571 -0.0268
  298MOL0     C40124   6.466   6.789   8.008  0.2177  0.0945  0.3550
  298MOL0     O40125   6.568   6.819   7.924  0.0027  0.4243 -0.1090
  298MOL0     C40126   6.563   6.914   7.822  0.9356 -0.2948 -0.2997
  298MOL0     C40127   6.679   6.964   7.777 -0.7367  0.8145  0.3377
  298MOL0     C40128   6.688   7.051   7.670  0.1481 -0.0783  0.6840
  298MOL0     C40129   6.577   7.100   7.609 -0.3516  0.3900  0.9850
  298MOL0     O40130   6.596   7.192   7.515 -0.3534 -0.2199 -0.2559
  298MOL0     C40131   6.550   7.327   7.557  0.0469  0.0095  0.2539
  298MOL0     C40132   6.473   7.407   7.446  0.2134  0.8870  0.6649
  298MOL0     C40133   6.330   7.340   7.417 -0.5421 -0.0974 -0.4904
  298MOL0     C40134   6.251   7.442   7.338 -0.3741  0.0031  0.8930
  298MOL0     C40135   6.137   7.370   7.269 -0.8735  0.9896 -0.3141
  298MOL0     C40136   6.009   7.377   7.359  0.3039  0.5950 -0.1457
  298MOL0     C40137   5.896   7.304   7.272 -0.5101 -0.0949 -0.0926
  298MOL0     C40138   5.767   7.282   7.338 -0.3924 -0.9189  1.2024
  298MOL0    Cl40139   5.667   7.195   7.222  0.0439 -0.2670 -0.5188
  298MOL0     C40140   6.456   7.056   7.655  0.2390 -0.6359 -0.8659
  298MOL0     C40141   6.444   6.970   7.767  0.4238 -0.4315  0.5428
  298MOL0     O40142   6.366   6.852   8.034 -0.0999 -0.1389  0.2106
  298MOL0     C40143   6.556   6.551   8.038  0.5659  0.0758 -0.4377
  298MOL0     C40144   6.548   6.434   8.113  0.7393 -0.7957 -0.6619
  298MOL0     N40145   6.665   5.771   8.353 -0.0444  0.3481  0.0753
  298MOL0     N40146   6.700   5.646   8.360  0.1863 -0.3212 -0.5525
  298MOL0     C40147   6.442   4.847   9.030  0.8562  0.6969  0.3885
  298MOL0     C40148   6.447   4.883   9.164 -0.6105 -0.4083  0.5746
  298MOL0     C40149   6.360   5.119   9.544 -0.1121  0.2594  0.1911
  298MOL0     C40150   6.471   5.179   9.602  0.3643 -0.8963 -0.2657
  298MOL0     C40151   6.478   5.220   9.739 -0.3035 -0.6797 -0.0237
  298MOL0     C40152   6.369   5.189   9.820 -0.5124  0.0269 -0.0208
  298MOL0     O40153   6.365   5.221   9.952 -0.2210 -1.0201  0.6595
  298MOL0     C40154   6.476   5.285  10.013  0.5060  0.0975 -1.5386
  298MOL0     C40155   6.464   5.299  10.168 -0.0192  0.1543  0.6337
  298MOL0     C40156   6.602   5.317  10.221  0.4076 -0.2221 -0.1736
  298MOL0     C40157   6.595   5.327  10.379  0.2701 -0.2115 -0.1575
  298MOL0     C40158   6.540   5.453  10.437  0.0572  0.2453  0.7604
  298MOL0     C40159   6.513   5.557  10.486  0.8794 -0.3958 -0.7906
  298MOL0     C40160   6.255   5.122   9.760  0.0488 -0.0799  0.4210
  298MOL0     C40161   6.252   5.090   9.623  0.4471 -0.2967 -0.1785
  298MOL0     C40162   6.137   5.003   9.577 -0.5405  0.1527  1.4299
  298MOL0     H40163   6.496   5.210   9.131  1.5865  0.1639  3.4394
  298MOL0     H40164   6.483   5.146   8.897  0.4248  0.3186  0.0601
  298MOL0     H40165   6.436   4.939   8.600 -0.7758  0.9116  0.1894
  298MOL0     H40166   6.403   5.075   8.709  2.7819  2.7743  1.5846
  298MOL0     H40167   6.672   4.924   8.656  3.9757  1.3169  1.7274
  298MOL0     H40168   6.664   5.042   8.772 -0.5426 -2.7149  1.6614
  298MOL0     H40169   6.562   5.215   8.625 -0.3943  0.4151 -0.2369
  298MOL0     H40170   6.558   5.099   8.484 -0.6965  0.6565  0.1494
  298MOL0     H40171   6.785   5.249   8.634 -0.9775  0.0600  0.8232
  298MOL0     H40172   6.820   5.085   8.555 -0.4223 -0.0611  0.9777
  298MOL0     H40173   6.824   5.155   8.363  1.5981 -2.1285  2.0934
  298MOL0     H40174   6.671   5.262   8.382  1.2711 -0.1115  1.1429
  298MOL0     H40175   6.805   5.436   8.467 -1.5776  0.2673 -1.7419
  298MOL0     H40176   6.954   5.324   8.462  1.3586 -1.0177 -0.8791
  298MOL0     H40177   6.903   5.309   8.202  0.3950  0.6457 -0.6679
  298MOL0     H40178   6.973   5.449   8.271 -1.4722  1.0916  3.1986
  298MOL0     H40179   6.783   5.482   8.088 -0.9220 -0.8929 -0.6363
  298MOL0     H40180   6.673   5.424   8.219 -0.3083  1.6751  0.4038
  298MOL0     H40181   6.793   5.733   8.054  1.6121 -0.8902  0.3993
  298MOL0     H40182   6.745   6.029   8.223  1.1057 -1.7329 -0.7674
  298MOL0     H40183   6.715   5.958   8.067  3.4386 -0.4931 -0.6463
  298MOL0     H40184   6.522   6.085   8.105 -0.8552 -0.6784 -0.7324
  298MOL0     H40185   6.470   5.922   8.167  0.3501 -0.5523 -1.5987
  298MOL0     H40186   6.583   6.055   8.388 -0.9825 -0.0117 -0.4160
  298MOL0     H40187   6.425   5.983   8.362  0.5241  0.1321  3.2881
  298MOL0     H40188   6.368   6.207   8.402  0.4810  1.0989 -0.1741
  298MOL0     H40189   6.349   6.199   8.236 -1.8714  0.6994  2.8416
  298MOL0     H40190   6.338   6.507   8.359 -3.0083 -1.3400 -1.7006
  298MOL0     H40191   6.318   6.713   8.228 -0.6751  0.5469 -0.8442
  298MOL0     H40192   6.779   6.941   7.812  1.2012  4.2636 -2.2973
  298MOL0     H40193   6.785   7.090   7.639 -0.2737 -1.2111 -2.5054
  298MOL0     H40194   6.477   7.313   7.638 -1.4140  0.3908 -0.9429
  298MOL0     H40195   6.641   7.382   7.583 -0.5178  2.6861 -2.7964
  298MOL0     H40196   6.455   7.507   7.488 -0.4727  0.8619  0.4366
  298MOL0     H40197   6.527   7.427   7.353 -1.7890  0.4453 -0.6653
  298MOL0     H40198   6.342   7.245   7.364  2.2506 -0.1678  0.1193
  298MOL0     H40199   6.283   7.313   7.512  1.4786  1.8665  1.1758
  298MOL0     H40200   6.315   7.478   7.258 -1.4529  0.6498  0.2973
  298MOL0     H40201   6.213   7.523   7.402 -2.0928 -0.7050  0.8250
  298MOL0     H40202   6.163   7.266   7.251 -3.2812 -0.8379  4.8200
  298MOL0     H40203   6.112   7.423   7.176  1.0383  2.2689 -0.1480
  298MOL0     H40204   6.040   7.315   7.444  1.7177  0.6272 -0.6228
  298MOL0     H40205   5.981   7.476   7.396  1.6843  1.9268 -2.4767
  298MOL0     H40206   5.922   7.206   7.231 -0.2241 -2.3904  4.8990
  298MOL0     H40207   5.870   7.382   7.200 -0.5573  0.6717  0.7346
  298MOL0     H40208   5.766   7.220   7.429 -0.7547  1.0033  2.5817
  298MOL0     H40209   5.717   7.373   7.371  1.9276  0.2495  1.7056
  298MOL0     H40210   6.367   7.102   7.614  1.7337  1.9497 -1.4686
  298MOL0     H40211   6.346   6.933   7.796 -0.5292  0.9547 -0.7103
  298MOL0     H40212   6.617   6.556   7.948  3.5602 -2.2941  1.2501
  298MOL0     H40213   6.617   6.354   8.088  2.3248  0.5347 -0.7280
  298MOL0     H40214   6.435   4.741   9.008  0.2901  0.8688 -0.2915
  298MOL0     H40215   6.446   4.809   9.243  0.3449  1.0257  1.9743
  298MOL0     H40216   6.553   5.209   9.536 -0.8469  3.0419 -0.2325
  298MOL0     H40217   6.567   5.272   9.775  1.7302 -2.7121 -1.8411
  298MOL0     H40218   6.506   5.383   9.974  1.9004  0.4443  0.2666
  298MOL0     H40219   6.555   5.211  10.000  0.2634 -0.8425  1.4795
  298MOL0     H40220   6.418   5.207  10.206 -1.8420  0.9457  0.4356
  298MOL0     H40221   6.392   5.378  10.188  0.3496  0.7054 -0.1607
  298MOL0     H40222   6.648   5.408  10.181  0.8690 -0.2555  0.2792
  298MOL0     H40223   6.663   5.232  10.189  0.6894  0.5533 -1.8272
  298MOL0     H40224   6.527   5.251  10.418 -1.1436  0.8416 -0.4905
  298MOL0     H40225   6.699   5.299  10.400  0.0764 -1.6035 -0.9147
  298MOL0     H40226   6.485   5.643  10.543  2.0679 -2.2387  2.9052
  298MOL0     H40227   6.167   5.110   9.821 -0.6935 -1.1334 -0.8113
  298MOL0     H40228   6.092   4.934   9.649 -3.8715 -0.0282 -0.6381
  298MOL0     H40229   6.053   5.056   9.533  0.3647  0.6466  0.2432
  298MOL0     H40230   6.174   4.935   9.500 -1.2982 -0.9150  1.9917
  299MOL0     O40231   6.565   6.977   3.971  0.3081  0.6101 -0.9543
  299MOL0     C40232   6.570   7.086   4.039 -0.5993  1.0536  0.1779
  299MOL0     O40233   6.470   7.179   4.034  0.4416 -0.0560  0.3113
  299MOL0     C40234   6.348   7.136   3.985 -0.7804 -0.1381  1.1172
  299MOL0     C40235   6.340   7.130   3.843  0.2461 -0.5785  1.0446
  299MOL0     C40236   6.223   7.089   3.785 -0.1683  0.3339 -0.1669
  299MOL0     C40237   6.119   7.030   3.864  0.5195 -0.3685 -0.0219
  299MOL0     O40238   5.991   6.997   3.814  0.2902  0.2842 -0.2866
  299MOL0     C40239   5.946   7.033   3.674 -0.0669 -0.2068  0.1654
  299MOL0     C40240   5.906   6.903   3.596 -0.1921  0.8944 -0.8224
  299MOL0     C40241   5.859   6.921   3.449  0.3184 -0.5848  0.4513
  299MOL0     C40242   5.727   7.011   3.427 -0.8373  0.0686 -0.1167
  299MOL0     C40243   5.696   7.016   3.280  0.2628  0.1255  0.6859
  299MOL0     C40244   5.632   6.895   3.217 -0.0663 -0.5436 -0.1813
  299MOL0     C40245   5.606   6.886   3.055  0.2089 -0.8444  0.2084
  299MOL0     C40246   5.496   6.997   3.015 -1.3599  0.2719 -0.1196
  299MOL0     N40247   5.556   7.136   3.002 -0.6345 -0.0181 -0.0023
  299MOL0     C40248   5.667   7.170   2.928  0.0109 -0.1993 -0.4203
  299MOL0     C40249   5.651   7.303   2.893  0.0047 -0.4003 -0.1880
  299MOL0     C40250   5.771   7.361   2.825 -0.4885 -0.9957 -0.4946
  299MOL0     C40251   5.882   7.367   2.932  0.7345 -0.5422  0.3936
  299MOL0     C40252   6.005   7.438   2.875 -0.3003 -0.3577  0.6683
  299MOL0     C40253   6.106   7.463   2.991 -0.7276 -0.7496  0.4026
  299MOL0     O40254   6.199   7.569   2.942 -0.6267 -0.4080 -0.6137
  299MOL0     C40255   6.303   7.610   3.013 -0.4118 -0.2694 -0.2815
  299MOL0     C40256   6.327   7.565   3.150  0.2252  0.4623 -0.1888
  299MOL0     C40257   6.451   7.581   3.214 -0.1443  0.1861  0.7031
  299MOL0     C40258   6.556   7.655   3.155 -0.0097 -1.0466 -0.0877
  299MOL0     C40259   6.677   7.689   3.244  0.8767  0.4605  0.1813
  299MOL0     O40260   6.699   7.621   3.355 -0.6265  0.4605  0.0854
  299MOL0     C40261   6.803   7.651   3.444 -0.2210  1.0496 -1.3911
  299MOL0     C40262   6.804   7.568   3.553 -0.5294 -0.5452  0.1282
  299MOL0     C40263   6.911   7.566   3.639 -0.3805 -0.0753  0.5639
  299MOL0     C40264   7.022   7.644   3.617 -0.7725 -0.3354 -1.4258
  299MOL0     O40265   7.137   7.634   3.691  1.3719  0.6713  0.0423
  299MOL0     C40266   7.152   7.548   3.805 -1.0055 -0.1689 -1.1431
  299MOL0     C40267   7.303   7.536   3.841  0.4619 -0.5215 -0.7169
  299MOL0     C40268   7.393   7.455   3.746  1.1503 -0.3592 -0.0663
  299MOL0     C40269   7.343   7.308   3.739 -0.7126  0.6545  0.4817
  299MOL0     C40270   7.419   7.214   3.641  0.8169 -0.7283  0.4045
  299MOL0     C40271   7.533   7.149   3.710 -0.5305 -0.4115 -0.4447
  299MOL0     C40272   7.622   7.070   3.608  0.0834 -0.1088 -0.1788
  299MOL0     C40273   7.734   7.145   3.542 -0.0627 -0.9025 -0.4219
  299MOL0    Cl40274   7.846   7.229   3.655 -0.1870 -0.3610  0.3706
  299MOL0     C40275   7.023   7.736   3.515 -0.1112 -0.0960 -0.1927
  299MOL0     C40276   6.910   7.745   3.434  0.3933  0.5763  0.9376
  299MOL0     O40277   6.761   7.760   3.200 -0.4044 -0.1765  1.4203
  299MOL0     C40278   6.533   7.708   3.026 -0.3940 -0.2633  0.4374
  299MOL0     C40279   6.414   7.682   2.954  0.2471  0.5534 -0.3471
  299MOL0     N40280   5.545   7.353   2.962  0.4153  0.4045 -0.2663
  299MOL0     N40281   5.484   7.256   3.026 -0.1822  0.9560 -0.0005
  299MOL0     C40282   6.130   7.038   4.003 -0.8793  0.2348  0.4925
  299MOL0     C40283   6.246   7.090   4.062 -0.4733 -0.4952 -0.7174
  299MOL0     C40284   6.690   7.112   4.125  0.6185  0.6595 -0.4488
  299MOL0     C40285   6.693   7.240   4.174 -0.3639 -0.4364 -0.1392
  299MOL0     C40286   6.798   7.289   4.254 -1.4356  0.5303 -0.7889
  299MOL0     C40287   6.896   7.200   4.310  0.8401  0.4322 -1.1163
  299MOL0     O40288   7.003   7.258   4.379 -0.0543 -0.1585  0.4716
  299MOL0     C40289   6.983   7.370   4.476 -0.6598 -0.7049  0.1693
  299MOL0     C40290   6.900   7.306   4.586 -0.5063  0.1496 -1.2951
  299MOL0     C40291   6.894   7.399   4.709 -0.3291  0.6086 -0.1364
  299MOL0     C40292   6.888   7.319   4.835  0.3552 -0.2448 -0.6660
  299MOL0     C40293   6.908   7.412   4.947 -0.1905 -0.9751 -0.1808
  299MOL0     C40294   6.938   7.474   5.046 -0.0119 -1.1229  0.4837
  299MOL0     C40295   6.887   7.061   4.274  0.7763 -0.8571 -1.2541
  299MOL0     C40296   6.781   7.013   4.184 -0.3882  0.7456 -0.2007
  299MOL0     C40297   6.787   6.865   4.150 -0.2699  1.0673 -0.0759
  299MOL0     H40298   6.422   7.173   3.786 -0.8886  3.2960  2.0452
  299MOL0     H40299   6.218   7.090   3.676  1.8996  3.2440 -0.3540
  299MOL0     H40300   5.853   7.091   3.679 -0.4861 -0.9074  0.7129
  299MOL0     H40301   6.019   7.102   3.631  0.8813 -0.2134  1.6941
  299MOL0     H40302   5.822   6.850   3.642  1.2932  0.5579  1.6903
  299MOL0     H40303   5.996   6.841   3.600  0.1359  1.3111 -1.5449
  299MOL0     H40304   5.833   6.822   3.410  0.2333 -0.1479 -0.6533
  299MOL0     H40305   5.946   6.953   3.391 -1.2316 -0.9530 -2.2698
  299MOL0     H40306   5.638   6.983   3.484 -0.5444  0.0892  0.3604
  299MOL0     H40307   5.756   7.113   3.452  0.5216  0.0544 -1.5028
  299MOL0     H40308   5.637   7.107   3.268 -0.1168  0.0322  1.6956
  299MOL0     H40309   5.786   7.040   3.223  0.0956 -0.1646  0.2910
  299MOL0     H40310   5.701   6.815   3.243  3.4821  1.3467 -2.8821
  299MOL0     H40311   5.539   6.883   3.272 -1.6354  1.7017 -2.1140
  299MOL0     H40312   5.562   6.792   3.023 -2.7773  0.2382  0.8253
  299MOL0     H40313   5.701   6.892   3.000  1.1191 -0.5217  1.7518
  299MOL0     H40314   5.454   6.970   2.918 -0.9481 -1.1234  0.0585
  299MOL0     H40315   5.404   6.980   3.071 -0.9260  0.1554  0.5746
  299MOL0     H40316   5.749   7.101   2.905  2.3172  1.8652  1.0797
  299MOL0     H40317   5.802   7.290   2.748 -1.5147 -3.9688  1.6258
  299MOL0     H40318   5.744   7.461   2.789  0.1063 -0.1190  1.3490
  299MOL0     H40319   5.846   7.420   3.020 -0.8336 -0.3620 -0.3123
  299MOL0     H40320   5.911   7.265   2.960  3.0912 -0.4971 -1.5081
  299MOL0     H40321   5.969   7.532   2.834 -2.0905 -0.9858  0.6892
  299MOL0     H40322   6.046   7.382   2.791  2.3717  3.1603 -0.6065
  299MOL0     H40323   6.165   7.376   3.022 -0.3235  0.5775  3.7786
  299MOL0     H40324   6.049   7.501   3.076 -0.2393  0.5544  0.1588
  299MOL0     H40325   6.241   7.514   3.194  1.9754 -2.3903  0.1983
  299MOL0     H40326   6.463   7.544   3.316 -1.0146 -1.2025  0.3293
  299MOL0     H40327   6.722   7.501   3.578 -0.5247  0.8715  4.8397
  299MOL0     H40328   6.921   7.497   3.722  3.3907 -0.9970 -0.4424
  299MOL0     H40329   7.090   7.587   3.886  0.3070  0.3600 -0.3615
  299MOL0     H40330   7.111   7.447   3.793 -0.7696 -1.0665  3.7338
  299MOL0     H40331   7.332   7.642   3.841 -1.7646  0.1615 -0.3023
  299MOL0     H40332   7.318   7.493   3.941  0.2684 -2.7292 -1.5883
  299MOL0     H40333   7.392   7.504   3.649  2.0252  1.3646  0.7561
  299MOL0     H40334   7.495   7.470   3.782  0.5105  5.0060  0.3322
  299MOL0     H40335   7.242   7.312   3.699 -0.2981  1.4965 -0.5232
  299MOL0     H40336   7.354   7.263   3.839  0.8369  1.8451  0.8977
  299MOL0     H40337   7.450   7.269   3.552  0.7806 -1.8499 -0.3096
  299MOL0     H40338   7.346   7.140   3.608 -3.7041  1.5248  4.0610
  299MOL0     H40339   7.605   7.228   3.732  0.9630 -1.5878 -0.8998
  299MOL0     H40340   7.514   7.105   3.809  3.2901  1.1261  1.1595
  299MOL0     H40341   7.565   7.007   3.538 -0.0635  0.1513 -0.2927
  299MOL0     H40342   7.691   7.004   3.661  0.8571 -0.4988 -1.6213
  299MOL0     H40343   7.790   7.078   3.477 -1.4038 -4.0886  1.4363
  299MOL0     H40344   7.691   7.229   3.487 -1.3562 -0.2974  1.4158
  299MOL0     H40345   7.099   7.811   3.494 -0.8406  0.4644 -0.9196
  299MOL0     H40346   6.917   7.822   3.358  0.3060  1.2704  1.6205
  299MOL0     H40347   6.614   7.763   2.978 -1.0834 -0.8438 -1.4638
  299MOL0     H40348   6.405   7.719   2.853 -1.8494  4.0045  0.9005
  299MOL0     H40349   6.054   6.996   4.067  0.7970  2.0730  3.9751
  299MOL0     H40350   6.254   7.101   4.169 -3.3048 -2.2945 -0.1997
  299MOL0     H40351   6.615   7.309   4.142 -1.2997 -1.1334  0.5969
  299MOL0     H40352   6.804   7.395   4.279  0.1842 -0.0455  1.6123
  299MOL0     H40353   6.919   7.448   4.433  0.4219 -0.4590 -1.0300
  299MOL0     H40354   7.078   7.406   4.516 -0.1913  0.0418 -1.5353
  299MOL0     H40355   6.947   7.210   4.610 -3.8652 -1.1402  0.8657
  299MOL0     H40356   6.802   7.269   4.554  0.1718 -1.2705 -1.8312
  299MOL0     H40357   6.809   7.468   4.713  0.9219  2.2027 -0.0728
  299MOL0     H40358   6.977   7.470   4.711  0.3843 -0.2205  1.1903
  299MOL0     H40359   6.792   7.267   4.845  0.6195 -1.4328 -3.2772
  299MOL0     H40360   6.968   7.245   4.836 -0.2852 -0.9555  0.5221
  299MOL0     H40361   6.953   7.536   5.132 -0.3807 -4.0781  2.8631
  299MOL0     H40362   6.960   6.990   4.312 -1.1503 -1.5668  1.4676
  299MOL0     H40363   6.865   6.810   4.203  1.0165  3.1720  0.3450
  299MOL0     H40364   6.700   6.809   4.184 -0.4735 -0.6006 -3.0003
  299MOL0     H40365   6.788   6.844   4.042 -2.7396  1.9814 -0.3335
  300MOL0     O40366  10.941   7.887   9.657 -0.0842 -0.2473 -0.0399
  300MOL0     C40367  10.875   7.860   9.756  0.6175 -0.6626  0.0837
  300MOL0     O40368  10.750   7.918   9.783  0.1748 -0.2829  0.1604
  300MOL0     C40369  10.733   8.047   9.731 -0.1986 -0.5828  0.0919
  300MOL0     C40370  10.700   8.063   9.588 -0.3697  0.6858 -0.9244
  300MOL0     C40371  10.685   8.190   9.526  0.1737  0.0895 -0.9875
  300MOL0     C40372  10.709   8.301   9.604  0.6055  0.2167  1.0799
  300MOL0     O40373  10.706   8.421   9.538 -0.7819  0.3181  0.6098
  300MOL0     C40374  10.816   8.436   9.443 -0.2220 -0.0445  0.4737
  300MOL0     C40375  10.773   8.536   9.330  0.4928 -0.2584 -0.9365
  300MOL0     C40376  10.891   8.579   9.240  0.2542 -1.0260  0.0766
  300MOL0     C40377  11.021   8.628   9.290  0.2291 -0.6769  0.2050
  300MOL0     C40378  11.113   8.667   9.178 -0.2480 -0.3938  0.0728
  300MOL0     C40379  11.248   8.704   9.211  0.0593  0.2719  0.0425
  300MOL0     C40380  11.253   8.825   9.312 -0.2991 -0.0540 -0.2169
  300MOL0     C40381  11.396   8.876   9.336 -0.6393  0.5897  0.1023
  300MOL0     N40382  11.481   8.782   9.413 -0.7850  0.1022  0.4654
  300MOL0     C40383  11.564   8.689   9.365 -0.2355 -0.5299 -0.0399
  300MOL0     C40384  11.648   8.664   9.464  0.0306  1.1664  0.4096
  300MOL0     C40385  11.757   8.558   9.453  1.6935 -0.8671  0.1106
  300MOL0     C40386  11.891   8.622   9.423 -0.2907  0.0462  0.1434
  300MOL0     C40387  12.013   8.535   9.463 -0.4474  0.3488  0.0233
  300MOL0     C40388  12.026   8.422   9.363  0.2148  0.5099 -0.6272
  300MOL0     O40389  12.073   8.468   9.233 -0.1757 -0.0313  0.6653
  300MOL0     C40390  12.203   8.493   9.211  0.2238 -0.6533 -0.9664
  300MOL0     C40391  12.316   8.467   9.293 -0.3160 -0.5218  0.0380
  300MOL0     C40392  12.446   8.505   9.259  0.1438  0.5063 -0.4572
  300MOL0     C40393  12.475   8.567   9.138  0.9013 -0.7552 -0.2168
  300MOL0     C40394  12.617   8.586   9.114 -0.1180  0.2257 -0.2571
  300MOL0     O40395  12.717   8.574   9.214 -0.2976 -0.0579  0.2942
  300MOL0     C40396  12.842   8.590   9.162  0.3527 -0.2068  0.4949
  300MOL0     C40397  12.897   8.718   9.111  1.3600  0.4189 -0.4847
  300MOL0     C40398  13.030   8.732   9.083  1.2653 -0.0492 -0.2284
  300MOL0     C40399  13.118   8.629   9.095 -0.9543  0.2134 -0.5620
  300MOL0     O40400  13.256   8.643   9.066  0.4522  0.8207  0.5651
  300MOL0     C40401  13.340   8.524   9.055 -0.7413 -0.8276 -0.2008
  300MOL0     C40402  13.400   8.493   9.198 -0.3591 -1.2108  0.4681
  300MOL0     C40403  13.528   8.575   9.216  0.4028 -1.2439  0.5849
  300MOL0     C40404  13.495   8.722   9.244 -0.1721 -1.0104  0.2310
  300MOL0     C40405  13.611   8.784   9.316 -0.0412  0.2513 -0.0166
  300MOL0     C40406  13.609   8.944   9.333  0.0247 -0.3098 -0.1283
  300MOL0     C40407  13.606   9.021   9.195 -0.3205 -0.0110 -0.8676
  300MOL0     C40408  13.705   9.136   9.197 -0.9306 -0.2228 -0.1430
  300MOL0    Cl40409  13.870   9.061   9.239  0.3940  0.3679  0.1147
  300MOL0     C40410  13.069   8.498   9.131 -0.2139 -1.2057 -0.7850
  300MOL0     C40411  12.931   8.482   9.170 -0.4449  0.5386 -0.7154
  300MOL0     O40412  12.639   8.606   8.992  0.1642 -0.5023 -0.0878
  300MOL0     C40413  12.365   8.589   9.052  0.7746  0.3199 -0.3433
  300MOL0     C40414  12.234   8.565   9.094 -0.5723  0.4304 -0.2627
  300MOL0     N40415  11.628   8.734   9.576  0.7131  0.0218  0.0083
  300MOL0     N40416  11.529   8.805   9.542  0.4547 -0.1050 -0.1842
  300MOL0     C40417  10.737   8.291   9.737  0.0087 -0.0466  0.0180
  300MOL0     C40418  10.748   8.164   9.803 -0.3891 -0.3791  0.1137
  300MOL0     C40419  10.932   7.762   9.855  1.2693 -0.0316  0.3214
  300MOL0     C40420  10.845   7.673   9.922 -0.1916 -0.3454 -0.2777
  300MOL0     C40421  10.892   7.595  10.028 -0.0525  0.8878  0.8317
  300MOL0     C40422  11.034   7.587  10.045  0.6438 -0.2358  0.1884
  300MOL0     O40423  11.073   7.487  10.128 -0.0220 -0.0473  0.0506
  300MOL0     C40424  11.217   7.458  10.143 -0.4350 -0.3525  0.0673
  300MOL0     C40425  11.260   7.385  10.019  0.7613 -0.4847  0.0501
  300MOL0     C40426  11.387   7.299  10.032  0.3568  0.3105  0.4216
  300MOL0     C40427  11.441   7.259   9.896 -0.3410 -0.8520 -0.2229
  300MOL0     C40428  11.362   7.147   9.835  0.1523 -0.6695  0.2586
  300MOL0     C40429  11.291   7.056   9.793 -0.0971 -0.0763  0.3598
  300MOL0     C40430  11.123   7.675   9.977 -0.0122  0.2508  0.9250
  300MOL0     C40431  11.066   7.770   9.890 -0.3488  0.2527 -0.5991
  300MOL0     C40432  11.157   7.876   9.835 -0.9293 -0.4322  0.1239
  300MOL0     H40433  10.678   7.969   9.539  0.1920  1.5059 -2.8292
  300MOL0     H40434  10.652   8.198   9.423 -2.4027  2.2506 -0.1194
  300MOL0     H40435  10.913   8.468   9.483  1.8401 -3.2070 -1.5559
  300MOL0     H40436  10.845   8.342   9.396 -0.5999  0.6264 -1.1513
  300MOL0     H40437  10.739   8.624   9.385  1.2146  0.6349 -1.8730
  300MOL0     H40438  10.691   8.493   9.272 -2.1592  1.4365  1.3293
  300MOL0     H40439  10.844   8.648   9.170  2.6004  0.2494 -0.3286
  300MOL0     H40440  10.911   8.491   9.179  3.4984  1.2117 -2.3846
  300MOL0     H40441  11.003   8.707   9.363  1.0551 -0.8600  0.6258
  300MOL0     H40442  11.066   8.545   9.346 -4.9828 -3.1228  1.3588
  300MOL0     H40443  11.121   8.593   9.098  1.5836  0.0041 -0.1532
  300MOL0     H40444  11.061   8.744   9.119 -0.0259  0.6491  1.2029
  300MOL0     H40445  11.302   8.617   9.248 -0.7229  0.4317  1.6594
  300MOL0     H40446  11.299   8.732   9.119  2.4622  0.0232  1.2036
  300MOL0     H40447  11.212   8.797   9.409  1.9823 -0.3870  0.7136
  300MOL0     H40448  11.191   8.904   9.269 -0.6935 -0.4658 -0.4104
  300MOL0     H40449  11.446   8.887   9.239  1.0437 -1.4294  0.6865
  300MOL0     H40450  11.395   8.972   9.390 -0.4971  1.2670 -1.0557
  300MOL0     H40451  11.569   8.639   9.269  0.3162 -0.6787  0.0630
  300MOL0     H40452  11.768   8.511   9.551  2.9291  1.4002  1.1516
  300MOL0     H40453  11.719   8.493   9.374 -0.5001  0.6831 -0.2284
  300MOL0     H40454  11.897   8.646   9.317  1.5365 -1.9425 -0.2768
  300MOL0     H40455  11.887   8.718   9.476 -1.5713  1.8720 -2.9655
  300MOL0     H40456  11.986   8.494   9.561 -2.0953 -1.5198 -1.1420
  300MOL0     H40457  12.105   8.594   9.468 -1.4534  1.8791  2.3996
  300MOL0     H40458  11.927   8.377   9.351  0.9981 -1.8706  1.1086
  300MOL0     H40459  12.090   8.346   9.409 -1.5743 -0.6423  0.0583
  300MOL0     H40460  12.309   8.404   9.381  4.5095 -2.1308 -0.4795
  300MOL0     H40461  12.534   8.480   9.317  0.4052 -2.5027 -1.9006
  300MOL0     H40462  12.826   8.798   9.133 -1.8017 -2.4107  0.4485
  300MOL0     H40463  13.070   8.829   9.054 -0.4153  0.2686 -1.6610
  300MOL0     H40464  13.301   8.439   8.999 -0.4374 -0.6522 -0.6882
  300MOL0     H40465  13.428   8.556   8.999 -1.0663  1.0065  0.2730
  300MOL0     H40466  13.329   8.521   9.277 -0.7655 -1.1200  0.0801
  300MOL0     H40467  13.430   8.389   9.207 -1.7342 -1.5054  2.4823
  300MOL0     H40468  13.586   8.531   9.298  2.9475  1.9540  0.7134
  300MOL0     H40469  13.591   8.569   9.127 -2.4228  0.4245 -1.7249
  300MOL0     H40470  13.396   8.732   9.289 -0.2505 -0.3557 -0.0753
  300MOL0     H40471  13.484   8.771   9.147 -1.1369 -1.3380  0.1683
  300MOL0     H40472  13.704   8.754   9.266  1.3461  0.2751  2.4233
  300MOL0     H40473  13.617   8.732   9.411  2.8548 -1.5389 -1.0715
  300MOL0     H40474  13.515   8.970   9.382 -0.4102  3.8502 -2.6934
  300MOL0     H40475  13.689   8.985   9.395 -1.3378  3.5200 -0.6137
  300MOL0     H40476  13.501   9.048   9.175 -0.2484 -0.5026 -1.9720
  300MOL0     H40477  13.634   8.951   9.116  1.4728  2.5026 -2.5892
  300MOL0     H40478  13.713   9.184   9.099  1.2315  1.8778  0.9556
  300MOL0     H40479  13.673   9.215   9.266 -0.0515  1.7328 -1.8583
  300MOL0     H40480  13.126   8.410   9.155 -1.6364 -1.8789  0.2938
  300MOL0     H40481  12.912   8.384   9.213 -1.2105 -0.3432 -2.9257
  300MOL0     H40482  12.382   8.599   8.946 -2.7586 -1.3159 -1.2045
  300MOL0     H40483  12.161   8.595   9.019  1.7670 -1.4454 -3.5495
  300MOL0     H40484  10.766   8.375   9.799  3.0320 -0.2168 -1.0079
  300MOL0     H40485  10.788   8.140   9.901  0.9874 -1.6260 -0.7049
  300MOL0     H40486  10.736   7.673   9.912 -0.3871 -0.8873  1.5303
  300MOL0     H40487  10.822   7.533  10.086 -3.5893  1.0498 -2.8204
  300MOL0     H40488  11.227   7.392  10.229  0.1476  0.1876  0.4318
  300MOL0     H40489  11.273   7.551  10.159  0.8401 -1.3415  1.6968
  300MOL0     H40490  11.289   7.467   9.952 -0.2162 -0.6905 -0.6435
  300MOL0     H40491  11.179   7.330   9.970  0.5368  1.1141 -1.4782
  300MOL0     H40492  11.370   7.219  10.104  1.0787 -0.1242  0.1230
  300MOL0     H40493  11.472   7.345  10.085 -0.6392  2.3588  0.3553
  300MOL0     H40494  11.437   7.345   9.828  1.3592  1.6812  2.6500
  300MOL0     H40495  11.544   7.225   9.910 -0.6086 -1.1094  1.3035
  300MOL0     H40496  11.235   6.978   9.746 -0.4772 -0.6992  1.7962
  300MOL0     H40497  11.230   7.687   9.993  0.8499  0.0245 -3.3565
  300MOL0     H40498  11.230   7.898   9.913 -1.3636  1.9833 -0.0651
  300MOL0     H40499  11.208   7.828   9.751  2.3649 -0.3072  1.8794
  300MOL0     H40500  11.107   7.972   9.816  1.1792  1.3347  2.8668
  301MOL0     O40501   3.878  10.968  10.119  0.5251 -0.3601  0.7339
  301MOL0     C40502   3.956  10.897  10.182 -0.3242 -0.2711  0.2977
  301MOL0     O40503   3.924  10.782  10.250  0.1862 -0.2124 -0.4628
  301MOL0     C40504   3.786  10.754  10.258 -0.3625 -0.8657 -0.0185
  301MOL0     C40505   3.711  10.786  10.375  0.3086  0.5365 -1.4103
  301MOL0     C40506   3.568  10.762  10.384 -1.1363  0.2100 -0.2416
  301MOL0     C40507   3.501  10.704  10.269 -0.6060  0.2912 -0.2555
  301MOL0     O40508   3.361  10.685  10.258 -0.3077 -0.5412 -0.6703
  301MOL0     C40509   3.280  10.766  10.340 -0.5437  0.7104 -0.7186
  301MOL0     C40510   3.139  10.723  10.311 -0.5983  0.4811  0.2435
  301MOL0     C40511   3.045  10.722  10.435 -0.2041  0.1234  0.4517
  301MOL0     C40512   2.902  10.758  10.399  0.2440 -0.0015 -0.0792
  301MOL0     C40513   2.815  10.686  10.489  1.1300  0.0009  1.1309
  301MOL0     C40514   2.667  10.708  10.459 -0.5557  0.1657  0.6683
  301MOL0     C40515   2.586  10.634  10.567  0.8684 -0.3519 -0.1031
  301MOL0     C40516   2.432  10.656  10.574 -0.4427 -0.4616 -1.5316
  301MOL0     N40517   2.350  10.590  10.475  0.7808 -0.2687 -0.0718
  301MOL0     C40518   2.381  10.490  10.388 -0.2234  0.0629  0.5519
  301MOL0     C40519   2.270  10.476  10.307 -0.3813  0.0015  0.5720
  301MOL0     C40520   2.236  10.361  10.208 -1.2472  0.5263  0.4388
  301MOL0     C40521   2.286  10.223  10.254  0.0407  0.0715  0.0390
  301MOL0     C40522   2.205  10.187  10.383  0.5329  0.0554 -0.0320
  301MOL0     C40523   2.243  10.048  10.431  0.3994 -0.7078  0.1440
  301MOL0     O40524   2.369  10.041  10.499 -0.6527  0.2739  0.3612
  301MOL0     C40525   2.429   9.924  10.533  0.2227  0.3271 -0.2219
  301MOL0     C40526   2.563   9.911  10.572 -0.2264  0.7384 -0.9366
  301MOL0     C40527   2.621   9.783  10.609  1.3381  0.6657 -0.5922
  301MOL0     C40528   2.540   9.670  10.585  0.2424 -0.5475  0.1180
  301MOL0     C40529   2.585   9.538  10.635 -0.2993 -0.5764 -0.1948
  301MOL0     O40530   2.686   9.536  10.723 -0.0108 -0.0810  0.0273
  301MOL0     C40531   2.754   9.419  10.759 -0.4156  0.0148  0.0376
  301MOL0     C40532   2.867   9.442  10.840 -0.4494  0.3234  0.5779
  301MOL0     C40533   2.958   9.348  10.889 -0.0715 -0.2321  0.1656
  301MOL0     C40534   2.912   9.212  10.876 -0.2447 -0.8040 -0.5204
  301MOL0     O40535   2.995   9.118  10.937 -0.1277 -1.2299 -0.3503
  301MOL0     C40536   3.002   8.990  10.885  0.2467  0.2359 -0.1224
  301MOL0     C40537   3.131   8.926  10.947 -0.2523  0.8370  0.0630
  301MOL0     C40538   3.247   8.950  10.851 -0.1497 -1.0179 -0.0069
  301MOL0     C40539   3.293   9.102  10.874  0.1640 -0.9423 -0.1457
  301MOL0     C40540   3.403   9.139  10.781  0.1822 -0.4666  0.5542
  301MOL0     C40541   3.481   9.260  10.843 -0.1936 -0.0664  0.0853
  301MOL0     C40542   3.576   9.332  10.742  0.9169 -0.3986  0.5267
  301MOL0     C40543   3.643   9.455  10.806  0.0195  0.1155 -0.0969
  301MOL0    Cl40544   3.685   9.554  10.669  0.3517 -0.2540  0.2345
  301MOL0     C40545   2.796   9.180  10.806 -0.8078  0.1345  1.0197
  301MOL0     C40546   2.717   9.284  10.749  0.5291 -0.0847 -0.0983
  301MOL0     O40547   2.542   9.437  10.572  0.3162  0.2768 -0.4610
  301MOL0     C40548   2.416   9.675  10.522 -0.2089  0.3578 -0.6259
  301MOL0     C40549   2.358   9.804  10.503  0.0397 -0.3741 -1.3257
  301MOL0     N40550   2.183  10.573  10.336  0.3701 -1.2126 -0.5701
  301MOL0     N40551   2.226  10.634  10.430 -0.3321 -1.1626  0.3472
  301MOL0     C40552   3.580  10.668  10.160  0.3882 -0.1872  0.3586
  301MOL0     C40553   3.715  10.692  10.151 -0.4656  0.9338  0.6931
  301MOL0     C40554   4.101  10.939  10.162 -0.3025  0.3657 -0.7016
  301MOL0     C40555   4.181  10.845  10.104  0.3096  0.6818 -0.0837
  301MOL0     C40556   4.313  10.874  10.075 -0.3634 -0.3707  1.1163
  301MOL0     C40557   4.369  10.998  10.103  0.1493  0.0933 -0.7960
  301MOL0     O40558   4.495  11.032  10.074 -0.3926  0.9032 -0.6316
  301MOL0     C40559   4.597  10.932  10.048  0.1254 -1.1344 -1.0199
  301MOL0     C40560   4.728  11.011  10.015  0.0003 -0.3918 -0.3183
  301MOL0     C40561   4.748  11.138  10.111  0.2473 -0.4321  0.8971
  301MOL0     C40562   4.877  11.209  10.104 -0.0085 -0.3052  0.9134
  301MOL0     C40563   4.912  11.249   9.964 -0.7388 -0.2222  0.2222
  301MOL0     C40564   4.924  11.282   9.846  0.4499 -0.3073  0.5179
  301MOL0     C40565   4.291  11.092  10.163  0.5761 -0.4360 -0.3685
  301MOL0     C40566   4.158  11.064  10.201  0.8189 -1.2420  0.2233
  301MOL0     C40567   4.076  11.179  10.259 -0.5847 -0.3923 -0.6777
  301MOL0     H40568   3.769  10.830  10.455 -2.3753  1.1348  0.3156
  301MOL0     H40569   3.508  10.812  10.461 -1.5688  1.7332 -1.5059
  301MOL0     H40570   3.293  10.746  10.446  2.0654 -2.9518 -1.5141
  301MOL0     H40571   3.300  10.870  10.312 -1.3107  1.1770  0.4191
  301MOL0     H40572   3.135  10.631  10.252 -1.3223  0.2060  0.7083
  301MOL0     H40573   3.099  10.796  10.239  0.1773  1.1258  0.4597
  301MOL0     H40574   3.074  10.804  10.502  0.6636  0.3135 -0.1318
  301MOL0     H40575   3.062  10.623  10.479  1.1601 -0.2801 -0.8888
  301MOL0     H40576   2.884  10.866  10.408 -1.6886 -0.3748  1.0336
  301MOL0     H40577   2.876  10.735  10.296 -1.4561 -1.0157  0.5449
  301MOL0     H40578   2.843  10.580  10.478  1.3847  0.3172 -2.6755
  301MOL0     H40579   2.819  10.721  10.592 -2.3652 -2.5541  2.3282
  301MOL0     H40580   2.643  10.815  10.464 -1.2275  0.2911 -2.7951
  301MOL0     H40581   2.631  10.683  10.359  0.3811  1.5783 -0.0567
  301MOL0     H40582   2.634  10.664  10.661 -0.9362  1.8238  0.2076
  301MOL0     H40583   2.606  10.527  10.554  0.8862 -0.2312 -1.1475
  301MOL0     H40584   2.409  10.622  10.675 -0.0874  3.1529 -0.1113
  301MOL0     H40585   2.403  10.761  10.578 -0.6563 -0.5729  0.3700
  301MOL0     H40586   2.476  10.438  10.387  0.4791  1.3247 -0.7568
  301MOL0     H40587   2.129  10.355  10.191 -0.9108  1.5166 -2.5245
  301MOL0     H40588   2.278  10.381  10.109 -0.8341 -2.1155  0.0019
  301MOL0     H40589   2.262  10.148  10.177 -0.0035  0.1621 -0.0351
  301MOL0     H40590   2.393  10.220  10.275  0.2231 -0.6889 -0.9163
  301MOL0     H40591   2.096  10.182  10.371  0.4900 -0.2955  0.4417
  301MOL0     H40592   2.222  10.267  10.457  5.5108  1.3832 -2.2474
  301MOL0     H40593   2.254   9.998  10.335 -1.4319 -0.4756 -0.2253
  301MOL0     H40594   2.168  10.001  10.494 -0.2386 -1.0394 -0.8423
  301MOL0     H40595   2.628   9.998  10.577  0.3863  0.3598 -2.0089
  301MOL0     H40596   2.718   9.763  10.653  0.3225 -2.0933  0.6378
  301MOL0     H40597   2.884   9.546  10.866 -0.4566  1.1475 -2.3540
  301MOL0     H40598   3.054   9.371  10.935  1.4914 -3.7285 -0.9437
  301MOL0     H40599   2.929   8.922  10.929  1.9657 -0.6724  1.4577
  301MOL0     H40600   3.009   8.988  10.776  0.1922  0.6056 -0.1342
  301MOL0     H40601   3.156   8.957  11.048 -1.2028 -1.0841  0.9380
  301MOL0     H40602   3.108   8.819  10.942 -1.3074  1.0941 -1.1352
  301MOL0     H40603   3.331   8.886  10.878  0.2663 -0.0882  0.9718
  301MOL0     H40604   3.219   8.936  10.746 -3.0055  0.0657  0.5199
  301MOL0     H40605   3.326   9.108  10.978 -0.7788  1.7002  0.0853
  301MOL0     H40606   3.216   9.178  10.856  2.2334  1.5915  0.9444
  301MOL0     H40607   3.355   9.152  10.684  0.9367 -0.7436  0.1359
  301MOL0     H40608   3.477   9.059  10.769 -1.5941 -1.9234 -1.3245
  301MOL0     H40609   3.410   9.333  10.884 -0.3878 -0.8191  1.1244
  301MOL0     H40610   3.542   9.229  10.929  1.4171  2.4734 -0.0086
  301MOL0     H40611   3.512   9.375  10.664 -1.6553 -0.6015  2.3909
  301MOL0     H40612   3.657   9.268  10.707  1.4220  0.7222 -0.4412
  301MOL0     H40613   3.579   9.511  10.875 -0.6828 -1.8715  0.9282
  301MOL0     H40614   3.738   9.428  10.853  2.1278  4.0975 -1.5264
  301MOL0     H40615   2.778   9.073  10.802  3.6187 -0.8267  1.4603
  301MOL0     H40616   2.641   9.247  10.681 -0.7213 -0.9646  1.6768
  301MOL0     H40617   2.349   9.591  10.516  0.9772 -0.8244  1.4481
  301MOL0     H40618   2.251   9.812  10.487 -0.3070 -1.8074  0.0138
  301MOL0     H40619   3.541  10.621  10.070  3.9009 -0.5825 -1.1046
  301MOL0     H40620   3.783  10.661  10.073  0.3268 -0.9402  2.0457
  301MOL0     H40621   4.143  10.750  10.067  0.9593 -0.7325  2.6191
  301MOL0     H40622   4.365  10.799  10.018  0.4521  2.2840 -1.9404
  301MOL0     H40623   4.574  10.859   9.969  1.6008 -2.4166 -0.3157
  301MOL0     H40624   4.607  10.876  10.141 -5.8896  0.1994  0.8719
  301MOL0     H40625   4.721  11.041   9.910 -0.9629 -0.5638 -0.3141
  301MOL0     H40626   4.812  10.942  10.020  1.1267  1.0188  3.3300
  301MOL0     H40627   4.724  11.117  10.216 -2.0131 -3.9792 -0.1489
  301MOL0     H40628   4.684  11.213  10.065  0.5089 -0.3981  0.5852
  301MOL0     H40629   4.876  11.303  10.160 -1.3280 -0.3996  1.0594
  301MOL0     H40630   4.959  11.146  10.140 -1.4097 -3.0440 -0.3933
  301MOL0     H40631   4.933  11.324   9.748  1.1170  2.8732  1.8144
  301MOL0     H40632   4.340  11.188  10.159  2.6033 -1.4270 -4.1614
  301MOL0     H40633   3.993  11.148  10.323 -0.2798  0.0396 -0.0724
  301MOL0     H40634   4.149  11.238  10.314  0.3708 -1.7204 -0.4549
  301MOL0     H40635   4.042  11.245  10.179  0.2530 -0.0540 -0.7631
  302MOL0     O40636   0.717   3.698   9.757  0.3203  0.2842 -0.6153
  302MOL0     C40637   0.825   3.723   9.714 -0.7700 -0.5766 -0.4138
  302MOL0     O40638   0.910   3.833   9.752  0.7173 -0.5296  0.1710
  302MOL0     C40639   0.859   3.927   9.843  0.4644 -0.7058  0.3766
  302MOL0     C40640   0.729   3.988   9.818 -0.3447 -0.4172 -0.3915
  302MOL0     C40641   0.681   4.076   9.915  0.2177 -0.0339 -0.1589
  302MOL0     C40642   0.755   4.104  10.032  0.0026  0.3299 -0.6639
  302MOL0     O40643   0.704   4.179  10.134 -0.3928  0.0536  0.0298
  302MOL0     C40644   0.794   4.263  10.209 -0.8356  0.5323 -0.8673
  302MOL0     C40645   0.732   4.400  10.228 -0.9331  0.8569  0.1556
  302MOL0     C40646   0.658   4.413  10.355 -0.2338  0.2460  0.2260
  302MOL0     C40647   0.575   4.544  10.373  0.7542  0.3594  0.4021
  302MOL0     C40648   0.464   4.523  10.470  1.1777 -0.2956 -0.7765
  302MOL0     C40649   0.516   4.503  10.618 -0.3481 -0.0076  0.1974
  302MOL0     C40650   0.584   4.627  10.675  0.1376  0.2804 -0.0913
  302MOL0     C40651   0.653   4.617  10.821 -0.9775  0.0979  0.3688
  302MOL0     N40652   0.557   4.591  10.932  0.0947  0.2785  0.6216
  302MOL0     C40653   0.460   4.673  10.985 -0.1542  0.6642  0.0781
  302MOL0     C40654   0.398   4.600  11.083  0.4759 -0.5298 -0.1845
  302MOL0     C40655   0.289   4.655  11.175 -0.6761  0.2101 -0.0781
  302MOL0     C40656   0.156   4.668  11.109  0.3351 -0.3461 -0.0724
  302MOL0     C40657   0.158   4.758  10.982  0.2485 -0.0219  0.1411
  302MOL0     C40658   0.013   4.809  10.956  0.2344  0.5718  0.4414
  302MOL0     O40659  -0.096   4.706  10.942  0.5184  0.3499 -0.3681
  302MOL0     C40660  -0.222   4.759  10.937 -0.6184  0.5053 -0.3995
  302MOL0     C40661  -0.254   4.895  10.948  1.3343  0.1094 -0.5191
  302MOL0     C40662  -0.381   4.942  10.885 -0.9137  0.1853  0.2468
  302MOL0     C40663  -0.475   4.851  10.840  0.1161  0.4328  0.6764
  302MOL0     C40664  -0.606   4.892  10.787 -0.1254 -1.4267  0.7140
  302MOL0     O40665  -0.711   4.816  10.813 -0.9295  0.0540 -0.6180
  302MOL0     C40666  -0.833   4.852  10.759  0.1175 -0.7298  0.0671
  302MOL0     C40667  -0.908   4.943  10.832 -0.1237  0.6765 -0.4373
  302MOL0     C40668  -1.035   4.981  10.786 -0.9066 -0.2295  0.6546
  302MOL0     C40669  -1.089   4.928  10.669  0.7183 -0.9041 -1.1413
  302MOL0     O40670  -1.219   4.961  10.637  1.2462 -0.3003 -0.2478
  302MOL0     C40671  -1.292   4.874  10.537 -0.7277 -0.6247 -0.8743
  302MOL0     C40672  -1.358   4.741  10.586  0.1547  0.7158 -0.3857
  302MOL0     C40673  -1.416   4.758  10.722  0.2857 -0.1260 -0.4647
  302MOL0     C40674  -1.516   4.648  10.754 -0.0526 -0.1134  1.0039
  302MOL0     C40675  -1.580   4.632  10.888 -0.2709 -0.9475  0.5541
  302MOL0     C40676  -1.487   4.602  11.001 -0.6146 -0.3952 -0.9508
  302MOL0     C40677  -1.550   4.618  11.142  0.0471 -0.2179  0.7831
  302MOL0     C40678  -1.458   4.649  11.262  0.0965  0.2188 -0.8858
  302MOL0    Cl40679  -1.379   4.814  11.252  0.4060 -0.0761 -0.1097
  302MOL0     C40680  -1.014   4.839  10.601  0.0799  0.1176  0.4968
  302MOL0     C40681  -0.884   4.792  10.642  0.3588 -0.0308 -0.4676
  302MOL0     O40682  -0.606   4.994  10.719 -0.8906 -0.4434  0.1257
  302MOL0     C40683  -0.444   4.713  10.830  0.4142  0.2868 -1.2398
  302MOL0     C40684  -0.320   4.667  10.888  0.2378 -0.0255  0.3909
  302MOL0     N40685   0.448   4.466  11.074 -0.0445 -0.6808  0.3000
  302MOL0     N40686   0.538   4.467  10.985 -0.2352  0.1802  0.4750
  302MOL0     C40687   0.884   4.033  10.053  0.8883  0.4341  0.9952
  302MOL0     C40688   0.930   3.942   9.964  0.1123 -1.1353 -0.1754
  302MOL0     C40689   0.902   3.649   9.612  0.6816  0.0265 -0.1160
  302MOL0     C40690   0.848   3.638   9.481 -0.0754 -0.1439 -0.0393
  302MOL0     C40691   0.918   3.576   9.374  0.3785  0.4730 -0.1212
  302MOL0     C40692   1.036   3.508   9.403 -0.3001 -1.0295  0.4452
  302MOL0     O40693   1.096   3.443   9.299 -0.2450 -0.8637  0.4425
  302MOL0     C40694   1.224   3.378   9.318 -0.1361  0.0742  0.0883
  302MOL0     C40695   1.257   3.292   9.208  0.2746  0.0899 -0.2344
  302MOL0     C40696   1.347   3.178   9.256  0.0024  0.3363 -0.0891
  302MOL0     C40697   1.480   3.228   9.317  0.5747 -0.0918  0.5397
  302MOL0     C40698   1.575   3.129   9.346  0.7887  0.5609  0.3544
  302MOL0     C40699   1.664   3.047   9.364  0.0950  0.1200 -0.3920
  302MOL0     C40700   1.078   3.497   9.539  0.2811  0.2796 -0.1030
  302MOL0     C40701   1.017   3.572   9.640 -1.0014  0.6045  0.0655
  302MOL0     C40702   1.084   3.557   9.772 -0.8774 -1.2824 -0.4656
  302MOL0     H40703   0.665   3.974   9.732 -1.7003  1.0329  0.3230
  302MOL0     H40704   0.581   4.117   9.911 -0.8707 -2.5118 -0.6095
  302MOL0     H40705   0.825   4.213  10.301 -0.6316  1.9991 -0.1275
  302MOL0     H40706   0.884   4.285  10.151  0.5967 -0.5397  0.8345
  302MOL0     H40707   0.677   4.418  10.135  0.8980 -0.9343 -1.3593
  302MOL0     H40708   0.814   4.472  10.231  0.4415 -0.6747  1.9396
  302MOL0     H40709   0.730   4.398  10.437 -1.0349  3.4641  1.6733
  302MOL0     H40710   0.596   4.323  10.365  1.7079 -0.9566  2.6909
  302MOL0     H40711   0.642   4.626  10.397 -0.4017  1.3581  0.2912
  302MOL0     H40712   0.530   4.566  10.276  2.3335  2.7329  0.1299
  302MOL0     H40713   0.398   4.611  10.474  0.4402 -0.8068 -1.3391
  302MOL0     H40714   0.405   4.440  10.431  2.9432 -1.0087 -2.0822
  302MOL0     H40715   0.431   4.476  10.682 -0.8257  0.3089 -0.2948
  302MOL0     H40716   0.576   4.412  10.618 -3.5453 -2.3045  0.5860
  302MOL0     H40717   0.514   4.710  10.688  0.6342  0.5868  0.6995
  302MOL0     H40718   0.659   4.659  10.602 -0.9018  2.3798 -0.3109
  302MOL0     H40719   0.733   4.543  10.810  0.0173  1.0854  0.7737
  302MOL0     H40720   0.710   4.710  10.829 -1.8911  1.0447 -2.6933
  302MOL0     H40721   0.445   4.779  10.969 -0.9899  0.7799  1.4204
  302MOL0     H40722   0.285   4.582  11.256 -5.0433 -0.2227 -0.4360
  302MOL0     H40723   0.332   4.751  11.206  2.0467 -0.5247 -1.2062
  302MOL0     H40724   0.099   4.581  11.078 -0.8843  1.1178 -2.1903
  302MOL0     H40725   0.098   4.713  11.191  0.8031 -2.0356  1.2538
  302MOL0     H40726   0.198   4.710  10.893  2.2583 -4.0078  2.8816
  302MOL0     H40727   0.223   4.845  10.988  2.2811 -1.5467  3.3129
  302MOL0     H40728   0.010   4.878  10.872 -0.0109 -1.3773 -1.2453
  302MOL0     H40729  -0.002   4.855  11.054  1.8961 -1.2322  1.6327
  302MOL0     H40730  -0.191   4.975  10.986 -0.4490  1.3896 -0.1155
  302MOL0     H40731  -0.397   5.049  10.900  1.1065  0.2985  2.2440
  302MOL0     H40732  -0.867   4.975  10.927  0.4777  0.3957 -0.6001
  302MOL0     H40733  -1.100   5.060  10.822  2.6139  3.3982 -0.2424
  302MOL0     H40734  -1.380   4.931  10.507  1.3434  2.3528 -1.7819
  302MOL0     H40735  -1.225   4.860  10.452 -0.6544  0.7072 -1.0570
  302MOL0     H40736  -1.433   4.724  10.508 -0.4223  2.6004 -0.3043
  302MOL0     H40737  -1.279   4.666  10.582 -0.0495  0.1467  3.1973
  302MOL0     H40738  -1.333   4.753  10.794 -0.6889  4.8231  1.3966
  302MOL0     H40739  -1.462   4.857  10.733  1.0064  0.4615 -2.3942
  302MOL0     H40740  -1.456   4.556  10.750 -0.8760 -0.7492  2.5338
  302MOL0     H40741  -1.600   4.652  10.684  0.6773 -3.1653 -0.2173
  302MOL0     H40742  -1.653   4.554  10.866  0.7457 -1.4197 -1.4191
  302MOL0     H40743  -1.637   4.724  10.904 -2.5830 -1.8409 -1.7604
  302MOL0     H40744  -1.432   4.508  11.002  3.6113  1.7575 -2.4947
  302MOL0     H40745  -1.398   4.665  10.986 -0.9002  0.1649 -0.3373
  302MOL0     H40746  -1.614   4.531  11.164 -0.3909 -0.4032 -1.0797
  302MOL0     H40747  -1.616   4.705  11.143  1.3994  0.8704 -0.2374
  302MOL0     H40748  -1.507   4.638  11.359 -0.4701 -1.8277 -1.3359
  302MOL0     H40749  -1.376   4.576  11.256  0.3696  0.4063  0.3875
  302MOL0     H40750  -1.054   4.785  10.516 -4.0933  2.6099  0.5763
  302MOL0     H40751  -0.840   4.706  10.595  0.1405 -0.6817  0.4935
  302MOL0     H40752  -0.521   4.650  10.788 -1.4862  1.6117  0.0952
  302MOL0     H40753  -0.306   4.561  10.872 -0.3889 -0.1937  0.9196
  302MOL0     H40754   0.932   4.050  10.149  1.0428  4.7892  0.3435
  302MOL0     H40755   1.018   3.886   9.992  2.4339  2.9314  1.5106
  302MOL0     H40756   0.759   3.695   9.456 -0.3877 -1.6471 -2.6296
  302MOL0     H40757   0.886   3.576   9.271  1.2940 -2.0667 -0.4988
  302MOL0     H40758   1.211   3.308   9.401  1.4271 -0.4981 -0.1105
  302MOL0     H40759   1.309   3.437   9.352 -0.4642  0.1792  0.7325
  302MOL0     H40760   1.301   3.333   9.117  2.5540  1.4483  1.3595
  302MOL0     H40761   1.163   3.242   9.183  1.5604 -2.5950 -0.0071
  302MOL0     H40762   1.370   3.116   9.168 -0.1829 -0.7330  0.5995
  302MOL0     H40763   1.293   3.114   9.326 -0.0487  2.2434  1.6917
  302MOL0     H40764   1.521   3.302   9.247 -1.7952 -0.7797 -1.7520
  302MOL0     H40765   1.459   3.272   9.415  0.2593 -1.7285  1.2267
  302MOL0     H40766   1.750   2.982   9.370 -0.3897 -0.5340 -0.3251
  302MOL0     H40767   1.152   3.422   9.566  0.1162 -1.0362 -2.8801
  302MOL0     H40768   1.080   3.451   9.801 -2.3391 -0.5927  2.1617
  302MOL0     H40769   1.188   3.593   9.772 -0.5390 -2.2127 -0.0470
  302MOL0     H40770   1.039   3.616   9.852 -1.0880  1.6137 -2.5942
  303MOL0     O40771   9.032   7.496   1.124 -0.2495  0.0454 -0.1742
  303MOL0     C40772   9.062   7.504   0.996  0.0430 -0.3541 -0.3628
  303MOL0     O40773   8.990   7.435   0.896  0.3404  0.2798  0.2265
  303MOL0     C40774   8.901   7.334   0.946 -0.2582 -0.4149 -0.6564
  303MOL0     C40775   8.953   7.224   1.015  0.1328 -0.0881  0.0255
  303MOL0     C40776   8.874   7.131   1.074  0.3834 -0.5002 -0.5335
  303MOL0     C40777   8.733   7.139   1.059  0.6380  0.2546  0.8682
  303MOL0     O40778   8.649   7.050   1.120 -0.0053  0.2592  0.2768
  303MOL0     C40779   8.542   6.980   1.046 -0.2624 -0.6506  0.3162
  303MOL0     C40780   8.456   6.915   1.153  1.4400  0.6958 -0.8684
  303MOL0     C40781   8.379   6.799   1.075  0.7895 -0.3359 -0.5757
  303MOL0     C40782   8.329   6.702   1.179  0.5928 -0.0380 -0.7454
  303MOL0     C40783   8.251   6.591   1.096  0.6189  0.7803 -0.3158
  303MOL0     C40784   8.252   6.481   1.194  0.0971  0.8956  0.0046
  303MOL0     C40785   8.183   6.356   1.128  0.2035  1.0696  0.6508
  303MOL0     C40786   8.176   6.244   1.230 -0.1385 -0.1403 -0.0959
  303MOL0     N40787   8.304   6.204   1.288 -0.5047 -0.4866 -0.4615
  303MOL0     C40788   8.403   6.167   1.212 -0.1370 -0.0020  0.7404
  303MOL0     C40789   8.508   6.134   1.297 -0.6086  0.1931 -0.3212
  303MOL0     C40790   8.657   6.101   1.266 -0.0191 -0.2422  0.5868
  303MOL0     C40791   8.660   5.967   1.186 -0.3397  0.5578  0.6531
  303MOL0     C40792   8.805   5.916   1.188 -0.3481 -0.7848  0.7510
  303MOL0     C40793   8.833   5.834   1.068  0.2457 -0.0052  0.2528
  303MOL0     O40794   8.827   5.913   0.947  0.4266 -0.6078  0.4777
  303MOL0     C40795   8.865   5.858   0.821 -0.4047  0.2366 -0.2511
  303MOL0     C40796   8.909   5.940   0.714  0.2603  0.3331 -1.2422
  303MOL0     C40797   8.940   5.879   0.591 -1.2329  0.5454 -0.7377
  303MOL0     C40798   8.948   5.733   0.571 -0.2155 -0.5386 -1.0832
  303MOL0     C40799   8.982   5.670   0.441  0.1149 -0.6984 -0.0366
  303MOL0     O40800   9.001   5.756   0.334  0.5814 -0.3343  0.0706
  303MOL0     C40801   9.030   5.709   0.208  1.1089 -0.3460 -0.2677
  303MOL0     C40802   8.953   5.751   0.103 -0.5968  0.6146  1.6775
  303MOL0     C40803   8.993   5.726  -0.031 -0.6181 -0.7187 -0.0254
  303MOL0     C40804   9.102   5.644  -0.050 -0.1218  0.2702  1.0478
  303MOL0     O40805   9.156   5.639  -0.173 -0.2946  0.2306  1.1963
  303MOL0     C40806   9.108   5.519  -0.231 -0.0382  0.0856  0.0983
  303MOL0     C40807   9.140   5.518  -0.381 -1.0248 -1.5778  1.3652
  303MOL0     C40808   9.096   5.389  -0.455  0.8000  0.1605 -0.9297
  303MOL0     C40809   9.080   5.407  -0.602 -0.4295  0.5178  0.9476
  303MOL0     C40810   9.206   5.427  -0.688  0.7581  0.4253 -0.3025
  303MOL0     C40811   9.173   5.406  -0.838 -0.1182 -0.6116  0.4784
  303MOL0     C40812   9.303   5.406  -0.920 -0.0099 -0.5746 -0.4013
  303MOL0     C40813   9.261   5.423  -1.071  0.1781 -0.4625 -0.1078
  303MOL0    Cl40814   9.194   5.598  -1.094  0.0150 -0.3381 -0.1315
  303MOL0     C40815   9.186   5.608   0.056 -0.5595  0.6497 -0.9889
  303MOL0     C40816   9.156   5.646   0.186  0.6482  0.4429 -0.7872
  303MOL0     O40817   8.997   5.546   0.442  0.1860 -0.8847 -0.0306
  303MOL0     C40818   8.906   5.658   0.683 -0.3956  0.2972 -0.0962
  303MOL0     C40819   8.865   5.715   0.805  0.7131 -0.0452  0.2868
  303MOL0     N40820   8.472   6.177   1.421  0.4606 -0.3524  0.0279
  303MOL0     N40821   8.351   6.221   1.411  0.8396  0.4676  0.3847
  303MOL0     C40822   8.686   7.245   0.983  0.3792  0.4485 -0.4855
  303MOL0     C40823   8.766   7.341   0.919  0.6195  0.8894 -0.1846
  303MOL0     C40824   9.165   7.597   0.952 -1.0878 -0.1537 -0.2796
  303MOL0     C40825   9.249   7.633   1.053 -0.2399 -1.0665 -0.0310
  303MOL0     C40826   9.361   7.713   1.030  0.2548 -0.0620  0.1111
  303MOL0     C40827   9.384   7.760   0.907  0.1947  0.5204  0.2119
  303MOL0     O40828   9.491   7.844   0.890  0.3920 -0.2561  0.5659
  303MOL0     C40829   9.598   7.873   0.979  0.2582 -1.1199  0.6985
  303MOL0     C40830   9.728   7.811   0.939  0.4294  0.2160 -0.5460
  303MOL0     C40831   9.849   7.886   0.997  0.1101 -0.0232 -0.8997
  303MOL0     C40832   9.885   8.003   0.901 -0.3160 -0.3947  0.6565
  303MOL0     C40833   9.989   8.089   0.966  1.1764 -0.2073  0.9267
  303MOL0     C40834  10.077   8.131   1.033 -0.1218  0.1605 -0.1652
  303MOL0     C40835   9.299   7.723   0.805 -0.1996  0.4442 -1.0811
  303MOL0     C40836   9.189   7.649   0.829 -0.4083  0.7714  0.2688
  303MOL0     C40837   9.098   7.619   0.714 -0.3353 -0.6355  0.2636
  303MOL0     H40838   9.058   7.198   1.005 -0.3162 -2.0481 -0.0261
  303MOL0     H40839   8.922   7.046   1.121  1.5071  0.2362 -0.3258
  303MOL0     H40840   8.481   7.049   0.987  1.5889  0.6530 -0.1625
  303MOL0     H40841   8.589   6.913   0.972 -0.8298 -0.5633 -0.1297
  303MOL0     H40842   8.384   6.975   1.211  1.0787  0.2323 -0.8342
  303MOL0     H40843   8.524   6.872   1.226 -0.1184 -2.3402 -1.0689
  303MOL0     H40844   8.442   6.741   1.008  1.4793 -2.0150  1.3969
  303MOL0     H40845   8.304   6.846   1.011  0.0804  0.1504  0.5713
  303MOL0     H40846   8.419   6.667   1.232  0.3198 -1.5156 -1.2276
  303MOL0     H40847   8.258   6.754   1.244 -0.5311 -1.9786 -0.3743
  303MOL0     H40848   8.153   6.629   1.065  0.4863  0.5425 -0.1883
  303MOL0     H40849   8.314   6.562   1.012 -0.9303 -0.3448 -1.1367
  303MOL0     H40850   8.355   6.449   1.210 -0.4771 -1.3239 -0.4410
  303MOL0     H40851   8.204   6.490   1.292 -0.6668 -3.3933  0.2461
  303MOL0     H40852   8.230   6.324   1.034  0.6470 -1.0124  1.5103
  303MOL0     H40853   8.084   6.397   1.105  0.8760  1.2430 -2.2870
  303MOL0     H40854   8.093   6.256   1.300 -2.5903 -1.3648 -2.5891
  303MOL0     H40855   8.153   6.154   1.173 -0.6600  1.5370 -2.7492
  303MOL0     H40856   8.414   6.176   1.105  0.8006 -0.9675  0.7417
  303MOL0     H40857   8.703   6.172   1.197 -2.5424  2.4948  1.4977
  303MOL0     H40858   8.714   6.089   1.358  0.7416 -3.9150 -0.2275
  303MOL0     H40859   8.586   5.896   1.225 -0.0341 -0.0831  0.0852
  303MOL0     H40860   8.637   5.996   1.083 -2.7237  0.6995  1.1699
  303MOL0     H40861   8.819   5.859   1.281 -0.8267  1.1814  2.0962
  303MOL0     H40862   8.878   5.997   1.197 -1.2883  1.0377 -4.7209
  303MOL0     H40863   8.777   5.741   1.053  1.4874 -0.7636  0.1421
  303MOL0     H40864   8.938   5.810   1.088 -0.2228  1.2007  6.0691
  303MOL0     H40865   8.905   6.048   0.727  1.2661  0.1257  1.6927
  303MOL0     H40866   8.959   5.955   0.516  1.9922  1.0639  0.4550
  303MOL0     H40867   8.877   5.827   0.113  0.7064  2.8754 -2.7808
  303MOL0     H40868   8.935   5.771  -0.111 -0.0332  2.7009  1.3297
  303MOL0     H40869   9.153   5.429  -0.188 -0.0962 -1.3332 -2.5501
  303MOL0     H40870   9.000   5.506  -0.219  0.1782 -0.7908  1.1860
  303MOL0     H40871   9.106   5.615  -0.419 -0.2022 -0.4362  3.4001
  303MOL0     H40872   9.249   5.513  -0.379 -1.0411 -1.8294  1.6699
  303MOL0     H40873   9.159   5.306  -0.422  1.5524  2.1665  3.3567
  303MOL0     H40874   8.998   5.374  -0.409  1.8238 -1.5539  0.8424
  303MOL0     H40875   9.001   5.475  -0.633 -1.0567 -1.4103 -2.1293
  303MOL0     H40876   9.042   5.312  -0.640  0.8829  0.8482 -1.4007
  303MOL0     H40877   9.283   5.365  -0.641 -3.7076 -3.9622  2.2721
  303MOL0     H40878   9.231   5.533  -0.677 -0.5943  1.0468 -2.5444
  303MOL0     H40879   9.113   5.318  -0.861 -2.2488  0.3993  1.8380
  303MOL0     H40880   9.103   5.486  -0.864  1.7358  0.7147 -0.7060
  303MOL0     H40881   9.356   5.310  -0.921  1.3586  0.1549 -1.5040
  303MOL0     H40882   9.375   5.478  -0.880 -0.2627  1.0216 -2.6363
  303MOL0     H40883   9.345   5.402  -1.138 -1.1444 -2.9527 -1.1380
  303MOL0     H40884   9.184   5.350  -1.097 -0.0673 -0.3784  0.3624
  303MOL0     H40885   9.283   5.559   0.053 -2.1127 -2.7976  0.1943
  303MOL0     H40886   9.220   5.636   0.272  0.4667 -4.8841 -0.9907
  303MOL0     H40887   8.893   5.552   0.663 -3.2545  0.0902  2.1384
  303MOL0     H40888   8.850   5.642   0.884  2.3675  0.8594  1.4963
  303MOL0     H40889   8.578   7.254   0.988  0.2837 -0.7034  4.7047
  303MOL0     H40890   8.726   7.424   0.862  5.8838  3.0807 -1.2701
  303MOL0     H40891   9.233   7.607   1.157 -1.7180  1.5364  0.4555
  303MOL0     H40892   9.418   7.748   1.115  2.2833  0.7126 -1.4697
  303MOL0     H40893   9.580   7.838   1.081 -1.1913 -3.4007 -0.2621
  303MOL0     H40894   9.618   7.980   0.985  1.0731 -1.2961  1.3737
  303MOL0     H40895   9.741   7.808   0.830  4.2463 -0.8197 -0.2101
  303MOL0     H40896   9.739   7.708   0.973  3.3835  1.4933  3.0781
  303MOL0     H40897   9.929   7.811   1.002  0.7423  0.6854 -0.2447
  303MOL0     H40898   9.823   7.932   1.093 -0.0227 -1.6845 -0.1041
  303MOL0     H40899   9.923   7.944   0.817 -0.4724 -1.1955  1.1340
  303MOL0     H40900   9.811   8.071   0.857 -0.6569 -1.6550 -0.8125
  303MOL0     H40901  10.158   8.168   1.092  0.4508  0.9327 -1.3884
  303MOL0     H40902   9.320   7.752   0.703 -1.7811 -3.2629 -2.6078
  303MOL0     H40903   9.118   7.517   0.679  1.3906  0.1004 -1.1269
  303MOL0     H40904   8.997   7.627   0.753 -0.6629 -3.2741  0.1129
  303MOL0     H40905   9.107   7.695   0.635 -0.5183 -0.0778  0.7759
  304MOL0     O40906   2.542   5.742   7.843  0.3974  0.0107  0.7146
  304MOL0     C40907   2.473   5.661   7.901 -0.4489 -0.8258  0.5880
  304MOL0     O40908   2.367   5.677   7.982  0.5380 -1.2101  0.2197
  304MOL0     C40909   2.343   5.805   8.021 -0.1494 -0.5218 -0.5745
  304MOL0     C40910   2.317   5.924   7.940 -0.5339  0.1278 -0.4216
  304MOL0     C40911   2.294   6.050   8.004 -0.0802  0.1662 -0.2561
  304MOL0     C40912   2.329   6.062   8.142 -0.4155 -0.4040 -0.3157
  304MOL0     O40913   2.330   6.191   8.190  0.2821 -0.2130  0.0582
  304MOL0     C40914   2.270   6.209   8.324  0.3840  0.9951 -0.6305
  304MOL0     C40915   2.347   6.317   8.401 -0.6494  0.1068  0.2769
  304MOL0     C40916   2.352   6.458   8.341  0.5747  0.3740 -0.3987
  304MOL0     C40917   2.397   6.560   8.449 -0.9803 -1.4115  0.4496
  304MOL0     C40918   2.391   6.707   8.388  0.1263  0.1901  0.0660
  304MOL0     C40919   2.243   6.761   8.374 -0.0471  0.9635 -0.3451
  304MOL0     C40920   2.230   6.909   8.397 -0.2135 -0.2957 -1.4218
  304MOL0     C40921   2.331   6.991   8.310 -0.3745 -0.5037 -0.5063
  304MOL0     N40922   2.308   7.141   8.301 -0.4636  0.9549 -0.7261
  304MOL0     C40923   2.198   7.209   8.270  0.3690 -0.5929 -0.1327
  304MOL0     C40924   2.229   7.338   8.288 -0.1632  0.8255 -0.4021
  304MOL0     C40925   2.149   7.462   8.275  0.1226 -0.5684  0.6689
  304MOL0     C40926   2.133   7.505   8.130  0.9876  1.0120 -1.1301
  304MOL0     C40927   2.260   7.569   8.070  1.1935 -0.5898  0.1726
  304MOL0     C40928   2.249   7.617   7.923  0.8580  0.0292 -0.5302
  304MOL0     O40929   2.162   7.533   7.847 -0.0307 -0.6635 -0.3417
  304MOL0     C40930   2.214   7.455   7.750  0.6574  0.4267  0.0425
  304MOL0     C40931   2.339   7.390   7.752  0.0970  0.0600 -0.0800
  304MOL0     C40932   2.397   7.318   7.648  0.3282 -0.1382 -0.5255
  304MOL0     C40933   2.315   7.298   7.539  0.0869  0.5432 -0.9483
  304MOL0     C40934   2.362   7.214   7.435  0.2681  0.8276  0.0489
  304MOL0     O40935   2.290   7.216   7.317 -0.0177 -0.5392  0.2687
  304MOL0     C40936   2.351   7.168   7.205  0.7285  0.2862  0.6993
  304MOL0     C40937   2.481   7.219   7.171 -0.1837  0.6334  0.6243
  304MOL0     C40938   2.541   7.178   7.050  0.2370  0.3093  0.6801
  304MOL0     C40939   2.474   7.086   6.959 -0.4139 -0.2428 -0.6125
  304MOL0     O40940   2.528   7.035   6.840  0.0029 -0.7260 -0.5223
  304MOL0     C40941   2.434   7.008   6.734  0.7555  0.7544 -0.8051
  304MOL0     C40942   2.478   6.975   6.591  0.0714  0.1525 -0.7660
  304MOL0     C40943   2.534   7.086   6.511  0.0805  0.5618  1.2159
  304MOL0     C40944   2.575   7.030   6.372 -0.1591 -0.2521  0.3974
  304MOL0     C40945   2.696   6.950   6.373 -0.2900  0.0175 -0.1310
  304MOL0     C40946   2.736   6.917   6.234 -0.6038 -0.1097 -0.3201
  304MOL0     C40947   2.840   6.809   6.228  0.5441  0.0301 -0.4176
  304MOL0     C40948   2.854   6.772   6.086 -0.5635 -0.6602 -0.0086
  304MOL0    Cl40949   2.732   6.658   6.030 -0.3915  0.2783 -0.1661
  304MOL0     C40950   2.337   7.056   6.999 -0.4928 -0.8983  0.6911
  304MOL0     C40951   2.278   7.095   7.119 -0.3487  1.2047  0.2376
  304MOL0     O40952   2.464   7.146   7.456  0.5466  0.4490  0.1466
  304MOL0     C40953   2.192   7.358   7.528  0.2592  0.2906 -0.3164
  304MOL0     C40954   2.140   7.433   7.634  0.2123 -0.2347  0.5333
  304MOL0     N40955   2.359   7.349   8.339  0.2990  0.8112 -0.5086
  304MOL0     N40956   2.412   7.230   8.334  1.0338 -0.2896 -0.1387
  304MOL0     C40957   2.371   5.951   8.217  0.0073  0.2085  0.1344
  304MOL0     C40958   2.370   5.823   8.162 -1.3650 -0.4265  0.5522
  304MOL0     C40959   2.508   5.518   7.881  0.0932  0.0168 -0.5988
  304MOL0     C40960   2.446   5.422   7.959 -0.7521 -0.5628 -0.2894
  304MOL0     C40961   2.457   5.289   7.939  0.0610 -0.2050  0.2723
  304MOL0     C40962   2.535   5.236   7.833  0.1683  0.2817 -0.1505
  304MOL0     O40963   2.557   5.102   7.803 -0.8197 -0.0445  0.0716
  304MOL0     C40964   2.481   4.992   7.855  0.5910 -0.0562  0.4645
  304MOL0     C40965   2.536   4.854   7.813  1.1189  0.0914 -0.5724
  304MOL0     C40966   2.689   4.824   7.849 -1.0145  0.5874 -0.0987
  304MOL0     C40967   2.738   4.686   7.826  0.0681 -0.4454  0.2617
  304MOL0     C40968   2.789   4.667   7.690  0.0607  0.0201  0.2707
  304MOL0     C40969   2.850   4.609   7.599 -0.7480 -0.5696  0.0756
  304MOL0     C40970   2.597   5.329   7.756  1.3956  0.5239  0.3152
  304MOL0     C40971   2.589   5.466   7.785 -0.0429 -0.1548 -0.1394
  304MOL0     C40972   2.650   5.554   7.676  0.1309  0.3093 -0.3302
  304MOL0     H40973   2.306   5.907   7.833  2.2025 -0.6974 -0.6457
  304MOL0     H40974   2.256   6.138   7.954 -0.8311 -0.9013 -1.5992
  304MOL0     H40975   2.175   6.257   8.301 -0.4412 -2.1394 -5.0240
  304MOL0     H40976   2.246   6.124   8.389  2.7064  0.4320 -0.4133
  304MOL0     H40977   2.451   6.287   8.411 -0.3006  0.4987 -1.6834
  304MOL0     H40978   2.301   6.322   8.500  1.6934 -1.7446  1.5332
  304MOL0     H40979   2.252   6.483   8.305  1.2857  3.1126 -0.7528
  304MOL0     H40980   2.416   6.455   8.252  0.8614 -6.7533 -0.5089
  304MOL0     H40981   2.345   6.551   8.545 -1.6407 -1.9162  0.0519
  304MOL0     H40982   2.504   6.541   8.464 -0.4901  1.9714  2.0209
  304MOL0     H40983   2.446   6.768   8.461  1.7146 -2.0703  0.8877
  304MOL0     H40984   2.453   6.719   8.299  1.3661 -1.4149  0.6544
  304MOL0     H40985   2.201   6.742   8.275 -1.6732 -2.7832  0.8653
  304MOL0     H40986   2.180   6.711   8.448  0.6202 -3.5532 -2.5056
  304MOL0     H40987   2.238   6.927   8.505 -1.2216 -4.1276 -0.5680
  304MOL0     H40988   2.135   6.954   8.368  0.2536  1.2607 -0.6504
  304MOL0     H40989   2.421   6.967   8.367 -1.7230 -3.1345  0.7260
  304MOL0     H40990   2.342   6.947   8.211 -3.2168 -1.8096 -0.3442
  304MOL0     H40991   2.104   7.168   8.234 -0.1035  2.3944 -2.7187
  304MOL0     H40992   2.048   7.443   8.314 -0.5412 -0.9630 -1.1331
  304MOL0     H40993   2.189   7.542   8.338 -2.8899  0.6380  1.2417
  304MOL0     H40994   2.118   7.414   8.070 -1.2564  2.2404 -2.5464
  304MOL0     H40995   2.046   7.571   8.127  0.9318  1.3002  2.3544
  304MOL0     H40996   2.340   7.494   8.079 -0.0339 -1.9160  0.3641
  304MOL0     H40997   2.283   7.653   8.136  0.3727  0.5193 -0.9120
  304MOL0     H40998   2.343   7.628   7.868 -0.0795  0.4117 -2.1361
  304MOL0     H40999   2.202   7.715   7.929  0.7307  0.0017 -1.0269
  304MOL0     H41000   2.391   7.407   7.845  1.1861 -1.4278 -0.3768
  304MOL0     H41001   2.496   7.271   7.645  1.4051  2.0570 -2.5883
  304MOL0     H41002   2.549   7.281   7.228  5.5453 -4.6152  0.5539
  304MOL0     H41003   2.639   7.219   7.027 -1.8555  4.4827 -2.0419
  304MOL0     H41004   2.394   6.911   6.764  1.5255 -0.1820 -2.5787
  304MOL0     H41005   2.353   7.081   6.736  1.6013  1.7401 -1.2413
  304MOL0     H41006   2.559   6.901   6.594  1.8710  2.0650 -0.1213
  304MOL0     H41007   2.392   6.926   6.545  0.9012 -2.3062  0.0937
  304MOL0     H41008   2.474   7.174   6.487  1.2725  1.2825  0.7818
  304MOL0     H41009   2.629   7.117   6.557  0.4942 -0.6674  1.2191
  304MOL0     H41010   2.600   7.106   6.298  1.9354 -1.0252  0.2244
  304MOL0     H41011   2.504   6.957   6.332 -0.9347 -0.3742  1.9200
  304MOL0     H41012   2.682   6.853   6.421  1.5583 -1.3421 -2.1328
  304MOL0     H41013   2.777   7.005   6.421 -1.0338 -0.3632  1.6217
  304MOL0     H41014   2.649   6.896   6.172  0.7745 -2.4212 -1.5990
  304MOL0     H41015   2.788   7.011   6.211 -3.6217  1.4693 -1.1284
  304MOL0     H41016   2.798   6.730   6.291  0.6903  1.1472  1.1427
  304MOL0     H41017   2.941   6.839   6.260 -0.1568  2.4797 -0.3468
  304MOL0     H41018   2.851   6.859   6.021 -0.2220  0.9735  2.0668
  304MOL0     H41019   2.956   6.735   6.075  0.5018  2.0240  0.1702
  304MOL0     H41020   2.265   7.003   6.938  0.6536  0.9178 -2.5167
  304MOL0     H41021   2.175   7.072   7.143 -0.2944  1.1846  0.4608
  304MOL0     H41022   2.135   7.340   7.438 -3.6984 -2.2654  2.3452
  304MOL0     H41023   2.033   7.447   7.626  0.3346  0.1834 -0.5963
  304MOL0     H41024   2.371   5.962   8.325 -0.4322 -2.1444  0.4132
  304MOL0     H41025   2.389   5.737   8.225  1.1506  1.6274  2.8432
  304MOL0     H41026   2.371   5.438   8.035 -3.0046  0.4259 -2.5872
  304MOL0     H41027   2.399   5.224   8.003  2.3133 -1.9864  0.6480
  304MOL0     H41028   2.376   5.010   7.833 -0.2322 -3.9403  0.5497
  304MOL0     H41029   2.492   4.995   7.964  4.2290 -0.7467  0.2533
  304MOL0     H41030   2.513   4.850   7.706  1.2663  1.0806 -0.6458
  304MOL0     H41031   2.472   4.782   7.865 -0.8977  2.1274 -0.0944
  304MOL0     H41032   2.720   4.848   7.950  1.3355 -2.0705 -0.0680
  304MOL0     H41033   2.753   4.899   7.802  0.6758  0.6245  2.1226
  304MOL0     H41034   2.826   4.650   7.881  2.8930  3.0293 -1.5430
  304MOL0     H41035   2.662   4.609   7.840  0.4509 -0.8953 -0.1405
  304MOL0     H41036   2.880   4.549   7.516  0.6848  0.2024  0.0176
  304MOL0     H41037   2.634   5.297   7.659 -0.8037  1.4480 -0.9093
  304MOL0     H41038   2.711   5.638   7.710  1.3989 -0.8141  0.2406
  304MOL0     H41039   2.707   5.487   7.611 -1.3285 -0.6638 -0.6570
  304MOL0     H41040   2.567   5.587   7.612  0.3251  0.3592 -0.5577
  305MOL0     O41041   2.622   2.435   3.795 -0.1343 -0.6408  0.3632
  305MOL0     C41042   2.676   2.541   3.831  0.5446  0.3812 -0.3043
  305MOL0     O41043   2.617   2.665   3.814  0.4064 -0.4973  0.2265
  305MOL0     C41044   2.486   2.687   3.800 -1.0173  0.1321  1.2697
  305MOL0     C41045   2.388   2.600   3.860 -0.0153  0.5455 -0.2724
  305MOL0     C41046   2.254   2.619   3.834  0.2624  0.1401  0.0181
  305MOL0     C41047   2.208   2.734   3.758  0.8326  0.1978  0.4480
  305MOL0     O41048   2.078   2.774   3.752 -0.0484  0.0053  0.2713
  305MOL0     C41049   1.981   2.702   3.823 -0.3547 -0.4364 -0.2420
  305MOL0     C41050   1.847   2.779   3.835  0.1010 -0.5733  0.0698
  305MOL0     C41051   1.764   2.753   3.701  0.7612 -0.1053 -0.0603
  305MOL0     C41052   1.626   2.825   3.689  0.6446  0.4453 -0.2787
  305MOL0     C41053   1.545   2.783   3.571  1.2207  0.1914  0.1276
  305MOL0     C41054   1.399   2.806   3.580  0.2906 -0.3344 -0.6469
  305MOL0     C41055   1.312   2.752   3.460  0.0935 -0.0815 -0.3241
  305MOL0     C41056   1.320   2.811   3.318  0.3913 -0.1847 -0.6797
  305MOL0     N41057   1.281   2.957   3.305 -0.1174 -0.0479 -0.2324
  305MOL0     C41058   1.169   3.012   3.357  0.3331 -0.4829 -0.0179
  305MOL0     C41059   1.189   3.143   3.333  0.3851 -0.9160 -0.4355
  305MOL0     C41060   1.094   3.252   3.379  0.4886  0.9280  0.2861
  305MOL0     C41061   1.168   3.382   3.366  0.1519 -0.1098 -0.5685
  305MOL0     C41062   1.066   3.495   3.373 -0.0095  0.2949  0.0904
  305MOL0     C41063   1.110   3.640   3.373 -0.7531  0.4928 -0.0096
  305MOL0     O41064   1.171   3.679   3.503 -0.3398  0.0565  0.1169
  305MOL0     C41065   1.304   3.681   3.519 -0.5261  0.3131 -0.5399
  305MOL0     C41066   1.361   3.750   3.621 -0.2295 -0.4651  0.5684
  305MOL0     C41067   1.498   3.749   3.643  0.3080 -0.0871  0.5648
  305MOL0     C41068   1.596   3.671   3.565 -0.3682 -0.6439 -0.2600
  305MOL0     C41069   1.739   3.659   3.600  0.5289 -0.5613 -0.3807
  305MOL0     O41070   1.826   3.618   3.509 -0.1437  0.4397 -0.2813
  305MOL0     C41071   1.942   3.567   3.567 -0.5409 -0.5191  1.1734
  305MOL0     C41072   1.973   3.430   3.578  0.9938  0.4395 -0.1429
  305MOL0     C41073   2.076   3.382   3.653 -0.4407 -0.8584  0.0146
  305MOL0     C41074   2.167   3.480   3.706 -0.5772 -0.2328 -0.6143
  305MOL0     O41075   2.283   3.428   3.761 -0.2011  0.8495  0.6855
  305MOL0     C41076   2.407   3.467   3.697 -0.2818  0.6366 -1.0001
  305MOL0     C41077   2.498   3.347   3.722 -0.2817  0.6255 -0.2964
  305MOL0     C41078   2.443   3.216   3.650  0.0063  0.5977 -0.1142
  305MOL0     C41079   2.523   3.169   3.525 -0.2515 -0.6878  0.0920
  305MOL0     C41080   2.512   3.258   3.402 -0.1721  0.2562  0.1737
  305MOL0     C41081   2.589   3.207   3.285  0.1047 -0.2971  0.5006
  305MOL0     C41082   2.522   3.239   3.148  0.2282 -0.6290 -0.8212
  305MOL0     C41083   2.595   3.347   3.072 -0.4812  0.0407 -0.1328
  305MOL0    Cl41084   2.479   3.420   2.977 -0.1231 -0.0008 -0.0487
  305MOL0     C41085   2.156   3.615   3.666 -0.6631  1.3439  1.1373
  305MOL0     C41086   2.047   3.655   3.597  0.4401  0.1986 -1.1909
  305MOL0     O41087   1.762   3.671   3.724  0.0484  0.3152 -0.0096
  305MOL0     C41088   1.542   3.611   3.449  0.7695  0.0481 -1.2590
  305MOL0     C41089   1.400   3.609   3.433  0.2835  0.5053 -0.8907
  305MOL0     N41090   1.315   3.157   3.275 -0.6167 -0.3968  0.0627
  305MOL0     N41091   1.370   3.045   3.252  0.1634  0.0684 -0.3175
  305MOL0     C41092   2.309   2.818   3.700  1.2286 -0.4169 -0.4930
  305MOL0     C41093   2.444   2.801   3.726 -0.2921  0.5998  0.3535
  305MOL0     C41094   2.814   2.532   3.882  0.4144  0.0429 -0.8930
  305MOL0     C41095   2.854   2.640   3.966  0.4825 -0.7388  0.1334
  305MOL0     C41096   2.984   2.659   4.020 -0.0140 -0.8353 -0.0628
  305MOL0     C41097   3.078   2.554   4.000  0.9992  0.4586  0.3530
  305MOL0     O41098   3.206   2.554   4.053  1.0257  0.1026  0.0649
  305MOL0     C41099   3.189   2.558   4.196 -0.4036 -0.3929 -0.1188
  305MOL0     C41100   3.305   2.477   4.260 -1.5206 -0.4918 -1.0678
  305MOL0     C41101   3.277   2.436   4.394  0.3536 -0.0045  0.0136
  305MOL0     C41102   3.395   2.401   4.486  0.2938 -0.0224 -0.3649
  305MOL0     C41103   3.504   2.508   4.487  0.4033 -0.2112  0.3832
  305MOL0     C41104   3.580   2.600   4.475 -0.1349 -0.2367 -0.1698
  305MOL0     C41105   3.030   2.445   3.927  0.4858  0.4084 -0.2808
  305MOL0     C41106   2.905   2.425   3.867  0.4821  0.5062 -0.5359
  305MOL0     C41107   2.878   2.296   3.781  0.5288  0.4252  0.4930
  305MOL0     H41108   2.418   2.520   3.927 -0.3682 -0.3421 -1.1544
  305MOL0     H41109   2.183   2.556   3.885 -1.0956 -1.3716 -3.4305
  305MOL0     H41110   1.962   2.606   3.774 -0.3032 -0.5206 -0.0961
  305MOL0     H41111   2.019   2.675   3.922  1.0393 -2.6135 -1.2941
  305MOL0     H41112   1.861   2.887   3.829 -0.4523 -0.5587 -1.3696
  305MOL0     H41113   1.788   2.749   3.922  0.6793 -1.4637  0.1719
  305MOL0     H41114   1.747   2.645   3.697  0.6950 -0.2197  2.1840
  305MOL0     H41115   1.807   2.783   3.605  0.3672 -0.9560 -0.5174
  305MOL0     H41116   1.581   2.800   3.785 -0.1830  2.5681 -0.0630
  305MOL0     H41117   1.632   2.934   3.682 -2.1337  0.6016 -1.7446
  305MOL0     H41118   1.582   2.821   3.475 -1.0465  1.4887 -0.3034
  305MOL0     H41119   1.551   2.673   3.565  1.9001  0.2566 -0.5916
  305MOL0     H41120   1.356   2.767   3.673 -2.0288  1.1976 -0.9825
  305MOL0     H41121   1.380   2.913   3.597  0.9777 -0.4069  0.7352
  305MOL0     H41122   1.207   2.762   3.491 -0.3943 -1.1539 -1.5333
  305MOL0     H41123   1.332   2.645   3.453  3.1189  0.4396 -1.2170
  305MOL0     H41124   1.417   2.785   3.275  1.9401  0.8359  1.9098
  305MOL0     H41125   1.240   2.757   3.268 -1.3944  1.3067  0.4127
  305MOL0     H41126   1.086   2.966   3.411 -1.2013 -0.8317 -2.4827
  305MOL0     H41127   1.005   3.252   3.317  1.7728 -0.9944 -1.7007
  305MOL0     H41128   1.065   3.243   3.485 -1.0402  1.6910 -0.0446
  305MOL0     H41129   1.228   3.406   3.455 -1.1720  0.9561  0.0809
  305MOL0     H41130   1.232   3.382   3.278  0.8457  1.0907 -0.0886
  305MOL0     H41131   1.010   3.482   3.467  3.8416 -1.6583  2.4001
  305MOL0     H41132   1.000   3.477   3.288 -1.4000  0.1730  1.1595
  305MOL0     H41133   1.016   3.694   3.364 -0.7038  0.5746 -0.0338
  305MOL0     H41134   1.175   3.664   3.288  1.0458  0.9812  1.4244
  305MOL0     H41135   1.305   3.812   3.690 -1.7675 -1.5855  0.3739
  305MOL0     H41136   1.532   3.806   3.729 -2.7149  2.1852  0.4107
  305MOL0     H41137   1.906   3.361   3.527 -1.6421  0.2909  3.1894
  305MOL0     H41138   2.100   3.277   3.667  1.6732 -0.1130  3.0684
  305MOL0     H41139   2.392   3.501   3.594  0.6652 -1.2143 -1.7950
  305MOL0     H41140   2.446   3.547   3.762 -1.7470 -0.1017  0.8818
  305MOL0     H41141   2.599   3.371   3.688  0.6615  0.1323  1.9582
  305MOL0     H41142   2.502   3.330   3.830  1.2933 -1.2999 -0.6028
  305MOL0     H41143   2.454   3.133   3.720 -1.6210 -0.8242 -1.4600
  305MOL0     H41144   2.339   3.227   3.618  1.1561 -0.0467 -4.8514
  305MOL0     H41145   2.476   3.073   3.503 -2.8641  0.3698  0.7118
  305MOL0     H41146   2.630   3.163   3.549 -0.3693  0.6290  1.0706
  305MOL0     H41147   2.554   3.356   3.429  2.0649 -1.1694  2.2872
  305MOL0     H41148   2.405   3.264   3.382 -0.8372  2.5333  3.6076
  305MOL0     H41149   2.691   3.245   3.299  0.3769 -1.6751  2.9482
  305MOL0     H41150   2.589   3.098   3.283 -0.2065 -0.2887 -0.5053
  305MOL0     H41151   2.419   3.270   3.169  0.1731 -0.9373 -0.6215
  305MOL0     H41152   2.514   3.152   3.082  3.0106 -3.2935  2.0229
  305MOL0     H41153   2.647   3.417   3.138  2.7598 -2.5480  0.3262
  305MOL0     H41154   2.680   3.317   3.010  3.2122  1.1691  3.8783
  305MOL0     H41155   2.236   3.689   3.670 -2.1669  3.2271 -1.1735
  305MOL0     H41156   2.032   3.761   3.578 -0.9762  0.0986 -0.7975
  305MOL0     H41157   1.605   3.566   3.373  2.3191  0.0609 -0.0273
  305MOL0     H41158   1.362   3.551   3.350 -3.5924  0.8237  0.4486
  305MOL0     H41159   2.279   2.904   3.641 -1.7457 -0.1471  1.2086
  305MOL0     H41160   2.514   2.865   3.673 -1.1686  0.8683 -0.5080
  305MOL0     H41161   2.777   2.711   3.996  0.4624 -0.2034 -1.1611
  305MOL0     H41162   3.017   2.750   4.069  0.9856 -1.7337  0.9705
  305MOL0     H41163   3.093   2.516   4.229 -1.1116  1.2034 -0.0371
  305MOL0     H41164   3.187   2.664   4.222 -2.7249 -0.7865  1.6685
  305MOL0     H41165   3.394   2.540   4.267 -1.2767 -1.0023  1.1750
  305MOL0     H41166   3.331   2.392   4.197 -0.7184 -2.0072  1.1937
  305MOL0     H41167   3.203   2.355   4.392 -1.1378  1.0781  3.1358
  305MOL0     H41168   3.214   2.508   4.449  0.6045  0.3139 -0.1146
  305MOL0     H41169   3.360   2.386   4.588  1.4140  0.9105  0.1919
  305MOL0     H41170   3.444   2.320   4.431 -0.5006 -1.2022  0.6329
  305MOL0     H41171   3.646   2.683   4.460  1.7381 -1.6047  0.1039
  305MOL0     H41172   3.105   2.368   3.913 -0.2299 -0.6251  1.3116
  305MOL0     H41173   2.968   2.235   3.778  0.7608  0.5564  2.8044
  305MOL0     H41174   2.805   2.247   3.847 -0.0077  1.4078  0.6464
  305MOL0     H41175   2.850   2.326   3.679 -1.1995 -1.5260  0.3253
  306MOL0     O41176   6.599  11.255   2.930 -0.0864  0.2831 -0.0780
  306MOL0     C41177   6.526  11.199   3.016 -0.1466 -0.2054 -0.2469
  306MOL0     O41178   6.419  11.248   3.085 -0.2145 -0.7328  0.5567
  306MOL0     C41179   6.373  11.370   3.045  0.8679  0.3591  1.0217
  306MOL0     C41180   6.368  11.422   2.913 -0.1530 -0.3873  0.1959
  306MOL0     C41181   6.291  11.535   2.886  0.2320 -0.4629 -0.2716
  306MOL0     C41182   6.226  11.601   2.986 -0.3149  0.2277 -0.4324
  306MOL0     O41183   6.159  11.715   2.968  0.5739 -0.2792  0.7028
  306MOL0     C41184   6.210  11.792   2.849 -0.1676  0.2674  1.4420
  306MOL0     C41185   6.155  11.936   2.874  0.1141 -0.1521 -0.0419
  306MOL0     C41186   6.020  11.958   2.797 -0.5381 -0.0353 -0.8627
  306MOL0     C41187   5.982  12.106   2.822 -0.1367 -0.4651  0.3184
  306MOL0     C41188   5.855  12.128   2.745  0.2934  0.0670 -0.2443
  306MOL0     C41189   5.812  12.269   2.783 -0.8109 -0.3891  0.2578
  306MOL0     C41190   5.675  12.307   2.717 -0.3689 -0.2840 -0.3682
  306MOL0     C41191   5.620  12.440   2.771  0.8211  0.0128 -0.1177
  306MOL0     N41192   5.616  12.452   2.914 -0.6070 -0.0064 -0.5613
  306MOL0     C41193   5.694  12.531   2.993 -0.7602 -0.0050  0.2769
  306MOL0     C41194   5.635  12.540   3.117 -0.5311 -0.8108 -0.1119
  306MOL0     C41195   5.678  12.623   3.234  0.0509 -0.7725  0.1613
  306MOL0     C41196   5.673  12.766   3.207  0.0801 -0.6461 -0.4102
  306MOL0     C41197   5.532  12.817   3.152  0.0379  0.0922 -0.1553
  306MOL0     C41198   5.553  12.960   3.103 -0.0532 -0.1222 -0.8438
  306MOL0     O41199   5.607  13.053   3.204  0.4199 -0.4991 -0.2013
  306MOL0     C41200   5.633  13.181   3.169 -0.6261  0.6927  0.4959
  306MOL0     C41201   5.667  13.256   3.281  0.3190 -0.4175 -0.4871
  306MOL0     C41202   5.698  13.387   3.272  0.4576 -0.6355  0.6795
  306MOL0     C41203   5.681  13.461   3.151  0.0551  0.4157 -0.1354
  306MOL0     C41204   5.698  13.615   3.146 -0.5884  0.3391  0.0589
  306MOL0     O41205   5.737  13.668   3.270  0.6714 -0.8739 -0.3087
  306MOL0     C41206   5.769  13.808   3.263  0.6823  0.2507 -0.8764
  306MOL0     C41207   5.849  13.873   3.155 -0.0991  0.3258 -0.2497
  306MOL0     C41208   5.866  14.006   3.158 -0.8229  0.5064 -0.2759
  306MOL0     C41209   5.824  14.085   3.263 -0.4834 -0.1135 -0.5572
  306MOL0     O41210   5.848  14.216   3.251 -0.0288  0.1118 -0.3479
  306MOL0     C41211   5.785  14.325   3.317 -0.0229  0.7011 -0.1234
  306MOL0     C41212   5.900  14.431   3.339 -0.6180  0.3764 -0.3121
  306MOL0     C41213   6.021  14.392   3.425  0.5381 -0.3580  0.1340
  306MOL0     C41214   6.141  14.487   3.399  0.6283  0.4764 -0.5851
  306MOL0     C41215   6.140  14.611   3.485 -0.1966  0.4133  1.0409
  306MOL0     C41216   6.043  14.710   3.424 -0.3979  0.1112 -0.1687
  306MOL0     C41217   6.081  14.860   3.450 -1.0310 -0.2920  0.3769
  306MOL0     C41218   5.958  14.946   3.410 -0.9468 -0.0699 -0.2531
  306MOL0    Cl41219   5.995  15.122   3.421 -0.1265 -0.3381 -0.1759
  306MOL0     C41220   5.760  14.035   3.374  0.8088  1.0092 -0.2999
  306MOL0     C41221   5.725  13.899   3.368  0.3324  0.6882 -0.2028
  306MOL0     O41222   5.672  13.667   3.038  0.1675 -0.4079 -0.0533
  306MOL0     C41223   5.647  13.390   3.040 -0.3917  0.7374  0.5014
  306MOL0     C41224   5.630  13.249   3.046 -0.1759  0.3241  0.4396
  306MOL0     N41225   5.521  12.470   3.113 -0.1891  0.3468 -0.5015
  306MOL0     N41226   5.509  12.419   2.999  0.2166 -0.1701  0.1914
  306MOL0     C41227   6.237  11.556   3.120  0.7291  0.5431  0.1707
  306MOL0     C41228   6.315  11.445   3.152 -1.4312  0.2534  0.1786
  306MOL0     C41229   6.594  11.086   3.084  0.0227 -0.8731 -0.5338
  306MOL0     C41230   6.568  11.074   3.222 -0.1706 -1.0385  0.3201
  306MOL0     C41231   6.608  10.960   3.285 -0.3545 -1.3572  0.3399
  306MOL0     C41232   6.689  10.863   3.219  0.0860 -1.5031 -0.5237
  306MOL0     O41233   6.735  10.748   3.282 -0.2654  0.5826  0.1727
  306MOL0     C41234   6.785  10.771   3.415  0.0447  0.4333  0.2141
  306MOL0     C41235   6.894  10.671   3.450 -0.2199  0.1328 -0.2157
  306MOL0     C41236   6.953  10.707   3.594  1.4318 -1.1488  0.4148
  306MOL0     C41237   7.068  10.814   3.597 -0.4504  0.0423  0.5114
  306MOL0     C41238   7.094  10.835   3.738 -0.2326  0.4144  0.3545
  306MOL0     C41239   7.113  10.856   3.857 -0.4985  0.2464 -0.2461
  306MOL0     C41240   6.715  10.888   3.084 -0.0464  0.5049 -0.5070
  306MOL0     C41241   6.667  10.995   3.012  0.0057 -0.6092  0.4033
  306MOL0     C41242   6.702  11.005   2.873  0.0491  0.5119  0.2672
  306MOL0     H41243   6.407  11.383   2.819  0.9829  1.5215 -0.1929
  306MOL0     H41244   6.281  11.551   2.779 -1.7474  0.6479  0.0377
  306MOL0     H41245   6.319  11.795   2.846 -0.0283 -1.7349 -2.6696
  306MOL0     H41246   6.169  11.748   2.757  1.4843 -1.0983  1.3331
  306MOL0     H41247   6.230  12.007   2.838  1.8405 -2.9733 -2.4593
  306MOL0     H41248   6.131  11.941   2.981 -1.5553  0.2932 -0.4191
  306MOL0     H41249   5.941  11.889   2.828 -0.7834  1.2894  1.6895
  306MOL0     H41250   6.037  11.932   2.692 -0.9260 -2.2478 -0.4118
  306MOL0     H41251   5.969  12.129   2.928 -0.9836  3.1018 -0.4389
  306MOL0     H41252   6.067  12.160   2.781  1.3208 -4.2262 -2.1803
  306MOL0     H41253   5.878  12.127   2.638  0.3645 -0.3545 -0.2261
  306MOL0     H41254   5.769  12.065   2.768 -2.7637  3.5527 -1.1340
  306MOL0     H41255   5.795  12.274   2.891 -0.5524  2.1943  0.2281
  306MOL0     H41256   5.888  12.344   2.761 -0.9863  0.5637  2.6086
  306MOL0     H41257   5.600  12.232   2.745 -2.0305  1.7321  0.8547
  306MOL0     H41258   5.678  12.307   2.608 -1.0564  0.3196 -0.3970
  306MOL0     H41259   5.682  12.520   2.730  1.0946  0.6399  1.4693
  306MOL0     H41260   5.518  12.459   2.737  0.2826 -0.4855  1.1663
  306MOL0     H41261   5.786  12.574   2.956 -0.6478  0.1650  0.7462
  306MOL0     H41262   5.601  12.613   3.311  0.7144  0.8379  1.0806
  306MOL0     H41263   5.776  12.596   3.274 -0.0084 -2.7415 -0.8607
  306MOL0     H41264   5.689  12.819   3.302  2.6272  0.9650 -1.6543
  306MOL0     H41265   5.760  12.791   3.147  0.1930 -1.5455 -0.6305
  306MOL0     H41266   5.465  12.828   3.238 -0.1300  0.1848 -0.2988
  306MOL0     H41267   5.496  12.751   3.073  0.8551 -0.5731  0.0081
  306MOL0     H41268   5.463  13.004   3.059 -0.2045 -0.2482 -0.6598
  306MOL0     H41269   5.626  12.971   3.022  0.4205  1.5960 -0.2335
  306MOL0     H41270   5.683  13.214   3.380 -1.0197  1.8193  0.7656
  306MOL0     H41271   5.732  13.445   3.357 -1.9598  0.5232  0.9298
  306MOL0     H41272   5.900  13.808   3.085  0.0317  1.2406 -1.0132
  306MOL0     H41273   5.919  14.054   3.077  1.2465 -0.9404  0.1678
  306MOL0     H41274   5.711  14.374   3.254 -0.3214 -0.1170 -0.4239
  306MOL0     H41275   5.738  14.295   3.411  0.9331  0.2770  0.2339
  306MOL0     H41276   5.949  14.462   3.246  0.4592  3.5286  1.1661
  306MOL0     H41277   5.858  14.523   3.379 -0.9695 -0.4135  1.2040
  306MOL0     H41278   5.989  14.377   3.529 -5.2957 -0.2965 -1.3229
  306MOL0     H41279   6.048  14.290   3.396  1.0254 -0.3171  0.4281
  306MOL0     H41280   6.136  14.510   3.292 -0.4055 -0.3012 -0.7215
  306MOL0     H41281   6.236  14.436   3.412 -0.7384 -1.4589  3.5813
  306MOL0     H41282   6.241  14.652   3.477  0.9755 -2.3011  0.7114
  306MOL0     H41283   6.129  14.600   3.594  2.0372  1.4159  1.4266
  306MOL0     H41284   6.033  14.712   3.315  0.8143  0.7316 -0.2935
  306MOL0     H41285   5.953  14.681   3.479  0.3188  0.8837  1.4895
  306MOL0     H41286   6.163  14.899   3.389 -2.6924  0.9963 -1.1595
  306MOL0     H41287   6.116  14.875   3.553  2.6077 -0.0618 -0.7417
  306MOL0     H41288   5.923  14.916   3.310  0.8468  0.2312 -1.0113
  306MOL0     H41289   5.877  14.918   3.478  0.0474 -1.8982  0.2289
  306MOL0     H41290   5.715  14.082   3.460 -0.3648 -1.7230  0.6896
  306MOL0     H41291   5.667  13.854   3.447 -0.1484 -1.4246 -1.6734
  306MOL0     H41292   5.641  13.450   2.949 -0.2379 -0.3365 -0.2359
  306MOL0     H41293   5.584  13.201   2.961 -1.2061 -0.5309  1.4588
  306MOL0     H41294   6.181  11.606   3.198 -1.8166  0.9314 -1.7745
  306MOL0     H41295   6.316  11.421   3.258  0.5626 -2.4099 -0.3335
  306MOL0     H41296   6.509  11.139   3.286  0.1576  0.3063 -0.6991
  306MOL0     H41297   6.584  10.948   3.390  1.1210 -0.4370  0.8126
  306MOL0     H41298   6.697  10.763   3.479 -2.5670 -2.4878 -3.2437
  306MOL0     H41299   6.821  10.873   3.425 -0.2242  0.5249  0.2605
  306MOL0     H41300   6.967  10.675   3.369 -0.9766  0.2176 -0.9046
  306MOL0     H41301   6.849  10.571   3.441 -0.4126  0.3899 -3.7132
  306MOL0     H41302   6.982  10.617   3.648 -2.0414 -1.3902  2.2115
  306MOL0     H41303   6.870  10.754   3.648  1.2244  0.5986 -1.3114
  306MOL0     H41304   7.154  10.766   3.548  0.0356  0.3976  1.0183
  306MOL0     H41305   7.039  10.908   3.551  2.8157  0.3167 -1.3398
  306MOL0     H41306   7.115  10.867   3.963  1.0974  1.0099 -0.3272
  306MOL0     H41307   6.777  10.817   3.031 -0.5112 -0.2300 -0.0733
  306MOL0     H41308   6.618  11.056   2.825 -0.2438  0.5171  0.7730
  306MOL0     H41309   6.797  11.059   2.861 -0.3065  0.9656 -0.5970
  306MOL0     H41310   6.713  10.912   2.817  0.5696  2.6353 -3.4899
  307MOL0     O41311  10.281   7.739   5.423 -0.1660 -0.0046 -0.3127
  307MOL0     C41312  10.300   7.633   5.362  0.4088  0.0188  0.2478
  307MOL0     O41313  10.358   7.620   5.235  0.2043 -1.3523  0.0655
  307MOL0     C41314  10.400   7.729   5.162  0.2465 -0.0120  0.0809
  307MOL0     C41315  10.298   7.823   5.118  0.0193  0.8705  0.4577
  307MOL0     C41316  10.353   7.924   5.043  0.6031 -0.8425 -0.6204
  307MOL0     C41317  10.478   7.926   4.995  1.0513 -0.2926 -0.3001
  307MOL0     O41318  10.504   8.036   4.923  0.4570 -0.9737 -0.2164
  307MOL0     C41319  10.641   8.071   4.912 -0.2780 -0.5661  1.4916
  307MOL0     C41320  10.630   8.226   4.887 -0.3477  0.6844 -0.1235
  307MOL0     C41321  10.576   8.259   4.753 -0.1290 -1.0320 -0.0139
  307MOL0     C41322  10.648   8.187   4.637 -0.2293 -0.9366  0.2141
  307MOL0     C41323  10.609   8.254   4.499 -0.0050 -0.5924 -0.6619
  307MOL0     C41324  10.666   8.167   4.384 -0.6601  0.1841  0.3005
  307MOL0     C41325  10.826   8.140   4.394  0.0545 -1.3059  0.5882
  307MOL0     C41326  10.890   8.108   4.266  0.8805 -0.2964 -0.2903
  307MOL0     N41327  11.029   8.088   4.310  0.4011 -0.2747  0.1521
  307MOL0     C41328  11.077   7.959   4.322  0.2796 -0.3843 -0.3752
  307MOL0     C41329  11.213   7.992   4.362  0.0089  0.2730 -0.4423
  307MOL0     C41330  11.334   7.910   4.387 -0.6518 -0.2814 -0.6064
  307MOL0     C41331  11.391   7.865   4.248  1.4994 -0.8929 -0.3320
  307MOL0     C41332  11.517   7.792   4.285 -0.4448 -0.1091 -0.7209
  307MOL0     C41333  11.593   7.743   4.165 -0.6494  0.2259  0.1000
  307MOL0     O41334  11.704   7.665   4.212 -0.6016  0.1033  0.0125
  307MOL0     C41335  11.797   7.599   4.134 -0.7327 -0.6018 -0.2492
  307MOL0     C41336  11.813   7.622   3.993 -0.2210 -0.4218 -0.2927
  307MOL0     C41337  11.911   7.545   3.932  0.3846  0.6487  0.8665
  307MOL0     C41338  12.003   7.465   4.001 -0.2485 -1.4953  0.4854
  307MOL0     C41339  12.112   7.399   3.924  0.3849 -0.1565 -0.2287
  307MOL0     O41340  12.128   7.430   3.790  0.3054 -0.7087 -0.3158
  307MOL0     C41341  12.228   7.361   3.721 -0.3050  0.4531 -0.1820
  307MOL0     C41342  12.212   7.256   3.643 -0.7127  0.0885  0.9514
  307MOL0     C41343  12.319   7.181   3.593  0.4295  0.4528  0.0363
  307MOL0     C41344  12.450   7.221   3.617  0.2404 -1.0038 -0.6182
  307MOL0     O41345  12.546   7.157   3.546  0.2076 -0.3402  0.1359
  307MOL0     C41346  12.645   7.097   3.632  0.5527  0.5721 -0.5278
  307MOL0     C41347  12.729   6.989   3.570 -1.0896  0.3349  0.8866
  307MOL0     C41348  12.635   6.863   3.542  0.5959  0.7188  0.7766
  307MOL0     C41349  12.723   6.757   3.462 -0.4408  0.5150 -0.9446
  307MOL0     C41350  12.647   6.619   3.454  0.4234  0.2571  0.1535
  307MOL0     C41351  12.628   6.551   3.600  0.0372  0.6595  0.6858
  307MOL0     C41352  12.488   6.541   3.659  1.2857 -0.3642  0.3484
  307MOL0     C41353  12.411   6.432   3.597  0.5997  0.1097 -0.0076
  307MOL0    Cl41354  12.241   6.389   3.654 -0.0456 -0.4488 -0.4805
  307MOL0     C41355  12.472   7.337   3.682  0.7736 -0.7285  0.0648
  307MOL0     C41356  12.360   7.405   3.739  0.9341  0.0220  0.6673
  307MOL0     O41357  12.185   7.330   3.990 -0.6495  0.6693  0.3096
  307MOL0     C41358  11.986   7.448   4.134  0.2441 -1.1738 -0.3645
  307MOL0     C41359  11.886   7.516   4.203 -0.2712  0.0490  0.1683
  307MOL0     N41360  11.223   8.127   4.384 -0.2832 -0.6455  0.2191
  307MOL0     N41361  11.110   8.186   4.346 -0.8558 -0.5386 -0.0865
  307MOL0     C41362  10.575   7.835   5.034  0.4934  0.4698  0.7874
  307MOL0     C41363  10.536   7.741   5.134  0.5313 -1.1466  0.4220
  307MOL0     C41364  10.296   7.508   5.452 -0.0933  0.5046 -0.3003
  307MOL0     C41365  10.383   7.400   5.411  0.1086  0.3301 -0.4978
  307MOL0     C41366  10.380   7.280   5.483  1.0884  0.6682  0.0360
  307MOL0     C41367  10.299   7.266   5.596 -0.7885 -0.4293  0.1913
  307MOL0     O41368  10.307   7.155   5.673 -1.1146 -0.5023 -0.4731
  307MOL0     C41369  10.431   7.136   5.745 -0.5353  0.3385  0.2626
  307MOL0     C41370  10.443   6.994   5.808  0.5683  0.0561 -0.1691
  307MOL0     C41371  10.576   6.996   5.885 -0.5356  0.5865 -0.1512
  307MOL0     C41372  10.572   7.068   6.024 -0.0639  0.2688  0.1075
  307MOL0     C41373  10.468   7.030   6.124  0.1076  0.5737  0.3404
  307MOL0     C41374  10.367   7.024   6.199 -0.0665 -0.1509 -0.4683
  307MOL0     C41375  10.218   7.368   5.641  0.6794 -0.7107  0.3713
  307MOL0     C41376  10.220   7.496   5.580  0.0882 -0.3449  0.4142
  307MOL0     C41377  10.127   7.600   5.627  0.6813 -1.4634 -0.0557
  307MOL0     H41378  10.196   7.807   5.150  0.6800 -5.0903  0.6325
  307MOL0     H41379  10.288   8.007   5.019 -0.1430 -0.9554  0.9455
  307MOL0     H41380  10.690   8.048   5.007 -1.4221 -1.2678  1.9364
  307MOL0     H41381  10.693   8.022   4.828 -0.2675 -0.9312  1.7079
  307MOL0     H41382  10.729   8.270   4.902  0.5995 -0.6992 -1.9237
  307MOL0     H41383  10.564   8.261   4.967 -2.1632  1.2136 -1.7743
  307MOL0     H41384  10.602   8.364   4.738  0.1843 -0.9842  0.8037
  307MOL0     H41385  10.470   8.244   4.735 -0.1969  1.2734 -2.1932
  307MOL0     H41386  10.756   8.188   4.654 -0.5252 -1.3285  2.4515
  307MOL0     H41387  10.601   8.089   4.635  1.9628 -2.1954  3.1077
  307MOL0     H41388  10.500   8.245   4.493 -0.1233  0.9252 -1.2904
  307MOL0     H41389  10.645   8.356   4.485  1.2067 -0.6209  1.7410
  307MOL0     H41390  10.622   8.069   4.367 -0.7724  0.4173 -0.8036
  307MOL0     H41391  10.643   8.213   4.287  1.9655 -0.0730 -0.5257
  307MOL0     H41392  10.848   8.057   4.461  1.6353 -2.7775 -1.6323
  307MOL0     H41393  10.872   8.224   4.446 -0.3530 -0.7655  0.1023
  307MOL0     H41394  10.841   8.024   4.217 -0.1427 -0.5409  1.0741
  307MOL0     H41395  10.887   8.199   4.206 -0.5388 -0.2407 -0.1721
  307MOL0     H41396  11.024   7.865   4.306  2.1058 -2.0347  2.4746
  307MOL0     H41397  11.402   7.973   4.446 -1.8310  0.1024  0.3938
  307MOL0     H41398  11.298   7.821   4.439  2.1313 -0.5660  1.0385
  307MOL0     H41399  11.330   7.788   4.200 -0.0595 -1.9621  3.0875
  307MOL0     H41400  11.411   7.959   4.195  1.2996  0.6295  2.1473
  307MOL0     H41401  11.489   7.717   4.361 -1.3995  0.6615 -0.2878
  307MOL0     H41402  11.575   7.871   4.333  0.1638 -0.0321 -1.5616
  307MOL0     H41403  11.626   7.830   4.106  1.6408 -0.8855 -0.3587
  307MOL0     H41404  11.528   7.681   4.103  0.7215 -0.7561 -0.3991
  307MOL0     H41405  11.756   7.683   3.923  1.8062  2.1484  0.1186
  307MOL0     H41406  11.926   7.561   3.825  1.0465 -2.5603  0.3840
  307MOL0     H41407  12.110   7.222   3.632 -1.2621  2.1902 -1.2618
  307MOL0     H41408  12.318   7.099   3.522  1.0594  0.2984  0.1962
  307MOL0     H41409  12.710   7.181   3.660 -2.3596  3.4407 -1.7625
  307MOL0     H41410  12.590   7.064   3.720 -0.7526  4.3008  0.2512
  307MOL0     H41411  12.771   7.018   3.474 -1.5021 -0.6221  0.4047
  307MOL0     H41412  12.805   6.965   3.645  0.5815 -2.4287 -1.4786
  307MOL0     H41413  12.608   6.814   3.636 -0.6053  0.7727  0.4755
  307MOL0     H41414  12.542   6.889   3.490  1.1123 -0.2580 -0.7023
  307MOL0     H41415  12.818   6.746   3.515 -1.0501  2.3332  0.6221
  307MOL0     H41416  12.753   6.796   3.364 -0.1068 -2.0914 -1.9799
  307MOL0     H41417  12.706   6.555   3.387 -1.8355 -1.6648 -0.1164
  307MOL0     H41418  12.551   6.637   3.406  0.3714  2.6389  1.0153
  307MOL0     H41419  12.674   6.452   3.609 -1.8485 -0.2655  0.5983
  307MOL0     H41420  12.687   6.619   3.662  1.1074 -0.8947  1.4153
  307MOL0     H41421  12.435   6.634   3.636  3.8350  0.5396 -2.5573
  307MOL0     H41422  12.497   6.522   3.767  0.1823 -0.8922  0.3654
  307MOL0     H41423  12.401   6.448   3.489 -0.8406 -2.5263 -0.3453
  307MOL0     H41424  12.475   6.345   3.608  1.6556  0.9427  0.6206
  307MOL0     H41425  12.569   7.384   3.695 -0.4458  1.9682 -0.1136
  307MOL0     H41426  12.384   7.497   3.791  0.7509 -0.9810  2.5822
  307MOL0     H41427  12.056   7.395   4.198 -2.0478 -2.1884  1.4784
  307MOL0     H41428  11.867   7.516   4.310  2.2387  0.1137  0.6749
  307MOL0     H41429  10.679   7.825   5.004  2.2304  1.8061  5.4484
  307MOL0     H41430  10.602   7.664   5.175  1.4958 -1.4191 -1.5395
  307MOL0     H41431  10.447   7.407   5.324  0.6506 -3.0448 -0.4971
  307MOL0     H41432  10.432   7.187   5.460  1.3645  1.0514 -0.9478
  307MOL0     H41433  10.414   7.206   5.827 -2.9733 -0.6498  0.7127
  307MOL0     H41434  10.510   7.174   5.680 -0.2642 -0.6044  0.0319
  307MOL0     H41435  10.449   6.915   5.733 -0.1852 -0.8756  0.7226
  307MOL0     H41436  10.356   6.981   5.873  0.5707 -0.0336 -0.1825
  307MOL0     H41437  10.658   7.048   5.834  1.0096 -2.2679 -0.7289
  307MOL0     H41438  10.620   6.901   5.912 -1.9331  0.0596  0.3673
  307MOL0     H41439  10.666   7.050   6.077  1.3948  2.7579 -1.4387
  307MOL0     H41440  10.569   7.175   6.002 -0.0231 -0.0172 -1.4581
  307MOL0     H41441  10.298   7.023   6.281  0.8194 -0.9117  0.2959
  307MOL0     H41442  10.159   7.352   5.731 -0.6019  0.8085 -0.1484
  307MOL0     H41443  10.080   7.669   5.556  1.4377 -0.4346  0.4244
  307MOL0     H41444  10.047   7.556   5.687  0.4527  2.1101  2.5679
  307MOL0     H41445  10.193   7.659   5.691  1.4090 -0.7496 -1.4016
  308MOL0     O41446  10.741   7.708   4.189  0.1573  0.0749 -0.4078
  308MOL0     C41447  10.659   7.661   4.270 -0.7504 -0.1416 -0.0598
  308MOL0     O41448  10.537   7.607   4.238 -0.3426 -0.8368 -0.3018
  308MOL0     C41449  10.469   7.621   4.119 -0.0255  1.3175 -0.7177
  308MOL0     C41450  10.359   7.538   4.094 -0.8978  0.7303  1.0369
  308MOL0     C41451  10.295   7.539   3.970  0.3908 -0.2346 -0.9862
  308MOL0     C41452  10.335   7.621   3.867  0.7945 -0.5210 -0.5592
  308MOL0     O41453  10.281   7.629   3.741  1.2632  0.0652  0.3613
  308MOL0     C41454  10.142   7.609   3.712 -0.3389 -0.5346 -0.9877
  308MOL0     C41455  10.118   7.599   3.568  0.7746  0.4333  1.3597
  308MOL0     C41456   9.979   7.569   3.519  0.0214 -0.3295 -0.5145
  308MOL0     C41457   9.984   7.498   3.388 -0.5246  1.4904 -0.2135
  308MOL0     C41458  10.000   7.589   3.273 -0.1410 -0.1945  0.8996
  308MOL0     C41459   9.969   7.526   3.142 -0.0821  0.9862 -0.5224
  308MOL0     C41460  10.020   7.598   3.021  0.2509  0.4291 -0.0569
  308MOL0     C41461   9.991   7.748   3.028 -0.4060  1.5566 -0.7254
  308MOL0     N41462  10.009   7.810   2.896 -0.3918 -0.0613 -0.5398
  308MOL0     C41463  10.129   7.818   2.821  0.0457  0.3789  0.2021
  308MOL0     C41464  10.084   7.889   2.710  0.5309 -0.2706 -0.4006
  308MOL0     C41465  10.179   7.917   2.597  0.0405  0.2711  0.6885
  308MOL0     C41466  10.132   7.836   2.475 -0.1777  0.4826  0.4252
  308MOL0     C41467  10.232   7.859   2.376 -0.4532  0.1495  0.1122
  308MOL0     C41468  10.190   7.806   2.238  0.2562 -0.5299 -0.2726
  308MOL0     O41469  10.282   7.845   2.134  0.0523 -0.0909 -0.0672
  308MOL0     C41470  10.287   7.980   2.111  0.2095  1.1234 -0.8003
  308MOL0     C41471  10.395   8.033   2.048  0.2850  0.5452 -0.6715
  308MOL0     C41472  10.398   8.157   2.013 -0.5817 -0.6925  0.5972
  308MOL0     C41473  10.291   8.249   2.041  0.4069 -0.5040 -0.3690
  308MOL0     C41474  10.297   8.400   2.002  0.4859  0.0426 -0.2079
  308MOL0     O41475  10.188   8.475   2.019 -0.0504 -0.1890  0.5596
  308MOL0     C41476  10.213   8.609   2.033 -0.3113  0.3335  0.0651
  308MOL0     C41477  10.165   8.702   1.941 -0.6168  0.5630  0.3827
  308MOL0     C41478  10.159   8.842   1.958  0.6698 -0.5429 -0.6209
  308MOL0     C41479  10.226   8.889   2.080  0.1438  0.5208  0.1232
  308MOL0     O41480  10.232   9.015   2.130 -0.6516 -0.4543  0.3711
  308MOL0     C41481  10.232   9.127   2.045 -1.0349 -0.2999 -0.6699
  308MOL0     C41482  10.224   9.258   2.126 -0.1922  0.5299 -0.2589
  308MOL0     C41483  10.203   9.376   2.029  0.1194  1.2940  0.2256
  308MOL0     C41484  10.330   9.404   1.946 -0.2826  0.2806  0.0439
  308MOL0     C41485  10.306   9.527   1.854  0.0005 -0.3519 -0.0340
  308MOL0     C41486  10.193   9.536   1.747 -0.1219  1.1318 -0.0059
  308MOL0     C41487  10.216   9.644   1.639 -0.5069  0.5636  0.9803
  308MOL0     C41488  10.319   9.616   1.537 -0.1553  0.6988 -0.5105
  308MOL0    Cl41489  10.486   9.663   1.584  0.3293 -0.3822  0.3508
  308MOL0     C41490  10.285   8.794   2.160 -0.1211  0.2372  0.5651
  308MOL0     C41491  10.283   8.656   2.140  0.4190  0.8171  0.1110
  308MOL0     O41492  10.412   8.445   1.986  0.2335 -0.3710  0.5846
  308MOL0     C41493  10.181   8.201   2.105  0.1029 -0.9677 -1.2055
  308MOL0     C41494  10.174   8.062   2.138  0.3509 -0.5773 -0.5606
  308MOL0     N41495   9.948   7.911   2.717 -0.4163  0.8588 -0.5289
  308MOL0     N41496   9.907   7.860   2.828  0.1823 -0.4676 -0.0596
  308MOL0     C41497  10.441   7.706   3.891 -0.8142 -0.1534  0.1978
  308MOL0     C41498  10.509   7.703   4.014 -1.3497  0.8213 -0.0190
  308MOL0     C41499  10.700   7.653   4.419 -0.3960 -0.1097  0.2807
  308MOL0     C41500  10.811   7.576   4.456  0.6314 -0.0888 -0.0676
  308MOL0     C41501  10.843   7.557   4.589  0.0138  0.3227 -0.0070
  308MOL0     C41502  10.769   7.622   4.693 -0.1935  0.0768  0.3442
  308MOL0     O41503  10.800   7.610   4.823  0.4984 -0.4014 -0.2830
  308MOL0     C41504  10.796   7.477   4.887 -0.1349  0.5185  0.0076
  308MOL0     C41505  10.657   7.419   4.883  0.7121  0.5675  0.4930
  308MOL0     C41506  10.636   7.300   4.989 -0.4489 -1.4162  0.1530
  308MOL0     C41507  10.658   7.163   4.914  0.7868  0.4818 -0.9179
  308MOL0     C41508  10.786   7.147   4.849  0.5944  0.0569 -0.1743
  308MOL0     C41509  10.889   7.130   4.791 -0.5578 -0.4404  1.4229
  308MOL0     C41510  10.661   7.703   4.648  0.0662 -0.4083 -0.7407
  308MOL0     C41511  10.627   7.717   4.519  0.8607  0.3239  0.2326
  308MOL0     C41512  10.514   7.805   4.478  0.6566 -0.2216 -0.3890
  308MOL0     H41513  10.346   7.465   4.173 -3.4880 -1.2327 -1.0032
  308MOL0     H41514  10.208   7.477   3.952 -1.3642  1.3240  1.4704
  308MOL0     H41515  10.093   7.535   3.776 -1.5230 -1.3580 -2.7616
  308MOL0     H41516  10.096   7.703   3.743 -0.7785 -1.4157  1.2125
  308MOL0     H41517  10.176   7.514   3.531 -0.4561  0.2052 -0.1542
  308MOL0     H41518  10.158   7.685   3.515 -0.7005  0.9648  1.0494
  308MOL0     H41519   9.926   7.664   3.526  3.0718  1.6018 -1.7697
  308MOL0     H41520   9.918   7.510   3.589 -3.0014  1.7215 -1.1946
  308MOL0     H41521  10.068   7.427   3.386 -1.0643  0.7866  1.0525
  308MOL0     H41522   9.895   7.435   3.384 -1.0898  2.2251  0.5350
  308MOL0     H41523   9.941   7.679   3.292  1.6938  1.1488  0.4746
  308MOL0     H41524  10.103   7.624   3.264  2.0297 -5.6120  1.0373
  308MOL0     H41525  10.012   7.425   3.147  0.0099  1.0989  1.9204
  308MOL0     H41526   9.862   7.513   3.126 -0.1871  2.0795 -0.8144
  308MOL0     H41527   9.962   7.552   2.941  1.3123  4.5076 -3.5115
  308MOL0     H41528  10.126   7.584   3.002  0.7639  2.8305  0.7411
  308MOL0     H41529   9.887   7.748   3.064  0.3486 -0.8953  1.7248
  308MOL0     H41530  10.051   7.803   3.101  2.0431 -0.2998 -1.2147
  308MOL0     H41531  10.226   7.771   2.815 -0.1144  0.1520 -4.3480
  308MOL0     H41532  10.179   8.021   2.566 -1.4738 -0.2900 -1.4674
  308MOL0     H41533  10.282   7.898   2.628 -0.5233 -0.0677  2.4833
  308MOL0     H41534  10.124   7.732   2.506  0.9068 -0.4286 -2.0779
  308MOL0     H41535  10.040   7.885   2.441  1.0716  1.9031 -1.0806
  308MOL0     H41536  10.328   7.810   2.395 -1.0769 -1.2535 -0.2006
  308MOL0     H41537  10.260   7.964   2.369  0.5435  0.0653  2.1271
  308MOL0     H41538  10.086   7.830   2.217  0.0216  0.2212  1.5827
  308MOL0     H41539  10.196   7.697   2.248  0.5871 -0.4107  1.1082
  308MOL0     H41540  10.482   7.970   2.030  0.2168  1.0198 -2.8833
  308MOL0     H41541  10.482   8.192   1.952 -0.8773  1.4121  1.3226
  308MOL0     H41542  10.099   8.671   1.860  1.3727 -0.8685 -0.7885
  308MOL0     H41543  10.111   8.916   1.895  0.3025 -1.1477 -1.0702
  308MOL0     H41544  10.323   9.129   1.984 -1.8765  0.1373 -1.9571
  308MOL0     H41545  10.141   9.129   1.984 -1.5286 -1.1160  0.0294
  308MOL0     H41546  10.136   9.242   2.190 -0.1564 -0.9582 -0.5469
  308MOL0     H41547  10.309   9.284   2.190 -2.2014  2.1996  1.9078
  308MOL0     H41548  10.126   9.341   1.959  0.7941 -1.9562  0.9480
  308MOL0     H41549  10.157   9.458   2.085 -1.2596 -0.1235  1.2454
  308MOL0     H41550  10.364   9.321   1.884 -2.1825  0.5423 -1.4671
  308MOL0     H41551  10.407   9.419   2.021 -2.1706 -1.9599  2.6213
  308MOL0     H41552  10.398   9.552   1.801 -0.9125 -0.7652 -1.8998
  308MOL0     H41553  10.276   9.607   1.922 -2.3140 -1.4903  0.3931
  308MOL0     H41554  10.188   9.441   1.694  1.7277  1.3308 -0.6024
  308MOL0     H41555  10.097   9.542   1.800 -1.6037 -2.3891 -1.9680
  308MOL0     H41556  10.241   9.738   1.688 -0.3332  1.3035 -0.4699
  308MOL0     H41557  10.123   9.654   1.582  1.3979 -1.6280 -2.9880
  308MOL0     H41558  10.319   9.507   1.527  1.4598  0.5522  0.7390
  308MOL0     H41559  10.292   9.668   1.445 -0.4920  0.9945 -0.2481
  308MOL0     H41560  10.335   8.825   2.251  2.0656  0.8951 -0.7619
  308MOL0     H41561  10.336   8.589   2.207 -0.9996 -2.5488 -1.8675
  308MOL0     H41562  10.102   8.274   2.120  0.2584 -1.0569  0.1773
  308MOL0     H41563  10.092   8.031   2.202  1.0646 -2.8065 -0.6356
  308MOL0     H41564  10.469   7.765   3.805 -2.6388  0.5137  0.0055
  308MOL0     H41565  10.600   7.759   3.998 -3.0625  2.7913 -4.2167
  308MOL0     H41566  10.878   7.548   4.375  2.3886  2.4612  0.3529
  308MOL0     H41567  10.938   7.505   4.602  1.2831  2.4550 -0.1862
  308MOL0     H41568  10.823   7.478   4.993 -2.2369  1.0889  0.5838
  308MOL0     H41569  10.861   7.408   4.833 -1.3742 -1.0044  0.3799
  308MOL0     H41570  10.647   7.387   4.779 -1.1327  0.1369  0.7793
  308MOL0     H41571  10.580   7.493   4.907 -1.0759 -1.1463  0.2046
  308MOL0     H41572  10.533   7.313   5.025 -1.5148  0.8975 -3.1782
  308MOL0     H41573  10.689   7.313   5.084 -4.7953  1.0431  2.5698
  308MOL0     H41574  10.654   7.090   4.995  1.1273 -3.6378 -4.2743
  308MOL0     H41575  10.580   7.162   4.838  0.0047  0.6920 -0.1301
  308MOL0     H41576  10.968   7.100   4.725 -4.8810 -2.1644 -3.7208
  308MOL0     H41577  10.612   7.759   4.727  3.7917  0.4449  1.1501
  308MOL0     H41578  10.421   7.748   4.492 -0.1694  1.5140  1.7941
  308MOL0     H41579  10.497   7.889   4.547 -0.5090  1.5459 -2.6945
  308MOL0     H41580  10.524   7.843   4.376  1.9408  0.8397  0.1011
  309MOL0     O41581   7.600   8.002   1.113  0.7674 -1.0968  0.1556
  309MOL0     C41582   7.641   8.106   1.066 -0.0550 -0.6062 -0.4422
  309MOL0     O41583   7.618   8.234   1.102  0.4377 -0.4999 -0.3188
  309MOL0     C41584   7.529   8.256   1.204 -0.0772  0.6060 -0.0552
  309MOL0     C41585   7.579   8.332   1.310  0.1372 -0.1790  0.4320
  309MOL0     C41586   7.506   8.372   1.414 -0.3595  0.2998 -0.6885
  309MOL0     C41587   7.369   8.332   1.424 -0.0268 -0.2127 -0.2569
  309MOL0     O41588   7.282   8.353   1.535  0.4051  0.2960  1.1516
  309MOL0     C41589   7.299   8.445   1.647  1.0198 -0.7351  0.1852
  309MOL0     C41590   7.380   8.393   1.770 -0.5737  0.8380 -0.4633
  309MOL0     C41591   7.400   8.495   1.876 -0.3392 -0.9296 -0.1365
  309MOL0     C41592   7.513   8.440   1.973  0.1539  0.3208  0.1490
  309MOL0     C41593   7.529   8.524   2.094 -0.3177 -0.3943  0.0325
  309MOL0     C41594   7.625   8.467   2.197 -0.5765  0.5503 -0.5427
  309MOL0     C41595   7.626   8.571   2.320  0.0764  0.3378  0.4610
  309MOL0     C41596   7.743   8.575   2.416 -0.5028  0.2578 -0.1410
  309MOL0     N41597   7.749   8.696   2.501  0.0835  0.0940  0.2316
  309MOL0     C41598   7.777   8.824   2.457 -0.6060 -0.6583 -0.8914
  309MOL0     C41599   7.758   8.910   2.563  0.5273 -0.0467 -0.2641
  309MOL0     C41600   7.777   9.064   2.552 -0.1923  1.5339  0.0159
  309MOL0     C41601   7.932   9.104   2.545  0.0492  0.2402  0.1889
  309MOL0     C41602   8.016   9.041   2.653  0.3706  0.5790 -0.3260
  309MOL0     C41603   7.971   9.075   2.807  0.2889  0.5393  1.1069
  309MOL0     O41604   7.946   9.209   2.816  0.0616  0.7549 -0.6380
  309MOL0     C41605   8.038   9.296   2.875  0.2623  0.7109 -0.3405
  309MOL0     C41606   8.175   9.264   2.889  0.8771 -1.0915 -0.1332
  309MOL0     C41607   8.260   9.355   2.961  0.0300  1.4701  0.1083
  309MOL0     C41608   8.212   9.464   3.013 -0.5989 -0.9112 -0.6827
  309MOL0     C41609   8.312   9.553   3.089  0.5289  0.2623 -1.2132
  309MOL0     O41610   8.251   9.646   3.174  0.0292 -0.1530  0.2351
  309MOL0     C41611   8.335   9.720   3.252 -0.8062  0.4935 -0.1554
  309MOL0     C41612   8.341   9.684   3.384 -0.8797 -0.8888 -0.0884
  309MOL0     C41613   8.430   9.747   3.468  0.4693 -0.8306  0.0635
  309MOL0     C41614   8.524   9.840   3.419 -0.3917 -0.8443 -0.1677
  309MOL0     O41615   8.610   9.897   3.517  0.4731 -0.0924  0.3519
  309MOL0     C41616   8.700  10.005   3.483 -0.4761 -0.0669 -0.0394
  309MOL0     C41617   8.791  10.020   3.607 -0.3598  0.6096 -0.0815
  309MOL0     C41618   8.881   9.888   3.616  0.1707 -0.8446  1.1503
  309MOL0     C41619   8.956   9.892   3.750 -0.1370  0.4672  0.1159
  309MOL0     C41620   9.082   9.802   3.725 -0.9303  0.2773 -0.1179
  309MOL0     C41621   9.154   9.786   3.858 -1.5785  0.2701  0.0316
  309MOL0     C41622   9.267   9.675   3.848 -0.6529  0.0621  0.0427
  309MOL0     C41623   9.376   9.676   3.956 -0.2169  0.0932 -0.7203
  309MOL0    Cl41624   9.485   9.822   3.947  0.2226  0.1277  0.0260
  309MOL0     C41625   8.520   9.879   3.281 -0.4929 -0.3801 -0.2992
  309MOL0     C41626   8.434   9.802   3.199 -0.6254  0.3343  0.4934
  309MOL0     O41627   8.432   9.537   3.080  0.3621 -0.0691  0.7692
  309MOL0     C41628   8.073   9.492   3.007  0.3821  0.0028  0.0214
  309MOL0     C41629   7.982   9.412   2.934 -0.2540 -0.0746 -0.2110
  309MOL0     N41630   7.725   8.832   2.668 -0.2885 -0.4821  0.0247
  309MOL0     N41631   7.722   8.708   2.630  0.3040 -0.0428 -0.7643
  309MOL0     C41632   7.320   8.252   1.321  0.3352 -0.0732  0.0273
  309MOL0     C41633   7.395   8.212   1.211 -0.1866  0.1092 -0.1522
  309MOL0     C41634   7.745   8.092   0.965 -0.0626 -1.2363  1.1874
  309MOL0     C41635   7.725   7.991   0.860  0.0345 -1.0227  1.1116
  309MOL0     C41636   7.805   7.968   0.754  0.0274  0.3703 -0.1725
  309MOL0     C41637   7.917   8.044   0.735 -0.8341  0.1171 -0.6103
  309MOL0     O41638   7.994   8.035   0.624 -0.2712  0.5400  0.1218
  309MOL0     C41639   8.011   8.151   0.542 -0.0523 -0.6467 -0.5588
  309MOL0     C41640   7.888   8.204   0.470 -0.3247  0.1138 -0.2658
  309MOL0     C41641   7.920   8.339   0.416  0.3779 -0.2321  0.5169
  309MOL0     C41642   7.807   8.400   0.328 -0.1199 -0.7031  1.0400
  309MOL0     C41643   7.865   8.528   0.278  0.3681  0.1586  0.9988
  309MOL0     C41644   7.875   8.637   0.231  0.6040  0.7161  0.4797
  309MOL0     C41645   7.954   8.135   0.846 -0.5634  0.4272 -0.1230
  309MOL0     C41646   7.864   8.164   0.956 -0.8078  0.0327  1.1052
  309MOL0     C41647   7.917   8.256   1.053  0.2681  0.0115 -0.2141
  309MOL0     H41648   7.679   8.375   1.309  1.6302 -3.2740  2.4821
  309MOL0     H41649   7.552   8.430   1.494 -1.8355  0.3401  0.1785
  309MOL0     H41650   7.331   8.542   1.608  0.4609  0.0849  1.6977
  309MOL0     H41651   7.203   8.471   1.692 -0.4959  0.0641 -3.1548
  309MOL0     H41652   7.475   8.357   1.729 -0.6820  0.0766 -0.0656
  309MOL0     H41653   7.333   8.302   1.808 -0.7016  1.2050  0.2650
  309MOL0     H41654   7.314   8.522   1.938  1.4741 -1.3641  2.7660
  309MOL0     H41655   7.435   8.585   1.825  1.5083 -2.8911 -2.5467
  309MOL0     H41656   7.499   8.337   2.007  0.8072  1.4323  4.3656
  309MOL0     H41657   7.605   8.446   1.913 -3.3524  1.6239 -5.9999
  309MOL0     H41658   7.568   8.623   2.066  1.7318 -1.2309 -0.2918
  309MOL0     H41659   7.431   8.520   2.142  1.0730 -2.4650  3.0365
  309MOL0     H41660   7.574   8.381   2.242  1.1008 -0.2628 -0.1067
  309MOL0     H41661   7.722   8.436   2.155 -2.3680 -6.4379 -0.8277
  309MOL0     H41662   7.533   8.551   2.374 -1.3095  1.3877 -1.3994
  309MOL0     H41663   7.610   8.673   2.284  1.6660  1.3140  2.3556
  309MOL0     H41664   7.732   8.491   2.485 -2.8176 -1.2444 -2.1217
  309MOL0     H41665   7.835   8.582   2.357  0.8566 -1.4932  1.6128
  309MOL0     H41666   7.802   8.855   2.356 -0.4235  0.4677 -0.5086
  309MOL0     H41667   7.737   9.109   2.461  2.2215  1.3039 -1.2188
  309MOL0     H41668   7.724   9.108   2.637 -1.1634 -2.2111  1.5564
  309MOL0     H41669   7.972   9.058   2.455  2.4019  1.0540  0.7386
  309MOL0     H41670   7.945   9.213   2.548  1.4337  0.1070 -0.2152
  309MOL0     H41671   8.117   9.078   2.635  0.6654  0.6072  1.3161
  309MOL0     H41672   8.028   8.932   2.646 -1.6715  0.2714  0.1623
  309MOL0     H41673   8.044   9.050   2.884  0.6080  0.1984  0.7005
  309MOL0     H41674   7.881   9.017   2.833 -0.6841  1.1782 -0.6542
  309MOL0     H41675   8.212   9.170   2.848  3.0587 -0.2881 -0.1083
  309MOL0     H41676   8.360   9.316   2.976 -1.0276 -1.6699 -0.2860
  309MOL0     H41677   8.267   9.615   3.422 -1.8237  0.4492  0.5784
  309MOL0     H41678   8.416   9.743   3.575  0.9453 -0.4986  0.1427
  309MOL0     H41679   8.765   9.983   3.398 -1.6170  0.2638 -1.0298
  309MOL0     H41680   8.649  10.096   3.451  1.3673  0.7823 -0.6929
  309MOL0     H41681   8.863  10.102   3.606 -1.0749  1.2642  0.6437
  309MOL0     H41682   8.726  10.036   3.694 -1.5057 -0.6855 -0.6675
  309MOL0     H41683   8.829   9.792   3.610 -0.7108 -0.2813 -2.9457
  309MOL0     H41684   8.952   9.907   3.535 -2.5035 -0.4102 -1.2280
  309MOL0     H41685   8.891   9.853   3.828 -1.5405 -1.6514 -1.9504
  309MOL0     H41686   8.993   9.993   3.769 -1.8408  1.8218 -3.0035
  309MOL0     H41687   9.147   9.843   3.647  1.8882 -1.3611  1.1664
  309MOL0     H41688   9.063   9.699   3.692  4.5319 -1.3193  0.6731
  309MOL0     H41689   9.201   9.875   3.901  1.4189  0.0697 -2.5064
  309MOL0     H41690   9.079   9.752   3.931  1.1573 -0.2025  2.8165
  309MOL0     H41691   9.300   9.684   3.744 -1.9171  2.6343 -0.2151
  309MOL0     H41692   9.220   9.576   3.844  1.2859 -0.8624 -3.2457
  309MOL0     H41693   9.327   9.666   4.053  1.6232 -0.0129  0.2444
  309MOL0     H41694   9.440   9.587   3.952  0.8218  0.6218  1.8726
  309MOL0     H41695   8.583   9.956   3.239  0.3282  0.2202  1.8794
  309MOL0     H41696   8.443   9.816   3.091 -0.2068  3.1733  0.8094
  309MOL0     H41697   8.025   9.580   3.047  1.5408 -0.2706  2.1760
  309MOL0     H41698   7.880   9.438   2.908  0.5083  4.1487  0.3098
  309MOL0     H41699   7.216   8.225   1.336 -0.5185  4.1836  4.4630
  309MOL0     H41700   7.344   8.150   1.138  2.1843 -4.0444  1.4174
  309MOL0     H41701   7.635   7.932   0.872 -0.6831  0.3383  2.9012
  309MOL0     H41702   7.774   7.902   0.675 -1.6214  0.9610 -0.0716
  309MOL0     H41703   8.088   8.124   0.469  2.2920 -0.3658  1.6654
  309MOL0     H41704   8.046   8.231   0.608  2.9060 -1.8006 -0.5993
  309MOL0     H41705   7.813   8.222   0.547 -0.4118  2.1204 -0.7543
  309MOL0     H41706   7.858   8.135   0.390  0.0241 -1.1278  0.6454
  309MOL0     H41707   8.001   8.321   0.345 -1.4565 -0.9019 -1.5192
  309MOL0     H41708   7.940   8.411   0.496 -0.1454 -2.2696  2.5928
  309MOL0     H41709   7.769   8.339   0.245  0.4763 -0.0569  0.2641
  309MOL0     H41710   7.731   8.423   0.402  0.9419 -2.6559  2.8154
  309MOL0     H41711   7.892   8.741   0.215 -1.5419  1.6631  3.5633
  309MOL0     H41712   8.049   8.187   0.846 -0.6845  0.7440  2.2995
  309MOL0     H41713   7.857   8.347   1.052  1.1004  0.5744  0.4219
  309MOL0     H41714   7.917   8.207   1.151 -0.2253  1.7246  0.6830
  309MOL0     H41715   8.020   8.278   1.025 -0.2071  0.5756 -1.5861
  310MOL0     O41716   8.708   0.236   6.729 -0.3337 -0.8161  0.3525
  310MOL0     C41717   8.596   0.230   6.765 -0.8380 -0.4126 -0.2223
  310MOL0     O41718   8.550   0.323   6.851 -0.2860 -0.3144  0.2090
  310MOL0     C41719   8.619   0.449   6.852 -0.0826  1.4230  0.0299
  310MOL0     C41720   8.670   0.494   6.976 -0.0275  0.4122 -0.1142
  310MOL0     C41721   8.740   0.615   6.971 -0.3682 -0.5417 -0.5035
  310MOL0     C41722   8.761   0.689   6.857  0.1376  0.0287  0.6981
  310MOL0     O41723   8.842   0.799   6.864  0.8529 -0.0496 -0.3263
  310MOL0     C41724   8.955   0.795   6.779 -0.5392  0.1797  0.8526
  310MOL0     C41725   9.052   0.924   6.822 -0.5453  0.6896 -1.1571
  310MOL0     C41726   9.023   1.060   6.751 -0.5768 -0.5121  0.2456
  310MOL0     C41727   8.888   1.120   6.802 -0.6272  0.6592  1.0193
  310MOL0     C41728   8.848   1.253   6.734 -1.2578  0.2915 -0.1603
  310MOL0     C41729   8.954   1.361   6.726  0.1493 -0.1682 -0.2799
  310MOL0     C41730   8.905   1.486   6.649  0.2358  0.0376 -0.7129
  310MOL0     C41731   8.845   1.589   6.739  0.4632 -0.6117  1.3917
  310MOL0     N41732   8.843   1.733   6.676 -0.6714  0.2313 -0.5535
  310MOL0     C41733   8.879   1.846   6.751 -0.1068  0.0414  0.6006
  310MOL0     C41734   8.882   1.941   6.656  0.8070  0.9994 -1.1484
  310MOL0     C41735   8.884   2.082   6.692 -0.1067 -0.8850  0.0421
  310MOL0     C41736   8.999   2.145   6.610 -0.7783 -0.0614  0.2114
  310MOL0     C41737   9.038   2.273   6.682 -0.0540 -0.0193 -0.0893
  310MOL0     C41738   9.159   2.351   6.624  0.3747  0.2337  0.3577
  310MOL0     O41739   9.143   2.490   6.580  0.7257 -0.4769  0.8713
  310MOL0     C41740   9.119   2.577   6.687  1.4451 -0.7377  0.2040
  310MOL0     C41741   8.994   2.640   6.695  0.0790 -0.5570 -0.3567
  310MOL0     C41742   8.974   2.745   6.786  0.6508 -0.4516 -0.4311
  310MOL0     C41743   9.086   2.793   6.872  0.7457  0.3613 -0.3704
  310MOL0     C41744   9.072   2.917   6.944  0.2748  1.0405  0.2567
  310MOL0     O41745   8.945   2.984   6.937 -0.0698  0.5176  0.8731
  310MOL0     C41746   8.914   3.089   7.011  0.4984 -0.3535  0.0784
  310MOL0     C41747   8.802   3.153   6.964  1.1254  0.6019  0.5019
  310MOL0     C41748   8.754   3.264   7.020 -1.1109 -0.2343  0.1867
  310MOL0     C41749   8.813   3.324   7.126  0.4757  0.4494 -0.9684
  310MOL0     O41750   8.767   3.444   7.162  0.0167  0.0165  0.1325
  310MOL0     C41751   8.860   3.543   7.213 -0.3217 -0.0301  0.0258
  310MOL0     C41752   8.810   3.688   7.207 -0.6835  0.7386  0.1717
  310MOL0     C41753   8.892   3.799   7.268 -0.4923  0.1145  0.1145
  310MOL0     C41754   8.811   3.929   7.276 -0.3200 -0.0207 -0.3856
  310MOL0     C41755   8.913   4.049   7.304  0.4449  0.3406 -1.1785
  310MOL0     C41756   8.945   4.105   7.171 -0.3705 -0.2633  0.2779
  310MOL0     C41757   9.052   4.218   7.203  0.2574  0.6747  0.2823
  310MOL0     C41758   9.077   4.303   7.069 -0.3174 -0.6659 -0.4060
  310MOL0    Cl41759   9.110   4.475   7.109  0.1799  0.1171  0.0200
  310MOL0     C41760   8.921   3.252   7.187  0.4727 -0.3766  0.4726
  310MOL0     C41761   8.965   3.135   7.134 -0.3708  0.4616  0.4227
  310MOL0     O41762   9.162   2.958   7.012 -0.0671  0.9120  0.2548
  310MOL0     C41763   9.207   2.718   6.873 -0.6757 -0.4507  0.1420
  310MOL0     C41764   9.223   2.623   6.775 -0.4905  0.0233 -0.3328
  310MOL0     N41765   8.848   1.881   6.538  0.6739  0.1432 -0.1441
  310MOL0     N41766   8.816   1.763   6.549 -0.3051 -1.7961  1.5433
  310MOL0     C41767   8.684   0.661   6.741  0.3016  0.1221 -0.8218
  310MOL0     C41768   8.628   0.534   6.742  0.0122  0.4834  0.1965
  310MOL0     C41769   8.513   0.119   6.728  0.3129  0.2586  1.3722
  310MOL0     C41770   8.376   0.135   6.757  0.4540  0.8373  0.3163
  310MOL0     C41771   8.276   0.044   6.705 -0.2275  0.1535 -0.9465
  310MOL0     C41772   8.313  -0.075   6.640 -0.3119 -0.1697  0.8456
  310MOL0     O41773   8.205  -0.156   6.611 -0.3884  0.0297  1.0309
  310MOL0     C41774   8.232  -0.260   6.516  0.1106 -0.0574  0.5274
  310MOL0     C41775   8.103  -0.336   6.490 -0.2132  0.9486 -1.1522
  310MOL0     C41776   8.051  -0.398   6.627  0.9753  0.8050 -0.4973
  310MOL0     C41777   7.900  -0.420   6.607  0.3371 -0.5258 -0.4246
  310MOL0     C41778   7.858  -0.520   6.510  0.8436 -0.0057 -0.6366
  310MOL0     C41779   7.823  -0.616   6.438 -1.0190 -0.0836 -0.6601
  310MOL0     C41780   8.449  -0.104   6.627  0.0234  0.5729 -0.6194
  310MOL0     C41781   8.551  -0.014   6.673 -1.3494 -0.0271  0.0902
  310MOL0     C41782   8.707  -0.063   6.670  0.4717 -1.0037  0.7205
  310MOL0     H41783   8.669   0.426   7.060 -3.7189 -0.3086 -0.5573
  310MOL0     H41784   8.775   0.649   7.069 -0.4833 -5.0406  1.3377
  310MOL0     H41785   9.002   0.696   6.786 -1.8635 -0.6946 -1.4873
  310MOL0     H41786   8.924   0.799   6.674  1.6007 -3.3111 -0.0826
  310MOL0     H41787   9.151   0.893   6.788  0.1196  0.5365  0.7489
  310MOL0     H41788   9.057   0.929   6.932  1.4150  1.1528 -1.2336
  310MOL0     H41789   9.029   1.059   6.642 -2.9775  1.3666  0.0143
  310MOL0     H41790   9.103   1.131   6.774 -2.2677  2.8365 -3.0963
  310MOL0     H41791   8.810   1.048   6.775  0.1467  0.7005 -1.5261
  310MOL0     H41792   8.892   1.140   6.910 -3.2213  0.5483  1.1999
  310MOL0     H41793   8.826   1.228   6.630 -1.4346 -0.4926  0.0563
  310MOL0     H41794   8.760   1.299   6.780 -1.5405 -0.5431  0.1682
  310MOL0     H41795   8.983   1.388   6.828 -1.8191  0.8993  0.0574
  310MOL0     H41796   9.039   1.327   6.667 -0.1856  1.5783 -1.8489
  310MOL0     H41797   8.825   1.461   6.578 -1.2166 -0.2118  0.9620
  310MOL0     H41798   8.996   1.523   6.599  1.5106 -3.1875 -1.0394
  310MOL0     H41799   8.741   1.567   6.764 -0.8189  2.6621 -0.3737
  310MOL0     H41800   8.907   1.596   6.829  4.1333  0.6559 -0.9921
  310MOL0     H41801   8.883   1.856   6.859 -6.2865  1.7605  1.0456
  310MOL0     H41802   8.797   2.131   6.648 -1.1134 -0.7386  2.1127
  310MOL0     H41803   8.890   2.099   6.800 -0.7277  0.6107 -0.1301
  310MOL0     H41804   9.087   2.080   6.615 -1.6476 -1.4833 -1.6734
  310MOL0     H41805   8.969   2.154   6.505 -0.8191 -1.9033  0.0225
  310MOL0     H41806   9.060   2.254   6.787  1.5670  1.3687 -0.1361
  310MOL0     H41807   8.948   2.334   6.665 -1.0356 -1.2449  0.5189
  310MOL0     H41808   9.209   2.297   6.543  2.8434  0.7874  1.4389
  310MOL0     H41809   9.231   2.346   6.706 -1.3828 -1.6782  1.8948
  310MOL0     H41810   8.912   2.614   6.628 -1.0279 -0.0731  0.7832
  310MOL0     H41811   8.874   2.786   6.797 -0.0011 -1.1308 -3.0647
  310MOL0     H41812   8.732   3.113   6.891  0.2917  0.7808  1.1775
  310MOL0     H41813   8.670   3.317   6.976  0.1141  0.0440 -1.9467
  310MOL0     H41814   8.890   3.523   7.316 -2.1640 -0.7549  0.4501
  310MOL0     H41815   8.946   3.525   7.148 -1.2765 -1.6157 -0.8794
  310MOL0     H41816   8.783   3.713   7.104 -1.1028  1.7583  0.5148
  310MOL0     H41817   8.711   3.676   7.253 -0.7458 -1.6783 -0.4527
  310MOL0     H41818   8.923   3.788   7.372  0.6533  3.4228  0.2592
  310MOL0     H41819   8.981   3.817   7.206  0.5688  0.1219  1.5903
  310MOL0     H41820   8.749   3.919   7.365 -3.0428  2.0419 -1.8833
  310MOL0     H41821   8.740   3.934   7.193 -1.4747 -0.5921  0.5492
  310MOL0     H41822   8.998   4.011   7.362 -0.1132 -0.1507 -0.6595
  310MOL0     H41823   8.865   4.117   7.376 -2.7583 -2.8427  0.0018
  310MOL0     H41824   8.991   4.021   7.118 -1.8265 -0.1308 -1.2827
  310MOL0     H41825   8.855   4.136   7.118 -0.1172 -0.4921 -0.2982
  310MOL0     H41826   9.152   4.184   7.231 -0.2789 -0.5858  0.7349
  310MOL0     H41827   9.022   4.277   7.290 -4.2029 -0.5373 -0.1455
  310MOL0     H41828   9.151   4.247   7.011 -0.7865 -0.7961 -0.8825
  310MOL0     H41829   8.987   4.312   7.007 -1.9979  1.4013  2.1433
  310MOL0     H41830   8.961   3.299   7.277 -2.0854  2.1065  0.4432
  310MOL0     H41831   9.061   3.094   7.166  1.0391  3.4889  0.4617
  310MOL0     H41832   9.290   2.744   6.938  0.7340 -1.2864 -1.2653
  310MOL0     H41833   9.323   2.582   6.766  0.0717  1.0348  1.0679
  310MOL0     H41834   8.689   0.715   6.647 -0.3723 -0.7515 -1.3724
  310MOL0     H41835   8.572   0.507   6.652 -1.7811  1.6558  0.8998
  310MOL0     H41836   8.349   0.229   6.804 -0.5440  1.1053 -0.7451
  310MOL0     H41837   8.174   0.073   6.727  0.0955 -0.3859  1.5407
  310MOL0     H41838   8.315  -0.326   6.543  1.5782  1.4670 -0.1230
  310MOL0     H41839   8.257  -0.216   6.419 -0.1062 -1.5007 -0.2245
  310MOL0     H41840   8.113  -0.418   6.418  2.1942 -1.5604  1.7327
  310MOL0     H41841   8.032  -0.265   6.447 -3.1069 -0.1032  1.4722
  310MOL0     H41842   8.070  -0.332   6.712  0.2450  0.4089 -0.0155
  310MOL0     H41843   8.085  -0.500   6.650  1.1188 -0.2153 -4.5856
  310MOL0     H41844   7.847  -0.438   6.701 -1.4137  0.3743 -1.1958
  310MOL0     H41845   7.847  -0.327   6.588 -0.0062 -1.0150 -2.0284
  310MOL0     H41846   7.786  -0.699   6.381 -0.8432 -0.5566 -0.0924
  310MOL0     H41847   8.473  -0.195   6.571  0.3577  2.0889 -3.1168
  310MOL0     H41848   8.721  -0.169   6.645  0.7460 -0.9827  0.7799
  310MOL0     H41849   8.772  -0.013   6.599 -0.6850 -1.7524 -0.9365
  310MOL0     H41850   8.747  -0.030   6.767  1.5501  3.5801 -1.0596
  311MOL0     O41851   7.549  10.212  10.506  0.5009  0.5430 -1.1682
  311MOL0     C41852   7.507  10.320  10.556  0.2658  0.0451  0.1371
  311MOL0     O41853   7.485  10.437  10.484  0.4063  0.1413  0.1542
  311MOL0     C41854   7.437  10.407  10.356  0.7457  0.1455 -0.5844
  311MOL0     C41855   7.512  10.445  10.248 -0.9524 -0.7021 -0.7165
  311MOL0     C41856   7.442  10.443  10.126 -0.1015  0.1060  0.4478
  311MOL0     C41857   7.316  10.393  10.102 -0.0586  0.1865  0.1993
  311MOL0     O41858   7.267  10.410   9.978  0.4689 -1.0335  0.0853
  311MOL0     C41859   7.147  10.330   9.959 -0.3531  0.2655 -0.3654
  311MOL0     C41860   7.111  10.345   9.806  0.1361 -0.6432 -0.6860
  311MOL0     C41861   7.048  10.481   9.798  1.2514  0.2093  0.2455
  311MOL0     C41862   6.962  10.490   9.673  0.3707 -0.6860 -0.1020
  311MOL0     C41863   6.963  10.633   9.620  0.7576 -0.1061 -0.4749
  311MOL0     C41864   6.814  10.688   9.601 -0.0416  0.2733 -0.0930
  311MOL0     C41865   6.815  10.817   9.504  0.8592 -0.4277 -0.4720
  311MOL0     C41866   6.833  10.955   9.557 -0.6317  0.0700 -0.8168
  311MOL0     N41867   6.970  10.987   9.618  0.1970  0.2599  0.1429
  311MOL0     C41868   7.027  10.950   9.737 -0.3365  0.7512  0.2952
  311MOL0     C41869   7.147  11.005   9.737  0.4796 -0.0438  0.6216
  311MOL0     C41870   7.249  10.971   9.837 -0.6580  0.4112 -0.8137
  311MOL0     C41871   7.224  11.050   9.964  0.4657 -0.1637 -0.0241
  311MOL0     C41872   7.297  11.001  10.085 -0.5281  0.2157  0.3894
  311MOL0     C41873   7.261  11.083  10.209  0.5374 -0.1305 -1.0409
  311MOL0     O41874   7.126  11.058  10.255  0.0809 -1.3018 -0.3034
  311MOL0     C41875   7.081  11.128  10.368 -0.5955 -0.4952  0.0968
  311MOL0     C41876   6.950  11.105  10.409 -0.2916 -0.2987  0.4638
  311MOL0     C41877   6.900  11.158  10.530 -0.7224 -0.8915  0.0254
  311MOL0     C41878   6.972  11.264  10.590  0.1999  0.7187 -0.6141
  311MOL0     C41879   6.909  11.360  10.685 -0.0589  0.9970  0.7679
  311MOL0     O41880   6.786  11.331  10.728  0.1222  0.0043 -0.2214
  311MOL0     C41881   6.728  11.385  10.840 -0.7163  0.2672  0.1596
  311MOL0     C41882   6.593  11.374  10.844 -0.6410 -0.7833 -1.1905
  311MOL0     C41883   6.521  11.413  10.959 -0.5542  1.0681 -1.4446
  311MOL0     C41884   6.588  11.468  11.070  0.3863 -0.5350  0.4207
  311MOL0     O41885   6.505  11.514  11.175  0.1890 -0.3602  0.4036
  311MOL0     C41886   6.572  11.552  11.296 -0.2307  0.3967  0.6382
  311MOL0     C41887   6.476  11.587  11.400  0.5836  0.9269 -0.1134
  311MOL0     C41888   6.523  11.581  11.536 -0.7426  0.5593  0.3001
  311MOL0     C41889   6.457  11.674  11.640  0.5347 -0.2570  0.6585
  311MOL0     C41890   6.495  11.657  11.791  0.8671 -0.2853  0.2893
  311MOL0     C41891   6.416  11.559  11.860  0.8437 -0.2212  0.6404
  311MOL0     C41892   6.440  11.560  12.005 -0.6411  0.0140 -0.5639
  311MOL0     C41893   6.400  11.699  12.069 -0.2757  1.1368 -0.4795
  311MOL0    Cl41894   6.323  11.682  12.224  0.4324  0.3648 -0.2771
  311MOL0     C41895   6.733  11.482  11.066 -0.5992  0.6035  0.0012
  311MOL0     C41896   6.799  11.435  10.951 -0.7684 -0.4192  0.3812
  311MOL0     O41897   6.975  11.460  10.716  0.2854  0.0172  0.1732
  311MOL0     C41898   7.106  11.269  10.559 -0.1709 -0.9555  0.9340
  311MOL0     C41899   7.160  11.207  10.447 -0.7000  0.0446 -0.5709
  311MOL0     N41900   7.155  11.082   9.623 -0.1418 -0.1123 -0.2480
  311MOL0     N41901   7.048  11.078   9.557  0.5182  0.6037 -0.5286
  311MOL0     C41902   7.253  10.348  10.218  0.9820 -0.6279 -0.6343
  311MOL0     C41903   7.306  10.355  10.348  0.0710 -0.0033  0.6007
  311MOL0     C41904   7.459  10.333  10.701 -0.1228  0.2044  0.4909
  311MOL0     C41905   7.347  10.417  10.735  0.2303  0.9015  0.0139
  311MOL0     C41906   7.294  10.420  10.866  0.5013 -0.6458 -0.3577
  311MOL0     C41907   7.351  10.342  10.968  0.0277 -0.9711 -0.9119
  311MOL0     O41908   7.301  10.340  11.098  0.0445  0.6900 -0.4573
  311MOL0     C41909   7.171  10.283  11.111  0.0144 -0.4495  0.5137
  311MOL0     C41910   7.153  10.140  11.056  1.2965 -0.7032 -0.3171
  311MOL0     C41911   7.010  10.092  11.094 -0.4534  0.1957 -0.0145
  311MOL0     C41912   6.981   9.964  11.006  0.3879 -0.6440  0.0680
  311MOL0     C41913   6.847   9.909  11.024  0.0547 -0.5804  0.0841
  311MOL0     C41914   6.748   9.847  11.032  0.0581 -0.7320 -0.4103
  311MOL0     C41915   7.468  10.260  10.930 -0.1071  0.0186  0.4510
  311MOL0     C41916   7.521  10.248  10.803 -0.4527 -1.2013 -0.1911
  311MOL0     C41917   7.648  10.168  10.786  0.2678 -0.4685 -0.5703
  311MOL0     H41918   7.615  10.475  10.266 -1.9857  2.2833  0.9978
  311MOL0     H41919   7.497  10.475  10.038  2.6432 -1.0565  1.6178
  311MOL0     H41920   7.164  10.224   9.983  0.9530 -0.4761 -3.8538
  311MOL0     H41921   7.067  10.369  10.023  0.5580 -1.5458  2.0377
  311MOL0     H41922   7.030  10.273   9.790 -0.5904 -0.0357  0.1268
  311MOL0     H41923   7.183  10.328   9.726 -0.8008  1.0106 -1.9415
  311MOL0     H41924   7.124  10.557   9.776  1.8962 -0.2188  0.9578
  311MOL0     H41925   6.991  10.515   9.884  2.1155 -2.5890  2.0721
  311MOL0     H41926   7.010  10.431   9.594  2.5008  2.3214 -1.2124
  311MOL0     H41927   6.862  10.453   9.698  1.4247 -2.3675  2.0042
  311MOL0     H41928   6.996  10.706   9.695 -0.4356  0.5154 -0.5256
  311MOL0     H41929   7.008  10.638   9.520 -1.0807 -0.9729 -1.3852
  311MOL0     H41930   6.764  10.606   9.549  0.0856 -0.3095  0.7040
  311MOL0     H41931   6.761  10.693   9.696  0.6962 -3.5066  0.6852
  311MOL0     H41932   6.719  10.802   9.453  1.0912 -2.8278 -0.3207
  311MOL0     H41933   6.886  10.808   9.421  1.5988  1.3678 -0.0908
  311MOL0     H41934   6.817  11.027   9.477  0.0516 -1.0059 -1.9566
  311MOL0     H41935   6.752  10.959   9.630 -1.8244 -2.1559 -1.9397
  311MOL0     H41936   6.992  10.872   9.804 -1.4770  0.1294 -0.9883
  311MOL0     H41937   7.235  10.867   9.869  1.2617  1.3923  4.0203
  311MOL0     H41938   7.354  10.981   9.806  0.4908 -0.5145  2.2972
  311MOL0     H41939   7.259  11.149   9.935  0.8388 -0.8146 -1.9624
  311MOL0     H41940   7.117  11.054   9.988  0.1024 -1.1535 -1.3179
  311MOL0     H41941   7.401  11.022  10.057 -0.4110 -0.9732 -0.1032
  311MOL0     H41942   7.283  10.893  10.084  1.5607 -0.2882 -4.6928
  311MOL0     H41943   7.272  11.188  10.183 -0.9686  0.3997  0.2623
  311MOL0     H41944   7.336  11.054  10.283 -4.2313 -0.9144  4.1872
  311MOL0     H41945   6.885  11.034  10.359  0.6312 -0.0773 -1.1019
  311MOL0     H41946   6.798  11.133  10.559 -0.3720  0.3554  2.6783
  311MOL0     H41947   6.544  11.316  10.766  0.7869  0.8247 -3.3967
  311MOL0     H41948   6.417  11.387  10.971 -0.4290  0.5320 -1.5048
  311MOL0     H41949   6.661  11.497  11.328  1.3247  2.5221  0.2196
  311MOL0     H41950   6.622  11.647  11.276 -3.4587  2.3697  1.2346
  311MOL0     H41951   6.428  11.684  11.383 -1.3514  0.7149  3.2884
  311MOL0     H41952   6.393  11.517  11.392  1.1995  0.1365  0.3310
  311MOL0     H41953   6.527  11.481  11.579 -0.5430 -0.2005 -1.4083
  311MOL0     H41954   6.628  11.611  11.542 -0.3369 -0.5902 -0.6668
  311MOL0     H41955   6.350  11.686  11.626  0.8678  3.5459  0.4079
  311MOL0     H41956   6.489  11.775  11.612 -1.4765  0.5194  1.0291
  311MOL0     H41957   6.496  11.753  11.845  5.3814  1.3928 -2.2254
  311MOL0     H41958   6.594  11.611  11.793  2.6826  3.2685  2.5467
  311MOL0     H41959   6.308  11.571  11.857  0.8169 -0.3492  1.0880
  311MOL0     H41960   6.430  11.458  11.818  2.3642 -0.9047  2.6307
  311MOL0     H41961   6.542  11.528  12.027 -0.9595 -0.8900 -0.3212
  311MOL0     H41962   6.377  11.480  12.048 -2.6472  0.5019 -2.4242
  311MOL0     H41963   6.491  11.758  12.085 -0.3605  1.0680  0.2596
  311MOL0     H41964   6.325  11.749  12.006 -0.7324  2.4130  1.0130
  311MOL0     H41965   6.794  11.541  11.134  2.0602  0.2144 -1.8611
  311MOL0     H41966   6.906  11.445  10.935 -0.6665 -2.2527 -0.2599
  311MOL0     H41967   7.164  11.331  10.627 -1.8091  0.1002  1.4331
  311MOL0     H41968   7.264  11.221  10.423 -0.1170 -1.1297  1.0806
  311MOL0     H41969   7.157  10.298  10.231 -0.0512  1.3025 -0.4401
  311MOL0     H41970   7.256  10.314  10.435  2.7314  0.4242  2.4540
  311MOL0     H41971   7.302  10.480  10.659  2.6972  1.0527 -1.4090
  311MOL0     H41972   7.203  10.480  10.865  0.7018 -0.3407 -1.1210
  311MOL0     H41973   7.110  10.348  11.047 -0.7585 -1.0007  0.6851
  311MOL0     H41974   7.157  10.291  11.219  0.8187  0.9934  0.5430
  311MOL0     H41975   7.225  10.078  11.110  2.1935  1.1749  0.7304
  311MOL0     H41976   7.169  10.138  10.948 -2.5800  0.1910 -1.0458
  311MOL0     H41977   6.931  10.164  11.072  1.1909  1.0049 -4.1858
  311MOL0     H41978   7.011  10.058  11.199  1.5704  0.0961 -0.0229
  311MOL0     H41979   7.007   9.986  10.902  2.8652 -0.0322  0.7654
  311MOL0     H41980   7.056   9.894  11.044  2.2851  3.1478  4.1388
  311MOL0     H41981   6.650   9.805  11.039  0.3627 -1.3379  0.4965
  311MOL0     H41982   7.520  10.206  11.009  1.0676  0.7780  0.2099
  311MOL0     H41983   7.727  10.241  10.766 -0.0113  1.4213  4.0031
  311MOL0     H41984   7.676  10.114  10.876  2.7085  1.1217 -0.2981
  311MOL0     H41985   7.646  10.097  10.703 -1.6053 -3.2206  1.6335
  312MOL0     O41986  11.444   9.194   1.912 -0.2356  0.1485  0.5743
  312MOL0     C41987  11.498   9.093   1.880  0.9098 -0.0435  0.5620
  312MOL0     O41988  11.421   8.986   1.831 -0.3125 -0.3785  0.2065
  312MOL0     C41989  11.325   9.017   1.737 -0.1274 -0.6429 -0.8419
  312MOL0     C41990  11.213   8.934   1.738  0.4095 -0.2541 -0.2163
  312MOL0     C41991  11.106   8.945   1.643 -1.0218 -0.4779  0.3373
  312MOL0     C41992  11.116   9.055   1.550  0.9113  0.4759 -0.3103
  312MOL0     O41993  11.023   9.050   1.450 -0.3673  0.0193  0.1700
  312MOL0     C41994  11.051   9.124   1.330  0.9806 -0.3785  0.3443
  312MOL0     C41995  10.949   9.101   1.221  0.1016 -0.2774  0.2824
  312MOL0     C41996  10.970   9.206   1.119  0.6639  0.6543 -0.5945
  312MOL0     C41997  10.870   9.206   0.998  0.8899  0.0573 -0.5579
  312MOL0     C41998  10.912   9.331   0.918 -0.0050 -0.1310 -0.3178
  312MOL0     C41999  10.802   9.353   0.807  0.8913 -0.2375 -0.2456
  312MOL0     C42000  10.817   9.490   0.739 -0.6196  0.4330 -0.9419
  312MOL0     C42001  10.893   9.500   0.608  0.9924  1.0635  0.0100
  312MOL0     N42002  10.871   9.628   0.551 -0.1753 -1.3819 -0.1781
  312MOL0     C42003  10.757   9.683   0.492 -0.1894 -0.8984 -0.4439
  312MOL0     C42004  10.795   9.802   0.442 -0.1861 -0.9908 -0.6552
  312MOL0     C42005  10.711   9.893   0.358  0.0967  0.3010  0.4202
  312MOL0     C42006  10.676   9.840   0.217 -0.6398  0.8780  0.0529
  312MOL0     C42007  10.756   9.893   0.097 -0.5064 -0.1143  0.0325
  312MOL0     C42008  10.766  10.046   0.101  0.5367 -0.0754 -0.3047
  312MOL0     O42009  10.648  10.121   0.068  0.0514  0.5447  0.6354
  312MOL0     C42010  10.677  10.247   0.008 -0.5211 -0.4435  1.2435
  312MOL0     C42011  10.795  10.327   0.042 -0.7246 -0.8495 -0.5726
  312MOL0     C42012  10.825  10.440  -0.040 -0.1092  0.6242 -0.7096
  312MOL0     C42013  10.734  10.480  -0.144  0.7574  0.1083  0.5371
  312MOL0     C42014  10.762  10.599  -0.233  0.8269 -0.2138  0.7080
  312MOL0     O42015  10.887  10.653  -0.220 -0.1801  0.6210  0.0185
  312MOL0     C42016  10.902  10.771  -0.285 -0.3297  0.2057 -0.1393
  312MOL0     C42017  10.910  10.781  -0.428  0.4772 -0.1274 -0.6537
  312MOL0     C42018  10.958  10.894  -0.495  0.0021 -0.4365  0.2137
  312MOL0     C42019  10.998  11.006  -0.421  0.1646  0.6121 -0.8430
  312MOL0     O42020  11.056  11.105  -0.495  0.0783  0.2249  0.2160
  312MOL0     C42021  11.045  11.239  -0.450  0.6775  0.8610  0.8449
  312MOL0     C42022  10.997  11.327  -0.577 -0.4777  0.5104  0.0731
  312MOL0     C42023  11.088  11.314  -0.707  0.3376 -0.2662 -0.1692
  312MOL0     C42024  11.219  11.378  -0.679 -0.3098  1.3057 -0.3994
  312MOL0     C42025  11.324  11.351  -0.792  0.8641 -0.5872 -0.9674
  312MOL0     C42026  11.445  11.442  -0.794  0.4295  0.6010  0.3431
  312MOL0     C42027  11.495  11.471  -0.662 -1.1882 -0.1328 -0.3049
  312MOL0     C42028  11.646  11.481  -0.653  0.4650  0.1021  0.1029
  312MOL0    Cl42029  11.711  11.479  -0.488  0.2637  0.3172 -0.3051
  312MOL0     C42030  10.992  11.004  -0.280  1.1312 -0.2477  0.4513
  312MOL0     C42031  10.947  10.889  -0.219  0.4887  0.6996  0.1609
  312MOL0     O42032  10.671  10.647  -0.300  0.6611  0.4159  0.6376
  312MOL0     C42033  10.618  10.398  -0.168  0.3450 -1.4902  0.0912
  312MOL0     C42034  10.595  10.286  -0.093  0.2003 -0.9308 -0.1315
  312MOL0     N42035  10.924   9.832   0.488 -1.1214  0.7533 -0.0997
  312MOL0     N42036  10.968   9.722   0.551  0.9843 -1.1722  1.6284
  312MOL0     C42037  11.227   9.139   1.551  0.5908  0.1271  0.0549
  312MOL0     C42038  11.329   9.122   1.645  0.4324 -0.4072 -0.9432
  312MOL0     C42039  11.642   9.054   1.904 -0.4052  0.4123 -0.1803
  312MOL0     C42040  11.704   9.130   2.006  0.0814 -0.0618  0.6046
  312MOL0     C42041  11.831   9.100   2.039 -0.7454 -0.4125 -0.0295
  312MOL0     C42042  11.905   9.017   1.961  0.2086 -0.0509  1.0660
  312MOL0     O42043  12.038   9.000   1.981 -1.0481 -0.7127 -0.4772
  312MOL0     C42044  12.089   8.963   2.110 -0.3888 -0.4341 -0.3840
  312MOL0     C42045  12.230   8.903   2.095  0.1572 -0.2369  0.8173
  312MOL0     C42046  12.227   8.787   1.987  0.7506 -0.3740  0.4260
  312MOL0     C42047  12.128   8.674   2.010  0.5509 -0.1084 -0.7074
  312MOL0     C42048  12.149   8.596   1.893 -0.3315  0.4175 -0.8915
  312MOL0     C42049  12.165   8.547   1.784  0.7952 -0.5235  0.4029
  312MOL0     C42050  11.850   8.949   1.850  0.1434 -0.0152  0.1860
  312MOL0     C42051  11.715   8.960   1.825  0.4147  0.1162 -0.4607
  312MOL0     C42052  11.656   8.899   1.697  0.0088  0.1943 -0.8285
  312MOL0     H42053  11.212   8.852   1.809 -0.6112 -0.4491 -0.4374
  312MOL0     H42054  11.025   8.873   1.652  1.2386 -3.0159  1.6187
  312MOL0     H42055  11.053   9.227   1.367  3.4662 -0.5584  0.8524
  312MOL0     H42056  11.150   9.110   1.286 -0.1149  1.1695 -2.9832
  312MOL0     H42057  10.844   9.103   1.254  0.4321 -0.5106  1.3551
  312MOL0     H42058  10.957   9.001   1.179 -3.6717 -2.1288  3.3076
  312MOL0     H42059  11.065   9.178   1.074 -0.5192 -0.4541 -2.5251
  312MOL0     H42060  10.968   9.306   1.163  0.6309  0.7465 -0.8073
  312MOL0     H42061  10.865   9.112   0.942 -2.0341  0.4833 -1.1776
  312MOL0     H42062  10.771   9.232   1.038  1.8837  4.2935 -0.3059
  312MOL0     H42063  10.921   9.419   0.983  0.8581 -1.3839  1.3277
  312MOL0     H42064  11.004   9.324   0.859  2.3031 -1.7978  3.1451
  312MOL0     H42065  10.806   9.281   0.725  0.7789  3.7647 -4.2064
  312MOL0     H42066  10.703   9.358   0.852  0.3589 -0.7346 -1.3260
  312MOL0     H42067  10.870   9.561   0.804  0.9771 -0.0882 -1.6063
  312MOL0     H42068  10.716   9.527   0.722 -1.0068 -0.9695 -1.8788
  312MOL0     H42069  10.996   9.463   0.617  0.5041 -0.1168  1.0144
  312MOL0     H42070  10.852   9.414   0.556  3.2917  0.1692 -0.4287
  312MOL0     H42071  10.664   9.635   0.463 -0.0619 -1.4655  0.0666
  312MOL0     H42072  10.615   9.902   0.410 -0.3996  1.6556 -0.6542
  312MOL0     H42073  10.777   9.980   0.361 -0.9230  1.2534 -1.9211
  312MOL0     H42074  10.664   9.732   0.212 -0.9944  0.9083  0.2193
  312MOL0     H42075  10.573   9.871   0.197 -0.6300  0.3918 -0.8083
  312MOL0     H42076  10.696   9.862   0.010  2.7625 -3.1274 -1.4143
  312MOL0     H42077  10.853   9.845   0.084  0.1321  1.3759 -0.9971
  312MOL0     H42078  10.846  10.065   0.030  1.2362 -1.3759  0.0916
  312MOL0     H42079  10.808  10.082   0.195  1.7263  1.0105 -1.2237
  312MOL0     H42080  10.851  10.291   0.127  0.4482 -2.6277 -2.0228
  312MOL0     H42081  10.919  10.488  -0.018  0.3695 -1.4301  2.3167
  312MOL0     H42082  10.891  10.704  -0.502 -2.1621 -0.1775  0.0064
  312MOL0     H42083  10.943  10.915  -0.600  3.1396  4.4366  0.4158
  312MOL0     H42084  10.962  11.245  -0.378  0.0460 -1.5245  0.4064
  312MOL0     H42085  11.136  11.279  -0.405  0.6785 -0.3565  2.0032
  312MOL0     H42086  10.893  11.306  -0.604  0.3499  0.1389 -3.2569
  312MOL0     H42087  10.993  11.435  -0.559 -1.3293  0.2379  1.8071
  312MOL0     H42088  11.099  11.207  -0.724 -0.5639 -0.7678  2.0484
  312MOL0     H42089  11.034  11.369  -0.785 -0.0666 -0.3767  0.0287
  312MOL0     H42090  11.258  11.357  -0.579 -0.8799  3.0021  0.2174
  312MOL0     H42091  11.195  11.485  -0.680 -2.5121  0.8700 -2.5499
  312MOL0     H42092  11.274  11.360  -0.889  0.4469 -0.8890 -0.7806
  312MOL0     H42093  11.355  11.246  -0.794 -3.7911 -2.1844 -3.2940
  312MOL0     H42094  11.518  11.402  -0.865  1.1642  0.9377  0.8917
  312MOL0     H42095  11.416  11.537  -0.840  0.4060  0.7647  0.6978
  312MOL0     H42096  11.467  11.386  -0.599 -2.0537 -0.2726 -0.8666
  312MOL0     H42097  11.452  11.567  -0.632 -0.6419  0.9808 -2.8416
  312MOL0     H42098  11.685  11.398  -0.712 -2.4210 -0.3339 -1.3903
  312MOL0     H42099  11.670  11.570  -0.711  0.6137 -1.8670 -3.0882
  312MOL0     H42100  11.025  11.088  -0.219  0.3292 -0.2001  0.8222
  312MOL0     H42101  10.950  10.883  -0.111  3.4627  0.0077  0.1377
  312MOL0     H42102  10.546  10.436  -0.240 -0.2995 -1.5432  0.6983
  312MOL0     H42103  10.496  10.243  -0.091 -0.1509 -0.2261  3.5213
  312MOL0     H42104  11.248   9.226   1.488  2.7650 -1.8177 -2.1073
  312MOL0     H42105  11.406   9.197   1.660 -1.7707  2.5308 -3.0561
  312MOL0     H42106  11.658   9.207   2.068  0.9054  1.9681 -1.2058
  312MOL0     H42107  11.869   9.154   2.124  2.9907 -1.0664 -1.1248
  312MOL0     H42108  12.024   8.880   2.139  1.1228 -1.6743 -0.4367
  312MOL0     H42109  12.079   9.039   2.188  0.9776 -1.3580  0.7590
  312MOL0     H42110  12.264   8.870   2.193  3.2837 -0.4159 -0.1896
  312MOL0     H42111  12.294   8.979   2.047 -1.2596  1.2239  1.1617
  312MOL0     H42112  12.327   8.746   1.999 -0.0442 -2.4503  0.4861
  312MOL0     H42113  12.209   8.828   1.887 -0.9835  0.1814  0.9238
  312MOL0     H42114  12.158   8.614   2.096 -2.1349  1.2746  1.3523
  312MOL0     H42115  12.024   8.708   2.013  0.7432  0.6286 -1.9328
  312MOL0     H42116  12.175   8.485   1.698  0.2814 -0.4160  0.2623
  312MOL0     H42117  11.913   8.885   1.789 -0.8247 -0.5323 -0.3081
  312MOL0     H42118  11.563   8.847   1.722  0.5783  0.8365  3.4390
  312MOL0     H42119  11.639   8.978   1.624 -0.0429 -1.2663 -2.4423
  312MOL0     H42120  11.722   8.831   1.642 -0.7910 -1.3518  0.0790
  313MOL0     O42121   7.784  11.340  10.148 -0.3657  0.7498  0.1559
  313MOL0     C42122   7.683  11.271  10.110 -0.3575  0.0594 -0.9127
  313MOL0     O42123   7.624  11.171  10.168 -0.3418 -0.3561  0.1937
  313MOL0     C42124   7.653  11.134  10.296  0.3028  0.7002  0.2799
  313MOL0     C42125   7.694  11.238  10.384  0.0530  0.9964  0.5950
  313MOL0     C42126   7.760  11.193  10.493  0.0467  0.9138 -0.5949
  313MOL0     C42127   7.786  11.057  10.524  1.0609 -0.5483 -0.5006
  313MOL0     O42128   7.836  11.013  10.643  0.9823 -0.5005  0.9751
  313MOL0     C42129   7.895  11.110  10.726 -0.9832 -0.6467  0.2279
  313MOL0     C42130   7.971  11.052  10.844 -0.6793 -0.2128 -0.7836
  313MOL0     C42131   8.042  10.921  10.821 -0.9911  0.9397  0.7641
  313MOL0     C42132   8.193  10.930  10.853  0.5495  0.4047  0.8699
  313MOL0     C42133   8.276  10.811  10.808 -0.1617  0.5179  0.2063
  313MOL0     C42134   8.276  10.697  10.919 -0.3899  0.0959 -0.3690
  313MOL0     C42135   8.305  10.740  11.064 -0.2634 -0.7828  0.7213
  313MOL0     C42136   8.429  10.813  11.113 -0.7440 -0.7126 -0.7954
  313MOL0     N42137   8.553  10.724  11.121 -0.3291 -0.5092  0.0675
  313MOL0     C42138   8.655  10.699  11.033  1.3665 -0.1715  0.3454
  313MOL0     C42139   8.759  10.668  11.107  0.1064  1.5082  0.9765
  313MOL0     C42140   8.895  10.627  11.051  0.0586 -0.2367  1.3674
  313MOL0     C42141   8.970  10.754  11.019 -0.1340 -0.3662  0.9959
  313MOL0     C42142   9.129  10.734  11.001  0.3239  0.3592 -0.3138
  313MOL0     C42143   9.174  10.614  10.911  0.5293  0.0976  0.6551
  313MOL0     O42144   9.311  10.592  10.936 -1.1320  0.3676  0.0401
  313MOL0     C42145   9.352  10.533  11.053 -0.6452 -0.4976  0.6089
  313MOL0     C42146   9.275  10.472  11.155  0.1957 -0.3727 -0.0025
  313MOL0     C42147   9.338  10.422  11.269  0.0520 -0.2674 -0.1028
  313MOL0     C42148   9.468  10.430  11.277 -0.3879 -0.6164 -0.0465
  313MOL0     C42149   9.551  10.402  11.402 -0.1861 -0.1578 -0.4133
  313MOL0     O42150   9.672  10.466  11.426  0.0321 -0.1051 -0.6264
  313MOL0     C42151   9.747  10.446  11.543 -0.2905  0.7586  0.5864
  313MOL0     C42152   9.810  10.557  11.595  0.5012  0.4677  0.7436
  313MOL0     C42153   9.868  10.536  11.712 -0.3868  0.4490 -0.0835
  313MOL0     C42154   9.870  10.420  11.786  1.0501 -0.8385 -0.9737
  313MOL0     O42155   9.930  10.406  11.906 -0.6348 -0.5746  0.0895
  313MOL0     C42156  10.020  10.505  11.956  0.1650  0.2519  0.1434
  313MOL0     C42157  10.054  10.464  12.102 -0.1648 -0.0335 -0.5843
  313MOL0     C42158  10.138  10.336  12.108 -0.0114  0.1439  0.9056
  313MOL0     C42159  10.174  10.322  12.264  0.2682 -0.7321 -0.6549
  313MOL0     C42160  10.190  10.175  12.320  1.0612 -0.9625 -0.0688
  313MOL0     C42161  10.310  10.112  12.242 -0.5197  0.0176  0.4973
  313MOL0     C42162  10.346   9.968  12.289 -0.1821 -0.2385 -0.4687
  313MOL0     C42163  10.467   9.912  12.218  0.5859 -0.3558  0.6965
  313MOL0    Cl42164  10.471   9.743  12.239 -0.4011 -0.0432 -0.8699
  313MOL0     C42165   9.824  10.307  11.726  0.3586 -0.2431  0.2029
  313MOL0     C42166   9.752  10.319  11.609 -0.6605  0.4338  0.1861
  313MOL0     O42167   9.483  10.342  11.488  0.3603  0.0091  0.9377
  313MOL0     C42168   9.546  10.485  11.181 -0.5707  0.4833  1.0158
  313MOL0     C42169   9.494  10.529  11.059  0.6786  1.1093 -0.9689
  313MOL0     N42170   8.728  10.649  11.236  0.2634 -0.0334  0.2163
  313MOL0     N42171   8.601  10.679  11.239  1.4562 -0.0739 -0.1294
  313MOL0     C42172   7.728  10.960  10.444  0.3297 -0.2398  0.6440
  313MOL0     C42173   7.659  11.004  10.333  0.0265  0.0144 -0.7362
  313MOL0     C42174   7.629  11.308   9.965 -0.6699  0.0330 -0.2468
  313MOL0     C42175   7.627  11.201   9.878  0.5096 -0.8546 -0.6364
  313MOL0     C42176   7.588  11.216   9.742  0.8447 -0.5860 -0.3582
  313MOL0     C42177   7.533  11.342   9.697  0.2002  0.5808 -0.1821
  313MOL0     O42178   7.486  11.371   9.568  0.0589 -0.5066  0.1511
  313MOL0     C42179   7.463  11.256   9.479  0.3812  0.2151  0.6014
  313MOL0     C42180   7.422  11.317   9.348 -0.2307 -0.6646  0.1592
  313MOL0     C42181   7.389  11.222   9.230  0.3790  0.1222 -0.1058
  313MOL0     C42182   7.512  11.151   9.165  0.7286  0.0936 -0.6717
  313MOL0     C42183   7.469  11.115   9.028 -0.7935  0.6299 -0.9482
  313MOL0     C42184   7.419  11.085   8.926  0.8447 -0.1582 -0.1132
  313MOL0     C42185   7.539  11.444   9.791 -0.4331 -0.5948  0.7990
  313MOL0     C42186   7.582  11.433   9.917  0.3938  0.1896 -0.2612
  313MOL0     C42187   7.576  11.552  10.011  0.1400 -0.5274 -1.3328
  313MOL0     H42188   7.678  11.345  10.376  1.2042  1.3121  2.0768
  313MOL0     H42189   7.789  11.269  10.565  0.8007 -0.4674  0.6221
  313MOL0     H42190   7.969  11.154  10.659 -2.8043  1.7751 -0.3298
  313MOL0     H42191   7.835  11.194  10.762  1.6378  1.8378 -0.8107
  313MOL0     H42192   7.903  11.045  10.929 -1.6126 -2.2425 -1.6195
  313MOL0     H42193   8.050  11.123  10.871 -0.4552 -1.0499  0.8564
  313MOL0     H42194   8.024  10.878  10.722 -0.8791 -1.5405  1.7498
  313MOL0     H42195   8.004  10.847  10.893 -0.9417 -0.3061 -0.4500
  313MOL0     H42196   8.244  11.011  10.799  0.1807 -0.0056 -0.1145
  313MOL0     H42197   8.205  10.951  10.960 -1.4896 -0.0752  1.2297
  313MOL0     H42198   8.254  10.760  10.714  1.8771  0.5338 -0.3176
  313MOL0     H42199   8.376  10.847  10.785 -0.2361  1.1567  0.8392
  313MOL0     H42200   8.178  10.649  10.923 -0.9096  1.2348  1.5832
  313MOL0     H42201   8.347  10.619  10.891  1.0281  1.3614 -0.4428
  313MOL0     H42202   8.301  10.643  11.116 -0.6399 -0.1987  1.8183
  313MOL0     H42203   8.220  10.798  11.102  1.2819  0.8028  1.9196
  313MOL0     H42204   8.458  10.888  11.039  0.3200 -0.2993  0.0089
  313MOL0     H42205   8.417  10.850  11.215 -0.5741 -0.7539 -0.7592
  313MOL0     H42206   8.654  10.717  10.926  1.3520 -2.5621 -0.1100
  313MOL0     H42207   8.948  10.574  11.130 -0.0486  0.5735  1.9929
  313MOL0     H42208   8.881  10.572  10.958 -2.1961  0.0950  1.4547
  313MOL0     H42209   8.924  10.779  10.923  1.1778 -0.4515  0.3244
  313MOL0     H42210   8.938  10.826  11.095  1.3195  0.7864  0.5462
  313MOL0     H42211   9.173  10.721  11.100 -3.1093 -1.5944  1.1248
  313MOL0     H42212   9.167  10.829  10.962 -1.1527  1.3175  0.5288
  313MOL0     H42213   9.172  10.645  10.806  5.6348 -0.0632  0.2806
  313MOL0     H42214   9.111  10.527  10.933 -0.5170 -0.0476 -2.3931
  313MOL0     H42215   9.167  10.477  11.164  0.0543 -1.7258 -0.6954
  313MOL0     H42216   9.274  10.376  11.344 -1.0567 -2.2674 -2.1333
  313MOL0     H42217   9.810  10.658  11.555 -0.0264  0.6029  1.0757
  313MOL0     H42218   9.908  10.626  11.758  1.3353  0.2200 -1.0298
  313MOL0     H42219  10.106  10.526  11.893  0.3616 -3.8874 -1.2105
  313MOL0     H42220   9.960  10.597  11.961 -0.5101 -0.2355  1.8778
  313MOL0     H42221  10.107  10.549  12.147 -1.1305  1.5949 -2.3915
  313MOL0     H42222   9.953  10.446  12.141 -0.1838 -0.5509 -0.8696
  313MOL0     H42223  10.083  10.258  12.054 -0.0391  0.9156 -0.1946
  313MOL0     H42224  10.229  10.345  12.048 -1.5297  1.9689 -1.2392
  313MOL0     H42225  10.098  10.370  12.326  0.8119 -0.5787 -0.0993
  313MOL0     H42226  10.270  10.373  12.280 -0.6368  1.3678 -1.4700
  313MOL0     H42227  10.097  10.117  12.314 -0.3082  1.1872 -0.4870
  313MOL0     H42228  10.212  10.182  12.427  2.7475  0.7358 -0.4781
  313MOL0     H42229  10.278  10.112  12.138 -1.0867 -0.5754  0.6653
  313MOL0     H42230  10.397  10.177  12.256 -0.3222  0.2920 -1.7241
  313MOL0     H42231  10.259   9.903  12.275  1.0823 -1.9223 -0.7711
  313MOL0     H42232  10.368   9.979  12.395  2.2866 -0.7537 -0.8751
  313MOL0     H42233  10.455   9.927  12.111  1.6510  1.5509  0.8150
  313MOL0     H42234  10.568   9.952  12.233  2.0853 -2.7602 -1.9599
  313MOL0     H42235   9.839  10.211  11.775 -4.9056 -0.0347  2.9846
  313MOL0     H42236   9.709  10.235  11.557  2.2370 -0.9687 -0.1331
  313MOL0     H42237   9.654  10.485  11.172 -0.5542 -4.2314 -3.1744
  313MOL0     H42238   9.548  10.574  10.976 -1.4836  1.9899 -1.9746
  313MOL0     H42239   7.723  10.859  10.484  0.9842 -1.5275 -2.3081
  313MOL0     H42240   7.625  10.922  10.271  0.5369  0.1050 -1.1485
  313MOL0     H42241   7.679  11.113   9.913  2.4118  0.3721 -0.2280
  313MOL0     H42242   7.610  11.136   9.672  0.4714 -1.5483  0.5894
  313MOL0     H42243   7.383  11.195   9.521  0.1392 -2.0594 -2.7474
  313MOL0     H42244   7.550  11.190   9.476 -0.8783 -1.4828  0.2797
  313MOL0     H42245   7.499  11.389   9.320  1.4681 -1.8434  1.6063
  313MOL0     H42246   7.330  11.372   9.371 -0.8203 -1.4627 -0.2735
  313MOL0     H42247   7.352  11.298   9.161 -3.1000 -2.4150 -1.3338
  313MOL0     H42248   7.322  11.138   9.247  1.6264 -1.3013 -1.8142
  313MOL0     H42249   7.594  11.224   9.160  0.7576  0.1519  0.4295
  313MOL0     H42250   7.558  11.070   9.223  2.4626  0.4598 -1.4612
  313MOL0     H42251   7.370  11.042   8.841 -1.9298  3.0207 -0.3018
  313MOL0     H42252   7.497  11.536   9.752  0.0013 -1.4041 -1.8138
  313MOL0     H42253   7.663  11.615   9.987 -0.5060 -0.8028 -4.9133
  313MOL0     H42254   7.493  11.621   9.995  0.5605  0.5495  0.7488
  313MOL0     H42255   7.568  11.526  10.117 -0.3583 -1.7303 -1.6488
  314MOL0     O42256   0.935   8.111   9.169 -0.5945  0.8533 -0.1415
  314MOL0     C42257   0.859   8.182   9.107 -0.0561  0.7235  0.2612
  314MOL0     O42258   0.724   8.184   9.126  0.6561 -0.0254  0.0499
  314MOL0     C42259   0.652   8.123   9.223  0.1062  0.1650 -0.0780
  314MOL0     C42260   0.702   8.026   9.316 -0.0825  0.1305  0.1955
  314MOL0     C42261   0.617   7.939   9.388 -0.4177 -0.6429 -0.0357
  314MOL0     C42262   0.481   7.940   9.369  0.2853 -0.3211  0.5020
  314MOL0     O42263   0.391   7.868   9.442 -0.3123  0.2787  0.1143
  314MOL0     C42264   0.442   7.786   9.541 -0.9781 -0.5029  0.0931
  314MOL0     C42265   0.330   7.683   9.579 -0.5077 -0.2611  0.0409
  314MOL0     C42266   0.377   7.574   9.679 -0.5177 -0.5644 -1.0772
  314MOL0     C42267   0.277   7.462   9.699  0.1384 -0.0567 -0.8320
  314MOL0     C42268   0.142   7.522   9.743 -1.0075  0.3986  0.7706
  314MOL0     C42269   0.128   7.613   9.870 -0.6795  0.4408  0.7729
  314MOL0     C42270  -0.001   7.697   9.869 -1.0826  0.4795  0.6466
  314MOL0     C42271   0.017   7.810   9.980  0.0507  0.3210 -0.5311
  314MOL0     N42272   0.111   7.911   9.932 -0.2483  0.0666  0.1278
  314MOL0     C42273   0.100   8.006   9.838  0.1396  0.3172  0.2864
  314MOL0     C42274   0.222   8.070   9.834  0.3596 -0.8956  0.5669
  314MOL0     C42275   0.264   8.181   9.737 -0.6115  0.1280 -0.6241
  314MOL0     C42276   0.405   8.238   9.753  0.2047 -0.5637 -0.3829
  314MOL0     C42277   0.506   8.157   9.672 -0.2395  0.1346  0.3509
  314MOL0     C42278   0.643   8.208   9.709 -0.0690  0.0722 -1.3236
  314MOL0     O42279   0.656   8.336   9.638  0.8289  0.3819 -0.1921
  314MOL0     C42280   0.778   8.388   9.623 -0.8478 -0.8394 -0.6690
  314MOL0     C42281   0.804   8.525   9.650  0.6950 -1.1295  0.5347
  314MOL0     C42282   0.942   8.568   9.644  0.1312 -0.2151  0.6623
  314MOL0     C42283   1.046   8.478   9.624 -0.1217 -0.3476 -0.2970
  314MOL0     C42284   1.188   8.521   9.646 -0.6802 -1.2166 -0.2347
  314MOL0     O42285   1.282   8.448   9.574 -0.4505 -0.3478 -0.1431
  314MOL0     C42286   1.414   8.488   9.579  0.1513  0.5334  1.5614
  314MOL0     C42287   1.506   8.427   9.667  0.4266  0.2584  0.4511
  314MOL0     C42288   1.635   8.482   9.685 -0.0223  0.2804 -0.7188
  314MOL0     C42289   1.669   8.603   9.621  1.2435 -0.3842 -0.4616
  314MOL0     O42290   1.783   8.674   9.637  0.4623  0.7520  0.0897
  314MOL0     C42291   1.826   8.698   9.773 -0.5840  0.8936  1.1723
  314MOL0     C42292   1.964   8.761   9.800  0.0552 -0.5280  0.6503
  314MOL0     C42293   1.973   8.906   9.730 -0.7351 -0.4775  0.2798
  314MOL0     C42294   2.115   8.972   9.741  0.1671 -0.2155 -0.9015
  314MOL0     C42295   2.124   9.104   9.658 -0.5971  0.1811 -0.2299
  314MOL0     C42296   2.111   9.234   9.736 -0.3696  0.1721 -0.5420
  314MOL0     C42297   2.071   9.369   9.674 -0.0464 -1.1751 -0.4766
  314MOL0     C42298   2.188   9.449   9.617 -0.3182  0.8445  0.9448
  314MOL0    Cl42299   2.308   9.358   9.511  0.9720  0.0317  0.5581
  314MOL0     C42300   1.579   8.654   9.527  0.4672 -0.1234  0.4058
  314MOL0     C42301   1.451   8.594   9.502 -0.8157 -0.0406 -0.0466
  314MOL0     O42302   1.213   8.626   9.703 -0.1118  0.1377  0.1297
  314MOL0     C42303   1.015   8.345   9.587 -0.2994 -0.5501 -0.4613
  314MOL0     C42304   0.886   8.310   9.580 -1.0835  0.8136  0.5498
  314MOL0     N42305   0.304   8.005   9.932 -0.6914  0.6280 -0.1355
  314MOL0     N42306   0.239   7.904   9.974 -1.3616  1.2908 -0.2885
  314MOL0     C42307   0.428   8.031   9.278  0.3141 -0.5955  0.2404
  314MOL0     C42308   0.512   8.115   9.204 -0.6479  0.1109  0.7841
  314MOL0     C42309   0.905   8.240   8.976 -0.5459  0.3493  0.5758
  314MOL0     C42310   0.818   8.295   8.880 -0.4972 -0.0040 -0.1202
  314MOL0     C42311   0.857   8.362   8.759  0.2327 -0.1116 -0.9936
  314MOL0     C42312   0.993   8.366   8.725  0.9306 -0.1200  0.5631
  314MOL0     O42313   1.036   8.441   8.614  0.1321 -0.3046 -0.2225
  314MOL0     C42314   0.959   8.521   8.524  1.2084  0.7735 -0.2741
  314MOL0     C42315   0.883   8.650   8.586 -0.1055  0.7272 -0.2580
  314MOL0     C42316   0.984   8.750   8.647 -0.1024 -0.0913  0.4424
  314MOL0     C42317   1.021   8.858   8.556  0.5635 -0.1469 -0.0401
  314MOL0     C42318   1.096   8.827   8.431 -1.3894  0.1582  0.3857
  314MOL0     C42319   1.156   8.816   8.326  0.7737 -0.0654 -0.1323
  314MOL0     C42320   1.085   8.303   8.806 -0.9156 -0.0766  0.5882
  314MOL0     C42321   1.043   8.240   8.928  0.5976 -0.0210 -0.2316
  314MOL0     C42322   1.151   8.174   9.026  0.6133  0.7046 -0.0054
  314MOL0     H42323   0.809   8.020   9.334 -0.0846 -3.0391 -0.2607
  314MOL0     H42324   0.663   7.874   9.462  1.6171  1.3500  0.5881
  314MOL0     H42325   0.514   7.726   9.485  1.4815  0.9298  1.5156
  314MOL0     H42326   0.494   7.838   9.622 -0.4237  0.1812 -0.6787
  314MOL0     H42327   0.306   7.637   9.483  1.2350  0.2417 -0.6808
  314MOL0     H42328   0.243   7.736   9.619 -0.8257 -1.1482  0.5409
  314MOL0     H42329   0.403   7.619   9.775 -1.0119 -0.5260 -0.9560
  314MOL0     H42330   0.468   7.533   9.634  0.8119  1.1330 -0.0391
  314MOL0     H42331   0.263   7.402   9.609  1.4270 -1.3682 -0.1839
  314MOL0     H42332   0.313   7.397   9.779  3.4122  1.9352 -0.5091
  314MOL0     H42333   0.103   7.574   9.654  1.1176  0.6395 -0.0918
  314MOL0     H42334   0.070   7.440   9.752 -1.5953  0.6239 -1.2484
  314MOL0     H42335   0.131   7.558   9.965 -1.2897  0.2212  0.6702
  314MOL0     H42336   0.218   7.674   9.870 -0.2960  0.1582 -3.4433
  314MOL0     H42337  -0.080   7.635   9.914 -0.0228 -2.2664 -1.0241
  314MOL0     H42338  -0.039   7.739   9.775  2.1067  1.6488 -0.2459
  314MOL0     H42339  -0.074   7.863  10.010 -1.5421 -2.7591  0.4540
  314MOL0     H42340   0.056   7.762  10.069 -1.5550 -0.4124 -0.1990
  314MOL0     H42341   0.016   8.021   9.771  0.6242  0.1303 -0.3749
  314MOL0     H42342   0.249   8.173   9.629  1.2600 -0.7941 -0.8641
  314MOL0     H42343   0.199   8.266   9.759  1.5920  1.3920  1.5517
  314MOL0     H42344   0.409   8.341   9.717 -1.6739 -0.2107  0.2980
  314MOL0     H42345   0.433   8.231   9.859  1.1578  0.0297 -0.5858
  314MOL0     H42346   0.487   8.160   9.564 -1.6041  1.7669  0.5994
  314MOL0     H42347   0.510   8.049   9.690 -2.9578 -0.3794 -1.4622
  314MOL0     H42348   0.714   8.129   9.683 -0.2225 -0.4628 -0.1778
  314MOL0     H42349   0.649   8.223   9.817 -2.6682 -0.2491 -1.0606
  314MOL0     H42350   0.718   8.591   9.661  0.1290 -1.7329 -0.1761
  314MOL0     H42351   0.952   8.674   9.661  0.5282  0.0205 -0.8547
  314MOL0     H42352   1.481   8.346   9.734  2.4771 -2.0411 -1.3539
  314MOL0     H42353   1.705   8.425   9.745 -2.1237 -1.3428  0.3380
  314MOL0     H42354   1.759   8.769   9.822 -0.7494  2.7677 -1.5347
  314MOL0     H42355   1.824   8.610   9.838  1.9139 -0.7949 -0.8060
  314MOL0     H42356   1.983   8.766   9.908  0.9532 -1.2137  0.5457
  314MOL0     H42357   2.048   8.699   9.767  0.9177  1.4518 -1.0593
  314MOL0     H42358   1.945   8.899   9.625  4.9203 -1.1005 -1.5245
  314MOL0     H42359   1.909   8.985   9.771  1.4499  1.0452  0.9622
  314MOL0     H42360   2.190   8.908   9.693 -0.6201 -0.1001 -2.3413
  314MOL0     H42361   2.147   8.982   9.845  2.0430  2.0911 -1.6037
  314MOL0     H42362   2.049   9.097   9.578  0.6825 -0.4031 -1.4086
  314MOL0     H42363   2.224   9.114   9.616 -0.3494  1.6110  0.6404
  314MOL0     H42364   2.041   9.208   9.815  0.8578  0.9976  0.8814
  314MOL0     H42365   2.197   9.250   9.801 -1.5022  0.1253  1.0069
  314MOL0     H42366   2.043   9.428   9.761  1.5105 -1.6805  0.4166
  314MOL0     H42367   1.986   9.364   9.605  0.5765  2.8474 -1.8266
  314MOL0     H42368   2.146   9.529   9.556 -0.1589  0.4466  0.3027
  314MOL0     H42369   2.244   9.496   9.698 -2.5980  0.8675  2.5786
  314MOL0     H42370   1.624   8.733   9.468  1.8014  0.2502  1.8786
  314MOL0     H42371   1.385   8.634   9.426 -2.2144 -2.3481 -0.1402
  314MOL0     H42372   1.088   8.266   9.577  0.9983  0.6770 -0.9714
  314MOL0     H42373   0.860   8.206   9.560  0.3470  0.6456 -0.6557
  314MOL0     H42374   0.321   8.041   9.282  0.2102 -0.9110 -1.1657
  314MOL0     H42375   0.480   8.179   9.122  2.0084 -0.3507 -0.7432
  314MOL0     H42376   0.711   8.283   8.889 -0.1633 -3.0347  1.2546
  314MOL0     H42377   0.786   8.412   8.694 -1.7178 -1.3570  0.0686
  314MOL0     H42378   0.867   8.470   8.496  0.0171  2.5293  0.3114
  314MOL0     H42379   1.024   8.544   8.439  1.7687  2.7051  0.6125
  314MOL0     H42380   0.822   8.619   8.671  0.3296 -0.8328 -0.4746
  314MOL0     H42381   0.818   8.703   8.515 -1.2174  0.7268  0.7221
  314MOL0     H42382   1.070   8.688   8.675  1.0092  0.8088 -0.8474
  314MOL0     H42383   0.936   8.792   8.735 -3.0007 -1.3402 -0.4352
  314MOL0     H42384   0.937   8.912   8.510 -0.8638 -1.4410  0.9682
  314MOL0     H42385   1.084   8.920   8.621  0.1309  1.7572 -1.3388
  314MOL0     H42386   1.211   8.792   8.237  3.7985 -0.4854  1.6974
  314MOL0     H42387   1.192   8.311   8.789 -1.2165  2.0164 -0.6626
  314MOL0     H42388   1.251   8.175   8.983  0.5350  0.3588 -0.1980
  314MOL0     H42389   1.157   8.237   9.115  1.8108 -0.5905  0.8659
  314MOL0     H42390   1.124   8.069   9.041 -2.2883  1.6535  2.7213
  315MOL0     O42391   0.291   8.841   4.188  0.5638 -0.2496 -0.0202
  315MOL0     C42392   0.349   8.845   4.083  0.4883  0.3221 -0.7355
  315MOL0     O42393   0.462   8.925   4.059 -0.0790 -0.0108  0.0872
  315MOL0     C42394   0.500   9.019   4.155  0.2206  0.5581  0.2980
  315MOL0     C42395   0.630   9.038   4.184 -1.7161 -0.5148  0.0302
  315MOL0     C42396   0.681   9.129   4.283 -0.0842 -0.2489  0.6992
  315MOL0     C42397   0.586   9.222   4.339 -0.8511  0.7510  0.7509
  315MOL0     O42398   0.617   9.318   4.435  0.6453  0.0512  0.1051
  315MOL0     C42399   0.755   9.326   4.468  0.4083  0.7632  1.0928
  315MOL0     C42400   0.775   9.412   4.581 -0.1418  0.6052  0.1197
  315MOL0     C42401   0.932   9.421   4.601 -0.1978  0.2893  0.2231
  315MOL0     C42402   0.959   9.558   4.674  0.9945 -0.0754  0.0342
  315MOL0     C42403   1.110   9.558   4.712 -0.0233  0.9218  0.4873
  315MOL0     C42404   1.153   9.461   4.824 -0.8509  0.3692  0.5785
  315MOL0     C42405   1.278   9.511   4.890  1.0250  0.7154 -0.4446
  315MOL0     C42406   1.248   9.626   4.991 -0.2104 -0.1660  0.3287
  315MOL0     N42407   1.362   9.691   5.054  0.4786  0.0284 -0.6506
  315MOL0     C42408   1.397   9.670   5.188  0.5967  0.4435  0.4714
  315MOL0     C42409   1.469   9.780   5.216 -0.1772  0.4217 -0.1400
  315MOL0     C42410   1.506   9.817   5.358  0.3757  0.3527  1.0662
  315MOL0     C42411   1.396   9.920   5.408 -0.7053 -0.6331 -0.4188
  315MOL0     C42412   1.383  10.051   5.340  0.8943 -0.2359 -0.4327
  315MOL0     C42413   1.363  10.180   5.438  0.6433 -0.1997  0.8132
  315MOL0     O42414   1.483  10.192   5.525 -0.4356  0.5130  1.6278
  315MOL0     C42415   1.472  10.293   5.622 -0.7637  0.6684 -0.6031
  315MOL0     C42416   1.351  10.355   5.667  0.3593 -0.0036  0.5405
  315MOL0     C42417   1.354  10.466   5.741 -0.5246  0.0228  1.2417
  315MOL0     C42418   1.477  10.506   5.799 -0.3554  0.0833  0.4252
  315MOL0     C42419   1.489  10.621   5.883 -0.4116 -0.0432 -0.2567
  315MOL0     O42420   1.615  10.677   5.907  0.3591  0.5502  0.6232
  315MOL0     C42421   1.621  10.799   5.964  0.4170 -0.0623  0.5921
  315MOL0     C42422   1.517  10.897   5.953 -0.4779 -0.3629  0.5250
  315MOL0     C42423   1.529  11.020   6.014  0.7375  1.0240  0.3189
  315MOL0     C42424   1.639  11.049   6.093  0.7897 -0.3452  0.8337
  315MOL0     O42425   1.639  11.155   6.176 -0.4782  0.8040 -0.5108
  315MOL0     C42426   1.634  11.294   6.134 -0.3892 -0.8580 -0.1715
  315MOL0     C42427   1.783  11.345   6.117  0.2862  0.3248 -0.6472
  315MOL0     C42428   1.865  11.297   5.997 -0.0057 -0.3591  0.0438
  315MOL0     C42429   1.826  11.337   5.859  0.1007  1.4728 -0.6265
  315MOL0     C42430   1.936  11.422   5.789 -0.5516  0.1332  0.1829
  315MOL0     C42431   1.899  11.473   5.656 -0.3115 -0.1582 -0.1116
  315MOL0     C42432   1.808  11.596   5.640  0.5715 -0.7687 -0.4581
  315MOL0     C42433   1.802  11.641   5.492 -0.2004  0.9927 -0.0881
  315MOL0    Cl42434   1.707  11.509   5.414  0.1571 -0.0594 -0.1752
  315MOL0     C42435   1.734  10.950   6.104 -0.7913 -0.1534  0.2025
  315MOL0     C42436   1.735  10.831   6.032 -0.9285 -0.4616 -1.0016
  315MOL0     O42437   1.384  10.648   5.942 -0.0072  0.3586 -0.5205
  315MOL0     C42438   1.594  10.441   5.772  0.5911  0.3336 -0.5780
  315MOL0     C42439   1.598  10.322   5.690  0.6208 -0.6771  0.6843
  315MOL0     N42440   1.466   9.864   5.104  0.0361  0.1996  0.7671
  315MOL0     N42441   1.409   9.810   5.013 -0.7533  0.4215  0.5481
  315MOL0     C42442   0.454   9.210   4.310  0.0478  0.3059 -0.0900
  315MOL0     C42443   0.417   9.116   4.209  0.2092  0.0929 -0.9498
  315MOL0     C42444   0.313   8.751   3.967 -0.1915  0.2215 -0.6947
  315MOL0     C42445   0.414   8.686   3.882 -0.2965 -0.1517  0.9745
  315MOL0     C42446   0.377   8.606   3.777 -0.2054  0.2827 -0.1492
  315MOL0     C42447   0.247   8.585   3.751  0.5037 -0.7229  0.2011
  315MOL0     O42448   0.200   8.489   3.663  0.0074  0.3017  0.3280
  315MOL0     C42449   0.290   8.383   3.613  0.1931 -0.5347  0.1079
  315MOL0     C42450   0.204   8.285   3.540  0.3723  0.7540  0.4256
  315MOL0     C42451   0.291   8.182   3.465  0.0706 -0.7406  0.7791
  315MOL0     C42452   0.234   8.102   3.349 -0.3370 -0.2007 -0.3446
  315MOL0     C42453   0.179   8.180   3.237  0.4695 -0.1424  0.1773
  315MOL0     C42454   0.121   8.224   3.141 -1.4485 -0.1951 -0.0638
  315MOL0     C42455   0.145   8.635   3.832  1.0542 -0.0619  0.1229
  315MOL0     C42456   0.178   8.715   3.948  0.1128  0.7142 -0.7483
  315MOL0     C42457   0.063   8.742   4.036 -0.8524 -1.0272  0.2145
  315MOL0     H42458   0.699   8.976   4.127 -4.0496 -1.4585 -1.9212
  315MOL0     H42459   0.788   9.142   4.296 -0.0740 -1.2888  1.8788
  315MOL0     H42460   0.781   9.223   4.493  0.9750  0.6349  0.0641
  315MOL0     H42461   0.815   9.361   4.383 -0.8074 -0.6909 -0.4361
  315MOL0     H42462   0.721   9.367   4.665 -2.8171  0.3914 -1.5933
  315MOL0     H42463   0.720   9.506   4.573 -0.6801  0.4467  1.5983
  315MOL0     H42464   0.978   9.426   4.502 -2.7105 -1.3667 -1.1159
  315MOL0     H42465   0.972   9.333   4.652 -0.9377 -0.2227 -0.0659
  315MOL0     H42466   0.942   9.637   4.600 -0.0066  0.8423  1.2067
  315MOL0     H42467   0.887   9.575   4.754 -0.4629  0.1042 -1.2686
  315MOL0     H42468   1.157   9.530   4.618 -2.8971 -1.0545 -0.5292
  315MOL0     H42469   1.134   9.662   4.735 -2.1566  1.5687  0.0293
  315MOL0     H42470   1.088   9.443   4.910 -1.3141  1.0284  0.3672
  315MOL0     H42471   1.186   9.362   4.789  1.0088  0.5667  1.6291
  315MOL0     H42472   1.352   9.546   4.816  2.5852 -0.1803  0.6275
  315MOL0     H42473   1.330   9.426   4.934  1.2247  0.1266 -1.7730
  315MOL0     H42474   1.200   9.708   4.936 -0.1617  0.0861  0.6614
  315MOL0     H42475   1.165   9.601   5.057 -1.9054 -2.0694 -2.3082
  315MOL0     H42476   1.370   9.590   5.257 -0.4818 -1.0389 -1.5851
  315MOL0     H42477   1.516   9.730   5.423  2.2333  0.1865  0.5939
  315MOL0     H42478   1.605   9.863   5.357  0.3856  0.3874 -1.0492
  315MOL0     H42479   1.295   9.876   5.408 -0.4203 -1.3007 -0.1718
  315MOL0     H42480   1.432   9.944   5.508 -0.1316  3.0571 -1.3708
  315MOL0     H42481   1.285  10.058   5.291  1.1228  3.2132 -0.6794
  315MOL0     H42482   1.456  10.077   5.263  1.1958  1.6947  0.4237
  315MOL0     H42483   1.273  10.167   5.499 -0.6843 -2.8479 -1.4761
  315MOL0     H42484   1.335  10.264   5.374 -3.5640 -1.2177  1.0182
  315MOL0     H42485   1.256  10.320   5.627  0.4193 -0.8957  1.1486
  315MOL0     H42486   1.272  10.531   5.770 -0.1513  0.9887  0.2110
  315MOL0     H42487   1.435  10.865   5.889  0.7938 -3.7362  0.3504
  315MOL0     H42488   1.456  11.100   6.014 -0.0231  0.3639  1.4965
  315MOL0     H42489   1.577  11.323   6.045  0.5020  0.5692 -0.3032
  315MOL0     H42490   1.593  11.362   6.209  1.6499  1.0788 -0.7059
  315MOL0     H42491   1.775  11.454   6.114 -0.6241  0.3544  1.3873
  315MOL0     H42492   1.828  11.320   6.213 -0.2054 -2.6218 -1.0846
  315MOL0     H42493   1.966  11.338   6.001 -0.5468  0.9902  0.2806
  315MOL0     H42494   1.870  11.188   5.996  1.8482 -0.4342 -3.6624
  315MOL0     H42495   1.737  11.400   5.856 -0.0743  1.2600 -0.1717
  315MOL0     H42496   1.814  11.245   5.802  2.4384 -0.4263  1.6701
  315MOL0     H42497   2.014  11.348   5.771 -0.0337  1.0483 -1.5209
  315MOL0     H42498   1.982  11.500   5.850  0.4457  0.6569 -1.1919
  315MOL0     H42499   1.995  11.491   5.607 -0.9041 -1.2422 -1.7829
  315MOL0     H42500   1.862  11.379   5.614 -0.9252 -0.4626  1.0686
  315MOL0     H42501   1.844  11.677   5.705 -1.7722 -1.4299  1.8552
  315MOL0     H42502   1.713  11.557   5.677  1.4301 -0.7887  1.9709
  315MOL0     H42503   1.751  11.733   5.463  0.0284 -0.0485 -4.4659
  315MOL0     H42504   1.904  11.646   5.452  0.1286  0.3320  0.6238
  315MOL0     H42505   1.814  10.967   6.174  1.3137 -0.2771 -2.0275
  315MOL0     H42506   1.803  10.751   6.059 -0.7247  0.1595  0.4236
  315MOL0     H42507   1.687  10.469   5.820  0.3328  1.5254 -0.7495
  315MOL0     H42508   1.698  10.284   5.673  0.4847 -0.3538 -0.9429
  315MOL0     H42509   0.376   9.265   4.361 -2.0277 -1.9200 -0.7170
  315MOL0     H42510   0.310   9.108   4.191 -0.1778  0.8350  0.7445
  315MOL0     H42511   0.522   8.701   3.893 -0.3089  0.3779  0.4459
  315MOL0     H42512   0.459   8.561   3.722  3.0511  1.0843  3.6327
  315MOL0     H42513   0.335   8.337   3.702 -1.7830  0.2009  1.5504
  315MOL0     H42514   0.363   8.421   3.542 -0.1088 -2.2834 -1.2118
  315MOL0     H42515   0.139   8.342   3.472  0.9039 -0.1787 -0.8987
  315MOL0     H42516   0.133   8.236   3.607 -1.9655  1.2506 -1.5528
  315MOL0     H42517   0.333   8.118   3.543  3.2907  1.2690  0.8945
  315MOL0     H42518   0.370   8.238   3.413  0.1829 -1.6491 -0.0584
  315MOL0     H42519   0.304   8.021   3.324  1.1321  1.3333 -1.4019
  315MOL0     H42520   0.154   8.049   3.402 -1.2327  0.6513 -0.8177
  315MOL0     H42521   0.084   8.285   3.060 -3.8484 -0.8492  0.4670
  315MOL0     H42522   0.043   8.613   3.802  0.3404 -0.8873  2.8163
  315MOL0     H42523   0.087   8.699   4.134 -3.2673 -0.6613  1.0310
  315MOL0     H42524   0.049   8.850   4.042 -2.2830 -0.9849 -2.4351
  315MOL0     H42525  -0.030   8.695   4.002  0.0720 -1.7294 -1.4446
  316MOL0     O42526   0.123   6.720  10.361 -0.3882 -0.6237 -0.4336
  316MOL0     C42527   0.122   6.666  10.253 -1.7023 -0.8060  0.9754
  316MOL0     O42528   0.169   6.535  10.235 -0.3613 -1.2917  0.1788
  316MOL0     C42529   0.159   6.437  10.334  0.2577 -0.2961  0.4519
  316MOL0     C42530   0.247   6.331  10.322  0.5338 -0.5442  0.3812
  316MOL0     C42531   0.225   6.220  10.394  0.1000  0.8737 -0.5036
  316MOL0     C42532   0.132   6.213  10.494  0.8234  0.5550 -0.6307
  316MOL0     O42533   0.111   6.091  10.557  0.8221  0.4663 -0.4429
  316MOL0     C42534   0.035   6.083  10.667  0.0985 -0.2661 -0.6892
  316MOL0     C42535   0.111   6.153  10.788  0.5867  0.6796 -0.4837
  316MOL0     C42536   0.233   6.086  10.847 -0.3665 -0.3896 -0.1667
  316MOL0     C42537   0.206   5.954  10.921 -0.2656 -0.2624  0.5528
  316MOL0     C42538   0.323   5.895  10.995  0.2646 -0.0216  0.1477
  316MOL0     C42539   0.430   5.884  10.887 -0.2607  0.0131 -0.0527
  316MOL0     C42540   0.551   5.797  10.925  1.0047  0.4255 -0.7816
  316MOL0     C42541   0.663   5.793  10.827  0.6431 -0.1151  0.0995
  316MOL0     N42542   0.631   5.733  10.701 -0.6191 -0.2087 -0.0839
  316MOL0     C42543   0.552   5.790  10.604 -0.3141  0.5686 -0.2382
  316MOL0     C42544   0.557   5.696  10.510  0.1345 -0.6918 -0.1137
  316MOL0     C42545   0.496   5.701  10.376 -0.6922 -0.7735 -0.0558
  316MOL0     C42546   0.339   5.678  10.388 -0.7686 -0.1180  0.8116
  316MOL0     C42547   0.282   5.650  10.241  0.1324 -0.5612 -0.8100
  316MOL0     C42548   0.266   5.784  10.166 -0.5714 -0.4289  0.0498
  316MOL0     O42549   0.228   5.752  10.025 -0.0873 -0.1674  0.9211
  316MOL0     C42550   0.121   5.821   9.971  0.0692  0.3859 -0.3289
  316MOL0     C42551   0.101   5.958   9.984 -0.8169  0.2656 -0.2492
  316MOL0     C42552  -0.017   6.011   9.934  0.4248  0.3792  0.0617
  316MOL0     C42553  -0.106   5.934   9.858  0.1457  0.2719 -0.7872
  316MOL0     C42554  -0.217   6.007   9.789  0.0268  1.2078 -0.5249
  316MOL0     O42555  -0.222   6.147   9.791  0.4793  0.4090 -0.0760
  316MOL0     C42556  -0.324   6.197   9.724  0.4219 -0.2582  0.3066
  316MOL0     C42557  -0.293   6.292   9.626 -0.7701 -0.0610  1.1350
  316MOL0     C42558  -0.404   6.348   9.552 -1.3910  0.4928  1.4388
  316MOL0     C42559  -0.541   6.320   9.583 -1.0898 -0.3861  0.2867
  316MOL0     O42560  -0.644   6.394   9.530  0.2230  0.5473  0.4601
  316MOL0     C42561  -0.612   6.519   9.478 -0.7527  0.1778  0.0030
  316MOL0     C42562  -0.733   6.593   9.415 -0.1800 -0.5418 -0.2890
  316MOL0     C42563  -0.770   6.554   9.274  0.5147  0.5572 -0.6084
  316MOL0     C42564  -0.924   6.561   9.253 -0.6200  0.0622 -0.4191
  316MOL0     C42565  -0.971   6.515   9.113 -0.3151  0.2645 -0.4716
  316MOL0     C42566  -1.121   6.544   9.083  0.2675  0.5994  0.1707
  316MOL0     C42567  -1.165   6.509   8.939 -0.7161 -0.4306 -0.1575
  316MOL0     C42568  -1.313   6.486   8.913 -0.3064 -0.3685  0.5179
  316MOL0    Cl42569  -1.345   6.459   8.734  0.4605 -0.2518  0.4313
  316MOL0     C42570  -0.574   6.229   9.679 -0.6073 -0.1197 -0.1444
  316MOL0     C42571  -0.461   6.165   9.744  0.0457  0.2390  0.0858
  316MOL0     O42572  -0.281   5.928   9.711  0.0359 -0.3864  0.5594
  316MOL0     C42573  -0.073   5.797   9.832  0.1397  0.3554  1.2954
  316MOL0     C42574   0.029   5.740   9.908 -0.2923  0.1140  0.4029
  316MOL0     N42575   0.627   5.583  10.549  0.8214  0.8384  0.7607
  316MOL0     N42576   0.670   5.609  10.665  0.4662  0.5532  0.2798
  316MOL0     C42577   0.048   6.328  10.516  0.0800  0.3858 -1.1550
  316MOL0     C42578   0.067   6.437  10.435  0.2776 -0.1323 -0.0739
  316MOL0     C42579   0.122   6.746  10.136  0.1255 -0.3929  0.1199
  316MOL0     C42580   0.217   6.715  10.034 -0.7268  0.1118 -0.6429
  316MOL0     C42581   0.234   6.800   9.929  0.7156  0.0573  0.2620
  316MOL0     C42582   0.142   6.900   9.902 -0.3671 -0.3218 -0.5991
  316MOL0     O42583   0.137   6.985   9.793 -0.1815 -0.1164  0.2094
  316MOL0     C42584   0.216   6.970   9.675  0.1077  0.0380  1.0635
  316MOL0     C42585   0.123   6.988   9.549 -0.7634 -0.5767 -0.4609
  316MOL0     C42586   0.098   7.132   9.507 -0.5539 -0.5435 -1.2871
  316MOL0     C42587   0.041   7.142   9.363  0.5859 -0.6165  0.2177
  316MOL0     C42588  -0.107   7.174   9.364 -0.1016  0.4433  0.1146
  316MOL0     C42589  -0.227   7.178   9.365 -0.7380 -0.1268 -0.5066
  316MOL0     C42590   0.045   6.919  10.004  0.0301 -0.5745  0.5252
  316MOL0     C42591   0.030   6.850  10.118 -0.3307  1.0071  0.3628
  316MOL0     C42592  -0.085   6.885  10.203  0.4500 -0.7975 -1.0584
  316MOL0     H42593   0.330   6.333  10.252 -0.9160  0.1521 -1.3963
  316MOL0     H42594   0.314   6.157  10.402  1.8567  3.3731  1.2145
  316MOL0     H42595  -0.062   6.130  10.652 -1.2265 -2.0162  1.7105
  316MOL0     H42596   0.023   5.978  10.693  2.1184 -0.0225  1.5336
  316MOL0     H42597   0.033   6.167  10.863  0.8551  0.1077 -0.0919
  316MOL0     H42598   0.144   6.254  10.760  1.6401  0.7197  0.7796
  316MOL0     H42599   0.296   6.150  10.910  1.3407 -1.0240 -1.1340
  316MOL0     H42600   0.301   6.070  10.763  2.2901  0.4082  1.6900
  316MOL0     H42601   0.122   5.958  10.991  0.8225 -1.9262  2.0475
  316MOL0     H42602   0.163   5.880  10.853 -2.9643  1.7121 -0.0562
  316MOL0     H42603   0.365   5.956  11.076 -0.4227  0.8289 -0.1151
  316MOL0     H42604   0.292   5.799  11.035  2.2807 -0.2833  1.2308
  316MOL0     H42605   0.381   5.841  10.799 -2.2016 -3.9802  2.6494
  316MOL0     H42606   0.471   5.983  10.864  4.4948 -1.8423 -0.6909
  316MOL0     H42607   0.522   5.692  10.930 -2.1118  1.1763 -0.9581
  316MOL0     H42608   0.585   5.841  11.019 -1.2020 -0.0831  0.3198
  316MOL0     H42609   0.695   5.896  10.804  2.9144 -0.2491  2.2386
  316MOL0     H42610   0.751   5.738  10.862  1.2978  1.3353  0.8203
  316MOL0     H42611   0.512   5.891  10.601 -1.0042  0.2929 -2.6560
  316MOL0     H42612   0.518   5.802  10.342 -0.8691 -1.3261 -1.9492
  316MOL0     H42613   0.546   5.635  10.305  0.0644 -3.3061  2.6031
  316MOL0     H42614   0.323   5.594  10.456 -2.8164 -0.2495  0.2338
  316MOL0     H42615   0.284   5.760  10.436 -0.3848 -2.0687  5.0730
  316MOL0     H42616   0.177   5.625  10.256 -1.2183  2.7985 -3.4211
  316MOL0     H42617   0.345   5.577  10.190  0.7327  0.5890 -1.7770
  316MOL0     H42618   0.363   5.833  10.165  0.6469 -2.6882  0.4848
  316MOL0     H42619   0.184   5.846  10.204 -0.2361  0.8868 -1.3026
  316MOL0     H42620   0.161   6.017  10.052 -1.2182  2.1238 -1.4171
  316MOL0     H42621  -0.031   6.118   9.946 -1.6998  0.1308  0.1462
  316MOL0     H42622  -0.188   6.300   9.600 -0.5746 -0.7824  1.6685
  316MOL0     H42623  -0.369   6.425   9.483  0.2844 -0.5623  1.0650
  316MOL0     H42624  -0.585   6.591   9.556  2.2349  1.1429 -1.7616
  316MOL0     H42625  -0.532   6.512   9.404  1.2691  1.9915  1.8699
  316MOL0     H42626  -0.822   6.563   9.471 -0.1129 -3.3116 -1.5044
  316MOL0     H42627  -0.712   6.700   9.423 -0.5369 -0.5583  1.1582
  316MOL0     H42628  -0.716   6.619   9.205  0.2420  0.2825 -1.0901
  316MOL0     H42629  -0.730   6.456   9.246  0.7229  0.3000  0.5530
  316MOL0     H42630  -0.955   6.665   9.267 -1.8093 -0.4567  1.0398
  316MOL0     H42631  -0.970   6.490   9.323 -1.3043 -3.6624 -4.2701
  316MOL0     H42632  -0.940   6.411   9.107  0.7867  0.5123  0.5798
  316MOL0     H42633  -0.904   6.564   9.043  1.5994  0.6996  1.5646
  316MOL0     H42634  -1.193   6.496   9.151 -0.8535  3.4729  1.1801
  316MOL0     H42635  -1.137   6.652   9.090 -0.5374  0.5994 -1.3635
  316MOL0     H42636  -1.106   6.418   8.927  0.0640 -0.1982  1.5730
  316MOL0     H42637  -1.130   6.582   8.866 -3.0886  1.2462  0.2768
  316MOL0     H42638  -1.342   6.393   8.962 -1.3235  0.3308  1.2867
  316MOL0     H42639  -1.378   6.564   8.955 -1.9847 -1.5219  0.1324
  316MOL0     H42640  -0.670   6.206   9.723  0.4890 -0.3038  2.3249
  316MOL0     H42641  -0.476   6.092   9.823  1.1373 -0.7575 -0.5884
  316MOL0     H42642  -0.133   5.737   9.765 -1.1846  1.6032  1.3129
  316MOL0     H42643   0.058   5.639   9.878 -3.2062  0.2516 -3.7256
  316MOL0     H42644  -0.026   6.329  10.595 -0.3543 -1.8632 -1.4524
  316MOL0     H42645  -0.009   6.513  10.451 -0.0915 -0.5673  0.2531
  316MOL0     H42646   0.292   6.639  10.051 -0.8988 -0.0766 -0.7310
  316MOL0     H42647   0.312   6.769   9.860  0.9098  0.3806  0.3374
  316MOL0     H42648   0.262   6.871   9.666 -2.0754 -0.8734 -1.9026
  316MOL0     H42649   0.291   7.049   9.674  1.9444 -1.6333  0.9211
  316MOL0     H42650   0.031   6.930   9.557 -1.3034  0.1496 -1.2736
  316MOL0     H42651   0.178   6.927   9.476  1.6295 -1.6284  1.9960
  316MOL0     H42652   0.187   7.196   9.502 -1.3618  0.5805 -1.7211
  316MOL0     H42653   0.022   7.174   9.574  0.2781 -1.7068  0.4545
  316MOL0     H42654   0.088   7.232   9.321 -2.3752  0.4446 -1.0640
  316MOL0     H42655   0.069   7.059   9.297 -0.1963 -0.1718 -0.7037
  316MOL0     H42656  -0.334   7.174   9.365 -0.8666  1.9757 -0.0687
  316MOL0     H42657  -0.024   6.999   9.977  1.5108  1.0324  1.2982
  316MOL0     H42658  -0.040   6.946  10.283 -1.3769 -0.9288  0.1476
  316MOL0     H42659  -0.165   6.942  10.154 -1.4287  0.6079  3.1287
  316MOL0     H42660  -0.131   6.794  10.242  0.7294 -0.2839  0.5700
  317MOL0     O42661   2.797   6.544   2.397 -0.7141 -0.7076  0.1053
  317MOL0     C42662   2.853   6.572   2.501  0.0755 -0.9160  0.9102
  317MOL0     O42663   2.898   6.489   2.584  1.1788  0.1778 -0.8318
  317MOL0     C42664   2.877   6.352   2.578 -0.1557 -0.1125  0.0329
  317MOL0     C42665   2.970   6.267   2.643  0.3370 -0.6126  1.0452
  317MOL0     C42666   2.970   6.127   2.640 -0.2273  0.5160  0.7141
  317MOL0     C42667   2.871   6.060   2.571 -0.0583  0.4117  0.0878
  317MOL0     O42668   2.873   5.927   2.544  0.2559  0.5586  0.2553
  317MOL0     C42669   2.925   5.824   2.640 -0.2271 -0.6684 -0.2808
  317MOL0     C42670   2.820   5.790   2.742 -0.4707  0.2995  0.5183
  317MOL0     C42671   2.675   5.756   2.674 -0.5329  0.8807 -0.3087
  317MOL0     C42672   2.677   5.614   2.613 -0.2962  0.0654  0.0953
  317MOL0     C42673   2.539   5.571   2.566  0.8327 -0.1163  0.4574
  317MOL0     C42674   2.537   5.423   2.511  1.1590  0.3296  0.3468
  317MOL0     C42675   2.395   5.394   2.450 -0.0073  0.4274  0.2460
  317MOL0     C42676   2.411   5.345   2.303 -0.1546  0.4439  0.3228
  317MOL0     N42677   2.281   5.338   2.249 -0.3568  0.4160  0.3196
  317MOL0     C42678   2.169   5.251   2.279 -0.2813 -0.5331  0.1538
  317MOL0     C42679   2.083   5.274   2.181  0.9469 -0.2186  0.4964
  317MOL0     C42680   1.945   5.210   2.150 -0.3195  0.1344 -0.7285
  317MOL0     C42681   1.874   5.170   2.271  0.6585  0.2480 -0.8232
  317MOL0     C42682   1.937   5.043   2.340 -0.1172  0.5379  0.0748
  317MOL0     C42683   1.831   4.959   2.409  0.6380  0.1234 -0.3792
  317MOL0     O42684   1.724   4.913   2.329  0.3699 -0.0110 -0.2923
  317MOL0     C42685   1.743   4.809   2.252  0.7151 -0.1036  0.8989
  317MOL0     C42686   1.635   4.750   2.184 -1.4930 -0.3461  0.1291
  317MOL0     C42687   1.636   4.640   2.104 -1.1997 -0.8157  0.0856
  317MOL0     C42688   1.766   4.586   2.078  0.7316 -0.6402  0.2372
  317MOL0     C42689   1.779   4.463   1.995 -0.1920 -0.1517 -0.8259
  317MOL0     O42690   1.654   4.393   1.984 -0.0538  0.5235 -0.1157
  317MOL0     C42691   1.661   4.258   1.958  0.3269 -0.6082 -0.2983
  317MOL0     C42692   1.586   4.175   2.040  0.0489 -0.8750 -0.5388
  317MOL0     C42693   1.582   4.039   2.004 -0.4565  0.0637  0.1796
  317MOL0     C42694   1.654   3.994   1.892 -0.1150  0.2177 -0.5340
  317MOL0     O42695   1.652   3.871   1.837  0.8073  0.4156 -0.3682
  317MOL0     C42696   1.547   3.780   1.874 -0.0818  0.4855 -0.2947
  317MOL0     C42697   1.563   3.627   1.843 -0.8946 -0.4916  0.5910
  317MOL0     C42698   1.700   3.584   1.882 -0.1476 -0.4879 -0.6282
  317MOL0     C42699   1.728   3.443   1.829 -0.3181 -0.0355 -0.0254
  317MOL0     C42700   1.857   3.392   1.898  0.6697 -0.6067  0.6221
  317MOL0     C42701   1.980   3.463   1.829 -1.0661  1.1379 -0.5295
  317MOL0     C42702   2.124   3.415   1.862  0.0521  0.6486  0.0528
  317MOL0     C42703   2.236   3.484   1.783  0.3151  0.4274  0.1753
  317MOL0    Cl42704   2.175   3.530   1.623  0.0655 -0.5654  0.3492
  317MOL0     C42705   1.735   4.079   1.816  0.0258 -0.0785 -0.8508
  317MOL0     C42706   1.733   4.214   1.848  0.1158 -0.0956 -0.0658
  317MOL0     O42707   1.896   4.442   1.947  0.4714 -0.5217  1.3431
  317MOL0     C42708   1.877   4.636   2.145 -0.8733  1.9928 -0.9951
  317MOL0     C42709   1.858   4.737   2.229  0.0219  0.0265  0.1575
  317MOL0     N42710   2.128   5.379   2.109 -0.2418  0.1580 -0.2378
  317MOL0     N42711   2.247   5.409   2.142  0.2334  0.2754  0.4009
  317MOL0     C42712   2.773   6.140   2.514  0.4802  0.0939  0.3088
  317MOL0     C42713   2.769   6.282   2.515 -0.1310  0.0725 -1.3855
  317MOL0     C42714   2.858   6.717   2.534  0.3021  0.1953  0.3130
  317MOL0     C42715   2.803   6.818   2.447 -0.2584 -1.0110 -0.3758
  317MOL0     C42716   2.800   6.956   2.476  0.1167  0.4882 -0.0551
  317MOL0     C42717   2.862   6.995   2.597  0.3058 -0.3195  0.8973
  317MOL0     O42718   2.858   7.131   2.628 -0.0866  0.4369  0.3972
  317MOL0     C42719   2.973   7.192   2.678  0.2939 -0.6055  0.4703
  317MOL0     C42720   3.031   7.296   2.584 -0.1802 -0.4595  0.4912
  317MOL0     C42721   3.061   7.231   2.441 -0.0424 -0.0811  0.6839
  317MOL0     C42722   3.089   7.326   2.313  0.5343 -1.3091 -1.1726
  317MOL0     C42723   3.220   7.394   2.339 -0.6182  0.3449 -1.1434
  317MOL0     C42724   3.329   7.443   2.368 -0.0637  0.7055  0.0403
  317MOL0     C42725   2.919   6.901   2.683 -0.1635 -0.0673 -0.5787
  317MOL0     C42726   2.920   6.763   2.654 -0.0587 -0.8601 -1.1108
  317MOL0     C42727   2.990   6.684   2.771  0.4822 -0.0828 -0.3650
  317MOL0     H42728   3.057   6.311   2.691 -1.5589  3.3702  1.2270
  317MOL0     H42729   3.047   6.084   2.703 -1.5675 -1.8704  0.8540
  317MOL0     H42730   2.952   5.728   2.595  1.1158 -2.0053  3.0471
  317MOL0     H42731   3.016   5.861   2.689  0.5657 -2.2824 -0.4770
  317MOL0     H42732   2.807   5.872   2.813 -1.1712  0.0561  0.6783
  317MOL0     H42733   2.880   5.713   2.791  2.2730  0.5489 -2.1561
  317MOL0     H42734   2.648   5.825   2.593 -0.7109 -0.4427 -1.4054
  317MOL0     H42735   2.602   5.765   2.755 -0.1372 -3.1405  0.6853
  317MOL0     H42736   2.752   5.613   2.534  1.6832  1.1234  1.8628
  317MOL0     H42737   2.707   5.544   2.692  1.7231 -1.2707 -1.7349
  317MOL0     H42738   2.472   5.573   2.653  0.5406  0.1678  0.2242
  317MOL0     H42739   2.512   5.648   2.494  0.1193  0.5961  1.4490
  317MOL0     H42740   2.622   5.409   2.443  2.5002  0.1405  1.9982
  317MOL0     H42741   2.546   5.364   2.602 -1.7143  1.7722  1.6976
  317MOL0     H42742   2.326   5.478   2.455  0.8048  1.3466 -2.1997
  317MOL0     H42743   2.357   5.306   2.504  3.8687 -0.9513  1.0495
  317MOL0     H42744   2.480   5.411   2.249  2.0779 -2.3830 -0.5005
  317MOL0     H42745   2.458   5.247   2.294 -1.8781 -0.2618 -2.0617
  317MOL0     H42746   2.147   5.181   2.359  1.6876 -0.8387  0.4830
  317MOL0     H42747   1.880   5.291   2.115 -0.3885 -0.0408 -0.9990
  317MOL0     H42748   1.943   5.124   2.084  3.9064  0.5623 -1.6647
  317MOL0     H42749   1.858   5.256   2.337 -1.7079  2.4615 -3.9485
  317MOL0     H42750   1.776   5.136   2.236  0.3206  0.5879 -0.2388
  317MOL0     H42751   1.990   5.087   2.425 -1.9779  1.2247  0.9502
  317MOL0     H42752   2.001   4.985   2.274  3.9530  1.7846  2.5566
  317MOL0     H42753   1.801   5.026   2.490  1.7601  1.4996 -1.0533
  317MOL0     H42754   1.882   4.868   2.442  1.1748 -0.5407 -2.7983
  317MOL0     H42755   1.546   4.811   2.198 -0.5030  1.4501 -0.9056
  317MOL0     H42756   1.539   4.601   2.077 -0.4242 -3.5458  0.8788
  317MOL0     H42757   1.522   4.208   2.121  0.6937 -1.0791  0.0676
  317MOL0     H42758   1.511   3.982   2.064 -3.2642  0.9411 -2.0515
  317MOL0     H42759   1.530   3.795   1.981  0.1637 -0.9515 -0.0363
  317MOL0     H42760   1.458   3.811   1.818  1.1948  3.0256 -1.0509
  317MOL0     H42761   1.493   3.567   1.902  0.6099 -1.3586  1.5689
  317MOL0     H42762   1.544   3.614   1.736  0.3711  2.9411 -0.2091
  317MOL0     H42763   1.762   3.661   1.834 -2.3696 -0.6526 -4.1607
  317MOL0     H42764   1.722   3.592   1.989 -0.9548 -0.7086 -0.4350
  317MOL0     H42765   1.733   3.431   1.720  0.0910 -2.4024  0.1963
  317MOL0     H42766   1.642   3.379   1.851  0.7161 -1.8136 -0.8933
  317MOL0     H42767   1.858   3.283   1.888  1.4075 -0.4832 -0.9478
  317MOL0     H42768   1.874   3.417   2.003 -1.3463 -0.9481  1.0745
  317MOL0     H42769   1.968   3.442   1.723 -2.1312 -1.6016  0.0491
  317MOL0     H42770   1.970   3.566   1.865  0.8096  1.4230 -0.7378
  317MOL0     H42771   2.137   3.307   1.847  0.1675  0.8069 -1.0600
  317MOL0     H42772   2.132   3.431   1.970  2.3205  0.7528 -0.0812
  317MOL0     H42773   2.256   3.584   1.823 -0.7551  1.0911 -0.8706
  317MOL0     H42774   2.326   3.427   1.806  0.0613 -0.5673 -1.1536
  317MOL0     H42775   1.774   4.045   1.720  1.0673  0.7339 -0.7265
  317MOL0     H42776   1.783   4.281   1.779 -2.0206  0.5418 -1.0784
  317MOL0     H42777   1.973   4.586   2.138 -1.9698 -0.0781 -2.4172
  317MOL0     H42778   1.954   4.753   2.278 -0.8934  1.3478  1.6043
  317MOL0     H42779   2.691   6.085   2.469  0.9810 -0.2249 -0.2325
  317MOL0     H42780   2.679   6.329   2.475 -1.1543 -2.4203 -2.2384
  317MOL0     H42781   2.788   6.796   2.341  0.7023 -0.1766 -0.6997
  317MOL0     H42782   2.777   7.027   2.396 -2.6026 -3.2761 -2.9954
  317MOL0     H42783   3.046   7.114   2.704  0.9702  0.0310  0.5214
  317MOL0     H42784   2.944   7.238   2.773  2.4686  2.1480 -0.0584
  317MOL0     H42785   3.128   7.328   2.622  0.3366 -1.2984 -0.1080
  317MOL0     H42786   2.967   7.384   2.569 -0.9496 -0.9947  0.5409
  317MOL0     H42787   2.984   7.154   2.425  0.3518 -0.6525  1.4583
  317MOL0     H42788   3.155   7.179   2.456  0.5321  1.4687  3.2031
  317MOL0     H42789   3.099   7.273   2.218  1.3737  1.8090 -2.9461
  317MOL0     H42790   3.012   7.403   2.300  2.4452  1.7177  3.1259
  317MOL0     H42791   3.423   7.477   2.405 -0.6616  2.6946 -0.1414
  317MOL0     H42792   2.974   6.928   2.773 -3.6950 -0.1466  1.7817
  317MOL0     H42793   3.058   6.739   2.837  1.8328 -2.3238  0.1822
  317MOL0     H42794   2.912   6.640   2.834 -1.2464  1.8580 -0.9991
  317MOL0     H42795   3.047   6.617   2.707 -0.1978 -1.7756  0.7468
  318MOL0     O42796   8.865   8.878   6.254 -1.0285  0.4129  0.1732
  318MOL0     C42797   8.782   8.855   6.175 -0.3266  0.5438 -0.7482
  318MOL0     O42798   8.663   8.922   6.170  0.8042  0.6741  0.0743
  318MOL0     C42799   8.640   8.998   6.283  0.1105 -0.4115 -0.6749
  318MOL0     C42800   8.699   9.125   6.306 -0.2912 -0.7362 -0.6007
  318MOL0     C42801   8.673   9.201   6.415  0.0168 -0.5236  0.0132
  318MOL0     C42802   8.596   9.152   6.522  0.8499  0.3217  0.8413
  318MOL0     O42803   8.562   9.232   6.636  0.0847  0.6542  0.5655
  318MOL0     C42804   8.449   9.177   6.706 -0.0391  0.1843 -0.8325
  318MOL0     C42805   8.404   9.289   6.807  0.2974  0.1320 -0.0368
  318MOL0     C42806   8.507   9.320   6.923  0.6604  0.3919 -0.5804
  318MOL0     C42807   8.455   9.328   7.068  0.3006  0.9053  0.9152
  318MOL0     C42808   8.582   9.316   7.159  0.8413  0.9149 -0.3083
  318MOL0     C42809   8.540   9.321   7.303  0.7568  0.0742 -0.1595
  318MOL0     C42810   8.651   9.315   7.400  0.3030  0.1883  1.0614
  318MOL0     C42811   8.686   9.175   7.437  0.1257  0.6212  0.8017
  318MOL0     N42812   8.825   9.158   7.495 -0.1271 -0.1655 -0.6929
  318MOL0     C42813   8.938   9.172   7.429  0.2445  1.3921 -0.4316
  318MOL0     C42814   9.039   9.146   7.523  0.6050  0.4668 -0.0801
  318MOL0     C42815   9.176   9.187   7.490 -0.7820  0.3108  0.3735
  318MOL0     C42816   9.281   9.116   7.573  0.1518 -0.7304  0.1809
  318MOL0     C42817   9.419   9.193   7.570  0.1626  0.3502 -0.3074
  318MOL0     C42818   9.502   9.137   7.691 -0.8856  0.0312  0.0970
  318MOL0     O42819   9.547   9.002   7.678  0.8567 -0.0941 -1.2229
  318MOL0     C42820   9.651   8.987   7.590  0.4462 -0.0406 -0.9348
  318MOL0     C42821   9.630   8.892   7.484 -0.7921 -1.3272 -0.5134
  318MOL0     C42822   9.720   8.872   7.384  0.7388 -0.7739  0.3030
  318MOL0     C42823   9.851   8.937   7.392 -0.0612 -0.0766 -0.6273
  318MOL0     C42824   9.959   8.912   7.297  0.5318  0.6301  0.0969
  318MOL0     O42825   9.933   8.815   7.210 -0.5094 -0.2353  0.3815
  318MOL0     C42826  10.043   8.759   7.137  0.7292 -0.1807  0.2477
  318MOL0     C42827  10.017   8.687   7.018 -0.7955  0.0781 -0.0535
  318MOL0     C42828  10.129   8.635   6.962 -0.3002  0.3821  0.8031
  318MOL0     C42829  10.264   8.638   7.006 -0.4575 -1.4404 -0.2737
  318MOL0     O42830  10.355   8.575   6.923  0.0293  0.5581  0.3308
  318MOL0     C42831  10.490   8.566   6.985 -0.6063 -0.0119 -0.3288
  318MOL0     C42832  10.582   8.497   6.888 -0.7587  0.1337  0.5720
  318MOL0     C42833  10.557   8.540   6.752 -0.2653 -0.2075 -0.0099
  318MOL0     C42834  10.660   8.478   6.652  0.2007  0.0446 -0.2187
  318MOL0     C42835  10.632   8.488   6.500  0.6873 -0.0424  1.0521
  318MOL0     C42836  10.539   8.361   6.466  1.1202 -1.0224  0.2432
  318MOL0     C42837  10.435   8.383   6.358  0.2426 -0.1845  0.4427
  318MOL0     C42838  10.311   8.289   6.368  0.7958  0.4448 -0.1933
  318MOL0    Cl42839  10.196   8.334   6.245 -0.0216 -0.1862 -0.4138
  318MOL0     C42840  10.288   8.707   7.128  0.1001  1.1061  0.5714
  318MOL0     C42841  10.178   8.770   7.183 -0.1444  0.4722 -0.2798
  318MOL0     O42842  10.046   8.998   7.291 -1.1105  0.3622 -0.1012
  318MOL0     C42843   9.878   9.032   7.496  0.3176  0.0173 -0.1576
  318MOL0     C42844   9.779   9.049   7.592  0.5029 -0.7435  0.4541
  318MOL0     N42845   8.977   9.116   7.641  0.6042  0.3794  0.3888
  318MOL0     N42846   8.850   9.116   7.622 -0.2608  0.0443 -0.3995
  318MOL0     C42847   8.544   9.014   6.503  0.2848 -0.6561 -0.4621
  318MOL0     C42848   8.568   8.943   6.386 -0.2345 -0.1804 -0.1654
  318MOL0     C42849   8.804   8.743   6.081 -0.3843 -0.0021 -0.6798
  318MOL0     C42850   8.751   8.755   5.955 -0.3871 -0.7938  0.1734
  318MOL0     C42851   8.763   8.654   5.861  0.6044  0.8728  0.7629
  318MOL0     C42852   8.832   8.539   5.896  0.0488  0.0010  0.5986
  318MOL0     O42853   8.843   8.427   5.818 -0.7598  0.0092 -1.1627
  318MOL0     C42854   8.734   8.337   5.806 -0.0674 -0.0122  0.2567
  318MOL0     C42855   8.631   8.380   5.706  0.2904 -0.9474  0.8995
  318MOL0     C42856   8.715   8.416   5.577  0.2097  0.0899  0.7472
  318MOL0     C42857   8.618   8.427   5.453 -0.0948 -1.5662 -0.0334
  318MOL0     C42858   8.683   8.503   5.352 -1.0235  0.7982 -0.0086
  318MOL0     C42859   8.739   8.571   5.270  0.1779  0.4582  0.2943
  318MOL0     C42860   8.883   8.528   6.025  0.2386 -0.1815 -0.1443
  318MOL0     C42861   8.873   8.626   6.122  0.0235  0.4622 -0.3092
  318MOL0     C42862   8.927   8.606   6.261  0.3549  0.3211 -0.2266
  318MOL0     H42863   8.781   9.150   6.239  2.0377 -0.9920  1.9653
  318MOL0     H42864   8.708   9.303   6.420 -0.4200 -0.2968 -1.2804
  318MOL0     H42865   8.365   9.159   6.639 -1.5002  1.8574  0.4387
  318MOL0     H42866   8.477   9.082   6.754 -0.6514 -1.3936 -3.3899
  318MOL0     H42867   8.307   9.264   6.852  1.1566 -0.6414  1.4432
  318MOL0     H42868   8.404   9.383   6.750  1.4336  0.3608  0.3262
  318MOL0     H42869   8.576   9.404   6.906 -0.8922  2.1119  1.1121
  318MOL0     H42870   8.565   9.227   6.921  1.2214  0.5492  2.6909
  318MOL0     H42871   8.395   9.415   7.095 -1.8977 -0.0941 -0.4790
  318MOL0     H42872   8.383   9.247   7.086  1.7399 -0.8008 -0.6568
  318MOL0     H42873   8.629   9.221   7.134 -1.5838  0.0756 -2.0276
  318MOL0     H42874   8.659   9.394   7.155  2.4964 -0.2222  3.9088
  318MOL0     H42875   8.503   9.422   7.320  2.9027  0.9701 -0.4887
  318MOL0     H42876   8.466   9.246   7.331 -0.0304  0.3028 -1.5411
  318MOL0     H42877   8.606   9.347   7.495 -1.6341 -1.4072  0.7451
  318MOL0     H42878   8.742   9.368   7.370  0.6613 -0.7903  0.3533
  318MOL0     H42879   8.616   9.143   7.514 -0.5497  0.9888  0.3583
  318MOL0     H42880   8.679   9.106   7.352  3.4062  0.6666  0.3653
  318MOL0     H42881   8.943   9.213   7.329  0.9965 -2.1239 -1.9731
  318MOL0     H42882   9.211   9.182   7.386  2.5469 -0.6066  1.3949
  318MOL0     H42883   9.173   9.294   7.514  2.1965  0.2326  1.6307
  318MOL0     H42884   9.234   9.097   7.670 -3.4989  3.5494 -0.4167
  318MOL0     H42885   9.297   9.021   7.523  1.6102 -1.5003  1.9843
  318MOL0     H42886   9.401   9.298   7.598 -1.5822 -0.2869  1.1534
  318MOL0     H42887   9.464   9.182   7.471 -0.3511 -1.1389 -0.3934
  318MOL0     H42888   9.451   9.142   7.788 -0.9266  0.1738  0.0680
  318MOL0     H42889   9.594   9.194   7.704 -0.3044 -1.0066  0.6224
  318MOL0     H42890   9.532   8.848   7.498 -1.7361  1.1302  1.4590
  318MOL0     H42891   9.692   8.808   7.301  0.8261 -1.1538  0.5631
  318MOL0     H42892   9.921   8.675   6.968 -0.3684 -6.3695 -0.1254
  318MOL0     H42893  10.110   8.607   6.859  0.0490 -0.0514  0.8557
  318MOL0     H42894  10.533   8.665   7.003  2.0865 -1.3091  0.8787
  318MOL0     H42895  10.503   8.517   7.081  0.9957 -1.9433 -1.4583
  318MOL0     H42896  10.685   8.519   6.918 -0.5829 -1.2867  1.0780
  318MOL0     H42897  10.569   8.389   6.893 -2.4090 -0.0313 -3.6071
  318MOL0     H42898  10.456   8.514   6.720 -0.9930  0.0997  1.8795
  318MOL0     H42899  10.569   8.649   6.751  0.1936 -0.2297  1.1077
  318MOL0     H42900  10.671   8.372   6.678 -0.3830 -0.2034 -0.9381
  318MOL0     H42901  10.755   8.531   6.659 -0.9665  2.7092 -2.6539
  318MOL0     H42902  10.719   8.488   6.433  2.7683  2.3188  3.4939
  318MOL0     H42903  10.582   8.579   6.465 -0.6143 -2.0908 -2.9848
  318MOL0     H42904  10.610   8.280   6.447  0.6715 -1.5352  0.7394
  318MOL0     H42905  10.482   8.333   6.555 -1.6476 -0.7678 -1.3337
  318MOL0     H42906  10.479   8.389   6.258  0.3297  1.1557  0.5439
  318MOL0     H42907  10.397   8.485   6.373  0.1395 -0.3580  1.3870
  318MOL0     H42908  10.325   8.183   6.345 -2.4192 -0.7986  2.7177
  318MOL0     H42909  10.266   8.297   6.468 -0.4612 -2.0225 -0.4912
  318MOL0     H42910  10.392   8.711   7.159  1.3860  0.9798 -3.1614
  318MOL0     H42911  10.203   8.828   7.271  1.4048 -1.2685  0.5058
  318MOL0     H42912   9.974   9.082   7.490  0.4973 -0.4848 -2.6587
  318MOL0     H42913   9.790   9.137   7.655 -0.6651  0.1109 -0.4959
  318MOL0     H42914   8.473   8.966   6.569 -0.8779 -1.6208 -2.3255
  318MOL0     H42915   8.526   8.844   6.374 -1.9901  0.3138  1.4241
  318MOL0     H42916   8.699   8.847   5.930 -1.8174 -1.0857  1.9002
  318MOL0     H42917   8.717   8.668   5.763  1.3611  0.2540  0.3117
  318MOL0     H42918   8.679   8.331   5.900 -1.6725  1.5474 -0.5162
  318MOL0     H42919   8.769   8.235   5.791 -0.4033 -0.2216  0.8843
  318MOL0     H42920   8.593   8.476   5.741  0.3074  0.6714 -2.9682
  318MOL0     H42921   8.553   8.305   5.690 -0.3579 -0.4617  1.7558
  318MOL0     H42922   8.784   8.339   5.542  1.6307  2.1544 -1.3139
  318MOL0     H42923   8.767   8.512   5.591 -2.1763  1.6807 -0.6098
  318MOL0     H42924   8.587   8.329   5.417  1.5400 -3.1686  2.6337
  318MOL0     H42925   8.536   8.491   5.489  1.6933  0.8266  0.0216
  318MOL0     H42926   8.805   8.620   5.201  0.9329 -0.7208  0.1473
  318MOL0     H42927   8.933   8.432   6.039  1.6444  0.5177 -0.2362
  318MOL0     H42928   8.987   8.693   6.290  2.0150 -0.3073 -1.6113
  318MOL0     H42929   8.843   8.588   6.330  1.5534 -0.7643  0.9972
  318MOL0     H42930   8.999   8.525   6.262 -1.0817 -1.0164 -0.6886
  319MOL0     O42931  11.179   4.671   4.518 -0.4065 -0.1430 -0.2103
  319MOL0     C42932  11.242   4.582   4.581  0.0231 -0.3405  0.1050
  319MOL0     O42933  11.326   4.604   4.676  0.5726  0.3039  0.5483
  319MOL0     C42934  11.347   4.723   4.732 -0.0885 -0.0080 -0.2494
  319MOL0     C42935  11.420   4.815   4.660  0.4061  0.9142 -0.5568
  319MOL0     C42936  11.460   4.935   4.726  0.5385  0.1880 -0.3118
  319MOL0     C42937  11.419   4.963   4.855 -0.0826 -0.5008 -0.1984
  319MOL0     O42938  11.446   5.086   4.920 -0.1772  0.4189 -0.5652
  319MOL0     C42939  11.579   5.083   4.972  0.7556  0.2186 -1.0912
  319MOL0     C42940  11.563   5.153   5.115  1.2618  0.0459  0.7707
  319MOL0     C42941  11.679   5.150   5.208  0.3037  0.1659  0.9508
  319MOL0     C42942  11.817   5.165   5.136 -0.5731  0.1107 -0.1881
  319MOL0     C42943  11.911   5.246   5.238  0.2815  0.0330  1.2827
  319MOL0     C42944  12.060   5.227   5.219  0.2413 -0.2295  0.6732
  319MOL0     C42945  12.130   5.247   5.352  0.6226 -0.9161  1.7933
  319MOL0     C42946  12.285   5.260   5.342 -0.5261  1.3332  0.4088
  319MOL0     N42947  12.351   5.299   5.469 -0.1396 -0.2306 -0.0318
  319MOL0     C42948  12.457   5.235   5.521  0.1738 -0.0203  0.2184
  319MOL0     C42949  12.469   5.289   5.639  1.5364 -0.1596  0.5004
  319MOL0     C42950  12.544   5.220   5.757  0.1084 -1.0900 -0.2520
  319MOL0     C42951  12.685   5.278   5.775 -0.9619 -0.2607  0.4876
  319MOL0     C42952  12.791   5.203   5.866  0.1213 -0.1752  0.2913
  319MOL0     C42953  12.887   5.127   5.784  0.5846 -0.6946  0.1103
  319MOL0     O42954  12.974   5.230   5.722 -0.7557  0.1426 -0.3518
  319MOL0     C42955  13.085   5.179   5.658  1.1656  0.5450 -0.2433
  319MOL0     C42956  13.190   5.263   5.621 -1.4887  0.2572  0.2490
  319MOL0     C42957  13.313   5.205   5.573  1.1508  0.2510  0.4639
  319MOL0     C42958  13.324   5.068   5.541  0.4580  0.9010  0.6138
  319MOL0     C42959  13.449   5.021   5.477  0.5355 -0.4589  0.4644
  319MOL0     O42960  13.460   4.883   5.478 -0.1176 -0.2362 -1.0665
  319MOL0     C42961  13.570   4.834   5.418 -0.3254  0.4775  0.1852
  319MOL0     C42962  13.705   4.851   5.447  0.4067 -0.6491  0.0474
  319MOL0     C42963  13.809   4.767   5.376  0.5091 -0.3613  0.0347
  319MOL0     C42964  13.772   4.674   5.286  0.1625  0.1606  0.4649
  319MOL0     O42965  13.868   4.595   5.213 -0.7598 -0.1204  0.0545
  319MOL0     C42966  14.007   4.627   5.236 -0.5962 -0.4055 -1.1864
  319MOL0     C42967  14.091   4.510   5.174 -1.1847  0.0689  0.1458
  319MOL0     C42968  14.047   4.364   5.227 -0.3288  0.3455  0.1662
  319MOL0     C42969  14.117   4.252   5.145  0.0442 -0.6058  0.4461
  319MOL0     C42970  14.102   4.114   5.218  0.5196 -0.3141 -0.2397
  319MOL0     C42971  14.148   3.996   5.133 -0.6931  0.9702 -0.7549
  319MOL0     C42972  14.160   3.860   5.214  0.1233 -0.1759 -0.1053
  319MOL0     C42973  14.016   3.802   5.219 -0.1689  0.3333 -0.0850
  319MOL0    Cl42974  13.942   3.771   5.054 -0.0002  0.7371 -0.2944
  319MOL0     C42975  13.643   4.662   5.259 -0.6860 -0.0747  0.7226
  319MOL0     C42976  13.545   4.732   5.325  0.5528  0.3706  1.0646
  319MOL0     O42977  13.537   5.102   5.429 -0.1274 -0.4492 -0.2322
  319MOL0     C42978  13.209   4.986   5.573 -0.5690 -0.6186  0.3898
  319MOL0     C42979  13.093   5.043   5.624 -0.0477  1.0275  0.9294
  319MOL0     N42980  12.375   5.395   5.657 -0.3638 -0.0690 -0.0013
  319MOL0     N42981  12.312   5.398   5.548 -0.4625  0.0787  0.2409
  319MOL0     C42982  11.346   4.866   4.925 -0.0587  0.1830 -0.2786
  319MOL0     C42983  11.304   4.748   4.864  0.1507  0.3625  0.0258
  319MOL0     C42984  11.204   4.446   4.546  0.9315 -0.2896  0.3659
  319MOL0     C42985  11.142   4.369   4.652 -1.0525 -0.8808 -0.0698
  319MOL0     C42986  11.102   4.237   4.630 -0.2951 -0.5525 -0.2943
  319MOL0     C42987  11.111   4.174   4.503 -0.1447  0.0135 -0.3679
  319MOL0     O42988  11.073   4.041   4.500 -0.1694 -0.3657  0.7098
  319MOL0     C42989  10.999   4.001   4.376  0.2461  0.1578  0.0069
  319MOL0     C42990  11.102   3.926   4.285  0.8096 -0.6352 -0.3796
  319MOL0     C42991  11.034   3.906   4.145 -0.5608 -0.1821 -1.0156
  319MOL0     C42992  11.071   3.771   4.098  0.2486  0.9731  0.8729
  319MOL0     C42993  11.026   3.755   3.955  0.5162  0.2435 -0.6115
  319MOL0     C42994  11.004   3.755   3.839 -0.9173 -0.1897 -0.0054
  319MOL0     C42995  11.172   4.249   4.399  0.4219 -0.5755 -0.0934
  319MOL0     C42996  11.213   4.385   4.413 -0.0344  0.4971 -0.7689
  319MOL0     C42997  11.274   4.471   4.297  0.7038  0.0541  0.0398
  319MOL0     H42998  11.449   4.793   4.558 -1.7360 -2.1895 -0.6493
  319MOL0     H42999  11.520   5.013   4.679 -2.4981  2.4294 -0.7332
  319MOL0     H43000  11.618   4.982   4.986 -1.2574 -0.5974 -1.0214
  319MOL0     H43001  11.654   5.126   4.906  0.3898 -1.3580 -2.5957
  319MOL0     H43002  11.469   5.115   5.155  0.7570 -1.3954 -1.5696
  319MOL0     H43003  11.544   5.261   5.109  2.9268  0.3207 -0.2370
  319MOL0     H43004  11.681   5.047   5.246  0.0935 -0.3334 -0.3357
  319MOL0     H43005  11.654   5.216   5.292 -0.5456  1.3089 -0.1795
  319MOL0     H43006  11.856   5.062   5.128 -1.7111 -0.2047 -2.3930
  319MOL0     H43007  11.816   5.214   5.038 -1.0847 -0.0286 -0.2531
  319MOL0     H43008  11.891   5.351   5.216 -0.2495 -0.6979 -2.5594
  319MOL0     H43009  11.881   5.202   5.333 -0.3464  1.5951  1.8392
  319MOL0     H43010  12.076   5.122   5.191 -0.0139  0.0456 -0.5650
  319MOL0     H43011  12.082   5.299   5.140 -1.8732  0.7170  0.8799
  319MOL0     H43012  12.109   5.161   5.417 -0.6981 -1.4384  0.7232
  319MOL0     H43013  12.093   5.337   5.401  0.7093 -0.6093  1.2914
  319MOL0     H43014  12.324   5.168   5.297 -1.5352  1.2772 -0.3838
  319MOL0     H43015  12.304   5.342   5.271 -0.7853 -0.2423 -1.5709
  319MOL0     H43016  12.502   5.140   5.495 -1.1334 -0.6200  0.0593
  319MOL0     H43017  12.482   5.253   5.840  1.1309  1.4877 -0.4382
  319MOL0     H43018  12.554   5.112   5.737  0.9064 -0.7912 -1.6108
  319MOL0     H43019  12.716   5.301   5.672 -0.9361  0.5647  0.6720
  319MOL0     H43020  12.667   5.376   5.820  0.4068  0.0570  0.3679
  319MOL0     H43021  12.747   5.129   5.933 -3.1486  1.6799  0.3917
  319MOL0     H43022  12.847   5.275   5.926  0.6912  0.4798 -0.9635
  319MOL0     H43023  12.836   5.076   5.701 -2.5597  0.4114  1.2371
  319MOL0     H43024  12.937   5.052   5.846 -1.6522 -0.9699  1.6655
  319MOL0     H43025  13.172   5.361   5.666 -1.3450 -0.5187  2.0731
  319MOL0     H43026  13.402   5.268   5.572  1.4516 -0.1109 -1.8661
  319MOL0     H43027  13.725   4.927   5.522 -1.3263 -0.2163  0.1088
  319MOL0     H43028  13.906   4.808   5.401  0.0760  2.3362 -2.2328
  319MOL0     H43029  14.020   4.719   5.178 -1.1002 -0.7092 -1.7933
  319MOL0     H43030  14.045   4.644   5.337  0.5629 -2.8495 -1.1562
  319MOL0     H43031  14.081   4.523   5.066 -2.1964 -0.2939  0.1834
  319MOL0     H43032  14.199   4.520   5.188 -0.3725 -1.1287 -3.9714
  319MOL0     H43033  14.065   4.352   5.334 -1.7951 -1.9014  0.2204
  319MOL0     H43034  13.941   4.342   5.212  0.6469 -4.4254 -1.8758
  319MOL0     H43035  14.226   4.263   5.143  0.5043 -4.1208 -1.0065
  319MOL0     H43036  14.089   4.253   5.039  0.0030  3.4418  0.3493
  319MOL0     H43037  13.998   4.083   5.235 -0.0594  1.1732 -0.9382
  319MOL0     H43038  14.163   4.125   5.308  0.9463 -2.5792 -0.1740
  319MOL0     H43039  14.088   3.995   5.042 -2.0540 -3.4279 -0.0507
  319MOL0     H43040  14.245   4.027   5.093 -0.6019  0.9758 -0.5316
  319MOL0     H43041  14.202   3.873   5.314  0.7770 -1.0440 -0.2526
  319MOL0     H43042  14.224   3.791   5.158 -0.3405 -0.1726 -0.6535
  319MOL0     H43043  14.025   3.710   5.277  1.4716 -1.7308 -3.2861
  319MOL0     H43044  13.947   3.870   5.270  0.6632 -1.0484  3.1045
  319MOL0     H43045  13.611   4.587   5.187  3.0831  1.5436 -2.9962
  319MOL0     H43046  13.443   4.696   5.310  1.0004 -0.5761  0.1947
  319MOL0     H43047  13.196   4.881   5.547  1.4318 -0.8255 -0.0000
  319MOL0     H43048  13.013   4.971   5.640  0.9802 -0.2377  0.5456
  319MOL0     H43049  11.325   4.902   5.025  2.3343  1.9332 -0.3195
  319MOL0     H43050  11.261   4.669   4.925 -0.0764 -1.7755 -2.7125
  319MOL0     H43051  11.139   4.418   4.749  2.1849 -0.1172 -0.2268
  319MOL0     H43052  11.062   4.183   4.716  2.9404 -0.9293  1.1235
  319MOL0     H43053  10.950   4.083   4.325 -1.8405  0.2268  1.9663
  319MOL0     H43054  10.912   3.939   4.398 -1.7391  2.5679 -0.7378
  319MOL0     H43055  11.133   3.834   4.334  0.7064 -1.3576 -1.6089
  319MOL0     H43056  11.193   3.985   4.272 -0.4660  1.4199 -0.4119
  319MOL0     H43057  11.075   3.971   4.067 -2.0409 -0.0781 -1.7489
  319MOL0     H43058  10.926   3.927   4.149 -1.3667 -3.6301 -1.4702
  319MOL0     H43059  11.178   3.750   4.100 -0.0742 -1.3838 -1.1631
  319MOL0     H43060  11.029   3.685   4.153  1.0652  0.4751  0.7290
  319MOL0     H43061  10.976   3.766   3.736 -2.3431 -1.3019  0.2398
  319MOL0     H43062  11.182   4.202   4.301 -1.3801 -0.9171 -0.1422
  319MOL0     H43063  11.213   4.562   4.282 -0.3713 -0.3343  1.8051
  319MOL0     H43064  11.374   4.506   4.323  1.4198 -1.0185 -1.1782
  319MOL0     H43065  11.286   4.419   4.201  0.0954 -0.1157  0.0492
  320MOL0     O43066   7.132   3.969   9.799 -0.7183 -0.2700 -0.0497
  320MOL0     C43067   7.075   4.047   9.878 -1.0025 -0.3974 -0.1004
  320MOL0     O43068   6.964   4.118   9.857 -0.4621 -0.9381  0.3681
  320MOL0     C43069   6.925   4.129   9.728  0.1929 -0.5124  0.2461
  320MOL0     C43070   6.784   4.113   9.702 -0.6504 -0.1438 -0.0387
  320MOL0     C43071   6.729   4.129   9.576  0.2401  0.1880  0.1686
  320MOL0     C43072   6.819   4.150   9.466  1.0645  0.4238 -0.1673
  320MOL0     O43073   6.751   4.174   9.350  0.4184 -0.0888  0.1229
  320MOL0     C43074   6.836   4.191   9.231  0.3112  0.5579  0.6151
  320MOL0     C43075   6.742   4.230   9.123  0.4364 -0.1420 -0.2712
  320MOL0     C43076   6.734   4.383   9.128 -0.8761  0.2815  0.2932
  320MOL0     C43077   6.648   4.430   9.023  0.7959 -0.4719 -0.2116
  320MOL0     C43078   6.720   4.448   8.889 -0.3559 -0.1019  0.5267
  320MOL0     C43079   6.627   4.500   8.779  0.3719 -0.2407  0.1502
  320MOL0     C43080   6.697   4.524   8.644 -0.8429 -0.6833  1.2602
  320MOL0     C43081   6.599   4.516   8.527  0.3766  0.1282  0.7726
  320MOL0     N43082   6.670   4.556   8.407  0.3678 -0.2712  0.4136
  320MOL0     C43083   6.763   4.481   8.335  0.5788  0.8449  0.1659
  320MOL0     C43084   6.796   4.553   8.232  1.7949  0.3512 -0.9225
  320MOL0     C43085   6.878   4.504   8.115 -0.5210  0.7899 -0.4059
  320MOL0     C43086   6.992   4.589   8.062 -0.4653  0.8975 -0.1868
  320MOL0     C43087   7.125   4.577   8.140 -0.1278 -0.2328  0.2210
  320MOL0     C43088   7.244   4.621   8.050 -0.2215  0.8515 -0.2854
  320MOL0     O43089   7.255   4.544   7.930  0.4599  1.1114 -0.3428
  320MOL0     C43090   7.352   4.567   7.834  0.9500  0.7821 -0.2854
  320MOL0     C43091   7.331   4.662   7.730 -0.2533  1.0138  0.1813
  320MOL0     C43092   7.432   4.663   7.629  0.1337 -0.4561 -0.6089
  320MOL0     C43093   7.547   4.577   7.631 -0.5744 -0.6871  0.8211
  320MOL0     C43094   7.649   4.578   7.525  0.0753 -0.1082  0.1802
  320MOL0     O43095   7.665   4.695   7.458 -0.0050  0.0402  0.0062
  320MOL0     C43096   7.752   4.695   7.354 -0.7660  0.5624 -0.8077
  320MOL0     C43097   7.710   4.693   7.226  0.1458 -0.5979 -0.7423
  320MOL0     C43098   7.802   4.683   7.118 -0.3076  0.5419 -0.5232
  320MOL0     C43099   7.940   4.713   7.151  0.9790 -0.3673  0.3468
  320MOL0     O43100   8.028   4.725   7.050  0.1447 -0.3086  0.0580
  320MOL0     C43101   8.160   4.684   7.074 -0.1686 -0.5553 -1.2996
  320MOL0     C43102   8.221   4.679   6.933  0.0354 -0.4628  0.5223
  320MOL0     C43103   8.378   4.691   6.940  0.6693 -0.0661  0.1845
  320MOL0     C43104   8.453   4.565   6.979  0.7429 -0.2898  0.4150
  320MOL0     C43105   8.597   4.597   7.020  0.2833  0.7993  0.4807
  320MOL0     C43106   8.686   4.479   7.045 -0.1798  0.1115  0.7372
  320MOL0     C43107   8.645   4.393   7.154 -0.8842  0.3017  0.0328
  320MOL0     C43108   8.711   4.431   7.285 -0.3290  0.2953 -0.3538
  320MOL0    Cl43109   8.613   4.344   7.400  0.1284  0.1274 -0.1066
  320MOL0     C43110   7.980   4.729   7.289 -0.0796 -0.2699  0.7569
  320MOL0     C43111   7.888   4.714   7.391 -1.3169  0.4738 -0.8025
  320MOL0     O43112   7.730   4.482   7.526 -0.6884 -0.0129  1.0484
  320MOL0     C43113   7.560   4.490   7.736  0.0210  0.0721 -1.4661
  320MOL0     C43114   7.467   4.489   7.840  0.3526 -0.1989  0.0730
  320MOL0     N43115   6.713   4.663   8.229 -0.5830 -0.5997 -0.5536
  320MOL0     N43116   6.641   4.659   8.336  0.1354  0.1125  0.0607
  320MOL0     C43117   6.956   4.144   9.490  0.0716  0.6791 -0.2383
  320MOL0     C43118   7.005   4.146   9.620  0.7278  0.3002  0.0996
  320MOL0     C43119   7.147   4.071  10.003 -0.3493  0.1544 -0.5647
  320MOL0     C43120   7.291   4.088  10.001 -0.9411  0.0746 -0.8303
  320MOL0     C43121   7.355   4.134  10.117 -1.0047 -0.4800 -0.8136
  320MOL0     C43122   7.283   4.162  10.231 -0.5716  0.0414 -0.8974
  320MOL0     O43123   7.329   4.214  10.355 -0.6120  1.0772  0.5014
  320MOL0     C43124   7.468   4.253  10.366 -0.0395 -0.6306  0.0555
  320MOL0     C43125   7.485   4.392  10.300 -0.3823  0.2940  1.2941
  320MOL0     C43126   7.380   4.491  10.352  0.5018 -0.4194 -0.6636
  320MOL0     C43127   7.421   4.640  10.336  0.5792 -0.3726  0.0414
  320MOL0     C43128   7.297   4.723  10.344 -0.0264  0.1158 -0.4173
  320MOL0     C43129   7.191   4.786  10.366  0.1475 -0.1782 -0.0276
  320MOL0     C43130   7.148   4.132  10.234 -0.1364 -0.1861  0.4656
  320MOL0     C43131   7.079   4.090  10.122 -0.6792 -0.2268  0.2813
  320MOL0     C43132   6.930   4.076  10.139 -0.4815 -0.6377  0.9265
  320MOL0     H43133   6.717   4.092   9.785 -1.5593  0.5468 -0.5776
  320MOL0     H43134   6.621   4.132   9.561  0.4338  2.5194 -1.3381
  320MOL0     H43135   6.909   4.272   9.240  0.3477  0.5047  0.7996
  320MOL0     H43136   6.886   4.102   9.193  0.8121  1.4650 -0.9477
  320MOL0     H43137   6.634   4.210   9.135  0.0134  1.0403 -1.8888
  320MOL0     H43138   6.771   4.210   9.020 -1.7118  1.7026 -1.3293
  320MOL0     H43139   6.830   4.429   9.106  0.0434 -1.6065  0.1027
  320MOL0     H43140   6.704   4.418   9.227  3.3459 -2.3267  2.8215
  320MOL0     H43141   6.561   4.366   9.007  0.0322  0.5752 -0.3218
  320MOL0     H43142   6.604   4.527   9.050 -1.7136 -0.7770 -2.7017
  320MOL0     H43143   6.802   4.520   8.900  1.0103 -0.9278 -2.7542
  320MOL0     H43144   6.759   4.351   8.856  1.9071  1.5265 -2.0439
  320MOL0     H43145   6.543   4.430   8.770 -1.6736  2.0532  0.2164
  320MOL0     H43146   6.591   4.601   8.804  0.0730 -0.7559  1.9276
  320MOL0     H43147   6.778   4.452   8.629  0.6969  1.6617 -3.3276
  320MOL0     H43148   6.745   4.622   8.634  3.7060 -2.9320 -2.5746
  320MOL0     H43149   6.558   4.415   8.519  2.3065 -0.5817 -1.0095
  320MOL0     H43150   6.524   4.590   8.556  2.5345  1.6160  2.9899
  320MOL0     H43151   6.807   4.386   8.364  1.7415  2.0073  2.5788
  320MOL0     H43152   6.919   4.410   8.154  0.0727  1.7690  1.4523
  320MOL0     H43153   6.799   4.489   8.040 -0.9171 -3.9199  0.6192
  320MOL0     H43154   7.001   4.560   7.957 -0.5025 -0.3249  0.1289
  320MOL0     H43155   6.967   4.695   8.054  4.1997  2.5094  2.5112
  320MOL0     H43156   7.144   4.480   8.186 -2.4858 -0.3593  1.0255
  320MOL0     H43157   7.127   4.659   8.212  0.6659 -1.7014  1.9545
  320MOL0     H43158   7.334   4.604   8.110 -0.9322  2.3884  1.3095
  320MOL0     H43159   7.234   4.728   8.030 -0.8467  0.7911 -0.3228
  320MOL0     H43160   7.246   4.729   7.719  2.6502  4.7575 -2.2746
  320MOL0     H43161   7.432   4.738   7.551  1.8688  0.5415  0.2898
  320MOL0     H43162   7.603   4.680   7.211  0.2329 -1.9375 -0.3832
  320MOL0     H43163   7.778   4.684   7.012  3.1057  0.6015 -1.4153
  320MOL0     H43164   8.201   4.761   7.139  1.5691 -0.6357 -2.2369
  320MOL0     H43165   8.170   4.583   7.116  1.2767  0.2551  0.4273
  320MOL0     H43166   8.194   4.583   6.886  0.2761 -0.9764  1.4117
  320MOL0     H43167   8.177   4.763   6.879 -4.4163 -0.8775  3.0386
  320MOL0     H43168   8.408   4.721   6.839 -1.9773 -0.2487 -0.7556
  320MOL0     H43169   8.400   4.764   7.018 -0.6092 -0.7434  1.2222
  320MOL0     H43170   8.447   4.502   6.890 -3.8707 -0.3093  0.5202
  320MOL0     H43171   8.410   4.539   7.076 -2.0458  1.8802 -0.1011
  320MOL0     H43172   8.580   4.662   7.107 -0.8331  1.1700  0.0015
  320MOL0     H43173   8.648   4.658   6.945  0.7812  0.4921  0.5637
  320MOL0     H43174   8.680   4.416   6.956 -0.5668 -0.6606  1.2968
  320MOL0     H43175   8.788   4.516   7.061 -0.3723  1.1485 -0.3370
  320MOL0     H43176   8.681   4.293   7.128  2.6594  1.4022  0.1520
  320MOL0     H43177   8.537   4.388   7.173 -1.1538 -2.9494 -1.5955
  320MOL0     H43178   8.814   4.395   7.297 -0.5618 -1.1379 -2.1873
  320MOL0     H43179   8.716   4.540   7.295 -0.7350  0.3121 -0.3184
  320MOL0     H43180   8.087   4.731   7.308 -0.0384  0.0301  0.4917
  320MOL0     H43181   7.907   4.717   7.498  0.1614  0.0396 -1.0306
  320MOL0     H43182   7.638   4.419   7.761 -1.3835 -2.1238 -3.0145
  320MOL0     H43183   7.469   4.433   7.934  0.8634 -0.0023  0.1829
  320MOL0     H43184   7.026   4.159   9.408  3.1356  1.1421  2.2449
  320MOL0     H43185   7.112   4.149   9.643  0.5174  2.4783  1.1076
  320MOL0     H43186   7.338   4.072   9.904  2.4027  0.9903  0.4892
  320MOL0     H43187   7.460   4.163  10.116 -0.7224 -1.4909 -0.9492
  320MOL0     H43188   7.539   4.181  10.324 -0.7392 -0.6168 -1.2059
  320MOL0     H43189   7.488   4.257  10.473  1.2106  3.7232 -0.1182
  320MOL0     H43190   7.490   4.378  10.191 -1.1590  3.0133  0.8472
  320MOL0     H43191   7.590   4.421  10.313  0.8365 -1.2636 -3.2219
  320MOL0     H43192   7.364   4.474  10.459 -2.5525  0.7531 -0.8305
  320MOL0     H43193   7.283   4.479  10.304 -1.2202 -0.3779  2.5410
  320MOL0     H43194   7.490   4.665  10.416 -1.2350  1.1741  1.2082
  320MOL0     H43195   7.462   4.667  10.238  0.8895 -2.0807 -0.3267
  320MOL0     H43196   7.096   4.834  10.375  0.6198  1.5043 -2.7061
  320MOL0     H43197   7.093   4.158  10.324 -2.2789  2.1301 -1.3844
  320MOL0     H43198   6.919   4.056  10.246  2.3490 -0.9460  1.2376
  320MOL0     H43199   6.871   4.157  10.096  1.8153 -1.6931 -5.2545
  320MOL0     H43200   6.893   3.985  10.089 -1.7292 -0.9391  2.2948
  321MOL0     O43201   1.747   5.479  10.498  0.2399  0.2289  0.1808
  321MOL0     C43202   1.632   5.520  10.498  0.6763  0.0774  0.7074
  321MOL0     O43203   1.519   5.451  10.446  0.2593  0.4387 -0.3678
  321MOL0     C43204   1.528   5.345  10.376 -0.2304  1.0471 -0.4611
  321MOL0     C43205   1.644   5.293  10.322  0.0229  0.5709 -0.0850
  321MOL0     C43206   1.645   5.186  10.229 -0.1840 -0.6825  1.0920
  321MOL0     C43207   1.531   5.118  10.199 -0.9009  0.0615 -0.4083
  321MOL0     O43208   1.548   5.000  10.129 -0.0386 -0.1571  0.4519
  321MOL0     C43209   1.429   4.928  10.104  0.2138  0.1476  1.4425
  321MOL0     C43210   1.466   4.798  10.014  0.2785 -0.2415 -0.9375
  321MOL0     C43211   1.504   4.680  10.104 -0.1339  0.2752  0.1610
  321MOL0     C43212   1.542   4.553  10.021  0.2183 -0.5473 -0.9735
  321MOL0     C43213   1.539   4.429  10.111 -0.0967 -0.4181 -0.0165
  321MOL0     C43214   1.396   4.374  10.137 -0.6451  0.4498  0.3311
  321MOL0     C43215   1.325   4.314  10.008 -0.9185 -0.0764 -0.0308
  321MOL0     C43216   1.181   4.277  10.037 -0.1316  0.5206  0.0319
  321MOL0     N43217   1.170   4.177  10.140 -0.9581 -0.1207 -0.8477
  321MOL0     C43218   1.124   4.213  10.266 -0.1149  0.2927 -0.9514
  321MOL0     C43219   1.126   4.094  10.338  0.0902 -1.1247  0.3221
  321MOL0     C43220   1.077   4.082  10.482  0.0353 -0.1346 -0.3544
  321MOL0     C43221   1.117   3.948  10.552 -0.1399 -0.5086  0.3988
  321MOL0     C43222   1.032   3.927  10.687 -0.2822  0.7636  0.2011
  321MOL0     C43223   1.058   4.008  10.808  0.2696  0.0280 -0.2158
  321MOL0     O43224   1.028   4.144  10.786  1.5608  0.6324 -0.4052
  321MOL0     C43225   0.990   4.217  10.900 -0.0015  1.3679 -0.1764
  321MOL0     C43226   1.079   4.307  10.952  0.6790  0.2070  0.2199
  321MOL0     C43227   1.033   4.395  11.048 -0.4739  0.2252 -0.6169
  321MOL0     C43228   0.899   4.392  11.094 -0.4590 -0.1057 -0.6984
  321MOL0     C43229   0.862   4.495  11.192  0.3190 -0.2703  0.3623
  321MOL0     O43230   0.750   4.474  11.254  0.1797 -0.1559  0.0564
  321MOL0     C43231   0.721   4.522  11.375 -0.7342  0.2956  0.0555
  321MOL0     C43232   0.818   4.556  11.468  0.2323 -0.1661  0.9244
  321MOL0     C43233   0.782   4.627  11.584  0.1267 -0.6338  0.1399
  321MOL0     C43234   0.653   4.651  11.618  0.1291 -0.3053 -0.7470
  321MOL0     O43235   0.605   4.695  11.743  0.1476  1.3306  0.8533
  321MOL0     C43236   0.692   4.736  11.841 -0.4565 -0.0989  0.0386
  321MOL0     C43237   0.610   4.794  11.959 -0.1763  0.5630 -0.3338
  321MOL0     C43238   0.717   4.869  12.042 -0.9383 -0.2285  0.5995
  321MOL0     C43239   0.781   4.782  12.152 -1.1198 -1.2017  1.3143
  321MOL0     C43240   0.862   4.867  12.251 -0.3512  0.0320 -0.4030
  321MOL0     C43241   0.947   4.779  12.336 -0.0269 -0.4316 -0.0474
  321MOL0     C43242   1.037   4.879  12.416 -0.0191 -0.7164  0.5244
  321MOL0     C43243   1.116   4.831  12.531 -0.1591 -0.4285  0.3873
  321MOL0    Cl43244   0.986   4.772  12.646 -0.3816  0.4150  0.3075
  321MOL0     C43245   0.553   4.608  11.531  0.3355 -1.1081  0.3533
  321MOL0     C43246   0.592   4.555  11.406 -0.3272 -0.2091  0.4272
  321MOL0     O43247   0.937   4.587  11.212  0.9865 -0.4957 -0.1368
  321MOL0     C43248   0.812   4.297  11.042 -0.2922  0.0731  0.5337
  321MOL0     C43249   0.859   4.207  10.944 -0.1923 -0.0546  0.4149
  321MOL0     N43250   1.184   4.001  10.252 -0.2522  0.4253  0.0268
  321MOL0     N43251   1.214   4.051  10.138 -0.0245  0.8084 -0.4931
  321MOL0     C43252   1.409   5.155  10.261  0.2246 -1.0881  0.0342
  321MOL0     C43253   1.411   5.272  10.340 -0.1343 -0.0268 -0.0712
  321MOL0     C43254   1.593   5.645  10.580 -1.3877  0.8468  0.2856
  321MOL0     C43255   1.477   5.647  10.651 -0.3947  0.4381  0.1815
  321MOL0     C43256   1.435   5.767  10.701  0.1675  0.1941 -0.5234
  321MOL0     C43257   1.521   5.868  10.731  0.3831  0.2998  0.0061
  321MOL0     O43258   1.494   5.977  10.804 -0.2118 -0.0752  0.0208
  321MOL0     C43259   1.350   6.006  10.812 -0.3574  0.5698  0.2877
  321MOL0     C43260   1.340   6.130  10.899 -0.0384  0.8689  0.1195
  321MOL0     C43261   1.371   6.257  10.819 -0.0006 -0.0633 -0.6815
  321MOL0     C43262   1.233   6.319  10.765 -0.0339  0.4380 -0.7602
  321MOL0     C43263   1.179   6.244  10.645 -0.5433 -0.2118 -0.9890
  321MOL0     C43264   1.141   6.170  10.560  0.4106  0.6824 -0.6286
  321MOL0     C43265   1.652   5.861  10.678  0.4339 -0.2120  0.4493
  321MOL0     C43266   1.693   5.748  10.600  0.0934 -0.4793  0.6660
  321MOL0     C43267   1.832   5.764  10.529  0.8636  1.0330 -0.6171
  321MOL0     H43268   1.751   5.312  10.321  1.6205 -5.8437  1.2096
  321MOL0     H43269   1.746   5.157  10.201  0.4820  1.1965  1.4356
  321MOL0     H43270   1.371   4.899  10.191 -3.6941 -0.2382 -1.0465
  321MOL0     H43271   1.360   4.993  10.049 -0.9966 -1.1362  1.3941
  321MOL0     H43272   1.546   4.825   9.944  3.2331  2.7363  3.1238
  321MOL0     H43273   1.371   4.760   9.974 -0.5881  1.4413 -0.5733
  321MOL0     H43274   1.419   4.654  10.167 -1.9183 -1.5975 -2.7691
  321MOL0     H43275   1.595   4.700  10.163 -0.2728  3.5682 -0.5248
  321MOL0     H43276   1.481   4.528   9.933  2.5179  1.0240 -3.1848
  321MOL0     H43277   1.644   4.561   9.981  0.4620  0.7824 -0.1668
  321MOL0     H43278   1.606   4.354  10.069 -0.0252 -0.0046 -0.6643
  321MOL0     H43279   1.575   4.445  10.213 -2.8404  0.6914  0.8906
  321MOL0     H43280   1.409   4.286  10.202  2.2602 -1.7439 -2.8278
  321MOL0     H43281   1.335   4.448  10.190 -2.0040 -1.2852  1.3052
  321MOL0     H43282   1.394   4.236   9.975  2.0331  2.2847  0.1572
  321MOL0     H43283   1.333   4.393   9.932 -2.5507  0.7745  0.6105
  321MOL0     H43284   1.114   4.361  10.058  2.4103  2.1999  1.9692
  321MOL0     H43285   1.140   4.221   9.953 -0.4664  1.2482 -0.2952
  321MOL0     H43286   1.084   4.306  10.306  0.2534 -0.3623  1.0494
  321MOL0     H43287   1.109   4.163  10.548 -2.9776 -0.7929  2.1709
  321MOL0     H43288   0.968   4.084  10.476  0.0635 -0.4319 -0.9683
  321MOL0     H43289   1.101   3.858  10.492  0.6922  0.3680 -1.1980
  321MOL0     H43290   1.223   3.950  10.577 -0.1096 -1.4350  0.3901
  321MOL0     H43291   1.039   3.821  10.714 -4.9175  0.3129  0.3893
  321MOL0     H43292   0.926   3.936  10.662 -1.2044  2.0372  3.9172
  321MOL0     H43293   1.163   3.998  10.837  1.1391  0.5641 -2.9372
  321MOL0     H43294   1.012   3.975  10.902  0.1079 -2.8206 -1.2172
  321MOL0     H43295   1.168   4.316  10.890  0.5593 -0.3664 -0.0401
  321MOL0     H43296   1.092   4.476  11.089 -0.4618 -0.3238  0.4912
  321MOL0     H43297   0.921   4.525  11.459 -0.3080 -1.6407 -0.8411
  321MOL0     H43298   0.851   4.660  11.662 -0.3582  0.4651  0.1199
  321MOL0     H43299   0.747   4.651  11.882 -0.0454 -1.1119 -2.4066
  321MOL0     H43300   0.762   4.811  11.803 -1.8300 -0.6668 -4.1561
  321MOL0     H43301   0.531   4.858  11.919 -2.4717 -2.0494 -0.2943
  321MOL0     H43302   0.562   4.715  12.017  0.5691 -0.0679 -0.5576
  321MOL0     H43303   0.789   4.910  11.970  1.0560 -2.4166  1.1987
  321MOL0     H43304   0.689   4.956  12.101  1.4758  0.1801  1.2630
  321MOL0     H43305   0.845   4.705  12.108  2.2393  0.5374  2.8299
  321MOL0     H43306   0.706   4.720  12.203 -1.6180 -2.2176 -0.5514
  321MOL0     H43307   0.787   4.920  12.312 -1.9587  0.1704 -2.3950
  321MOL0     H43308   0.926   4.944  12.207  1.9248 -1.6205 -0.1830
  321MOL0     H43309   0.881   4.727  12.406 -0.1499  1.6059  1.4674
  321MOL0     H43310   1.010   4.720  12.270 -0.7499  2.0384 -3.1798
  321MOL0     H43311   0.970   4.957  12.455  0.8540 -1.0903  2.9627
  321MOL0     H43312   1.107   4.920  12.343 -0.7001 -0.2212  0.1325
  321MOL0     H43313   1.176   4.742  12.510  3.4131  1.9483 -0.2291
  321MOL0     H43314   1.179   4.911  12.571 -1.7337  0.9486  0.2240
  321MOL0     H43315   0.452   4.632  11.562  1.2827  0.9999  2.1124
  321MOL0     H43316   0.526   4.527  11.325  2.2091  0.6882 -2.1111
  321MOL0     H43317   0.708   4.301  11.071 -0.0296  0.9962  1.3928
  321MOL0     H43318   0.804   4.129  10.892  0.3042 -0.0177 -0.1750
  321MOL0     H43319   1.314   5.104  10.251  0.5929 -1.5132 -1.8253
  321MOL0     H43320   1.321   5.299  10.395  0.6547  1.3097  0.5995
  321MOL0     H43321   1.405   5.565  10.648 -1.0006  1.0022 -1.5745
  321MOL0     H43322   1.336   5.760  10.745 -0.5800 -3.0060 -2.3541
  321MOL0     H43323   1.288   5.927  10.855  0.4403  0.1465  0.6754
  321MOL0     H43324   1.310   6.013  10.710 -2.4490 -1.3305  0.9069
  321MOL0     H43325   1.411   6.112  10.980  2.0886 -0.6686 -1.9130
  321MOL0     H43326   1.240   6.136  10.941 -1.1543  1.5253 -2.4001
  321MOL0     H43327   1.446   6.238  10.743  1.8513  0.6400  0.8998
  321MOL0     H43328   1.422   6.324  10.888  1.6620  0.3907 -2.2877
  321MOL0     H43329   1.154   6.315  10.841 -0.3690  1.7533 -1.0181
  321MOL0     H43330   1.238   6.426  10.742 -1.2013  0.5578 -0.5489
  321MOL0     H43331   1.089   6.112  10.486 -3.2182  0.4071  1.8537
  321MOL0     H43332   1.729   5.935  10.697  1.8751 -0.2662 -3.9865
  321MOL0     H43333   1.840   5.684  10.455  0.3712 -3.1152  3.3510
  321MOL0     H43334   1.852   5.868  10.503 -0.9639  1.4735 -0.3566
  321MOL0     H43335   1.909   5.739  10.604  0.9965 -0.9430 -1.3577
  322MOL0     O43336   1.824   8.116   5.112 -0.5223 -0.3905  0.3951
  322MOL0     C43337   1.803   8.088   5.230 -0.3454  0.3504 -0.3684
  322MOL0     O43338   1.871   8.141   5.330  0.7406  0.2477 -0.6401
  322MOL0     C43339   1.969   8.232   5.303  0.6576  0.2784 -0.4317
  322MOL0     C43340   2.103   8.195   5.314 -0.0871 -0.3615 -0.0650
  322MOL0     C43341   2.207   8.283   5.298 -0.3360  0.2991  0.1037
  322MOL0     C43342   2.178   8.414   5.272 -1.3570 -0.1694  0.1502
  322MOL0     O43343   2.273   8.510   5.241 -0.7465 -0.7608 -0.0383
  322MOL0     C43344   2.395   8.464   5.191  0.0259  0.6196  0.2809
  322MOL0     C43345   2.490   8.431   5.308  0.4418  0.6248  1.2585
  322MOL0     C43346   2.587   8.538   5.347 -0.8090 -0.0883  0.3675
  322MOL0     C43347   2.694   8.496   5.451  0.6123  0.0014  0.6359
  322MOL0     C43348   2.788   8.602   5.501 -0.0685  1.1116  0.2199
  322MOL0     C43349   2.895   8.644   5.404 -0.2746 -0.9677 -0.5016
  322MOL0     C43350   2.976   8.755   5.477 -0.6745  0.1024  0.0821
  322MOL0     C43351   2.912   8.885   5.531 -0.9890  0.3503 -0.3275
  322MOL0     N43352   2.997   9.000   5.538  0.0752  0.4592 -0.7625
  322MOL0     C43353   3.123   9.012   5.591  0.3734  0.8972  0.3598
  322MOL0     C43354   3.155   9.138   5.588  0.0870 -0.2501  0.0405
  322MOL0     C43355   3.289   9.195   5.651  0.6098 -1.4305  0.3980
  322MOL0     C43356   3.275   9.323   5.723  0.8299 -0.2595 -0.7295
  322MOL0     C43357   3.156   9.344   5.819  0.6418  0.3447  0.2080
  322MOL0     C43358   3.218   9.440   5.925  0.7761  0.3486 -0.0436
  322MOL0     O43359   3.319   9.399   6.014 -0.0722  0.0002 -0.0813
  322MOL0     C43360   3.283   9.297   6.100 -0.3808  0.0043 -0.1893
  322MOL0     C43361   3.157   9.274   6.163 -1.2387 -0.3072  0.0855
  322MOL0     C43362   3.143   9.157   6.244 -0.7010 -0.5504 -0.6581
  322MOL0     C43363   3.248   9.058   6.250 -0.1873  0.2320  0.1562
  322MOL0     C43364   3.223   8.936   6.322 -0.2614  0.4618 -0.3697
  322MOL0     O43365   3.325   8.837   6.311 -1.3192 -0.9721 -0.3114
  322MOL0     C43366   3.343   8.745   6.421 -0.1311 -0.3950  0.3441
  322MOL0     C43367   3.364   8.618   6.379  0.6423  0.0462 -0.2572
  322MOL0     C43368   3.379   8.518   6.472  0.0289  0.2546  0.0276
  322MOL0     C43369   3.366   8.540   6.614  0.2208  0.0704 -0.2032
  322MOL0     O43370   3.367   8.443   6.719 -0.1235  0.6020  1.2360
  322MOL0     C43371   3.421   8.311   6.683  0.2257 -0.0269  0.6702
  322MOL0     C43372   3.427   8.219   6.810  0.4459  0.4235 -1.1646
  322MOL0     C43373   3.295   8.143   6.838  0.0835 -0.6375 -0.8205
  322MOL0     C43374   3.290   8.019   6.747  0.5301 -0.0976  0.6451
  322MOL0     C43375   3.189   7.915   6.778 -0.2503 -0.4278 -0.0097
  322MOL0     C43376   3.181   7.806   6.669  0.3514  0.3120 -0.1939
  322MOL0     C43377   3.073   7.699   6.715 -0.7551 -0.1767 -0.3398
  322MOL0     C43378   3.077   7.567   6.637 -0.1437 -0.2649 -0.4663
  322MOL0    Cl43379   3.232   7.481   6.694 -0.7509 -0.0561  0.1980
  322MOL0     C43380   3.343   8.672   6.656  0.1141  0.2071 -0.4935
  322MOL0     C43381   3.336   8.772   6.559 -0.2718 -0.4384 -0.0318
  322MOL0     O43382   3.119   8.929   6.391  0.2886  0.1057 -1.0365
  322MOL0     C43383   3.370   9.083   6.185  1.2177  0.8790  0.2714
  322MOL0     C43384   3.380   9.196   6.115  0.2557 -0.1459  0.2680
  322MOL0     N43385   3.044   9.203   5.535 -0.1401 -0.2941  1.1012
  322MOL0     N43386   2.958   9.125   5.494  0.4483 -0.0115  0.0086
  322MOL0     C43387   2.048   8.458   5.256  0.4716 -0.8614  0.9957
  322MOL0     C43388   1.939   8.373   5.270 -0.6852 -0.2796  0.4163
  322MOL0     C43389   1.693   7.997   5.253  0.3319 -0.3598  0.0908
  322MOL0     C43390   1.631   8.008   5.377 -0.0439 -0.5124  0.1650
  322MOL0     C43391   1.535   7.923   5.420 -0.1198  0.0948 -0.1489
  322MOL0     C43392   1.496   7.819   5.331  0.1472 -0.4066  0.4998
  322MOL0     O43393   1.404   7.730   5.366  0.5680  1.2011 -0.1088
  322MOL0     C43394   1.289   7.760   5.449  0.3186  0.0962 -0.3470
  322MOL0     C43395   1.168   7.690   5.387 -0.3471  0.4367  0.1874
  322MOL0     C43396   1.044   7.706   5.469  0.2766  0.0928 -0.3106
  322MOL0     C43397   0.937   7.614   5.407  0.1440 -1.1959 -0.1196
  322MOL0     C43398   0.891   7.668   5.277 -0.6764  0.3393 -0.1190
  322MOL0     C43399   0.836   7.692   5.173  0.5566  0.2063  1.2806
  322MOL0     C43400   1.556   7.801   5.203  0.8080  0.1358  0.3200
  322MOL0     C43401   1.660   7.885   5.166  0.9767 -0.0241 -0.1183
  322MOL0     C43402   1.730   7.845   5.037 -0.2845  0.2339 -0.5892
  322MOL0     H43403   2.137   8.095   5.337  1.5847 -1.1144 -4.7786
  322MOL0     H43404   2.308   8.248   5.315  0.1150  0.8474 -1.2940
  322MOL0     H43405   2.388   8.370   5.137 -0.9937  0.4012  0.7714
  322MOL0     H43406   2.438   8.545   5.131  0.4798  1.0836  1.2024
  322MOL0     H43407   2.537   8.337   5.279 -1.1808  0.9385 -3.1185
  322MOL0     H43408   2.435   8.410   5.400  0.1558 -0.6650  0.8045
  322MOL0     H43409   2.530   8.628   5.371 -0.3648  0.4344 -0.4983
  322MOL0     H43410   2.643   8.565   5.257 -3.1417 -1.9080 -1.7889
  322MOL0     H43411   2.651   8.456   5.543  2.4272 -0.3904  1.3547
  322MOL0     H43412   2.754   8.416   5.406 -0.4322  1.2025 -3.3088
  322MOL0     H43413   2.726   8.687   5.532 -4.2145 -0.9811 -1.5716
  322MOL0     H43414   2.844   8.555   5.582 -1.6186 -2.2481 -0.5152
  322MOL0     H43415   2.958   8.562   5.368 -0.0970 -1.4426  0.8321
  322MOL0     H43416   2.843   8.692   5.320 -1.2770  1.0807  1.1992
  322MOL0     H43417   3.062   8.780   5.415 -0.2727 -1.3763  0.0129
  322MOL0     H43418   3.024   8.701   5.559  2.8847  3.1452  0.2515
  322MOL0     H43419   2.815   8.910   5.489  0.6997  5.1884 -2.1217
  322MOL0     H43420   2.887   8.875   5.637 -0.5505  1.4534 -0.1022
  322MOL0     H43421   3.185   8.931   5.627 -1.3659 -1.2197 -1.1085
  322MOL0     H43422   3.308   9.132   5.738 -2.8800 -2.8508  0.2807
  322MOL0     H43423   3.367   9.190   5.574 -0.3079 -0.3869 -0.6582
  322MOL0     H43424   3.372   9.342   5.769  0.5395  3.2511 -1.2721
  322MOL0     H43425   3.280   9.398   5.643  0.2910  1.3576  0.6904
  322MOL0     H43426   3.135   9.250   5.870  0.1660  0.8710  1.0060
  322MOL0     H43427   3.065   9.377   5.768  0.5899  0.8965  0.6397
  322MOL0     H43428   3.147   9.486   5.994  2.8979  0.0874  2.4266
  322MOL0     H43429   3.247   9.530   5.871  0.4829  1.5498  1.7192
  322MOL0     H43430   3.070   9.339   6.168 -0.3107  0.8646  1.6760
  322MOL0     H43431   3.050   9.123   6.288 -0.6263  0.4986  0.3738
  322MOL0     H43432   3.360   8.590   6.274 -2.6529 -2.2549  0.3354
  322MOL0     H43433   3.363   8.416   6.441  0.7362  0.0300  0.3935
  322MOL0     H43434   3.347   8.268   6.615  1.7143 -0.6208 -0.6426
  322MOL0     H43435   3.514   8.319   6.627 -2.0871  2.2379 -3.2639
  322MOL0     H43436   3.514   8.153   6.799 -1.1005 -1.5239 -2.1404
  322MOL0     H43437   3.453   8.288   6.892  0.9545 -1.1320  0.0268
  322MOL0     H43438   3.299   8.121   6.945  0.7844  1.5419 -0.3602
  322MOL0     H43439   3.214   8.216   6.833  2.3608  2.3731  2.1484
  322MOL0     H43440   3.390   7.978   6.730  1.3039  0.4531  3.4135
  322MOL0     H43441   3.277   8.056   6.644 -0.6810  0.4895  0.9923
  322MOL0     H43442   3.085   7.949   6.784  0.7279  3.0771 -0.6416
  322MOL0     H43443   3.221   7.874   6.874  2.8445  0.3819 -0.5937
  322MOL0     H43444   3.147   7.864   6.583  1.6233  0.6705 -0.4863
  322MOL0     H43445   3.281   7.763   6.658 -0.1495 -0.2527 -3.9634
  322MOL0     H43446   2.977   7.743   6.687  0.2066  1.5398 -1.0574
  322MOL0     H43447   3.092   7.685   6.822 -3.2516  1.7255  0.4486
  322MOL0     H43448   2.992   7.508   6.670  1.1223 -0.6011  2.5100
  322MOL0     H43449   3.078   7.589   6.530 -4.3403  0.1293 -0.5624
  322MOL0     H43450   3.348   8.682   6.764  1.7313 -0.1877 -0.4994
  322MOL0     H43451   3.317   8.873   6.596  1.1340 -0.5451  1.0826
  322MOL0     H43452   3.440   9.000   6.183  1.7616  1.3512 -0.4897
  322MOL0     H43453   3.470   9.210   6.056  2.9251  1.4346  4.2380
  322MOL0     H43454   2.017   8.557   5.225 -0.0694 -1.0298  0.9771
  322MOL0     H43455   1.838   8.403   5.245 -1.2100 -3.3311 -1.5826
  322MOL0     H43456   1.669   8.087   5.442  4.5833 -0.4057 -2.2417
  322MOL0     H43457   1.494   7.918   5.520  0.9223 -1.1140  0.2514
  322MOL0     H43458   1.280   7.869   5.449  1.5743  0.2093  0.5831
  322MOL0     H43459   1.307   7.729   5.552  1.4010 -0.9963 -0.8443
  322MOL0     H43460   1.189   7.583   5.378  0.7225  0.6443  0.0040
  322MOL0     H43461   1.162   7.725   5.284  2.8661 -0.1375 -0.2937
  322MOL0     H43462   1.001   7.806   5.485 -0.0121  0.2290 -1.8278
  322MOL0     H43463   1.073   7.680   5.572 -0.5352  2.2001  0.5094
  322MOL0     H43464   0.979   7.515   5.389  3.1365  0.4296 -3.3408
  322MOL0     H43465   0.856   7.623   5.480 -0.8932  1.3209 -1.4254
  322MOL0     H43466   0.774   7.717   5.089 -0.6217 -1.5849  1.5625
  322MOL0     H43467   1.526   7.720   5.137  0.9205 -0.3957  0.9160
  322MOL0     H43468   1.668   7.892   4.960 -1.8716 -0.5004  0.2087
  322MOL0     H43469   1.834   7.881   5.036 -0.3644  0.4647 -2.0904
  322MOL0     H43470   1.734   7.740   5.006  2.4114  1.0897 -3.6816
  323MOL0     O43471   2.002  10.088  10.086  0.3572  0.9767  0.3249
  323MOL0     C43472   1.893  10.101  10.152 -0.7178  0.4851  0.4548
  323MOL0     O43473   1.831  10.005  10.233  0.6234  0.2500  0.2996
  323MOL0     C43474   1.897   9.887  10.250 -0.3077  0.1623  0.5557
  323MOL0     C43475   1.937   9.802  10.146  0.3640 -0.1859 -0.3922
  323MOL0     C43476   2.020   9.694  10.163  0.5202 -0.3901  0.3683
  323MOL0     C43477   2.066   9.664  10.295  0.1434  0.2297  0.4349
  323MOL0     O43478   2.149   9.562  10.327 -0.2638 -0.2829  0.7222
  323MOL0     C43479   2.270   9.545  10.235  1.2714 -0.4362  0.2329
  323MOL0     C43480   2.343   9.420  10.260  0.2240 -1.2765  0.2726
  323MOL0     C43481   2.487   9.397  10.208  1.0015  0.3828 -0.5715
  323MOL0     C43482   2.492   9.435  10.066 -0.8318  1.1064 -0.2813
  323MOL0     C43483   2.625   9.388  10.008 -0.4469 -0.1634 -0.1457
  323MOL0     C43484   2.639   9.449   9.859 -0.9731 -1.1703 -0.9071
  323MOL0     C43485   2.787   9.425   9.810  0.6846  0.1995  0.4239
  323MOL0     C43486   2.873   9.543   9.869 -0.4148  1.0085 -0.2484
  323MOL0     N43487   3.007   9.547   9.806 -0.3031  0.2680 -0.7703
  323MOL0     C43488   3.111   9.445   9.787  0.2617 -0.3474 -0.1833
  323MOL0     C43489   3.208   9.521   9.723 -0.0821 -0.2502 -0.1313
  323MOL0     C43490   3.338   9.455   9.701  0.5496  0.6836  0.4040
  323MOL0     C43491   3.348   9.375   9.573  0.4882  0.0591 -0.2313
  323MOL0     C43492   3.334   9.452   9.445  1.2501 -0.3543  0.9261
  323MOL0     C43493   3.304   9.358   9.335  0.1958 -0.4206 -1.0021
  323MOL0     O43494   3.165   9.315   9.344 -0.3767  0.0440 -0.0901
  323MOL0     C43495   3.061   9.396   9.303 -1.0155 -0.2667  1.4774
  323MOL0     C43496   2.939   9.353   9.360 -0.3822  0.0019 -0.1478
  323MOL0     C43497   2.823   9.428   9.353  0.3166  0.5100 -0.1410
  323MOL0     C43498   2.813   9.541   9.272  0.0844  0.8691 -0.7079
  323MOL0     C43499   2.695   9.628   9.279  0.3045 -0.1939 -0.2508
  323MOL0     O43500   2.697   9.737   9.209  0.0093 -0.2542  0.2838
  323MOL0     C43501   2.571   9.782   9.173 -0.9706  0.3044 -0.7582
  323MOL0     C43502   2.529   9.765   9.043 -0.4997  0.6850  0.1333
  323MOL0     C43503   2.398   9.810   9.005  0.3098 -0.0168 -0.1328
  323MOL0     C43504   2.319   9.900   9.079 -0.5377  0.8696  0.0595
  323MOL0     O43505   2.211   9.951   9.003 -0.0043 -0.2817  1.3163
  323MOL0     C43506   2.136  10.061   9.060 -0.9110  0.0674  0.9360
  323MOL0     C43507   2.040  10.118   8.954 -0.3883 -0.2195 -0.1275
  323MOL0     C43508   1.913  10.025   8.942  0.8112 -0.7862  0.6656
  323MOL0     C43509   1.815  10.100   8.849 -0.6490 -0.7480  0.1564
  323MOL0     C43510   1.674  10.041   8.860  0.4452 -0.4655 -0.0073
  323MOL0     C43511   1.588  10.112   8.970  0.4330  0.1757 -0.0888
  323MOL0     C43512   1.502  10.229   8.900 -0.1043  0.0044 -0.2589
  323MOL0     C43513   1.412  10.297   9.001 -0.8858 -0.9868  0.4835
  323MOL0    Cl43514   1.275  10.186   9.022 -0.0022  0.1131  0.0466
  323MOL0     C43515   2.361   9.924   9.215  0.0279 -0.0334  0.2161
  323MOL0     C43516   2.483   9.860   9.259  0.0110  0.3046 -0.3475
  323MOL0     O43517   2.591   9.574   9.316 -0.6325  0.5139  0.9315
  323MOL0     C43518   2.934   9.584   9.217  0.1368  0.2454  0.4291
  323MOL0     C43519   3.058   9.516   9.234 -0.7634 -1.0470  1.5890
  323MOL0     N43520   3.166   9.655   9.705  0.1563  0.4156 -0.4639
  323MOL0     N43521   3.051   9.670   9.754  0.0522 -0.0776 -0.8686
  323MOL0     C43522   2.023   9.743  10.397 -0.9758 -0.6262  0.5097
  323MOL0     C43523   1.946   9.858  10.369  0.3421  0.1760 -0.6761
  323MOL0     C43524   1.815  10.230  10.146 -0.5362 -0.8534 -0.5995
  323MOL0     C43525   1.703  10.254  10.225 -0.0861  0.4201  0.1834
  323MOL0     C43526   1.628  10.368  10.220  0.2192 -0.7755 -0.3127
  323MOL0     C43527   1.688  10.477  10.153  0.3757 -0.9262  0.2856
  323MOL0     O43528   1.639  10.605  10.173  0.3028 -0.4003 -0.2682
  323MOL0     C43529   1.505  10.625  10.228  0.8505 -0.3250  0.1842
  323MOL0     C43530   1.457  10.772  10.224 -1.1321  0.2174 -0.4679
  323MOL0     C43531   1.321  10.787  10.285  0.0552 -0.6080  0.1982
  323MOL0     C43532   1.245  10.895  10.203 -0.1207  0.3367  0.6758
  323MOL0     C43533   1.129  10.942  10.280  0.2891  0.5244 -0.4834
  323MOL0     C43534   1.027  10.984  10.325  0.3690 -0.3683 -0.8616
  323MOL0     C43535   1.791  10.447  10.064 -0.3485 -0.3143 -0.0627
  323MOL0     C43536   1.855  10.327  10.053  0.5680  0.1964  0.1338
  323MOL0     C43537   1.949  10.321   9.937 -0.3463 -0.8010  0.1526
  323MOL0     H43538   1.911   9.832  10.045  0.9775  0.7853 -0.2727
  323MOL0     H43539   2.040   9.639  10.071  1.2563  2.1969 -1.1081
  323MOL0     H43540   2.236   9.546  10.131  0.3091  2.5933  0.4907
  323MOL0     H43541   2.329   9.636  10.245  0.6092  0.1376 -0.8368
  323MOL0     H43542   2.290   9.326  10.240  0.5063 -1.5037  0.5771
  323MOL0     H43543   2.358   9.417  10.369  3.3346 -0.1796 -0.0491
  323MOL0     H43544   2.524   9.295  10.218  0.7485  0.0981 -2.2616
  323MOL0     H43545   2.554   9.453  10.274 -0.3091  0.4144  0.7864
  323MOL0     H43546   2.407   9.384  10.020  0.5134 -0.4190 -1.1781
  323MOL0     H43547   2.489   9.544  10.050  1.5471  1.0482 -1.6076
  323MOL0     H43548   2.704   9.432  10.069 -1.0909  1.3660 -0.3768
  323MOL0     H43549   2.640   9.280  10.003 -3.5011 -0.7537  1.0358
  323MOL0     H43550   2.563   9.401   9.797 -2.7135 -0.4340  0.5578
  323MOL0     H43551   2.619   9.557   9.859  1.4295 -0.3420  4.7652
  323MOL0     H43552   2.797   9.422   9.701 -2.3223 -2.0767  0.0720
  323MOL0     H43553   2.818   9.325   9.840 -2.6596 -1.5326 -1.4032
  323MOL0     H43554   2.810   9.630   9.849 -2.3926 -0.2513  0.2170
  323MOL0     H43555   2.878   9.533   9.978 -0.4656 -1.4893 -0.4219
  323MOL0     H43556   3.112   9.338   9.806  0.3473 -0.1438  1.0609
  323MOL0     H43557   3.415   9.530   9.681 -0.1936  1.5376  0.6825
  323MOL0     H43558   3.359   9.393   9.788 -2.5289 -2.8033 -1.0610
  323MOL0     H43559   3.449   9.336   9.590  1.9264  3.7259  0.6640
  323MOL0     H43560   3.277   9.292   9.587  0.7804 -0.1638 -0.0585
  323MOL0     H43561   3.427   9.505   9.426 -0.3274  2.5776  0.7615
  323MOL0     H43562   3.255   9.528   9.443 -0.3685 -1.9386 -1.6299
  323MOL0     H43563   3.366   9.268   9.342  0.3499 -0.1971  1.1614
  323MOL0     H43564   3.334   9.408   9.243  1.0437  0.8090 -0.0909
  323MOL0     H43565   2.952   9.267   9.425  2.4217  2.2761  2.6280
  323MOL0     H43566   2.739   9.383   9.406  1.3365 -0.5023  0.6791
  323MOL0     H43567   2.584   9.713   8.965  0.5030  2.2989 -0.2847
  323MOL0     H43568   2.347   9.776   8.915 -1.6189  0.8736  0.5752
  323MOL0     H43569   2.089  10.027   9.153  1.0261  0.8257  2.2366
  323MOL0     H43570   2.208  10.138   9.086 -1.0961  0.2974  0.7734
  323MOL0     H43571   2.003  10.216   8.986  1.3228  0.7007 -0.8130
  323MOL0     H43572   2.089  10.156   8.864  0.8124  0.0768  0.6409
  323MOL0     H43573   1.939   9.926   8.904 -1.5787 -0.3475 -2.5335
  323MOL0     H43574   1.866  10.027   9.041 -1.6950 -2.4162 -0.3857
  323MOL0     H43575   1.862  10.079   8.752 -1.6790 -2.5582 -0.0092
  323MOL0     H43576   1.802  10.207   8.867 -0.9337 -0.7534 -0.0082
  323MOL0     H43577   1.678   9.935   8.888 -1.2172 -0.0996  1.7982
  323MOL0     H43578   1.630  10.037   8.759  1.7282 -2.4342 -0.5654
  323MOL0     H43579   1.517  10.042   9.014  2.9546  0.3547  5.1050
  323MOL0     H43580   1.649  10.149   9.054 -2.0049  2.8096  0.6553
  323MOL0     H43581   1.438  10.180   8.826  1.5940 -0.7513 -1.2890
  323MOL0     H43582   1.574  10.298   8.854  1.6916 -2.3654 -1.1828
  323MOL0     H43583   1.466  10.321   9.093  1.4436 -0.6479 -0.8894
  323MOL0     H43584   1.381  10.396   8.966 -1.1278 -0.2172  2.7598
  323MOL0     H43585   2.297   9.982   9.281 -1.4870  0.2905 -1.4523
  323MOL0     H43586   2.506   9.875   9.364 -1.7408  3.4825 -0.3119
  323MOL0     H43587   2.951   9.676   9.161  3.3434  1.7440  3.5389
  323MOL0     H43588   3.142   9.571   9.191 -2.2143  2.0913  2.4435
  323MOL0     H43589   2.063   9.705  10.491 -0.8721  0.8211  1.0751
  323MOL0     H43590   1.923   9.917  10.457  1.3809  0.7362 -0.7804
  323MOL0     H43591   1.676  10.176  10.295  1.1494 -2.2824 -2.1415
  323MOL0     H43592   1.545  10.378  10.288  1.4105 -0.3563  1.1262
  323MOL0     H43593   1.498  10.585  10.330 -0.2729 -2.4264 -0.6578
  323MOL0     H43594   1.431  10.573  10.167  0.7085  2.1411 -1.8792
  323MOL0     H43595   1.465  10.805  10.119 -0.4192 -0.1743 -0.5357
  323MOL0     H43596   1.527  10.824  10.289 -1.2292 -1.9181  1.4316
  323MOL0     H43597   1.322  10.794  10.394  0.6718  3.6278  0.1027
  323MOL0     H43598   1.267  10.695  10.261 -0.6047 -0.1164 -0.2302
  323MOL0     H43599   1.306  10.984  10.187  2.0275 -1.6129 -3.8126
  323MOL0     H43600   1.214  10.865  10.103 -0.4772  2.9775 -0.0703
  323MOL0     H43601   0.933  10.992  10.376 -0.8586 -2.8610 -2.5537
  323MOL0     H43602   1.828  10.525   9.998  1.3033  0.7957  2.0145
  323MOL0     H43603   1.930  10.231   9.879 -1.6949 -0.5475  0.1672
  323MOL0     H43604   1.942  10.409   9.872 -2.9148  0.1580  1.5659
  323MOL0     H43605   2.052  10.315   9.974 -0.8655  3.8648  3.3530
  324MOL0     O43606   7.981   5.663   3.646  0.1055  0.9335 -0.2847
  324MOL0     C43607   8.038   5.583   3.723  0.1974  0.1811 -0.7941
  324MOL0     O43608   8.150   5.518   3.700 -0.3775  0.4610 -0.7445
  324MOL0     C43609   8.236   5.540   3.578  1.1318 -0.4992 -0.0012
  324MOL0     C43610   8.225   5.644   3.482 -0.2276 -0.7924 -0.5315
  324MOL0     C43611   8.324   5.648   3.374  0.4153 -1.3050 -0.2227
  324MOL0     C43612   8.423   5.549   3.356  0.2774 -0.3631 -0.2304
  324MOL0     O43613   8.514   5.534   3.255 -0.1129  0.2244  0.4934
  324MOL0     C43614   8.507   5.635   3.150 -0.2513  1.0422  0.8546
  324MOL0     C43615   8.622   5.618   3.056  0.1323  0.3237  0.3039
  324MOL0     C43616   8.622   5.492   2.957  0.0001 -0.9696  0.1526
  324MOL0     C43617   8.494   5.508   2.869  0.1673 -0.9638 -0.3650
  324MOL0     C43618   8.485   5.394   2.764 -0.0962  0.3380 -0.4637
  324MOL0     C43619   8.377   5.439   2.663 -0.1263 -0.2113  0.4475
  324MOL0     C43620   8.378   5.336   2.558 -0.2609  0.5464  0.5320
  324MOL0     C43621   8.279   5.364   2.446  0.4404 -0.2900 -0.9918
  324MOL0     N43622   8.220   5.240   2.388 -0.4107  0.2954  0.7048
  324MOL0     C43623   8.103   5.189   2.433  0.5098  0.5494  0.9230
  324MOL0     C43624   8.072   5.111   2.327 -0.7359 -0.5981  0.7548
  324MOL0     C43625   7.945   5.032   2.309 -0.2579 -0.2417 -0.5555
  324MOL0     C43626   7.981   4.887   2.307  0.1428  0.3250 -0.4827
  324MOL0     C43627   8.068   4.835   2.434  0.0892  0.1072 -0.0842
  324MOL0     C43628   8.005   4.868   2.568 -0.6285 -0.5422 -0.0373
  324MOL0     O43629   8.076   4.796   2.669  0.3307 -0.0606  0.0518
  324MOL0     C43630   8.044   4.808   2.802 -0.0730  0.0859  1.1870
  324MOL0     C43631   8.151   4.780   2.890 -1.0551  0.2365  1.0237
  324MOL0     C43632   8.139   4.792   3.033 -0.4886 -0.2457 -0.0196
  324MOL0     C43633   8.019   4.843   3.086  0.2591 -0.0955  1.0788
  324MOL0     C43634   8.003   4.865   3.230 -0.0988  0.6248 -0.1808
  324MOL0     O43635   8.110   4.854   3.313 -0.5579 -0.1336  0.1857
  324MOL0     C43636   8.090   4.843   3.453  0.3975  0.6756  1.1616
  324MOL0     C43637   8.172   4.917   3.539  0.9393  0.1322 -1.2907
  324MOL0     C43638   8.167   4.885   3.680 -0.4732 -0.4132 -0.3872
  324MOL0     C43639   8.081   4.791   3.739  0.0502 -0.4960  0.4895
  324MOL0     O43640   8.049   4.754   3.870 -0.1525  0.0667 -0.0138
  324MOL0     C43641   8.121   4.824   3.975 -0.1956  0.1520  0.8116
  324MOL0     C43642   8.088   4.756   4.098 -0.0034 -0.0062  0.3187
  324MOL0     C43643   8.180   4.790   4.211 -0.6208 -0.3324  1.0833
  324MOL0     C43644   8.160   4.718   4.342  1.5326  0.1149 -0.2392
  324MOL0     C43645   8.285   4.708   4.432  0.8809  0.7585  0.0480
  324MOL0     C43646   8.259   4.613   4.550 -1.1682  0.2532 -0.7570
  324MOL0     C43647   8.143   4.659   4.627  0.4009  0.4191 -0.2752
  324MOL0     C43648   8.161   4.606   4.768  0.0326  1.0226 -0.2846
  324MOL0    Cl43649   8.291   4.680   4.871 -0.2503 -0.3372  0.0736
  324MOL0     C43650   8.003   4.725   3.652  0.0430  0.1077  1.1939
  324MOL0     C43651   8.013   4.738   3.509  0.1199 -1.0572 -1.9750
  324MOL0     O43652   7.886   4.883   3.273  0.3387 -0.1528  0.3082
  324MOL0     C43653   7.906   4.856   2.994 -0.5900  0.3520  0.5573
  324MOL0     C43654   7.920   4.842   2.855  0.1913  0.3538 -0.0934
  324MOL0     N43655   8.176   5.097   2.227 -0.2389  0.1063  0.5698
  324MOL0     N43656   8.266   5.166   2.280  0.3189 -0.0498  0.0496
  324MOL0     C43657   8.434   5.456   3.454 -0.3284  0.1722 -0.3930
  324MOL0     C43658   8.348   5.454   3.565  0.1001 -0.5038 -0.4914
  324MOL0     C43659   7.979   5.572   3.863  0.0810 -0.5527  0.8372
  324MOL0     C43660   7.840   5.565   3.871  0.4637  0.4366  0.0597
  324MOL0     C43661   7.774   5.574   3.989  0.5966 -0.1468 -0.4687
  324MOL0     C43662   7.852   5.569   4.105  0.7283 -0.1030 -0.3753
  324MOL0     O43663   7.793   5.556   4.227  0.0454  0.2901 -0.2620
  324MOL0     C43664   7.769   5.417   4.263 -0.4082  0.4252 -0.8348
  324MOL0     C43665   7.645   5.400   4.347  0.4226 -0.7919  0.9421
  324MOL0     C43666   7.674   5.468   4.476 -0.5420 -1.2426  0.0892
  324MOL0     C43667   7.552   5.483   4.565 -0.9238 -0.7642  0.8828
  324MOL0     C43668   7.586   5.562   4.688  0.9788  0.6048  0.3282
  324MOL0     C43669   7.611   5.616   4.792  0.5608  0.7854 -0.4946
  324MOL0     C43670   7.987   5.579   4.103  1.4083 -0.0754 -0.7799
  324MOL0     C43671   8.054   5.582   3.982 -1.7594 -0.8026 -0.7762
  324MOL0     C43672   8.202   5.615   3.992 -0.0853 -0.4386 -0.1286
  324MOL0     H43673   8.144   5.714   3.464  1.5270  0.9404 -2.1254
  324MOL0     H43674   8.312   5.716   3.290 -0.2483 -0.0969  0.8066
  324MOL0     H43675   8.410   5.626   3.100 -0.1467  3.9589 -0.0476
  324MOL0     H43676   8.509   5.739   3.184  0.5898  2.1983 -2.3624
  324MOL0     H43677   8.706   5.613   3.127  1.0978  1.1524 -0.7391
  324MOL0     H43678   8.627   5.705   2.990  0.6865 -1.1297 -1.6555
  324MOL0     H43679   8.620   5.397   3.010  1.6492  0.2794  2.6271
  324MOL0     H43680   8.711   5.484   2.893 -2.4486 -3.5694 -3.2925
  324MOL0     H43681   8.402   5.503   2.928  1.1825 -0.4124  1.3365
  324MOL0     H43682   8.494   5.603   2.814 -1.8880 -0.5414  0.2895
  324MOL0     H43683   8.580   5.380   2.712  0.0873 -4.2085  0.6710
  324MOL0     H43684   8.454   5.301   2.813  1.0721  1.4870  2.7849
  324MOL0     H43685   8.281   5.433   2.714  0.6242 -3.0250  1.7029
  324MOL0     H43686   8.407   5.535   2.619  0.3645 -0.1077  0.9949
  324MOL0     H43687   8.358   5.239   2.604  2.2378 -0.2448  0.1003
  324MOL0     H43688   8.478   5.320   2.517 -0.8597 -2.6184  0.1006
  324MOL0     H43689   8.204   5.436   2.482  0.2371 -0.4930 -1.0016
  324MOL0     H43690   8.333   5.410   2.363  1.9552 -1.0807 -0.4633
  324MOL0     H43691   8.029   5.207   2.511 -1.4843 -2.0499 -0.2116
  324MOL0     H43692   7.861   5.067   2.369  0.2296 -0.8300  0.4913
  324MOL0     H43693   7.912   5.045   2.205  1.5544 -1.2462 -1.3126
  324MOL0     H43694   7.890   4.826   2.314  1.1359 -1.1699 -0.0827
  324MOL0     H43695   8.029   4.854   2.214  2.5254 -0.3122  0.8958
  324MOL0     H43696   8.174   4.860   2.432 -0.2203  1.5570 -0.1830
  324MOL0     H43697   8.060   4.726   2.434 -1.9541  0.2069 -1.4014
  324MOL0     H43698   7.900   4.836   2.559 -0.5361 -0.2013 -4.0363
  324MOL0     H43699   8.005   4.977   2.579 -3.9380 -0.0587 -2.8823
  324MOL0     H43700   8.249   4.754   2.852 -1.1516  0.6353  0.4989
  324MOL0     H43701   8.227   4.780   3.095 -0.3256  0.8992 -0.0111
  324MOL0     H43702   8.215   5.009   3.502 -0.1051  1.5379  0.7991
  324MOL0     H43703   8.235   4.948   3.737  0.0860 -1.4739  0.1410
  324MOL0     H43704   8.229   4.831   3.961 -0.1680  2.8331  1.6955
  324MOL0     H43705   8.086   4.928   3.984  2.0429  0.9337  1.2578
  324MOL0     H43706   7.987   4.788   4.123  1.0083  3.4425  0.5138
  324MOL0     H43707   8.094   4.647   4.092  1.1120 -0.0815  2.0476
  324MOL0     H43708   8.280   4.754   4.184  0.0800 -2.6066  5.5747
  324MOL0     H43709   8.179   4.899   4.217  0.7013 -0.0769 -1.8290
  324MOL0     H43710   8.110   4.622   4.325  0.7969  0.6697 -1.2783
  324MOL0     H43711   8.079   4.774   4.389  1.5137 -0.3169  0.2562
  324MOL0     H43712   8.320   4.808   4.462  0.9766  0.7327  0.0226
  324MOL0     H43713   8.369   4.670   4.372  0.7664  1.3685 -0.5211
  324MOL0     H43714   8.246   4.510   4.516 -0.4173  0.4978 -1.8163
  324MOL0     H43715   8.345   4.619   4.617 -2.1891 -0.8251  0.7423
  324MOL0     H43716   8.044   4.634   4.585  1.1122 -0.9472 -1.2247
  324MOL0     H43717   8.158   4.767   4.638 -0.2212  0.4523  0.3577
  324MOL0     H43718   8.063   4.613   4.816 -0.3201  1.6570 -1.0725
  324MOL0     H43719   8.180   4.498   4.767 -1.9460  0.6190  0.3019
  324MOL0     H43720   7.946   4.640   3.691 -0.2579 -0.2559  0.0028
  324MOL0     H43721   7.943   4.677   3.453 -0.6392  0.2927 -2.5635
  324MOL0     H43722   7.814   4.872   3.049  0.8333  2.4287  2.5492
  324MOL0     H43723   7.827   4.873   2.807 -0.2191  1.8274  1.5418
  324MOL0     H43724   8.521   5.391   3.452 -1.9259 -2.1455  0.8422
  324MOL0     H43725   8.342   5.379   3.643  3.6406 -1.5404 -1.0773
  324MOL0     H43726   7.784   5.548   3.780  3.4793 -1.8525 -1.5380
  324MOL0     H43727   7.666   5.584   3.993  0.4561 -1.2463 -1.1351
  324MOL0     H43728   7.855   5.376   4.316 -1.7187 -3.7768 -1.5847
  324MOL0     H43729   7.764   5.362   4.168 -0.6769 -0.7626 -0.1450
  324MOL0     H43730   7.621   5.297   4.375 -2.6552  0.1782  2.4426
  324MOL0     H43731   7.562   5.437   4.285  1.0738 -1.6453 -0.4749
  324MOL0     H43732   7.713   5.569   4.462  0.1346 -1.1376  2.3676
  324MOL0     H43733   7.753   5.414   4.529  1.8182 -1.8313 -3.6742
  324MOL0     H43734   7.471   5.531   4.508  0.1547 -0.6280 -0.5837
  324MOL0     H43735   7.523   5.383   4.600 -0.0814 -0.9275  1.1355
  324MOL0     H43736   7.627   5.668   4.884 -0.4962 -1.2152  0.8988
  324MOL0     H43737   8.018   5.609   4.203 -1.1986 -2.4578  0.8779
  324MOL0     H43738   8.267   5.571   3.916 -0.9955  0.1650 -1.2916
  324MOL0     H43739   8.202   5.724   3.984 -0.8889 -0.4649 -0.5576
  324MOL0     H43740   8.247   5.597   4.090 -1.1615  3.5148  1.3253
  325MOL0     O43741   8.574   6.237   0.705  0.3945  0.4650  0.5311
  325MOL0     C43742   8.517   6.207   0.600 -0.3564  0.4158 -0.5245
  325MOL0     O43743   8.422   6.294   0.540 -0.1002  0.1078 -0.4606
  325MOL0     C43744   8.361   6.393   0.621  0.3432 -0.2218 -1.0778
  325MOL0     C43745   8.231   6.376   0.672 -0.2629 -0.6139  0.4701
  325MOL0     C43746   8.160   6.473   0.735 -0.0099 -0.1096 -1.1865
  325MOL0     C43747   8.222   6.596   0.752 -0.3183  0.1661  0.6198
  325MOL0     O43748   8.166   6.709   0.801 -0.8463 -0.2086 -0.5789
  325MOL0     C43749   8.028   6.732   0.782  0.3078 -0.5765 -0.4080
  325MOL0     C43750   8.011   6.872   0.835  0.6797  1.0849  0.4553
  325MOL0     C43751   8.057   6.980   0.730  0.8051 -0.1898 -0.0998
  325MOL0     C43752   8.075   7.110   0.825  0.6248 -0.0183  0.1215
  325MOL0     C43753   8.104   7.234   0.739 -0.4524  0.5081 -0.6153
  325MOL0     C43754   8.224   7.207   0.656  0.4086  0.4320  0.0753
  325MOL0     C43755   8.289   7.333   0.601 -1.0338  0.0983 -0.0448
  325MOL0     C43756   8.402   7.296   0.499 -0.7781  0.2131  0.6408
  325MOL0     N43757   8.452   7.418   0.440  0.1595  0.0034  0.3314
  325MOL0     C43758   8.430   7.470   0.321  0.4815  0.2183  0.1517
  325MOL0     C43759   8.471   7.598   0.329 -0.1915 -0.6370  0.5674
  325MOL0     C43760   8.486   7.702   0.214 -0.9775  0.3583 -0.8664
  325MOL0     C43761   8.637   7.728   0.215 -0.5718 -0.1077 -0.0862
  325MOL0     C43762   8.666   7.839   0.109  0.0624 -0.4588  0.7722
  325MOL0     C43763   8.663   7.789  -0.038 -0.4880  0.3917  0.8945
  325MOL0     O43764   8.694   7.649  -0.051 -0.2577  0.9320  0.0323
  325MOL0     C43765   8.816   7.600  -0.025 -0.0950 -0.2071 -0.0121
  325MOL0     C43766   8.834   7.473   0.004 -0.4813  0.0419  0.4690
  325MOL0     C43767   8.962   7.418   0.017  0.2317  0.4779 -0.4615
  325MOL0     C43768   9.085   7.492   0.009 -0.6730  1.3366 -0.6157
  325MOL0     C43769   9.217   7.425   0.022  0.3032  0.7869 -0.8208
  325MOL0     O43770   9.327   7.497  -0.011 -0.0065  0.3389 -0.0031
  325MOL0     C43771   9.453   7.453   0.007  0.2655  0.3130  0.0970
  325MOL0     C43772   9.493   7.373   0.119 -0.3822 -0.0846 -0.1887
  325MOL0     C43773   9.630   7.309   0.126  1.1506 -0.5397  0.5877
  325MOL0     C43774   9.709   7.314   0.012  0.1693  0.1842  1.1978
  325MOL0     O43775   9.822   7.237   0.010  0.1863 -0.7833  0.4743
  325MOL0     C43776   9.834   7.142  -0.092  0.4379 -0.1769  1.3786
  325MOL0     C43777   9.733   7.023  -0.074 -0.5035 -1.0460  0.9471
  325MOL0     C43778   9.746   6.961   0.058 -0.4984 -1.0127 -0.1802
  325MOL0     C43779   9.657   6.842   0.080  0.1215  0.2141  0.2392
  325MOL0     C43780   9.674   6.771   0.219  0.3804 -0.2897  0.2563
  325MOL0     C43781   9.627   6.853   0.337  1.0179 -0.7056  0.5288
  325MOL0     C43782   9.480   6.834   0.369  0.2359 -0.1819 -0.1580
  325MOL0     C43783   9.398   6.948   0.449  0.3336 -0.8714  0.4290
  325MOL0    Cl43784   9.473   6.976   0.607  0.0733 -0.6448  0.0139
  325MOL0     C43785   9.668   7.403  -0.091  0.6450 -0.6804  0.3680
  325MOL0     C43786   9.546   7.474  -0.090 -0.0341  0.5288  0.2472
  325MOL0     O43787   9.218   7.303   0.046  1.0497  0.3254  0.6043
  325MOL0     C43788   9.070   7.627  -0.012  0.8464 -0.6060  0.3442
  325MOL0     C43789   8.939   7.674  -0.029 -0.7158 -0.8804  0.2595
  325MOL0     N43790   8.525   7.626   0.455 -0.2719  0.4448 -0.5547
  325MOL0     N43791   8.503   7.518   0.529 -0.2238 -0.1217  0.2337
  325MOL0     C43792   8.348   6.617   0.709  0.3426  0.3814  0.7415
  325MOL0     C43793   8.426   6.514   0.650 -0.1292  1.1112  0.5232
  325MOL0     C43794   8.549   6.079   0.540 -0.3585 -0.3970  0.1935
  325MOL0     C43795   8.579   6.090   0.408  0.9763  0.1146 -1.0951
  325MOL0     C43796   8.619   5.982   0.330  0.3864 -0.6345  0.2976
  325MOL0     C43797   8.614   5.860   0.371 -0.0135  0.8967 -0.8637
  325MOL0     O43798   8.630   5.756   0.269 -0.5437 -0.1023 -0.2333
  325MOL0     C43799   8.573   5.628   0.295  0.0365 -0.5077  0.9089
  325MOL0     C43800   8.523   5.563   0.159 -0.1460  0.2207  0.2015
  325MOL0     C43801   8.637   5.533   0.059 -0.6762 -0.8450 -0.0983
  325MOL0     C43802   8.590   5.449  -0.065  0.2334  0.3649 -0.3758
  325MOL0     C43803   8.533   5.314  -0.024 -0.3009 -1.1748 -0.3309
  325MOL0     C43804   8.509   5.194  -0.033  0.1654 -0.9716  0.3489
  325MOL0     C43805   8.596   5.839   0.513  0.4225  0.4161 -0.3903
  325MOL0     C43806   8.560   5.956   0.599 -0.5799  0.0284  0.2606
  325MOL0     C43807   8.508   5.919   0.740  0.2743  0.4473 -0.0107
  325MOL0     H43808   8.181   6.281   0.655 -2.7505 -0.0875  3.6841
  325MOL0     H43809   8.060   6.456   0.774  0.2594 -1.0245 -0.8652
  325MOL0     H43810   8.002   6.733   0.675  1.6970  0.9236 -0.7666
  325MOL0     H43811   7.974   6.654   0.837  2.7916 -2.1505 -0.0290
  325MOL0     H43812   8.061   6.876   0.932 -0.0546  0.3808  0.8764
  325MOL0     H43813   7.906   6.892   0.859 -0.9223 -2.0977 -2.9768
  325MOL0     H43814   7.968   7.001   0.670 -0.9900 -3.3718  1.2235
  325MOL0     H43815   8.145   6.952   0.673  2.3332  4.8625 -0.7494
  325MOL0     H43816   7.977   7.131   0.869 -1.9425 -2.7486 -3.6943
  325MOL0     H43817   8.147   7.075   0.900 -0.8637  2.1228  2.7083
  325MOL0     H43818   8.015   7.266   0.683 -0.7113 -0.4725 -0.7880
  325MOL0     H43819   8.134   7.319   0.801 -0.3157 -0.3977  0.5848
  325MOL0     H43820   8.297   7.153   0.717  0.3580 -1.3368 -1.3351
  325MOL0     H43821   8.199   7.145   0.569 -0.5487  0.7883  0.0870
  325MOL0     H43822   8.327   7.394   0.684  3.9912 -1.2569 -1.0025
  325MOL0     H43823   8.216   7.390   0.544 -2.9247 -1.0567  1.1395
  325MOL0     H43824   8.480   7.241   0.553  1.0532  1.6418 -0.4377
  325MOL0     H43825   8.374   7.225   0.420 -0.2973  0.1926  0.4820
  325MOL0     H43826   8.388   7.421   0.233  0.2443  3.6398 -1.8076
  325MOL0     H43827   8.468   7.660   0.115  2.7622  1.5379 -2.2084
  325MOL0     H43828   8.429   7.792   0.242 -2.1786 -0.4060 -0.7622
  325MOL0     H43829   8.683   7.753   0.311  2.3257 -2.1712 -0.7717
  325MOL0     H43830   8.686   7.633   0.192  0.6577  0.1245  1.3661
  325MOL0     H43831   8.767   7.867   0.139 -0.3751  2.0185  0.1523
  325MOL0     H43832   8.596   7.924   0.117  1.3703  0.5816  1.5874
  325MOL0     H43833   8.730   7.855  -0.093 -0.1016  0.0628  0.9593
  325MOL0     H43834   8.560   7.800  -0.072  0.2844  1.3857 -1.2550
  325MOL0     H43835   8.748   7.409   0.018  0.8749 -2.0719 -0.3285
  325MOL0     H43836   8.969   7.310   0.027  3.0063  0.5406 -0.6850
  325MOL0     H43837   9.429   7.336   0.198 -1.5969  0.5770 -0.8458
  325MOL0     H43838   9.647   7.248   0.214  1.0260 -0.9133  0.3586
  325MOL0     H43839   9.806   7.190  -0.187 -0.8501 -0.2036  1.7209
  325MOL0     H43840   9.940   7.116  -0.091  0.2593 -0.9693  0.7862
  325MOL0     H43841   9.641   7.080  -0.084  0.9001  1.7406  2.7259
  325MOL0     H43842   9.761   6.945  -0.146 -1.4239  0.9567 -1.7380
  325MOL0     H43843   9.853   6.950   0.079  0.7953  3.9790 -2.4520
  325MOL0     H43844   9.715   7.029   0.138  1.6883 -2.6175  2.1811
  325MOL0     H43845   9.687   6.768   0.006 -0.8649 -0.3388  0.3851
  325MOL0     H43846   9.553   6.867   0.056 -0.6053 -2.2172  0.5772
  325MOL0     H43847   9.781   6.757   0.235  0.0793 -3.3052  0.2138
  325MOL0     H43848   9.623   6.674   0.222  0.3647 -0.2590  2.1756
  325MOL0     H43849   9.689   6.820   0.420  2.2294  2.5939  1.1150
  325MOL0     H43850   9.658   6.958   0.331  1.0696 -0.7982 -1.4091
  325MOL0     H43851   9.481   6.752   0.442  2.1624 -1.1068 -1.1353
  325MOL0     H43852   9.425   6.814   0.277  1.8889 -1.6459 -0.8867
  325MOL0     H43853   9.406   7.045   0.399 -0.2103 -2.2775 -2.6351
  325MOL0     H43854   9.289   6.937   0.448  0.2810 -0.2959 -0.8234
  325MOL0     H43855   9.724   7.416  -0.183 -3.6028  1.0926 -2.2647
  325MOL0     H43856   9.534   7.554  -0.163 -1.0457 -0.1339 -0.3328
  325MOL0     H43857   9.153   7.692  -0.038  0.0073 -0.4625 -2.2595
  325MOL0     H43858   8.938   7.780  -0.053  1.2406 -0.9437 -0.3308
  325MOL0     H43859   8.396   6.714   0.720  0.1288  0.6167 -0.2847
  325MOL0     H43860   8.531   6.516   0.625 -0.6782 -2.6458 -3.2070
  325MOL0     H43861   8.585   6.185   0.356 -1.0412  0.8839 -0.0347
  325MOL0     H43862   8.641   6.009   0.228 -0.7868 -0.4783  0.0675
  325MOL0     H43863   8.489   5.631   0.364 -0.6098  1.0594  0.1051
  325MOL0     H43864   8.653   5.563   0.334  3.1400 -0.6589 -4.6059
  325MOL0     H43865   8.440   5.626   0.125  0.2729  1.3362  1.1787
  325MOL0     H43866   8.482   5.467   0.193 -0.0522  0.1606  0.1455
  325MOL0     H43867   8.723   5.490   0.111 -0.3212 -0.8916 -0.7072
  325MOL0     H43868   8.669   5.632   0.025 -0.1721 -1.7736 -2.5953
  325MOL0     H43869   8.510   5.504  -0.115 -1.5437  1.3409  3.2289
  325MOL0     H43870   8.672   5.425  -0.133  0.9240 -0.3454  0.6767
  325MOL0     H43871   8.490   5.089  -0.048 -1.9156 -0.1995 -4.2553
  325MOL0     H43872   8.587   5.745   0.566 -0.4914  0.1233 -1.0241
  325MOL0     H43873   8.532   5.815   0.766  0.0150 -0.2533 -2.3369
  325MOL0     H43874   8.556   5.982   0.815  0.0217 -3.1592  3.5116
  325MOL0     H43875   8.401   5.942   0.742 -0.0792 -0.0307 -4.2494
  326MOL0     O43876   9.400   3.527   3.461  1.0231 -0.3622 -0.9208
  326MOL0     C43877   9.406   3.422   3.526  0.1914 -0.9452 -0.2697
  326MOL0     O43878   9.314   3.387   3.611  0.3987  0.0516 -0.5590
  326MOL0     C43879   9.188   3.446   3.608  0.0304 -0.1368  0.0652
  326MOL0     C43880   9.166   3.576   3.666  0.3053 -0.0788  0.2003
  326MOL0     C43881   9.036   3.614   3.682  0.3204  0.1791 -0.1048
  326MOL0     C43882   8.926   3.530   3.636 -0.7395  0.7616  0.6352
  326MOL0     O43883   8.798   3.590   3.668  0.1396  0.2535 -0.4745
  326MOL0     C43884   8.695   3.550   3.590  0.1530 -0.6734  1.4937
  326MOL0     C43885   8.610   3.442   3.659 -0.1588 -0.2424  0.8625
  326MOL0     C43886   8.514   3.509   3.762 -0.0723  1.2528 -0.4206
  326MOL0     C43887   8.436   3.397   3.833  0.4147  0.2063 -0.2629
  326MOL0     C43888   8.334   3.458   3.930 -0.2276 -0.6199  0.0436
  326MOL0     C43889   8.276   3.339   4.023  0.0702  0.6047  0.3917
  326MOL0     C43890   8.161   3.382   4.106 -0.1707 -0.7140  0.4170
  326MOL0     C43891   8.036   3.425   4.022  0.0441  0.1176 -0.6217
  326MOL0     N43892   7.934   3.463   4.111  0.2634  0.5330  0.8138
  326MOL0     C43893   7.849   3.370   4.184 -0.9619 -0.0765  0.2160
  326MOL0     C43894   7.800   3.449   4.285  0.0059  0.5542 -0.1267
  326MOL0     C43895   7.724   3.408   4.408 -0.2250 -0.1813 -0.3873
  326MOL0     C43896   7.795   3.463   4.541  0.2506  0.3395 -0.8019
  326MOL0     C43897   7.943   3.437   4.553  0.5891  0.8938 -0.0728
  326MOL0     C43898   8.018   3.559   4.554 -0.0449  0.1908  0.3920
  326MOL0     O43899   8.042   3.605   4.690 -0.0790 -0.1946  0.6375
  326MOL0     C43900   8.164   3.585   4.755  0.7083  1.4440  0.2711
  326MOL0     C43901   8.164   3.608   4.892 -0.4951 -0.8327  0.5200
  326MOL0     C43902   8.272   3.581   4.968 -0.3393  0.9194  0.1671
  326MOL0     C43903   8.389   3.520   4.904  0.1394 -0.1795 -0.8406
  326MOL0     C43904   8.512   3.490   4.992  0.0989 -0.9546  0.2383
  326MOL0     O43905   8.616   3.436   4.928  0.6806  0.1982  0.1657
  326MOL0     C43906   8.718   3.401   5.003 -0.1756  0.2306  0.7944
  326MOL0     C43907   8.799   3.502   5.060  0.3456 -0.5802 -0.2249
  326MOL0     C43908   8.904   3.477   5.151  0.6921 -0.1568  0.5278
  326MOL0     C43909   8.924   3.342   5.200  0.0326  0.3900 -0.1059
  326MOL0     O43910   9.029   3.308   5.270  0.5441 -0.5486  0.1642
  326MOL0     C43911   9.085   3.395   5.366 -0.3903 -0.6265  0.4403
  326MOL0     C43912   9.205   3.484   5.308  0.3661 -0.3871 -0.3696
  326MOL0     C43913   9.287   3.567   5.407  0.3328 -0.4325 -0.7670
  326MOL0     C43914   9.331   3.493   5.538  0.0553  0.7484  0.1570
  326MOL0     C43915   9.327   3.603   5.655  0.1759 -0.1810  1.0053
  326MOL0     C43916   9.405   3.561   5.775  0.1403  0.2812  0.3747
  326MOL0     C43917   9.347   3.440   5.856  0.4466 -0.4260 -0.0612
  326MOL0     C43918   9.448   3.389   5.954 -0.6490  0.7367 -0.0303
  326MOL0    Cl43919   9.577   3.294   5.875 -0.3189 -0.4127  0.1009
  326MOL0     C43920   8.846   3.239   5.139 -0.3727  0.1680 -0.4596
  326MOL0     C43921   8.741   3.266   5.044 -0.0022  0.0796  0.1741
  326MOL0     O43922   8.498   3.500   5.116 -0.0195  0.1749 -0.6494
  326MOL0     C43923   8.386   3.495   4.766 -0.2179 -0.7195 -0.1666
  326MOL0     C43924   8.276   3.526   4.690 -0.1322  0.2409  0.2846
  326MOL0     N43925   7.851   3.581   4.269  0.4513  0.7626 -0.4485
  326MOL0     N43926   7.924   3.589   4.158 -0.0914  0.0825 -0.7558
  326MOL0     C43927   8.950   3.408   3.561  0.2525 -0.4494  0.1174
  326MOL0     C43928   9.084   3.373   3.549  0.1415 -0.1577  0.7571
  326MOL0     C43929   9.529   3.343   3.523 -0.0404 -0.3051  0.5028
  326MOL0     C43930   9.521   3.213   3.599 -0.3688  1.1864 -0.5074
  326MOL0     C43931   9.622   3.120   3.605  0.4579  0.0454 -0.7326
  326MOL0     C43932   9.732   3.148   3.527  0.0806  0.0782  0.4429
  326MOL0     O43933   9.835   3.061   3.513 -0.4891 -0.0733  1.0767
  326MOL0     C43934   9.833   2.926   3.553  0.5300  0.2900  0.3981
  326MOL0     C43935   9.920   2.905   3.673  0.1302 -0.1879  0.5131
  326MOL0     C43936   9.901   3.022   3.784  0.6046 -0.2709 -0.1642
  326MOL0     C43937   9.924   2.961   3.924  0.9145 -0.0732 -0.4195
  326MOL0     C43938   9.927   3.071   4.020  0.3902  0.1784 -0.5335
  326MOL0     C43939   9.948   3.172   4.089  0.7697  0.4410  0.6794
  326MOL0     C43940   9.749   3.269   3.458  0.5094 -0.5314 -1.1621
  326MOL0     C43941   9.659   3.378   3.471  0.6884  0.4207 -0.0473
  326MOL0     C43942   9.683   3.509   3.393  0.1481  0.1734  0.7961
  326MOL0     H43943   9.245   3.643   3.700  1.9925 -1.5150 -0.7437
  326MOL0     H43944   9.009   3.713   3.716  3.1863  0.5012  1.5919
  326MOL0     H43945   8.631   3.637   3.571  1.8907  0.4940  0.7865
  326MOL0     H43946   8.737   3.529   3.491  0.1531  3.6785  0.3485
  326MOL0     H43947   8.681   3.378   3.712  0.5760  0.8249  1.1944
  326MOL0     H43948   8.564   3.384   3.578  2.6724  1.0755 -1.9100
  326MOL0     H43949   8.440   3.571   3.710 -1.9702  1.9753  2.8719
  326MOL0     H43950   8.575   3.559   3.838  5.3007 -1.9072 -2.1037
  326MOL0     H43951   8.368   3.348   3.764 -0.2388  2.5383 -1.3893
  326MOL0     H43952   8.507   3.334   3.888  0.6719  1.9047  1.4970
  326MOL0     H43953   8.376   3.537   3.993 -0.8370 -0.3408  0.1071
  326MOL0     H43954   8.255   3.507   3.873  2.2050  1.5921 -1.6605
  326MOL0     H43955   8.243   3.251   3.966 -0.0232  0.1389  1.1419
  326MOL0     H43956   8.354   3.304   4.091 -2.0531  1.2535  3.3792
  326MOL0     H43957   8.198   3.453   4.181  4.6429 -0.1311 -2.0886
  326MOL0     H43958   8.146   3.290   4.163  2.5693 -0.9641  0.8466
  326MOL0     H43959   8.047   3.514   3.959 -0.0543 -0.5348 -1.5954
  326MOL0     H43960   8.001   3.342   3.961 -0.8340  1.2516 -1.7166
  326MOL0     H43961   7.834   3.263   4.175 -0.0624 -0.0852 -1.5368
  326MOL0     H43962   7.622   3.449   4.407 -0.1688 -0.0410 -0.1428
  326MOL0     H43963   7.724   3.299   4.412  2.5481 -0.2267  0.2340
  326MOL0     H43964   7.764   3.566   4.560 -0.7061 -0.2448  1.0546
  326MOL0     H43965   7.746   3.421   4.630  1.0896  1.3989  0.1920
  326MOL0     H43966   7.981   3.365   4.480  1.0638  1.1894 -0.1224
  326MOL0     H43967   7.951   3.389   4.651 -1.5577  1.5522  0.4807
  326MOL0     H43968   7.968   3.637   4.496  1.2194  1.9118  1.5110
  326MOL0     H43969   8.106   3.546   4.491 -0.1060  2.8803 -0.3996
  326MOL0     H43970   8.080   3.664   4.933 -3.1906 -0.8729 -4.2538
  326MOL0     H43971   8.274   3.603   5.074  1.7959  1.4516  0.0630
  326MOL0     H43972   8.772   3.606   5.049  2.1731 -0.1338 -0.9024
  326MOL0     H43973   8.959   3.562   5.191 -0.0169 -0.1982  1.6067
  326MOL0     H43974   9.009   3.449   5.423 -1.9123 -2.7428  0.5082
  326MOL0     H43975   9.129   3.326   5.439 -1.5970 -0.7380  1.0743
  326MOL0     H43976   9.274   3.403   5.281  0.1779 -1.0758  1.1019
  326MOL0     H43977   9.178   3.544   5.222  1.4402 -1.8209 -1.7842
  326MOL0     H43978   9.376   3.605   5.356  0.1102 -1.0097 -1.6226
  326MOL0     H43979   9.237   3.659   5.437  2.6501 -1.0048  6.8856
  326MOL0     H43980   9.429   3.446   5.534 -0.9324 -1.4922  0.7338
  326MOL0     H43981   9.266   3.410   5.566  2.6421 -2.1627 -1.8008
  326MOL0     H43982   9.224   3.636   5.673  0.3445  0.8323  0.2122
  326MOL0     H43983   9.379   3.695   5.629 -1.2829  1.0404  2.1969
  326MOL0     H43984   9.504   3.535   5.737 -0.1230  0.5749 -0.5481
  326MOL0     H43985   9.415   3.652   5.834  3.0255  2.4324 -3.0182
  326MOL0     H43986   9.311   3.357   5.795  1.0369 -1.8716  1.4816
  326MOL0     H43987   9.263   3.490   5.905  0.3165 -1.1427  0.4577
  326MOL0     H43988   9.490   3.475   6.008 -0.7040 -1.5013  3.9286
  326MOL0     H43989   9.392   3.331   6.027 -1.6956  0.7930 -0.7764
  326MOL0     H43990   8.863   3.142   5.186 -1.7375 -0.3507 -0.9607
  326MOL0     H43991   8.681   3.183   5.011 -1.0132  1.8860 -2.9810
  326MOL0     H43992   8.478   3.451   4.729  0.9815  1.8311 -0.4371
  326MOL0     H43993   8.278   3.497   4.586 -0.5395 -1.3932  0.7081
  326MOL0     H43994   8.864   3.348   3.532 -3.3554  2.1753  4.1907
  326MOL0     H43995   9.117   3.292   3.485  1.8333  1.7753 -0.9775
  326MOL0     H43996   9.431   3.186   3.653 -0.0957  3.2737  1.0908
  326MOL0     H43997   9.600   3.037   3.671 -2.3535  0.8531 -0.5018
  326MOL0     H43998   9.872   2.868   3.469  1.3766 -4.4671  3.6504
  326MOL0     H43999   9.731   2.897   3.580 -0.8818  4.4487  0.2710
  326MOL0     H44000  10.027   2.896   3.651  0.0212  1.5005 -0.8618
  326MOL0     H44001   9.895   2.808   3.718  1.3166 -0.8996 -0.3106
  326MOL0     H44002   9.804   3.071   3.772  0.7106 -0.3977 -1.8607
  326MOL0     H44003   9.978   3.092   3.749  2.0465 -2.4622 -1.6157
  326MOL0     H44004   9.839   2.896   3.945  1.2402 -0.6193 -0.7716
  326MOL0     H44005  10.013   2.899   3.941  0.5003 -1.1747 -2.0029
  326MOL0     H44006   9.971   3.266   4.136  4.3326  0.4802 -0.8014
  326MOL0     H44007   9.846   3.291   3.415  1.2343  0.6285  0.9212
  326MOL0     H44008   9.777   3.508   3.338 -1.0180  0.4053 -1.3281
  326MOL0     H44009   9.607   3.523   3.316 -1.7268  2.1944  2.8657
  326MOL0     H44010   9.687   3.592   3.464  1.1269  1.4942 -0.7343
  327MOL0     O44011   7.908   7.937   4.866  0.1875 -0.0823  0.4986
  327MOL0     C44012   7.950   8.006   4.772  0.6121  0.7841  0.6307
  327MOL0     O44013   7.899   7.995   4.636  0.7934  0.4852 -0.8190
  327MOL0     C44014   7.817   7.890   4.608  1.3965  1.2336 -0.7230
  327MOL0     C44015   7.673   7.901   4.628  1.3699  0.7257 -0.2138
  327MOL0     C44016   7.596   7.799   4.557 -0.6558 -0.8019  0.2944
  327MOL0     C44017   7.648   7.697   4.476 -0.0134  0.4758  0.8790
  327MOL0     O44018   7.567   7.607   4.407  0.4294 -0.5966  0.1443
  327MOL0     C44019   7.504   7.666   4.288  0.4639 -0.3207  1.0427
  327MOL0     C44020   7.441   7.565   4.196  0.3159  0.2331  0.9167
  327MOL0     C44021   7.549   7.459   4.148  0.3446  0.9884  0.6023
  327MOL0     C44022   7.652   7.514   4.047  0.2939 -0.6131  0.0333
  327MOL0     C44023   7.760   7.414   4.017 -0.3962  0.3073 -0.2534
  327MOL0     C44024   7.860   7.392   4.132 -0.0708 -0.3884  0.1339
  327MOL0     C44025   7.969   7.297   4.088 -0.6457  0.2169 -0.5491
  327MOL0     C44026   8.079   7.363   3.999  0.4747  0.6427  0.1804
  327MOL0     N44027   8.135   7.486   4.069  0.0096  0.8148 -0.2347
  327MOL0     C44028   8.245   7.487   4.147 -0.8526 -0.1373 -0.5109
  327MOL0     C44029   8.265   7.618   4.188  0.1709  0.1268 -0.2512
  327MOL0     C44030   8.365   7.664   4.298  0.7867 -1.3630  0.8404
  327MOL0     C44031   8.485   7.731   4.225 -0.4360  0.1921 -0.3422
  327MOL0     C44032   8.574   7.805   4.328 -0.6510  0.3734  1.1978
  327MOL0     C44033   8.679   7.899   4.257 -0.1584 -0.2540 -0.9809
  327MOL0     O44034   8.776   7.823   4.182  0.0109  0.1873 -0.0155
  327MOL0     C44035   8.899   7.895   4.160  0.1378 -0.3054 -0.2549
  327MOL0     C44036   8.919   8.031   4.196 -0.9780  0.8462  1.0612
  327MOL0     C44037   9.042   8.081   4.185 -0.2737 -0.2258  0.7158
  327MOL0     C44038   9.155   8.013   4.133 -0.4454  0.4622 -0.2112
  327MOL0     C44039   9.293   8.066   4.121 -0.3410 -0.1483 -0.5487
  327MOL0     O44040   9.373   8.013   4.018  0.3374 -0.4281 -0.0090
  327MOL0     C44041   9.506   8.058   4.007 -0.3050  0.7599 -0.3865
  327MOL0     C44042   9.565   8.174   4.051 -0.5216 -0.3447 -0.2432
  327MOL0     C44043   9.703   8.211   4.012  0.0256  0.5503  0.5399
  327MOL0     C44044   9.764   8.132   3.915 -1.2559  0.2358  0.1312
  327MOL0     O44045   9.885   8.182   3.866  0.4875  0.3337 -0.0565
  327MOL0     C44046   9.907   8.162   3.720 -0.4773  0.1651 -0.1324
  327MOL0     C44047   9.929   8.303   3.655 -0.3712 -0.2692 -0.8269
  327MOL0     C44048   9.941   8.286   3.499  0.8915 -0.3099 -0.1378
  327MOL0     C44049   9.999   8.412   3.441 -0.1404 -0.5105 -0.0304
  327MOL0     C44050  10.020   8.400   3.290  0.3228 -0.6271  0.3583
  327MOL0     C44051  10.070   8.535   3.239 -0.7806 -0.3497 -0.0597
  327MOL0     C44052  10.091   8.540   3.087  0.9144  0.0930 -0.0543
  327MOL0     C44053   9.969   8.564   3.004  1.0009  0.5273 -0.0106
  327MOL0    Cl44054   9.849   8.683   3.077  0.4180 -0.6550 -0.0206
  327MOL0     C44055   9.707   8.012   3.877  0.0538  0.5588  1.0602
  327MOL0     C44056   9.585   7.969   3.928  0.3167  0.0142  0.1998
  327MOL0     O44057   9.313   8.163   4.194 -0.1252 -0.8354 -0.3275
  327MOL0     C44058   9.127   7.887   4.093 -0.5394  0.0669  0.3032
  327MOL0     C44059   9.002   7.824   4.111 -0.3990  0.4064  1.0484
  327MOL0     N44060   8.168   7.690   4.122  0.1802 -0.4667 -0.3786
  327MOL0     N44061   8.090   7.611   4.052 -0.2242  0.5792 -0.2346
  327MOL0     C44062   7.777   7.702   4.449 -0.9393  0.2325  0.5537
  327MOL0     C44063   7.860   7.791   4.519  0.2215  0.0391 -0.4791
  327MOL0     C44064   8.044   8.114   4.789  0.5590  0.3958 -0.0678
  327MOL0     C44065   8.165   8.085   4.855 -0.2389  0.0592 -0.1393
  327MOL0     C44066   8.261   8.182   4.883 -0.3910 -0.0872 -0.0413
  327MOL0     C44067   8.234   8.316   4.854 -0.7235 -0.3401  0.3740
  327MOL0     O44068   8.325   8.407   4.906 -0.7133 -0.0951 -0.8508
  327MOL0     C44069   8.318   8.546   4.854 -0.1363  0.3380  1.0995
  327MOL0     C44070   8.423   8.616   4.945  0.3686 -0.2286  1.4019
  327MOL0     C44071   8.415   8.774   4.918  0.4890 -0.4870  0.7787
  327MOL0     C44072   8.543   8.833   4.966 -0.6830  1.0831 -0.3006
  327MOL0     C44073   8.569   8.820   5.107  0.7866 -0.6445  0.0161
  327MOL0     C44074   8.590   8.840   5.223 -0.5975 -0.6395  0.3068
  327MOL0     C44075   8.115   8.350   4.778 -0.0747  0.8986  0.9707
  327MOL0     C44076   8.021   8.245   4.746 -0.7281 -0.3367  1.1226
  327MOL0     C44077   7.895   8.289   4.683  0.2328 -0.1780 -0.2698
  327MOL0     H44078   7.617   7.973   4.685 -0.9976 -0.0746 -1.4161
  327MOL0     H44079   7.490   7.798   4.577 -0.7508 -0.6747 -0.2003
  327MOL0     H44080   7.434   7.737   4.333  2.7820  2.8852 -0.0359
  327MOL0     H44081   7.577   7.719   4.227  0.9912 -0.3600  1.6263
  327MOL0     H44082   7.402   7.622   4.111 -0.4970 -1.5917 -0.0024
  327MOL0     H44083   7.348   7.516   4.226  1.4557 -2.7177  0.0279
  327MOL0     H44084   7.489   7.386   4.094 -0.6430  3.2846 -1.5526
  327MOL0     H44085   7.590   7.407   4.236 -0.7485 -0.0172  0.5432
  327MOL0     H44086   7.596   7.542   3.957 -2.1045 -1.4040  1.1847
  327MOL0     H44087   7.709   7.598   4.087 -0.4002 -0.2209  0.2185
  327MOL0     H44088   7.713   7.319   3.990 -0.5965  0.3289  0.0150
  327MOL0     H44089   7.815   7.434   3.924  2.2376 -3.5743  0.2071
  327MOL0     H44090   7.901   7.489   4.161  0.3601  0.5781 -3.2490
  327MOL0     H44091   7.798   7.356   4.214  1.5705 -4.6713 -0.1966
  327MOL0     H44092   7.927   7.212   4.033 -2.3071  2.2310 -2.6497
  327MOL0     H44093   8.012   7.255   4.178  2.2174  2.1753 -0.8811
  327MOL0     H44094   8.158   7.292   3.975 -0.8584 -0.5895 -0.7325
  327MOL0     H44095   8.029   7.390   3.906  0.8307  0.7718  0.0255
  327MOL0     H44096   8.306   7.398   4.162  1.8621  1.6841 -0.0325
  327MOL0     H44097   8.305   7.736   4.353 -3.4845 -3.1636 -0.9988
  327MOL0     H44098   8.401   7.591   4.371  4.6760 -0.2383  0.2609
  327MOL0     H44099   8.536   7.652   4.169 -0.3946  1.0266 -1.5181
  327MOL0     H44100   8.451   7.806   4.153 -4.4872  0.0950  1.2404
  327MOL0     H44101   8.614   7.727   4.392 -2.0992 -1.9326 -0.5349
  327MOL0     H44102   8.511   7.867   4.393 -4.6406  1.0252 -2.7496
  327MOL0     H44103   8.719   7.943   4.349 -3.4469 -0.3444  0.6326
  327MOL0     H44104   8.630   7.973   4.193 -1.6777  0.1339  0.5573
  327MOL0     H44105   8.834   8.093   4.223 -0.4774  4.1230 -3.6409
  327MOL0     H44106   9.062   8.178   4.228  0.4807 -0.0914  0.0835
  327MOL0     H44107   9.511   8.239   4.119  0.2534  0.8689 -0.7431
  327MOL0     H44108   9.745   8.297   4.062 -0.7107 -0.2464  2.6030
  327MOL0     H44109  10.003   8.109   3.713  0.2013  1.1722  1.0290
  327MOL0     H44110   9.838   8.104   3.659 -0.0852  1.3478 -1.7800
  327MOL0     H44111   9.856   8.373   3.695 -2.2115 -2.4888 -0.0501
  327MOL0     H44112  10.033   8.330   3.673 -0.4120  1.2846 -2.6291
  327MOL0     H44113  10.008   8.202   3.475  0.4981 -1.0416  1.1922
  327MOL0     H44114   9.847   8.272   3.446  0.7804  0.6694 -0.2104
  327MOL0     H44115  10.097   8.423   3.487 -0.9225  1.9274  1.2321
  327MOL0     H44116   9.942   8.502   3.468  0.5406  0.1164 -0.6282
  327MOL0     H44117   9.929   8.356   3.246 -2.6262  0.9583  4.3280
  327MOL0     H44118  10.102   8.330   3.270  1.2737  0.4825  0.3377
  327MOL0     H44119  10.013   8.618   3.283  0.1111  0.1207  0.2208
  327MOL0     H44120  10.173   8.555   3.269 -0.8753  1.1542 -0.6890
  327MOL0     H44121  10.148   8.451   3.057  0.0634  0.3587 -2.6021
  327MOL0     H44122  10.165   8.618   3.065  3.0871 -1.8144  0.0461
  327MOL0     H44123  10.000   8.616   2.913 -1.3643  2.3877  0.1555
  327MOL0     H44124   9.928   8.464   2.991 -0.1280  0.9108  0.4483
  327MOL0     H44125   9.763   7.946   3.812 -0.8886 -2.3673  2.9962
  327MOL0     H44126   9.536   7.876   3.902  0.7362 -0.6592  1.7049
  327MOL0     H44127   9.207   7.832   4.045 -0.5735 -0.3183  0.6784
  327MOL0     H44128   8.997   7.716   4.099  0.5391  0.1730  2.4754
  327MOL0     H44129   7.816   7.617   4.394  0.0462 -1.3187  3.3930
  327MOL0     H44130   7.967   7.790   4.496 -0.1514  2.8367 -3.0072
  327MOL0     H44131   8.188   7.988   4.899  1.1588  0.0248 -0.8716
  327MOL0     H44132   8.351   8.153   4.935 -0.8765  0.4011  1.0971
  327MOL0     H44133   8.223   8.601   4.856  2.4549  5.4046  1.2172
  327MOL0     H44134   8.353   8.540   4.751 -5.2147 -1.0288 -0.8559
  327MOL0     H44135   8.527   8.590   4.925  0.1968 -1.8744  2.4497
  327MOL0     H44136   8.407   8.598   5.052  1.9976  1.5309  2.0026
  327MOL0     H44137   8.327   8.822   4.963 -0.0579  0.6648 -1.4078
  327MOL0     H44138   8.406   8.805   4.814  0.0215  0.6358  1.1376
  327MOL0     H44139   8.621   8.788   4.903 -0.6772  0.9203 -0.1814
  327MOL0     H44140   8.547   8.939   4.940 -2.9819  2.4066  3.8497
  327MOL0     H44141   8.617   8.888   5.315 -1.5406  1.6050 -0.5008
  327MOL0     H44142   8.082   8.452   4.761 -0.0902  0.6602 -0.5310
  327MOL0     H44143   7.892   8.396   4.661 -0.8007 -0.4177 -1.4065
  327MOL0     H44144   7.880   8.242   4.586 -0.2723  0.1988 -0.3755
  327MOL0     H44145   7.811   8.250   4.741 -1.2109 -2.0671 -3.3663
  328MOL0     O44146   5.596   8.528   4.880  0.1249  0.9262  0.0246
  328MOL0     C44147   5.625   8.503   4.996  0.0806 -0.4688  0.2191
  328MOL0     O44148   5.625   8.599   5.088 -0.0318 -0.6842 -0.8385
  328MOL0     C44149   5.596   8.728   5.056 -0.3732  0.3141  0.9417
  328MOL0     C44150   5.695   8.829   5.054  0.5758 -1.0897 -0.6087
  328MOL0     C44151   5.657   8.955   5.005 -0.1806  0.7618 -0.4162
  328MOL0     C44152   5.525   8.987   4.966 -0.4759 -0.0715 -0.3895
  328MOL0     O44153   5.496   9.122   4.957 -0.8678  0.3707 -0.8347
  328MOL0     C44154   5.409   9.165   5.055  0.4663 -0.1897 -0.0023
  328MOL0     C44155   5.473   9.298   5.104  0.2433 -0.4282 -1.0254
  328MOL0     C44156   5.459   9.422   5.004 -0.7425  0.5275 -0.0240
  328MOL0     C44157   5.587   9.434   4.906 -0.5994 -0.6425 -0.3887
  328MOL0     C44158   5.567   9.549   4.801 -0.1087  0.0492  0.0371
  328MOL0     C44159   5.698   9.572   4.726 -0.9768 -0.2701  1.3115
  328MOL0     C44160   5.733   9.457   4.611  0.3437 -0.2494  0.3958
  328MOL0     C44161   5.625   9.479   4.508  0.3169  0.1962 -0.1867
  328MOL0     N44162   5.685   9.463   4.368  1.1371 -0.6629 -0.5183
  328MOL0     C44163   5.663   9.363   4.283 -1.1638 -1.2616  0.0453
  328MOL0     C44164   5.774   9.357   4.199  0.5262 -1.1571 -0.2940
  328MOL0     C44165   5.808   9.255   4.103  0.5806 -0.0322  0.1374
  328MOL0     C44166   5.779   9.308   3.956  0.4852  0.3956  0.9543
  328MOL0     C44167   5.758   9.206   3.841 -0.9132  0.3076 -0.1124
  328MOL0     C44168   5.667   9.088   3.854 -0.4815  0.1876  0.2278
  328MOL0     O44169   5.734   8.988   3.938  0.7034 -0.4872 -0.3762
  328MOL0     C44170   5.641   8.898   3.984 -0.7328 -0.0780  0.4978
  328MOL0     C44171   5.538   8.836   3.910  0.2389  0.2945 -0.9252
  328MOL0     C44172   5.441   8.771   3.979  0.3769 -0.0694  0.4548
  328MOL0     C44173   5.439   8.757   4.123 -0.0252 -0.2329  0.6740
  328MOL0     C44174   5.313   8.717   4.187  0.1484  0.2321 -0.7553
  328MOL0     O44175   5.321   8.712   4.324 -0.0072 -0.1604  0.2258
  328MOL0     C44176   5.205   8.697   4.396  0.4460  0.5594  0.1926
  328MOL0     C44177   5.092   8.782   4.381  1.3709 -0.4210 -0.4361
  328MOL0     C44178   4.972   8.749   4.458  0.5002 -0.5567 -0.6672
  328MOL0     C44179   4.978   8.637   4.548 -0.0724 -0.5448  0.7379
  328MOL0     O44180   4.860   8.622   4.621  0.4399 -0.1735  0.3581
  328MOL0     C44181   4.876   8.579   4.758  0.3542 -0.4637  0.4255
  328MOL0     C44182   4.769   8.650   4.843  0.1453 -0.3622 -0.8302
  328MOL0     C44183   4.624   8.609   4.807  0.1441  0.1910  0.4200
  328MOL0     C44184   4.530   8.658   4.918 -0.7146 -1.3868  0.3129
  328MOL0     C44185   4.381   8.656   4.873  0.4158 -0.5998  0.2255
  328MOL0     C44186   4.292   8.733   4.969 -0.3586  0.3984  0.0044
  328MOL0     C44187   4.145   8.755   4.918 -0.2828 -0.5694  0.1734
  328MOL0     C44188   4.034   8.714   5.023  0.5914 -0.5308 -0.3828
  328MOL0    Cl44189   4.084   8.788   5.169  0.0488 -0.3013 -0.5407
  328MOL0     C44190   5.090   8.561   4.567  0.5556  0.3473 -0.2509
  328MOL0     C44191   5.201   8.589   4.485 -0.3370  0.5739 -0.3871
  328MOL0     O44192   5.213   8.688   4.121 -0.2399  0.8403  0.7726
  328MOL0     C44193   5.537   8.821   4.197 -0.3270  0.1874  0.5571
  328MOL0     C44194   5.635   8.893   4.127 -1.0555 -0.1630  0.0322
  328MOL0     N44195   5.857   9.471   4.224 -0.8834 -0.1257  0.5892
  328MOL0     N44196   5.805   9.524   4.333  0.1875 -0.6192  0.8793
  328MOL0     C44197   5.434   8.884   4.965 -0.0635 -0.5443  0.3093
  328MOL0     C44198   5.467   8.754   5.005 -0.5901 -0.6670 -0.4893
  328MOL0     C44199   5.662   8.362   5.048 -0.1203  0.2363 -0.0447
  328MOL0     C44200   5.622   8.345   5.184 -0.2918  0.3342 -0.0252
  328MOL0     C44201   5.633   8.217   5.246 -0.5618 -0.2115 -0.3561
  328MOL0     C44202   5.704   8.123   5.181  0.3732  1.1919  0.0219
  328MOL0     O44203   5.712   7.999   5.253  0.5458 -0.4642  0.8332
  328MOL0     C44204   5.654   7.872   5.195  0.1914 -0.3949  0.7436
  328MOL0     C44205   5.497   7.865   5.200 -0.1781 -0.3078  1.0797
  328MOL0     C44206   5.430   7.735   5.149 -0.4734  0.3997  0.4858
  328MOL0     C44207   5.458   7.747   4.999  0.0745  0.1438  0.4992
  328MOL0     C44208   5.374   7.647   4.925 -0.0454 -0.7530 -0.1598
  328MOL0     C44209   5.320   7.563   4.861  0.2111 -0.3896  0.5323
  328MOL0     C44210   5.740   8.139   5.046 -0.2180  0.4730  0.1917
  328MOL0     C44211   5.706   8.256   4.976 -0.0017  0.5064 -0.1118
  328MOL0     C44212   5.754   8.271   4.836 -0.3347 -0.3623 -0.3444
  328MOL0     H44213   5.795   8.803   5.088  0.8055 -0.7586 -1.0209
  328MOL0     H44214   5.721   9.041   4.988  0.0753  0.1801 -2.7840
  328MOL0     H44215   5.312   9.182   5.007  1.2349  1.6127 -0.9773
  328MOL0     H44216   5.401   9.094   5.138  1.0382  0.1725  0.3644
  328MOL0     H44217   5.575   9.283   5.142 -0.1260  1.0427  0.6724
  328MOL0     H44218   5.418   9.317   5.196  2.7544 -3.5755  1.3715
  328MOL0     H44219   5.451   9.519   5.054 -0.5150 -1.0009  3.2119
  328MOL0     H44220   5.366   9.417   4.947 -0.9309  1.1282  0.2234
  328MOL0     H44221   5.675   9.441   4.970 -2.1757  1.5244  1.6875
  328MOL0     H44222   5.606   9.337   4.858  1.9255  0.2958 -1.4502
  328MOL0     H44223   5.481   9.530   4.736 -1.3579 -0.8466  1.8441
  328MOL0     H44224   5.531   9.635   4.859  3.4127  0.1466  2.3504
  328MOL0     H44225   5.695   9.670   4.678  0.3636 -0.8489 -0.0291
  328MOL0     H44226   5.787   9.578   4.789  1.5789 -2.6878 -1.7218
  328MOL0     H44227   5.732   9.358   4.657 -0.3758 -1.1799 -1.5424
  328MOL0     H44228   5.833   9.475   4.571 -1.2492  1.5528 -3.1901
  328MOL0     H44229   5.543   9.410   4.529  1.5111 -1.3702 -0.4996
  328MOL0     H44230   5.591   9.583   4.516 -3.3304 -0.7689 -1.5864
  328MOL0     H44231   5.591   9.283   4.302  1.2540 -3.8909 -1.0856
  328MOL0     H44232   5.914   9.232   4.108  0.8897  1.5605  2.0547
  328MOL0     H44233   5.746   9.165   4.116 -0.0185  0.3751  0.1508
  328MOL0     H44234   5.696   9.379   3.956 -0.2050 -0.1613 -3.4648
  328MOL0     H44235   5.863   9.370   3.923 -0.1487  0.2236 -1.1075
  328MOL0     H44236   5.858   9.168   3.814  0.9363  2.2215  3.2884
  328MOL0     H44237   5.732   9.263   3.752 -2.8265 -1.1573 -0.5614
  328MOL0     H44238   5.648   9.051   3.754 -1.2695  1.1864 -0.0115
  328MOL0     H44239   5.576   9.119   3.908  0.3346  2.4829  0.3977
  328MOL0     H44240   5.537   8.834   3.801 -0.8659  0.0037 -0.9214
  328MOL0     H44241   5.350   8.742   3.927 -0.1410  1.6901  0.3358
  328MOL0     H44242   5.110   8.856   4.304  3.0535 -0.3692 -0.0376
  328MOL0     H44243   4.889   8.818   4.451  0.6918 -0.4473 -2.1227
  328MOL0     H44244   4.853   8.475   4.782 -0.2170  0.2851  3.5736
  328MOL0     H44245   4.973   8.598   4.803 -0.3198 -1.5741  2.4839
  328MOL0     H44246   4.786   8.632   4.950 -3.5289  0.4018  0.0049
  328MOL0     H44247   4.771   8.759   4.834 -2.7217 -0.1436  0.3162
  328MOL0     H44248   4.599   8.651   4.709  1.2542  0.4037  0.2042
  328MOL0     H44249   4.610   8.501   4.810  1.2041  0.0283  0.0360
  328MOL0     H44250   4.561   8.755   4.957 -0.4639  0.6642 -4.3756
  328MOL0     H44251   4.539   8.584   4.998 -2.2524  0.1896  2.0313
  328MOL0     H44252   4.342   8.555   4.856 -4.1448  1.2776 -2.0545
  328MOL0     H44253   4.367   8.693   4.772 -1.0785  0.1217  0.6662
  328MOL0     H44254   4.293   8.684   5.067  1.3729 -0.4433 -0.3974
  328MOL0     H44255   4.340   8.830   4.986  1.5497 -0.2414 -1.4009
  328MOL0     H44256   4.135   8.703   4.822  5.5627  1.1151 -1.8186
  328MOL0     H44257   4.124   8.856   4.881  0.1551 -1.7772 -3.9078
  328MOL0     H44258   3.937   8.757   4.999 -0.0943 -0.2893  2.4753
  328MOL0     H44259   4.019   8.608   5.044 -2.1522 -0.0263  0.5516
  328MOL0     H44260   5.090   8.469   4.624 -0.7598  0.7495  0.4385
  328MOL0     H44261   5.283   8.519   4.474  0.3299  1.3931 -0.6553
  328MOL0     H44262   5.529   8.818   4.305 -0.8720 -0.8444  0.4956
  328MOL0     H44263   5.714   8.949   4.176  2.2591 -2.9980 -1.5961
  328MOL0     H44264   5.335   8.915   4.934  0.2575  0.6871  0.4861
  328MOL0     H44265   5.396   8.672   4.993  1.2591 -2.3490 -0.4876
  328MOL0     H44266   5.580   8.428   5.241 -0.8651 -0.2752  0.4563
  328MOL0     H44267   5.600   8.206   5.349  1.0409  1.0170  0.3389
  328MOL0     H44268   5.710   7.792   5.243 -1.8634 -1.6913  1.0822
  328MOL0     H44269   5.684   7.872   5.090 -2.6177  0.4215 -0.1284
  328MOL0     H44270   5.448   7.951   5.153  2.1964  1.9115  2.3809
  328MOL0     H44271   5.478   7.876   5.307  0.5836  1.2803  1.0921
  328MOL0     H44272   5.323   7.722   5.170 -0.7323 -1.2729 -1.5302
  328MOL0     H44273   5.480   7.653   5.200 -0.7950  0.7966  1.4676
  328MOL0     H44274   5.446   7.850   4.963  0.1574  1.1679  3.1385
  328MOL0     H44275   5.562   7.723   4.975 -0.0848  1.5625 -1.9444
  328MOL0     H44276   5.283   7.488   4.795  1.9965 -2.9760  2.2786
  328MOL0     H44277   5.779   8.049   5.000 -1.3358  1.1702 -2.2619
  328MOL0     H44278   5.755   8.168   4.798 -2.3088 -0.5692  0.0442
  328MOL0     H44279   5.676   8.314   4.773 -0.9402 -0.1351  0.5493
  328MOL0     H44280   5.844   8.330   4.813 -1.3534  0.8769 -1.3322
  329MOL0     O44281   9.913   7.730   1.807 -0.0437  0.3599 -0.2490
  329MOL0     C44282   9.899   7.759   1.926  0.4586 -0.4762  1.0300
  329MOL0     O44283   9.897   7.889   1.969 -0.6622  1.3304  0.9238
  329MOL0     C44284   9.936   7.984   1.880 -0.4506  0.6240  0.7703
  329MOL0     C44285  10.072   7.983   1.834  0.6530 -0.4408 -0.0480
  329MOL0     C44286  10.119   8.084   1.749  1.0492 -0.9957 -0.3680
  329MOL0     C44287  10.024   8.184   1.706 -0.6901 -0.3953  0.2933
  329MOL0     O44288  10.073   8.263   1.610  0.7738 -1.2336 -0.1554
  329MOL0     C44289   9.994   8.325   1.510  0.1335  0.2359  1.1181
  329MOL0     C44290  10.044   8.476   1.475 -0.4559  0.4328  0.6601
  329MOL0     C44291  10.011   8.528   1.337 -1.0179  1.0353 -0.5693
  329MOL0     C44292  10.046   8.670   1.318  0.2584 -0.6184  0.3971
  329MOL0     C44293   9.999   8.717   1.183  1.0512  0.3065 -0.3171
  329MOL0     C44294  10.046   8.859   1.153 -0.0924  0.8399  0.2105
  329MOL0     C44295   9.979   8.953   1.242 -0.3015 -1.0311 -0.1367
  329MOL0     C44296  10.076   9.073   1.266  0.1718  0.0684 -0.7343
  329MOL0     N44297  10.040   9.181   1.357 -0.2214 -0.0229  0.6453
  329MOL0     C44298   9.917   9.238   1.356  0.0924 -0.4595 -0.6565
  329MOL0     C44299   9.938   9.350   1.426 -0.0684  0.0087 -0.2394
  329MOL0     C44300   9.828   9.450   1.468 -0.1005 -0.0763 -0.0060
  329MOL0     C44301   9.790   9.556   1.364  0.3876  0.5807  0.0940
  329MOL0     C44302   9.738   9.683   1.442  0.6893  0.1902 -0.2179
  329MOL0     C44303   9.697   9.797   1.347 -0.4339 -0.4399 -1.0658
  329MOL0     O44304   9.792   9.904   1.340  0.1470  0.2316  0.1364
  329MOL0     C44305   9.921   9.880   1.292  0.8210  0.6886  0.2948
  329MOL0     C44306   9.956   9.865   1.153  0.5510  0.0366  0.5110
  329MOL0     C44307  10.082   9.878   1.116 -0.8687 -0.1506  0.0903
  329MOL0     C44308  10.190   9.896   1.206  0.4162  0.0294 -0.8590
  329MOL0     C44309  10.324   9.914   1.167 -1.0503  0.3076 -0.9100
  329MOL0     O44310  10.427   9.858   1.238  0.6193 -0.3348 -0.6305
  329MOL0     C44311  10.548   9.845   1.179  1.5587  0.6960  1.0350
  329MOL0     C44312  10.562   9.795   1.044  0.0081  0.1538  0.6850
  329MOL0     C44313  10.681   9.830   0.975  0.2623 -0.3795 -0.3140
  329MOL0     C44314  10.793   9.872   1.047 -0.2479 -0.9260  0.9232
  329MOL0     O44315  10.916   9.914   1.006 -0.1821  0.0368 -0.2113
  329MOL0     C44316  10.940   9.857   0.871  0.1018 -0.4719  0.2895
  329MOL0     C44317  11.088   9.894   0.833 -0.2763  0.3258  0.2512
  329MOL0     C44318  11.198   9.820   0.929  0.7151 -0.0318 -0.4057
  329MOL0     C44319  11.220   9.670   0.890  0.4804  0.2925 -0.9505
  329MOL0     C44320  11.312   9.588   0.987  0.2699 -0.8132 -0.2941
  329MOL0     C44321  11.287   9.608   1.135 -0.6462  0.2707 -1.1425
  329MOL0     C44322  11.138   9.560   1.171 -0.2584  0.4720 -0.2344
  329MOL0     C44323  11.106   9.592   1.314 -0.2232 -0.0946  0.2685
  329MOL0    Cl44324  11.208   9.491   1.431  0.7117  0.2559  0.0352
  329MOL0     C44325  10.772   9.890   1.187  0.6015  0.5056  0.4403
  329MOL0     C44326  10.654   9.883   1.250  0.7095  0.8366  0.2846
  329MOL0     O44327  10.336  10.002   1.083 -0.2002  0.8426 -0.0804
  329MOL0     C44328  10.160   9.894   1.338  0.2002  0.0181 -0.9214
  329MOL0     C44329  10.028   9.891   1.383 -0.0654  0.9873 -0.8068
  329MOL0     N44330  10.075   9.368   1.460  0.9043  0.1465  0.0144
  329MOL0     N44331  10.135   9.263   1.417  0.4817  1.4126  0.4085
  329MOL0     C44332   9.889   8.178   1.745 -1.3112 -0.7680 -0.1991
  329MOL0     C44333   9.854   8.090   1.846 -0.0083  0.4073  1.0747
  329MOL0     C44334   9.895   7.646   2.028 -0.7917  0.0104  0.1530
  329MOL0     C44335   9.941   7.520   1.988 -0.4114 -0.1564 -0.2027
  329MOL0     C44336   9.955   7.419   2.080  0.3290  0.3672 -1.1541
  329MOL0     C44337   9.947   7.449   2.221 -0.2480 -0.2324  1.0793
  329MOL0     O44338   9.967   7.350   2.313  0.1150 -0.1647  0.0663
  329MOL0     C44339  10.079   7.267   2.307 -0.8886  0.1933  0.3319
  329MOL0     C44340  10.039   7.141   2.375  0.4556  0.0168 -0.4215
  329MOL0     C44341   9.924   7.065   2.303 -0.8355  0.1968  0.0261
  329MOL0     C44342   9.925   6.912   2.312 -0.7013 -0.5543  0.0953
  329MOL0     C44343   9.906   6.869   2.446 -0.8962 -0.7331 -0.5509
  329MOL0     C44344   9.901   6.829   2.562 -0.2349 -0.1813 -0.0916
  329MOL0     C44345   9.897   7.575   2.253  0.2933  0.2010  0.6035
  329MOL0     C44346   9.862   7.673   2.158 -1.0702 -0.5342  0.0025
  329MOL0     C44347   9.788   7.798   2.213  0.5854  0.2197 -0.4425
  329MOL0     H44348  10.134   7.903   1.873 -0.1821 -0.9588  0.2511
  329MOL0     H44349  10.222   8.095   1.718  0.4205  0.8582 -1.9714
  329MOL0     H44350  10.016   8.268   1.419 -0.8765  3.1015 -1.0633
  329MOL0     H44351   9.889   8.331   1.538  0.1377  0.9612  1.0021
  329MOL0     H44352  10.153   8.469   1.468 -0.3371  2.3795 -0.1686
  329MOL0     H44353  10.013   8.538   1.560 -0.9776  0.4886  0.4367
  329MOL0     H44354   9.904   8.531   1.316 -0.8867  2.4094 -1.1256
  329MOL0     H44355  10.068   8.462   1.272 -1.8190 -0.7225  0.4378
  329MOL0     H44356  10.013   8.732   1.402  0.2468  0.9422 -0.7259
  329MOL0     H44357  10.155   8.679   1.317  0.0949  2.4676 -1.5957
  329MOL0     H44358  10.031   8.643   1.108  1.4973  1.3663 -1.2002
  329MOL0     H44359   9.890   8.715   1.196  1.1538 -3.3052  1.3688
  329MOL0     H44360  10.155   8.869   1.161  0.5079 -2.3764 -2.0805
  329MOL0     H44361  10.017   8.881   1.050 -1.6995  1.1907  0.7037
  329MOL0     H44362   9.941   8.916   1.338 -1.7817  0.7159 -0.0072
  329MOL0     H44363   9.893   9.000   1.194  1.0187  1.1018 -0.5409
  329MOL0     H44364  10.160   9.033   1.325 -0.5462 -1.1152 -0.4798
  329MOL0     H44365  10.124   9.108   1.174  2.5430  0.9395  0.7248
  329MOL0     H44366   9.828   9.192   1.317  0.5042 -1.9820  0.1237
  329MOL0     H44367   9.743   9.391   1.504  0.9196 -1.0342  0.9051
  329MOL0     H44368   9.860   9.509   1.554 -3.7444  1.0753  0.7077
  329MOL0     H44369   9.883   9.578   1.312 -0.6621  1.0889 -1.6534
  329MOL0     H44370   9.715   9.509   1.300  1.6722 -0.9323 -0.3454
  329MOL0     H44371   9.811   9.732   1.508  1.2895  2.3934 -2.3838
  329MOL0     H44372   9.666   9.649   1.518  2.2640  1.6401  2.0427
  329MOL0     H44373   9.593   9.822   1.370 -1.3820 -5.0932  0.8743
  329MOL0     H44374   9.683   9.753   1.247 -0.0112  0.4094 -1.5029
  329MOL0     H44375   9.875   9.854   1.080  0.7640 -1.6080  0.5064
  329MOL0     H44376  10.114   9.887   1.013  1.3351 -1.7731  0.5709
  329MOL0     H44377  10.481   9.764   0.979 -4.5891  1.2124  5.2185
  329MOL0     H44378  10.696   9.811   0.869  2.9104  2.5590 -0.6082
  329MOL0     H44379  10.937   9.748   0.876 -1.2603 -0.3905  3.1008
  329MOL0     H44380  10.874   9.896   0.793 -0.3953 -0.0098  0.9314
  329MOL0     H44381  11.107   9.864   0.730 -0.1386 -0.8141  0.6022
  329MOL0     H44382  11.110  10.001   0.840 -0.1263  0.4300 -1.4435
  329MOL0     H44383  11.291   9.878   0.921  0.9307 -0.1143  1.1103
  329MOL0     H44384  11.163   9.834   1.032  0.4225  2.5392 -0.7862
  329MOL0     H44385  11.274   9.674   0.795 -0.5825  0.0426 -1.5782
  329MOL0     H44386  11.124   9.620   0.876  0.9691 -1.0583  0.3729
  329MOL0     H44387  11.416   9.611   0.961  0.2843 -0.0709  0.3672
  329MOL0     H44388  11.287   9.486   0.959 -1.5945 -0.1384 -1.3364
  329MOL0     H44389  11.358   9.563   1.206 -0.7136  1.5586 -0.2276
  329MOL0     H44390  11.292   9.715   1.158 -1.8362 -0.1327  1.4105
  329MOL0     H44391  11.128   9.451   1.164 -1.4659  0.4923  0.7281
  329MOL0     H44392  11.056   9.607   1.115 -1.9577 -1.2967  0.6384
  329MOL0     H44393  11.135   9.696   1.334  0.2706  0.0818 -1.2642
  329MOL0     H44394  11.000   9.568   1.331 -0.4524  0.7503  0.0807
  329MOL0     H44395  10.854   9.934   1.243 -0.9157  0.6223  2.7418
  329MOL0     H44396  10.641   9.892   1.358 -1.5893  0.9493  0.0483
  329MOL0     H44397  10.231   9.883   1.419 -2.3817 -4.3993  1.1385
  329MOL0     H44398  10.021   9.883   1.491  1.3517 -3.2273 -0.8326
  329MOL0     H44399   9.808   8.236   1.703 -0.3070  0.1595 -0.9120
  329MOL0     H44400   9.758   8.077   1.894  0.3233 -1.5114  1.3107
  329MOL0     H44401   9.966   7.494   1.885 -3.2974  0.3949 -1.1312
  329MOL0     H44402   9.993   7.323   2.047  1.6751 -0.0462  1.3716
  329MOL0     H44403  10.155   7.313   2.370 -1.0946  1.3424 -0.2395
  329MOL0     H44404  10.118   7.232   2.211 -0.3384  0.6546  0.3844
  329MOL0     H44405   9.999   7.161   2.474  1.7958  1.6215 -0.1676
  329MOL0     H44406  10.128   7.081   2.399  2.4077  2.4339 -1.1134
  329MOL0     H44407   9.929   7.089   2.197  0.7215  1.3124  0.3168
  329MOL0     H44408   9.826   7.101   2.335 -1.3189  0.2886 -1.5081
  329MOL0     H44409   9.845   6.873   2.249  0.7619 -1.0047 -1.5762
  329MOL0     H44410  10.015   6.865   2.270 -1.6109 -3.6355  1.3348
  329MOL0     H44411   9.904   6.786   2.660  2.2630  1.7523  0.7753
  329MOL0     H44412   9.846   7.594   2.347 -2.4351  0.7915 -0.8639
  329MOL0     H44413   9.690   7.824   2.172 -0.5408  2.1415  2.9968
  329MOL0     H44414   9.773   7.785   2.321  2.4518 -2.4428 -0.4208
  329MOL0     H44415   9.844   7.890   2.198  0.7616  0.2370  0.2874
  330MOL0     O44416   6.372   2.019   6.599 -0.0809 -0.1762  0.0777
  330MOL0     C44417   6.352   2.043   6.484 -0.2527 -1.1338 -0.0059
  330MOL0     O44418   6.233   2.019   6.414 -0.5059  0.3500 -0.0343
  330MOL0     C44419   6.138   1.922   6.446 -0.5296  0.7250 -2.2519
  330MOL0     C44420   6.166   1.807   6.521  0.6269  0.4852 -0.7031
  330MOL0     C44421   6.068   1.708   6.535 -0.0966 -0.3789 -1.3465
  330MOL0     C44422   5.938   1.741   6.519  0.6388  0.1520  0.2163
  330MOL0     O44423   5.843   1.639   6.549 -0.0915 -0.0266 -0.1447
  330MOL0     C44424   5.725   1.645   6.478  0.7577  0.1673  0.1043
  330MOL0     C44425   5.648   1.510   6.487 -0.3174  0.3031  0.9990
  330MOL0     C44426   5.526   1.513   6.403  0.0896 -0.4664  0.8887
  330MOL0     C44427   5.396   1.565   6.454  0.6375 -1.1347 -0.6814
  330MOL0     C44428   5.282   1.522   6.364 -0.5200  0.1993 -0.0060
  330MOL0     C44429   5.152   1.586   6.422  0.3898  0.2703  0.3114
  330MOL0     C44430   5.036   1.538   6.323 -0.3892  0.6775  0.2734
  330MOL0     C44431   4.998   1.389   6.320 -0.3986 -0.9375  0.9210
  330MOL0     N44432   5.071   1.316   6.215  0.0628  0.2233 -1.2307
  330MOL0     C44433   5.158   1.214   6.247 -0.3280  0.4246  0.4741
  330MOL0     C44434   5.182   1.145   6.133  0.3076  0.4110 -0.1316
  330MOL0     C44435   5.269   1.019   6.114  0.9070 -0.2216  0.2782
  330MOL0     C44436   5.216   0.898   6.021 -0.1759  0.0068 -0.2261
  330MOL0     C44437   5.331   0.805   5.982  0.0631 -0.8537  0.0519
  330MOL0     C44438   5.383   0.726   6.097  0.2678 -0.0967 -0.9368
  330MOL0     O44439   5.276   0.648   6.157 -0.1099  0.5138  0.1439
  330MOL0     C44440   5.295   0.508   6.171 -0.0604 -0.5832 -0.6625
  330MOL0     C44441   5.228   0.456   6.280 -0.6297  0.1934 -0.1795
  330MOL0     C44442   5.206   0.319   6.276  0.1149  0.7541 -0.1010
  330MOL0     C44443   5.267   0.228   6.178 -0.1530 -0.2993 -0.5200
  330MOL0     C44444   5.231   0.087   6.168 -1.0014 -0.7442  0.4093
  330MOL0     O44445   5.164   0.041   6.273  0.4208 -0.0135  0.0847
  330MOL0     C44446   5.112  -0.088   6.272  0.3452  0.2616  0.4085
  330MOL0     C44447   5.150  -0.167   6.381 -0.1379 -0.0588 -0.0184
  330MOL0     C44448   5.090  -0.301   6.395 -0.6275  0.0941  0.2793
  330MOL0     C44449   5.001  -0.345   6.294  0.2560 -0.2899 -0.5616
  330MOL0     O44450   4.953  -0.472   6.292 -0.5857  0.0742 -0.8786
  330MOL0     C44451   4.955  -0.565   6.396 -0.3281 -0.1662  0.5645
  330MOL0     C44452   4.904  -0.703   6.337  0.1905 -0.7235 -0.8076
  330MOL0     C44453   4.762  -0.735   6.390 -0.3031 -0.0985  0.5885
  330MOL0     C44454   4.667  -0.646   6.316 -0.1803 -1.2938  0.0989
  330MOL0     C44455   4.531  -0.653   6.379  0.2213  0.0886  0.5633
  330MOL0     C44456   4.451  -0.784   6.372 -0.8168  0.7528 -0.3028
  330MOL0     C44457   4.432  -0.857   6.235 -0.7438 -0.0053  0.4405
  330MOL0     C44458   4.389  -1.003   6.244 -0.1708 -0.2611 -0.0994
  330MOL0    Cl44459   4.268  -1.028   6.380 -0.3829 -0.1954 -0.0844
  330MOL0     C44460   4.974  -0.258   6.182 -0.0201  0.4762 -0.5320
  330MOL0     C44461   5.029  -0.133   6.170 -0.0275 -0.7700  0.3114
  330MOL0     O44462   5.274   0.023   6.074  0.3861  0.1221  0.3141
  330MOL0     C44463   5.337   0.285   6.072 -0.4299  0.1649 -0.4311
  330MOL0     C44464   5.361   0.430   6.073 -0.2444  1.5135  0.9212
  330MOL0     N44465   5.121   1.207   6.032 -0.0384 -0.8725  0.3194
  330MOL0     N44466   5.049   1.303   6.081 -0.1416 -0.5772  0.2579
  330MOL0     C44467   5.906   1.858   6.437  0.3643 -0.5933 -0.3784
  330MOL0     C44468   6.010   1.944   6.407  0.7342  1.3148  0.5701
  330MOL0     C44469   6.460   2.118   6.414 -0.8393  0.7184 -0.7302
  330MOL0     C44470   6.431   2.149   6.281  0.3013 -0.0779  0.0603
  330MOL0     C44471   6.521   2.218   6.196 -0.4271  0.3087  0.8599
  330MOL0     C44472   6.647   2.256   6.246  0.0748  0.1329 -0.4099
  330MOL0     O44473   6.751   2.296   6.160  0.1515 -0.3163  0.1387
  330MOL0     C44474   6.736   2.265   6.012  0.0121 -0.8045 -0.6153
  330MOL0     C44475   6.876   2.263   5.949 -0.2428 -0.6573  0.1498
  330MOL0     C44476   6.954   2.396   5.945 -0.5054  0.6736  0.1621
  330MOL0     C44477   6.903   2.509   5.851  0.3017  0.8053 -1.0889
  330MOL0     C44478   6.929   2.485   5.710 -1.0737  0.8623  0.8504
  330MOL0     C44479   6.948   2.496   5.589 -0.2266 -0.7171 -0.0971
  330MOL0     C44480   6.673   2.244   6.385  0.0331  0.3255  0.1031
  330MOL0     C44481   6.583   2.172   6.466 -0.4698 -0.2232 -0.6759
  330MOL0     C44482   6.626   2.159   6.616 -0.1468  0.1313 -0.5211
  330MOL0     H44483   6.261   1.775   6.564 -0.1561 -1.7368 -0.5296
  330MOL0     H44484   6.097   1.619   6.591 -2.9889 -0.3984  0.2693
  330MOL0     H44485   5.657   1.724   6.512  2.7281  3.7029 -3.3978
  330MOL0     H44486   5.744   1.667   6.372  1.0577 -2.6841 -0.5046
  330MOL0     H44487   5.628   1.473   6.588 -2.1578 -2.1851 -0.1708
  330MOL0     H44488   5.708   1.428   6.448 -2.0726 -0.2336 -0.7286
  330MOL0     H44489   5.516   1.406   6.385  0.3739 -0.3252 -0.1437
  330MOL0     H44490   5.549   1.562   6.308  0.6439 -1.8601  0.2754
  330MOL0     H44491   5.374   1.534   6.556 -1.2712  0.3217 -0.5836
  330MOL0     H44492   5.409   1.674   6.451  0.0191 -0.9888  1.0227
  330MOL0     H44493   5.306   1.546   6.260  0.6668  1.9109  0.6308
  330MOL0     H44494   5.278   1.413   6.376  0.8852  0.0839 -0.4234
  330MOL0     H44495   5.132   1.549   6.523 -5.5707  2.4425  0.3160
  330MOL0     H44496   5.168   1.694   6.427  0.3937  0.3753 -1.4199
  330MOL0     H44497   5.063   1.553   6.218 -0.4653 -3.0020 -0.3828
  330MOL0     H44498   4.944   1.595   6.343 -3.2768 -3.9698  2.0405
  330MOL0     H44499   5.018   1.345   6.419 -2.7128 -1.9109  1.0333
  330MOL0     H44500   4.888   1.391   6.314 -0.3186  1.3955 -0.7021
  330MOL0     H44501   5.192   1.183   6.346 -1.1069  3.0325  1.6704
  330MOL0     H44502   5.367   1.056   6.083  1.0346 -0.8923 -0.1397
  330MOL0     H44503   5.266   0.974   6.214 -1.6770 -0.9172 -0.0330
  330MOL0     H44504   5.138   0.833   6.061 -1.1002  0.4115 -1.3128
  330MOL0     H44505   5.182   0.939   5.925  1.8042  0.8231 -0.6341
  330MOL0     H44506   5.407   0.864   5.928 -1.6214  0.8677 -0.5740
  330MOL0     H44507   5.280   0.751   5.901 -5.1729  1.2027  1.5824
  330MOL0     H44508   5.423   0.790   6.176 -2.3079  1.0363 -0.4522
  330MOL0     H44509   5.468   0.663   6.070  2.1909  1.1944  1.6928
  330MOL0     H44510   5.182   0.510   6.362 -1.1001 -1.3069  0.5877
  330MOL0     H44511   5.150   0.280   6.360 -0.8337  2.3968  0.0805
  330MOL0     H44512   5.215  -0.134   6.461 -0.4676  0.2584  0.1201
  330MOL0     H44513   5.097  -0.363   6.484 -2.5188 -0.9291 -0.2369
  330MOL0     H44514   5.060  -0.581   6.422  0.7794  2.2254 -1.9096
  330MOL0     H44515   4.904  -0.542   6.490  2.2234 -5.0164  3.4983
  330MOL0     H44516   4.895  -0.704   6.228 -2.8986 -2.8800 -0.6519
  330MOL0     H44517   4.967  -0.783   6.379  0.5721  1.3603  3.0219
  330MOL0     H44518   4.731  -0.840   6.390  1.3180 -0.8298  5.8045
  330MOL0     H44519   4.750  -0.708   6.495  0.2605  3.1424 -0.0743
  330MOL0     H44520   4.653  -0.688   6.216 -1.6545 -2.9838  0.9739
  330MOL0     H44521   4.710  -0.545   6.315 -0.0905 -1.3016 -2.1884
  330MOL0     H44522   4.473  -0.570   6.337 -2.7771 -1.3811  1.4937
  330MOL0     H44523   4.530  -0.627   6.485  1.4921 -0.2508  0.6783
  330MOL0     H44524   4.500  -0.860   6.434 -1.2285  0.3095 -0.5081
  330MOL0     H44525   4.354  -0.744   6.404  1.0869  2.9258  3.2936
  330MOL0     H44526   4.526  -0.841   6.183 -0.4743  1.3959  1.2938
  330MOL0     H44527   4.348  -0.808   6.184  0.0337 -1.3551 -2.2910
  330MOL0     H44528   4.347  -1.032   6.147  3.7752 -0.9942 -1.7808
  330MOL0     H44529   4.480  -1.064   6.251  1.4966  1.6539 -3.0100
  330MOL0     H44530   4.924  -0.293   6.093 -1.4438  0.1528  0.3569
  330MOL0     H44531   5.017  -0.068   6.083  1.3788 -1.9790 -0.8500
  330MOL0     H44532   5.368   0.224   5.989 -0.8107  1.5224 -1.6092
  330MOL0     H44533   5.419   0.470   5.991 -0.9616 -1.5097 -1.2427
  330MOL0     H44534   5.806   1.888   6.406  0.3965 -1.4567 -1.3641
  330MOL0     H44535   5.989   2.034   6.351 -2.4949  1.9820  2.5946
  330MOL0     H44536   6.329   2.138   6.243  1.4898 -1.0336 -3.2549
  330MOL0     H44537   6.491   2.214   6.092  2.8393 -2.2783 -0.1444
  330MOL0     H44538   6.685   2.352   5.969  1.8157  3.9488  5.3559
  330MOL0     H44539   6.686   2.170   5.991 -2.5459  0.2002  0.5068
  330MOL0     H44540   6.870   2.241   5.842  1.6501  0.9656 -0.3546
  330MOL0     H44541   6.947   2.186   5.981  0.7965 -1.4115 -3.4956
  330MOL0     H44542   7.048   2.375   5.893  0.6471  3.8297  0.7097
  330MOL0     H44543   6.965   2.427   6.050  2.0856  1.6800 -0.3355
  330MOL0     H44544   6.802   2.547   5.870  0.0167  0.1787 -1.3559
  330MOL0     H44545   6.962   2.598   5.876 -0.1877 -0.0195  3.9935
  330MOL0     H44546   6.961   2.510   5.483  0.2115  1.4829  0.2039
  330MOL0     H44547   6.773   2.268   6.419 -0.9296  0.9394  2.7182
  330MOL0     H44548   6.670   2.060   6.637 -0.9609  0.3214  2.5508
  330MOL0     H44549   6.701   2.232   6.646  0.9596 -1.6881  1.5186
  330MOL0     H44550   6.546   2.179   6.688  1.2028  0.2825  1.0003
  331MOL0     O44551   6.513   3.058   3.542 -0.5136  0.5008 -0.1095
  331MOL0     C44552   6.551   2.968   3.619 -0.3211 -0.4702 -0.0124
  331MOL0     O44553   6.649   2.979   3.715  0.4339  0.2906  0.1515
  331MOL0     C44554   6.706   3.109   3.736 -0.4177 -0.3321  0.2181
  331MOL0     C44555   6.760   3.196   3.632 -0.2034  0.8141  0.3439
  331MOL0     C44556   6.825   3.310   3.653  0.0267 -0.4771 -0.3087
  331MOL0     C44557   6.849   3.353   3.784 -0.3828  0.5353 -0.3656
  331MOL0     O44558   6.939   3.457   3.800 -0.5627  0.2503  0.3990
  331MOL0     C44559   6.933   3.559   3.901  0.0022 -0.9884 -0.2196
  331MOL0     C44560   6.853   3.682   3.833  0.0896  0.1099  1.0279
  331MOL0     C44561   6.859   3.807   3.920  0.0485 -0.4639 -0.4541
  331MOL0     C44562   6.765   3.926   3.860 -0.6642 -0.0199  0.3239
  331MOL0     C44563   6.800   4.046   3.941 -0.5152 -0.0600  0.5561
  331MOL0     C44564   6.725   4.171   3.910 -0.0933 -1.2351 -0.4638
  331MOL0     C44565   6.742   4.209   3.754  0.0943  0.3699  0.1550
  331MOL0     C44566   6.690   4.351   3.726 -0.3119  0.5826  0.0095
  331MOL0     N44567   6.759   4.452   3.813  0.0358 -0.6937 -0.0025
  331MOL0     C44568   6.705   4.530   3.915  0.7818  0.8570  0.8823
  331MOL0     C44569   6.804   4.593   3.975 -0.3103 -0.2423  0.3477
  331MOL0     C44570   6.779   4.684   4.094 -0.8090  0.5898 -0.3763
  331MOL0     C44571   6.811   4.828   4.067 -0.0851 -1.4367  0.7038
  331MOL0     C44572   6.705   4.890   3.970  0.6272 -0.2003 -0.2277
  331MOL0     C44573   6.566   4.849   4.010 -0.3009  0.6321  0.2883
  331MOL0     O44574   6.469   4.938   3.948  0.0706 -0.2934  0.5607
  331MOL0     C44575   6.339   4.905   3.973  0.4720 -0.8209 -0.3036
  331MOL0     C44576   6.240   4.991   3.909 -0.3138  0.1383 -0.3813
  331MOL0     C44577   6.105   4.972   3.929  0.7817 -0.2941  0.2948
  331MOL0     C44578   6.065   4.851   3.991 -0.6573  0.1620 -0.1266
  331MOL0     C44579   5.924   4.832   4.009 -0.5014  0.3113 -0.9340
  331MOL0     O44580   5.883   4.709   4.072 -0.1991 -1.0012 -0.1353
  331MOL0     C44581   5.754   4.684   4.108 -0.6299  0.1071  0.1140
  331MOL0     C44582   5.634   4.747   4.063 -0.0434  0.2620 -0.0828
  331MOL0     C44583   5.509   4.695   4.083  0.6407 -0.3752  0.7728
  331MOL0     C44584   5.489   4.593   4.178 -0.1052  0.0847  0.1106
  331MOL0     O44585   5.363   4.557   4.217  0.2946  0.0843  1.0438
  331MOL0     C44586   5.339   4.484   4.336 -0.1284 -0.1268 -0.1496
  331MOL0     C44587   5.188   4.468   4.362 -0.2517 -0.6510 -0.1668
  331MOL0     C44588   5.119   4.413   4.241  0.9975 -0.2431  0.5007
  331MOL0     C44589   4.976   4.367   4.275  0.7200 -0.5543 -0.8698
  331MOL0     C44590   4.923   4.293   4.155 -0.4539 -1.7217  0.5534
  331MOL0     C44591   4.774   4.240   4.192  0.2393  0.3160 -0.1190
  331MOL0     C44592   4.708   4.156   4.083 -0.4901  0.3217  1.6067
  331MOL0     C44593   4.761   4.193   3.940  0.4367  0.7756  0.3516
  331MOL0    Cl44594   4.668   4.122   3.806  0.1874  0.4889 -0.3653
  331MOL0     C44595   5.607   4.524   4.219  0.6650 -0.7008  0.1085
  331MOL0     C44596   5.725   4.568   4.184 -0.8649  0.0225  1.0913
  331MOL0     O44597   5.843   4.906   3.957 -0.9015  0.4923 -0.6330
  331MOL0     C44598   6.162   4.759   4.041  1.3373 -0.3484  0.3848
  331MOL0     C44599   6.296   4.784   4.024  0.6326 -0.4172 -0.3281
  331MOL0     N44600   6.921   4.569   3.902  0.7713  0.4771 -0.5522
  331MOL0     N44601   6.890   4.499   3.796 -0.2276 -0.3657 -0.7369
  331MOL0     C44602   6.799   3.282   3.892 -0.1809  0.9871 -0.7898
  331MOL0     C44603   6.733   3.153   3.868  0.5765  0.5227  0.3029
  331MOL0     C44604   6.486   2.838   3.606 -0.0301 -0.2850 -0.8842
  331MOL0     C44605   6.506   2.752   3.500  0.3049  0.2422  0.1416
  331MOL0     C44606   6.428   2.631   3.487 -1.0672 -1.3716 -0.2689
  331MOL0     C44607   6.339   2.594   3.589  0.9595 -0.1126 -0.3991
  331MOL0     O44608   6.260   2.474   3.588  0.8786  0.1832 -0.8379
  331MOL0     C44609   6.156   2.467   3.495 -0.5887  0.1307  0.7057
  331MOL0     C44610   6.131   2.329   3.429  0.3465  1.0037 -0.0322
  331MOL0     C44611   6.253   2.266   3.356 -0.0018  0.0121 -0.6468
  331MOL0     C44612   6.305   2.348   3.236 -0.1412 -0.0979  0.4799
  331MOL0     C44613   6.204   2.341   3.127 -1.0885 -0.5611 -0.2149
  331MOL0     C44614   6.136   2.323   3.023  0.5177 -0.4184  0.3866
  331MOL0     C44615   6.309   2.690   3.685 -0.3986 -0.6091 -0.2411
  331MOL0     C44616   6.379   2.815   3.690  0.1316 -0.1998 -0.1912
  331MOL0     C44617   6.335   2.893   3.811 -0.3167 -0.4538 -0.6749
  331MOL0     H44618   6.754   3.170   3.527 -1.4759 -0.5945  0.7456
  331MOL0     H44619   6.869   3.369   3.573  0.5756 -1.6659 -0.9095
  331MOL0     H44620   6.889   3.519   3.993 -0.2470  3.3060  1.7824
  331MOL0     H44621   7.035   3.589   3.928 -0.8893  2.3826 -0.1632
  331MOL0     H44622   6.754   3.640   3.818  1.1482 -2.1912  0.0073
  331MOL0     H44623   6.891   3.703   3.732 -1.3202  1.4449  0.7361
  331MOL0     H44624   6.965   3.835   3.911  0.8979 -3.2194  0.0959
  331MOL0     H44625   6.840   3.794   4.027  0.2526 -2.2212 -0.6122
  331MOL0     H44626   6.791   3.947   3.756  1.5358 -0.5096  0.7409
  331MOL0     H44627   6.660   3.895   3.862 -0.1659 -1.8429  0.3220
  331MOL0     H44628   6.788   4.017   4.046  1.6819 -4.9080 -0.2706
  331MOL0     H44629   6.902   4.067   3.909 -2.5137  5.3285 -3.8970
  331MOL0     H44630   6.616   4.167   3.925  0.1503  1.5440  3.4752
  331MOL0     H44631   6.768   4.245   3.978 -1.6746 -0.9750  0.3166
  331MOL0     H44632   6.678   4.145   3.693 -0.8151  1.1408  0.2704
  331MOL0     H44633   6.847   4.213   3.725 -0.1166  1.8608 -0.5214
  331MOL0     H44634   6.716   4.373   3.622  1.0578 -0.9774 -0.0163
  331MOL0     H44635   6.582   4.367   3.734 -0.0690  1.8668  1.1548
  331MOL0     H44636   6.608   4.515   3.960 -0.1111 -0.7930 -1.4119
  331MOL0     H44637   6.680   4.670   4.139 -2.6078  2.1179 -3.4805
  331MOL0     H44638   6.856   4.650   4.163 -1.7764  0.8409  0.8722
  331MOL0     H44639   6.818   4.891   4.157  2.8803  1.1254 -1.1291
  331MOL0     H44640   6.906   4.825   4.013 -0.9500  1.6202 -1.2129
  331MOL0     H44641   6.724   4.882   3.862 -1.6648  2.8909 -1.0219
  331MOL0     H44642   6.708   4.999   3.986  0.4703 -0.3957  1.1974
  331MOL0     H44643   6.563   4.871   4.118 -1.0149 -3.1968  1.2070
  331MOL0     H44644   6.547   4.743   3.993  0.3259 -0.1223  3.5984
  331MOL0     H44645   6.300   5.065   3.858  0.9282  0.1245  0.9926
  331MOL0     H44646   6.021   5.034   3.897 -2.4392 -5.0571 -1.6835
  331MOL0     H44647   5.634   4.825   3.988 -0.0344 -1.7153 -2.2538
  331MOL0     H44648   5.424   4.740   4.033  0.2370 -1.1712  0.7206
  331MOL0     H44649   5.386   4.386   4.346  1.3663  0.3036 -2.2729
  331MOL0     H44650   5.372   4.548   4.418 -0.8048  2.1150 -1.5174
  331MOL0     H44651   5.167   4.405   4.449 -2.0153  2.0820  1.5058
  331MOL0     H44652   5.145   4.564   4.390 -0.8975  0.0773 -3.3123
  331MOL0     H44653   5.114   4.494   4.168  3.3955 -0.1981  0.3170
  331MOL0     H44654   5.181   4.329   4.209 -0.5040 -1.9256  1.8165
  331MOL0     H44655   4.914   4.455   4.294  2.9176  1.1745 -1.2859
  331MOL0     H44656   4.988   4.309   4.367 -1.3646 -1.9853 -1.4297
  331MOL0     H44657   4.996   4.214   4.133  0.6587 -1.1959  2.1949
  331MOL0     H44658   4.921   4.365   4.073  3.7863  0.7758  2.3219
  331MOL0     H44659   4.787   4.169   4.274 -1.2075  0.1893  0.0277
  331MOL0     H44660   4.712   4.322   4.229  0.3843 -0.5915  2.3346
  331MOL0     H44661   4.604   4.181   4.103  0.0507  2.3534  2.1117
  331MOL0     H44662   4.728   4.049   4.097  0.5808 -0.2081 -2.5239
  331MOL0     H44663   4.776   4.300   3.923  3.7308  0.5456  1.2130
  331MOL0     H44664   4.865   4.162   3.931  1.0847  3.2902 -2.1465
  331MOL0     H44665   5.603   4.443   4.290  2.1094  1.1310  2.4128
  331MOL0     H44666   5.811   4.512   4.216 -1.5965 -1.5511  0.3979
  331MOL0     H44667   6.139   4.663   4.086  0.5500 -0.8842 -1.0966
  331MOL0     H44668   6.363   4.711   4.068  1.5232  0.4606 -0.1855
  331MOL0     H44669   6.815   3.316   3.994 -2.1639  0.9708 -0.4348
  331MOL0     H44670   6.702   3.096   3.956 -1.7136  2.0743  0.5765
  331MOL0     H44671   6.591   2.755   3.432  0.3674  2.2568  0.2312
  331MOL0     H44672   6.441   2.575   3.395 -0.5162  0.9702 -1.6828
  331MOL0     H44673   6.156   2.533   3.409  0.3785  0.3168  0.8353
  331MOL0     H44674   6.064   2.491   3.550 -2.2599 -0.6935 -1.5488
  331MOL0     H44675   6.055   2.337   3.351  0.9638 -0.6573 -0.8470
  331MOL0     H44676   6.093   2.261   3.505 -0.6611  2.7109  1.0378
  331MOL0     H44677   6.235   2.160   3.332  1.0670 -0.1520 -0.7503
  331MOL0     H44678   6.338   2.275   3.424  3.9827  0.3838 -5.1779
  331MOL0     H44679   6.314   2.455   3.260  1.9750 -0.0336 -0.3875
  331MOL0     H44680   6.398   2.309   3.195  0.9744  1.0110  1.8491
  331MOL0     H44681   6.077   2.324   2.933  1.4062 -0.8407 -0.2148
  331MOL0     H44682   6.246   2.661   3.769 -1.3800  2.2605  0.1400
  331MOL0     H44683   6.345   2.998   3.783 -2.3338  0.6316  2.2812
  331MOL0     H44684   6.230   2.881   3.839  0.7034 -1.0504  3.4888
  331MOL0     H44685   6.401   2.866   3.893  0.6551 -0.2435 -1.3755
  332MOL0     O44686   8.675   1.869   5.500 -0.3146 -0.3006  1.0942
  332MOL0     C44687   8.591   1.958   5.478  0.6335  0.7492 -0.0214
  332MOL0     O44688   8.579   2.073   5.544  0.3925  0.6359 -0.5370
  332MOL0     C44689   8.646   2.092   5.669 -0.6677 -0.1612  0.4781
  332MOL0     C44690   8.718   2.211   5.695  0.2428 -0.5688 -0.4973
  332MOL0     C44691   8.783   2.231   5.822  0.7315  0.0307 -0.3896
  332MOL0     C44692   8.795   2.134   5.918  0.2312 -0.2315  0.1759
  332MOL0     O44693   8.876   2.162   6.022 -0.9552  1.0067 -0.4813
  332MOL0     C44694   8.876   2.076   6.140 -0.0651 -0.1250 -0.5966
  332MOL0     C44695   8.964   1.948   6.109 -0.3049 -0.2602 -0.7971
  332MOL0     C44696   8.946   1.840   6.216 -0.3705  0.6188 -0.4083
  332MOL0     C44697   9.047   1.736   6.173  1.3340 -0.6106 -0.5648
  332MOL0     C44698   9.022   1.616   6.263 -0.3483  0.6709  0.1469
  332MOL0     C44699   9.142   1.521   6.243 -0.9864  0.0196 -0.5754
  332MOL0     C44700   9.265   1.545   6.340 -0.0280  0.5051  0.2673
  332MOL0     C44701   9.384   1.475   6.293  0.1490 -0.1165 -0.0701
  332MOL0     N44702   9.502   1.504   6.368 -0.1991 -1.0089 -0.0188
  332MOL0     C44703   9.603   1.580   6.338  0.1210  1.4953  0.1296
  332MOL0     C44704   9.699   1.532   6.415 -0.4431 -0.9239 -0.1371
  332MOL0     C44705   9.834   1.602   6.415  0.5858 -0.2830  0.1062
  332MOL0     C44706   9.925   1.547   6.525 -0.1465  0.0740 -0.7012
  332MOL0     C44707  10.074   1.574   6.504 -1.0155 -0.2550 -0.9258
  332MOL0     C44708  10.136   1.548   6.643 -0.5026 -0.0488 -0.3055
  332MOL0     O44709  10.279   1.547   6.636  0.5928  0.4122  0.1583
  332MOL0     C44710  10.349   1.659   6.618  0.0121 -1.0031  0.8481
  332MOL0     C44711  10.292   1.790   6.619 -0.1699 -0.4121  0.4832
  332MOL0     C44712  10.372   1.901   6.632  0.7312 -0.6554  0.2774
  332MOL0     C44713  10.513   1.886   6.630  0.3862 -0.6859  0.2366
  332MOL0     C44714  10.613   1.994   6.641 -0.5217 -0.3064  0.7909
  332MOL0     O44715  10.567   2.124   6.642  1.1418  0.4312  0.4791
  332MOL0     C44716  10.661   2.222   6.617 -0.4175  0.2856  0.8710
  332MOL0     C44717  10.771   2.241   6.701 -0.0001 -0.1842  0.4905
  332MOL0     C44718  10.867   2.350   6.676 -0.0880  0.4869  0.2193
  332MOL0     C44719  10.852   2.426   6.562  1.0754 -0.1297  0.1487
  332MOL0     O44720  10.922   2.538   6.560 -0.4270 -0.8220  0.5233
  332MOL0     C44721  11.033   2.520   6.472  0.5218  1.5562  0.0511
  332MOL0     C44722  11.056   2.648   6.393  0.5482 -0.0074 -0.4438
  332MOL0     C44723  10.946   2.680   6.293  0.1872 -0.4951 -0.8957
  332MOL0     C44724  10.975   2.810   6.226 -0.4530  0.2201  0.0020
  332MOL0     C44725  10.885   2.843   6.110  0.0826 -0.2856  0.1978
  332MOL0     C44726  10.942   2.963   6.031 -0.5707 -0.5585 -0.1187
  332MOL0     C44727  10.867   2.982   5.897 -0.2718  0.5844 -1.0056
  332MOL0     C44728  10.765   3.101   5.895 -0.5929  0.1694  0.5855
  332MOL0    Cl44729  10.664   3.101   5.747  0.1917  0.1452  0.6263
  332MOL0     C44730  10.743   2.401   6.477 -0.7224 -0.1937  0.4431
  332MOL0     C44731  10.654   2.298   6.504 -0.1594 -0.5373  0.1750
  332MOL0     O44732  10.733   1.960   6.637 -0.0387 -0.0313  0.1329
  332MOL0     C44733  10.565   1.758   6.632  0.0585 -0.1404 -0.4762
  332MOL0     C44734  10.488   1.646   6.615  0.4146  0.3561 -0.2989
  332MOL0     N44735   9.660   1.418   6.485  0.2247 -0.5540 -0.2596
  332MOL0     N44736   9.539   1.408   6.457 -0.4880  0.6523 -0.8185
  332MOL0     C44737   8.722   2.015   5.900 -0.2495 -0.2473 -0.4875
  332MOL0     C44738   8.652   1.995   5.777 -0.0391  0.4514 -1.2345
  332MOL0     C44739   8.515   1.929   5.350 -0.3107  0.5160  0.2877
  332MOL0     C44740   8.444   2.036   5.300  1.4107 -0.0287  0.3284
  332MOL0     C44741   8.339   2.019   5.214  0.0936 -0.5048 -0.0672
  332MOL0     C44742   8.314   1.892   5.166  0.0469 -0.1075 -0.0028
  332MOL0     O44743   8.198   1.871   5.091 -0.6132 -0.0768  0.1678
  332MOL0     C44744   8.168   1.743   5.024  0.1683 -0.8187  0.0361
  332MOL0     C44745   8.061   1.737   4.915 -0.0599  0.6362 -0.2056
  332MOL0     C44746   8.071   1.865   4.829  1.5137 -0.1353  0.5503
  332MOL0     C44747   7.953   1.876   4.713  0.4235  0.6982  0.4506
  332MOL0     C44748   8.003   1.808   4.586 -0.6451 -0.1348 -0.1542
  332MOL0     C44749   8.054   1.768   4.485 -0.8272 -0.3765 -0.6688
  332MOL0     C44750   8.401   1.787   5.201 -0.0834 -0.2225  0.8360
  332MOL0     C44751   8.505   1.800   5.292 -0.8204 -0.4444  0.1251
  332MOL0     C44752   8.582   1.676   5.334  0.1710  0.2098  0.1079
  332MOL0     H44753   8.697   2.284   5.618 -0.9928  0.4808  0.7611
  332MOL0     H44754   8.813   2.335   5.817 -5.0685  2.0477 -4.5474
  332MOL0     H44755   8.912   2.121   6.233 -0.4280 -1.0071 -0.0201
  332MOL0     H44756   8.773   2.053   6.170 -0.4458  1.2623 -0.7497
  332MOL0     H44757   9.068   1.976   6.129 -0.3350 -0.8646  0.2619
  332MOL0     H44758   8.956   1.924   6.003  2.9277  2.6984 -1.9131
  332MOL0     H44759   8.851   1.787   6.220  0.7335 -1.7074 -2.3803
  332MOL0     H44760   8.964   1.879   6.317 -0.6209 -3.2735  1.3553
  332MOL0     H44761   9.033   1.714   6.067  1.7401  4.1900 -1.8837
  332MOL0     H44762   9.147   1.778   6.188  0.4704  1.3617  0.0447
  332MOL0     H44763   9.009   1.654   6.365  0.5938  3.0417 -0.5691
  332MOL0     H44764   8.929   1.563   6.238 -0.5226  0.6259  0.8802
  332MOL0     H44765   9.099   1.424   6.270  2.3559 -1.5378 -0.4256
  332MOL0     H44766   9.170   1.525   6.137 -1.5575  4.2098 -0.7395
  332MOL0     H44767   9.235   1.529   6.445 -3.3150  3.8939  0.0686
  332MOL0     H44768   9.295   1.648   6.319  0.9270 -0.0319 -1.0689
  332MOL0     H44769   9.370   1.368   6.310  1.3433 -0.4756 -1.2298
  332MOL0     H44770   9.401   1.489   6.186 -2.3226 -2.2400 -0.8333
  332MOL0     H44771   9.604   1.653   6.257  2.7276 -0.7798 -2.1107
  332MOL0     H44772   9.875   1.606   6.313 -0.8267  2.4639 -0.4575
  332MOL0     H44773   9.829   1.707   6.446  2.7232  0.7812 -2.7193
  332MOL0     H44774   9.879   1.596   6.611 -0.8881  0.3822 -1.2627
  332MOL0     H44775   9.913   1.438   6.532 -2.0727  0.2259 -1.1124
  332MOL0     H44776  10.106   1.671   6.466  0.9952 -1.5738 -2.7992
  332MOL0     H44777  10.124   1.509   6.432  0.6297 -1.0846  0.8631
  332MOL0     H44778  10.103   1.448   6.672  0.0019 -0.1288  0.0132
  332MOL0     H44779  10.102   1.632   6.704  0.3509  1.7062 -2.1173
  332MOL0     H44780  10.186   1.815   6.621 -0.9004 -3.2550  2.6274
  332MOL0     H44781  10.341   2.004   6.619 -3.3217 -1.9570 -2.0448
  332MOL0     H44782  10.781   2.179   6.789  0.7620  1.9983  2.0381
  332MOL0     H44783  10.950   2.374   6.742 -0.9677  0.0757  1.5159
  332MOL0     H44784  11.125   2.494   6.525  0.8215  0.3203 -1.0369
  332MOL0     H44785  11.015   2.444   6.395 -0.0402  1.9925 -0.2662
  332MOL0     H44786  11.060   2.727   6.468 -2.9361  1.4831 -1.6378
  332MOL0     H44787  11.154   2.635   6.345  0.4765 -1.3431 -0.2584
  332MOL0     H44788  10.965   2.598   6.223  3.4982 -1.5195  1.0146
  332MOL0     H44789  10.849   2.684   6.344  1.0509 -0.3740  0.8024
  332MOL0     H44790  11.079   2.819   6.191 -1.0543  0.8305 -1.7578
  332MOL0     H44791  10.957   2.897   6.290  1.4881  1.3888 -0.9482
  332MOL0     H44792  10.784   2.873   6.138  0.2089  0.1514  0.1802
  332MOL0     H44793  10.892   2.755   6.045  1.7661  0.0432 -0.1083
  332MOL0     H44794  10.940   3.040   6.109 -0.4760 -1.1331  0.4602
  332MOL0     H44795  11.047   2.936   6.011  0.5050  2.8715  0.2305
  332MOL0     H44796  10.801   2.897   5.877 -0.4309  0.8056 -1.4314
  332MOL0     H44797  10.949   2.991   5.825  0.9060 -0.6437  0.1209
  332MOL0     H44798  10.706   3.102   5.987  1.0541 -0.4877  1.7072
  332MOL0     H44799  10.822   3.195   5.904  0.2344 -0.4345  2.0496
  332MOL0     H44800  10.737   2.480   6.402  1.3429  0.5947  1.0369
  332MOL0     H44801  10.564   2.275   6.447 -1.4516  1.6566  1.2021
  332MOL0     H44802  10.669   1.737   6.652 -0.3174  1.0143  3.5513
  332MOL0     H44803  10.530   1.546   6.626  1.2518  0.4993 -1.9183
  332MOL0     H44804   8.717   1.929   5.965  2.6570  0.5787  1.0229
  332MOL0     H44805   8.597   1.902   5.767  0.6907 -0.1733  0.3220
  332MOL0     H44806   8.440   2.123   5.364  0.4801 -1.8792  2.9462
  332MOL0     H44807   8.264   2.096   5.198 -0.9424 -1.1003  1.6654
  332MOL0     H44808   8.149   1.673   5.106  1.4434  1.5465  2.5254
  332MOL0     H44809   8.255   1.716   4.965 -1.5050 -1.7601 -2.1360
  332MOL0     H44810   7.969   1.734   4.974  1.7026 -1.1565  2.7569
  332MOL0     H44811   8.065   1.650   4.849  1.5656 -1.1810  2.1157
  332MOL0     H44812   8.173   1.859   4.790  1.4244  1.2817  0.0311
  332MOL0     H44813   8.069   1.952   4.896  2.9336 -1.8876  2.9971
  332MOL0     H44814   7.864   1.824   4.749  1.9017 -0.6759  2.3288
  332MOL0     H44815   7.934   1.981   4.690 -0.7618  0.4814  0.3459
  332MOL0     H44816   8.112   1.731   4.403 -2.0343 -0.7219 -1.3983
  332MOL0     H44817   8.381   1.685   5.171  1.4954 -0.4913  0.6493
  332MOL0     H44818   8.684   1.675   5.296 -0.0956 -2.7320 -0.8355
  332MOL0     H44819   8.571   1.665   5.442  1.0507 -0.8118  0.1093
  332MOL0     H44820   8.537   1.588   5.286  3.4050 -0.0387 -2.8744
  333MOL0     O44821   8.457   0.523   3.152 -0.2187 -1.0341  0.2369
  333MOL0     C44822   8.493   0.598   3.064 -0.0204 -0.7796 -0.3322
  333MOL0     O44823   8.410   0.678   3.000 -0.4251  0.2456  0.5462
  333MOL0     C44824   8.281   0.653   3.014 -0.6543 -0.9187 -0.0236
  333MOL0     C44825   8.214   0.531   3.014 -0.3670  0.5481  0.2745
  333MOL0     C44826   8.075   0.514   3.005  0.6063 -0.9900 -0.3437
  333MOL0     C44827   7.996   0.636   3.031  0.4695  1.0278 -0.0830
  333MOL0     O44828   7.863   0.591   3.039  0.6246  0.0133  0.2530
  333MOL0     C44829   7.770   0.697   3.076 -0.5254 -0.2280 -0.0089
  333MOL0     C44830   7.644   0.638   3.090  0.4257 -0.3697  0.0321
  333MOL0     C44831   7.534   0.752   3.102  0.5815  0.0550 -0.3522
  333MOL0     C44832   7.410   0.663   3.115  0.9862 -0.2328 -0.0178
  333MOL0     C44833   7.275   0.726   3.067 -0.5771  0.1145 -0.3980
  333MOL0     C44834   7.277   0.756   2.912  0.0994  0.7201 -1.7168
  333MOL0     C44835   7.134   0.746   2.859  0.3559 -0.6822  0.2332
  333MOL0     C44836   7.122   0.841   2.738  0.3689  0.4178 -0.4106
  333MOL0     N44837   7.200   0.803   2.617  0.0031 -0.2845 -0.6594
  333MOL0     C44838   7.311   0.869   2.573  0.5934  0.0159 -0.6400
  333MOL0     C44839   7.333   0.839   2.445  1.6175  0.2861 -0.3588
  333MOL0     C44840   7.436   0.888   2.359  0.6656  0.4048 -0.4193
  333MOL0     C44841   7.509   0.786   2.269 -0.3465 -0.0446 -1.4905
  333MOL0     C44842   7.660   0.802   2.256  0.7987 -0.9204 -0.2316
  333MOL0     C44843   7.698   0.937   2.194 -0.1585 -0.2078  0.6409
  333MOL0     O44844   7.840   0.948   2.176 -0.4903 -0.2616 -0.9091
  333MOL0     C44845   7.900   1.071   2.186 -0.1781  0.4049 -0.7879
  333MOL0     C44846   7.845   1.185   2.242  0.2780  0.4854 -0.2772
  333MOL0     C44847   7.902   1.307   2.246  0.2330  0.9680 -0.1242
  333MOL0     C44848   8.023   1.322   2.188 -0.2412  0.1942  1.3564
  333MOL0     C44849   8.091   1.451   2.166 -0.6468 -0.1873  0.6786
  333MOL0     O44850   8.188   1.453   2.064  0.9968  0.1895 -0.3855
  333MOL0     C44851   8.227   1.575   2.012  0.4115  0.6803 -0.0850
  333MOL0     C44852   8.134   1.666   1.970 -0.0342  1.2779  0.3357
  333MOL0     C44853   8.173   1.791   1.917 -0.4757 -0.2345 -0.5992
  333MOL0     C44854   8.312   1.829   1.909  0.2298 -0.0357 -0.5454
  333MOL0     O44855   8.355   1.955   1.872  0.0302 -0.3164  0.1636
  333MOL0     C44856   8.496   2.001   1.888  0.6530 -0.1443  0.3452
  333MOL0     C44857   8.504   2.146   1.851  0.1366  0.4942  0.1812
  333MOL0     C44858   8.630   2.185   1.769  0.1430  0.5055 -0.5364
  333MOL0     C44859   8.726   2.264   1.852  0.5645 -0.4698  0.3907
  333MOL0     C44860   8.841   2.325   1.770 -0.1609  0.1030 -0.9674
  333MOL0     C44861   8.952   2.390   1.860  0.7447 -0.0707 -0.1753
  333MOL0     C44862   9.050   2.466   1.780 -0.2671 -0.5042 -0.3354
  333MOL0     C44863   9.194   2.487   1.846  0.7765  1.2371 -0.0211
  333MOL0    Cl44864   9.288   2.330   1.830  0.0060  0.4238 -0.0505
  333MOL0     C44865   8.399   1.729   1.956  0.6057 -0.2294 -0.1921
  333MOL0     C44866   8.361   1.607   2.006  0.1614  0.0411  0.1425
  333MOL0     O44867   8.059   1.546   2.236  0.1984  0.5588  0.2622
  333MOL0     C44868   8.089   1.203   2.136  0.0589  0.0886 -0.6979
  333MOL0     C44869   8.032   1.078   2.146  0.1268  0.1870 -0.0293
  333MOL0     N44870   7.225   0.743   2.411 -0.3737 -0.8347  0.6186
  333MOL0     N44871   7.152   0.718   2.516  0.5462 -0.5333  0.3807
  333MOL0     C44872   8.060   0.754   3.048  1.0965 -1.0220  0.1236
  333MOL0     C44873   8.201   0.762   3.051  0.6731 -0.1470  0.1990
  333MOL0     C44874   8.625   0.591   3.007 -0.4094  0.5695 -0.3954
  333MOL0     C44875   8.646   0.684   2.899 -0.0584 -0.6773 -0.3639
  333MOL0     C44876   8.774   0.701   2.843  0.6498  0.4464 -1.0590
  333MOL0     C44877   8.889   0.643   2.898 -0.3228  0.3330 -1.0762
  333MOL0     O44878   9.018   0.673   2.858  0.5701  0.1121  0.2397
  333MOL0     C44879   9.054   0.772   2.757  0.0064 -0.2625  0.0135
  333MOL0     C44880   9.194   0.747   2.723 -0.7176 -0.2253 -0.5074
  333MOL0     C44881   9.261   0.808   2.603  0.6525 -0.0696  0.3878
  333MOL0     C44882   9.218   0.951   2.576 -0.6516  0.7194  0.2654
  333MOL0     C44883   9.312   1.020   2.491  0.3134 -0.7165  0.6117
  333MOL0     C44884   9.384   1.086   2.417 -0.2942  0.4574  0.3515
  333MOL0     C44885   8.870   0.557   3.010 -0.5762 -0.4640 -0.3326
  333MOL0     C44886   8.746   0.535   3.056 -0.1114  0.7439  0.1953
  333MOL0     C44887   8.747   0.443   3.187 -0.0506  0.4083 -0.1599
  333MOL0     H44888   8.269   0.438   3.009 -2.3911 -0.8252  1.6761
  333MOL0     H44889   8.035   0.416   2.986  1.7839 -0.8525 -4.4554
  333MOL0     H44890   7.787   0.733   3.178 -0.0365 -0.9798  0.1882
  333MOL0     H44891   7.776   0.778   3.003  0.5345 -0.3406 -0.0562
  333MOL0     H44892   7.633   0.571   3.176  0.2513 -1.0818 -0.5283
  333MOL0     H44893   7.627   0.574   3.002 -2.2067 -1.2102  1.0431
  333MOL0     H44894   7.523   0.825   3.021 -2.2262 -0.6219 -0.7003
  333MOL0     H44895   7.552   0.815   3.189  1.1254 -0.6117  0.0237
  333MOL0     H44896   7.410   0.570   3.057  0.4238 -1.1029  1.3255
  333MOL0     H44897   7.413   0.629   3.219  0.4438 -1.9656 -0.5359
  333MOL0     H44898   7.199   0.656   3.102 -0.3469  0.0559 -0.0156
  333MOL0     H44899   7.254   0.816   3.126  2.3850 -0.6823  2.1568
  333MOL0     H44900   7.334   0.846   2.889 -2.0889  2.2989 -1.2551
  333MOL0     H44901   7.339   0.676   2.870 -1.1692 -0.6925 -0.9894
  333MOL0     H44902   7.057   0.774   2.932 -1.5467 -1.0129 -1.5774
  333MOL0     H44903   7.112   0.643   2.831 -1.9900 -0.2092  0.0855
  333MOL0     H44904   7.018   0.822   2.710  0.1818 -0.7865  0.9633
  333MOL0     H44905   7.137   0.947   2.756  0.5340  0.0675  1.6974
  333MOL0     H44906   7.366   0.931   2.643 -2.1705 -0.1228  1.8628
  333MOL0     H44907   7.403   0.953   2.276 -0.9725 -1.6636 -1.4772
  333MOL0     H44908   7.523   0.926   2.413  2.7410 -0.9301 -2.6055
  333MOL0     H44909   7.486   0.689   2.316 -2.6282 -0.1491 -2.6602
  333MOL0     H44910   7.455   0.788   2.174 -0.5557  4.4511 -1.4708
  333MOL0     H44911   7.684   0.715   2.194 -1.1575 -1.4757 -0.2815
  333MOL0     H44912   7.695   0.806   2.360 -3.1028 -0.0077  1.2214
  333MOL0     H44913   7.642   1.017   2.243 -1.8022 -0.1768 -1.1975
  333MOL0     H44914   7.651   0.936   2.095 -0.2436 -0.4891  0.6850
  333MOL0     H44915   7.745   1.180   2.284  0.8743  3.0130  1.6752
  333MOL0     H44916   7.855   1.395   2.289  2.3499  1.4832  1.3117
  333MOL0     H44917   8.028   1.647   1.968 -0.2179  2.1912  0.6255
  333MOL0     H44918   8.094   1.858   1.883 -1.7291 -2.3011 -1.9911
  333MOL0     H44919   8.533   1.980   1.989  0.0061  1.4480  0.9392
  333MOL0     H44920   8.558   1.945   1.817  1.2475 -2.3951  2.4890
  333MOL0     H44921   8.417   2.173   1.791 -0.0866 -1.8890 -0.6807
  333MOL0     H44922   8.502   2.208   1.942  3.1880  0.6984  0.2238
  333MOL0     H44923   8.690   2.100   1.736  1.6887  1.6778 -0.9163
  333MOL0     H44924   8.588   2.245   1.687 -0.0072 -0.4658 -1.1821
  333MOL0     H44925   8.781   2.198   1.919  2.5036  1.8699  1.2768
  333MOL0     H44926   8.667   2.342   1.902 -0.4237 -1.7140  1.2339
  333MOL0     H44927   8.803   2.410   1.713 -1.4168  1.2378  1.4206
  333MOL0     H44928   8.885   2.241   1.714  3.5957  0.5425  0.9917
  333MOL0     H44929   8.918   2.447   1.947 -1.4972  1.6145 -2.0316
  333MOL0     H44930   9.003   2.300   1.897 -2.2534 -0.5123  3.5243
  333MOL0     H44931   9.012   2.567   1.766  2.5187  0.8379  1.1019
  333MOL0     H44932   9.048   2.409   1.687 -2.4356 -0.7516 -0.2046
  333MOL0     H44933   9.241   2.569   1.791 -2.8221  3.7938  0.3724
  333MOL0     H44934   9.174   2.511   1.951 -1.7100  0.5000 -0.2671
  333MOL0     H44935   8.507   1.740   1.967  0.3669  2.4984  0.0411
  333MOL0     H44936   8.439   1.533   2.023 -2.0516 -1.9308  2.8389
  333MOL0     H44937   8.177   1.229   2.078 -0.5527  1.9196 -0.9031
  333MOL0     H44938   8.076   0.987   2.108 -0.7550 -1.4485  2.5403
  333MOL0     H44939   7.996   0.836   3.082 -2.0707 -1.7253 -3.4903
  333MOL0     H44940   8.233   0.859   3.090 -1.3408 -0.9030  4.3090
  333MOL0     H44941   8.569   0.735   2.843 -1.7760 -4.5374 -1.8912
  333MOL0     H44942   8.762   0.778   2.767 -2.4793  2.0714  0.8298
  333MOL0     H44943   9.042   0.872   2.800  1.9325  0.0858 -0.1774
  333MOL0     H44944   8.985   0.773   2.673  2.6803 -2.1916 -2.4067
  333MOL0     H44945   9.201   0.638   2.709  3.5979 -0.5533  2.5109
  333MOL0     H44946   9.255   0.776   2.809  0.2908  0.6013 -1.4847
  333MOL0     H44947   9.248   0.743   2.517  0.8717  0.2246  0.1307
  333MOL0     H44948   9.370   0.805   2.612  0.6766 -0.2640  0.0276
  333MOL0     H44949   9.112   0.959   2.550 -1.6859 -1.2094  3.3558
  333MOL0     H44950   9.211   1.004   2.671 -0.7123  0.5090  0.3797
  333MOL0     H44951   9.434   1.164   2.363  2.1885 -1.5131 -0.3913
  333MOL0     H44952   8.965   0.524   3.052 -1.0206  0.8300  1.8517
  333MOL0     H44953   8.826   0.489   3.247 -0.1309  1.1541 -0.6070
  333MOL0     H44954   8.647   0.435   3.229  0.2526  0.7327  0.6431
  333MOL0     H44955   8.790   0.349   3.151  0.3980  1.5361 -2.8516
  334MOL0     O44956   7.092   4.211  11.481  0.3022  0.3481  0.2714
  334MOL0     C44957   6.973   4.201  11.510  0.0697 -0.1948 -0.1348
  334MOL0     O44958   6.930   4.147  11.628 -0.7444  0.5037  0.1802
  334MOL0     C44959   7.012   4.056  11.684  0.2502 -0.0960  0.0569
  334MOL0     C44960   7.034   4.081  11.818 -0.2382 -0.2092  0.1171
  334MOL0     C44961   7.099   3.981  11.902 -0.0230 -0.1431 -0.7594
  334MOL0     C44962   7.156   3.868  11.839 -0.4115  0.3202 -0.0881
  334MOL0     O44963   7.209   3.753  11.896 -0.5057  0.2146  0.3353
  334MOL0     C44964   7.175   3.714  12.023  0.2555 -0.3650 -0.4004
  334MOL0     C44965   7.033   3.665  12.027  0.6961 -0.2809 -1.2444
  334MOL0     C44966   7.015   3.522  11.988  0.1595  0.1594 -0.1951
  334MOL0     C44967   6.871   3.477  11.999  0.1126  0.4928  0.3361
  334MOL0     C44968   6.866   3.325  11.999 -0.4833  0.6316 -0.0591
  334MOL0     C44969   6.875   3.259  12.152 -0.3932 -0.8755  0.4854
  334MOL0     C44970   6.808   3.117  12.147  0.2561  1.0218 -0.2601
  334MOL0     C44971   6.882   3.011  12.058  0.3080  0.0507 -0.7579
  334MOL0     N44972   7.027   2.997  12.093 -0.4696  0.6065  0.9612
  334MOL0     C44973   7.085   2.870  12.106  1.2164  0.4250 -0.1117
  334MOL0     C44974   7.209   2.876  12.076  0.0228  0.2856  0.6905
  334MOL0     C44975   7.314   2.764  12.095 -0.2130 -0.4779 -0.1233
  334MOL0     C44976   7.394   2.748  12.226 -0.1146 -0.2847  0.6589
  334MOL0     C44977   7.312   2.702  12.352 -0.7719  1.0601  0.6330
  334MOL0     C44978   7.356   2.757  12.493 -0.5945  0.1349  0.2779
  334MOL0     O44979   7.498   2.746  12.500 -0.3185  0.3529  0.0167
  334MOL0     C44980   7.557   2.762  12.613 -0.1843  0.1889 -0.3876
  334MOL0     C44981   7.688   2.736  12.623 -0.6166 -0.3239 -0.7034
  334MOL0     C44982   7.773   2.758  12.729 -0.0225  0.0617 -0.1106
  334MOL0     C44983   7.716   2.802  12.845  0.0902  0.1552 -0.6103
  334MOL0     C44984   7.800   2.859  12.951 -0.8159 -0.9692 -0.4709
  334MOL0     O44985   7.926   2.808  12.969  1.1806  0.0830  0.2601
  334MOL0     C44986   7.995   2.850  13.076 -0.0678 -0.2663  0.4339
  334MOL0     C44987   7.999   2.770  13.187  1.1412 -0.3902  0.2369
  334MOL0     C44988   8.096   2.796  13.292  0.1860  0.3640  0.2251
  334MOL0     C44989   8.179   2.905  13.283  0.4042  0.5166 -0.2485
  334MOL0     O44990   8.271   2.944  13.375  0.6292  0.2481 -0.4485
  334MOL0     C44991   8.284   2.877  13.509  0.3349 -0.0335 -0.7386
  334MOL0     C44992   8.355   2.968  13.603 -0.1853 -0.2946 -0.4951
  334MOL0     C44993   8.281   3.101  13.618 -0.2400 -0.6083 -0.7650
  334MOL0     C44994   8.371   3.173  13.717 -0.3509  0.0383 -0.0744
  334MOL0     C44995   8.315   3.313  13.724 -0.4446 -0.9221 -0.8810
  334MOL0     C44996   8.431   3.396  13.795  0.4781 -0.0858 -0.2472
  334MOL0     C44997   8.396   3.535  13.829 -0.2857  0.6387 -0.2691
  334MOL0     C44998   8.498   3.599  13.911 -1.1231  0.7925  0.5781
  334MOL0    Cl44999   8.473   3.562  14.083 -0.6305  0.1452  0.0135
  334MOL0     C45000   8.161   2.991  13.169 -0.0957 -0.5636 -1.3261
  334MOL0     C45001   8.073   2.966  13.063  0.5722 -0.1195 -0.3356
  334MOL0     O45002   7.765   2.965  13.004 -0.2334 -0.3392  0.5528
  334MOL0     C45003   7.577   2.836  12.848  1.0644 -0.1304  0.8849
  334MOL0     C45004   7.501   2.821  12.724  0.0952 -0.5304 -0.5155
  334MOL0     N45005   7.233   3.005  12.035  1.1385 -0.0483  0.0281
  334MOL0     N45006   7.132   3.075  12.051  0.2822 -0.2835  0.5700
  334MOL0     C45007   7.138   3.857  11.701  0.6166  1.1928  0.0796
  334MOL0     C45008   7.061   3.938  11.626 -0.6172 -0.8171  0.5542
  334MOL0     C45009   6.878   4.251  11.401  0.9727 -1.4745  0.3822
  334MOL0     C45010   6.925   4.346  11.309 -0.0351  0.3719 -0.8902
  334MOL0     C45011   6.850   4.400  11.209 -0.1752 -0.5848  0.0969
  334MOL0     C45012   6.720   4.369  11.204  0.6123 -0.3816 -0.0192
  334MOL0     O45013   6.651   4.429  11.104 -0.3718  0.4165  0.2352
  334MOL0     C45014   6.512   4.394  11.067 -0.3493  0.1171  0.2980
  334MOL0     C45015   6.485   4.457  10.931  0.0398  0.1028  0.7847
  334MOL0     C45016   6.593   4.438  10.831 -0.1122  0.5645 -0.8914
  334MOL0     C45017   6.569   4.486  10.690  0.5548 -0.5149 -0.5779
  334MOL0     C45018   6.657   4.423  10.588  0.5325  0.5663 -0.5698
  334MOL0     C45019   6.729   4.357  10.515 -0.7333 -0.5364 -0.4176
  334MOL0     C45020   6.665   4.267  11.284 -0.8978  0.0200 -0.3438
  334MOL0     C45021   6.749   4.202  11.377 -0.4087  0.0451 -0.7153
  334MOL0     C45022   6.691   4.097  11.459 -0.2679  1.1136 -0.0971
  334MOL0     H45023   6.977   4.155  11.873 -1.5331 -3.4504  3.5968
  334MOL0     H45024   7.078   3.987  12.009 -1.0294  2.0476 -1.0196
  334MOL0     H45025   7.248   3.634  12.040 -1.3962 -2.1733 -1.4372
  334MOL0     H45026   7.201   3.798  12.087  0.1968 -1.1630  0.6966
  334MOL0     H45027   6.954   3.728  11.986 -2.1348 -3.3787 -0.9923
  334MOL0     H45028   7.019   3.658  12.136 -1.0944 -0.6593 -1.4744
  334MOL0     H45029   7.063   3.458  12.062 -1.8542 -0.3482  0.7433
  334MOL0     H45030   7.057   3.495  11.890 -1.5438 -1.2524 -0.6003
  334MOL0     H45031   6.833   3.526  12.089  0.0899  3.0661 -0.9725
  334MOL0     H45032   6.804   3.518  11.922  0.1631 -0.7900 -0.4176
  334MOL0     H45033   6.761   3.327  11.970 -1.1555  2.5053  2.1953
  334MOL0     H45034   6.945   3.286  11.935 -0.8035 -1.6075  0.8049
  334MOL0     H45035   6.982   3.248  12.171 -0.2870 -1.3822 -0.3701
  334MOL0     H45036   6.838   3.330  12.226 -0.7837 -1.3520  0.7526
  334MOL0     H45037   6.702   3.128  12.120  0.1369  5.0449  1.1621
  334MOL0     H45038   6.825   3.077  12.247  1.7325  0.6752 -0.6332
  334MOL0     H45039   6.831   2.914  12.049  1.9189 -0.8399 -0.5722
  334MOL0     H45040   6.879   3.062  11.961  1.5689 -1.6341 -1.7339
  334MOL0     H45041   7.027   2.779  12.119 -0.4112  1.4803  0.2284
  334MOL0     H45042   7.274   2.667  12.062  1.4296 -0.7494 -1.4162
  334MOL0     H45043   7.381   2.784  12.011 -3.0361 -2.3275 -3.0616
  334MOL0     H45044   7.475   2.676  12.207  0.5808  0.4756  0.6777
  334MOL0     H45045   7.435   2.844  12.257 -2.1913  1.0959 -0.6485
  334MOL0     H45046   7.330   2.595  12.366  3.2314  0.9335 -3.1526
  334MOL0     H45047   7.207   2.732  12.342 -0.5036  1.2244 -2.9190
  334MOL0     H45048   7.310   2.695  12.570  0.7003 -0.0592  0.9220
  334MOL0     H45049   7.327   2.861  12.513 -2.1075 -0.3869  0.9524
  334MOL0     H45050   7.718   2.700  12.525 -0.7335  1.2805 -1.3663
  334MOL0     H45051   7.879   2.744  12.711  0.7660  3.2382  1.3530
  334MOL0     H45052   7.940   2.680  13.200  0.7679  0.0098  1.4383
  334MOL0     H45053   8.110   2.717  13.365  0.7261 -0.1629 -0.4374
  334MOL0     H45054   8.182   2.853  13.538 -1.2074 -1.1501 -5.9609
  334MOL0     H45055   8.331   2.779  13.496  3.4227  1.1214  0.6733
  334MOL0     H45056   8.369   2.907  13.693 -3.5221 -1.7191 -0.8074
  334MOL0     H45057   8.450   2.988  13.551 -0.5539  0.6020 -0.8340
  334MOL0     H45058   8.282   3.158  13.525 -0.0642  3.0986  1.2743
  334MOL0     H45059   8.180   3.090  13.659 -1.2049 -2.3809 -3.3787
  334MOL0     H45060   8.476   3.164  13.688  0.1429 -1.2440  1.9066
  334MOL0     H45061   8.360   3.133  13.818 -1.9028  2.3074  0.7302
  334MOL0     H45062   8.226   3.313  13.788  0.1155 -2.8700 -0.0256
  334MOL0     H45063   8.297   3.364  13.629  0.1983 -0.4148 -0.7408
  334MOL0     H45064   8.461   3.349  13.889 -0.4861 -0.8008 -0.2861
  334MOL0     H45065   8.516   3.395  13.726 -1.3674  0.1871 -2.6763
  334MOL0     H45066   8.299   3.536  13.880 -0.7023 -0.0180 -1.0035
  334MOL0     H45067   8.370   3.599  13.744  1.9988  0.1845 -1.3802
  334MOL0     H45068   8.598   3.568  13.879 -1.5264 -0.8730  0.7887
  334MOL0     H45069   8.494   3.707  13.901  1.3254  0.9436  0.5025
  334MOL0     H45070   8.220   3.079  13.145 -0.6383 -0.4421 -2.2782
  334MOL0     H45071   8.073   3.023  12.971 -1.6016 -2.4798 -1.9093
  334MOL0     H45072   7.524   2.891  12.925 -1.7428  1.5459 -2.0101
  334MOL0     H45073   7.408   2.877  12.730  0.7035  1.0720 -3.7014
  334MOL0     H45074   7.179   3.765  11.661 -0.4409  0.4222  0.7314
  334MOL0     H45075   7.033   3.915  11.523 -0.9214  1.5412  0.0538
  334MOL0     H45076   7.027   4.374  11.332 -0.6294  1.3588  0.6730
  334MOL0     H45077   6.889   4.482  11.150 -2.6942 -0.9561 -2.2505
  334MOL0     H45078   6.435   4.420  11.140 -1.1621 -0.6386 -0.2628
  334MOL0     H45079   6.498   4.286  11.057  1.6689 -0.2583  1.1093
  334MOL0     H45080   6.459   4.563  10.944 -2.9419 -0.4652  0.2381
  334MOL0     H45081   6.392   4.410  10.898 -1.0365  0.4282  3.1439
  334MOL0     H45082   6.606   4.330  10.829 -0.8735  0.3013  2.4696
  334MOL0     H45083   6.688   4.471  10.873 -0.9512 -0.2296  1.8596
  334MOL0     H45084   6.470   4.465  10.649 -0.4984  3.5503 -0.4640
  334MOL0     H45085   6.584   4.594  10.688 -1.9148 -0.0921  0.2488
  334MOL0     H45086   6.790   4.296  10.452  0.1969  0.1620 -0.2174
  334MOL0     H45087   6.561   4.239  11.270 -0.8055  0.0508 -1.1470
  334MOL0     H45088   6.698   4.124  11.564 -2.2076  0.1253  0.3278
  334MOL0     H45089   6.587   4.082  11.430 -0.0228  2.0459 -1.6107
  334MOL0     H45090   6.739   4.004  11.424  1.9176  2.6392 -1.4494
  335MOL0     O45091   2.173   4.634   6.327  0.1888 -0.1796  0.5496
  335MOL0     C45092   2.186   4.663   6.212  0.0251 -0.4085 -0.3043
  335MOL0     O45093   2.223   4.569   6.114 -0.0772  0.0149 -0.3508
  335MOL0     C45094   2.273   4.454   6.151  0.1470  1.1598  0.3450
  335MOL0     C45095   2.188   4.360   6.211  1.1706  0.3752  0.7110
  335MOL0     C45096   2.254   4.231   6.229 -0.6029 -1.2733  0.1954
  335MOL0     C45097   2.384   4.204   6.201 -0.0558 -0.4293  0.0870
  335MOL0     O45098   2.424   4.077   6.238 -0.4971  0.3002  0.1505
  335MOL0     C45099   2.563   4.043   6.264 -0.0856 -0.8672  0.4656
  335MOL0     C45100   2.624   4.124   6.375  0.0127 -0.9026  0.3639
  335MOL0     C45101   2.770   4.083   6.390  0.3104  0.7981 -0.8322
  335MOL0     C45102   2.835   4.103   6.518 -0.4964  0.1397 -0.5654
  335MOL0     C45103   2.966   4.038   6.529 -0.7375  0.5375  0.2154
  335MOL0     C45104   3.006   4.019   6.677  0.1891  0.2294  0.8018
  335MOL0     C45105   3.131   3.937   6.697  0.0289 -0.0186 -0.3439
  335MOL0     C45106   3.262   4.014   6.651  0.4148  0.0670  0.0306
  335MOL0     N45107   3.385   3.939   6.678 -0.2408  0.9523 -0.3541
  335MOL0     C45108   3.408   3.804   6.658  0.2189 -0.2811  0.1017
  335MOL0     C45109   3.533   3.794   6.702 -0.3841  0.1412  0.1960
  335MOL0     C45110   3.610   3.661   6.711 -0.2922  0.2642  0.2802
  335MOL0     C45111   3.592   3.583   6.851  0.6328 -0.2866  0.1844
  335MOL0     C45112   3.446   3.517   6.859 -0.2626 -0.0123 -0.3626
  335MOL0     C45113   3.425   3.404   6.963  1.3547  0.0350  0.2016
  335MOL0     O45114   3.286   3.357   6.966 -0.4409  0.1068 -0.5117
  335MOL0     C45115   3.239   3.282   7.070  0.7950  0.4772  0.6747
  335MOL0     C45116   3.145   3.182   7.052 -0.6606  0.8152 -0.4248
  335MOL0     C45117   3.101   3.104   7.162  0.2744 -0.8260  0.3706
  335MOL0     C45118   3.145   3.142   7.291  0.5150 -0.6319  0.3406
  335MOL0     C45119   3.104   3.059   7.409  0.6335  0.2487  0.1695
  335MOL0     O45120   3.106   3.122   7.527  0.1278  0.5699 -0.2192
  335MOL0     C45121   3.072   3.036   7.637  0.8702 -0.0562 -0.7223
  335MOL0     C45122   2.932   3.029   7.663  0.0055 -0.3644 -0.1312
  335MOL0     C45123   2.883   2.951   7.776 -0.0848  0.2945 -0.2736
  335MOL0     C45124   2.976   2.880   7.854  0.5373  0.0447  0.1764
  335MOL0     O45125   2.926   2.802   7.959  0.0372  0.2332  0.0802
  335MOL0     C45126   2.839   2.689   7.926 -0.1964 -0.1053  1.4174
  335MOL0     C45127   2.827   2.616   8.057 -0.7106  0.1565 -0.2842
  335MOL0     C45128   2.963   2.569   8.109 -0.0183 -0.6154 -0.8286
  335MOL0     C45129   2.954   2.439   8.184 -1.2059 -0.5454 -0.2719
  335MOL0     C45130   2.896   2.455   8.331  0.0044 -1.1167  1.1413
  335MOL0     C45131   3.023   2.486   8.421 -1.0878 -0.2022 -0.8545
  335MOL0     C45132   2.997   2.458   8.568 -0.8124 -1.0854 -0.1942
  335MOL0     C45133   3.118   2.519   8.651 -0.1760 -0.0644 -0.0638
  335MOL0    Cl45134   3.274   2.450   8.606 -0.1961 -0.0270  0.0200
  335MOL0     C45135   3.119   2.888   7.817 -0.4194  0.0061  0.6266
  335MOL0     C45136   3.170   2.961   7.707  0.0992  0.4997  0.0073
  335MOL0     O45137   3.082   2.935   7.394 -0.5942  0.3470 -0.5914
  335MOL0     C45138   3.241   3.241   7.306  0.4344  0.1335  0.3292
  335MOL0     C45139   3.285   3.313   7.200  0.7298 -0.5610 -0.1797
  335MOL0     N45140   3.576   3.909   6.757  0.3907  0.6290 -0.1695
  335MOL0     N45141   3.485   3.998   6.745 -0.2156  0.9422 -0.5562
  335MOL0     C45142   2.465   4.303   6.134 -1.0632 -0.1592  0.1919
  335MOL0     C45143   2.406   4.426   6.111 -0.4126 -0.0424 -0.6644
  335MOL0     C45144   2.118   4.786   6.166  0.2480 -0.0066  0.5272
  335MOL0     C45145   2.083   4.783   6.020 -0.0560 -0.5456 -0.2027
  335MOL0     C45146   1.996   4.887   5.975 -0.4184  0.5025  0.2184
  335MOL0     C45147   1.975   5.000   6.055  0.1706  0.7179  0.0150
  335MOL0     O45148   1.898   5.101   6.003  0.5005 -0.0498 -0.0320
  335MOL0     C45149   1.751   5.080   6.009  0.3046 -0.6780 -0.3956
  335MOL0     C45150   1.683   5.210   5.959 -0.1554 -0.0137  0.3449
  335MOL0     C45151   1.709   5.321   6.060  0.5405 -0.2913 -0.3172
  335MOL0     C45152   1.643   5.318   6.203 -0.7719  0.4122  0.2192
  335MOL0     C45153   1.499   5.280   6.206  0.5727 -0.1460 -0.2576
  335MOL0     C45154   1.388   5.230   6.213  0.1609 -0.3014  0.2500
  335MOL0     C45155   2.007   4.996   6.197 -0.2602  0.4811  0.0258
  335MOL0     C45156   2.085   4.891   6.257  0.1054  0.2977  0.9616
  335MOL0     C45157   2.111   4.897   6.411  0.1136  0.1618  0.0894
  335MOL0     H45158   2.082   4.381   6.225  0.4058 -1.4580 -1.7027
  335MOL0     H45159   2.189   4.150   6.259 -0.0016 -1.6122  0.5879
  335MOL0     H45160   2.562   3.936   6.289  1.2805 -1.5821 -2.1563
  335MOL0     H45161   2.621   4.051   6.171 -0.6815  0.2434  0.1827
  335MOL0     H45162   2.565   4.124   6.467  0.9352  2.4137  1.1051
  335MOL0     H45163   2.619   4.227   6.337 -2.1667 -1.1700 -0.2375
  335MOL0     H45164   2.830   4.134   6.313  2.4411 -0.9649 -0.4203
  335MOL0     H45165   2.772   3.977   6.364 -0.4408  0.4357  0.5243
  335MOL0     H45166   2.857   4.208   6.538  1.4931 -0.3741  0.2600
  335MOL0     H45167   2.766   4.077   6.600  2.1423 -1.2417  1.4080
  335MOL0     H45168   2.974   3.945   6.473 -2.2393 -0.7812  2.0429
  335MOL0     H45169   3.035   4.107   6.480 -1.1994 -1.0634 -2.8947
  335MOL0     H45170   3.022   4.112   6.731  2.6573 -1.1220  2.6111
  335MOL0     H45171   2.927   3.969   6.734  0.5992 -0.6018  0.6575
  335MOL0     H45172   3.129   3.835   6.657 -0.9504 -0.1979  0.1333
  335MOL0     H45173   3.140   3.931   6.806 -0.0728  0.5993 -0.2959
  335MOL0     H45174   3.259   4.032   6.543 -1.8168 -1.1925 -0.1626
  335MOL0     H45175   3.267   4.113   6.696 -1.8935  0.3055 -0.1264
  335MOL0     H45176   3.349   3.721   6.619  3.7717 -3.0320  0.0553
  335MOL0     H45177   3.577   3.599   6.627 -2.9793 -1.8280  2.6495
  335MOL0     H45178   3.717   3.674   6.697  0.0982 -0.7277  2.1089
  335MOL0     H45179   3.671   3.506   6.856  1.5113  0.6195  0.5398
  335MOL0     H45180   3.617   3.655   6.929  0.4421 -0.3828  0.3381
  335MOL0     H45181   3.432   3.476   6.758 -1.2019 -0.1426 -0.1928
  335MOL0     H45182   3.380   3.602   6.878  0.1483  0.6930 -1.9238
  335MOL0     H45183   3.454   3.453   7.056 -2.5723  2.1826  0.4916
  335MOL0     H45184   3.494   3.322   6.940  0.0803 -0.9100 -0.4032
  335MOL0     H45185   3.114   3.154   6.952  1.8431 -4.3423 -0.0924
  335MOL0     H45186   3.026   3.027   7.151  1.7577 -2.0260 -2.3182
  335MOL0     H45187   2.863   3.076   7.594  0.9096  0.1824 -0.6697
  335MOL0     H45188   2.778   2.949   7.803 -0.3987  2.8824 -0.9748
  335MOL0     H45189   2.746   2.723   7.880  0.2488  1.5895  1.7074
  335MOL0     H45190   2.892   2.622   7.857 -0.5131 -1.1923  2.2071
  335MOL0     H45191   2.790   2.681   8.137  1.7695 -2.4493  3.3716
  335MOL0     H45192   2.757   2.535   8.039  3.1756 -3.8443  0.7353
  335MOL0     H45193   3.035   2.559   8.027 -0.4021 -1.3372 -1.0873
  335MOL0     H45194   3.011   2.637   8.180 -1.1183 -1.1266  0.4451
  335MOL0     H45195   3.048   2.384   8.189 -3.1513 -4.5693 -2.5287
  335MOL0     H45196   2.884   2.372   8.134 -0.8400 -1.3311  0.2434
  335MOL0     H45197   2.860   2.354   8.353 -0.0398 -1.8522 -1.8642
  335MOL0     H45198   2.818   2.531   8.344  0.4391 -0.1353 -1.4447
  335MOL0     H45199   3.117   2.433   8.401 -1.8668 -1.5976 -0.9455
  335MOL0     H45200   3.038   2.594   8.413 -3.4826  0.2507  0.1636
  335MOL0     H45201   2.989   2.349   8.581  0.3975 -0.9871  1.8833
  335MOL0     H45202   2.901   2.501   8.598 -0.7278  0.1365 -1.5928
  335MOL0     H45203   3.122   2.625   8.624 -0.7355  0.4294  1.7045
  335MOL0     H45204   3.099   2.494   8.756  0.8649  0.9764  0.3934
  335MOL0     H45205   3.195   2.824   7.861 -0.0214  0.0516  0.0100
  335MOL0     H45206   3.275   2.956   7.682  0.1826 -0.8831  0.5605
  335MOL0     H45207   3.266   3.262   7.409 -0.2515 -0.1668  0.5574
  335MOL0     H45208   3.358   3.388   7.229 -2.0374  2.2129  0.1021
  335MOL0     H45209   2.571   4.291   6.117 -1.2774  0.7081 -2.1684
  335MOL0     H45210   2.454   4.506   6.055 -1.7349 -1.1035 -3.5156
  335MOL0     H45211   2.112   4.703   5.953  1.2441 -0.0124 -0.3031
  335MOL0     H45212   1.931   4.872   5.890  2.1790 -0.2501 -1.7600
  335MOL0     H45213   1.722   5.057   6.112  0.2822 -1.4372 -0.5684
  335MOL0     H45214   1.707   5.002   5.946  2.4295  0.1674 -3.1349
  335MOL0     H45215   1.574   5.203   5.958 -0.1970  0.1172  1.6928
  335MOL0     H45216   1.724   5.230   5.860  0.6823  1.8526  1.0184
  335MOL0     H45217   1.669   5.413   6.016 -3.6144 -0.8573  1.7714
  335MOL0     H45218   1.816   5.333   6.077  0.8364 -3.0906  0.2436
  335MOL0     H45219   1.701   5.256   6.272 -3.2446 -1.6072  0.6519
  335MOL0     H45220   1.645   5.423   6.232 -0.4944  1.1071 -2.1373
  335MOL0     H45221   1.290   5.188   6.217 -0.6636  1.5578  0.9178
  335MOL0     H45222   1.968   5.077   6.256 -1.2841  0.0933 -0.0838
  335MOL0     H45223   2.210   4.933   6.442  0.9415 -2.1805  0.3090
  335MOL0     H45224   2.040   4.968   6.455 -1.1213 -1.1277  0.2008
  335MOL0     H45225   2.089   4.800   6.456  0.1355  1.0467  2.1136
  336MOL0     O45226   1.641   4.980   6.564 -0.5615 -0.1078 -0.3811
  336MOL0     C45227   1.554   4.914   6.616  0.6674 -0.3487  0.3848
  336MOL0     O45228   1.553   4.783   6.632 -0.3496  0.6850  0.0865
  336MOL0     C45229   1.628   4.697   6.557 -0.9223 -0.3901  0.5105
  336MOL0     C45230   1.603   4.565   6.573  1.3078 -0.1798 -1.2591
  336MOL0     C45231   1.668   4.465   6.511  0.3322 -0.0034 -0.1874
  336MOL0     C45232   1.764   4.497   6.410 -1.1043 -0.1897 -0.1075
  336MOL0     O45233   1.829   4.405   6.330 -0.2299 -0.2179 -0.8105
  336MOL0     C45234   1.808   4.265   6.364 -0.7025 -0.0721  0.1154
  336MOL0     C45235   1.871   4.183   6.257 -0.5515  0.3850 -0.4301
  336MOL0     C45236   1.820   4.035   6.240  0.6879 -0.5682  0.0234
  336MOL0     C45237   1.799   3.955   6.368 -0.1218  0.9176  0.1555
  336MOL0     C45238   1.733   3.820   6.338  0.3491  0.4418 -0.3613
  336MOL0     C45239   1.665   3.756   6.460  0.3819  0.1531 -0.1437
  336MOL0     C45240   1.578   3.643   6.415  0.5685 -0.4596  0.8754
  336MOL0     C45241   1.497   3.576   6.517 -0.5041  0.3628  0.3386
  336MOL0     N45242   1.389   3.661   6.572 -0.1100 -0.8116 -0.9295
  336MOL0     C45243   1.407   3.746   6.686  0.1099 -0.1115 -0.1395
  336MOL0     C45244   1.290   3.823   6.686  0.2132  0.3672 -0.4802
  336MOL0     C45245   1.255   3.922   6.789 -1.0301 -0.0132 -0.4555
  336MOL0     C45246   1.232   3.872   6.929 -0.1845 -0.5564  0.1671
  336MOL0     C45247   1.091   3.805   6.921 -1.1499 -0.5694  0.0132
  336MOL0     C45248   1.053   3.738   7.057 -0.5047 -0.5762  0.3819
  336MOL0     O45249   1.048   3.593   7.055  0.2065  0.3873 -0.0199
  336MOL0     C45250   1.006   3.538   7.176  0.4823 -0.8312  1.1450
  336MOL0     C45251   0.942   3.418   7.176 -1.1967  0.1242  0.1206
  336MOL0     C45252   0.918   3.347   7.292  0.9460  0.8683  0.2158
  336MOL0     C45253   0.939   3.411   7.419 -0.3183 -0.3134 -0.2356
  336MOL0     C45254   0.907   3.344   7.542 -0.3291  0.2312  0.2511
  336MOL0     O45255   0.851   3.225   7.519  1.2738 -0.0301  0.2515
  336MOL0     C45256   0.794   3.147   7.622 -0.3093 -0.1644 -0.5853
  336MOL0     C45257   0.844   3.089   7.727  0.0166 -0.6088 -0.8384
  336MOL0     C45258   0.774   3.020   7.820 -1.0237  0.7732 -0.0475
  336MOL0     C45259   0.636   3.013   7.807 -0.1018  0.3919  0.5229
  336MOL0     O45260   0.550   2.954   7.895 -0.4055 -0.0413 -0.1260
  336MOL0     C45261   0.606   2.847   7.976  0.5323 -1.0143 -0.0544
  336MOL0     C45262   0.487   2.779   8.047  0.5684 -0.6059  0.4206
  336MOL0     C45263   0.531   2.713   8.169  0.3961  0.2912 -0.3742
  336MOL0     C45264   0.417   2.622   8.231 -1.0030 -0.3163 -0.4066
  336MOL0     C45265   0.474   2.526   8.343  0.4516 -0.7573 -0.2340
  336MOL0     C45266   0.501   2.390   8.271  0.2946  0.3350  0.1897
  336MOL0     C45267   0.578   2.284   8.357  0.0517  0.1393 -0.5967
  336MOL0     C45268   0.628   2.168   8.278  0.7574  0.2561  0.3298
  336MOL0    Cl45269   0.772   2.215   8.171  0.0755 -0.1734 -0.1167
  336MOL0     C45270   0.576   3.070   7.703 -0.2660 -0.1821  1.1443
  336MOL0     C45271   0.653   3.135   7.604 -0.6310  0.3400  0.3591
  336MOL0     O45272   0.934   3.387   7.653 -0.2668  0.3035  0.6616
  336MOL0     C45273   0.991   3.536   7.415  0.2801 -0.0807 -1.3907
  336MOL0     C45274   1.032   3.605   7.298 -0.6185 -0.4966  0.1147
  336MOL0     N45275   1.214   3.785   6.580 -0.3426  0.9642 -0.2322
  336MOL0     N45276   1.267   3.681   6.528  0.3726 -0.0166  0.0884
  336MOL0     C45277   1.792   4.629   6.391 -0.2331  0.4316  1.2033
  336MOL0     C45278   1.723   4.729   6.457 -1.3819 -0.8440  0.4411
  336MOL0     C45279   1.420   4.986   6.638  0.2979  0.1113  0.2095
  336MOL0     C45280   1.368   5.065   6.538  0.2024 -1.5588  0.5291
  336MOL0     C45281   1.236   5.109   6.532 -0.2841  0.5455  0.3920
  336MOL0     C45282   1.163   5.101   6.644  0.0965  1.0997 -0.8550
  336MOL0     O45283   1.057   5.183   6.661  0.5795 -0.2239 -0.1095
  336MOL0     C45284   0.936   5.108   6.654 -0.6506 -0.1547 -0.0327
  336MOL0     C45285   0.826   5.212   6.619 -0.2578 -1.3358 -1.0549
  336MOL0     C45286   0.862   5.296   6.493  0.0358 -0.1587 -0.1896
  336MOL0     C45287   0.887   5.219   6.369  1.1340 -0.3478  0.4268
  336MOL0     C45288   0.971   5.287   6.273 -0.4754  1.1189 -0.3843
  336MOL0     C45289   1.041   5.343   6.192 -0.0931  0.4567  1.3551
  336MOL0     C45290   1.212   5.029   6.760 -0.7197  0.2590  0.8208
  336MOL0     C45291   1.345   4.968   6.755  0.0033 -1.5607 -0.3897
  336MOL0     C45292   1.401   4.905   6.879  0.0390  0.2921 -0.2905
  336MOL0     H45293   1.530   4.543   6.651  3.2968  2.1630  1.4785
  336MOL0     H45294   1.629   4.367   6.534 -2.7932  1.0678 -0.4776
  336MOL0     H45295   1.857   4.237   6.458 -1.0941 -3.0950 -0.4792
  336MOL0     H45296   1.703   4.244   6.385 -1.3947  3.2532  0.6113
  336MOL0     H45297   1.977   4.184   6.283 -0.4911 -2.4041 -0.2311
  336MOL0     H45298   1.859   4.228   6.158  2.1922  1.6878 -0.2534
  336MOL0     H45299   1.890   3.984   6.173 -2.9622 -3.0779 -2.2396
  336MOL0     H45300   1.727   4.030   6.183 -1.4086  0.7036  3.0973
  336MOL0     H45301   1.896   3.944   6.417 -1.2864 -0.8915  2.1749
  336MOL0     H45302   1.742   4.015   6.440  0.4534 -0.4842  1.8455
  336MOL0     H45303   1.660   3.837   6.259  0.3636 -1.7906 -0.9115
  336MOL0     H45304   1.817   3.760   6.300 -1.1995  0.3388 -3.9876
  336MOL0     H45305   1.740   3.713   6.527 -0.4005 -2.3960 -0.7970
  336MOL0     H45306   1.617   3.834   6.519 -1.0707  1.7864 -3.2599
  336MOL0     H45307   1.639   3.572   6.358 -0.5912  1.3549 -3.0365
  336MOL0     H45308   1.509   3.680   6.338  0.5466  0.0504  1.1343
  336MOL0     H45309   1.438   3.503   6.461 -1.6380  0.6827  1.0717
  336MOL0     H45310   1.555   3.535   6.600 -0.9434 -0.2250  0.3598
  336MOL0     H45311   1.488   3.739   6.757  0.2567  5.2344  0.6572
  336MOL0     H45312   1.343   3.985   6.794  0.1854 -1.7175  0.7088
  336MOL0     H45313   1.167   3.976   6.753 -1.1045 -0.3970 -0.8731
  336MOL0     H45314   1.311   3.804   6.963  0.8386 -0.9181 -2.6718
  336MOL0     H45315   1.217   3.957   6.996 -1.2994 -1.0530  0.5800
  336MOL0     H45316   1.093   3.736   6.836  1.3078  1.4589 -1.7107
  336MOL0     H45317   1.011   3.876   6.898 -0.0376  0.7523  0.0988
  336MOL0     H45318   0.954   3.775   7.085 -0.5764 -0.6597  0.2345
  336MOL0     H45319   1.129   3.780   7.125  1.0420 -1.5997 -0.6622
  336MOL0     H45320   0.919   3.383   7.076  2.6379 -0.4783 -0.6999
  336MOL0     H45321   0.873   3.248   7.282  1.5322  0.5669  0.5691
  336MOL0     H45322   0.951   3.101   7.737 -0.3039  0.4695  2.0282
  336MOL0     H45323   0.831   2.991   7.907 -0.5685  1.1994 -0.2052
  336MOL0     H45324   0.661   2.784   7.905  0.5426 -1.4847  0.3692
  336MOL0     H45325   0.672   2.892   8.051  1.3474 -4.4419  1.4541
  336MOL0     H45326   0.406   2.850   8.065  0.1740 -1.2389  1.1733
  336MOL0     H45327   0.435   2.710   7.981 -1.1968  1.0758 -0.0525
  336MOL0     H45328   0.604   2.643   8.127 -1.7611 -2.2026 -0.2362
  336MOL0     H45329   0.569   2.786   8.241 -5.4483  4.4946 -0.7820
  336MOL0     H45330   0.374   2.563   8.150  1.3903 -2.1303 -0.4638
  336MOL0     H45331   0.348   2.690   8.282 -2.5371 -0.2472 -2.4431
  336MOL0     H45332   0.404   2.510   8.426  1.0655 -1.2667  0.2007
  336MOL0     H45333   0.569   2.559   8.385  0.8842 -1.3700 -0.7111
  336MOL0     H45334   0.412   2.349   8.221  1.1369 -0.4686 -0.6971
  336MOL0     H45335   0.564   2.418   8.186 -0.5222 -0.1587 -0.5966
  336MOL0     H45336   0.510   2.249   8.435 -0.2689 -1.4001 -1.5078
  336MOL0     H45337   0.659   2.335   8.410  0.4469 -1.2083  0.1754
  336MOL0     H45338   0.657   2.076   8.331  2.7018  0.1394 -0.8431
  336MOL0     H45339   0.544   2.140   8.214  1.0922  2.0122 -0.9391
  336MOL0     H45340   0.468   3.069   7.694 -0.2586 -1.2219  1.0941
  336MOL0     H45341   0.607   3.182   7.518 -0.4123  0.0695  0.0947
  336MOL0     H45342   1.018   3.587   7.507 -2.3762 -2.8332  1.1718
  336MOL0     H45343   1.072   3.705   7.310  0.4011 -0.8191 -0.4869
  336MOL0     H45344   1.870   4.653   6.319 -0.7023  1.4652  1.0233
  336MOL0     H45345   1.753   4.830   6.429 -0.7525 -1.3138 -0.6698
  336MOL0     H45346   1.438   5.086   6.458 -1.0662  0.5515 -0.0995
  336MOL0     H45347   1.215   5.172   6.447 -1.3075  2.1986  1.7842
  336MOL0     H45348   0.920   5.051   6.745  0.0822  1.1848  0.9812
  336MOL0     H45349   0.936   5.033   6.574 -0.7039 -0.1486 -0.0382
  336MOL0     H45350   0.822   5.280   6.704  2.9032 -1.4983 -0.6520
  336MOL0     H45351   0.736   5.152   6.601 -1.1076  0.0122 -1.4355
  336MOL0     H45352   0.943   5.366   6.518  4.1293 -4.2364 -0.7790
  336MOL0     H45353   0.780   5.368   6.484 -1.7699 -1.9745  0.8595
  336MOL0     H45354   0.936   5.121   6.377  0.2776 -0.8582 -0.3803
  336MOL0     H45355   0.794   5.193   6.318  3.5088 -2.0872 -3.4717
  336MOL0     H45356   1.103   5.402   6.127  1.1052 -0.2575  1.8177
  336MOL0     H45357   1.167   5.041   6.858 -2.9751  0.2339 -0.1503
  336MOL0     H45358   1.494   4.955   6.909 -0.6201  0.7527  1.0616
  336MOL0     H45359   1.336   4.935   6.961  0.5235  2.1142 -0.5047
  336MOL0     H45360   1.419   4.800   6.856  1.2325 -0.0239  1.8208
  337MOL0     O45361   7.122   7.550   5.556  0.3040  0.5379 -0.1321
  337MOL0     C45362   7.120   7.669   5.587 -0.6098 -1.2579  0.5200
  337MOL0     O45363   7.227   7.733   5.636 -0.4324  0.1095 -0.3881
  337MOL0     C45364   7.310   7.680   5.737 -1.0129 -0.8609 -0.1314
  337MOL0     C45365   7.426   7.752   5.756 -0.7302  0.8655  0.1451
  337MOL0     C45366   7.505   7.742   5.874  0.1117  0.7071 -0.6625
  337MOL0     C45367   7.483   7.630   5.963  0.4978 -0.3793 -1.0985
  337MOL0     O45368   7.562   7.591   6.065 -1.3765  1.0167 -0.6103
  337MOL0     C45369   7.613   7.694   6.141  0.1158  0.7023 -0.2516
  337MOL0     C45370   7.522   7.764   6.234  0.5312  0.0298 -0.0917
  337MOL0     C45371   7.498   7.683   6.361  0.0289  0.5729  0.5425
  337MOL0     C45372   7.398   7.562   6.348 -0.8397  0.4894 -0.1443
  337MOL0     C45373   7.405   7.475   6.476 -0.2116 -0.3421 -0.6053
  337MOL0     C45374   7.276   7.394   6.494 -0.2321  1.1427  0.0950
  337MOL0     C45375   7.161   7.475   6.554 -0.2480  0.8133  0.1627
  337MOL0     C45376   7.034   7.397   6.594 -0.2335 -0.0070 -0.6922
  337MOL0     N45377   6.915   7.476   6.566 -0.7138 -0.4992 -0.3957
  337MOL0     C45378   6.854   7.505   6.442  0.4643  0.5072  0.0412
  337MOL0     C45379   6.753   7.581   6.476 -0.8460  0.0199 -0.1376
  337MOL0     C45380   6.640   7.644   6.393 -0.0704  0.0510  1.1589
  337MOL0     C45381   6.675   7.771   6.316 -0.3482 -0.3462 -0.1361
  337MOL0     C45382   6.737   7.884   6.404 -0.5837  0.7383 -0.4054
  337MOL0     C45383   6.667   7.921   6.534  0.1043  0.2286  0.5510
  337MOL0     O45384   6.555   8.001   6.489 -0.4200  0.8911  0.6285
  337MOL0     C45385   6.443   7.962   6.561  1.0124 -0.5590  0.2562
  337MOL0     C45386   6.321   7.971   6.493  0.1017  0.2466 -0.2645
  337MOL0     C45387   6.197   7.933   6.546  0.1829 -0.2412  0.2888
  337MOL0     C45388   6.194   7.902   6.688 -0.6199 -0.3320 -0.6928
  337MOL0     C45389   6.067   7.868   6.751  0.2934 -1.1128  0.1976
  337MOL0     O45390   5.958   7.932   6.697 -0.8372 -0.8326  0.4910
  337MOL0     C45391   5.865   7.989   6.779 -0.8808 -1.0124 -0.3830
  337MOL0     C45392   5.723   7.958   6.782 -0.6869  0.5702 -1.1359
  337MOL0     C45393   5.637   8.027   6.877 -0.6426  0.3969  0.4203
  337MOL0     C45394   5.689   8.121   6.966  0.7115 -0.0397  0.0725
  337MOL0     O45395   5.603   8.159   7.063  0.2086 -0.3739 -0.0824
  337MOL0     C45396   5.654   8.240   7.177  0.5895  0.6523  0.3718
  337MOL0     C45397   5.715   8.146   7.278  0.5936 -0.2428  0.0287
  337MOL0     C45398   5.718   8.220   7.414 -0.9805  0.7517  0.4558
  337MOL0     C45399   5.593   8.194   7.514 -0.1144  1.0047  0.5514
  337MOL0     C45400   5.633   8.275   7.635  0.0017  0.4010  0.2387
  337MOL0     C45401   5.523   8.311   7.722 -0.2172 -0.0620 -0.5798
  337MOL0     C45402   5.577   8.352   7.865 -0.2131  0.2925 -0.1663
  337MOL0     C45403   5.594   8.502   7.880  0.6169 -0.1207 -0.2962
  337MOL0    Cl45404   5.660   8.562   8.028 -0.1853  0.4438  0.1594
  337MOL0     C45405   5.819   8.150   6.961  0.0623  0.3820 -0.0248
  337MOL0     C45406   5.904   8.095   6.861  0.1210 -0.8486  0.1746
  337MOL0     O45407   6.064   7.793   6.848  0.3233 -0.6526  0.2255
  337MOL0     C45408   6.318   7.904   6.761  0.0433  0.9144  0.2755
  337MOL0     C45409   6.440   7.927   6.696  0.3189 -0.4866 -0.4049
  337MOL0     N45410   6.740   7.589   6.619  0.2596  0.2258 -0.7081
  337MOL0     N45411   6.847   7.532   6.668  0.2498 -0.0140  0.3794
  337MOL0     C45412   7.370   7.540   5.936  0.6740  0.5538 -0.5320
  337MOL0     C45413   7.280   7.580   5.834  0.7459 -0.2970  0.0583
  337MOL0     C45414   6.995   7.754   5.552 -0.5518  0.1421  0.6681
  337MOL0     C45415   7.014   7.898   5.558  1.0527 -0.5587  0.4769
  337MOL0     C45416   6.908   7.980   5.517 -0.0498 -0.2847  0.0979
  337MOL0     C45417   6.787   7.930   5.466 -0.5976 -0.1565 -0.2988
  337MOL0     O45418   6.689   8.020   5.442 -0.0525  0.2618  0.8585
  337MOL0     C45419   6.614   7.993   5.327  1.0577 -0.5093  1.0488
  337MOL0     C45420   6.543   8.124   5.297  0.1427  0.3425 -0.1270
  337MOL0     C45421   6.622   8.233   5.222 -0.8171  0.5444 -0.6491
  337MOL0     C45422   6.562   8.368   5.188 -0.7815  0.9251  1.1700
  337MOL0     C45423   6.480   8.435   5.289  0.7448 -0.1788 -0.7176
  337MOL0     C45424   6.410   8.488   5.378  0.2678  0.2164  0.0042
  337MOL0     C45425   6.771   7.790   5.457  0.9966 -0.6014 -0.0381
  337MOL0     C45426   6.872   7.697   5.497  0.6980 -0.5256  0.0684
  337MOL0     C45427   6.840   7.553   5.499 -0.0897  0.5573  0.3364
  337MOL0     H45428   7.445   7.831   5.684  1.4534 -0.1870 -0.5167
  337MOL0     H45429   7.591   7.806   5.887  2.0625 -1.3840 -2.2419
  337MOL0     H45430   7.693   7.652   6.202 -0.4578 -1.1603 -0.7143
  337MOL0     H45431   7.658   7.761   6.067 -1.1709  0.7862 -0.9908
  337MOL0     H45432   7.427   7.781   6.183  0.3722  1.4740  0.6673
  337MOL0     H45433   7.565   7.862   6.256  1.2835  0.8850 -4.3221
  337MOL0     H45434   7.466   7.754   6.438 -0.6014 -0.5680  1.3654
  337MOL0     H45435   7.593   7.635   6.386 -2.4559 -5.8430 -0.4192
  337MOL0     H45436   7.297   7.604   6.345 -1.4895 -1.0744 -1.0868
  337MOL0     H45437   7.421   7.492   6.267  2.0826 -0.8272  1.6750
  337MOL0     H45438   7.482   7.399   6.464 -0.5248 -0.5072 -1.7102
  337MOL0     H45439   7.414   7.525   6.573 -2.7634 -1.0250  0.0654
  337MOL0     H45440   7.242   7.360   6.395  1.0471  0.0376  0.0064
  337MOL0     H45441   7.309   7.308   6.554  0.1132  1.7467  0.7802
  337MOL0     H45442   7.138   7.562   6.490 -0.2292 -0.3834 -1.5263
  337MOL0     H45443   7.194   7.507   6.653 -1.5095 -1.9740  1.5790
  337MOL0     H45444   7.031   7.314   6.522  2.4862  0.4859 -1.4631
  337MOL0     H45445   7.025   7.368   6.700  0.2244  2.0480 -0.0542
  337MOL0     H45446   6.880   7.466   6.344 -2.5110 -1.8835  0.0477
  337MOL0     H45447   6.600   7.568   6.325 -2.9851 -0.2027  2.9442
  337MOL0     H45448   6.554   7.662   6.459 -1.4901  1.1704 -0.8846
  337MOL0     H45449   6.742   7.750   6.232 -1.2919  3.9765 -2.2089
  337MOL0     H45450   6.589   7.813   6.264 -1.6357 -1.3463  1.0868
  337MOL0     H45451   6.742   7.979   6.349 -0.5747  2.0889  1.8049
  337MOL0     H45452   6.835   7.844   6.430  0.0323  2.8031  0.7513
  337MOL0     H45453   6.738   7.973   6.600 -1.3883  1.2906  1.3904
  337MOL0     H45454   6.632   7.828   6.580  0.9302 -0.4882 -0.2419
  337MOL0     H45455   6.329   7.995   6.387 -0.3642  2.3374  0.1318
  337MOL0     H45456   6.100   7.931   6.498  1.0513 -1.8794 -1.5317
  337MOL0     H45457   5.669   7.888   6.720 -0.5539  0.8063 -1.5262
  337MOL0     H45458   5.529   8.015   6.872 -0.4150 -2.3528  0.5631
  337MOL0     H45459   5.717   8.321   7.141 -0.6589  0.5631 -2.2413
  337MOL0     H45460   5.565   8.289   7.218 -1.9135 -1.7318 -1.7996
  337MOL0     H45461   5.672   8.046   7.281  0.4911 -0.1949  2.5753
  337MOL0     H45462   5.820   8.140   7.247  0.6390 -1.1406  0.3452
  337MOL0     H45463   5.809   8.179   7.459  0.9125  2.3495 -1.6650
  337MOL0     H45464   5.732   8.328   7.399  0.9937  0.4281 -0.3535
  337MOL0     H45465   5.587   8.086   7.533  0.4307  1.0122  0.8007
  337MOL0     H45466   5.505   8.226   7.458 -1.3260 -4.0793 -0.9857
  337MOL0     H45467   5.684   8.371   7.619 -2.1021  1.2726 -2.0428
  337MOL0     H45468   5.699   8.214   7.696  1.9003  2.0179 -0.1127
  337MOL0     H45469   5.455   8.388   7.684 -3.8352 -2.8198 -0.1883
  337MOL0     H45470   5.452   8.228   7.730  0.0034 -0.0911  1.4186
  337MOL0     H45471   5.677   8.319   7.897 -0.6443  0.7211  1.7279
  337MOL0     H45472   5.506   8.311   7.937  0.0741 -0.8970 -0.5364
  337MOL0     H45473   5.662   8.547   7.807 -1.1330 -0.6517 -2.3735
  337MOL0     H45474   5.493   8.540   7.864  0.9584  1.5278  1.1723
  337MOL0     H45475   5.857   8.226   7.028 -0.9078  0.5907  0.2927
  337MOL0     H45476   6.008   8.127   6.862  0.6299 -2.3621 -0.4800
  337MOL0     H45477   6.302   7.881   6.866 -1.4775 -1.4519 -0.4089
  337MOL0     H45478   6.531   7.936   6.753 -0.9879  4.3710  1.3473
  337MOL0     H45479   7.371   7.455   6.003 -2.9629  0.5385 -0.3135
  337MOL0     H45480   7.181   7.535   5.826 -0.7416  2.9273 -1.0617
  337MOL0     H45481   7.109   7.938   5.590 -1.3808  2.1804  5.5550
  337MOL0     H45482   6.907   8.088   5.526 -2.1766 -0.1966 -0.6915
  337MOL0     H45483   6.536   7.916   5.330  0.8404 -0.6166 -2.4356
  337MOL0     H45484   6.682   7.962   5.247  0.7201 -4.8282  2.1930
  337MOL0     H45485   6.475   8.168   5.370 -2.2532  1.6275 -2.9109
  337MOL0     H45486   6.467   8.096   5.222 -0.0301 -1.5179  0.6914
  337MOL0     H45487   6.680   8.191   5.140  0.7644 -3.7388  2.3089
  337MOL0     H45488   6.692   8.251   5.304 -0.9127 -2.6718  0.2591
  337MOL0     H45489   6.641   8.439   5.166 -0.8164  1.3842  2.4465
  337MOL0     H45490   6.510   8.359   5.092 -1.7913 -2.3429  1.8921
  337MOL0     H45491   6.354   8.530   5.459  0.2263  2.1572 -0.9796
  337MOL0     H45492   6.669   7.757   5.440  0.4947  0.3725  0.9526
  337MOL0     H45493   6.876   7.500   5.588  2.4909  1.4246 -0.1028
  337MOL0     H45494   6.731   7.548   5.495 -0.0507  0.3434 -1.3530
  337MOL0     H45495   6.883   7.507   5.409 -1.9657  2.0321 -1.4295
  338MOL0     O45496   0.649   0.963   6.065  0.0673  0.5319  0.1855
  338MOL0     C45497   0.753   0.896   6.090  0.4331  0.3445 -0.0688
  338MOL0     O45498   0.850   0.866   6.003  0.4809 -0.2160  0.7834
  338MOL0     C45499   0.841   0.900   5.866  1.7816  0.1937  0.0728
  338MOL0     C45500   0.765   1.009   5.807 -0.8729  0.4000 -0.0843
  338MOL0     C45501   0.790   1.040   5.668  0.6642  0.3734 -0.0447
  338MOL0     C45502   0.876   0.968   5.586  0.3069  0.9084  0.0662
  338MOL0     O45503   0.883   0.983   5.449 -0.7344 -0.0718  0.9035
  338MOL0     C45504   0.903   0.853   5.382  0.7094 -0.2647 -0.5186
  338MOL0     C45505   0.899   0.871   5.225  0.9002 -0.7023 -0.3908
  338MOL0     C45506   0.784   0.953   5.170 -0.6018 -0.4901  0.1899
  338MOL0     C45507   0.768   0.938   5.013  0.7288  0.0593  0.1058
  338MOL0     C45508   0.653   1.017   4.962 -0.1261 -0.2313  0.0581
  338MOL0     C45509   0.613   0.964   4.824  1.1269 -0.3944 -0.0116
  338MOL0     C45510   0.520   1.063   4.751 -0.1949 -1.0245  0.3577
  338MOL0     C45511   0.547   1.067   4.601  0.0724  0.1738  1.6986
  338MOL0     N45512   0.488   0.950   4.542  0.3444  0.2099  0.5632
  338MOL0     C45513   0.547   0.829   4.547  0.8768  0.5138 -0.3092
  338MOL0     C45514   0.463   0.732   4.491  1.1554  0.0838  0.0051
  338MOL0     C45515   0.464   0.585   4.449 -1.3985 -0.4261  0.8119
  338MOL0     C45516   0.547   0.518   4.560 -0.0473 -0.4318  0.4665
  338MOL0     C45517   0.480   0.523   4.704  0.4518 -0.9561  0.5025
  338MOL0     C45518   0.549   0.410   4.791  0.2988 -0.4627 -0.3012
  338MOL0     O45519   0.656   0.471   4.873  0.3373  0.1656  0.4573
  338MOL0     C45520   0.611   0.474   5.002 -1.0675 -0.3301 -0.6678
  338MOL0     C45521   0.610   0.372   5.099 -0.2226 -0.1702 -0.1702
  338MOL0     C45522   0.564   0.401   5.226 -0.3353  0.1187  0.8037
  338MOL0     C45523   0.535   0.534   5.255  0.3594  0.2383 -1.2283
  338MOL0     C45524   0.507   0.580   5.396 -0.0021 -0.7495 -0.5847
  338MOL0     O45525   0.490   0.718   5.416 -0.4827  0.2041  0.0112
  338MOL0     C45526   0.439   0.751   5.539  1.2886 -0.0372  0.0996
  338MOL0     C45527   0.509   0.801   5.639  0.6301 -0.8238  0.1246
  338MOL0     C45528   0.453   0.817   5.767  0.2471  0.0680  1.0104
  338MOL0     C45529   0.314   0.810   5.778 -1.3657  0.7030 -0.5978
  338MOL0     O45530   0.254   0.841   5.900  0.1244  0.5718  1.1439
  338MOL0     C45531   0.315   0.910   6.003 -0.6820  0.1491 -0.4185
  338MOL0     C45532   0.218   0.934   6.115  0.1076  0.6455 -0.2954
  338MOL0     C45533   0.160   0.808   6.169 -0.3446  0.0087 -0.5988
  338MOL0     C45534   0.054   0.828   6.273  0.0490 -0.3801 -0.3627
  338MOL0     C45535   0.112   0.884   6.404  0.4434  0.2061 -0.2168
  338MOL0     C45536   0.189   0.794   6.496  0.0414  0.1907 -0.6952
  338MOL0     C45537   0.213   0.855   6.634 -0.1192  0.2509  0.7575
  338MOL0     C45538   0.290   0.769   6.743  0.4835 -0.6187  0.8404
  338MOL0    Cl45539   0.453   0.846   6.782 -0.1706  0.1555  0.4001
  338MOL0     C45540   0.238   0.770   5.674  0.3453  0.4929  0.3967
  338MOL0     C45541   0.299   0.735   5.555  0.6522  0.6744 -0.2794
  338MOL0     O45542   0.509   0.496   5.487 -0.5881 -0.1925 -0.0875
  338MOL0     C45543   0.544   0.639   5.158 -0.1030  0.6308 -0.0395
  338MOL0     C45544   0.571   0.604   5.028  0.6236  0.0714  0.1303
  338MOL0     N45545   0.362   0.813   4.435 -0.6879 -0.5124 -0.8575
  338MOL0     N45546   0.376   0.938   4.472 -0.2729 -0.3503 -0.3158
  338MOL0     C45547   0.946   0.870   5.660 -0.0672  0.9868  0.6585
  338MOL0     C45548   0.927   0.840   5.790 -0.5325  0.9412  0.2792
  338MOL0     C45549   0.769   0.820   6.230 -0.8456  0.2208 -0.1689
  338MOL0     C45550   0.896   0.759   6.258  0.4408  0.2398 -0.1690
  338MOL0     C45551   0.920   0.694   6.386 -0.9610 -0.1036  0.3438
  338MOL0     C45552   0.825   0.691   6.483  0.0138  0.2301  0.0506
  338MOL0     O45553   0.856   0.637   6.607  0.7955 -0.4064 -0.3658
  338MOL0     C45554   0.752   0.607   6.697 -0.1682 -0.3127 -1.0727
  338MOL0     C45555   0.814   0.579   6.829  0.3827 -0.6635 -0.2730
  338MOL0     C45556   0.711   0.577   6.939 -0.8033  0.2293 -0.5087
  338MOL0     C45557   0.635   0.443   6.923 -0.3607 -0.1991  0.2902
  338MOL0     C45558   0.530   0.450   7.020  0.3274 -0.5611  0.0169
  338MOL0     C45559   0.456   0.446   7.116  0.4437  0.7872 -0.4443
  338MOL0     C45560   0.705   0.753   6.456  0.6814  0.1853 -0.0699
  338MOL0     C45561   0.671   0.818   6.333  0.6865  0.1316 -0.3914
  338MOL0     C45562   0.530   0.884   6.324 -0.4374  1.0881 -0.5710
  338MOL0     H45563   0.692   1.067   5.863  1.6164  1.7795  1.9688
  338MOL0     H45564   0.727   1.116   5.622 -3.7110 -1.5685  2.1852
  338MOL0     H45565   1.001   0.811   5.407 -0.5457 -3.1001 -0.0197
  338MOL0     H45566   0.829   0.781   5.418  2.2227  0.0842  3.8364
  338MOL0     H45567   0.877   0.775   5.177  1.2798  0.0933 -2.2652
  338MOL0     H45568   0.999   0.895   5.188 -0.1749  2.4107 -1.6788
  338MOL0     H45569   0.815   1.055   5.196 -1.8271  0.3658 -1.4987
  338MOL0     H45570   0.692   0.931   5.224  0.5168 -3.7373  0.9760
  338MOL0     H45571   0.862   0.960   4.963  0.8285  1.6462  0.9399
  338MOL0     H45572   0.740   0.832   5.012  0.1124  0.1727 -2.9652
  338MOL0     H45573   0.582   1.001   5.045  1.2482 -3.2470  0.7925
  338MOL0     H45574   0.674   1.124   4.965  1.9538 -0.5709 -0.8591
  338MOL0     H45575   0.706   0.950   4.767  2.0904  1.2888  1.0494
  338MOL0     H45576   0.570   0.865   4.839  2.3358 -0.9945 -0.3643
  338MOL0     H45577   0.533   1.161   4.799  3.3008 -1.9741  1.6588
  338MOL0     H45578   0.413   1.044   4.755 -0.6230  0.0643 -2.9232
  338MOL0     H45579   0.501   1.158   4.559  0.7388 -1.0998 -2.2046
  338MOL0     H45580   0.649   1.081   4.566 -0.0043 -2.8243 -0.0574
  338MOL0     H45581   0.642   0.798   4.589 -0.5291 -3.6114  0.2986
  338MOL0     H45582   0.372   0.527   4.439 -0.9572 -1.2694  1.4139
  338MOL0     H45583   0.508   0.571   4.350 -1.1526 -0.0823  0.8682
  338MOL0     H45584   0.555   0.413   4.528  1.8056  0.7185 -3.5218
  338MOL0     H45585   0.645   0.565   4.571  0.0986 -1.2035  3.3744
  338MOL0     H45586   0.373   0.505   4.691  0.5315  0.5775 -3.8020
  338MOL0     H45587   0.483   0.626   4.740  1.7862 -0.5741 -0.6150
  338MOL0     H45588   0.567   0.321   4.731 -1.5930 -0.0637 -1.5854
  338MOL0     H45589   0.463   0.382   4.854 -1.8160  2.3676 -1.6697
  338MOL0     H45590   0.653   0.274   5.078 -1.1933 -0.3387 -1.4804
  338MOL0     H45591   0.563   0.328   5.306 -0.2819  0.5770  1.2234
  338MOL0     H45592   0.614   0.823   5.625  0.3351  0.7256  0.1949
  338MOL0     H45593   0.521   0.834   5.850 -1.9005 -2.3347  3.4759
  338MOL0     H45594   0.395   0.848   6.043 -3.8886 -3.4576  1.0671
  338MOL0     H45595   0.354   1.010   5.980 -2.1229  0.6265 -0.9611
  338MOL0     H45596   0.275   0.990   6.190  1.9011  1.6454 -2.2888
  338MOL0     H45597   0.133   0.995   6.083 -0.0153  0.7547  0.2206
  338MOL0     H45598   0.127   0.744   6.087 -0.7048 -0.0251 -0.4270
  338MOL0     H45599   0.246   0.751   6.205 -2.5032 -3.1913 -0.0594
  338MOL0     H45600   0.022   0.728   6.302  2.8806 -1.1912  0.2938
  338MOL0     H45601  -0.028   0.880   6.223  0.3893 -1.6447 -2.3173
  338MOL0     H45602   0.031   0.916   6.470  0.1988 -1.8546  0.5559
  338MOL0     H45603   0.171   0.972   6.380  0.3412  0.6096  0.9732
  338MOL0     H45604   0.142   0.696   6.507  1.2561 -0.2564  0.9219
  338MOL0     H45605   0.291   0.771   6.462  1.5490 -0.0146  3.4123
  338MOL0     H45606   0.115   0.882   6.674 -0.5736 -0.9668  0.5265
  338MOL0     H45607   0.273   0.944   6.614 -0.4034  0.4996  0.9983
  338MOL0     H45608   0.245   0.767   6.843 -2.5332  1.5725 -0.3421
  338MOL0     H45609   0.302   0.664   6.715 -3.5219 -0.9740 -0.1639
  338MOL0     H45610   0.135   0.742   5.695 -0.4225  3.5884  1.2416
  338MOL0     H45611   0.235   0.692   5.479  3.6114 -2.9355 -1.0386
  338MOL0     H45612   0.525   0.745   5.173  0.8845  0.8641 -0.3844
  338MOL0     H45613   0.567   0.671   4.942 -1.4585  1.7833  1.4560
  338MOL0     H45614   1.024   0.816   5.607 -1.6215  0.0483 -0.7623
  338MOL0     H45615   0.982   0.753   5.826  0.2092  0.3904 -2.0249
  338MOL0     H45616   0.974   0.756   6.184 -2.0510  2.1557 -3.1228
  338MOL0     H45617   1.013   0.641   6.406 -0.6061 -0.2200 -1.4217
  338MOL0     H45618   0.693   0.523   6.659  0.2084  0.0920 -2.6301
  338MOL0     H45619   0.690   0.695   6.717  1.7615  0.5033  1.9892
  338MOL0     H45620   0.870   0.669   6.856 -1.5525 -0.0863  2.1466
  338MOL0     H45621   0.868   0.483   6.831 -1.6189 -1.9210 -2.1212
  338MOL0     H45622   0.644   0.664   6.937  1.1434  1.7925 -2.5399
  338MOL0     H45623   0.754   0.587   7.039 -0.4417  3.7248 -0.8955
  338MOL0     H45624   0.595   0.426   6.823 -0.5505 -0.4563  0.4076
  338MOL0     H45625   0.704   0.362   6.950 -0.3381  0.2348  1.6019
  338MOL0     H45626   0.396   0.441   7.204  1.7453 -0.3799  0.4132
  338MOL0     H45627   0.631   0.749   6.536  0.6387 -0.1251 -0.1263
  338MOL0     H45628   0.478   0.888   6.419 -4.3173 -0.1445 -2.4476
  338MOL0     H45629   0.529   0.990   6.296 -3.6052  1.7297  1.5110
  338MOL0     H45630   0.457   0.815   6.280  1.3579  0.0793 -2.1527
  339MOL0     O45631   3.284   1.935   6.047  0.6312 -0.4697  0.0528
  339MOL0     C45632   3.369   2.012   6.103 -0.5391  0.1863  0.2015
  339MOL0     O45633   3.362   2.149   6.100 -0.2039  0.5625 -1.3440
  339MOL0     C45634   3.238   2.198   6.075  0.2929  0.0347 -0.0174
  339MOL0     C45635   3.184   2.215   5.944 -0.6926 -0.9506  1.1630
  339MOL0     C45636   3.058   2.272   5.917 -1.2757 -1.3074  0.4088
  339MOL0     C45637   2.978   2.302   6.027 -1.4782 -0.3947 -0.1144
  339MOL0     O45638   2.856   2.346   5.981 -0.1645 -0.3481  0.0122
  339MOL0     C45639   2.774   2.417   6.074  0.6566 -0.3831  1.2217
  339MOL0     C45640   2.644   2.442   6.007  0.2720 -0.0166  0.7923
  339MOL0     C45641   2.565   2.313   5.954 -1.1368 -0.2381 -0.2111
  339MOL0     C45642   2.438   2.331   5.882  0.6043  0.0778 -1.0774
  339MOL0     C45643   2.322   2.377   5.968 -0.4558  0.5248  0.2344
  339MOL0     C45644   2.196   2.334   5.908  0.5227  0.4600  0.0015
  339MOL0     C45645   2.076   2.395   5.975 -0.7870 -0.4098  0.8405
  339MOL0     C45646   2.049   2.548   5.964  1.3305 -1.1323  0.7334
  339MOL0     N45647   2.057   2.586   5.821 -0.2182  0.1261  0.7075
  339MOL0     C45648   1.958   2.546   5.726 -0.5746  0.1812  0.2972
  339MOL0     C45649   2.005   2.596   5.607  0.3807  0.3203 -1.3528
  339MOL0     C45650   1.940   2.592   5.477  0.1308  0.2308 -0.2689
  339MOL0     C45651   1.885   2.729   5.448 -0.0689  0.5975 -0.0135
  339MOL0     C45652   1.773   2.709   5.340 -0.4719  0.3186  0.5028
  339MOL0     C45653   1.753   2.849   5.279 -0.9356 -0.4098  0.2008
  339MOL0     O45654   1.753   2.954   5.382  0.2170  0.3706  0.1973
  339MOL0     C45655   1.739   3.080   5.317  0.5870  1.0103  0.1867
  339MOL0     C45656   1.640   3.161   5.367  0.1089  0.3479 -0.6457
  339MOL0     C45657   1.627   3.283   5.309  0.1027 -1.1732 -0.3088
  339MOL0     C45658   1.698   3.328   5.199 -1.0244 -0.3394  0.0367
  339MOL0     C45659   1.680   3.465   5.145 -0.4446 -0.2459 -0.2132
  339MOL0     O45660   1.570   3.527   5.200 -0.0975 -1.4449 -0.9075
  339MOL0     C45661   1.526   3.655   5.155  0.4379  0.0981  0.8017
  339MOL0     C45662   1.608   3.769   5.155  0.2945 -0.4658  0.5253
  339MOL0     C45663   1.558   3.894   5.113 -0.0723  0.0816  0.1531
  339MOL0     C45664   1.428   3.909   5.067  0.7484 -0.4142 -0.5317
  339MOL0     O45665   1.383   4.029   5.016 -0.7732  0.2059  0.1209
  339MOL0     C45666   1.248   4.063   5.019  0.1768  0.9852 -0.6195
  339MOL0     C45667   1.243   4.210   4.996 -0.6480  0.2119 -0.0588
  339MOL0     C45668   1.258   4.241   4.847 -0.0156 -0.2503  0.0963
  339MOL0     C45669   1.193   4.360   4.783  0.2961  0.5508 -0.3139
  339MOL0     C45670   1.187   4.478   4.891  0.3244 -0.5454  0.3472
  339MOL0     C45671   1.310   4.548   4.940 -0.3347  0.7466  0.0041
  339MOL0     C45672   1.278   4.671   5.020 -0.4316  0.7352  0.2870
  339MOL0     C45673   1.409   4.741   5.057 -0.4157  0.6157  1.0832
  339MOL0    Cl45674   1.423   4.732   5.235 -0.3034 -0.1441  0.0255
  339MOL0     C45675   1.349   3.792   5.063 -0.9861 -0.7580 -0.4340
  339MOL0     C45676   1.396   3.666   5.110  0.2439 -0.4639  1.6299
  339MOL0     O45677   1.762   3.511   5.068  0.0267 -0.0724  0.1158
  339MOL0     C45678   1.797   3.244   5.154 -0.6397 -0.3741 -0.0370
  339MOL0     C45679   1.815   3.124   5.214  0.2128  0.0947 -0.1712
  339MOL0     N45680   2.126   2.655   5.630 -0.0403 -0.5800  0.1860
  339MOL0     N45681   2.157   2.660   5.757  0.2787 -0.1214  0.1886
  339MOL0     C45682   3.038   2.313   6.154 -0.6344  0.1417 -0.0659
  339MOL0     C45683   3.159   2.243   6.173  0.6565  0.6795 -0.5395
  339MOL0     C45684   3.498   1.952   6.159  1.3147 -0.8535  0.4377
  339MOL0     C45685   3.606   2.038   6.152 -0.7688  0.7550  0.2956
  339MOL0     C45686   3.729   1.983   6.190 -0.3187 -0.0743  0.0942
  339MOL0     C45687   3.735   1.854   6.251  0.8445  0.4388  0.2197
  339MOL0     O45688   3.858   1.817   6.293  0.1810 -0.2291  0.1031
  339MOL0     C45689   3.898   1.684   6.294  0.3085  0.7763  0.9722
  339MOL0     C45690   4.041   1.681   6.344 -0.9499 -0.3739  0.5272
  339MOL0     C45691   4.135   1.718   6.227  0.0655 -0.0591 -0.6539
  339MOL0     C45692   4.247   1.808   6.262 -1.2800  0.2103  0.4403
  339MOL0     C45693   4.361   1.745   6.326  0.1071 -0.2393  0.1185
  339MOL0     C45694   4.461   1.682   6.354  0.3559 -0.7701 -0.3049
  339MOL0     C45695   3.621   1.787   6.275 -0.4859  0.2326 -0.4490
  339MOL0     C45696   3.509   1.831   6.221 -0.0319 -0.3455  1.0293
  339MOL0     C45697   3.390   1.730   6.247  0.3160 -1.1125  0.4771
  339MOL0     H45698   3.247   2.168   5.869  1.4294  1.4121  1.3271
  339MOL0     H45699   3.024   2.274   5.814  1.1257  1.5623 -0.4698
  339MOL0     H45700   2.751   2.362   6.165 -1.2287  1.5470  1.9948
  339MOL0     H45701   2.813   2.518   6.089 -1.6282  1.5718 -3.5853
  339MOL0     H45702   2.669   2.504   5.921  3.6155  0.4520  1.9708
  339MOL0     H45703   2.572   2.492   6.072  1.1914  1.2895  0.8401
  339MOL0     H45704   2.561   2.247   6.041  2.8559  1.7569  1.7818
  339MOL0     H45705   2.633   2.260   5.887 -0.4882 -0.4078  0.5617
  339MOL0     H45706   2.451   2.408   5.805 -1.7609  3.8081  1.8730
  339MOL0     H45707   2.423   2.239   5.824 -0.1509  1.0965 -2.5923
  339MOL0     H45708   2.331   2.345   6.073 -0.6059  1.5446  0.5733
  339MOL0     H45709   2.319   2.486   5.962  1.2356  0.5027 -2.9664
  339MOL0     H45710   2.196   2.367   5.804 -2.2422  0.1493 -0.1682
  339MOL0     H45711   2.186   2.225   5.909  0.2111  0.4822  1.4326
  339MOL0     H45712   2.101   2.379   6.081 -0.0661  1.1244  0.9198
  339MOL0     H45713   1.985   2.343   5.943 -1.2723 -0.5915  2.4302
  339MOL0     H45714   1.946   2.565   5.996  1.1045  0.7889 -0.8485
  339MOL0     H45715   2.109   2.608   6.033  0.2835 -0.8423  1.4050
  339MOL0     H45716   1.862   2.500   5.745 -0.7359  0.3049 -0.2204
  339MOL0     H45717   2.024   2.570   5.410 -0.7823 -0.2766 -1.2684
  339MOL0     H45718   1.868   2.510   5.477  0.5886 -0.1810 -0.8617
  339MOL0     H45719   1.841   2.764   5.542  2.6246 -0.4821  1.7710
  339MOL0     H45720   1.962   2.797   5.410 -2.0376  1.7882 -2.1184
  339MOL0     H45721   1.682   2.678   5.393 -2.2338  2.3870 -1.1273
  339MOL0     H45722   1.790   2.642   5.256  0.2988  3.0340 -1.6872
  339MOL0     H45723   1.661   2.845   5.220  0.5278 -0.7044 -2.1884
  339MOL0     H45724   1.834   2.857   5.205 -0.7581 -1.6358  0.2538
  339MOL0     H45725   1.571   3.121   5.441  1.3029 -3.2794 -1.2788
  339MOL0     H45726   1.550   3.352   5.339  0.0732 -0.8020 -1.2041
  339MOL0     H45727   1.711   3.763   5.189  1.4998 -3.2527 -3.0171
  339MOL0     H45728   1.625   3.979   5.125 -0.7407  0.5948  0.3016
  339MOL0     H45729   1.186   4.003   4.953  1.7861 -1.0497 -0.3703
  339MOL0     H45730   1.207   4.064   5.120 -0.7288  4.1217 -0.9098
  339MOL0     H45731   1.140   4.241   5.016 -0.1179  2.4056 -0.4044
  339MOL0     H45732   1.305   4.269   5.064 -1.4471  0.6045  0.3477
  339MOL0     H45733   1.364   4.263   4.837 -0.2686  0.8956 -0.1504
  339MOL0     H45734   1.233   4.149   4.793 -4.2081 -0.4505  1.9923
  339MOL0     H45735   1.093   4.323   4.762  0.6477 -1.0186  0.6119
  339MOL0     H45736   1.235   4.403   4.692 -0.8035  0.4321 -0.8969
  339MOL0     H45737   1.119   4.448   4.971 -1.5054  0.0776 -0.9198
  339MOL0     H45738   1.133   4.560   4.843  0.3596 -1.0715 -0.6237
  339MOL0     H45739   1.342   4.479   5.018 -1.9453  0.4252  0.4331
  339MOL0     H45740   1.387   4.563   4.864 -0.4037  2.4457  0.2159
  339MOL0     H45741   1.234   4.623   5.108  4.9685  0.2079  3.0735
  339MOL0     H45742   1.211   4.743   4.972  1.9854  3.3231  0.5531
  339MOL0     H45743   1.497   4.691   5.016  1.4206  2.0436  3.0403
  339MOL0     H45744   1.404   4.844   5.020  4.2444  0.8112  0.4112
  339MOL0     H45745   1.250   3.786   5.020 -0.3188 -0.1891 -2.1539
  339MOL0     H45746   1.331   3.580   5.103 -1.0355  0.6016 -0.8592
  339MOL0     H45747   1.861   3.279   5.073  1.3697  3.5696  2.8864
  339MOL0     H45748   1.891   3.060   5.171  1.1361  0.3089  1.0642
  339MOL0     H45749   2.976   2.360   6.230 -1.2409 -0.6381 -0.0694
  339MOL0     H45750   3.183   2.237   6.279 -3.0247 -2.3081  0.3213
  339MOL0     H45751   3.599   2.138   6.109 -2.2708  0.8912  0.8305
  339MOL0     H45752   3.817   2.046   6.191 -2.3905  3.0934 -0.9097
  339MOL0     H45753   3.891   1.635   6.197  0.8628 -2.0402  2.2207
  339MOL0     H45754   3.844   1.628   6.371  0.5303 -3.0721 -1.4098
  339MOL0     H45755   4.050   1.576   6.375  1.5288 -0.2220  0.4974
  339MOL0     H45756   4.063   1.746   6.429  0.1008  3.1320 -2.1946
  339MOL0     H45757   4.080   1.749   6.138  1.8518 -3.1671 -3.0687
  339MOL0     H45758   4.177   1.620   6.199 -0.8557 -1.1725  1.5998
  339MOL0     H45759   4.281   1.847   6.166  1.8014 -2.5146  0.2301
  339MOL0     H45760   4.217   1.884   6.334 -1.2734 -0.2716  0.9645
  339MOL0     H45761   4.553   1.632   6.372 -0.3044 -1.5388  1.0327
  339MOL0     H45762   3.623   1.689   6.321 -0.4502 -0.0356 -1.0051
  339MOL0     H45763   3.340   1.684   6.161  3.8880 -1.6583 -1.5132
  339MOL0     H45764   3.421   1.647   6.310  0.5618 -0.9040  0.6334
  339MOL0     H45765   3.310   1.779   6.304  1.8104 -0.2783  1.9476
  340MOL0     O45766   9.639   6.018   5.533  0.0900 -0.4007  0.1829
  340MOL0     C45767   9.586   5.924   5.586 -0.8149 -0.8599 -0.1660
  340MOL0     O45768   9.602   5.883   5.719 -0.1425 -0.7792 -0.0630
  340MOL0     C45769   9.694   5.951   5.800 -0.7579  0.3362 -0.5762
  340MOL0     C45770   9.835   5.934   5.788 -0.3131 -0.5616  0.1278
  340MOL0     C45771   9.918   6.021   5.863 -0.2225  0.1656  0.1403
  340MOL0     C45772   9.873   6.095   5.974 -0.4065  0.2279  0.1592
  340MOL0     O45773   9.972   6.155   6.044 -0.1984  0.0568 -0.6475
  340MOL0     C45774   9.925   6.250   6.151  0.3131  0.6425  1.0493
  340MOL0     C45775  10.052   6.328   6.167 -0.0707  0.4826  0.3436
  340MOL0     C45776  10.167   6.238   6.233 -0.5714 -0.5341 -0.1665
  340MOL0     C45777  10.255   6.318   6.323  0.1452 -0.2478 -0.9046
  340MOL0     C45778  10.407   6.317   6.305  0.9436  0.8200  0.5510
  340MOL0     C45779  10.459   6.163   6.322 -0.1345 -0.2639 -0.6222
  340MOL0     C45780  10.617   6.155   6.288  0.7351  0.3136 -0.5273
  340MOL0     C45781  10.649   6.146   6.140 -0.0867  0.1011 -0.9950
  340MOL0     N45782  10.550   6.069   6.063  0.4028 -0.4778 -0.0862
  340MOL0     C45783  10.442   6.130   6.001  0.5765  0.1152 -0.2983
  340MOL0     C45784  10.413   6.047   5.900 -0.0267  0.0365  0.0873
  340MOL0     C45785  10.307   6.085   5.795 -0.6197 -0.8757  0.1152
  340MOL0     C45786  10.379   6.160   5.680  0.3943 -0.6412 -0.2739
  340MOL0     C45787  10.274   6.227   5.585  0.2110  0.8353  0.6950
  340MOL0     C45788  10.340   6.285   5.459 -0.4891  0.7319 -0.5076
  340MOL0     O45789  10.287   6.225   5.340 -0.1116  0.4400  0.0508
  340MOL0     C45790  10.313   6.295   5.225 -1.2236  0.7295 -0.2131
  340MOL0     C45791  10.222   6.276   5.125  0.2229  0.6400 -0.6268
  340MOL0     C45792  10.249   6.333   4.996  0.6896 -0.2928 -0.0456
  340MOL0     C45793  10.345   6.432   4.984  0.5356 -0.4499 -0.0583
  340MOL0     C45794  10.372   6.509   4.858  0.1660 -0.4843  0.4953
  340MOL0     O45795  10.431   6.624   4.870 -0.4957  0.1937 -0.0724
  340MOL0     C45796  10.453   6.705   4.758 -0.0314 -0.0889  1.1278
  340MOL0     C45797  10.514   6.673   4.632 -0.6067  0.0216 -0.1012
  340MOL0     C45798  10.532   6.770   4.528  0.0060  0.2787  0.5501
  340MOL0     C45799  10.510   6.905   4.550 -0.4759  1.0120  0.6644
  340MOL0     O45800  10.520   7.004   4.452 -0.4878 -0.1789 -0.7952
  340MOL0     C45801  10.441   7.006   4.338  1.0134  0.2052  0.0269
  340MOL0     C45802  10.408   7.152   4.300 -0.2262  0.8371 -0.6260
  340MOL0     C45803  10.517   7.219   4.227  0.3173  0.3841  0.5807
  340MOL0     C45804  10.662   7.201   4.268  0.4114 -0.6264 -0.9576
  340MOL0     C45805  10.756   7.291   4.180  0.7631  0.1283 -1.0468
  340MOL0     C45806  10.906   7.271   4.207 -0.0494 -0.5403 -0.2004
  340MOL0     C45807  10.992   7.302   4.088 -0.1661 -0.7493  0.6182
  340MOL0     C45808  10.971   7.443   4.039 -0.6420  0.0266  0.1975
  340MOL0    Cl45809  11.007   7.570   4.161 -0.1681 -0.3028  0.1422
  340MOL0     C45810  10.451   6.941   4.672  0.3046 -0.4957 -1.1497
  340MOL0     C45811  10.431   6.842   4.771 -0.2695  0.1511  0.3509
  340MOL0     O45812  10.339   6.452   4.756 -0.0340  0.2138  0.1945
  340MOL0     C45813  10.438   6.450   5.086 -1.1789  0.1635  1.0158
  340MOL0     C45814  10.429   6.372   5.203  0.5017 -0.2664 -0.6052
  340MOL0     N45815  10.489   5.933   5.913  0.3089 -0.7516 -0.3656
  340MOL0     N45816  10.581   5.943   6.005 -0.3096 -0.3965 -0.2482
  340MOL0     C45817   9.737   6.110   5.986  0.3904  1.2921 -0.2932
  340MOL0     C45818   9.649   6.038   5.897 -0.4055 -0.0972 -0.0346
  340MOL0     C45819   9.483   5.868   5.508  0.7869 -0.4702  0.1055
  340MOL0     C45820   9.351   5.883   5.558 -0.5649 -0.8181 -0.3818
  340MOL0     C45821   9.248   5.832   5.475 -0.1498  0.8239 -0.4400
  340MOL0     C45822   9.273   5.753   5.365  0.5094  0.7197  0.7334
  340MOL0     O45823   9.167   5.676   5.318 -0.9861  0.8098 -0.3316
  340MOL0     C45824   9.183   5.546   5.265 -0.3098  0.5230  0.1814
  340MOL0     C45825   9.209   5.446   5.373  0.9197  0.5860  0.0784
  340MOL0     C45826   9.203   5.296   5.322  0.0013  0.0949 -0.0954
  340MOL0     C45827   9.305   5.209   5.389  0.5969  1.5391 -0.0145
  340MOL0     C45828   9.340   5.082   5.320  1.2390 -1.1264 -0.0520
  340MOL0     C45829   9.353   4.977   5.264 -0.6526  0.5432  1.0299
  340MOL0     C45830   9.405   5.733   5.318  0.7069  0.3995 -0.7003
  340MOL0     C45831   9.511   5.786   5.394 -1.0410 -0.1062  0.4450
  340MOL0     C45832   9.655   5.752   5.355  0.4083 -0.4329  0.1572
  340MOL0     H45833   9.877   5.856   5.724 -0.1263 -0.3579  0.0014
  340MOL0     H45834  10.023   6.015   5.834 -0.1362 -0.8623  0.6187
  340MOL0     H45835   9.849   6.322   6.121  0.4464 -0.8030 -3.5308
  340MOL0     H45836   9.891   6.206   6.246 -3.3069 -2.1292 -1.2721
  340MOL0     H45837  10.043   6.412   6.236  0.1253 -1.8016  3.3342
  340MOL0     H45838  10.094   6.373   6.076  0.1997  0.5751  0.5104
  340MOL0     H45839  10.239   6.198   6.161  1.6950 -0.3556  1.8616
  340MOL0     H45840  10.136   6.150   6.290  3.6322 -1.2551  1.3560
  340MOL0     H45841  10.226   6.423   6.314  2.3041  0.3559 -1.3032
  340MOL0     H45842  10.224   6.283   6.422 -2.0753 -1.1586 -1.8241
  340MOL0     H45843  10.434   6.351   6.204  4.3070 -2.3536  0.1653
  340MOL0     H45844  10.453   6.392   6.370 -0.6998  1.0717  1.4657
  340MOL0     H45845  10.444   6.122   6.422  0.7028 -2.5506 -1.3861
  340MOL0     H45846  10.396   6.091   6.268  0.2877  0.1992 -1.7571
  340MOL0     H45847  10.648   6.063   6.337 -1.7214  1.0458  2.7595
  340MOL0     H45848  10.667   6.240   6.335 -0.5275 -0.2376  1.9735
  340MOL0     H45849  10.657   6.246   6.096  0.9889  1.1580  1.4238
  340MOL0     H45850  10.742   6.090   6.146  0.6180  1.2313 -1.1175
  340MOL0     H45851  10.399   6.228   6.019  0.3095  0.4225 -2.3729
  340MOL0     H45852  10.256   5.994   5.763 -0.2002 -1.0627 -0.0277
  340MOL0     H45853  10.220   6.140   5.833  0.0495 -0.2035  0.7189
  340MOL0     H45854  10.441   6.238   5.724 -3.6760  1.1767  3.0154
  340MOL0     H45855  10.449   6.094   5.629  0.5542 -0.0066 -0.8950
  340MOL0     H45856  10.223   6.315   5.626 -2.0612 -0.4753  0.8737
  340MOL0     H45857  10.204   6.147   5.557  1.1948  1.2702 -3.8982
  340MOL0     H45858  10.448   6.265   5.469 -0.7626 -0.7705 -0.3066
  340MOL0     H45859  10.310   6.390   5.455 -1.4760  0.4304 -1.5585
  340MOL0     H45860  10.138   6.211   5.148  1.8782 -0.8058  1.7202
  340MOL0     H45861  10.187   6.302   4.912 -0.4590 -0.7470  0.9319
  340MOL0     H45862  10.539   6.568   4.618  0.8744  0.2133  0.8973
  340MOL0     H45863  10.555   6.746   4.424 -3.7986  1.4394 -0.7347
  340MOL0     H45864  10.494   6.948   4.262 -0.4222  0.8513 -1.5275
  340MOL0     H45865  10.351   6.947   4.358  0.4631  0.5016 -1.4657
  340MOL0     H45866  10.322   7.148   4.233  0.9072 -1.1337 -2.0729
  340MOL0     H45867  10.377   7.209   4.388  1.6083 -3.3451  3.1286
  340MOL0     H45868  10.505   7.202   4.120  2.6209 -0.2161  0.3778
  340MOL0     H45869  10.490   7.325   4.240 -2.6006 -0.3570  1.2442
  340MOL0     H45870  10.704   7.101   4.279  3.2457  0.2873 -2.4598
  340MOL0     H45871  10.681   7.232   4.371 -0.0307 -1.7593 -0.5192
  340MOL0     H45872  10.731   7.397   4.192  0.3802 -0.0839  0.0563
  340MOL0     H45873  10.737   7.277   4.073 -1.6925  2.2049 -0.9837
  340MOL0     H45874  10.937   7.336   4.289  1.5384 -1.0490 -0.3533
  340MOL0     H45875  10.927   7.164   4.223 -1.9050 -0.9679 -0.4349
  340MOL0     H45876  10.984   7.229   4.006  0.3824 -2.1745  1.7746
  340MOL0     H45877  11.096   7.290   4.122  0.0518  0.1758  0.2963
  340MOL0     H45878  11.021   7.466   3.945 -2.6112  0.3825 -0.8179
  340MOL0     H45879  10.865   7.449   4.015 -0.5957 -0.4870 -0.1353
  340MOL0     H45880  10.439   7.047   4.693 -0.9093 -0.0788 -3.5391
  340MOL0     H45881  10.404   6.873   4.871 -2.6005  2.2026 -0.7916
  340MOL0     H45882  10.528   6.509   5.073  0.7172 -2.5053  1.1430
  340MOL0     H45883  10.509   6.376   5.276 -0.6180  1.7743  0.6272
  340MOL0     H45884   9.695   6.171   6.065  2.5102  0.9410  1.1877
  340MOL0     H45885   9.542   6.058   5.904 -0.1756  0.5936  2.2862
  340MOL0     H45886   9.336   5.937   5.651  2.9539 -1.1734  0.5328
  340MOL0     H45887   9.149   5.865   5.506 -0.3191  1.6174 -1.7766
  340MOL0     H45888   9.259   5.544   5.187 -0.7811 -3.1683 -0.3505
  340MOL0     H45889   9.096   5.529   5.200 -0.1167 -1.3900  0.3763
  340MOL0     H45890   9.122   5.450   5.439 -0.6952 -1.7498 -1.7255
  340MOL0     H45891   9.302   5.470   5.425  1.4332  1.8152 -1.3443
  340MOL0     H45892   9.206   5.285   5.213  1.0569 -0.4367 -0.0294
  340MOL0     H45893   9.097   5.282   5.342 -0.3776  1.1688 -1.1914
  340MOL0     H45894   9.402   5.258   5.398  0.8343  1.0920 -0.1705
  340MOL0     H45895   9.281   5.175   5.491  0.7378  0.6335 -0.2759
  340MOL0     H45896   9.365   4.875   5.234  1.6555  0.5465  1.7476
  340MOL0     H45897   9.431   5.663   5.239  0.9646 -0.2660 -0.0311
  340MOL0     H45898   9.719   5.721   5.438 -0.3794  1.6618  1.6162
  340MOL0     H45899   9.644   5.676   5.276 -2.5932 -0.7764  0.7609
  340MOL0     H45900   9.691   5.840   5.302  1.0300 -1.1767 -0.6921
  341MOL0     O45901   6.511   3.610   1.292  0.1266  0.4585  0.5432
  341MOL0     C45902   6.517   3.546   1.396 -0.0738 -0.3024  0.6987
  341MOL0     O45903   6.421   3.502   1.468 -0.1220  0.1976  0.4369
  341MOL0     C45904   6.302   3.563   1.448  0.3589  0.7788  0.1477
  341MOL0     C45905   6.210   3.487   1.373 -0.9643 -0.7477  0.1460
  341MOL0     C45906   6.082   3.541   1.355 -0.3896  0.0947  0.0893
  341MOL0     C45907   6.046   3.668   1.406  0.1871 -0.1021  0.9357
  341MOL0     O45908   5.924   3.722   1.381  0.3272  0.4587  0.0421
  341MOL0     C45909   5.845   3.766   1.493 -0.3365  0.3941 -0.4188
  341MOL0     C45910   5.780   3.644   1.578 -0.7067 -0.7601  0.9128
  341MOL0     C45911   5.688   3.565   1.480 -0.3072  0.0974 -0.3005
  341MOL0     C45912   5.636   3.437   1.562  0.3007 -0.1884  0.5241
  341MOL0     C45913   5.547   3.360   1.469 -0.7396  0.1420  0.1153
  341MOL0     C45914   5.395   3.389   1.480  1.2627  0.8627  0.4634
  341MOL0     C45915   5.322   3.323   1.602 -0.1430 -0.1423 -0.1602
  341MOL0     C45916   5.176   3.298   1.569  0.6026  0.2330 -0.4033
  341MOL0     N45917   5.096   3.235   1.679 -0.1307  0.4067  0.0959
  341MOL0     C45918   4.985   3.157   1.672  0.5259 -0.0489 -0.1116
  341MOL0     C45919   4.932   3.159   1.801 -0.0886 -0.3326  0.8615
  341MOL0     C45920   4.811   3.080   1.829  0.6941  1.2545  0.1516
  341MOL0     C45921   4.715   3.133   1.936  0.5265  0.4283  0.1653
  341MOL0     C45922   4.592   3.050   1.939  0.2866  0.0621 -0.6388
  341MOL0     C45923   4.520   3.056   2.073  0.4621 -0.2325 -0.0903
  341MOL0     O45924   4.510   3.192   2.125  0.6810  0.7715  0.1151
  341MOL0     C45925   4.403   3.270   2.077 -0.4692  0.6849 -0.7676
  341MOL0     C45926   4.414   3.403   2.115  0.5420 -0.1814 -0.4384
  341MOL0     C45927   4.311   3.494   2.078  0.0646 -0.6413  0.3975
  341MOL0     C45928   4.202   3.450   1.995 -0.8075  0.5708 -1.7100
  341MOL0     C45929   4.100   3.542   1.936 -0.4743  0.0930  1.3548
  341MOL0     O45930   4.010   3.485   1.847 -0.3499 -0.6293  0.1392
  341MOL0     C45931   3.931   3.564   1.768  0.4979 -0.7092 -0.5834
  341MOL0     C45932   3.872   3.692   1.818  0.0809 -0.1618 -0.6827
  341MOL0     C45933   3.797   3.765   1.725  1.0877 -0.0395 -0.3208
  341MOL0     C45934   3.781   3.735   1.587 -0.0800  0.1745  0.4244
  341MOL0     O45935   3.726   3.819   1.493  0.1823  0.0691  0.3627
  341MOL0     C45936   3.651   3.944   1.524  0.1060 -0.2108  0.4419
  341MOL0     C45937   3.557   3.981   1.410 -0.3940 -0.8011 -0.3836
  341MOL0     C45938   3.641   4.017   1.285  1.3491  0.8212  0.6389
  341MOL0     C45939   3.673   4.167   1.284  0.2081 -0.2715 -0.3476
  341MOL0     C45940   3.793   4.199   1.187 -1.6382 -0.2273 -0.0690
  341MOL0     C45941   3.803   4.344   1.159  0.1250 -1.0069 -0.3118
  341MOL0     C45942   3.938   4.371   1.084  0.2513 -0.0275  0.0373
  341MOL0     C45943   3.916   4.343   0.934 -0.1077  1.1739  0.6023
  341MOL0    Cl45944   4.043   4.439   0.829 -0.2883  0.2130 -0.0630
  341MOL0     C45945   3.829   3.607   1.543 -0.1354  0.0016  0.0969
  341MOL0     C45946   3.909   3.530   1.632 -0.1189  0.4748  0.1162
  341MOL0     O45947   4.111   3.658   1.970 -0.4424 -0.6283  0.5926
  341MOL0     C45948   4.195   3.312   1.969  1.0284 -1.1273  0.1843
  341MOL0     C45949   4.292   3.226   2.008  0.4128 -0.0243  0.2190
  341MOL0     N45950   5.013   3.231   1.881 -0.2561  0.2490 -0.8126
  341MOL0     N45951   5.108   3.277   1.808  0.2679  0.8309  0.8682
  341MOL0     C45952   6.142   3.742   1.479  0.3443  0.2912  0.1561
  341MOL0     C45953   6.269   3.687   1.501  0.7525  0.4830 -0.9073
  341MOL0     C45954   6.652   3.481   1.415 -0.1912  0.1835 -0.4049
  341MOL0     C45955   6.757   3.575   1.391 -0.5107 -0.8425  0.3926
  341MOL0     C45956   6.895   3.536   1.414 -0.9207  0.5859 -0.8398
  341MOL0     C45957   6.930   3.402   1.460  0.5825 -1.2610  1.0624
  341MOL0     O45958   7.058   3.373   1.487  0.5554  0.3506  0.4772
  341MOL0     C45959   7.083   3.283   1.594 -1.2608  0.2826  0.3615
  341MOL0     C45960   7.226   3.304   1.637  0.4112 -0.1574 -0.9318
  341MOL0     C45961   7.344   3.273   1.548 -0.5183  0.3001  0.4866
  341MOL0     C45962   7.329   3.140   1.486  0.0009 -0.4016  0.6031
  341MOL0     C45963   7.308   3.017   1.564 -0.7012 -0.4852 -0.8877
  341MOL0     C45964   7.285   2.913   1.621 -0.2201 -0.3190  0.6836
  341MOL0     C45965   6.819   3.320   1.492 -0.3075 -0.3622 -0.0361
  341MOL0     C45966   6.684   3.355   1.466 -0.6854  0.8394 -0.5544
  341MOL0     C45967   6.587   3.246   1.494  0.3076  0.0164 -0.2962
  341MOL0     H45968   6.230   3.388   1.333  1.3407 -0.0277 -0.6743
  341MOL0     H45969   6.013   3.480   1.298  1.0462  2.2378 -4.3932
  341MOL0     H45970   5.910   3.828   1.556  1.0522 -1.6742  0.2828
  341MOL0     H45971   5.754   3.815   1.457 -1.9656 -1.3963  1.0427
  341MOL0     H45972   5.716   3.678   1.660 -1.8545 -1.4205  0.3089
  341MOL0     H45973   5.860   3.591   1.631  0.3941 -0.8093 -0.7189
  341MOL0     H45974   5.741   3.531   1.390 -0.9938  1.9160 -1.4448
  341MOL0     H45975   5.603   3.630   1.463  1.7755  3.5635  1.4307
  341MOL0     H45976   5.721   3.369   1.575 -2.0443 -4.0427 -1.9910
  341MOL0     H45977   5.566   3.469   1.639  0.4837  2.1616 -0.2144
  341MOL0     H45978   5.575   3.383   1.366 -1.7687  1.7627  0.1518
  341MOL0     H45979   5.568   3.254   1.487  1.6555  0.8608  2.1414
  341MOL0     H45980   5.375   3.496   1.470  0.6797  0.9494  2.1055
  341MOL0     H45981   5.345   3.362   1.387 -2.4106  1.4311  2.0820
  341MOL0     H45982   5.337   3.391   1.686  0.2569  1.3878 -1.4311
  341MOL0     H45983   5.370   3.228   1.628 -1.6664 -1.8741 -3.1364
  341MOL0     H45984   5.134   3.396   1.545 -1.5372 -0.5335 -0.0122
  341MOL0     H45985   5.160   3.237   1.479  2.7398 -0.7894 -0.1460
  341MOL0     H45986   4.954   3.104   1.583 -3.7631  1.8954 -0.0459
  341MOL0     H45987   4.759   3.057   1.735 -0.3821 -2.0720  1.4257
  341MOL0     H45988   4.834   2.979   1.865 -1.9338  1.1327  1.7910
  341MOL0     H45989   4.763   3.152   2.032  0.7658  1.5895 -0.1718
  341MOL0     H45990   4.701   3.238   1.909 -0.1826  0.3931  0.3861
  341MOL0     H45991   4.603   2.942   1.931  1.5649 -0.1646  2.7101
  341MOL0     H45992   4.522   3.085   1.862  0.2035 -1.6331 -1.3632
  341MOL0     H45993   4.578   2.992   2.141  1.7888  0.2274 -0.7597
  341MOL0     H45994   4.419   3.014   2.068  0.6237 -0.7043  0.4813
  341MOL0     H45995   4.493   3.418   2.188  0.6289 -0.7272 -0.4170
  341MOL0     H45996   4.307   3.597   2.112 -2.5798 -0.9448  1.2029
  341MOL0     H45997   3.869   3.732   1.919 -2.5766  0.4336 -0.9137
  341MOL0     H45998   3.757   3.862   1.755  0.4197 -0.8972  1.6932
  341MOL0     H45999   3.593   3.931   1.615 -2.7736  0.9063 -1.0838
  341MOL0     H46000   3.722   4.019   1.560  0.2048  0.4035 -0.9494
  341MOL0     H46001   3.484   3.899   1.406 -1.6404 -0.0750  3.0849
  341MOL0     H46002   3.494   4.064   1.444 -0.8420 -1.4154  0.3289
  341MOL0     H46003   3.735   3.962   1.281 -0.1914 -2.3150  3.0850
  341MOL0     H46004   3.580   3.999   1.196  1.7763  0.8496  0.3333
  341MOL0     H46005   3.691   4.209   1.384 -1.3113  1.6973 -0.8424
  341MOL0     H46006   3.591   4.220   1.234  1.2724  0.1207 -1.7465
  341MOL0     H46007   3.774   4.141   1.096 -0.8675  0.2086 -0.5195
  341MOL0     H46008   3.887   4.175   1.237 -1.2694 -1.1886 -1.1673
  341MOL0     H46009   3.718   4.376   1.098  0.2560 -2.4690 -1.3134
  341MOL0     H46010   3.795   4.392   1.257 -1.8371 -0.8298 -0.5185
  341MOL0     H46011   4.019   4.302   1.112  1.5518  1.5379  0.3036
  341MOL0     H46012   3.962   4.478   1.084 -4.0464  1.1501  2.6947
  341MOL0     H46013   3.922   4.236   0.911 -0.7372  1.1336  0.5951
  341MOL0     H46014   3.816   4.373   0.900 -0.7982 -0.4196  1.1303
  341MOL0     H46015   3.804   3.587   1.439 -2.2741 -0.1899  0.6048
  341MOL0     H46016   3.943   3.434   1.594  0.6851  0.9272 -0.3359
  341MOL0     H46017   4.112   3.269   1.914  0.8154 -1.8836  1.0710
  341MOL0     H46018   4.267   3.125   1.979  0.3538  0.6343 -2.2807
  341MOL0     H46019   6.120   3.841   1.515  1.1963 -0.1263  1.9464
  341MOL0     H46020   6.336   3.741   1.569  1.7630 -0.1527 -1.3707
  341MOL0     H46021   6.743   3.681   1.371  0.0035 -1.1254 -1.6449
  341MOL0     H46022   6.980   3.603   1.404  0.1837 -0.6684 -0.2994
  341MOL0     H46023   7.063   3.179   1.566  0.1870  0.5903 -2.1078
  341MOL0     H46024   7.020   3.309   1.680  0.7765  3.3132  1.0892
  341MOL0     H46025   7.239   3.257   1.735  0.0121 -0.7955 -1.1790
  341MOL0     H46026   7.239   3.412   1.654  1.0445 -0.2440 -0.8479
  341MOL0     H46027   7.429   3.263   1.616  0.7741 -5.0223 -1.4402
  341MOL0     H46028   7.351   3.359   1.480 -3.6168  0.5554  0.3544
  341MOL0     H46029   7.237   3.152   1.428  0.3887 -0.9465 -0.1388
  341MOL0     H46030   7.408   3.112   1.416  2.4095  0.2924  2.8923
  341MOL0     H46031   7.265   2.819   1.670  0.3001 -0.2390  1.0522
  341MOL0     H46032   6.832   3.223   1.541  1.0962  0.2504  0.8741
  341MOL0     H46033   6.621   3.151   1.454 -1.8865 -3.3301  4.7884
  341MOL0     H46034   6.573   3.222   1.600  1.0790  1.3397  0.1395
  341MOL0     H46035   6.491   3.274   1.449 -0.5783  1.6264  2.3216
  342MOL0     O46036   1.668   8.382   7.773  0.0625  0.3166  0.0620
  342MOL0     C46037   1.559   8.442   7.790  0.1977 -0.1284  0.2331
  342MOL0     O46038   1.467   8.475   7.687 -0.2580 -0.2032  0.0993
  342MOL0     C46039   1.501   8.452   7.559 -0.0187 -0.2774  0.0980
  342MOL0     C46040   1.420   8.362   7.482  0.7159  0.3322 -0.1205
  342MOL0     C46041   1.437   8.349   7.342 -0.2078 -0.0187 -0.0444
  342MOL0     C46042   1.548   8.412   7.286  0.4391  0.8151  0.2540
  342MOL0     O46043   1.576   8.382   7.154  0.3046 -0.4883 -0.1221
  342MOL0     C46044   1.662   8.466   7.081  0.0475  0.0096 -0.6474
  342MOL0     C46045   1.642   8.446   6.930  0.0586  0.2595 -0.2421
  342MOL0     C46046   1.665   8.297   6.891 -0.1373 -0.5448 -0.6588
  342MOL0     C46047   1.671   8.274   6.737  0.2606 -0.0443  0.3541
  342MOL0     C46048   1.819   8.308   6.679  0.2100  0.4335 -0.6119
  342MOL0     C46049   1.834   8.242   6.536 -0.5773 -0.8716 -0.5088
  342MOL0     C46050   1.978   8.243   6.485 -1.0218  0.1292 -0.0187
  342MOL0     C46051   2.004   8.143   6.367  0.0552  0.3908 -1.1638
  342MOL0     N46052   1.917   8.180   6.257 -0.0881 -0.4340  1.4235
  342MOL0     C46053   1.892   8.302   6.203 -0.2046 -0.5095  0.7424
  342MOL0     C46054   1.791   8.292   6.112  0.1636  0.4216  0.5528
  342MOL0     C46055   1.730   8.407   6.037 -0.1181  1.3771  0.4709
  342MOL0     C46056   1.664   8.500   6.128 -0.3254 -0.0392  0.1556
  342MOL0     C46057   1.531   8.432   6.185  0.6600 -0.7120  0.4853
  342MOL0     C46058   1.415   8.527   6.217 -0.0455  0.8876 -0.6906
  342MOL0     O46059   1.289   8.465   6.233 -0.3801 -0.0864  0.3206
  342MOL0     C46060   1.270   8.449   6.370  0.8568 -0.3733 -0.1634
  342MOL0     C46061   1.175   8.531   6.432 -0.3462  0.5116 -0.3662
  342MOL0     C46062   1.162   8.530   6.568 -0.1975 -0.0777  0.2234
  342MOL0     C46063   1.213   8.424   6.642  0.8391 -0.3715 -0.6590
  342MOL0     C46064   1.181   8.410   6.788  0.4663  0.0681  1.0710
  342MOL0     O46065   1.049   8.455   6.824 -0.1336 -0.2517  0.3629
  342MOL0     C46066   0.969   8.435   6.936 -0.2428  0.6186 -0.3641
  342MOL0     C46067   1.004   8.345   7.042 -0.2465 -0.9581  0.5622
  342MOL0     C46068   0.919   8.316   7.145  0.1123 -0.7802 -0.0996
  342MOL0     C46069   0.794   8.377   7.147 -0.6694 -0.6111 -1.1229
  342MOL0     O46070   0.702   8.364   7.257 -0.2261  0.0125  0.5963
  342MOL0     C46071   0.741   8.289   7.372  0.3892  0.7841 -1.2129
  342MOL0     C46072   0.693   8.145   7.359 -0.6226 -0.6328  0.1403
  342MOL0     C46073   0.536   8.134   7.331 -0.8602  0.7812  0.3103
  342MOL0     C46074   0.502   7.992   7.323  0.7328 -0.1234 -0.1382
  342MOL0     C46075   0.352   7.977   7.331  0.0099  0.4064  0.2536
  342MOL0     C46076   0.299   7.848   7.262  0.4640 -0.3484 -0.3443
  342MOL0     C46077   0.353   7.711   7.322  0.3055  0.0612  0.3268
  342MOL0     C46078   0.295   7.585   7.250 -0.2054  0.1317  0.0052
  342MOL0    Cl46079   0.321   7.613   7.068  0.0430 -0.3644  0.0546
  342MOL0     C46080   0.752   8.454   7.027  0.3620  0.0911 -0.6060
  342MOL0     C46081   0.838   8.479   6.927  0.1564  0.1844  0.4138
  342MOL0     O46082   1.254   8.340   6.856 -0.6558  0.4112  0.3018
  342MOL0     C46083   1.307   8.338   6.581 -0.8090 -0.0768 -0.2534
  342MOL0     C46084   1.333   8.352   6.449 -0.4038  0.1494  0.9259
  342MOL0     N46085   1.756   8.153   6.100 -0.8081 -0.8824  0.0978
  342MOL0     N46086   1.848   8.096   6.174  0.6035 -0.7892  0.4228
  342MOL0     C46087   1.613   8.511   7.358 -0.7109  0.5247  0.9397
  342MOL0     C46088   1.590   8.527   7.487 -0.0569  0.3535  0.4995
  342MOL0     C46089   1.525   8.473   7.930  0.2728 -0.0386 -0.4359
  342MOL0     C46090   1.437   8.586   7.952  0.3771  0.0403 -0.8669
  342MOL0     C46091   1.390   8.636   8.069 -0.8265  0.5642 -0.2100
  342MOL0     C46092   1.444   8.582   8.185  0.0677  0.3274  0.1799
  342MOL0     O46093   1.383   8.616   8.310 -0.4145 -0.3176 -0.2014
  342MOL0     C46094   1.427   8.556   8.426 -0.0857  0.2749  0.1206
  342MOL0     C46095   1.373   8.607   8.551  0.2985 -0.0142 -0.2214
  342MOL0     C46096   1.414   8.755   8.585 -0.5890 -0.7282  0.0272
  342MOL0     C46097   1.557   8.767   8.642  0.1007  0.0091 -0.3079
  342MOL0     C46098   1.665   8.781   8.542  0.6811  0.5019 -0.0281
  342MOL0     C46099   1.757   8.799   8.468  0.4265  0.1124  0.4023
  342MOL0     C46100   1.532   8.468   8.166  0.1636  0.4996 -0.3260
  342MOL0     C46101   1.580   8.412   8.046 -0.0422  0.1126 -0.4681
  342MOL0     C46102   1.677   8.302   8.043 -0.3195 -0.2181  1.1275
  342MOL0     H46103   1.347   8.300   7.533  0.2945 -2.5138 -3.7318
  342MOL0     H46104   1.363   8.289   7.289  0.4766  0.8488 -2.0718
  342MOL0     H46105   1.629   8.567   7.105  0.5682  0.0510 -0.0712
  342MOL0     H46106   1.768   8.465   7.107 -0.0789  0.5216 -0.0935
  342MOL0     H46107   1.703   8.511   6.868  2.6430 -0.7686  1.0819
  342MOL0     H46108   1.536   8.465   6.911 -0.6097 -1.8624  0.9896
  342MOL0     H46109   1.585   8.239   6.938 -0.7567 -0.1805 -1.2431
  342MOL0     H46110   1.754   8.262   6.944 -0.5714  0.0147  0.4637
  342MOL0     H46111   1.648   8.169   6.718  5.5231 -1.4530  0.1450
  342MOL0     H46112   1.599   8.333   6.679 -1.9356 -3.7079 -1.0635
  342MOL0     H46113   1.823   8.416   6.663 -0.9647  0.8458  1.5469
  342MOL0     H46114   1.886   8.259   6.750 -0.9171  0.2351  0.3344
  342MOL0     H46115   1.813   8.136   6.557  1.5359 -0.8748  2.2195
  342MOL0     H46116   1.771   8.287   6.460  0.5322 -0.6915 -1.3372
  342MOL0     H46117   2.045   8.242   6.571 -3.3627  1.1363  1.9415
  342MOL0     H46118   1.994   8.339   6.436  3.2238 -1.6672 -2.6467
  342MOL0     H46119   2.109   8.152   6.338 -0.7077 -0.2678 -4.4888
  342MOL0     H46120   1.987   8.043   6.407  1.7759  0.8809  0.9794
  342MOL0     H46121   1.939   8.390   6.246 -0.1114  1.0047 -2.2081
  342MOL0     H46122   1.807   8.457   5.978 -1.2906  0.9222 -1.5399
  342MOL0     H46123   1.661   8.373   5.959  1.0596  0.2463 -0.1215
  342MOL0     H46124   1.735   8.527   6.206  2.0577 -3.3620 -0.6294
  342MOL0     H46125   1.630   8.587   6.071 -4.0182 -2.4088 -1.6451
  342MOL0     H46126   1.552   8.376   6.276 -1.7348  1.2298  2.3445
  342MOL0     H46127   1.496   8.365   6.105  3.9256 -0.5093 -1.2795
  342MOL0     H46128   1.402   8.591   6.130 -3.3336  0.9523 -0.3076
  342MOL0     H46129   1.438   8.600   6.294  2.9363 -2.0250  1.4916
  342MOL0     H46130   1.125   8.600   6.365 -2.0813  1.7612  2.0274
  342MOL0     H46131   1.096   8.611   6.598  0.0851  0.3603 -0.3044
  342MOL0     H46132   1.097   8.288   7.037 -0.4531 -1.2976  0.5657
  342MOL0     H46133   0.966   8.245   7.212 -0.9886 -0.8554  0.6322
  342MOL0     H46134   0.847   8.292   7.398  0.4637  1.2834 -1.5395
  342MOL0     H46135   0.682   8.330   7.455  2.2956  2.5414 -0.6547
  342MOL0     H46136   0.762   8.095   7.290 -0.3271  1.9494 -1.5734
  342MOL0     H46137   0.711   8.101   7.457  1.0964  0.5264  0.3825
  342MOL0     H46138   0.477   8.186   7.407 -1.5462 -0.9450  0.9993
  342MOL0     H46139   0.513   8.182   7.235 -3.0783  1.9910  1.3717
  342MOL0     H46140   0.537   7.924   7.401 -1.5383  0.3473  1.3805
  342MOL0     H46141   0.538   7.964   7.223  3.3446 -1.6366  1.1081
  342MOL0     H46142   0.305   8.059   7.276 -1.6261 -1.9124 -2.0087
  342MOL0     H46143   0.315   7.989   7.433  1.6550  0.1160  0.9240
  342MOL0     H46144   0.191   7.838   7.247 -0.2265  1.5563  2.6404
  342MOL0     H46145   0.343   7.862   7.163  0.5443 -1.8614 -0.5488
  342MOL0     H46146   0.332   7.721   7.429  1.8074  1.9110  0.4989
  342MOL0     H46147   0.460   7.696   7.306 -0.0367 -2.6264  0.1188
  342MOL0     H46148   0.351   7.495   7.277 -2.3486 -1.4381 -0.5839
  342MOL0     H46149   0.189   7.571   7.268  0.0502  1.0485  2.5883
  342MOL0     H46150   0.652   8.494   7.017 -0.3310 -1.7544 -1.7791
  342MOL0     H46151   0.798   8.543   6.849 -3.1471  1.1026  2.6421
  342MOL0     H46152   1.360   8.271   6.647  0.7616  0.8786 -0.5015
  342MOL0     H46153   1.400   8.277   6.408  0.2530  1.6987 -1.0026
  342MOL0     H46154   1.697   8.567   7.319 -1.3521  0.5952 -0.4188
  342MOL0     H46155   1.644   8.610   7.532 -3.1983  2.4878  0.6800
  342MOL0     H46156   1.390   8.636   7.868 -2.1508 -0.4336  0.1615
  342MOL0     H46157   1.319   8.718   8.068  0.9600  2.2321  0.9971
  342MOL0     H46158   1.536   8.568   8.428 -0.2719  2.2917  0.4576
  342MOL0     H46159   1.388   8.454   8.414 -1.3449  0.8972 -1.3579
  342MOL0     H46160   1.399   8.544   8.637  0.9691 -0.7556 -0.9505
  342MOL0     H46161   1.265   8.593   8.549  0.4173 -1.2999  0.9830
  342MOL0     H46162   1.333   8.800   8.645  1.1687  0.4586  1.6418
  342MOL0     H46163   1.420   8.827   8.503 -1.3714 -1.3902 -0.6150
  342MOL0     H46164   1.562   8.864   8.692 -0.4469 -1.4537  2.8107
  342MOL0     H46165   1.582   8.690   8.715 -0.8450  1.9683  2.2428
  342MOL0     H46166   1.841   8.818   8.404  1.7965  3.0709  2.8242
  342MOL0     H46167   1.572   8.421   8.255  1.2503  0.6886 -0.7068
  342MOL0     H46168   1.628   8.232   7.975 -1.3942  3.8250 -2.7153
  342MOL0     H46169   1.777   8.332   8.013 -1.1030  1.1876 -0.2000
  342MOL0     H46170   1.677   8.251   8.140 -1.4048  0.1632  1.3440
  343MOL0     O46171   7.151   9.505   9.255  0.3856  0.4393  0.3203
  343MOL0     C46172   7.222   9.430   9.192  0.1750 -0.1845  0.0098
  343MOL0     O46173   7.190   9.365   9.080  0.0176  0.9349  0.9321
  343MOL0     C46174   7.096   9.416   8.985 -0.3199  0.0694  0.6055
  343MOL0     C46175   7.029   9.536   8.979 -0.4985  0.5236 -0.7013
  343MOL0     C46176   6.945   9.569   8.864  0.1234  0.4567  0.2592
  343MOL0     C46177   6.944   9.486   8.751 -1.0222 -0.4654 -0.4720
  343MOL0     O46178   6.858   9.509   8.649 -0.0289 -0.9078  0.7167
  343MOL0     C46179   6.849   9.649   8.605 -1.3372  1.8664  0.2884
  343MOL0     C46180   6.799   9.651   8.461  0.7466 -0.1738 -0.1979
  343MOL0     C46181   6.653   9.624   8.450 -0.5137 -0.9271  0.2056
  343MOL0     C46182   6.557   9.747   8.443  0.6202 -0.1633  0.4326
  343MOL0     C46183   6.416   9.700   8.490  0.6291  0.0015  0.2572
  343MOL0     C46184   6.323   9.817   8.495  0.0483  0.3384 -0.0264
  343MOL0     C46185   6.180   9.752   8.533  0.4130 -0.6710  0.8304
  343MOL0     C46186   6.072   9.857   8.487  0.4282  0.0396 -0.1660
  343MOL0     N46187   5.937   9.830   8.563  0.3061 -0.3813 -0.0712
  343MOL0     C46188   5.826   9.905   8.543 -0.1419 -0.2233  0.7214
  343MOL0     C46189   5.732   9.840   8.611  1.1283 -0.5491  1.3407
  343MOL0     C46190   5.596   9.899   8.627  0.2834 -0.3232  0.0544
  343MOL0     C46191   5.594  10.011   8.734  0.8544  0.0834 -0.8381
  343MOL0     C46192   5.450  10.073   8.737  1.2955 -0.7709  0.4930
  343MOL0     C46193   5.426  10.171   8.847  0.3158 -0.4001  0.8309
  343MOL0     O46194   5.482  10.302   8.806  0.4241  0.3822 -0.1146
  343MOL0     C46195   5.451  10.413   8.869  0.5461 -0.2227 -0.3367
  343MOL0     C46196   5.477  10.533   8.791  0.2310 -1.0992  0.6807
  343MOL0     C46197   5.425  10.656   8.834  0.7629  0.5506  0.6794
  343MOL0     C46198   5.386  10.681   8.966  0.0055 -0.0764 -0.3833
  343MOL0     C46199   5.353  10.823   9.015  0.0110 -0.7701  1.3731
  343MOL0     O46200   5.373  10.921   8.921 -0.2735 -0.1496 -0.5978
  343MOL0     C46201   5.294  11.034   8.925  0.1979 -0.3259  0.8309
  343MOL0     C46202   5.150  11.039   8.953  0.0598 -0.1712  1.1340
  343MOL0     C46203   5.073  11.153   8.936  0.9674  0.3809  1.0216
  343MOL0     C46204   5.131  11.279   8.896 -0.1770 -1.0309 -0.2110
  343MOL0     O46205   5.051  11.387   8.878 -0.3045 -0.2833 -0.2036
  343MOL0     C46206   5.006  11.386   8.747  0.0244 -0.7597  0.4065
  343MOL0     C46207   4.910  11.504   8.732 -1.0858 -1.2614 -0.0040
  343MOL0     C46208   4.851  11.532   8.593 -0.1767  0.6230  0.8857
  343MOL0     C46209   4.748  11.648   8.573  0.2045  0.0773  0.1241
  343MOL0     C46210   4.810  11.777   8.627 -0.3742  0.0899  0.4269
  343MOL0     C46211   4.734  11.903   8.571  0.3399 -1.0424 -0.7617
  343MOL0     C46212   4.767  12.032   8.640 -0.3978  0.6291  0.5778
  343MOL0     C46213   4.699  12.054   8.768  0.3076  0.0832 -0.0281
  343MOL0    Cl46214   4.526  12.093   8.737 -0.2933 -0.2949 -0.1176
  343MOL0     C46215   5.267  11.271   8.875 -0.7900 -0.0236  1.3556
  343MOL0     C46216   5.348  11.156   8.877  0.3768  0.3813 -0.5252
  343MOL0     O46217   5.328  10.847   9.128  0.2988 -0.1261  0.4843
  343MOL0     C46218   5.374  10.564   9.041 -1.2484 -0.1817 -0.4757
  343MOL0     C46219   5.398  10.431   8.997 -0.3438  0.7287 -0.9981
  343MOL0     N46220   5.780   9.731   8.673 -0.7570 -0.0735 -0.1042
  343MOL0     N46221   5.908   9.728   8.639 -0.1939  0.7690 -0.1501
  343MOL0     C46222   7.004   9.361   8.765 -1.1915 -0.6066  0.1743
  343MOL0     C46223   7.087   9.334   8.873 -0.5784 -0.5989  0.2618
  343MOL0     C46224   7.364   9.407   9.240  0.5066  0.7388  0.1654
  343MOL0     C46225   7.417   9.275   9.219 -0.5466  1.4760  0.5808
  343MOL0     C46226   7.540   9.235   9.281  1.0267  0.1317  0.1408
  343MOL0     C46227   7.612   9.332   9.346 -0.1091  0.1920 -0.2866
  343MOL0     O46228   7.727   9.312   9.414  0.4385  0.1339  0.3382
  343MOL0     C46229   7.766   9.183   9.459  0.4734  0.5840 -0.3810
  343MOL0     C46230   7.825   9.191   9.603 -0.2685 -0.7282 -0.2648
  343MOL0     C46231   7.797   9.072   9.694 -0.3267 -0.4414 -0.4500
  343MOL0     C46232   7.882   8.949   9.672  1.2343  0.0761  0.0240
  343MOL0     C46233   7.841   8.846   9.764  0.2302  0.1135  0.9701
  343MOL0     C46234   7.813   8.756   9.842 -0.7741 -0.4432 -1.3536
  343MOL0     C46235   7.557   9.451   9.374 -1.1066 -0.4202  0.0615
  343MOL0     C46236   7.432   9.494   9.326 -0.4820 -0.0804  0.3134
  343MOL0     C46237   7.385   9.633   9.364 -0.2158 -0.3267 -0.0382
  343MOL0     H46238   7.023   9.598   9.067 -3.1111 -0.8461  0.1798
  343MOL0     H46239   6.895   9.665   8.869  1.6019  1.4522 -2.2009
  343MOL0     H46240   6.785   9.713   8.667  2.2103  3.7698  2.3738
  343MOL0     H46241   6.947   9.696   8.614 -0.0691 -0.7891  1.4686
  343MOL0     H46242   6.847   9.572   8.402 -1.0188 -1.3940 -0.0615
  343MOL0     H46243   6.810   9.749   8.414  0.3787 -0.8589 -1.7690
  343MOL0     H46244   6.622   9.560   8.533 -1.6812 -0.8171 -0.1185
  343MOL0     H46245   6.637   9.570   8.356  1.1266 -3.3432  1.2127
  343MOL0     H46246   6.583   9.831   8.508 -2.1721  0.9855  0.1702
  343MOL0     H46247   6.555   9.790   8.342  0.8001  1.8329  1.2423
  343MOL0     H46248   6.376   9.626   8.420 -0.6530 -0.9991  1.9974
  343MOL0     H46249   6.419   9.661   8.592 -0.7078  1.2143  0.7866
  343MOL0     H46250   6.349   9.898   8.564  4.0688  1.4505 -2.4843
  343MOL0     H46251   6.311   9.859   8.395  3.4441  0.9743 -0.2873
  343MOL0     H46252   6.180   9.736   8.641  2.8955 -0.5739  0.9187
  343MOL0     H46253   6.159   9.665   8.471 -0.6333  0.5969 -0.6728
  343MOL0     H46254   6.102   9.961   8.504 -1.2019  0.3642  0.9790
  343MOL0     H46255   6.056   9.836   8.381  1.1067  1.0948 -0.4910
  343MOL0     H46256   5.820  10.000   8.491  1.9796  0.0470  0.8705
  343MOL0     H46257   5.572   9.957   8.537  0.9231 -0.9112 -0.5079
  343MOL0     H46258   5.517   9.827   8.648  0.2391 -0.1429  0.5221
  343MOL0     H46259   5.620   9.978   8.835 -0.1477  5.8134  1.6747
  343MOL0     H46260   5.671  10.087   8.724  0.3891  1.1644  2.4023
  343MOL0     H46261   5.384   9.990   8.765  0.0541  1.0807  3.5923
  343MOL0     H46262   5.409  10.105   8.641  0.0199 -4.3318 -0.3218
  343MOL0     H46263   5.468  10.144   8.944 -3.2925 -1.9326  2.1381
  343MOL0     H46264   5.320  10.183   8.868 -0.8889  0.0207 -4.2454
  343MOL0     H46265   5.516  10.531   8.690  1.4529 -3.5566  1.1422
  343MOL0     H46266   5.433  10.740   8.766 -1.5332 -1.9858 -3.1127
  343MOL0     H46267   5.100  10.943   8.959 -0.3240 -0.0593 -0.0654
  343MOL0     H46268   4.966  11.144   8.954  0.6085 -0.6821 -1.3334
  343MOL0     H46269   5.084  11.385   8.670 -1.3781  0.0515 -1.0902
  343MOL0     H46270   4.945  11.299   8.722  0.9741 -0.8675 -1.6933
  343MOL0     H46271   4.824  11.476   8.793 -1.3604 -1.8558 -0.6550
  343MOL0     H46272   4.951  11.599   8.768  1.2924 -2.1266 -0.2606
  343MOL0     H46273   4.935  11.562   8.529 -1.2882 -0.0139 -0.9634
  343MOL0     H46274   4.816  11.442   8.542  0.2327  0.0121  1.6619
  343MOL0     H46275   4.654  11.645   8.629 -0.6183  0.6302 -1.1862
  343MOL0     H46276   4.730  11.640   8.466  0.8134 -0.4403  0.0598
  343MOL0     H46277   4.917  11.785   8.603 -0.0800 -3.6207 -0.0937
  343MOL0     H46278   4.799  11.766   8.736  2.0600 -2.3749  0.5363
  343MOL0     H46279   4.741  11.934   8.466 -1.4405  0.7735 -0.4063
  343MOL0     H46280   4.629  11.874   8.579  0.0068  0.6305  2.0657
  343MOL0     H46281   4.743  12.113   8.570  0.6005 -1.8387 -2.8747
  343MOL0     H46282   4.875  12.037   8.652 -0.3201 -1.7151  1.5135
  343MOL0     H46283   4.699  11.960   8.823 -1.4815 -0.9190 -1.6033
  343MOL0     H46284   4.742  12.136   8.825  0.3064 -1.2127  1.9165
  343MOL0     H46285   5.319  11.355   8.829  2.2791 -2.1474  0.5723
  343MOL0     H46286   5.452  11.150   8.847  0.5042 -3.7868  0.0713
  343MOL0     H46287   5.339  10.583   9.142 -0.5520 -1.0537 -0.0508
  343MOL0     H46288   5.383  10.344   9.059 -1.8899  0.4355 -1.7167
  343MOL0     H46289   6.977   9.277   8.701 -2.8941 -0.2762  0.4030
  343MOL0     H46290   7.125   9.232   8.878 -0.9510 -1.0534 -3.4611
  343MOL0     H46291   7.362   9.196   9.169 -0.0559  2.2909 -1.3494
  343MOL0     H46292   7.574   9.132   9.274  0.8668  0.0408  0.6872
  343MOL0     H46293   7.838   9.143   9.386 -3.0619 -2.4370 -2.5886
  343MOL0     H46294   7.685   9.110   9.464  0.7550  0.2905  0.0191
  343MOL0     H46295   7.794   9.279   9.660  2.2458 -1.2438  2.0856
  343MOL0     H46296   7.934   9.190   9.599 -0.2133  1.7822 -1.3046
  343MOL0     H46297   7.690   9.050   9.689 -0.5837  0.9266 -1.5750
  343MOL0     H46298   7.817   9.094   9.799 -0.6744 -3.5581  0.3710
  343MOL0     H46299   7.869   8.906   9.571 -0.8370 -0.7011  0.5630
  343MOL0     H46300   7.984   8.985   9.688  0.8346  1.6926 -0.8260
  343MOL0     H46301   7.797   8.676   9.911 -0.1090 -0.5870 -1.3629
  343MOL0     H46302   7.622   9.527   9.417 -0.9668  0.7960 -2.1663
  343MOL0     H46303   7.447   9.687   9.437  0.8605  1.0844 -1.9000
  343MOL0     H46304   7.372   9.692   9.273  0.5327 -2.0985 -1.3513
  343MOL0     H46305   7.286   9.626   9.410 -0.4717 -0.0989 -0.5422
  344MOL0     O46306   9.512  10.893   9.451 -0.4099  0.6636 -0.3915
  344MOL0     C46307   9.617  10.915   9.390  0.1417 -0.1822 -0.1199
  344MOL0     O46308   9.672  11.040   9.373 -0.1320  0.7555  0.2160
  344MOL0     C46309   9.633  11.143   9.458  0.4801  1.5276  0.0877
  344MOL0     C46310   9.726  11.199   9.545  0.8832 -0.7810  0.0928
  344MOL0     C46311   9.693  11.310   9.621  0.8167 -0.2399 -0.8959
  344MOL0     C46312   9.565  11.371   9.600  0.2930 -0.2486  0.0022
  344MOL0     O46313   9.520  11.484   9.671 -0.7308  1.2018  0.7883
  344MOL0     C46314   9.593  11.532   9.783 -0.1652 -0.3944  0.9773
  344MOL0     C46315   9.496  11.588   9.890  0.7523 -0.4259 -0.7123
  344MOL0     C46316   9.571  11.663  10.003 -0.7200  0.4370 -0.4577
  344MOL0     C46317   9.478  11.726  10.103  0.2374  0.3933  0.0052
  344MOL0     C46318   9.546  11.754  10.234  0.5000 -0.8191  0.3544
  344MOL0     C46319   9.572  11.623  10.311 -0.9137  0.1106 -0.7701
  344MOL0     C46320   9.452  11.547  10.366 -0.7023 -0.0848  0.4743
  344MOL0     C46321   9.339  11.640  10.422 -0.4189  0.2339 -0.0290
  344MOL0     N46322   9.229  11.537  10.425 -0.3333  0.2376 -0.2967
  344MOL0     C46323   9.108  11.543  10.350 -0.2019 -0.0912 -0.1150
  344MOL0     C46324   9.026  11.447  10.399 -0.5876 -0.9928  0.1385
  344MOL0     C46325   8.876  11.433  10.380  0.6955  0.1326  0.1915
  344MOL0     C46326   8.805  11.459  10.511  0.8744 -0.2668  0.4045
  344MOL0     C46327   8.653  11.428  10.493 -0.1428  0.4992 -0.0636
  344MOL0     C46328   8.602  11.411  10.640  1.0182 -0.7640  0.0632
  344MOL0     O46329   8.630  11.522  10.725  0.1918  0.0962  0.2357
  344MOL0     C46330   8.565  11.644  10.693 -0.0015 -0.0423 -0.2596
  344MOL0     C46331   8.452  11.659  10.615 -0.7281  0.3079  0.1499
  344MOL0     C46332   8.397  11.780  10.574  0.3926 -0.9239  0.6749
  344MOL0     C46333   8.458  11.900  10.610 -0.3122  0.1612 -0.8060
  344MOL0     C46334   8.383  12.020  10.591  0.5771 -1.1900 -0.0923
  344MOL0     O46335   8.266  12.004  10.521  0.2090 -0.0427 -0.0397
  344MOL0     C46336   8.196  12.121  10.516 -0.1167 -0.3495  0.1411
  344MOL0     C46337   8.225  12.205  10.407  0.9966 -0.3186  0.6431
  344MOL0     C46338   8.143  12.315  10.378  0.3980  1.2882  0.1638
  344MOL0     C46339   8.046  12.353  10.463  0.0978 -1.2970  0.7267
  344MOL0     O46340   7.960  12.461  10.452 -0.0588  1.0541  0.0763
  344MOL0     C46341   7.904  12.475  10.316  0.9134  0.0474 -1.3711
  344MOL0     C46342   7.819  12.606  10.303  0.4771  0.2960  0.4973
  344MOL0     C46343   7.703  12.581  10.207 -0.1611 -0.2072 -0.3834
  344MOL0     C46344   7.628  12.715  10.185 -0.3089 -0.5092 -0.5461
  344MOL0     C46345   7.551  12.711  10.055  0.7651 -0.0563  0.2138
  344MOL0     C46346   7.466  12.843  10.034  0.1272  0.7942  0.6957
  344MOL0     C46347   7.557  12.955   9.975 -0.2345 -0.1422 -0.4852
  344MOL0     C46348   7.467  13.068   9.948 -0.1608  0.3389 -0.5195
  344MOL0    Cl46349   7.581  13.197   9.927  0.6107 -0.1353 -0.2401
  344MOL0     C46350   8.024  12.277  10.580  0.7736  0.4920  0.2648
  344MOL0     C46351   8.093  12.157  10.606  0.0681 -0.2962 -1.1248
  344MOL0     O46352   8.431  12.128  10.621 -0.0333 -0.2352  0.8329
  344MOL0     C46353   8.578  11.891  10.679 -0.2998 -0.1560  0.6465
  344MOL0     C46354   8.625  11.771  10.730  0.5134  0.1843  0.0908
  344MOL0     N46355   9.103  11.372  10.498  0.3938  0.1725  0.4299
  344MOL0     N46356   9.219  11.425  10.508  0.1030 -0.7917  0.3049
  344MOL0     C46357   9.482  11.315   9.503  0.0860  0.1823  0.4802
  344MOL0     C46358   9.511  11.203   9.439  0.7101  0.5142  0.1548
  344MOL0     C46359   9.689  10.796   9.324 -0.1564 -0.5648  0.0788
  344MOL0     C46360   9.621  10.671   9.346 -0.2730 -1.2856  0.3258
  344MOL0     C46361   9.663  10.559   9.284 -0.0951 -0.3222  0.2538
  344MOL0     C46362   9.791  10.552   9.210  0.0311 -0.3442  0.3610
  344MOL0     O46363   9.855  10.436   9.190  0.1437  0.0308  0.0472
  344MOL0     C46364   9.790  10.319   9.235  0.0664  0.4000  0.3761
  344MOL0     C46365   9.883  10.204   9.214 -0.3415  0.5499 -0.5825
  344MOL0     C46366  10.015  10.220   9.285  0.1925 -0.2620 -1.2420
  344MOL0     C46367  10.114  10.115   9.239 -0.8690  0.1963 -0.1119
  344MOL0     C46368  10.257  10.124   9.296  0.1053  0.2513 -0.0898
  344MOL0     C46369  10.364  10.103   9.353 -0.3690  0.3935  0.0193
  344MOL0     C46370   9.862  10.683   9.202 -0.5137  0.1211 -0.5771
  344MOL0     C46371   9.813  10.803   9.258 -0.3493 -0.1253  0.9128
  344MOL0     C46372   9.897  10.922   9.237 -0.8410 -0.6877 -0.7546
  344MOL0     H46373   9.826  11.158   9.555  0.7577 -0.5968  3.1492
  344MOL0     H46374   9.769  11.362   9.678 -1.1299  0.2903  1.3858
  344MOL0     H46375   9.655  11.455   9.830  0.0336 -1.9207 -1.5890
  344MOL0     H46376   9.648  11.613   9.734  0.9184 -4.3229 -5.4277
  344MOL0     H46377   9.437  11.501   9.921  0.1623 -0.7246 -2.5717
  344MOL0     H46378   9.422  11.653   9.842 -0.4025 -0.2857  1.1640
  344MOL0     H46379   9.631  11.744   9.960 -2.6834  1.4279 -1.4711
  344MOL0     H46380   9.632  11.586  10.050 -0.7192  0.1099 -0.9808
  344MOL0     H46381   9.435  11.818  10.063 -3.2147 -2.3038 -3.1241
  344MOL0     H46382   9.400  11.650  10.115  2.5717 -2.4593 -1.4584
  344MOL0     H46383   9.642  11.801  10.211 -0.1408  2.5120  3.5800
  344MOL0     H46384   9.486  11.828  10.288 -1.6245 -2.4729  0.3811
  344MOL0     H46385   9.625  11.550  10.248 -0.0217 -1.4718  1.6714
  344MOL0     H46386   9.634  11.654  10.396 -1.7309  3.4019 -1.2259
  344MOL0     H46387   9.490  11.479  10.443 -1.2485  0.0367  0.8561
  344MOL0     H46388   9.415  11.486  10.284 -0.2973  1.3370 -0.8147
  344MOL0     H46389   9.367  11.673  10.522  1.9166 -0.5285 -0.3625
  344MOL0     H46390   9.305  11.724  10.360  0.0368  0.9864  0.7202
  344MOL0     H46391   9.070  11.622  10.286 -3.7763 -0.4917  1.3097
  344MOL0     H46392   8.831  11.495  10.303 -3.8446 -3.1268 -0.1721
  344MOL0     H46393   8.867  11.327  10.353  3.1645 -0.1906  0.4111
  344MOL0     H46394   8.840  11.415  10.605 -0.5336 -0.9672  0.6340
  344MOL0     H46395   8.820  11.567  10.513  0.8659 -0.1991 -1.4196
  344MOL0     H46396   8.624  11.334  10.446 -2.6246  1.9715 -1.7355
  344MOL0     H46397   8.612  11.514  10.437  3.5562  2.8441  0.4824
  344MOL0     H46398   8.651  11.326  10.687  0.3324 -0.5444  1.2227
  344MOL0     H46399   8.494  11.394  10.654  0.9190  1.2389  2.7011
  344MOL0     H46400   8.392  11.577  10.577  0.2374 -0.9979  1.3429
  344MOL0     H46401   8.307  11.781  10.513 -0.4009  0.8902  1.7962
  344MOL0     H46402   8.310  12.176  10.348 -0.8616 -2.3564 -1.1991
  344MOL0     H46403   8.168  12.378  10.293 -1.1860  2.0853  0.2540
  344MOL0     H46404   7.980  12.477  10.237  0.8093  0.2103 -1.4689
  344MOL0     H46405   7.834  12.391  10.306  0.0143  0.5876  0.0464
  344MOL0     H46406   7.772  12.644  10.394 -5.8710  0.3069 -2.2506
  344MOL0     H46407   7.879  12.689  10.264 -1.7682  1.4934 -0.6493
  344MOL0     H46408   7.738  12.525  10.120 -1.8933 -1.7916 -0.1134
  344MOL0     H46409   7.641  12.515  10.269 -0.0958 -0.0996 -0.2008
  344MOL0     H46410   7.690  12.805  10.184 -1.8009  0.5887  0.4163
  344MOL0     H46411   7.570  12.730  10.277 -0.1044 -0.5019 -0.4167
  344MOL0     H46412   7.492  12.620  10.062  0.0992  0.3532  0.0304
  344MOL0     H46413   7.625  12.698   9.976 -1.1964  1.5324 -2.0351
  344MOL0     H46414   7.383  12.821   9.968 -0.6637 -0.4262  2.0376
  344MOL0     H46415   7.413  12.876  10.124 -2.0214  0.6129 -0.4517
  344MOL0     H46416   7.598  12.928   9.877 -1.3083  1.3698 -1.3970
  344MOL0     H46417   7.642  12.975  10.040 -0.7197 -1.6444  0.6697
  344MOL0     H46418   7.418  13.029   9.858 -0.7042 -0.7261  0.2064
  344MOL0     H46419   7.396  13.088  10.029  0.0963 -1.0046  0.0647
  344MOL0     H46420   7.942  12.304  10.646  0.3207 -0.0202 -0.0797
  344MOL0     H46421   8.059  12.097  10.690  2.9472  0.9447  1.0839
  344MOL0     H46422   8.633  11.982  10.701  2.3524 -0.6944 -2.9743
  344MOL0     H46423   8.718  11.778  10.786 -1.3226 -0.1637  3.4398
  344MOL0     H46424   9.387  11.356   9.471 -0.7396  0.5979  3.1940
  344MOL0     H46425   9.432  11.166   9.375 -0.3244  1.5737  0.7725
  344MOL0     H46426   9.521  10.674   9.389 -1.1234  4.2049 -1.3258
  344MOL0     H46427   9.595  10.478   9.306 -2.3314  1.8139  1.8206
  344MOL0     H46428   9.693  10.305   9.185  0.8638 -1.4725 -0.7970
  344MOL0     H46429   9.765  10.317   9.341  0.6974  3.6807  0.6780
  344MOL0     H46430   9.906  10.198   9.107  1.0395 -0.8307 -0.2338
  344MOL0     H46431   9.821  10.117   9.235  0.3610  0.0548 -0.5454
  344MOL0     H46432   9.997  10.215   9.393  1.1547 -0.2291 -1.0739
  344MOL0     H46433  10.066  10.314   9.260 -2.5250  1.2278 -1.6045
  344MOL0     H46434  10.069  10.023   9.278 -4.6932  2.2115  0.6514
  344MOL0     H46435  10.117  10.106   9.130  2.0082  1.8389 -0.2691
  344MOL0     H46436  10.458  10.075   9.396 -1.2266 -2.4232  0.2264
  344MOL0     H46437   9.958  10.682   9.152 -0.0599  1.1690  0.2547
  344MOL0     H46438   9.847  10.997   9.174  1.6389  0.6287 -1.2528
  344MOL0     H46439   9.908  10.964   9.338 -1.4726  1.2000 -1.4378
  344MOL0     H46440   9.981  10.884   9.179 -2.6431  0.4216 -4.3679
  345MOL0     O46441   1.779   0.839   9.457 -0.0934  0.2180 -0.7213
  345MOL0     C46442   1.660   0.816   9.449  0.4484 -0.8962  0.2444
  345MOL0     O46443   1.558   0.912   9.449  0.0884 -0.5603 -0.2859
  345MOL0     C46444   1.597   1.041   9.468 -0.1759  0.1453  0.4725
  345MOL0     C46445   1.686   1.113   9.382  0.7110  1.0096  1.0157
  345MOL0     C46446   1.709   1.250   9.403  0.1205  0.0519 -0.5808
  345MOL0     C46447   1.643   1.310   9.513 -0.6183 -0.4316 -0.5128
  345MOL0     O46448   1.671   1.440   9.530  0.0228 -0.2783  0.3459
  345MOL0     C46449   1.795   1.483   9.599  1.0168  0.2425  0.5497
  345MOL0     C46450   1.858   1.587   9.514 -0.0494 -0.0207  0.2092
  345MOL0     C46451   1.998   1.637   9.559 -0.9179  0.2029 -0.4230
  345MOL0     C46452   2.071   1.735   9.462 -0.6309 -0.2580  0.4225
  345MOL0     C46453   2.221   1.690   9.431  0.5813  0.0117  0.1060
  345MOL0     C46454   2.300   1.790   9.349  0.1234  0.0567 -0.5490
  345MOL0     C46455   2.379   1.882   9.437 -0.6347 -0.3329 -0.5811
  345MOL0     C46456   2.457   1.982   9.361  0.4753  0.5437  0.0286
  345MOL0     N46457   2.378   2.104   9.320 -0.9105  0.0336 -0.2600
  345MOL0     C46458   2.297   2.178   9.402  0.4405 -1.4991 -0.0152
  345MOL0     C46459   2.240   2.264   9.318 -0.5391 -0.4116  0.3972
  345MOL0     C46460   2.118   2.349   9.352 -0.1466  0.3044  0.7912
  345MOL0     C46461   2.134   2.491   9.292 -0.8804 -0.2189  0.1574
  345MOL0     C46462   2.040   2.592   9.353 -0.4174 -0.4945  0.2808
  345MOL0     C46463   2.046   2.727   9.275 -0.1809  0.0007 -0.5090
  345MOL0     O46464   2.177   2.792   9.298 -1.0351  0.0302 -0.2372
  345MOL0     C46465   2.219   2.887   9.203  0.8891 -0.5074 -0.7241
  345MOL0     C46466   2.287   2.997   9.251 -0.4414  1.0797  0.0507
  345MOL0     C46467   2.367   3.076   9.161  0.3779  0.0678 -0.6273
  345MOL0     C46468   2.362   3.047   9.032  0.1062 -0.2097  0.1754
  345MOL0     C46469   2.442   3.129   8.941 -0.3778  0.0400  0.0064
  345MOL0     O46470   2.545   3.211   8.991  0.3252 -0.2798 -0.5856
  345MOL0     C46471   2.639   3.257   8.903 -0.7334 -0.2954 -0.8291
  345MOL0     C46472   2.733   3.164   8.850 -0.1685 -0.0761 -0.0604
  345MOL0     C46473   2.827   3.214   8.752 -0.1505 -0.8744  0.0243
  345MOL0     C46474   2.854   3.347   8.717  0.0421  0.1162  0.0441
  345MOL0     O46475   2.948   3.391   8.615 -0.7569  0.2394  0.1241
  345MOL0     C46476   3.067   3.314   8.593 -0.8667 -0.0909 -0.9983
  345MOL0     C46477   3.167   3.326   8.712 -0.2838 -0.7873  0.3412
  345MOL0     C46478   3.317   3.295   8.680 -0.3767  0.5778 -0.5809
  345MOL0     C46479   3.414   3.412   8.699  0.1421  1.0627  0.9570
  345MOL0     C46480   3.556   3.368   8.671 -0.4503  0.0054  0.0212
  345MOL0     C46481   3.573   3.308   8.525  0.0463  0.9424 -1.4107
  345MOL0     C46482   3.524   3.394   8.411  0.2717  0.0393  0.1668
  345MOL0     C46483   3.579   3.537   8.416 -0.4536  0.0565  0.0285
  345MOL0    Cl46484   3.529   3.647   8.265  0.3653 -0.2490 -0.1177
  345MOL0     C46485   2.762   3.442   8.787  1.0227 -0.2897  0.1596
  345MOL0     C46486   2.653   3.398   8.875 -0.5287  0.2839  1.0652
  345MOL0     O46487   2.409   3.121   8.821  0.7509 -0.2391 -0.5379
  345MOL0     C46488   2.279   2.944   8.985  0.0977  0.5526  0.0233
  345MOL0     C46489   2.210   2.858   9.070  0.5225  0.2026  0.0230
  345MOL0     N46490   2.285   2.240   9.190  0.2695 -0.4405  0.3520
  345MOL0     N46491   2.371   2.149   9.197  0.6398  0.5432  0.2481
  345MOL0     C46492   1.564   1.244   9.609 -0.2475 -0.5655 -0.3948
  345MOL0     C46493   1.547   1.108   9.579 -0.0776 -0.3540 -0.9750
  345MOL0     C46494   1.612   0.672   9.462  0.7312 -0.2488 -0.3531
  345MOL0     C46495   1.673   0.573   9.384 -0.2120  0.2206  0.0402
  345MOL0     C46496   1.603   0.450   9.364  0.9360 -0.0118  0.0477
  345MOL0     C46497   1.486   0.411   9.419 -0.2463 -0.8568 -1.3147
  345MOL0     O46498   1.441   0.281   9.401  0.1446 -0.4859 -0.0162
  345MOL0     C46499   1.475   0.185   9.511 -0.5574 -0.1743  0.9829
  345MOL0     C46500   1.436   0.049   9.445 -0.3039  0.0134  0.2790
  345MOL0     C46501   1.480   0.033   9.302  0.1837  0.5924 -0.0066
  345MOL0     C46502   1.626   0.006   9.280  0.4050 -0.6904  0.6788
  345MOL0     C46503   1.659  -0.130   9.325  0.3749 -0.4436 -0.3272
  345MOL0     C46504   1.683  -0.238   9.366  0.4505 -0.3986  0.6176
  345MOL0     C46505   1.451   0.490   9.526 -0.2259 -0.4565  0.3546
  345MOL0     C46506   1.507   0.620   9.544  0.5656 -0.5409  0.6884
  345MOL0     C46507   1.456   0.703   9.654 -0.0595 -0.5105  0.5391
  345MOL0     H46508   1.734   1.059   9.301 -0.6569  1.0702  0.1251
  345MOL0     H46509   1.756   1.326   9.342  1.0181  1.0735  1.2879
  345MOL0     H46510   1.778   1.540   9.691 -1.0987  1.3175 -0.4296
  345MOL0     H46511   1.864   1.400   9.615  1.1916  0.0589 -1.0260
  345MOL0     H46512   1.784   1.668   9.511  1.1386  1.0511 -1.2764
  345MOL0     H46513   1.872   1.546   9.413  0.2287 -1.8599  0.9719
  345MOL0     H46514   2.055   1.544   9.574 -0.9955 -0.3610 -3.0891
  345MOL0     H46515   1.999   1.680   9.660  1.9712 -0.5736 -0.0017
  345MOL0     H46516   2.020   1.734   9.365  0.9564 -0.6252 -0.4534
  345MOL0     H46517   2.070   1.840   9.495  0.0144  0.8947 -2.8294
  345MOL0     H46518   2.272   1.660   9.524 -0.8864  1.4531  1.4495
  345MOL0     H46519   2.221   1.591   9.385  0.2010  0.0701 -0.0214
  345MOL0     H46520   2.370   1.743   9.279  1.0484  0.2949  0.1834
  345MOL0     H46521   2.230   1.849   9.291  1.3061 -0.3786 -2.5133
  345MOL0     H46522   2.445   1.826   9.503  1.3448  1.7969 -0.6329
  345MOL0     H46523   2.316   1.942   9.504 -0.3792  0.2785 -0.8825
  345MOL0     H46524   2.541   2.020   9.421  1.4217  2.0158 -2.1230
  345MOL0     H46525   2.500   1.934   9.273 -1.5726  2.1093 -1.9443
  345MOL0     H46526   2.281   2.153   9.506  3.6197 -0.4579  0.8247
  345MOL0     H46527   2.029   2.303   9.307  0.6226 -1.5053  1.0420
  345MOL0     H46528   2.098   2.343   9.459  0.5002 -0.1139  0.8997
  345MOL0     H46529   2.240   2.518   9.302 -0.6592  0.1746 -2.4496
  345MOL0     H46530   2.115   2.490   9.184 -2.4823 -0.6057  0.4269
  345MOL0     H46531   2.056   2.612   9.459  1.1128  1.0111 -0.1953
  345MOL0     H46532   1.940   2.547   9.348 -0.5508 -0.0889 -1.1298
  345MOL0     H46533   1.977   2.802   9.317  0.4698  0.6071 -0.4962
  345MOL0     H46534   2.017   2.706   9.172  2.4624 -0.0440 -1.3116
  345MOL0     H46535   2.282   3.015   9.358 -0.9643  2.2169 -0.1432
  345MOL0     H46536   2.413   3.161   9.212  1.2489  0.3294 -1.8149
  345MOL0     H46537   2.723   3.056   8.846  1.8482 -0.2953 -0.1778
  345MOL0     H46538   2.898   3.139   8.717  0.5648 -1.3183  2.3136
  345MOL0     H46539   3.042   3.214   8.559 -1.4257  0.0662 -1.0641
  345MOL0     H46540   3.117   3.361   8.507  2.6295 -1.8122 -0.1048
  345MOL0     H46541   3.157   3.433   8.736  0.8080 -0.5051 -0.4111
  345MOL0     H46542   3.146   3.265   8.800  0.0731 -0.0048  0.9755
  345MOL0     H46543   3.334   3.217   8.756 -0.2390  2.2667  1.1960
  345MOL0     H46544   3.331   3.270   8.575  1.9213 -3.6891  0.4878
  345MOL0     H46545   3.404   3.454   8.799  1.0418  1.3498  0.9333
  345MOL0     H46546   3.387   3.491   8.628  0.9227  1.1664  0.7666
  345MOL0     H46547   3.575   3.290   8.745 -5.6718 -2.7328 -0.9861
  345MOL0     H46548   3.623   3.453   8.680  3.6216 -2.9616  0.6629
  345MOL0     H46549   3.681   3.295   8.512 -0.1019  0.4323 -2.2739
  345MOL0     H46550   3.540   3.204   8.514  1.7403  0.2517 -0.4006
  345MOL0     H46551   3.415   3.398   8.406  0.3051  1.6768  0.2503
  345MOL0     H46552   3.563   3.342   8.323 -1.2296 -0.6424 -0.1286
  345MOL0     H46553   3.558   3.595   8.507  0.8899  1.1799 -0.3342
  345MOL0     H46554   3.687   3.520   8.424 -0.5584 -0.9713 -0.5475
  345MOL0     H46555   2.788   3.547   8.781  0.8755 -0.3268 -2.4132
  345MOL0     H46556   2.583   3.458   8.934  0.2096  1.0188  1.2135
  345MOL0     H46557   2.284   2.915   8.881  0.5202 -1.9586  0.6763
  345MOL0     H46558   2.155   2.767   9.052  0.5545 -0.8808  4.3561
  345MOL0     H46559   1.507   1.287   9.691 -0.4506  0.1955 -0.9202
  345MOL0     H46560   1.481   1.054   9.646 -1.5121  1.7779 -0.5669
  345MOL0     H46561   1.756   0.597   9.319  1.6080 -3.4241  0.6967
  345MOL0     H46562   1.633   0.378   9.289 -2.4653 -2.8652  1.1455
  345MOL0     H46563   1.400   0.200   9.590  0.2288  0.1845  1.6738
  345MOL0     H46564   1.576   0.199   9.551  0.5303  3.9323 -2.3866
  345MOL0     H46565   1.329   0.028   9.442 -0.1915 -0.5817  0.2592
  345MOL0     H46566   1.475  -0.032   9.509  0.5968 -0.0748 -0.3547
  345MOL0     H46567   1.434   0.096   9.226  0.4846 -3.2872 -3.8070
  345MOL0     H46568   1.435  -0.062   9.272  0.7175  0.0825  0.7527
  345MOL0     H46569   1.630   0.008   9.170 -3.7708  1.2948  0.3685
  345MOL0     H46570   1.688   0.090   9.313 -0.2560  1.4219 -2.8351
  345MOL0     H46571   1.696  -0.336   9.407 -1.4437 -1.4052 -1.0255
  345MOL0     H46572   1.385   0.448   9.601 -0.3118  3.3958  2.6896
  345MOL0     H46573   1.440   0.639   9.742  4.1135 -0.5405  1.4554
  345MOL0     H46574   1.521   0.783   9.688 -1.2796  1.8253 -2.2048
  345MOL0     H46575   1.364   0.758   9.630 -1.0761 -2.1201  0.5754
  346MOL0     O46576   1.708   3.564   2.311 -0.7739 -0.3515 -0.0795
  346MOL0     C46577   1.809   3.507   2.275 -1.1589 -0.9151 -0.5253
  346MOL0     O46578   1.926   3.566   2.247  0.3817  1.3057 -0.0812
  346MOL0     C46579   1.934   3.702   2.258  0.7265 -0.3007 -0.0263
  346MOL0     C46580   1.981   3.762   2.374  1.0517  0.9841 -0.0065
  346MOL0     C46581   2.008   3.900   2.383  0.5297 -1.0809  0.3684
  346MOL0     C46582   1.978   3.982   2.274 -0.4402 -0.8261  1.1368
  346MOL0     O46583   2.028   4.111   2.276 -0.4805 -0.0718  0.1049
  346MOL0     C46584   1.929   4.209   2.284  0.1309 -0.1179  0.1481
  346MOL0     C46585   1.837   4.209   2.406  0.5573 -0.2507  0.5289
  346MOL0     C46586   1.776   4.352   2.443 -0.4126 -0.0960  0.7129
  346MOL0     C46587   1.881   4.440   2.509  0.0651 -0.4922 -0.5218
  346MOL0     C46588   1.840   4.543   2.616  0.7240 -0.1676 -0.2795
  346MOL0     C46589   1.725   4.621   2.573  0.6028 -0.9174  0.0628
  346MOL0     C46590   1.661   4.694   2.685 -0.1814  0.0363 -0.4080
  346MOL0     C46591   1.518   4.647   2.698 -0.0889  0.4875 -0.5711
  346MOL0     N46592   1.504   4.512   2.759 -0.0736  0.2205 -0.0825
  346MOL0     C46593   1.542   4.476   2.888 -0.2549 -0.0791 -0.2739
  346MOL0     C46594   1.508   4.343   2.892 -0.1437  0.7139 -0.4409
  346MOL0     C46595   1.549   4.251   3.005 -0.6631 -0.7494 -0.8456
  346MOL0     C46596   1.432   4.164   3.061 -0.9553 -0.5682  0.0310
  346MOL0     C46597   1.339   4.256   3.138 -0.4631  0.3476  0.3360
  346MOL0     C46598   1.209   4.185   3.157 -0.2394 -0.1292  0.0617
  346MOL0     O46599   1.126   4.188   3.038 -0.3040  0.2016 -0.5148
  346MOL0     C46600   1.076   4.312   2.996 -1.1442 -0.1469  0.7022
  346MOL0     C46601   0.970   4.376   3.057  0.6344 -1.0146 -0.0016
  346MOL0     C46602   0.925   4.499   3.015 -0.0419  0.0203  0.1685
  346MOL0     C46603   0.984   4.546   2.898  0.1454 -0.3113  0.2235
  346MOL0     C46604   0.922   4.671   2.840  0.4970 -0.1882 -0.5696
  346MOL0     O46605   0.786   4.683   2.872  0.0882 -0.2796  0.0850
  346MOL0     C46606   0.713   4.782   2.812  0.2187  1.4665  0.4941
  346MOL0     C46607   0.593   4.743   2.759  0.1214  0.8116  0.8394
  346MOL0     C46608   0.514   4.840   2.702  0.3623 -0.7447  0.4837
  346MOL0     C46609   0.537   4.977   2.721  0.2305  0.1844 -0.3385
  346MOL0     O46610   0.448   5.058   2.655 -0.2312 -0.0670 -0.7258
  346MOL0     C46611   0.415   5.185   2.705  0.1084  0.1442  0.2528
  346MOL0     C46612   0.261   5.217   2.722  0.6245 -0.6252  0.3417
  346MOL0     C46613   0.170   5.201   2.600 -0.3588 -0.3911  0.2520
  346MOL0     C46614   0.169   5.318   2.507 -0.6047  0.4798 -0.1752
  346MOL0     C46615   0.161   5.458   2.560  0.1870 -0.0975 -0.5024
  346MOL0     C46616   0.014   5.511   2.569  0.0490 -0.4424 -1.0613
  346MOL0     C46617  -0.049   5.459   2.704 -0.5423 -0.3378 -0.2726
  346MOL0     C46618  -0.177   5.381   2.671 -0.2685  0.3631 -0.3723
  346MOL0    Cl46619  -0.253   5.321   2.822  0.0968  0.4579 -0.5176
  346MOL0     C46620   0.651   5.017   2.792  0.5599 -0.1103 -0.0300
  346MOL0     C46621   0.738   4.916   2.836 -1.0874  0.2345  0.4746
  346MOL0     O46622   0.989   4.735   2.753  0.2255 -0.3441 -0.0438
  346MOL0     C46623   1.094   4.491   2.836  0.2765  0.1125 -0.4055
  346MOL0     C46624   1.139   4.366   2.885  0.1493 -0.0518 -0.0474
  346MOL0     N46625   1.458   4.301   2.770 -0.0288  0.5037  0.2480
  346MOL0     N46626   1.448   4.403   2.690  0.2798  0.0437  1.5273
  346MOL0     C46627   1.930   3.928   2.158  0.4124 -0.6819  0.7741
  346MOL0     C46628   1.904   3.791   2.149  0.9715  1.3686 -0.7161
  346MOL0     C46629   1.805   3.355   2.257 -0.5130 -0.0107 -0.4922
  346MOL0     C46630   1.930   3.294   2.244  0.4227 -0.5117  0.7096
  346MOL0     C46631   1.935   3.154   2.216  0.3532 -0.1498  0.0168
  346MOL0     C46632   1.824   3.073   2.208  0.6948 -0.5387  0.6387
  346MOL0     O46633   1.818   2.939   2.200 -0.7259  0.6019  0.7274
  346MOL0     C46634   1.882   2.848   2.290  0.1663 -0.0332  0.2015
  346MOL0     C46635   1.973   2.759   2.208  0.0790 -0.2913  0.7274
  346MOL0     C46636   2.092   2.724   2.293  0.0551  0.0732 -0.0356
  346MOL0     C46637   2.046   2.616   2.398 -0.1111 -0.1204  0.1642
  346MOL0     C46638   2.164   2.544   2.448  0.0396 -0.1846 -0.1966
  346MOL0     C46639   2.267   2.501   2.494 -0.8277 -0.1118  0.9808
  346MOL0     C46640   1.697   3.137   2.213  1.2811  0.3080  0.2799
  346MOL0     C46641   1.685   3.276   2.236 -0.7854  1.2620  0.0382
  346MOL0     C46642   1.543   3.340   2.213 -0.2954 -0.3864  0.5515
  346MOL0     H46643   1.999   3.685   2.448 -2.0132 -1.2963 -1.4084
  346MOL0     H46644   2.051   3.941   2.473  4.7978 -0.3924 -1.7028
  346MOL0     H46645   1.981   4.304   2.273  1.4099 -0.4275  2.7986
  346MOL0     H46646   1.867   4.201   2.194 -1.0703  1.2317  0.8183
  346MOL0     H46647   1.883   4.154   2.489  3.1165 -4.4584 -3.1836
  346MOL0     H46648   1.749   4.148   2.385  1.0156  0.0883 -3.1088
  346MOL0     H46649   1.686   4.335   2.503 -1.0960 -0.3134 -0.3445
  346MOL0     H46650   1.739   4.386   2.346  1.5353 -3.7933 -1.5578
  346MOL0     H46651   1.950   4.376   2.565 -0.5782 -0.8238 -0.0840
  346MOL0     H46652   1.942   4.492   2.434 -1.5770  3.8453  0.8528
  346MOL0     H46653   1.805   4.493   2.707  3.4855  0.5362  1.2760
  346MOL0     H46654   1.924   4.610   2.634  2.3488 -2.2186  0.1187
  346MOL0     H46655   1.776   4.692   2.508 -0.8990 -0.8446 -1.0751
  346MOL0     H46656   1.646   4.579   2.510 -1.2216  2.7998 -0.4047
  346MOL0     H46657   1.657   4.800   2.658 -0.5573 -0.0858 -0.8419
  346MOL0     H46658   1.696   4.684   2.788 -2.5941  1.9540  0.6840
  346MOL0     H46659   1.478   4.711   2.777 -2.7252 -3.4417  1.6674
  346MOL0     H46660   1.460   4.659   2.607  1.0667 -0.4566 -1.4600
  346MOL0     H46661   1.600   4.539   2.955 -1.0101 -0.6977  1.0047
  346MOL0     H46662   1.622   4.183   2.958 -0.1425 -0.2083 -0.8279
  346MOL0     H46663   1.597   4.315   3.079  0.1193 -0.4265 -1.6236
  346MOL0     H46664   1.385   4.119   2.973  1.2530 -2.3297 -0.3230
  346MOL0     H46665   1.471   4.088   3.129  0.6387  1.0316  0.9901
  346MOL0     H46666   1.335   4.351   3.085 -2.6616  0.6369  0.8991
  346MOL0     H46667   1.378   4.266   3.240  0.0699 -3.8576  0.7428
  346MOL0     H46668   1.155   4.223   3.244 -0.6335 -0.6180  0.0345
  346MOL0     H46669   1.224   4.078   3.177 -1.3934 -0.6717 -1.8235
  346MOL0     H46670   0.921   4.332   3.143  0.1890 -1.9156 -0.6848
  346MOL0     H46671   0.850   4.561   3.065  1.1888  1.9029 -0.2222
  346MOL0     H46672   0.566   4.637   2.763 -5.0928  1.8938  2.9297
  346MOL0     H46673   0.428   4.825   2.636 -0.3786  1.2417  0.9392
  346MOL0     H46674   0.461   5.201   2.803  0.2896 -0.4350  0.2669
  346MOL0     H46675   0.462   5.256   2.636 -0.8485  1.0591  0.5259
  346MOL0     H46676   0.233   5.140   2.795 -0.8380  0.4288  0.9474
  346MOL0     H46677   0.242   5.313   2.771  2.5609 -0.5510  1.0343
  346MOL0     H46678   0.213   5.115   2.548  2.0739  0.1005  1.3293
  346MOL0     H46679   0.067   5.191   2.634 -0.1630  1.9678  1.8210
  346MOL0     H46680   0.094   5.297   2.430 -0.6156 -2.1766  0.4534
  346MOL0     H46681   0.266   5.310   2.457 -1.2397  3.6682 -2.2279
  346MOL0     H46682   0.226   5.526   2.503 -0.6690  3.0682  1.9938
  346MOL0     H46683   0.216   5.470   2.653  0.6656  0.3877 -0.8373
  346MOL0     H46684  -0.003   5.619   2.575 -0.5711 -0.6005  3.2911
  346MOL0     H46685  -0.050   5.481   2.485  1.0847  2.3309 -2.9663
  346MOL0     H46686  -0.058   5.555   2.755 -0.1966  0.4700 -1.6703
  346MOL0     H46687   0.017   5.396   2.764 -1.9270 -0.9936  0.5998
  346MOL0     H46688  -0.247   5.453   2.627 -2.3907 -1.2167  0.2631
  346MOL0     H46689  -0.151   5.304   2.598 -1.3175 -0.3480 -0.0181
  346MOL0     H46690   0.664   5.124   2.808 -3.5691  0.4832  0.3699
  346MOL0     H46691   0.822   4.932   2.902 -0.8550 -3.9308  1.4352
  346MOL0     H46692   1.135   4.544   2.751  1.6115  0.6184  0.5246
  346MOL0     H46693   1.223   4.326   2.830  0.8304 -0.8151  1.4895
  346MOL0     H46694   1.898   3.993   2.077  0.0476 -1.3084  0.4118
  346MOL0     H46695   1.870   3.742   2.059 -0.2856 -0.8476  0.8742
  346MOL0     H46696   2.025   3.342   2.264  0.5613 -0.6012  0.2749
  346MOL0     H46697   2.035   3.116   2.199 -0.0346 -1.3961  0.4483
  346MOL0     H46698   1.805   2.786   2.338 -0.2999  1.0469  0.8924
  346MOL0     H46699   1.930   2.911   2.365  0.4548 -0.1359  0.1025
  346MOL0     H46700   2.006   2.809   2.117  1.6702 -1.2357  0.7534
  346MOL0     H46701   1.922   2.665   2.185 -1.4249  0.2863  1.5552
  346MOL0     H46702   2.137   2.809   2.344  1.5372 -0.3528 -0.5842
  346MOL0     H46703   2.156   2.691   2.210 -1.6942  4.5782 -3.5887
  346MOL0     H46704   1.996   2.661   2.484 -0.6473 -1.0867  0.3675
  346MOL0     H46705   1.985   2.534   2.360 -4.1264  2.4550  0.5055
  346MOL0     H46706   2.352   2.463   2.547 -2.0509 -2.4915  1.3676
  346MOL0     H46707   1.611   3.073   2.196  1.7734 -0.0291 -1.0335
  346MOL0     H46708   1.475   3.255   2.231 -0.1454 -0.5380  0.4004
  346MOL0     H46709   1.510   3.428   2.270 -1.1579 -0.0021 -0.5116
  346MOL0     H46710   1.547   3.374   2.109  0.2133  0.1298  0.7359
  347MOL0     O46711   6.630  11.167   9.403 -0.1490 -0.2514 -0.3330
  347MOL0     C46712   6.656  11.275   9.347  0.6852  0.2568  0.0993
  347MOL0     O46713   6.675  11.286   9.209 -0.3470 -0.4621 -0.3991
  347MOL0     C46714   6.623  11.183   9.137 -0.0274 -0.4975 -0.3668
  347MOL0     C46715   6.523  11.211   9.045 -0.8068 -0.4370 -0.0491
  347MOL0     C46716   6.478  11.102   8.960 -0.6836 -0.7304  0.0937
  347MOL0     C46717   6.535  10.973   8.977  0.4397  0.2533 -0.1033
  347MOL0     O46718   6.507  10.868   8.887 -0.8081  0.8943  0.0762
  347MOL0     C46719   6.460  10.899   8.754 -0.5097  0.7382  0.1670
  347MOL0     C46720   6.439  10.773   8.677  0.1077  0.6778 -0.2462
  347MOL0     C46721   6.564  10.743   8.587  0.2613  0.6970 -0.5146
  347MOL0     C46722   6.524  10.673   8.457  0.2167 -0.1308 -0.8272
  347MOL0     C46723   6.655  10.671   8.382  0.2665 -0.0681  0.4597
  347MOL0     C46724   6.616  10.592   8.253  0.4561  0.3539  0.7422
  347MOL0     C46725   6.733  10.601   8.141  0.1384 -0.6050  0.4132
  347MOL0     C46726   6.717  10.514   8.012 -0.6077  0.8394  0.8867
  347MOL0     N46727   6.725  10.373   8.057  0.6442  0.4798  0.2566
  347MOL0     C46728   6.835  10.323   8.125 -0.1502  0.4183  0.7506
  347MOL0     C46729   6.778  10.222   8.201 -0.1351  0.3193  1.2883
  347MOL0     C46730   6.858  10.142   8.292  0.7627 -0.2777  0.5866
  347MOL0     C46731   6.977  10.081   8.219 -0.6950  0.4026  0.9523
  347MOL0     C46732   7.053   9.987   8.299  0.7872  0.6789 -0.1800
  347MOL0     C46733   7.073  10.028   8.452  0.4139  0.2617  0.7893
  347MOL0     O46734   6.951  10.002   8.521 -0.4088  0.2817 -0.6673
  347MOL0     C46735   6.959   9.994   8.658  0.0422  0.2149  1.2183
  347MOL0     C46736   6.837   9.990   8.732 -0.1968  0.3659 -0.5905
  347MOL0     C46737   6.836   9.999   8.865 -0.2438 -0.0169  0.6931
  347MOL0     C46738   6.955  10.003   8.944  0.0093 -0.3646  0.0958
  347MOL0     C46739   6.962  10.006   9.095  0.0226 -0.1767  1.4122
  347MOL0     O46740   7.078   9.970   9.152 -0.0764  0.6544 -0.0439
  347MOL0     C46741   7.106   9.980   9.284  0.8307 -0.5160  0.6467
  347MOL0     C46742   7.237  10.027   9.300 -0.0163  0.3441 -0.3459
  347MOL0     C46743   7.300  10.036   9.427  0.5031  0.5331  0.1687
  347MOL0     C46744   7.219   9.993   9.541 -0.8236 -0.6310  0.6854
  347MOL0     O46745   7.286   9.954   9.656 -0.5314  0.2725 -0.4171
  347MOL0     C46746   7.311  10.060   9.754  0.6631 -0.2224  0.3417
  347MOL0     C46747   7.448  10.027   9.815  0.1424 -0.9182 -0.2251
  347MOL0     C46748   7.569  10.034   9.717 -0.9039 -0.9146  0.3816
  347MOL0     C46749   7.621  10.170   9.664  0.6795  0.5573 -0.0823
  347MOL0     C46750   7.746  10.222   9.727  0.4259  0.0787  0.2507
  347MOL0     C46751   7.725  10.220   9.881 -1.0476 -1.3941  0.8561
  347MOL0     C46752   7.843  10.274   9.953 -0.4289  0.6126 -0.1872
  347MOL0     C46753   7.818  10.282  10.104  0.4026  0.9038  0.2110
  347MOL0    Cl46754   7.988  10.328  10.171  0.1338  0.0089  0.1978
  347MOL0     C46755   7.089   9.949   9.521 -1.2891  0.0416  1.2887
  347MOL0     C46756   7.030   9.934   9.397 -0.2658 -0.3948  0.3264
  347MOL0     O46757   6.869  10.054   9.151  0.2575 -0.3062 -0.1368
  347MOL0     C46758   7.081   9.997   8.878  0.7994  0.9784 -0.3915
  347MOL0     C46759   7.075  10.000   8.736  0.0552  0.0577 -0.2482
  347MOL0     N46760   6.647  10.209   8.178 -0.0925 -0.4748  0.6288
  347MOL0     N46761   6.620  10.284   8.076  0.4821 -1.5296  0.1221
  347MOL0     C46762   6.630  10.953   9.072  0.1850 -0.8009  0.2966
  347MOL0     C46763   6.679  11.061   9.149  0.8627 -0.1845  0.4311
  347MOL0     C46764   6.683  11.390   9.433 -0.3080  0.4804 -0.3106
  347MOL0     C46765   6.600  11.429   9.532  0.4893 -0.4100  0.4095
  347MOL0     C46766   6.626  11.523   9.632  0.3016  0.1880 -0.6282
  347MOL0     C46767   6.752  11.591   9.606  0.0608  0.6200 -0.2406
  347MOL0     O46768   6.799  11.692   9.686  0.0666 -0.1630  0.7796
  347MOL0     C46769   6.718  11.782   9.766  0.2324  0.0879  0.4720
  347MOL0     C46770   6.796  11.827   9.890 -0.3111  1.5933  0.0309
  347MOL0     C46771   6.814  11.702   9.986 -0.3654 -1.3086  0.5316
  347MOL0     C46772   6.858  11.740  10.128  0.3786 -0.6492 -0.1820
  347MOL0     C46773   6.870  11.617  10.199  0.3885 -0.0614 -1.1157
  347MOL0     C46774   6.881  11.517  10.276  0.8547 -0.0899  0.6913
  347MOL0     C46775   6.843  11.550   9.511  1.4059  0.3257  0.3803
  347MOL0     C46776   6.808  11.453   9.423 -0.0837 -0.7789 -0.3845
  347MOL0     C46777   6.917  11.407   9.325 -0.2506  0.1797 -0.3019
  347MOL0     H46778   6.472  11.307   9.037  0.4057  0.4027  1.7010
  347MOL0     H46779   6.410  11.129   8.879  0.1403 -1.9080 -1.0229
  347MOL0     H46780   6.361  10.941   8.772 -0.9182 -1.2508  3.2875
  347MOL0     H46781   6.527  10.957   8.691 -0.1054 -2.1549 -2.3059
  347MOL0     H46782   6.358  10.788   8.605  0.4557  2.3034 -0.3386
  347MOL0     H46783   6.414  10.687   8.739 -0.6564 -0.6305 -2.2656
  347MOL0     H46784   6.634  10.685   8.649 -1.4756  0.6957  1.5581
  347MOL0     H46785   6.606  10.837   8.550 -0.8617  0.0819 -3.6885
  347MOL0     H46786   6.501  10.569   8.483 -0.1445  0.2936  0.6715
  347MOL0     H46787   6.440  10.728   8.415 -0.1060  0.1099  0.1143
  347MOL0     H46788   6.699  10.768   8.358  3.1416 -1.2062  0.6307
  347MOL0     H46789   6.746  10.635   8.432  1.2878  1.3288 -0.2906
  347MOL0     H46790   6.609  10.486   8.279  0.6391  0.3328  0.7033
  347MOL0     H46791   6.519  10.616   8.207  0.7426  0.5220  0.2220
  347MOL0     H46792   6.824  10.563   8.190  0.8064  0.3140 -0.1005
  347MOL0     H46793   6.757  10.706   8.120 -3.2323  0.1867 -0.0215
  347MOL0     H46794   6.631  10.518   7.944  0.6675 -1.7301 -1.0443
  347MOL0     H46795   6.804  10.535   7.949 -0.9161  0.0287  0.1708
  347MOL0     H46796   6.939  10.353   8.132  0.2623 -0.7447 -0.1411
  347MOL0     H46797   6.909  10.197   8.372  3.0643 -0.0161 -0.9531
  347MOL0     H46798   6.792  10.068   8.338  1.0847  0.1666  1.7953
  347MOL0     H46799   6.962  10.027   8.125  3.1057 -1.2405  1.1254
  347MOL0     H46800   7.038  10.168   8.191 -0.8681  0.4417  0.6931
  347MOL0     H46801   7.151   9.976   8.252 -1.5664 -0.8477 -5.3645
  347MOL0     H46802   7.006   9.888   8.298 -3.8587  2.6126 -0.0749
  347MOL0     H46803   7.113  10.129   8.459 -0.4734  0.8821 -2.0148
  347MOL0     H46804   7.147   9.960   8.496  0.8976  0.5742  0.4683
  347MOL0     H46805   6.738  10.002   8.688 -1.7773  0.3045  2.6526
  347MOL0     H46806   6.739  10.024   8.908 -0.0555  3.1794 -0.4905
  347MOL0     H46807   7.286  10.042   9.204  0.3503 -3.6011 -0.9500
  347MOL0     H46808   7.405  10.054   9.444  0.2285  0.5144  2.0883
  347MOL0     H46809   7.308  10.159   9.709  0.3070  0.1247  1.1283
  347MOL0     H46810   7.226  10.053   9.823  0.0584 -0.6687 -0.4308
  347MOL0     H46811   7.468  10.097   9.898 -0.3714 -1.5911  0.4826
  347MOL0     H46812   7.428   9.933   9.866 -2.0522 -0.5401 -0.3031
  347MOL0     H46813   7.651   9.977   9.760 -2.2947 -3.8755 -0.6339
  347MOL0     H46814   7.542   9.984   9.623  3.0634  3.3991 -3.5562
  347MOL0     H46815   7.548  10.250   9.676 -0.7658 -0.9023  1.3366
  347MOL0     H46816   7.643  10.154   9.558  1.4902 -3.1390  0.4842
  347MOL0     H46817   7.747  10.328   9.701 -3.6159  1.3812  4.1752
  347MOL0     H46818   7.841  10.176   9.699  0.4183  0.4851 -0.4532
  347MOL0     H46819   7.636  10.281   9.901  0.0624  0.9738 -0.8411
  347MOL0     H46820   7.720  10.113   9.903 -1.7450 -1.8172 -1.0630
  347MOL0     H46821   7.881  10.371   9.921 -2.3370  2.9726  3.9064
  347MOL0     H46822   7.920  10.199   9.933 -1.7378 -0.4426 -1.4021
  347MOL0     H46823   7.745  10.362  10.116 -2.2979 -1.4056  0.3994
  347MOL0     H46824   7.771  10.191  10.142  2.7623 -1.2022 -1.5657
  347MOL0     H46825   7.040   9.912   9.611 -0.8858  1.2943  2.0559
  347MOL0     H46826   6.928   9.908   9.371 -0.2953  1.6551 -1.9997
  347MOL0     H46827   7.174   9.986   8.933 -0.2312  1.6295  1.5711
  347MOL0     H46828   7.169  10.016   8.684  0.4942 -2.9039 -0.5884
  347MOL0     H46829   6.662  10.852   9.095 -0.9277 -1.0245  0.8977
  347MOL0     H46830   6.765  11.045   9.212  0.2136 -4.1563  0.6117
  347MOL0     H46831   6.516  11.365   9.555  0.9123 -0.7561  1.0284
  347MOL0     H46832   6.547  11.539   9.706 -0.3583 -2.2539 -0.7156
  347MOL0     H46833   6.617  11.743   9.782 -2.0035  4.3229 -1.6006
  347MOL0     H46834   6.700  11.871   9.705 -0.3332 -0.5170 -0.2510
  347MOL0     H46835   6.724  11.895   9.936 -1.3977  0.4632  0.0559
  347MOL0     H46836   6.889  11.879   9.864  0.8968 -0.0501  0.8556
  347MOL0     H46837   6.888  11.634   9.944  1.6587  1.7073 -1.1473
  347MOL0     H46838   6.716  11.655   9.996 -1.6715  1.0444 -0.4624
  347MOL0     H46839   6.949  11.798  10.112 -1.9602  3.0424 -1.6194
  347MOL0     H46840   6.790  11.808  10.181  3.7846  1.7096  1.5296
  347MOL0     H46841   6.875  11.437  10.347 -2.1743  0.4246  1.1518
  347MOL0     H46842   6.941  11.595   9.494  0.5694  1.3250 -2.2731
  347MOL0     H46843   6.934  11.304   9.359 -2.0843  0.6140  2.2318
  347MOL0     H46844   6.899  11.404   9.217 -0.5215 -0.0634 -0.2497
  347MOL0     H46845   7.016  11.452   9.340  1.6993 -3.3733 -1.3455
  348MOL0     O46846   1.660   6.134   2.688  0.4920  0.0193  0.5940
  348MOL0     C46847   1.777   6.158   2.671 -0.5139  0.3984 -0.4435
  348MOL0     O46848   1.812   6.247   2.579 -0.0394 -0.2237 -0.5328
  348MOL0     C46849   1.764   6.247   2.452  0.7457  0.5032  0.3953
  348MOL0     C46850   1.700   6.136   2.397 -0.4957  0.4677 -0.3237
  348MOL0     C46851   1.660   6.129   2.255 -0.2842 -0.2262  0.5790
  348MOL0     C46852   1.675   6.241   2.170  1.0493  0.6563 -0.6411
  348MOL0     O46853   1.622   6.251   2.043 -0.0112  0.3872 -0.2350
  348MOL0     C46854   1.524   6.160   2.003 -0.3569  0.3369  0.3875
  348MOL0     C46855   1.458   6.241   1.881 -1.0162 -0.1854  0.7838
  348MOL0     C46856   1.333   6.168   1.820  0.2677  0.6565 -0.1820
  348MOL0     C46857   1.354   6.040   1.737  0.4767  0.2115 -0.2507
  348MOL0     C46858   1.411   6.068   1.591 -0.2418  0.4792 -0.3850
  348MOL0     C46859   1.427   5.935   1.520  0.6302 -0.5315 -0.2979
  348MOL0     C46860   1.295   5.879   1.470 -0.4681 -0.7651  0.5159
  348MOL0     C46861   1.313   5.737   1.417 -0.6448  0.2518  0.6435
  348MOL0     N46862   1.190   5.691   1.338 -0.0144 -0.2128 -0.3739
  348MOL0     C46863   1.070   5.668   1.407  0.7367 -0.0928  0.0952
  348MOL0     C46864   0.988   5.638   1.312  0.3171  0.6798 -0.3432
  348MOL0     C46865   0.845   5.603   1.328  0.3202 -0.1778 -0.1722
  348MOL0     C46866   0.754   5.731   1.361 -0.5416 -0.2717 -0.8077
  348MOL0     C46867   0.753   5.827   1.242 -0.1486  0.1005  0.2305
  348MOL0     C46868   0.716   5.760   1.106 -0.0395  0.0032  1.3576
  348MOL0     O46869   0.705   5.858   1.000 -0.7123  0.6522  0.1187
  348MOL0     C46870   0.581   5.911   0.970  0.5047  0.5497  0.9481
  348MOL0     C46871   0.570   5.965   0.843  0.8036  0.0155 -0.8011
  348MOL0     C46872   0.458   6.028   0.810  0.2854 -0.5287  1.3641
  348MOL0     C46873   0.346   6.033   0.902 -0.3838  0.4889 -0.5387
  348MOL0     C46874   0.212   6.095   0.868 -1.0663  0.2714  0.0405
  348MOL0     O46875   0.105   6.059   0.938 -0.0027 -0.2587 -0.0829
  348MOL0     C46876  -0.015   6.108   0.899 -0.3634  0.8546  1.0394
  348MOL0     C46877  -0.108   6.144   1.000 -0.3339  0.3050  0.0198
  348MOL0     C46878  -0.243   6.174   0.964  0.1577 -0.3143  0.0723
  348MOL0     C46879  -0.279   6.180   0.833 -0.1481  0.6657  0.3508
  348MOL0     O46880  -0.409   6.203   0.798  0.5781 -0.3536 -0.8251
  348MOL0     C46881  -0.445   6.345   0.814  0.1802  0.5392  0.5716
  348MOL0     C46882  -0.604   6.350   0.795  0.2865 -0.5034  0.4531
  348MOL0     C46883  -0.680   6.423   0.904  0.3842 -0.0287 -1.3689
  348MOL0     C46884  -0.714   6.573   0.864  0.2071  0.3930 -0.0330
  348MOL0     C46885  -0.776   6.647   0.985 -0.3899  0.5934 -0.3280
  348MOL0     C46886  -0.688   6.655   1.109  0.0301  0.6908 -0.4774
  348MOL0     C46887  -0.546   6.689   1.097 -0.2373 -0.1392  0.6542
  348MOL0     C46888  -0.483   6.702   1.231  0.0685 -0.0097  0.5952
  348MOL0    Cl46889  -0.462   6.531   1.298  0.0811 -0.3721  0.4916
  348MOL0     C46890  -0.190   6.142   0.734  0.3862 -0.7360 -0.4674
  348MOL0     C46891  -0.054   6.107   0.767  0.3450 -1.4810  0.3801
  348MOL0     O46892   0.220   6.157   0.761 -0.6338  0.1618 -0.1086
  348MOL0     C46893   0.359   5.986   1.034  0.2537 -0.4034 -0.6244
  348MOL0     C46894   0.476   5.920   1.068 -0.1577 -0.2028  0.0588
  348MOL0     N46895   1.045   5.632   1.195 -0.1245  0.3431 -0.0027
  348MOL0     N46896   1.171   5.665   1.208 -0.0984 -0.1480  0.1884
  348MOL0     C46897   1.739   6.350   2.222 -0.3039 -0.1948 -0.0554
  348MOL0     C46898   1.781   6.354   2.356 -0.7482  0.4806  0.7654
  348MOL0     C46899   1.880   6.109   2.776  0.2582 -0.4741  1.0054
  348MOL0     C46900   1.991   6.188   2.804 -0.1804  0.8614  0.5286
  348MOL0     C46901   2.074   6.162   2.910 -1.2798  0.0848 -0.3008
  348MOL0     C46902   2.064   6.042   2.987  0.2893  0.7378 -0.0294
  348MOL0     O46903   2.156   6.029   3.089  0.8907  0.1095  0.9307
  348MOL0     C46904   2.118   5.950   3.201 -0.2739  0.2234 -0.3438
  348MOL0     C46905   2.241   5.945   3.283  0.8533  0.4456 -0.8541
  348MOL0     C46906   2.206   5.886   3.428  0.2212 -0.3491  0.4186
  348MOL0     C46907   2.332   5.879   3.517  0.9420 -0.6605  0.2108
  348MOL0     C46908   2.292   5.838   3.652 -0.4112  0.0078 -0.2767
  348MOL0     C46909   2.278   5.797   3.763 -0.6056 -0.2488  0.0178
  348MOL0     C46910   1.951   5.969   2.966  0.3835  1.4912 -0.2392
  348MOL0     C46911   1.867   5.998   2.858  0.7263  0.3251 -0.1643
  348MOL0     C46912   1.755   5.900   2.831 -0.1669  0.1770  0.4136
  348MOL0     H46913   1.693   6.038   2.442  2.1338 -0.5675 -1.9428
  348MOL0     H46914   1.614   6.039   2.215  0.2041 -0.9179  1.5673
  348MOL0     H46915   1.569   6.067   1.967  3.3521  0.6169  3.6095
  348MOL0     H46916   1.450   6.135   2.079 -0.0372 -0.8643  0.3361
  348MOL0     H46917   1.526   6.264   1.798 -1.0370  1.7729  1.2598
  348MOL0     H46918   1.427   6.336   1.926 -0.2838  0.5588 -0.2210
  348MOL0     H46919   1.289   6.239   1.749  0.8893 -1.6120 -3.0610
  348MOL0     H46920   1.264   6.152   1.903 -2.3446  0.8573 -2.1875
  348MOL0     H46921   1.419   5.972   1.792 -0.3199  0.2294  0.7635
  348MOL0     H46922   1.251   6.001   1.737 -0.0820  1.5904 -1.3814
  348MOL0     H46923   1.340   6.134   1.539 -1.3173 -0.4803 -0.1729
  348MOL0     H46924   1.515   6.102   1.595 -0.1197 -0.0264  1.1679
  348MOL0     H46925   1.494   5.945   1.433  0.2167  2.0263 -0.4044
  348MOL0     H46926   1.474   5.867   1.590  0.5114 -0.4951 -0.1836
  348MOL0     H46927   1.248   5.942   1.394 -1.2563 -0.3829  1.2971
  348MOL0     H46928   1.215   5.872   1.545 -0.1318 -2.2358  0.7711
  348MOL0     H46929   1.401   5.715   1.355 -0.7247 -0.1167  0.6575
  348MOL0     H46930   1.320   5.664   1.498 -0.1080 -0.6984 -0.2294
  348MOL0     H46931   1.047   5.692   1.510 -1.1245  0.9463 -0.5217
  348MOL0     H46932   0.806   5.533   1.254 -1.3201 -0.5638  1.0184
  348MOL0     H46933   0.842   5.544   1.420  2.8577 -1.8069 -1.0374
  348MOL0     H46934   0.649   5.713   1.382 -1.6364  3.1042 -2.5461
  348MOL0     H46935   0.791   5.789   1.447 -0.5187 -2.4479  0.7186
  348MOL0     H46936   0.854   5.870   1.238  0.9239 -2.2722 -2.5814
  348MOL0     H46937   0.676   5.901   1.261 -3.4240 -3.3547  1.7374
  348MOL0     H46938   0.620   5.709   1.109 -0.0192 -0.4327 -1.6336
  348MOL0     H46939   0.784   5.676   1.090 -2.3497 -1.9287  1.2705
  348MOL0     H46940   0.655   5.974   0.775  1.2013  1.3717 -0.1604
  348MOL0     H46941   0.445   6.073   0.712  1.9635 -1.8392  0.4915
  348MOL0     H46942  -0.074   6.144   1.103 -0.6476 -2.1113  0.1901
  348MOL0     H46943  -0.332   6.194   1.022 -1.3851  0.9836 -2.5524
  348MOL0     H46944  -0.431   6.385   0.915 -1.0273  1.4759  0.3977
  348MOL0     H46945  -0.384   6.404   0.746  1.8484  0.8150  2.2148
  348MOL0     H46946  -0.633   6.389   0.697  2.7144  0.1544 -0.0696
  348MOL0     H46947  -0.644   6.248   0.804  0.5348 -0.7018 -0.5562
  348MOL0     H46948  -0.770   6.365   0.925  0.3202  0.9669  1.5157
  348MOL0     H46949  -0.624   6.415   0.998 -0.7929  0.0170 -0.6429
  348MOL0     H46950  -0.786   6.579   0.782  0.2202  0.5144 -0.0356
  348MOL0     H46951  -0.624   6.627   0.834  0.0076  1.8781  1.8266
  348MOL0     H46952  -0.867   6.600   1.025  0.5553 -1.2119 -0.1910
  348MOL0     H46953  -0.806   6.745   0.948 -3.1458 -0.7222 -1.9268
  348MOL0     H46954  -0.736   6.734   1.166 -0.4360  2.0792 -2.6503
  348MOL0     H46955  -0.691   6.556   1.154  1.0309  0.0844 -1.6612
  348MOL0     H46956  -0.545   6.784   1.042 -0.3724 -1.6883 -2.2003
  348MOL0     H46957  -0.494   6.620   1.031 -1.4249  0.9371 -1.5388
  348MOL0     H46958  -0.389   6.757   1.219 -1.1962  2.0972 -0.2951
  348MOL0     H46959  -0.533   6.769   1.301 -0.6207  1.5801 -1.3398
  348MOL0     H46960  -0.225   6.140   0.631  2.9659  2.0465 -1.5708
  348MOL0     H46961   0.012   6.061   0.694  2.2408  0.3204  0.8450
  348MOL0     H46962   0.277   5.980   1.105  0.5293 -0.3406 -0.2973
  348MOL0     H46963   0.474   5.867   1.163  3.3182 -1.5337 -0.4397
  348MOL0     H46964   1.746   6.438   2.158  0.3735  0.4254  0.8507
  348MOL0     H46965   1.833   6.436   2.405 -0.5133  0.4696  0.5355
  348MOL0     H46966   2.011   6.273   2.739 -3.6413  0.3531 -1.4532
  348MOL0     H46967   2.165   6.217   2.933  0.5693 -2.4821 -1.0158
  348MOL0     H46968   2.081   5.848   3.186  1.0683 -0.3046 -0.2368
  348MOL0     H46969   2.038   5.992   3.262 -0.4004 -2.0285  1.1297
  348MOL0     H46970   2.287   6.044   3.289  2.6157 -0.0959 -3.5248
  348MOL0     H46971   2.306   5.889   3.214 -1.7448 -0.2348 -2.9129
  348MOL0     H46972   2.163   5.786   3.418  1.1286 -1.0670  2.9668
  348MOL0     H46973   2.127   5.946   3.474  1.8067  1.7284  0.5836
  348MOL0     H46974   2.403   5.807   3.475 -0.4875 -0.2077 -3.3446
  348MOL0     H46975   2.378   5.978   3.506  0.6074 -0.6721 -1.6191
  348MOL0     H46976   2.276   5.733   3.848  1.4420  0.7536  0.8889
  348MOL0     H46977   1.936   5.877   3.023  1.8290 -1.0210 -3.5451
  348MOL0     H46978   1.772   5.800   2.870  0.2415  0.0527 -0.0839
  348MOL0     H46979   1.660   5.938   2.872 -0.7506  2.1963 -2.4847
  348MOL0     H46980   1.740   5.885   2.724 -0.1273 -1.0445  0.5754
  349MOL0     O46981   8.747   9.910   9.872 -0.0996 -0.3319 -0.1078
  349MOL0     C46982   8.651   9.920   9.954 -0.3460  0.4519  0.4308
  349MOL0     O46983   8.647  10.016  10.054 -0.0447  0.0999 -0.2821
  349MOL0     C46984   8.768  10.080  10.091  0.1499 -0.8198 -0.0770
  349MOL0     C46985   8.850  10.158  10.007  0.0439  0.2946 -0.2445
  349MOL0     C46986   8.965  10.218  10.066  0.6148  0.0332 -0.2432
  349MOL0     C46987   8.991  10.208  10.208 -0.2493  0.8670  0.3355
  349MOL0     O46988   9.096  10.272  10.267  1.0001 -0.8141 -0.0880
  349MOL0     C46989   9.051  10.394  10.330  0.9493 -0.3327 -1.1148
  349MOL0     C46990   9.161  10.469  10.402  0.4220 -0.3463  0.3760
  349MOL0     C46991   9.270  10.533  10.316  0.1706  0.2174  0.4615
  349MOL0     C46992   9.388  10.610  10.391 -0.0236 -0.1217  0.7588
  349MOL0     C46993   9.489  10.656  10.289  0.6453  0.3003 -0.0655
  349MOL0     C46994   9.625  10.676  10.366  0.0633 -0.2529 -0.7242
  349MOL0     C46995   9.731  10.708  10.261 -0.4007  0.8414  0.0169
  349MOL0     C46996   9.872  10.696  10.324  1.0247 -0.4289  0.2826
  349MOL0     N46997   9.949  10.817  10.279 -0.0475 -0.3659 -0.9131
  349MOL0     C46998   9.929  10.944  10.327 -0.6426 -0.2555 -0.4031
  349MOL0     C46999  10.023  11.015  10.252  0.2224 -0.0695  0.1258
  349MOL0     C47000  10.056  11.162  10.279 -0.4081 -0.3866  0.0697
  349MOL0     C47001  10.174  11.193  10.368  0.3389 -1.0830 -0.6593
  349MOL0     C47002  10.212  11.345  10.364 -0.4857  0.7438  0.2545
  349MOL0     C47003  10.341  11.381  10.446  0.3613 -0.3682  0.2135
  349MOL0     O47004  10.463  11.366  10.369 -0.1347 -0.4740 -0.6421
  349MOL0     C47005  10.579  11.418  10.406 -0.0162 -1.1619 -0.4801
  349MOL0     C47006  10.602  11.441  10.541  0.7131  0.1163 -0.0556
  349MOL0     C47007  10.729  11.493  10.578 -0.2460 -0.3838 -0.2500
  349MOL0     C47008  10.835  11.514  10.483  0.9131 -0.6429 -0.2118
  349MOL0     C47009  10.962  11.586  10.517 -0.0494  1.0007  0.0490
  349MOL0     O47010  11.058  11.608  10.418 -0.8399  0.4712  0.9377
  349MOL0     C47011  11.173  11.674  10.442 -0.3085 -0.1577  0.2383
  349MOL0     C47012  11.192  11.800  10.502  0.9243 -0.1098  0.4372
  349MOL0     C47013  11.320  11.861  10.512 -0.0215  0.4329 -0.3633
  349MOL0     C47014  11.432  11.794  10.472 -0.6843  0.4505 -0.1334
  349MOL0     O47015  11.563  11.839  10.479  0.3814  0.3074 -0.1402
  349MOL0     C47016  11.609  11.853  10.616  0.2462 -0.2805  0.6237
  349MOL0     C47017  11.759  11.874  10.613 -0.4197  1.0414  0.2050
  349MOL0     C47018  11.831  11.735  10.619 -0.5884 -0.7691 -1.3508
  349MOL0     C47019  11.971  11.761  10.687 -1.3115  1.5206 -0.5824
  349MOL0     C47020  12.005  11.642  10.786  0.6896  0.2038  0.8894
  349MOL0     C47021  12.143  11.629  10.811 -0.3320  0.3056  0.2723
  349MOL0     C47022  12.190  11.495  10.873  0.5436 -0.1332 -0.5803
  349MOL0     C47023  12.337  11.488  10.884  0.0472  0.1430  0.1961
  349MOL0    Cl47024  12.392  11.349  10.973  0.1122 -0.4943  0.0717
  349MOL0     C47025  11.423  11.682  10.385  0.0769  0.0076  0.1681
  349MOL0     C47026  11.290  11.627  10.372  0.5102  0.5715 -0.0989
  349MOL0     O47027  10.988  11.615  10.635  0.3743 -0.0372  0.0268
  349MOL0     C47028  10.798  11.507  10.346  0.0934 -0.0950 -0.1835
  349MOL0     C47029  10.682  11.447  10.312  0.6202 -0.5804 -0.2513
  349MOL0     N47030  10.094  10.936  10.169  0.0909 -0.0179  0.6450
  349MOL0     N47031  10.056  10.816  10.189 -0.1252  0.3464 -0.0520
  349MOL0     C47032   8.888  10.150  10.289 -0.1732  0.2961  0.2308
  349MOL0     C47033   8.779  10.084  10.234 -0.2420 -0.6049  0.0355
  349MOL0     C47034   8.532   9.844   9.926  0.1284  0.5298 -0.3147
  349MOL0     C47035   8.559   9.721   9.868 -0.2913 -1.1923 -0.4917
  349MOL0     C47036   8.456   9.635   9.837 -0.1896  0.1478 -1.1626
  349MOL0     C47037   8.326   9.661   9.870  0.5618  0.6468 -0.4110
  349MOL0     O47038   8.226   9.576   9.827  0.5637 -0.1366  0.1661
  349MOL0     C47039   8.091   9.588   9.877  0.4850 -0.1847 -0.4448
  349MOL0     C47040   8.007   9.677   9.770 -0.1866  1.2205  0.5687
  349MOL0     C47041   7.862   9.668   9.816  0.0516 -0.6467  0.2129
  349MOL0     C47042   7.783   9.551   9.751 -0.1738  0.1248  1.1417
  349MOL0     C47043   7.640   9.570   9.775 -0.9027 -0.1911  0.0673
  349MOL0     C47044   7.524   9.593   9.808  0.5324 -0.5139 -0.3583
  349MOL0     C47045   8.297   9.778   9.944 -0.2564 -0.4395 -0.4879
  349MOL0     C47046   8.398   9.883   9.953  0.6144 -0.0184 -0.4862
  349MOL0     C47047   8.343  10.020   9.980  0.2006 -0.7422 -0.4635
  349MOL0     H47048   8.827  10.164   9.901  1.3832 -1.1159 -0.6589
  349MOL0     H47049   9.051  10.246  10.005  0.7460  0.9102  0.3297
  349MOL0     H47050   9.006  10.456  10.252  1.3202  1.8037  0.2796
  349MOL0     H47051   8.975  10.366  10.403 -1.4844  2.4116 -2.4427
  349MOL0     H47052   9.215  10.412  10.478 -0.3529 -2.6142 -0.6862
  349MOL0     H47053   9.097  10.545  10.449 -1.3125 -2.1075  0.9929
  349MOL0     H47054   9.224  10.575  10.226 -1.5967 -3.3613 -0.4949
  349MOL0     H47055   9.326  10.450  10.274 -0.9311 -0.9060  1.1502
  349MOL0     H47056   9.339  10.692  10.444  0.1061 -0.9569  2.2458
  349MOL0     H47057   9.425  10.545  10.471 -2.6828 -1.8752  0.7196
  349MOL0     H47058   9.522  10.585  10.212  2.0074  0.2747  0.4997
  349MOL0     H47059   9.459  10.756  10.258 -1.2911  0.4687  2.1052
  349MOL0     H47060   9.617  10.761  10.434  3.9776  3.5169 -4.3258
  349MOL0     H47061   9.649  10.589  10.427  1.9657  0.9979  0.4027
  349MOL0     H47062   9.718  10.814  10.234  0.5160  1.2550  1.1536
  349MOL0     H47063   9.734  10.638  10.177  1.7848 -0.9879  1.5049
  349MOL0     H47064   9.867  10.697  10.433  2.4468  1.5044  0.3962
  349MOL0     H47065   9.925  10.610  10.284  1.8444  0.4553 -0.5996
  349MOL0     H47066   9.862  10.987  10.400  0.9797  1.6624  0.0624
  349MOL0     H47067  10.078  11.211  10.184  1.9555 -3.1315 -0.9466
  349MOL0     H47068   9.964  11.207  10.319 -0.5072  2.2138 -2.6960
  349MOL0     H47069  10.160  11.159  10.471  3.4294 -0.1475  0.1783
  349MOL0     H47070  10.259  11.138  10.327  3.1164  2.7439 -0.6246
  349MOL0     H47071  10.122  11.402  10.390 -0.9194  0.9288 -1.5289
  349MOL0     H47072  10.234  11.370  10.260  0.7631 -0.0998  0.2948
  349MOL0     H47073  10.345  11.322  10.538  3.2085  1.4470  1.3696
  349MOL0     H47074  10.337  11.483  10.484  3.1097 -0.8457  2.0644
  349MOL0     H47075  10.525  11.421  10.615 -0.0616  2.1244 -0.2527
  349MOL0     H47076  10.735  11.531  10.680 -1.5256  1.0064 -0.6644
  349MOL0     H47077  11.106  11.844  10.553  1.6756  2.0623 -0.0363
  349MOL0     H47078  11.316  11.950  10.575 -0.7689 -1.1073  1.8940
  349MOL0     H47079  11.562  11.934  10.672  0.2174 -1.0950  1.8051
  349MOL0     H47080  11.577  11.766  10.673 -1.7154  0.0965  0.1923
  349MOL0     H47081  11.791  11.917  10.518 -0.7304 -0.6746 -0.7158
  349MOL0     H47082  11.795  11.947  10.687 -1.0470  1.5247  0.0394
  349MOL0     H47083  11.773  11.666  10.682 -3.0331  1.5267 -0.8762
  349MOL0     H47084  11.844  11.686  10.522  0.2842 -3.7129  0.1396
  349MOL0     H47085  11.968  11.852  10.747 -2.0272  1.1877 -0.0906
  349MOL0     H47086  12.044  11.765  10.607 -0.8556 -1.5423 -0.4537
  349MOL0     H47087  11.964  11.550  10.742 -1.0278  0.1654  2.4102
  349MOL0     H47088  11.963  11.662  10.885 -1.3704 -0.0199  0.1116
  349MOL0     H47089  12.202  11.630  10.718 -2.1738 -1.8165 -1.0345
  349MOL0     H47090  12.180  11.711  10.872  1.6544  0.1216 -0.6116
  349MOL0     H47091  12.143  11.420  10.808 -3.4778  3.0276 -1.7512
  349MOL0     H47092  12.143  11.484  10.972 -3.1448 -3.7121 -2.4270
  349MOL0     H47093  12.373  11.501  10.782 -2.3872 -0.2667 -0.7791
  349MOL0     H47094  12.385  11.574  10.932 -1.5552  3.5158 -3.6681
  349MOL0     H47095  11.517  11.646  10.344  0.3419  2.5292 -1.6169
  349MOL0     H47096  11.280  11.536  10.315  2.2001 -1.6218  2.8614
  349MOL0     H47097  10.875  11.540  10.276 -1.9600 -0.8681 -2.9694
  349MOL0     H47098  10.658  11.416  10.210 -2.8126 -0.4926  0.3930
  349MOL0     H47099   8.915  10.138  10.394 -0.2076  0.6916  0.2862
  349MOL0     H47100   8.704  10.052  10.305 -0.6202  1.1927  0.4903
  349MOL0     H47101   8.658   9.705   9.829 -0.7806  1.4031 -3.1267
  349MOL0     H47102   8.469   9.534   9.797 -0.1092 -0.4905  0.4049
  349MOL0     H47103   8.073   9.642   9.971 -3.4179  0.5626 -1.4646
  349MOL0     H47104   8.040   9.492   9.889 -2.7378  1.6629  3.0713
  349MOL0     H47105   8.036   9.633   9.674  2.6972  0.8539  1.4960
  349MOL0     H47106   8.037   9.781   9.782 -1.0188  1.6688 -1.0235
  349MOL0     H47107   7.808   9.758   9.785 -1.0444 -1.5587 -0.6470
  349MOL0     H47108   7.861   9.665   9.925 -3.9004 -0.6999  0.3170
  349MOL0     H47109   7.797   9.535   9.643 -1.1487 -1.7463  1.2365
  349MOL0     H47110   7.806   9.453   9.795  1.4567  0.1418  0.3775
  349MOL0     H47111   7.418   9.601   9.822  0.6892 -1.6840  1.9172
  349MOL0     H47112   8.191   9.795   9.961  0.6721  2.3790  4.7164
  349MOL0     H47113   8.255  10.047   9.920 -0.7192 -1.0936  0.7026
  349MOL0     H47114   8.305  10.015  10.082 -1.8165  3.1208 -0.8449
  349MOL0     H47115   8.426  10.092   9.974  1.9234 -2.7482 -2.4058
  350MOL0     O47116   2.238   4.176   0.371 -0.1762  0.0467  0.4713
  350MOL0     C47117   2.304   4.235   0.290  0.1860  0.6714  0.5552
  350MOL0     O47118   2.274   4.252   0.155 -0.8996  0.0941  0.5336
  350MOL0     C47119   2.215   4.161   0.072 -0.7064  1.0382 -0.2041
  350MOL0     C47120   2.106   4.082   0.105 -0.1251  0.6643 -0.2267
  350MOL0     C47121   2.061   3.973   0.036 -0.2050  0.4161  0.3536
  350MOL0     C47122   2.141   3.923  -0.066 -0.0814  0.3260 -0.1056
  350MOL0     O47123   2.112   3.803  -0.120  0.8119 -0.1859  0.4654
  350MOL0     C47124   2.130   3.771  -0.257  0.6780 -1.2532 -0.5734
  350MOL0     C47125   2.005   3.708  -0.328  0.0711  0.1163  1.0129
  350MOL0     C47126   1.965   3.570  -0.268  1.0721 -1.0910  0.3940
  350MOL0     C47127   1.835   3.520  -0.326  0.4337 -1.3698  0.1700
  350MOL0     C47128   1.815   3.374  -0.325 -0.1113  0.9308 -0.2177
  350MOL0     C47129   1.679   3.330  -0.385  0.3833  0.4186 -0.1569
  350MOL0     C47130   1.657   3.172  -0.352 -0.4838  0.2188  0.1786
  350MOL0     C47131   1.535   3.118  -0.424 -0.0368 -0.7800  0.9673
  350MOL0     N47132   1.565   3.095  -0.567 -0.0393 -0.1186  0.4118
  350MOL0     C47133   1.595   2.975  -0.633  0.7576 -0.2601  0.4471
  350MOL0     C47134   1.601   2.993  -0.765  0.2825 -0.5282 -0.6033
  350MOL0     C47135   1.636   2.896  -0.873  0.1379 -0.7703  0.0858
  350MOL0     C47136   1.762   2.811  -0.842 -0.1106 -0.2218 -0.0427
  350MOL0     C47137   1.785   2.746  -0.978  0.0927  0.1900 -0.0176
  350MOL0     C47138   1.895   2.642  -0.990 -0.5070  0.2140  0.1659
  350MOL0     O47139   1.924   2.615  -1.126  0.2389 -0.0395  0.9711
  350MOL0     C47140   2.037   2.542  -1.164 -0.3743  0.4141 -0.2082
  350MOL0     C47141   2.035   2.489  -1.291  0.4157  0.0014 -0.2266
  350MOL0     C47142   2.117   2.379  -1.332 -1.0005  0.1485 -0.5064
  350MOL0     C47143   2.217   2.342  -1.243  0.4896  0.6758  0.3754
  350MOL0     C47144   2.307   2.230  -1.286  0.4727  0.3748  0.5525
  350MOL0     O47145   2.387   2.180  -1.192  0.1685 -0.3270  0.3164
  350MOL0     C47146   2.498   2.105  -1.230 -0.5557  0.1262  0.8158
  350MOL0     C47147   2.629   2.155  -1.205  0.2714 -0.1519 -0.1707
  350MOL0     C47148   2.739   2.090  -1.267 -1.1369  0.3369  0.8676
  350MOL0     C47149   2.716   1.976  -1.346  0.1002  0.9157 -1.0230
  350MOL0     O47150   2.834   1.927  -1.413  0.6676  0.3045  0.4456
  350MOL0     C47151   2.809   1.912  -1.560  0.5651 -1.1989 -0.6881
  350MOL0     C47152   2.946   1.883  -1.626  0.2089  0.5022 -0.1428
  350MOL0     C47153   2.927   1.833  -1.768 -0.1993 -0.7391  0.0708
  350MOL0     C47154   2.869   1.946  -1.863  0.6937  0.3511  0.5215
  350MOL0     C47155   2.846   1.896  -2.006  0.8501  0.0820 -0.3951
  350MOL0     C47156   2.974   1.850  -2.074 -0.4514  0.3759 -0.1734
  350MOL0     C47157   2.937   1.817  -2.215 -0.6959  0.5225 -0.5626
  350MOL0     C47158   3.028   1.717  -2.282  0.5108  0.0011 -0.6413
  350MOL0    Cl47159   3.003   1.695  -2.472 -0.4404 -0.4348  0.1126
  350MOL0     C47160   2.591   1.914  -1.365  0.2385 -0.1805  0.2463
  350MOL0     C47161   2.480   1.982  -1.309  0.2942 -0.0609  0.3444
  350MOL0     O47162   2.323   2.218  -1.405  0.5502 -0.1394 -0.2863
  350MOL0     C47163   2.235   2.403  -1.117 -0.5296 -0.7347  0.3140
  350MOL0     C47164   2.145   2.503  -1.075  0.2503  0.4631 -0.1012
  350MOL0     N47165   1.562   3.127  -0.785 -0.0590 -0.2528 -0.8991
  350MOL0     N47166   1.559   3.184  -0.670  1.1324 -0.2013 -0.2775
  350MOL0     C47167   2.263   3.986  -0.101 -0.2724  0.3829 -0.0833
  350MOL0     C47168   2.298   4.107  -0.035  0.1378  0.4473 -0.3034
  350MOL0     C47169   2.425   4.308   0.334  0.0256  0.2957  0.3073
  350MOL0     C47170   2.449   4.431   0.266  1.2765  0.4061 -0.1043
  350MOL0     C47171   2.554   4.508   0.288 -0.4696 -0.3406  0.6980
  350MOL0     C47172   2.650   4.470   0.389  1.2556  0.4127  0.0732
  350MOL0     O47173   2.771   4.529   0.398 -0.2711 -0.3432 -0.5625
  350MOL0     C47174   2.814   4.542   0.544  0.3053  0.2791 -0.5534
  350MOL0     C47175   2.939   4.628   0.550  0.4856 -0.7276 -0.1894
  350MOL0     C47176   3.058   4.562   0.474  0.2163 -0.1454  0.7303
  350MOL0     C47177   3.163   4.659   0.455 -0.3582  0.0220  0.2986
  350MOL0     C47178   3.206   4.732   0.577  0.3328  0.3480  0.4374
  350MOL0     C47179   3.230   4.797   0.669  0.1898  0.6598  0.0087
  350MOL0     C47180   2.629   4.349   0.460 -0.3528  1.4692 -0.2725
  350MOL0     C47181   2.522   4.259   0.431  0.2216 -0.2393 -0.9858
  350MOL0     C47182   2.525   4.124   0.493 -0.8373  0.8631 -0.4808
  350MOL0     H47183   2.054   4.105   0.198 -0.7705  2.3755 -0.9800
  350MOL0     H47184   1.970   3.920   0.061 -0.1145 -0.0039 -0.1830
  350MOL0     H47185   2.176   3.848  -0.319  0.3354 -0.2585  0.3727
  350MOL0     H47186   2.217   3.705  -0.255  0.7024 -1.2005  0.3196
  350MOL0     H47187   2.020   3.686  -0.434  1.0130 -1.3356  1.4307
  350MOL0     H47188   1.922   3.780  -0.328  1.3746  2.1564 -4.5670
  350MOL0     H47189   1.948   3.581  -0.160 -5.9742  1.7567 -0.4857
  350MOL0     H47190   2.049   3.507  -0.299 -1.4342 -3.5148 -1.9040
  350MOL0     H47191   1.749   3.558  -0.271  1.6848  0.3520  1.0256
  350MOL0     H47192   1.823   3.552  -0.430  1.7904 -2.8341 -0.4906
  350MOL0     H47193   1.901   3.327  -0.375  0.3854  1.9356 -0.3238
  350MOL0     H47194   1.818   3.347  -0.219 -1.9441  1.3694 -0.0228
  350MOL0     H47195   1.602   3.390  -0.336  0.4131  0.1637  0.2053
  350MOL0     H47196   1.685   3.356  -0.491 -1.4663  2.1707  0.1073
  350MOL0     H47197   1.636   3.161  -0.245 -3.2826 -3.3215 -0.5277
  350MOL0     H47198   1.753   3.121  -0.367 -1.1157 -1.0668  0.2958
  350MOL0     H47199   1.492   3.033  -0.370  0.5095 -1.9417 -0.3673
  350MOL0     H47200   1.453   3.190  -0.426  0.5878 -0.0642 -0.2464
  350MOL0     H47201   1.606   2.874  -0.593  0.8452 -1.0339 -1.3935
  350MOL0     H47202   1.548   2.831  -0.875 -1.3427  1.1602 -0.5012
  350MOL0     H47203   1.636   2.956  -0.964  0.6620 -0.3709  0.3476
  350MOL0     H47204   1.848   2.872  -0.812 -2.6756  2.9280  1.5067
  350MOL0     H47205   1.736   2.743  -0.761 -1.7671  0.3721 -0.0322
  350MOL0     H47206   1.817   2.825  -1.047  0.8527  1.2221  1.4495
  350MOL0     H47207   1.694   2.695  -1.010  0.7867 -1.6684  0.8345
  350MOL0     H47208   1.856   2.552  -0.942  1.5234 -0.5816  0.4336
  350MOL0     H47209   1.974   2.694  -0.936 -0.7133  2.5655 -1.6433
  350MOL0     H47210   1.953   2.515  -1.358  1.9590 -0.5292 -2.4564
  350MOL0     H47211   2.104   2.331  -1.428  2.7391 -1.9748 -0.1385
  350MOL0     H47212   2.641   2.237  -1.135 -0.3357 -2.2827  2.6100
  350MOL0     H47213   2.838   2.133  -1.256  0.8788 -3.9472  1.3598
  350MOL0     H47214   2.743   1.830  -1.590  0.2707 -2.1659  2.2797
  350MOL0     H47215   2.760   1.996  -1.610 -1.8678 -2.7237 -1.0130
  350MOL0     H47216   3.016   1.966  -1.623 -0.9724  1.5499 -0.7249
  350MOL0     H47217   2.990   1.792  -1.585  1.9524 -0.6065 -4.0086
  350MOL0     H47218   3.024   1.804  -1.810  0.1766  2.3994 -1.5393
  350MOL0     H47219   2.853   1.752  -1.768  0.8223 -1.7285  1.7850
  350MOL0     H47220   2.931   2.036  -1.860  0.0478  0.8537 -0.6778
  350MOL0     H47221   2.773   1.976  -1.821  0.5909 -0.6562  1.0380
  350MOL0     H47222   2.799   1.973  -2.068  3.0897  1.5346 -0.3962
  350MOL0     H47223   2.779   1.812  -1.986  1.2668 -0.1345  0.1309
  350MOL0     H47224   3.056   1.923  -2.066 -2.8284  3.3338 -1.0265
  350MOL0     H47225   3.007   1.758  -2.024  1.4346  0.6330 -0.8472
  350MOL0     H47226   2.938   1.915  -2.264  2.4802  2.3375  2.7052
  350MOL0     H47227   2.833   1.781  -2.225 -0.7208  0.4869 -0.1750
  350MOL0     H47228   3.131   1.745  -2.261  0.1840 -0.1804  1.3970
  350MOL0     H47229   3.007   1.615  -2.250 -1.6679  0.1473 -1.3814
  350MOL0     H47230   2.570   1.817  -1.408 -3.4022 -0.2308  1.7530
  350MOL0     H47231   2.376   1.952  -1.308 -0.3575  1.8041 -2.0782
  350MOL0     H47232   2.298   2.354  -1.044  1.2585 -3.2577 -2.6836
  350MOL0     H47233   2.135   2.515  -0.968 -1.3136  3.0966 -0.4351
  350MOL0     H47234   2.326   3.949  -0.181 -2.2950  0.2962 -1.7392
  350MOL0     H47235   2.385   4.170  -0.052  0.1464  0.4751 -0.1527
  350MOL0     H47236   2.389   4.453   0.178 -0.5876  1.6326  1.3835
  350MOL0     H47237   2.573   4.591   0.221  0.1697 -1.1103 -0.1050
  350MOL0     H47238   2.847   4.442   0.575 -0.0726 -0.3876 -2.1913
  350MOL0     H47239   2.734   4.592   0.599 -0.0800 -1.0103  0.0965
  350MOL0     H47240   2.958   4.630   0.658  0.5568  0.1270 -0.2137
  350MOL0     H47241   2.898   4.725   0.519 -2.2898 -1.9481 -0.5837
  350MOL0     H47242   3.032   4.527   0.374  1.7716 -0.2125  0.3329
  350MOL0     H47243   3.092   4.476   0.533  3.3239 -0.8274 -1.8112
  350MOL0     H47244   3.246   4.601   0.415 -1.7246 -0.8650 -1.4205
  350MOL0     H47245   3.111   4.736   0.396 -2.8142 -0.1644  2.0583
  350MOL0     H47246   3.256   4.846   0.761  3.7788  0.6751 -0.8796
  350MOL0     H47247   2.708   4.294   0.509 -1.2674 -0.8843 -1.3032
  350MOL0     H47248   2.593   4.055   0.442  3.9278  2.8792  2.4194
  350MOL0     H47249   2.560   4.125   0.596  0.7613 -2.7488 -0.8222
  350MOL0     H47250   2.425   4.080   0.497 -0.0276 -0.9683  0.6104
  351MOL0     O47251   8.270  11.523   2.948 -0.3136  0.3457 -0.5894
  351MOL0     C47252   8.341  11.620   2.924 -0.1238 -0.2870  0.1411
  351MOL0     O47253   8.359  11.722   3.010 -0.1441  0.7505  0.1838
  351MOL0     C47254   8.294  11.723   3.139 -0.0338 -0.3866  0.0067
  351MOL0     C47255   8.162  11.694   3.144  0.4787 -0.4565 -0.2517
  351MOL0     C47256   8.094  11.711   3.268 -0.2603  0.3835  0.9279
  351MOL0     C47257   8.171  11.737   3.385 -0.5077  0.1155  0.5407
  351MOL0     O47258   8.101  11.755   3.507 -0.3180  0.4103 -0.6363
  351MOL0     C47259   8.178  11.714   3.621 -0.8061 -0.3728  0.2053
  351MOL0     C47260   8.237  11.573   3.616 -0.3758 -0.7129  0.9635
  351MOL0     C47261   8.296  11.542   3.762  0.7385  0.5216  0.5508
  351MOL0     C47262   8.369  11.416   3.772 -0.7073  0.8821 -1.3272
  351MOL0     C47263   8.449  11.408   3.897  0.1000 -0.5370 -0.2143
  351MOL0     C47264   8.555  11.300   3.892  0.1992 -1.1638  0.4626
  351MOL0     C47265   8.497  11.166   3.859 -0.1503  0.2943 -0.1923
  351MOL0     C47266   8.594  11.051   3.880 -0.5129  1.0084 -0.5730
  351MOL0     N47267   8.638  11.038   4.018 -0.4725 -0.2237 -0.7898
  351MOL0     C47268   8.770  11.068   4.065  0.1154 -0.2215 -0.1646
  351MOL0     C47269   8.764  11.041   4.201 -0.0303 -0.4344 -0.0197
  351MOL0     C47270   8.877  11.068   4.287 -0.2574 -0.7677 -0.2292
  351MOL0     C47271   8.881  11.212   4.346  0.0865 -0.3665  0.0528
  351MOL0     C47272   8.941  11.221   4.484  0.0243 -0.1429  0.9395
  351MOL0     C47273   8.976  11.369   4.517  0.2948  0.5116 -0.4146
  351MOL0     O47274   9.081  11.407   4.418 -0.1861  0.4969 -0.3019
  351MOL0     C47275   9.210  11.415   4.467  0.2699 -0.1026 -0.0967
  351MOL0     C47276   9.252  11.344   4.578  0.9372  0.5497  1.2517
  351MOL0     C47277   9.367  11.377   4.640 -0.3040  0.0582  0.8982
  351MOL0     C47278   9.449  11.475   4.579 -1.4262 -0.0758 -0.6728
  351MOL0     C47279   9.587  11.506   4.633  1.3051 -0.0884 -0.5713
  351MOL0     O47280   9.647  11.423   4.721  0.4350 -0.2857 -0.3694
  351MOL0     C47281   9.749  11.464   4.796 -0.6784  0.8719  0.5918
  351MOL0     C47282   9.868  11.503   4.751 -0.4440 -0.3582  0.0717
  351MOL0     C47283   9.969  11.547   4.834 -0.3219  0.6336 -0.6355
  351MOL0     C47284   9.967  11.523   4.977 -0.0427 -0.3715 -0.0354
  351MOL0     O47285  10.073  11.544   5.062  0.9055 -0.2242  0.2159
  351MOL0     C47286  10.202  11.595   5.020  0.4195  0.4026  0.0946
  351MOL0     C47287  10.273  11.640   5.150  0.1827  0.4117  0.7746
  351MOL0     C47288  10.224  11.782   5.190 -0.6753 -0.1728 -0.2080
  351MOL0     C47289  10.317  11.839   5.298 -0.2078 -0.7791  0.0758
  351MOL0     C47290  10.272  11.984   5.330  0.0493  0.0221 -0.0976
  351MOL0     C47291  10.307  12.089   5.228  0.7469 -0.0522  0.6229
  351MOL0     C47292  10.315  12.224   5.289  0.5690 -0.9201  0.4526
  351MOL0     C47293  10.356  12.328   5.192 -0.0985 -0.3206  0.1578
  351MOL0    Cl47294  10.342  12.493   5.264 -0.1499 -0.5566 -0.0356
  351MOL0     C47295   9.852  11.445   5.021 -0.6071 -0.8405 -0.1611
  351MOL0     C47296   9.743  11.428   4.933 -0.2327  0.0644 -0.0443
  351MOL0     O47297   9.637  11.612   4.599  0.2868  0.2334 -0.0008
  351MOL0     C47298   9.417  11.543   4.457 -0.3502  0.1188 -0.0749
  351MOL0     C47299   9.296  11.502   4.403 -0.0293 -0.5583  0.3146
  351MOL0     N47300   8.637  10.992   4.228 -0.0987  0.5701  0.4526
  351MOL0     N47301   8.564  10.993   4.122  0.8021  0.1355 -0.0409
  351MOL0     C47302   8.307  11.759   3.367  0.1556  0.3011  0.2882
  351MOL0     C47303   8.370  11.751   3.247  0.3261  0.5227 -0.0652
  351MOL0     C47304   8.423  11.612   2.798  0.2754 -0.4643 -0.1203
  351MOL0     C47305   8.395  11.510   2.692  0.4994  0.0945  0.0132
  351MOL0     C47306   8.472  11.511   2.577  0.0373 -0.5630 -0.1238
  351MOL0     C47307   8.565  11.616   2.552  0.8171 -0.1704  0.1356
  351MOL0     O47308   8.638  11.603   2.438  0.5486 -0.1085 -0.5755
  351MOL0     C47309   8.727  11.704   2.397 -0.1452 -0.3131 -1.0346
  351MOL0     C47310   8.781  11.676   2.259 -0.3828 -0.4072 -0.3391
  351MOL0     C47311   8.657  11.661   2.160  0.5868  0.9365 -0.2280
  351MOL0     C47312   8.635  11.799   2.101  0.1305  1.6272  0.4730
  351MOL0     C47313   8.511  11.804   2.027 -0.7782  0.3975  0.3639
  351MOL0     C47314   8.400  11.816   1.985  0.2181 -0.1050 -0.2281
  351MOL0     C47315   8.588  11.718   2.646 -0.4614  0.2821  0.0161
  351MOL0     C47316   8.520  11.711   2.768 -0.5351  0.9707 -0.0027
  351MOL0     C47317   8.562  11.823   2.871  0.5274 -0.6387 -0.7158
  351MOL0     H47318   8.101  11.671   3.057 -1.1703 -0.1648  0.7822
  351MOL0     H47319   7.987  11.701   3.258 -0.1474 -2.4195  1.6444
  351MOL0     H47320   8.256  11.787   3.643 -1.4908  0.2397  0.6815
  351MOL0     H47321   8.107  11.731   3.703  0.5528  1.3723  1.0986
  351MOL0     H47322   8.325  11.562   3.551  0.1831 -0.5896  1.6777
  351MOL0     H47323   8.159  11.499   3.598 -0.1295 -1.0080  1.0962
  351MOL0     H47324   8.211  11.541   3.830 -0.7978 -0.0032 -1.2768
  351MOL0     H47325   8.363  11.620   3.799  3.5745 -1.9656  0.9854
  351MOL0     H47326   8.309  11.325   3.759  0.8053 -0.1429 -1.5017
  351MOL0     H47327   8.434  11.388   3.689 -0.0394 -4.6413  0.6514
  351MOL0     H47328   8.497  11.503   3.919 -0.2386 -0.5585  0.6788
  351MOL0     H47329   8.378  11.389   3.978 -0.8946 -5.4578 -1.8714
  351MOL0     H47330   8.619  11.331   3.810 -2.0525  1.3551 -0.5081
  351MOL0     H47331   8.613  11.310   3.984  0.8697  0.7718 -0.1122
  351MOL0     H47332   8.455  11.164   3.758  2.2166  0.8405 -1.2621
  351MOL0     H47333   8.416  11.136   3.926 -0.3831 -1.1559 -1.0843
  351MOL0     H47334   8.533  10.964   3.853 -1.4411  1.8270 -1.1767
  351MOL0     H47335   8.682  11.061   3.815 -0.7695  0.6877 -0.9747
  351MOL0     H47336   8.850  11.121   4.015 -2.5568  2.7482 -1.6237
  351MOL0     H47337   8.879  11.003   4.375 -2.8437  3.6044  3.5555
  351MOL0     H47338   8.966  11.068   4.224 -0.1448 -2.9408 -0.1498
  351MOL0     H47339   8.917  11.283   4.271  1.7886  0.4296  1.5301
  351MOL0     H47340   8.778  11.251   4.351  1.0491  2.8203 -2.2442
  351MOL0     H47341   9.034  11.167   4.500  1.4753  2.4834  1.9522
  351MOL0     H47342   8.861  11.173   4.542 -1.8035  0.3541 -1.0454
  351MOL0     H47343   9.012  11.369   4.620  2.2808  2.5014 -1.0194
  351MOL0     H47344   8.887  11.432   4.508 -0.0290 -0.0935 -1.7057
  351MOL0     H47345   9.181  11.278   4.626  0.6628 -0.7818 -0.8631
  351MOL0     H47346   9.391  11.331   4.735 -1.5883 -2.2467  0.1752
  351MOL0     H47347   9.889  11.515   4.645  2.6039  0.5618  0.6677
  351MOL0     H47348  10.060  11.597   4.801  1.2471 -0.6829  1.4412
  351MOL0     H47349  10.238  11.500   4.979 -0.6766 -1.2418  2.7192
  351MOL0     H47350  10.204  11.667   4.938 -0.0670 -1.8645 -2.0406
  351MOL0     H47351  10.266  11.574   5.237  0.7522  2.0312  2.1255
  351MOL0     H47352  10.376  11.649   5.115 -0.1459 -1.8727 -1.0420
  351MOL0     H47353  10.221  11.852   5.106 -0.5265 -0.3595 -0.3680
  351MOL0     H47354  10.122  11.777   5.229 -0.1915 -1.1533  1.0049
  351MOL0     H47355  10.414  11.849   5.248 -0.5418  0.8757 -0.2918
  351MOL0     H47356  10.326  11.764   5.377 -1.6419 -0.4712  0.5584
  351MOL0     H47357  10.328  12.000   5.423 -2.7169  0.8110  1.5409
  351MOL0     H47358  10.165  12.000   5.347  0.2167 -1.0384  2.5832
  351MOL0     H47359  10.409  12.078   5.188 -0.6119 -1.3917 -2.9004
  351MOL0     H47360  10.239  12.083   5.142 -1.0063  0.6016  1.9076
  351MOL0     H47361  10.384  12.215   5.374 -0.1185 -5.7044  0.7512
  351MOL0     H47362  10.226  12.265   5.338  1.9582  1.6974  1.0173
  351MOL0     H47363  10.454  12.301   5.151 -0.5141 -0.3257 -0.8787
  351MOL0     H47364  10.275  12.328   5.118 -0.5876  1.3535  0.6575
  351MOL0     H47365   9.862  11.405   5.121  1.8703  3.6225  1.6867
  351MOL0     H47366   9.663  11.369   4.976  0.4495 -1.1941 -0.4568
  351MOL0     H47367   9.478  11.610   4.397  0.5272 -2.9051 -2.8580
  351MOL0     H47368   9.245  11.559   4.327 -1.2791 -0.8354  0.9191
  351MOL0     H47369   8.363  11.795   3.452  0.7715 -0.7428  0.3359
  351MOL0     H47370   8.475  11.778   3.246  0.0890  1.4957  0.1548
  351MOL0     H47371   8.322  11.435   2.720  2.2251 -1.0661  1.6579
  351MOL0     H47372   8.469  11.424   2.512  2.2153 -0.8008  0.0237
  351MOL0     H47373   8.812  11.712   2.465 -0.3573 -1.0538 -0.6684
  351MOL0     H47374   8.674  11.799   2.400 -0.9589 -0.7405 -1.3873
  351MOL0     H47375   8.849  11.591   2.270 -3.1172 -2.5760  1.2102
  351MOL0     H47376   8.851  11.759   2.245  0.8711 -1.5628 -1.1976
  351MOL0     H47377   8.568  11.621   2.209  0.8231 -1.0199 -1.2948
  351MOL0     H47378   8.686  11.590   2.081  1.6502  1.0148  0.0764
  351MOL0     H47379   8.644  11.881   2.174  2.2565  1.6079  0.3056
  351MOL0     H47380   8.709  11.810   2.021  0.2475  0.7099  0.4534
  351MOL0     H47381   8.302  11.837   1.947 -0.5027 -3.1653 -0.2782
  351MOL0     H47382   8.662  11.797   2.639  3.3385 -2.7147  2.3297
  351MOL0     H47383   8.643  11.885   2.832  0.0282  0.5030  0.0144
  351MOL0     H47384   8.480  11.893   2.890  1.6280 -0.0142  2.4415
  351MOL0     H47385   8.607  11.774   2.958 -0.3168 -0.2615 -0.0479
  352MOL0     O47386   9.545   7.123   4.414 -0.4859  0.4945  0.1182
  352MOL0     C47387   9.514   7.134   4.530 -0.4122  1.2424 -0.8941
  352MOL0     O47388   9.400   7.177   4.579  0.4382  0.1720  0.1868
  352MOL0     C47389   9.304   7.236   4.507  0.2918 -0.1387 -0.5177
  352MOL0     C47390   9.208   7.307   4.581  0.1860  0.5116 -0.5150
  352MOL0     C47391   9.103   7.381   4.521  0.4062  0.2829  0.2273
  352MOL0     C47392   9.079   7.364   4.381  1.2425  0.1046  0.1135
  352MOL0     O47393   8.969   7.405   4.310 -0.0756  0.0967 -0.4595
  352MOL0     C47394   8.844   7.434   4.378  0.0728 -0.5456 -0.3310
  352MOL0     C47395   8.738   7.474   4.278  0.4597  0.0129  0.1477
  352MOL0     C47396   8.702   7.354   4.185  0.6818 -0.0046  0.5565
  352MOL0     C47397   8.620   7.384   4.054  0.2249  0.1462  0.2019
  352MOL0     C47398   8.596   7.238   4.003 -0.3209 -0.6147  0.6230
  352MOL0     C47399   8.510   7.253   3.880 -0.6378  0.8301  0.6036
  352MOL0     C47400   8.496   7.124   3.792 -0.6373  0.2854  0.1745
  352MOL0     C47401   8.615   7.100   3.711  0.6644  0.3220  0.7483
  352MOL0     N47402   8.588   7.020   3.594 -0.5971 -0.5132 -1.1542
  352MOL0     C47403   8.700   6.963   3.536 -0.0210  0.6921 -0.3683
  352MOL0     C47404   8.651   6.916   3.421  0.8049  0.6811  0.9151
  352MOL0     C47405   8.742   6.863   3.309 -0.5539  0.3409  0.3488
  352MOL0     C47406   8.768   6.968   3.201 -0.2666 -0.2356 -0.3101
  352MOL0     C47407   8.873   6.921   3.104  0.0641 -0.0374 -0.1998
  352MOL0     C47408   8.858   6.998   2.967 -1.0787  0.2954  0.4726
  352MOL0     O47409   8.973   6.945   2.887 -0.0495  0.2224  0.3431
  352MOL0     C47410   9.028   7.037   2.799 -0.5141 -0.1109  0.8748
  352MOL0     C47411   9.064   7.001   2.673 -0.4732  0.6866 -0.8218
  352MOL0     C47412   9.114   7.097   2.583 -0.7099  0.1802 -0.3303
  352MOL0     C47413   9.161   7.224   2.626  0.5812  0.1248  0.0072
  352MOL0     C47414   9.239   7.313   2.537 -0.3896 -0.3841  0.0927
  352MOL0     O47415   9.292   7.245   2.435  0.2578 -0.3800 -0.3383
  352MOL0     C47416   9.353   7.323   2.335  0.2008  0.8852  0.0773
  352MOL0     C47417   9.489   7.305   2.293  0.4419 -0.0813  0.2903
  352MOL0     C47418   9.540   7.391   2.195 -0.2490  0.3143 -0.2188
  352MOL0     C47419   9.458   7.490   2.134  0.4032 -1.2822  0.6240
  352MOL0     O47420   9.500   7.597   2.053 -0.9963 -0.0171 -0.1550
  352MOL0     C47421   9.486   7.577   1.908  0.1148 -0.5412  0.6384
  352MOL0     C47422   9.550   7.693   1.843 -1.1393 -0.5383  0.3430
  352MOL0     C47423   9.496   7.825   1.878 -0.5831 -0.2748 -1.2288
  352MOL0     C47424   9.360   7.854   1.818  0.3566 -0.0146  0.6031
  352MOL0     C47425   9.355   8.014   1.804 -0.2567 -0.8108 -0.8526
  352MOL0     C47426   9.214   8.045   1.754  0.0935  0.3615 -0.4357
  352MOL0     C47427   9.129   8.073   1.880 -0.1204  0.4940  0.3036
  352MOL0     C47428   8.987   8.127   1.850 -1.0128 -0.8798 -0.5339
  352MOL0    Cl47429   9.022   8.282   1.776 -0.0201  0.3936 -0.0498
  352MOL0     C47430   9.322   7.501   2.178 -0.1561  0.4999  0.8990
  352MOL0     C47431   9.268   7.414   2.272 -0.3136 -0.4551 -0.1353
  352MOL0     O47432   9.265   7.429   2.562 -0.1711  0.3366 -0.5003
  352MOL0     C47433   9.143   7.254   2.761 -0.4303 -0.8920 -1.3579
  352MOL0     C47434   9.071   7.165   2.845 -0.2079  0.8996 -0.3910
  352MOL0     N47435   8.514   6.939   3.406 -0.3139 -0.6099 -0.3234
  352MOL0     N47436   8.478   7.008   3.508 -0.0814  0.0604 -0.3665
  352MOL0     C47437   9.166   7.279   4.318  0.3948 -0.4675 -0.1089
  352MOL0     C47438   9.277   7.225   4.369 -0.5542 -0.9723  0.1505
  352MOL0     C47439   9.606   7.072   4.633 -0.2532 -0.6766  0.5398
  352MOL0     C47440   9.536   6.962   4.704 -0.9805 -0.3966 -0.0938
  352MOL0     C47441   9.625   6.889   4.782 -0.3196  0.2128 -0.5692
  352MOL0     C47442   9.763   6.913   4.799  0.0910  0.0261  0.1683
  352MOL0     O47443   9.856   6.839   4.869 -0.4478 -0.4706  0.3327
  352MOL0     C47444   9.817   6.715   4.927 -0.1791 -0.5684  0.9167
  352MOL0     C47445   9.933   6.643   4.981  0.1993 -0.6385 -0.3158
  352MOL0     C47446   9.896   6.507   5.043  0.0372 -1.3617 -0.1073
  352MOL0     C47447   9.818   6.508   5.179  0.2132  0.0897 -0.5507
  352MOL0     C47448   9.703   6.414   5.177  0.1871  0.6298  0.2484
  352MOL0     C47449   9.608   6.339   5.152 -0.6039 -0.1212  0.6538
  352MOL0     C47450   9.811   7.026   4.725 -0.1967  0.6441  0.1905
  352MOL0     C47451   9.740   7.095   4.637  0.2297 -0.0241 -0.6983
  352MOL0     C47452   9.806   7.200   4.548  0.9554  0.0623 -0.6090
  352MOL0     H47453   9.220   7.300   4.689  0.8735 -0.5924 -0.6470
  352MOL0     H47454   9.023   7.416   4.585  0.1162 -2.4334  1.5039
  352MOL0     H47455   8.809   7.345   4.432 -0.9643 -1.3674 -2.2321
  352MOL0     H47456   8.852   7.516   4.450 -0.3268 -0.8561  0.0764
  352MOL0     H47457   8.772   7.562   4.223  1.5587  2.0282  3.7456
  352MOL0     H47458   8.647   7.501   4.333 -0.5856  0.8747 -1.8882
  352MOL0     H47459   8.650   7.274   4.239  1.7765 -1.2243 -0.1533
  352MOL0     H47460   8.794   7.308   4.149 -0.4417 -1.4456 -0.5933
  352MOL0     H47461   8.528   7.432   4.089  0.5145  1.3809 -0.6702
  352MOL0     H47462   8.668   7.449   3.981 -1.9738 -1.5413 -2.9642
  352MOL0     H47463   8.694   7.195   3.982 -0.1103  0.2693 -0.3218
  352MOL0     H47464   8.545   7.182   4.082 -0.5771  1.2764  1.8599
  352MOL0     H47465   8.403   7.269   3.898  0.1874  4.6605  3.2882
  352MOL0     H47466   8.519   7.342   3.817 -1.3626  1.0460  0.7941
  352MOL0     H47467   8.406   7.135   3.731 -1.6503 -1.2486  1.2961
  352MOL0     H47468   8.489   7.036   3.858  0.0919  0.1850  0.1191
  352MOL0     H47469   8.649   7.200   3.680 -2.3234  0.2798 -3.5173
  352MOL0     H47470   8.698   7.054   3.766  1.0314 -0.1222 -0.1634
  352MOL0     H47471   8.803   6.983   3.565  0.3378  0.0629 -1.1464
  352MOL0     H47472   8.834   6.840   3.362  0.4768 -1.6642 -2.1003
  352MOL0     H47473   8.690   6.769   3.287  0.0971 -0.9709  3.7632
  352MOL0     H47474   8.671   6.985   3.155 -0.5351  2.8312  1.1016
  352MOL0     H47475   8.798   7.068   3.236 -0.8783  0.2926 -1.2338
  352MOL0     H47476   8.853   6.816   3.080  0.2203 -0.6144  1.9987
  352MOL0     H47477   8.977   6.929   3.137 -0.8061 -1.9868  3.5546
  352MOL0     H47478   8.850   7.107   2.980  0.4586  0.5388 -0.3051
  352MOL0     H47479   8.765   6.966   2.919 -0.6205 -1.2016  0.5548
  352MOL0     H47480   9.076   6.897   2.646  1.6599  0.8267 -0.5581
  352MOL0     H47481   9.160   7.055   2.495  1.3440  1.3324  0.1266
  352MOL0     H47482   9.554   7.229   2.335  1.6459  1.2831  0.9407
  352MOL0     H47483   9.643   7.416   2.170 -0.6414  0.4730 -1.7667
  352MOL0     H47484   9.535   7.483   1.880 -0.4316 -0.1370 -1.9365
  352MOL0     H47485   9.382   7.584   1.873  0.4111 -0.2790 -0.2002
  352MOL0     H47486   9.657   7.695   1.868 -0.8250 -1.8395 -0.7707
  352MOL0     H47487   9.547   7.684   1.734  4.2880  1.9506 -0.3328
  352MOL0     H47488   9.486   7.840   1.986 -2.1063  1.1357 -1.5088
  352MOL0     H47489   9.567   7.904   1.851  0.3387 -0.8090 -0.3830
  352MOL0     H47490   9.282   7.819   1.886  1.0489 -0.7351  1.0485
  352MOL0     H47491   9.343   7.806   1.720  2.2097 -1.3981  0.9146
  352MOL0     H47492   9.432   8.048   1.734  0.2653 -0.8971 -0.3239
  352MOL0     H47493   9.378   8.058   1.901 -2.2389 -0.0114 -0.6901
  352MOL0     H47494   9.219   8.136   1.694 -0.7986  1.8699  1.6564
  352MOL0     H47495   9.172   7.966   1.690 -0.0361  1.9097 -2.3577
  352MOL0     H47496   9.183   8.152   1.934  0.4101 -0.1166  0.6871
  352MOL0     H47497   9.130   7.984   1.944  1.3163 -0.9081 -1.5489
  352MOL0     H47498   8.933   8.052   1.790 -0.0474 -0.8450 -1.4863
  352MOL0     H47499   8.932   8.139   1.944  0.6411 -3.3779  0.8654
  352MOL0     H47500   9.271   7.589   2.138  1.8902  1.2512 -0.2111
  352MOL0     H47501   9.169   7.435   2.312 -1.1786 -0.5397 -2.1148
  352MOL0     H47502   9.178   7.345   2.809  0.5378 -2.0351  0.2262
  352MOL0     H47503   9.052   7.194   2.948 -1.7857  0.5890 -0.5804
  352MOL0     H47504   9.143   7.263   4.213  3.3918 -1.5204 -0.6925
  352MOL0     H47505   9.355   7.184   4.306  2.3684  0.7793  2.3418
  352MOL0     H47506   9.433   6.929   4.691 -0.6470 -1.1415 -0.9869
  352MOL0     H47507   9.573   6.811   4.836 -1.0850 -0.3460 -2.0720
  352MOL0     H47508   9.779   6.649   4.848  0.4607  0.9726 -0.7710
  352MOL0     H47509   9.735   6.734   4.997  0.6043  0.3196  1.6256
  352MOL0     H47510   9.976   6.712   5.054  0.4139  1.3194 -2.1991
  352MOL0     H47511  10.012   6.630   4.907  0.2401  1.4297 -0.6932
  352MOL0     H47512   9.984   6.445   5.062  1.9986  1.6692  1.6081
  352MOL0     H47513   9.843   6.448   4.967 -2.7639  2.0450 -1.0719
  352MOL0     H47514   9.880   6.483   5.265  0.6711 -5.3074 -2.0745
  352MOL0     H47515   9.776   6.609   5.183  3.2862  1.4787 -0.3207
  352MOL0     H47516   9.530   6.276   5.114 -0.6276  0.5783 -0.5177
  352MOL0     H47517   9.914   7.060   4.729 -0.1318  0.3952  4.1565
  352MOL0     H47518   9.869   7.152   4.473  1.1469  0.3302 -0.6249
  352MOL0     H47519   9.734   7.250   4.482 -1.0911 -1.8528  0.0520
  352MOL0     H47520   9.857   7.278   4.606  3.5025 -1.4058 -0.7388
  353MOL0     O47521   8.689   9.900   9.214 -0.1307 -0.2211 -0.2082
  353MOL0     C47522   8.725   9.826   9.127 -0.8961  0.1242  1.0194
  353MOL0     O47523   8.826   9.850   9.028 -0.5921 -0.6898 -1.0612
  353MOL0     C47524   8.863   9.980   9.015  0.9135  0.6456  0.4050
  353MOL0     C47525   8.806  10.076   8.917 -0.3435 -0.1488 -0.2370
  353MOL0     C47526   8.852  10.208   8.923  0.1607 -0.3025 -0.6045
  353MOL0     C47527   8.951  10.244   9.010 -0.3205 -0.2063 -0.8690
  353MOL0     O47528   9.019  10.365   9.008 -0.6057 -0.3978 -0.6954
  353MOL0     C47529   9.043  10.418   8.880  0.5970 -0.2289 -0.3439
  353MOL0     C47530   9.148  10.527   8.870 -0.8668 -0.0199  0.6804
  353MOL0     C47531   9.276  10.503   8.963  0.4236 -0.3469 -0.3261
  353MOL0     C47532   9.267  10.547   9.107  0.0042  0.5148  0.4111
  353MOL0     C47533   9.219  10.692   9.108 -0.0593  0.0292  0.3323
  353MOL0     C47534   9.306  10.774   9.214  0.1151  0.8909 -0.1857
  353MOL0     C47535   9.284  10.932   9.212  0.3637  1.0242 -0.2976
  353MOL0     C47536   9.136  10.956   9.243  0.5405 -0.1208  0.4025
  353MOL0     N47537   9.099  10.908   9.382  0.3881  0.6748  0.2724
  353MOL0     C47538   9.166  10.938   9.499  0.6302  0.2011  0.2869
  353MOL0     C47539   9.080  10.899   9.596 -0.0738  0.4599  0.2495
  353MOL0     C47540   9.098  10.912   9.737  1.1885 -0.5703 -0.3369
  353MOL0     C47541   9.241  10.883   9.784  0.1717 -0.2723 -0.5965
  353MOL0     C47542   9.272  10.733   9.794 -0.8945  0.5640 -0.2064
  353MOL0     C47543   9.212  10.646   9.677  0.1368 -0.0680 -0.2859
  353MOL0     O47544   9.240  10.511   9.723  0.0268 -0.4516  0.7119
  353MOL0     C47545   9.368  10.452   9.698  0.3736 -0.3724  0.2848
  353MOL0     C47546   9.381  10.315   9.724 -0.2793  0.4034  0.2703
  353MOL0     C47547   9.501  10.248   9.707 -0.3970 -0.4740 -1.5618
  353MOL0     C47548   9.615  10.318   9.667 -0.1556 -0.3724 -0.2014
  353MOL0     C47549   9.742  10.245   9.631 -0.0611  0.4985  0.1319
  353MOL0     O47550   9.748  10.109   9.659 -0.1461 -0.4393  0.0322
  353MOL0     C47551   9.867  10.037   9.629  1.5145 -0.3433 -0.5455
  353MOL0     C47552   9.950  10.023   9.740 -0.4523  0.1212 -0.3444
  353MOL0     C47553  10.059   9.936   9.736  0.2324  0.1512  0.3517
  353MOL0     C47554  10.083   9.858   9.621 -0.4653 -0.2084  0.6136
  353MOL0     O47555  10.196   9.777   9.599  0.1531  0.2460  0.7516
  353MOL0     C47556  10.290   9.765   9.717 -0.9528  0.6312 -0.4737
  353MOL0     C47557  10.399   9.671   9.692 -0.9237  0.0533 -0.0352
  353MOL0     C47558  10.499   9.659   9.808 -0.3770 -0.9019 -0.2614
  353MOL0     C47559  10.580   9.538   9.793  0.5301 -0.2490  0.4630
  353MOL0     C47560  10.674   9.517   9.906 -0.3254 -0.2882 -0.0781
  353MOL0     C47561  10.772   9.401   9.894 -0.1562  0.8856 -0.2535
  353MOL0     C47562  10.853   9.370  10.031  0.3233 -0.4562  1.1274
  353MOL0     C47563  10.929   9.240  10.021 -0.5356  1.0363 -0.6332
  353MOL0    Cl47564  10.814   9.100  10.010  0.1442  0.0483 -0.0836
  353MOL0     C47565   9.999   9.879   9.513  1.1532  0.1689 -0.7583
  353MOL0     C47566   9.877   9.953   9.521  1.3109 -0.0852 -0.6099
  353MOL0     O47567   9.839  10.312   9.595 -0.0134  0.1025 -0.3810
  353MOL0     C47568   9.602  10.449   9.630 -0.7948  0.3350 -0.3718
  353MOL0     C47569   9.480  10.518   9.646  0.6240 -0.0868  0.4351
  353MOL0     N47570   8.964  10.848   9.535  0.0819  0.8617 -0.1442
  353MOL0     N47571   8.978  10.852   9.410 -0.2659  0.7674  0.0801
  353MOL0     C47572   8.989  10.158   9.106 -0.7355 -1.1490 -0.4184
  353MOL0     C47573   8.945  10.030   9.107 -0.3258 -0.3229 -1.0509
  353MOL0     C47574   8.671   9.693   9.124 -0.7152 -0.2501  0.1045
  353MOL0     C47575   8.667   9.624   9.236 -0.1538 -0.1846  0.6490
  353MOL0     C47576   8.636   9.484   9.224 -0.0398 -0.6230  0.8112
  353MOL0     C47577   8.611   9.416   9.106 -0.8380 -0.0956 -0.3842
  353MOL0     O47578   8.580   9.284   9.096  0.2326 -0.1173 -0.3405
  353MOL0     C47579   8.634   9.217   8.976 -1.5319  0.8463  0.1832
  353MOL0     C47580   8.657   9.073   8.996 -0.1261 -0.3015 -0.6220
  353MOL0     C47581   8.740   9.032   9.121 -0.3741  0.6493 -1.0304
  353MOL0     C47582   8.891   9.085   9.124  0.7268  0.2307  0.6492
  353MOL0     C47583   8.925   9.191   9.213 -0.0996  1.0144  0.3415
  353MOL0     C47584   8.967   9.275   9.290  0.9881  0.3173 -0.7854
  353MOL0     C47585   8.628   9.492   8.989 -0.1174 -0.4619  0.5713
  353MOL0     C47586   8.654   9.630   8.995 -0.8222 -0.8692  0.9444
  353MOL0     C47587   8.678   9.701   8.859  1.0003  0.1146  0.6727
  353MOL0     H47588   8.741  10.052   8.833 -1.6793  1.8701  0.1492
  353MOL0     H47589   8.824  10.276   8.843 -0.8902 -3.1047 -2.8249
  353MOL0     H47590   9.077  10.341   8.809  1.5106 -0.1858  0.0393
  353MOL0     H47591   8.952  10.471   8.850 -0.7934 -0.9607  2.3360
  353MOL0     H47592   9.097  10.619   8.900 -1.4381  0.4231 -1.4778
  353MOL0     H47593   9.177  10.540   8.765 -2.3432 -2.0865 -0.0374
  353MOL0     H47594   9.356  10.556   8.911  0.6475 -2.2555 -2.0397
  353MOL0     H47595   9.299  10.396   8.963 -2.3518 -0.9980 -0.2585
  353MOL0     H47596   9.197  10.488   9.167 -0.1920  1.7881  1.4863
  353MOL0     H47597   9.371  10.535   9.139 -0.7527  1.1535  3.3916
  353MOL0     H47598   9.244  10.746   9.016  0.9443  0.6216  0.9251
  353MOL0     H47599   9.114  10.702   9.136  0.2310  0.3343  1.3575
  353MOL0     H47600   9.308  10.731   9.314  2.6305  4.7319  1.6379
  353MOL0     H47601   9.408  10.757   9.180  0.6350  1.1795  1.1788
  353MOL0     H47602   9.304  10.983   9.117  0.5950  2.6962  0.6080
  353MOL0     H47603   9.352  10.983   9.282  5.6910 -2.0147 -2.6883
  353MOL0     H47604   9.122  11.064   9.242 -1.1983 -0.3168 -0.9108
  353MOL0     H47605   9.069  10.907   9.172  2.0634 -0.3974 -0.8842
  353MOL0     H47606   9.255  11.000   9.504  0.4164  0.5102  0.3354
  353MOL0     H47607   9.066  11.014   9.758 -1.8457 -1.3192 -0.7723
  353MOL0     H47608   9.012  10.861   9.782 -2.2570  4.4221 -0.4532
  353MOL0     H47609   9.314  10.934   9.719  2.1357 -0.4453  1.3657
  353MOL0     H47610   9.264  10.916   9.886  0.5132 -3.3537  0.4023
  353MOL0     H47611   9.228  10.694   9.886  1.7636  0.9063  1.3006
  353MOL0     H47612   9.379  10.716   9.803 -0.2635  0.3847 -5.0353
  353MOL0     H47613   9.266  10.659   9.583  0.8794  1.7725  0.3488
  353MOL0     H47614   9.106  10.661   9.652 -0.2630  2.3229  2.3817
  353MOL0     H47615   9.292  10.260   9.752  0.9371 -2.8174 -1.6343
  353MOL0     H47616   9.490  10.141   9.716 -0.1827 -0.3943 -0.0969
  353MOL0     H47617   9.934  10.097   9.818 -1.9447  0.7347 -1.1959
  353MOL0     H47618  10.121   9.935   9.825 -1.3231 -1.7881  1.4909
  353MOL0     H47619  10.343   9.856   9.743 -0.2593  0.1807 -0.2798
  353MOL0     H47620  10.228   9.723   9.798  1.7082 -1.2720  0.7417
  353MOL0     H47621  10.363   9.568   9.700  1.6633 -0.7680  2.5186
  353MOL0     H47622  10.454   9.686   9.599  1.6298  2.7245  1.7268
  353MOL0     H47623  10.563   9.748   9.809 -0.7320 -0.5102  3.6093
  353MOL0     H47624  10.439   9.673   9.898  0.8568  1.5806  0.2585
  353MOL0     H47625  10.633   9.555   9.699 -0.4347 -4.2591 -1.0274
  353MOL0     H47626  10.515   9.452   9.771 -0.5884  0.7899 -0.4049
  353MOL0     H47627  10.624   9.519  10.003 -0.6705  0.6433 -0.2662
  353MOL0     H47628  10.735   9.609   9.904 -1.3332  0.4803  2.1076
  353MOL0     H47629  10.713   9.315   9.863 -1.5246  0.2656  3.5781
  353MOL0     H47630  10.840   9.435   9.815 -1.8073  1.7595 -1.3711
  353MOL0     H47631  10.780   9.374  10.113 -0.2214 -1.2921  0.7003
  353MOL0     H47632  10.924   9.451  10.048  0.2437  0.3685 -1.9463
  353MOL0     H47633  10.987   9.249   9.929  1.4660 -0.0327  0.4493
  353MOL0     H47634  10.999   9.216  10.101  1.2919  0.6867 -2.2576
  353MOL0     H47635  10.017   9.812   9.429 -0.1672 -1.2274  0.0285
  353MOL0     H47636   9.798   9.948   9.446  1.7285  2.2379 -1.2924
  353MOL0     H47637   9.681  10.495   9.572 -0.9594 -0.2000 -1.0326
  353MOL0     H47638   9.469  10.620   9.610 -2.4561 -0.4492  0.1319
  353MOL0     H47639   9.068  10.192   9.173 -0.9583 -1.8738  0.2263
  353MOL0     H47640   8.989   9.974   9.189 -2.2082 -2.2408 -1.2658
  353MOL0     H47641   8.694   9.671   9.330 -1.2245 -0.6081  1.1851
  353MOL0     H47642   8.638   9.439   9.323 -2.1418  2.2013  2.3069
  353MOL0     H47643   8.734   9.258   8.957 -1.1286 -0.0504  0.3301
  353MOL0     H47644   8.572   9.238   8.888  0.8527  0.4225 -1.7030
  353MOL0     H47645   8.703   9.025   8.910  1.3929 -1.1369  0.5934
  353MOL0     H47646   8.563   9.021   9.015  0.4889 -0.2441  3.5288
  353MOL0     H47647   8.735   8.924   9.104 -0.8193  1.0480 -3.9412
  353MOL0     H47648   8.688   9.061   9.213  1.9140 -2.0405  1.3297
  353MOL0     H47649   8.968   9.011   9.148  1.4533  0.4488 -0.9117
  353MOL0     H47650   8.928   9.109   9.024  4.2977 -1.5711  1.3806
  353MOL0     H47651   9.015   9.354   9.344 -0.4758  1.2379 -0.7975
  353MOL0     H47652   8.604   9.453   8.891 -1.3891 -0.1974  0.7579
  353MOL0     H47653   8.620   9.792   8.840  3.5450  1.2746 -2.1678
  353MOL0     H47654   8.782   9.721   8.836  1.2250  0.8688  2.1769
  353MOL0     H47655   8.644   9.626   8.787 -3.4332  0.9309  1.6075
  354MOL0     O47656   0.358   8.167   6.899  0.8959  0.1377 -0.7693
  354MOL0     C47657   0.245   8.212   6.905  0.6359 -0.9023 -0.5202
  354MOL0     O47658   0.164   8.254   6.801 -0.2591 -0.6391  0.3743
  354MOL0     C47659   0.212   8.249   6.672 -0.1027  0.0095 -0.1221
  354MOL0     C47660   0.134   8.210   6.565 -0.5561 -0.6054 -0.9851
  354MOL0     C47661   0.185   8.220   6.431 -0.2605 -0.0665  0.5247
  354MOL0     C47662   0.307   8.279   6.402 -0.1385 -0.7579  0.7619
  354MOL0     O47663   0.351   8.288   6.269 -0.9784  0.3189 -0.3583
  354MOL0     C47664   0.490   8.275   6.247  0.0820 -0.1577  1.2539
  354MOL0     C47665   0.544   8.127   6.264 -0.1301 -0.0131  0.4500
  354MOL0     C47666   0.577   8.077   6.121 -0.6462 -0.9386  0.6991
  354MOL0     C47667   0.708   8.132   6.059  0.5054 -0.1109  0.0425
  354MOL0     C47668   0.726   8.115   5.910  0.1319 -0.6857 -1.2474
  354MOL0     C47669   0.732   7.966   5.881  0.6757  0.3286  0.1080
  354MOL0     C47670   0.832   7.936   5.764 -0.0745  0.9632  0.9984
  354MOL0     C47671   0.797   8.018   5.636 -1.6958  0.5295  0.0289
  354MOL0     N47672   0.678   7.967   5.569 -0.3864 -0.1779 -1.2980
  354MOL0     C47673   0.554   8.031   5.574  0.0296  0.3989  0.4233
  354MOL0     C47674   0.471   7.957   5.494 -1.6435 -0.6958 -1.0944
  354MOL0     C47675   0.338   8.026   5.459 -0.4104  0.2129  0.0506
  354MOL0     C47676   0.227   7.931   5.403  0.5881  1.2007  0.1966
  354MOL0     C47677   0.083   7.971   5.424 -0.2012  0.5789 -0.3793
  354MOL0     C47678   0.039   7.966   5.573 -0.9753 -0.2955 -0.7284
  354MOL0     O47679   0.000   7.835   5.616  0.1528  0.3641  0.2092
  354MOL0     C47680  -0.069   7.807   5.737  0.9480  0.9864 -0.1244
  354MOL0     C47681  -0.103   7.896   5.843  0.0963 -1.1359  0.6266
  354MOL0     C47682  -0.165   7.853   5.959  0.3015 -0.5286  0.1352
  354MOL0     C47683  -0.187   7.716   5.973  0.2790  1.2268 -0.3932
  354MOL0     C47684  -0.252   7.664   6.094  0.3120  0.0620  1.2219
  354MOL0     O47685  -0.251   7.533   6.114 -0.4727  0.6570 -1.0406
  354MOL0     C47686  -0.331   7.483   6.222 -0.0860  0.3566  0.1871
  354MOL0     C47687  -0.273   7.477   6.347  0.5723 -1.0690  0.2655
  354MOL0     C47688  -0.351   7.436   6.457 -0.9754  0.8002  0.1520
  354MOL0     C47689  -0.466   7.362   6.447 -0.2599 -0.3340  0.7394
  354MOL0     O47690  -0.542   7.303   6.544 -0.0296  0.2519  0.1789
  354MOL0     C47691  -0.472   7.274   6.664  0.4733 -0.4275 -0.1506
  354MOL0     C47692  -0.524   7.151   6.735  0.1843  0.2520 -0.0584
  354MOL0     C47693  -0.420   7.039   6.696  0.4030 -0.3288  0.4763
  354MOL0     C47694  -0.464   6.905   6.764 -0.7753 -0.7589  0.1974
  354MOL0     C47695  -0.343   6.823   6.782  1.0520  0.6475 -0.6123
  354MOL0     C47696  -0.374   6.674   6.805 -0.1317 -0.1331 -0.1566
  354MOL0     C47697  -0.244   6.609   6.861  0.4795 -0.5531 -1.0405
  354MOL0     C47698  -0.272   6.455   6.870 -0.0605  0.7495  0.3764
  354MOL0    Cl47699  -0.401   6.434   6.978 -0.0610  0.2680  0.2031
  354MOL0     C47700  -0.516   7.353   6.307 -0.6575 -0.0550 -0.0386
  354MOL0     C47701  -0.448   7.419   6.202  0.0641 -0.0182 -1.0345
  354MOL0     O47702  -0.302   7.744   6.176 -1.0719 -0.1609  0.5481
  354MOL0     C47703  -0.172   7.622   5.861  0.3794  0.5144 -0.5384
  354MOL0     C47704  -0.111   7.668   5.749 -1.4052  0.3449  0.2796
  354MOL0     N47705   0.543   7.862   5.436  1.3890 -0.1762  0.6837
  354MOL0     N47706   0.666   7.863   5.477  0.3915 -0.5206 -0.4080
  354MOL0     C47707   0.378   8.329   6.515  0.3954 -0.4384  0.3871
  354MOL0     C47708   0.337   8.305   6.645  0.6978  0.3330 -0.9144
  354MOL0     C47709   0.193   8.237   7.050 -0.2764  1.0401  0.5102
  354MOL0     C47710   0.242   8.342   7.120  0.1297  0.4506  0.4029
  354MOL0     C47711   0.195   8.376   7.251 -1.0689  0.6420  0.0331
  354MOL0     C47712   0.094   8.301   7.303  1.5731 -0.5303 -0.0535
  354MOL0     O47713   0.035   8.345   7.417  0.1781 -0.3469  0.1586
  354MOL0     C47714   0.109   8.368   7.538 -0.4114 -0.3559  0.4834
  354MOL0     C47715   0.120   8.241   7.617  0.2313  0.8408  0.0272
  354MOL0     C47716   0.259   8.196   7.662 -1.4448  0.7636 -0.2376
  354MOL0     C47717   0.247   8.077   7.760  0.2747 -1.2021  0.2630
  354MOL0     C47718   0.341   7.971   7.719  0.3399 -0.1046  0.2019
  354MOL0     C47719   0.419   7.889   7.689  0.0651  0.1642 -0.2975
  354MOL0     C47720   0.039   8.197   7.234 -0.2827 -0.3096 -0.7239
  354MOL0     C47721   0.097   8.158   7.114  0.6146 -0.0745 -0.1982
  354MOL0     C47722   0.036   8.026   7.056  0.0900  0.5997  0.8252
  354MOL0     H47723   0.043   8.154   6.581 -0.2209 -0.7850  0.3927
  354MOL0     H47724   0.112   8.198   6.354 -0.5104  0.6572  0.5450
  354MOL0     H47725   0.504   8.308   6.144 -0.0499 -2.1722  0.5515
  354MOL0     H47726   0.553   8.340   6.308  0.6056 -1.0049  1.6414
  354MOL0     H47727   0.477   8.064   6.323 -1.6738 -0.3579 -1.5751
  354MOL0     H47728   0.636   8.125   6.323  1.5297 -0.8232 -2.0324
  354MOL0     H47729   0.494   8.110   6.057 -1.2568  0.0904  1.9748
  354MOL0     H47730   0.591   7.969   6.120  2.3864 -0.6111  1.0725
  354MOL0     H47731   0.712   8.239   6.080 -0.8684 -0.4083  2.1807
  354MOL0     H47732   0.784   8.077   6.114 -2.8860 -2.4114  2.8991
  354MOL0     H47733   0.660   8.177   5.849 -0.3546  1.4513  1.2470
  354MOL0     H47734   0.824   8.162   5.899 -0.4088  1.1121  0.7945
  354MOL0     H47735   0.743   7.909   5.974  0.2412  2.0701  1.2787
  354MOL0     H47736   0.638   7.916   5.859  1.1227  0.6691 -2.9117
  354MOL0     H47737   0.840   7.833   5.728  3.4518  0.4105  2.8903
  354MOL0     H47738   0.935   7.961   5.792  0.6155  0.6985 -1.1346
  354MOL0     H47739   0.782   8.124   5.657 -0.7809  0.9284 -1.2206
  354MOL0     H47740   0.880   8.016   5.565 -2.5682  1.4583 -1.0571
  354MOL0     H47741   0.532   8.125   5.623  0.6084  0.7601  0.0012
  354MOL0     H47742   0.299   8.069   5.552  1.7252  1.0321  0.6298
  354MOL0     H47743   0.350   8.105   5.384  1.0812  0.4167  0.4811
  354MOL0     H47744   0.245   7.942   5.296  3.1320  1.3629  0.5906
  354MOL0     H47745   0.244   7.830   5.442  0.8704  0.4865 -1.6693
  354MOL0     H47746   0.005   7.912   5.374  1.4749 -4.3808  2.1222
  354MOL0     H47747   0.075   8.073   5.388  1.6437  0.1507 -2.1210
  354MOL0     H47748  -0.057   8.020   5.574 -0.6378  0.4085 -2.3684
  354MOL0     H47749   0.123   7.994   5.637 -0.8388 -1.6875 -0.2683
  354MOL0     H47750  -0.078   8.001   5.826  1.4061 -1.5310 -0.0328
  354MOL0     H47751  -0.191   7.926   6.035 -0.6460 -0.5001 -0.1906
  354MOL0     H47752  -0.173   7.516   6.358  0.0381  0.2203  0.9112
  354MOL0     H47753  -0.311   7.462   6.555 -2.4618  1.4972  0.6046
  354MOL0     H47754  -0.366   7.251   6.649  1.7070  3.0213  2.0053
  354MOL0     H47755  -0.477   7.365   6.725 -0.5191  0.3170 -1.3093
  354MOL0     H47756  -0.535   7.176   6.841  2.8221  0.2674  0.2789
  354MOL0     H47757  -0.625   7.142   6.692  0.1162 -1.3547  0.4009
  354MOL0     H47758  -0.412   7.032   6.587  4.6706  3.2595  0.2610
  354MOL0     H47759  -0.315   7.056   6.720  0.0872 -0.4071  2.0420
  354MOL0     H47760  -0.538   6.856   6.700 -2.9398  2.1702  0.2482
  354MOL0     H47761  -0.511   6.923   6.861 -6.4345 -2.6689 -1.8045
  354MOL0     H47762  -0.281   6.862   6.863  0.6143 -2.1754  1.1902
  354MOL0     H47763  -0.298   6.821   6.682  0.7817  0.2685 -0.7248
  354MOL0     H47764  -0.455   6.656   6.877 -2.2000  1.1012 -2.0607
  354MOL0     H47765  -0.398   6.627   6.710  0.1139 -3.3486  1.2538
  354MOL0     H47766  -0.215   6.654   6.957  0.9827  1.8787 -2.2427
  354MOL0     H47767  -0.167   6.614   6.784  0.9116 -2.9924 -0.8352
  354MOL0     H47768  -0.296   6.423   6.768 -1.3118  3.8136 -0.4116
  354MOL0     H47769  -0.183   6.397   6.898 -0.3393 -0.6308 -1.4087
  354MOL0     H47770  -0.606   7.298   6.283 -0.1232 -1.1362  0.4013
  354MOL0     H47771  -0.488   7.413   6.101 -1.6197  0.1806 -0.4219
  354MOL0     H47772  -0.202   7.518   5.867 -0.5069  0.7994  0.2537
  354MOL0     H47773  -0.076   7.596   5.675  0.7513  1.9703 -0.3835
  354MOL0     H47774   0.463   8.394   6.498 -1.9620  2.2601 -2.4164
  354MOL0     H47775   0.390   8.343   6.731  1.1480 -2.2072  0.0294
  354MOL0     H47776   0.321   8.404   7.080 -0.7507  2.2793  1.3169
  354MOL0     H47777   0.235   8.457   7.312 -2.2648 -0.2787  2.1664
  354MOL0     H47778   0.048   8.443   7.589 -0.0540  1.4387 -1.5962
  354MOL0     H47779   0.206   8.411   7.510 -2.0429 -0.0438 -6.3154
  354MOL0     H47780   0.061   8.159   7.575 -0.5280  0.0191  2.5511
  354MOL0     H47781   0.063   8.256   7.709 -0.4778 -0.8331 -0.1012
  354MOL0     H47782   0.309   8.281   7.710  1.7799 -0.5055 -1.0454
  354MOL0     H47783   0.311   8.169   7.569 -1.1427 -2.7591  0.8275
  354MOL0     H47784   0.267   8.127   7.856 -0.9364  3.7588 -1.7748
  354MOL0     H47785   0.143   8.042   7.758  0.1305 -0.7468 -0.1797
  354MOL0     H47786   0.504   7.826   7.681  0.6609  0.8212  0.6865
  354MOL0     H47787  -0.046   8.138   7.265 -0.0038  0.0807  0.8508
  354MOL0     H47788  -0.034   7.967   7.116 -1.0891  1.5638  0.4519
  354MOL0     H47789  -0.023   8.063   6.971 -0.6808  0.7254  1.4056
  354MOL0     H47790   0.117   7.963   7.018  1.0343  0.5161  2.8819
  355MOL0     O47791  10.253   2.127   9.395  0.4907 -0.3204  0.2932
  355MOL0     C47792  10.323   2.180   9.484 -0.7528 -0.0464  0.0829
  355MOL0     O47793  10.375   2.114   9.595 -0.2283  0.0631  0.1950
  355MOL0     C47794  10.387   1.972   9.596 -0.4806 -0.3922  0.2254
  355MOL0     C47795  10.448   1.904   9.494  0.0175  0.0435  0.1276
  355MOL0     C47796  10.467   1.766   9.501  0.0900 -0.0580 -0.2240
  355MOL0     C47797  10.416   1.692   9.611 -0.3289 -1.0041 -0.5930
  355MOL0     O47798  10.410   1.560   9.590 -0.8841 -0.5877  0.0794
  355MOL0     C47799  10.307   1.475   9.645 -1.5040 -0.1357  0.7518
  355MOL0     C47800  10.375   1.333   9.644 -0.2883  0.8499 -0.0412
  355MOL0     C47801  10.299   1.236   9.731 -0.7375 -0.2255 -0.0637
  355MOL0     C47802  10.356   1.095   9.742 -0.6110 -0.2346  0.3183
  355MOL0     C47803  10.455   1.081   9.854  0.0930 -0.0955  1.0251
  355MOL0     C47804  10.508   0.936   9.840  0.3897  0.3915 -0.1445
  355MOL0     C47805  10.640   0.915   9.913 -0.8543  0.5335 -0.9649
  355MOL0     C47806  10.698   0.778   9.880 -0.2609 -0.1298 -0.8307
  355MOL0     N47807  10.618   0.656   9.918  0.7109 -0.3478 -0.5467
  355MOL0     C47808  10.579   0.553   9.837  0.7135  0.2349  0.2610
  355MOL0     C47809  10.497   0.483   9.922  0.4343 -0.6326  0.1966
  355MOL0     C47810  10.417   0.368   9.867  0.3869 -1.1192  0.4958
  355MOL0     C47811  10.513   0.262   9.823 -0.4978  0.3480  1.1258
  355MOL0     C47812  10.575   0.185   9.941  0.3672 -0.2504  0.6670
  355MOL0     C47813  10.714   0.235   9.958 -0.3814 -0.6903 -0.0633
  355MOL0     O47814  10.807   0.137  10.018  0.9434  0.5286  0.4325
  355MOL0     C47815  10.937   0.133   9.969 -0.9930  0.5323 -0.0756
  355MOL0     C47816  11.043   0.155  10.064 -0.0360 -1.1018 -0.1011
  355MOL0     C47817  11.177   0.134  10.032 -0.5655  0.8105 -0.7273
  355MOL0     C47818  11.209   0.076   9.910 -0.3910  1.0410 -0.4935
  355MOL0     C47819  11.345   0.025   9.888 -0.6885 -0.5878 -1.0559
  355MOL0     O47820  11.396   0.045   9.761 -0.3125 -0.2927  0.6332
  355MOL0     C47821  11.491  -0.041   9.710 -0.1116  0.7163  0.7147
  355MOL0     C47822  11.596   0.023   9.635  0.5933 -0.5992  0.4153
  355MOL0     C47823  11.708  -0.038   9.588  0.3938 -0.9861 -0.3567
  355MOL0     C47824  11.711  -0.182   9.603 -0.4252 -0.4885 -0.6632
  355MOL0     O47825  11.817  -0.270   9.568 -0.0483  0.0823  0.0867
  355MOL0     C47826  11.932  -0.208   9.514 -0.7655 -0.1664 -0.0882
  355MOL0     C47827  12.028  -0.176   9.625  0.1999  0.5759  0.3694
  355MOL0     C47828  12.167  -0.138   9.583 -0.5223  0.1687  0.9197
  355MOL0     C47829  12.241  -0.109   9.711 -0.0324  0.7828  0.0841
  355MOL0     C47830  12.205   0.040   9.756  0.5267 -0.0292  0.1043
  355MOL0     C47831  12.307   0.100   9.860  0.1365  0.2364 -0.0727
  355MOL0     C47832  12.275   0.245   9.880 -0.6194  0.0289 -0.0911
  355MOL0     C47833  12.370   0.326   9.966 -0.4918  0.2232  0.0711
  355MOL0    Cl47834  12.325   0.504   9.981 -0.1525 -0.3161  0.1026
  355MOL0     C47835  11.614  -0.254   9.679 -0.1045  0.3010  0.5165
  355MOL0     C47836  11.501  -0.186   9.729  0.1272 -0.5994  0.4391
  355MOL0     O47837  11.403  -0.032   9.986 -0.6313 -0.8986  0.3922
  355MOL0     C47838  11.113   0.060   9.813  0.7540 -0.5414  0.8266
  355MOL0     C47839  10.970   0.087   9.843 -0.3536 -0.5345 -0.2696
  355MOL0     N47840  10.478   0.548  10.047  0.0468  0.4631 -0.3425
  355MOL0     N47841  10.561   0.645  10.040  0.5405  0.2467  0.4762
  355MOL0     C47842  10.374   1.762   9.721  0.1864 -0.2648 -0.0944
  355MOL0     C47843  10.352   1.906   9.709  1.1201 -0.0512 -0.1006
  355MOL0     C47844  10.363   2.317   9.462 -0.3057  0.2741  0.4896
  355MOL0     C47845  10.423   2.389   9.564  0.6844  0.2553  0.3096
  355MOL0     C47846  10.468   2.528   9.559  0.3076  0.2905  0.1507
  355MOL0     C47847  10.459   2.589   9.435 -0.5929  0.7277 -0.2050
  355MOL0     O47848  10.512   2.716   9.430  0.5671  0.0351  0.5028
  355MOL0     C47849  10.416   2.820   9.419 -0.2419  0.0077  0.1619
  355MOL0     C47850  10.323   2.835   9.532  0.4480  0.5763 -0.0869
  355MOL0     C47851  10.388   2.858   9.670 -0.2904 -1.1031 -0.6667
  355MOL0     C47852  10.292   2.898   9.782  0.5095  0.1828  0.4395
  355MOL0     C47853  10.342   2.877   9.918  0.3580 -0.7998 -0.0273
  355MOL0     C47854  10.368   2.847  10.027  1.0418 -0.1791  0.2551
  355MOL0     C47855  10.413   2.513   9.324 -0.1696 -0.8712  0.1992
  355MOL0     C47856  10.364   2.378   9.335  0.1808 -0.3703 -0.4445
  355MOL0     C47857  10.336   2.314   9.200  0.5221  0.6103 -0.1254
  355MOL0     H47858  10.478   1.952   9.401  0.2486  0.5340  0.4552
  355MOL0     H47859  10.513   1.722   9.412  3.7372 -0.8945  1.8502
  355MOL0     H47860  10.284   1.513   9.745  0.3612 -0.0047  1.1523
  355MOL0     H47861  10.219   1.482   9.579  0.0356 -0.7688 -1.4767
  355MOL0     H47862  10.481   1.340   9.673 -0.2118  0.9757 -0.3403
  355MOL0     H47863  10.367   1.290   9.544 -5.0098 -1.7918  1.2002
  355MOL0     H47864  10.196   1.223   9.697 -0.7761  1.1470 -0.5115
  355MOL0     H47865  10.278   1.279   9.830  1.3772  1.8312 -0.4238
  355MOL0     H47866  10.271   1.031   9.766  1.3367 -3.4455 -0.7082
  355MOL0     H47867  10.389   1.054   9.646  0.9020  1.5826  0.0078
  355MOL0     H47868  10.539   1.149   9.839  0.7507 -1.3998 -2.1640
  355MOL0     H47869  10.399   1.084   9.947  1.4340 -1.7973  1.9494
  355MOL0     H47870  10.431   0.877   9.890 -0.9398  4.0033  2.5497
  355MOL0     H47871  10.518   0.894   9.740  1.6002  0.4770 -0.0782
  355MOL0     H47872  10.622   0.927  10.020 -0.1749 -1.6132 -0.5515
  355MOL0     H47873  10.710   0.992   9.880  0.2357 -0.0597 -0.0881
  355MOL0     H47874  10.723   0.777   9.773  0.9746 -0.3489 -0.5501
  355MOL0     H47875  10.794   0.771   9.931 -0.2859 -2.4105 -1.0170
  355MOL0     H47876  10.609   0.548   9.732 -0.2813  0.9665 -0.0767
  355MOL0     H47877  10.353   0.343   9.952 -0.7784  2.8179  0.9974
  355MOL0     H47878  10.353   0.401   9.785  0.4049 -2.4534 -0.0721
  355MOL0     H47879  10.458   0.186   9.767 -1.2764 -0.3359  2.7626
  355MOL0     H47880  10.586   0.300   9.751 -0.1072 -1.1653  0.6655
  355MOL0     H47881  10.580   0.078   9.918  2.6198 -0.5963  2.4144
  355MOL0     H47882  10.520   0.197  10.035  0.3050  0.4847  0.5411
  355MOL0     H47883  10.718   0.322  10.024 -3.1797 -1.3394  1.1073
  355MOL0     H47884  10.759   0.264   9.863 -3.5721  0.5544 -1.3321
  355MOL0     H47885  11.017   0.178  10.167  0.4393  3.3873 -0.7754
  355MOL0     H47886  11.256   0.151  10.104 -1.0955 -2.9609  0.9797
  355MOL0     H47887  11.587   0.131   9.626  4.5323 -0.0842  0.6123
  355MOL0     H47888  11.777   0.023   9.532 -1.2407  1.3859  0.0755
  355MOL0     H47889  11.985  -0.272   9.442 -2.3069 -0.6702 -0.8025
  355MOL0     H47890  11.920  -0.116   9.456  3.9378  1.0211  0.3380
  355MOL0     H47891  11.985  -0.085   9.668  1.2777  1.4995 -0.4248
  355MOL0     H47892  12.034  -0.262   9.692 -2.4001 -0.4108 -0.5655
  355MOL0     H47893  12.231  -0.210   9.531  1.4181  2.2106  0.2986
  355MOL0     H47894  12.159  -0.051   9.517 -3.8311 -1.7210 -1.4467
  355MOL0     H47895  12.347  -0.112   9.684  0.5440 -2.4781  2.1405
  355MOL0     H47896  12.218  -0.189   9.782  1.5688  1.0657  0.9635
  355MOL0     H47897  12.103   0.047   9.796 -1.0318 -1.6577 -3.2451
  355MOL0     H47898  12.211   0.104   9.668  1.7414  1.3441  1.1308
  355MOL0     H47899  12.283   0.048   9.954 -1.2086 -0.0621 -0.5628
  355MOL0     H47900  12.411   0.077   9.836  0.3314  0.0880  0.8902
  355MOL0     H47901  12.180   0.268   9.930 -1.6226  3.3686 -3.1198
  355MOL0     H47902  12.267   0.289   9.780  0.5731  4.4845  1.5550
  355MOL0     H47903  12.367   0.294  10.070 -1.7610  1.5786  0.4779
  355MOL0     H47904  12.473   0.315   9.929 -0.5845  0.5979 -0.3103
  355MOL0     H47905  11.635  -0.360   9.695 -1.4926 -0.5374 -2.4477
  355MOL0     H47906  11.420  -0.237   9.780 -0.8395  0.2524 -0.1916
  355MOL0     H47907  11.128   0.017   9.715 -1.1300  1.4059 -0.3897
  355MOL0     H47908  10.901   0.074   9.761  1.9589 -0.7972 -2.2943
  355MOL0     H47909  10.325   1.712   9.804 -0.2314 -0.0935 -0.2357
  355MOL0     H47910  10.299   1.967   9.781 -5.3360  1.0584 -4.9013
  355MOL0     H47911  10.437   2.349   9.665  0.8668  1.7742  0.9053
  355MOL0     H47912  10.519   2.583   9.637  2.8281 -1.0053 -0.4679
  355MOL0     H47913  10.354   2.785   9.336  1.8338 -0.6585 -1.1997
  355MOL0     H47914  10.467   2.911   9.386  0.0049  0.5929  2.0405
  355MOL0     H47915  10.263   2.744   9.548  0.0596  0.9525  0.6659
  355MOL0     H47916  10.252   2.914   9.507  0.8446  0.7571 -0.6434
  355MOL0     H47917  10.451   2.947   9.658 -2.3267  1.1423  3.4288
  355MOL0     H47918  10.449   2.771   9.697  3.9598  1.6083 -0.6496
  355MOL0     H47919  10.253   2.998   9.761 -1.6284 -0.6038  0.4090
  355MOL0     H47920  10.205   2.832   9.777  0.0160  0.8829 -0.3462
  355MOL0     H47921  10.386   2.811  10.126 -1.2514 -1.5961  0.2345
  355MOL0     H47922  10.418   2.565   9.229 -0.3441 -0.8384  0.2077
  355MOL0     H47923  10.367   2.366   9.109 -1.2344 -0.3614 -1.3599
  355MOL0     H47924  10.399   2.224   9.197  2.2145  1.7635 -0.6195
  355MOL0     H47925  10.228   2.303   9.184  0.3214 -2.5343  2.3454
  356MOL0     O47926   4.295   6.445   3.508 -0.2246 -0.3304 -0.2444
  356MOL0     C47927   4.288   6.367   3.603  1.4913 -0.1325 -0.1145
  356MOL0     O47928   4.173   6.336   3.672 -0.0884 -0.2897 -0.4637
  356MOL0     C47929   4.059   6.412   3.653 -0.1869  0.4139  0.6982
  356MOL0     C47930   3.987   6.461   3.759  0.0462 -0.0530 -0.1621
  356MOL0     C47931   3.860   6.509   3.745  0.6720 -0.4902 -0.0323
  356MOL0     C47932   3.810   6.514   3.612  0.9043  0.1962 -0.2485
  356MOL0     O47933   3.674   6.545   3.608 -0.3349 -0.0204  0.0626
  356MOL0     C47934   3.602   6.572   3.488  0.2227  0.4244  0.1502
  356MOL0     C47935   3.625   6.707   3.435  0.5424  0.2393  0.3521
  356MOL0     C47936   3.512   6.760   3.359  0.1320  0.5811  0.4352
  356MOL0     C47937   3.472   6.681   3.235  0.0046  0.2076  0.7474
  356MOL0     C47938   3.340   6.732   3.171  0.0984 -0.7004  0.4493
  356MOL0     C47939   3.300   6.688   3.035  0.0666  1.7058  0.5321
  356MOL0     C47940   3.265   6.538   3.035 -0.5118  0.9787  0.3717
  356MOL0     C47941   3.385   6.464   2.992  0.5963  0.7142  0.2359
  356MOL0     N47942   3.332   6.327   2.966 -0.9785  0.0597  0.9376
  356MOL0     C47943   3.368   6.211   3.027  0.2497 -0.5010  0.6770
  356MOL0     C47944   3.328   6.116   2.944  0.8017 -0.1430 -0.7658
  356MOL0     C47945   3.322   5.970   2.993 -0.2288 -1.2950  0.2334
  356MOL0     C47946   3.192   5.909   3.034  0.3337 -0.2395  0.1075
  356MOL0     C47947   3.179   5.757   3.041 -0.2230 -0.2338 -0.3905
  356MOL0     C47948   3.196   5.694   2.897 -0.1118 -0.6645 -0.5758
  356MOL0     O47949   3.106   5.586   2.898  0.6500  0.0249 -0.5137
  356MOL0     C47950   3.085   5.511   2.781  0.3142 -0.5236  0.2216
  356MOL0     C47951   3.164   5.514   2.664 -0.5471 -0.1066  0.4166
  356MOL0     C47952   3.124   5.448   2.548 -0.4977 -0.2373  0.0707
  356MOL0     C47953   3.000   5.382   2.540 -0.0493 -0.2013 -0.4603
  356MOL0     C47954   2.963   5.323   2.413 -0.1080  0.0281  0.9234
  356MOL0     O47955   3.037   5.348   2.299  0.4374  0.2549 -0.6104
  356MOL0     C47956   2.968   5.344   2.186  1.0279 -0.0907 -0.3277
  356MOL0     C47957   2.828   5.370   2.187 -0.1956  0.7378 -0.8272
  356MOL0     C47958   2.757   5.372   2.066 -0.1155 -0.2751  0.3618
  356MOL0     C47959   2.832   5.345   1.945 -0.2021 -0.8551 -0.8402
  356MOL0     O47960   2.760   5.358   1.834 -0.3694  1.1839 -0.1313
  356MOL0     C47961   2.659   5.269   1.819  1.0145 -0.6392  0.6867
  356MOL0     C47962   2.565   5.332   1.714  0.5513 -0.6484  0.4716
  356MOL0     C47963   2.507   5.465   1.756  0.3878  0.1400 -1.0612
  356MOL0     C47964   2.397   5.529   1.667 -0.0312 -0.5172 -0.3775
  356MOL0     C47965   2.302   5.424   1.579 -0.0286  0.2339 -0.0746
  356MOL0     C47966   2.179   5.498   1.524  0.7109 -0.1314  0.6915
  356MOL0     C47967   2.116   5.410   1.403  0.6037  0.1670 -0.5654
  356MOL0     C47968   1.976   5.468   1.346 -1.5824  0.9099 -0.6627
  356MOL0    Cl47969   1.828   5.495   1.452 -0.3252 -0.6896 -0.2874
  356MOL0     C47970   2.967   5.328   1.945  0.1957  0.0135 -0.0971
  356MOL0     C47971   3.042   5.328   2.063  0.2715  0.1618 -0.0897
  356MOL0     O47972   2.871   5.245   2.423  0.1694 -0.1691  0.2500
  356MOL0     C47973   2.914   5.380   2.653 -0.2079  0.0706 -0.2539
  356MOL0     C47974   2.958   5.452   2.769 -1.1118 -0.7636 -0.2912
  356MOL0     N47975   3.263   6.176   2.835  0.0261  0.6740 -0.1403
  356MOL0     N47976   3.267   6.296   2.857  0.2416 -0.6305  1.1798
  356MOL0     C47977   3.875   6.459   3.500  0.3831 -0.1354  0.0387
  356MOL0     C47978   3.998   6.407   3.527 -0.0556  0.4243  0.0423
  356MOL0     C47979   4.410   6.288   3.627  0.0547  0.4810 -0.1351
  356MOL0     C47980   4.476   6.230   3.511  0.2931  0.3470 -1.1208
  356MOL0     C47981   4.589   6.158   3.532  0.5290 -1.1269  0.6355
  356MOL0     C47982   4.640   6.131   3.656  0.2780  0.1601 -0.2422
  356MOL0     O47983   4.761   6.076   3.673 -0.6364 -0.2546 -0.0824
  356MOL0     C47984   4.874   6.182   3.697  0.2563  0.5577 -0.2009
  356MOL0     C47985   4.906   6.265   3.583  0.0391 -0.6477  0.1256
  356MOL0     C47986   4.972   6.186   3.479 -0.5872  0.1321  0.9705
  356MOL0     C47987   4.996   6.267   3.352 -0.1847  0.1204  1.0089
  356MOL0     C47988   4.873   6.319   3.296  0.3903  0.5082  0.4348
  356MOL0     C47989   4.766   6.363   3.261 -0.2350 -0.2331 -0.1600
  356MOL0     C47990   4.580   6.191   3.767  0.3400  0.1484 -0.0684
  356MOL0     C47991   4.462   6.267   3.750  0.4330  0.0151 -0.9939
  356MOL0     C47992   4.406   6.339   3.878  1.0280  0.2395  0.5768
  356MOL0     H47993   4.043   6.458   3.852  2.1456  0.0904 -1.3590
  356MOL0     H47994   3.790   6.540   3.821 -0.4806 -0.8799 -0.9148
  356MOL0     H47995   3.628   6.505   3.406 -1.3896  0.9816 -0.8688
  356MOL0     H47996   3.496   6.564   3.514  0.3318 -1.6739  0.0819
  356MOL0     H47997   3.722   6.704   3.385  1.7156  0.8800  2.4895
  356MOL0     H47998   3.624   6.769   3.525 -3.7355 -1.2889  1.6185
  356MOL0     H47999   3.550   6.858   3.329  3.1838  0.0168  2.0690
  356MOL0     H48000   3.428   6.779   3.426  0.0440  2.1752 -0.0822
  356MOL0     H48001   3.549   6.695   3.158 -0.5498  1.7219  0.4358
  356MOL0     H48002   3.452   6.576   3.256 -0.5963  0.4333  1.3262
  356MOL0     H48003   3.260   6.702   3.238  0.0632  1.5891  1.5103
  356MOL0     H48004   3.347   6.841   3.163  2.0856 -0.8630 -0.9237
  356MOL0     H48005   3.209   6.745   3.014 -2.0193 -0.4707  2.9594
  356MOL0     H48006   3.372   6.721   2.960  0.3206  0.7670  0.3473
  356MOL0     H48007   3.185   6.524   2.962  0.7640  0.6409 -1.0101
  356MOL0     H48008   3.238   6.506   3.136  1.6215  3.2395  1.7524
  356MOL0     H48009   3.430   6.502   2.900  0.4821  1.2799  0.4159
  356MOL0     H48010   3.456   6.470   3.074  0.3428 -0.3046  0.5505
  356MOL0     H48011   3.413   6.190   3.124 -3.6508 -0.2050  2.7729
  356MOL0     H48012   3.355   5.907   2.909 -1.5888 -0.9059 -0.6280
  356MOL0     H48013   3.401   5.968   3.068  1.0382  1.2101 -0.9089
  356MOL0     H48014   3.194   5.944   3.138  2.0999 -0.4334  0.1608
  356MOL0     H48015   3.104   5.951   2.984 -1.2702 -2.2317  1.0752
  356MOL0     H48016   3.085   5.727   3.089  0.2499 -0.7107  0.2602
  356MOL0     H48017   3.262   5.728   3.106  0.4042 -1.4896 -1.6959
  356MOL0     H48018   3.304   5.679   2.881  0.0584  0.5177 -0.6237
  356MOL0     H48019   3.156   5.769   2.829  1.7426 -0.5351 -1.6070
  356MOL0     H48020   3.261   5.564   2.668  0.3821 -1.6063 -1.4722
  356MOL0     H48021   3.193   5.441   2.464 -0.1157  2.1725  0.1314
  356MOL0     H48022   2.771   5.397   2.275  1.9841  1.9110  0.2886
  356MOL0     H48023   2.649   5.381   2.054  0.0431 -1.6749 -4.7392
  356MOL0     H48024   2.692   5.171   1.784  2.7187  0.1524 -0.0519
  356MOL0     H48025   2.591   5.258   1.905 -0.5750  1.0686 -0.2710
  356MOL0     H48026   2.607   5.339   1.614 -0.1233  1.7756  0.2769
  356MOL0     H48027   2.481   5.261   1.710 -1.9898  1.9380  2.8221
  356MOL0     H48028   2.466   5.454   1.857 -1.3237  0.5658 -1.6692
  356MOL0     H48029   2.588   5.533   1.783  0.2650 -1.4078  4.5921
  356MOL0     H48030   2.448   5.595   1.596 -0.8209 -0.9763 -1.3925
  356MOL0     H48031   2.329   5.586   1.731 -0.9455 -3.0207  1.0146
  356MOL0     H48032   2.260   5.341   1.636  1.9292 -0.6701  0.1266
  356MOL0     H48033   2.371   5.395   1.500  2.1288 -1.7422  2.3436
  356MOL0     H48034   2.097   5.514   1.595  0.3266 -0.8997  0.4264
  356MOL0     H48035   2.199   5.589   1.467 -3.0388  0.1426 -0.5047
  356MOL0     H48036   2.105   5.305   1.430 -0.3144  0.0447 -1.3283
  356MOL0     H48037   2.191   5.408   1.324 -1.1672 -2.5344 -2.3542
  356MOL0     H48038   1.990   5.561   1.290  0.4906  0.6459 -0.6696
  356MOL0     H48039   1.946   5.384   1.283  1.3585 -0.6886 -0.1118
  356MOL0     H48040   3.015   5.308   1.849 -1.7443  3.1128 -1.8845
  356MOL0     H48041   3.150   5.330   2.065  0.3279  1.7708 -1.7577
  356MOL0     H48042   2.816   5.334   2.654 -1.7536  3.0238  1.7753
  356MOL0     H48043   2.897   5.473   2.856 -1.8418  0.8817 -1.1619
  356MOL0     H48044   3.828   6.465   3.402 -1.2825  0.1763  0.8254
  356MOL0     H48045   4.057   6.369   3.444 -1.2082  1.7469 -1.4514
  356MOL0     H48046   4.448   6.248   3.408 -0.1120 -1.1008 -1.2846
  356MOL0     H48047   4.640   6.113   3.448  0.6907  2.2290 -1.2583
  356MOL0     H48048   4.960   6.121   3.725  1.2408  1.6089 -0.8225
  356MOL0     H48049   4.841   6.249   3.777 -3.1051 -0.2537 -0.7574
  356MOL0     H48050   4.974   6.346   3.612  3.1429 -2.5585 -1.3324
  356MOL0     H48051   4.812   6.315   3.555  0.5611  0.8552  0.9412
  356MOL0     H48052   4.911   6.099   3.453 -0.3422  0.6210 -1.4719
  356MOL0     H48053   5.073   6.157   3.509 -0.5138 -0.8743 -0.1672
  356MOL0     H48054   5.041   6.364   3.376  1.8633 -0.3452 -0.6026
  356MOL0     H48055   5.061   6.218   3.279 -0.8989 -2.1242  1.7969
  356MOL0     H48056   4.685   6.413   3.212  1.8645  0.5720 -3.0141
  356MOL0     H48057   4.617   6.184   3.869 -0.8229  2.5283  0.5699
  356MOL0     H48058   4.306   6.301   3.900  0.3804  1.1031 -0.7036
  356MOL0     H48059   4.472   6.331   3.964 -0.8006 -0.3707  1.9994
  356MOL0     H48060   4.387   6.445   3.858 -1.4408 -0.2234  0.1614
  357MOL0     O48061   2.216   3.814   2.717  0.4218 -0.1762 -0.1964
  357MOL0     C48062   2.208   3.710   2.660  0.4369  0.2889  0.3469
  357MOL0     O48063   2.295   3.670   2.555 -0.3898 -0.4683 -0.3066
  357MOL0     C48064   2.413   3.741   2.535 -0.7558 -0.2439 -0.0648
  357MOL0     C48065   2.526   3.677   2.578  0.2478 -0.0667 -0.8758
  357MOL0     C48066   2.652   3.725   2.543  0.1926 -1.0790 -0.1900
  357MOL0     C48067   2.657   3.828   2.449  0.1106  0.0365  0.2337
  357MOL0     O48068   2.785   3.873   2.399 -0.4721 -0.0910 -0.1165
  357MOL0     C48069   2.907   3.792   2.406 -0.0194 -0.1339 -0.4600
  357MOL0     C48070   2.910   3.673   2.306 -0.0682  0.0999  0.2111
  357MOL0     C48071   2.880   3.720   2.158 -0.4972  0.0948  0.4560
  357MOL0     C48072   2.954   3.845   2.107  0.3817 -0.1813 -0.1704
  357MOL0     C48073   2.906   3.911   1.975  0.2337  0.1175 -0.8711
  357MOL0     C48074   2.985   4.030   1.930 -0.5157  0.2002 -0.4518
  357MOL0     C48075   2.979   4.040   1.771  0.0755 -0.3715 -0.3826
  357MOL0     C48076   2.833   4.072   1.727 -0.1019 -0.3381 -1.0202
  357MOL0     N48077   2.818   4.201   1.663 -0.6049 -0.0978  0.2086
  357MOL0     C48078   2.803   4.216   1.527  0.6370 -0.5148 -0.5274
  357MOL0     C48079   2.781   4.353   1.511 -0.5581 -0.4771  0.4017
  357MOL0     C48080   2.764   4.435   1.383 -0.7259 -0.0837  0.6808
  357MOL0     C48081   2.641   4.411   1.307  0.6154  0.1164  0.6675
  357MOL0     C48082   2.625   4.517   1.194 -0.0669  0.7623 -0.2253
  357MOL0     C48083   2.487   4.498   1.130  0.0226 -0.2184 -0.2386
  357MOL0     O48084   2.386   4.586   1.195  0.1514  0.5028 -0.2859
  357MOL0     C48085   2.266   4.574   1.138  1.0998  0.8325 -0.3822
  357MOL0     C48086   2.165   4.489   1.186  0.5174 -0.7708 -0.4321
  357MOL0     C48087   2.054   4.473   1.109  0.4256 -0.0314 -0.2601
  357MOL0     C48088   2.025   4.552   0.993 -0.1690  0.0383 -0.3438
  357MOL0     C48089   1.907   4.530   0.912  0.2437 -0.0087  0.4479
  357MOL0     O48090   1.829   4.418   0.943 -0.0683 -0.5612  0.0604
  357MOL0     C48091   1.728   4.360   0.871  0.9975  0.8887 -0.1159
  357MOL0     C48092   1.671   4.397   0.744  0.0493 -0.3298 -0.0246
  357MOL0     C48093   1.552   4.337   0.698  0.7352  0.1241  1.0950
  357MOL0     C48094   1.497   4.226   0.757  0.0573  0.9922  0.1087
  357MOL0     O48095   1.394   4.165   0.690 -0.0094  0.3291  0.1066
  357MOL0     C48096   1.355   4.040   0.747 -0.5950  0.3966 -0.5714
  357MOL0     C48097   1.235   4.006   0.663  0.1175  0.3846 -0.4464
  357MOL0     C48098   1.248   3.984   0.513  0.5863 -0.0907 -0.1093
  357MOL0     C48099   1.336   3.858   0.482 -1.2762  0.2822  0.2566
  357MOL0     C48100   1.375   3.871   0.331 -0.2322 -0.1794  0.9827
  357MOL0     C48101   1.462   3.765   0.286 -0.1856  0.5344 -0.0316
  357MOL0     C48102   1.609   3.792   0.323  0.1520 -0.6076 -0.2891
  357MOL0     C48103   1.699   3.674   0.297  0.2429 -0.4932  0.3526
  357MOL0    Cl48104   1.671   3.597   0.145  0.4313  0.1595  0.0089
  357MOL0     C48105   1.566   4.177   0.875  0.8766  0.4636 -0.0421
  357MOL0     C48106   1.668   4.246   0.934  0.2092  0.3186 -0.8482
  357MOL0     O48107   1.892   4.604   0.812 -0.3393 -0.4965 -0.5367
  357MOL0     C48108   2.127   4.637   0.952  0.1659  0.5944 -0.2185
  357MOL0     C48109   2.251   4.644   1.025 -0.6735 -0.7804 -0.6159
  357MOL0     N48110   2.774   4.402   1.637  0.8874  0.0310 -1.3352
  357MOL0     N48111   2.802   4.320   1.723 -0.5296 -0.3630  0.1775
  357MOL0     C48112   2.544   3.888   2.400  0.2810 -1.1149 -0.1105
  357MOL0     C48113   2.420   3.844   2.440 -0.7233 -0.4854  1.1911
  357MOL0     C48114   2.085   3.622   2.681 -0.9845 -0.4893 -0.9742
  357MOL0     C48115   1.969   3.703   2.705  0.2673  0.4164 -0.0047
  357MOL0     C48116   1.848   3.644   2.696  0.6324  0.5586  0.8874
  357MOL0     C48117   1.830   3.505   2.685  0.5993  0.4367 -0.5324
  357MOL0     O48118   1.700   3.465   2.692 -0.5364 -0.6075 -0.1119
  357MOL0     C48119   1.651   3.386   2.576 -0.6479 -1.4403 -0.3100
  357MOL0     C48120   1.665   3.234   2.606 -0.4461 -0.1666 -0.0105
  357MOL0     C48121   1.554   3.143   2.561  1.3687 -0.0874 -0.7559
  357MOL0     C48122   1.427   3.166   2.647  0.1393 -0.7321  0.0348
  357MOL0     C48123   1.305   3.104   2.585 -0.1209  0.2647  0.8961
  357MOL0     C48124   1.201   3.044   2.550 -0.3098 -0.9980  0.0813
  357MOL0     C48125   1.941   3.421   2.663 -0.2311  0.0270  0.5848
  357MOL0     C48126   2.068   3.479   2.664 -0.3233  0.1310  0.2878
  357MOL0     C48127   2.195   3.400   2.658  0.3854 -0.3929  0.3789
  357MOL0     H48128   2.529   3.591   2.644 -3.5863  0.2154 -0.0919
  357MOL0     H48129   2.738   3.664   2.568  1.0383 -0.7269 -2.0491
  357MOL0     H48130   3.000   3.846   2.389 -1.4761  2.9509  0.5491
  357MOL0     H48131   2.915   3.750   2.507  2.0542 -1.8780 -1.2715
  357MOL0     H48132   2.837   3.594   2.325  0.4514 -0.8727 -1.6002
  357MOL0     H48133   3.013   3.636   2.311 -0.5070 -1.1806  0.0898
  357MOL0     H48134   2.776   3.743   2.133  0.7306  3.0471 -2.7982
  357MOL0     H48135   2.904   3.643   2.084  1.7090  0.9147  0.2589
  357MOL0     H48136   2.958   3.920   2.187  1.4716 -1.4662  1.0324
  357MOL0     H48137   3.057   3.808   2.109  1.0191  1.4414  2.3835
  357MOL0     H48138   2.906   3.839   1.892  0.3552  2.4195 -2.9964
  357MOL0     H48139   2.801   3.943   1.986  0.1457 -0.5401  0.3263
  357MOL0     H48140   2.954   4.124   1.976 -0.9448 -1.2397  2.4394
  357MOL0     H48141   3.088   4.014   1.963  0.6281  3.1484 -2.2357
  357MOL0     H48142   3.001   3.946   1.720  1.5737  0.3368 -1.0955
  357MOL0     H48143   3.050   4.116   1.736 -2.0350  2.3667  0.8825
  357MOL0     H48144   2.809   3.997   1.651 -1.0537 -1.8638  0.7055
  357MOL0     H48145   2.764   4.063   1.812  3.0312  1.1933  1.9513
  357MOL0     H48146   2.817   4.130   1.461  3.8189  0.0214 -0.7184
  357MOL0     H48147   2.768   4.541   1.408 -1.6320 -0.2188  1.4690
  357MOL0     H48148   2.849   4.432   1.315 -0.5594  3.2374  0.5897
  357MOL0     H48149   2.643   4.313   1.259  0.2968 -0.3498  1.5706
  357MOL0     H48150   2.549   4.420   1.366  0.0882  4.2019 -0.4388
  357MOL0     H48151   2.710   4.504   1.125  2.2464 -0.4663  2.6526
  357MOL0     H48152   2.630   4.617   1.238  1.3740 -0.5918  2.9611
  357MOL0     H48153   2.456   4.394   1.135  3.6078 -1.3869  1.0204
  357MOL0     H48154   2.499   4.532   1.027 -0.3054 -0.0808 -0.2341
  357MOL0     H48155   2.187   4.440   1.281 -1.8997  0.6834  0.9958
  357MOL0     H48156   1.976   4.408   1.147  1.9896  0.0330  3.4012
  357MOL0     H48157   1.706   4.483   0.688 -1.7443  1.3228  1.2573
  357MOL0     H48158   1.523   4.378   0.602 -1.1071 -0.6177  1.2920
  357MOL0     H48159   1.428   3.959   0.735 -2.5922 -1.8966  1.7155
  357MOL0     H48160   1.313   4.051   0.847 -1.3060  0.2079 -0.8420
  357MOL0     H48161   1.206   3.904   0.691  2.3667 -0.2692 -0.3179
  357MOL0     H48162   1.158   4.077   0.694  3.1500  2.3446  3.6799
  357MOL0     H48163   1.145   3.992   0.477 -1.3728  3.2967  5.0612
  357MOL0     H48164   1.296   4.072   0.471  3.0416 -2.2163 -2.0961
  357MOL0     H48165   1.272   3.772   0.504 -0.0921 -0.2239  1.9850
  357MOL0     H48166   1.432   3.849   0.534  1.0794  0.5693 -3.6438
  357MOL0     H48167   1.417   3.971   0.314  2.5549 -1.1696  1.4871
  357MOL0     H48168   1.282   3.864   0.274 -0.9190 -1.4068  2.2176
  357MOL0     H48169   1.434   3.673   0.338 -1.1004  0.6802 -0.2456
  357MOL0     H48170   1.440   3.747   0.180  1.2980 -0.1588 -0.2408
  357MOL0     H48171   1.627   3.835   0.422 -0.8460  1.4536 -0.9322
  357MOL0     H48172   1.640   3.868   0.251  0.1667 -1.5179 -1.2696
  357MOL0     H48173   1.802   3.712   0.299 -0.3521  1.1872  0.8050
  357MOL0     H48174   1.694   3.599   0.377  1.4429 -1.2480 -0.2431
  357MOL0     H48175   1.533   4.085   0.921 -0.5730  0.8832 -0.1888
  357MOL0     H48176   1.712   4.199   1.022  0.3251  1.0335 -0.5106
  357MOL0     H48177   2.125   4.689   0.857  0.0345  0.7831 -0.1132
  357MOL0     H48178   2.334   4.702   0.984 -1.5928 -0.1728 -1.6674
  357MOL0     H48179   2.552   3.954   2.314 -0.5419  2.7029  2.4868
  357MOL0     H48180   2.329   3.876   2.391  0.1671 -1.0918 -0.9761
  357MOL0     H48181   1.959   3.811   2.715  3.3613  0.6233  2.6337
  357MOL0     H48182   1.754   3.697   2.708  0.5577  0.7673 -0.4900
  357MOL0     H48183   1.718   3.416   2.495 -2.5323  3.6771 -0.3615
  357MOL0     H48184   1.545   3.407   2.558 -0.4437 -1.6897 -1.9589
  357MOL0     H48185   1.679   3.210   2.712 -0.7215 -0.4336 -0.0316
  357MOL0     H48186   1.756   3.200   2.556 -0.0078  0.9291  0.0169
  357MOL0     H48187   1.585   3.041   2.585  1.4814  0.2362  0.5498
  357MOL0     H48188   1.521   3.149   2.457 -3.3703 -0.3379  0.4755
  357MOL0     H48189   1.431   3.139   2.753  3.5039  1.3559  0.5906
  357MOL0     H48190   1.416   3.275   2.654 -0.4330 -0.6451 -1.7073
  357MOL0     H48191   1.109   3.001   2.515  0.1164 -0.4472 -1.8828
  357MOL0     H48192   1.935   3.313   2.649  1.9814 -0.1429  0.5970
  357MOL0     H48193   2.187   3.300   2.703  2.4387 -1.4032 -1.3025
  357MOL0     H48194   2.233   3.379   2.557 -2.0938 -0.6953 -0.5699
  357MOL0     H48195   2.269   3.456   2.715 -0.3755  0.3038  0.6953
  358MOL0     O48196   5.430   2.023   6.868  0.2633 -0.3248  1.1021
  358MOL0     C48197   5.363   2.042   6.970 -0.3493  0.1307  0.5775
  358MOL0     O48198   5.364   2.153   7.045  0.5564  0.0119 -0.6985
  358MOL0     C48199   5.429   2.261   6.994  0.3039 -1.1322 -0.1658
  358MOL0     C48200   5.556   2.291   7.035 -0.2366  0.0594  0.3164
  358MOL0     C48201   5.623   2.396   6.972  0.2208  0.2594  0.5156
  358MOL0     C48202   5.571   2.473   6.873  0.1604  0.5491 -1.1985
  358MOL0     O48203   5.649   2.577   6.818 -0.4580 -0.0538 -0.2960
  358MOL0     C48204   5.593   2.677   6.744  0.0742 -0.4590 -0.6328
  358MOL0     C48205   5.578   2.660   6.595  0.1613  1.1518  0.3216
  358MOL0     C48206   5.702   2.667   6.506 -0.1576  0.4397  0.9277
  358MOL0     C48207   5.693   2.602   6.359  0.5624 -0.4350 -0.8302
  358MOL0     C48208   5.832   2.614   6.294 -0.9810 -1.2020 -0.7649
  358MOL0     C48209   5.918   2.486   6.300 -0.4931 -0.1573  0.3769
  358MOL0     C48210   6.061   2.501   6.253 -0.6654 -0.0245 -0.3230
  358MOL0     C48211   6.152   2.372   6.245  0.4344 -0.5164 -0.5446
  358MOL0     N48212   6.104   2.290   6.140 -0.1900  0.2475  0.6744
  358MOL0     C48213   6.115   2.329   6.007  0.4226 -0.2421  0.3504
  358MOL0     C48214   6.117   2.218   5.932 -0.0435 -0.2019  0.3312
  358MOL0     C48215   6.144   2.212   5.780 -0.0729  0.3834  0.0576
  358MOL0     C48216   6.015   2.206   5.706 -0.4714  0.0678  0.0213
  358MOL0     C48217   6.011   2.163   5.557  0.1603  0.0220  0.4055
  358MOL0     C48218   6.103   2.255   5.466  0.1316  0.0374  0.2638
  358MOL0     O48219   6.244   2.229   5.467 -0.0194  0.6741  0.0081
  358MOL0     C48220   6.317   2.211   5.349 -0.3369 -0.2223 -0.1615
  358MOL0     C48221   6.433   2.134   5.355 -0.5156 -0.9915  0.1538
  358MOL0     C48222   6.529   2.147   5.253 -0.3112  0.4783 -1.2689
  358MOL0     C48223   6.505   2.219   5.132 -1.1686 -0.6357  0.4800
  358MOL0     C48224   6.599   2.230   5.014  1.0932  0.7385  0.4998
  358MOL0     O48225   6.699   2.142   5.006  0.0911  0.5301 -0.3786
  358MOL0     C48226   6.770   2.135   4.893 -0.0210 -0.3996  0.5870
  358MOL0     C48227   6.853   2.237   4.851  0.6178 -0.6605 -1.0016
  358MOL0     C48228   6.949   2.232   4.747  0.8441  0.2840  0.1983
  358MOL0     C48229   6.954   2.118   4.669 -1.0227 -0.1904  1.7714
  358MOL0     O48230   7.037   2.120   4.561 -0.8056 -0.1166 -0.1201
  358MOL0     C48231   7.049   1.998   4.484 -0.8607 -0.2528  0.5416
  358MOL0     C48232   7.146   2.021   4.362 -0.3377  0.3693 -0.2850
  358MOL0     C48233   7.173   1.891   4.278  0.5085 -0.2183  0.4064
  358MOL0     C48234   7.317   1.891   4.219  0.7398  0.1867 -0.0283
  358MOL0     C48235   7.318   1.755   4.133  0.2462  0.7604 -0.3874
  358MOL0     C48236   7.442   1.744   4.046  0.1395  1.2008 -1.8065
  358MOL0     C48237   7.566   1.700   4.128 -0.2094  0.1703  1.0862
  358MOL0     C48238   7.679   1.635   4.047  0.4842  0.8954  0.7337
  358MOL0    Cl48239   7.652   1.488   3.952 -0.1604 -0.2235 -0.0883
  358MOL0     C48240   6.883   2.006   4.707  0.1711 -0.2655 -0.4668
  358MOL0     C48241   6.786   2.018   4.812 -0.3335  0.3592 -0.6192
  358MOL0     O48242   6.575   2.320   4.931 -0.3275 -0.5376  0.3578
  358MOL0     C48243   6.387   2.294   5.122  0.2451  0.1034 -0.2478
  358MOL0     C48244   6.296   2.288   5.232 -0.6318 -0.3591 -0.0110
  358MOL0     N48245   6.097   2.114   6.017  0.1953 -0.0318 -0.3944
  358MOL0     N48246   6.090   2.156   6.132 -0.2281 -0.1197  0.3410
  358MOL0     C48247   5.436   2.443   6.842 -0.5625 -0.4555  0.0084
  358MOL0     C48248   5.359   2.340   6.899 -0.3047  0.0689 -0.1464
  358MOL0     C48249   5.274   1.936   7.031 -0.0701 -0.0667 -0.4488
  358MOL0     C48250   5.261   1.949   7.172 -0.7334  0.3624 -0.4419
  358MOL0     C48251   5.174   1.867   7.237  0.8580  0.6567 -1.0266
  358MOL0     C48252   5.094   1.772   7.178 -0.3375  0.4532 -0.1675
  358MOL0     O48253   5.005   1.696   7.258  0.0677  0.2762 -0.1287
  358MOL0     C48254   4.966   1.725   7.394 -0.1849 -1.2354 -0.3785
  358MOL0     C48255   4.832   1.679   7.427 -0.4395  0.4436 -0.7205
  358MOL0     C48256   4.803   1.640   7.573 -0.7822 -0.3477 -0.0731
  358MOL0     C48257   4.888   1.526   7.636 -0.0196  0.4651 -0.4988
  358MOL0     C48258   4.804   1.451   7.735  0.2813 -0.6213  0.0764
  358MOL0     C48259   4.733   1.401   7.822  0.7359 -0.0142  0.9362
  358MOL0     C48260   5.127   1.742   7.046 -0.0774  0.3867  0.0449
  358MOL0     C48261   5.224   1.817   6.973 -0.6876 -0.8150  0.3315
  358MOL0     C48262   5.250   1.770   6.835  0.0503  0.0883 -0.0659
  358MOL0     H48263   5.619   2.249   7.112  0.3341  1.1894  0.4854
  358MOL0     H48264   5.728   2.406   6.998  0.3432  3.5393 -0.7952
  358MOL0     H48265   5.491   2.698   6.777 -0.5357  0.1578 -2.7408
  358MOL0     H48266   5.646   2.768   6.770  0.9103 -0.9244 -0.6746
  358MOL0     H48267   5.498   2.722   6.554  0.0900  1.4939  0.9619
  358MOL0     H48268   5.543   2.556   6.591  0.5465  0.8900  2.2971
  358MOL0     H48269   5.781   2.609   6.553  0.6057  0.1348 -0.6509
  358MOL0     H48270   5.732   2.770   6.485  3.6549 -0.8192 -0.6841
  358MOL0     H48271   5.658   2.499   6.364 -2.1898  0.2650 -3.0661
  358MOL0     H48272   5.621   2.663   6.304  3.5166  2.4799 -1.8127
  358MOL0     H48273   5.818   2.615   6.186  2.0475 -4.1227 -1.3846
  358MOL0     H48274   5.885   2.703   6.328 -1.0145 -1.9962  1.5804
  358MOL0     H48275   5.910   2.466   6.408 -4.1503  2.3432  0.7493
  358MOL0     H48276   5.876   2.401   6.246  2.3789  0.0176 -2.3737
  358MOL0     H48277   6.103   2.568   6.329 -2.4940 -0.8568  1.5335
  358MOL0     H48278   6.066   2.548   6.155  1.6821  1.6014  0.4944
  358MOL0     H48279   6.251   2.400   6.209 -0.1931  0.1634 -1.8309
  358MOL0     H48280   6.159   2.323   6.342 -1.5247  0.6520  0.2634
  358MOL0     H48281   6.135   2.425   5.961 -2.6028 -0.1520 -1.0000
  358MOL0     H48282   6.222   2.279   5.745 -1.8756  0.1545 -5.2256
  358MOL0     H48283   6.191   2.116   5.755  0.7198  1.2127 -1.8393
  358MOL0     H48284   5.943   2.146   5.763  0.5690  2.4634  4.2865
  358MOL0     H48285   5.976   2.308   5.716  0.7577  0.6099 -0.5789
  358MOL0     H48286   5.906   2.156   5.530  0.2264 -0.2605  0.2123
  358MOL0     H48287   6.057   2.064   5.548  1.4418  0.7817 -2.9310
  358MOL0     H48288   6.084   2.356   5.505 -1.3650  0.0479 -0.4142
  358MOL0     H48289   6.059   2.247   5.366 -3.2177 -1.1488  1.6815
  358MOL0     H48290   6.453   2.095   5.454 -2.0594 -0.3882  0.7296
  358MOL0     H48291   6.630   2.107   5.258 -0.9218 -1.0247  2.3177
  358MOL0     H48292   6.849   2.320   4.921  1.6033 -2.4484  1.3016
  358MOL0     H48293   7.005   2.322   4.723  0.5708  0.9556  1.9287
  358MOL0     H48294   7.090   1.916   4.544  1.1435  0.1222 -0.2415
  358MOL0     H48295   6.950   1.977   4.444 -0.8238  2.2505 -1.1252
  358MOL0     H48296   7.106   2.097   4.294  1.2696  0.2015 -1.4776
  358MOL0     H48297   7.242   2.041   4.411 -1.8202  0.0851  2.9917
  358MOL0     H48298   7.146   1.804   4.339  1.2536 -1.3092 -0.7676
  358MOL0     H48299   7.099   1.885   4.198  0.0053 -4.5499  0.9494
  358MOL0     H48300   7.388   1.893   4.302 -1.6014  1.2784  2.0802
  358MOL0     H48301   7.341   1.973   4.151  2.7984 -0.9312 -0.7594
  358MOL0     H48302   7.235   1.751   4.063  0.2128 -0.1188 -0.3099
  358MOL0     H48303   7.311   1.669   4.200 -0.9464  2.2347  1.4964
  358MOL0     H48304   7.425   1.666   3.971  2.1335 -1.4185  0.2798
  358MOL0     H48305   7.459   1.842   4.001  0.1988 -0.1352 -4.9456
  358MOL0     H48306   7.543   1.625   4.205  0.9493 -0.8911  0.4417
  358MOL0     H48307   7.614   1.787   4.173  2.6794 -0.0903 -1.2089
  358MOL0     H48308   7.724   1.706   3.977  0.6539 -0.2301 -0.3378
  358MOL0     H48309   7.760   1.601   4.112 -1.2939  1.8251  3.6212
  358MOL0     H48310   6.882   1.913   4.651  1.9447 -1.2451  1.0259
  358MOL0     H48311   6.721   1.937   4.845  2.4020 -1.4448  0.7701
  358MOL0     H48312   6.362   2.360   5.039  0.3852  0.8394  0.2862
  358MOL0     H48313   6.206   2.348   5.225  0.0750  0.6511 -0.8684
  358MOL0     H48314   5.381   2.509   6.775  0.8764 -0.2100 -0.9763
  358MOL0     H48315   5.255   2.325   6.871 -1.0064  2.4797  0.8833
  358MOL0     H48316   5.327   2.011   7.233  1.8581 -0.8787 -1.8338
  358MOL0     H48317   5.175   1.876   7.345 -0.9564  0.7581 -0.9835
  358MOL0     H48318   4.972   1.834   7.404 -2.7142 -0.5003 -4.4711
  358MOL0     H48319   5.049   1.681   7.450 -0.7684 -0.9270  0.7648
  358MOL0     H48320   4.787   1.608   7.358  0.4230 -0.9867  0.1183
  358MOL0     H48321   4.793   1.779   7.408  2.7290  1.6104 -1.8169
  358MOL0     H48322   4.696   1.618   7.582 -1.0788  0.0911 -2.1299
  358MOL0     H48323   4.825   1.727   7.636  0.3653  1.0445 -2.2532
  358MOL0     H48324   4.940   1.464   7.563 -1.8740 -1.5372 -0.2296
  358MOL0     H48325   4.975   1.570   7.686  1.8978 -2.7094 -0.7921
  358MOL0     H48326   4.677   1.363   7.905  0.0572 -0.1864  0.4116
  358MOL0     H48327   5.067   1.669   6.994 -1.5553  0.7120  1.2203
  358MOL0     H48328   5.359   1.763   6.828 -0.0599 -2.3293 -0.0987
  358MOL0     H48329   5.194   1.681   6.807 -0.8331  0.2030  1.2664
  358MOL0     H48330   5.225   1.845   6.759 -0.0743  2.5569  2.2264
  359MOL0     O48331   1.931   0.956   7.973 -0.3389 -0.1879  0.4144
  359MOL0     C48332   1.968   1.073   7.997  0.6868 -0.0938  0.8135
  359MOL0     O48333   2.042   1.115   8.107 -0.2002 -0.2344 -0.0301
  359MOL0     C48334   2.119   1.022   8.182 -0.1805 -0.9206 -0.5605
  359MOL0     C48335   2.129   1.069   8.314  0.4095 -0.1563 -0.2436
  359MOL0     C48336   2.177   0.995   8.419  0.3981  0.4149 -0.6309
  359MOL0     C48337   2.229   0.869   8.384  0.3980 -0.1073  0.2956
  359MOL0     O48338   2.283   0.779   8.472 -0.2621  0.3626 -0.0925
  359MOL0     C48339   2.252   0.788   8.614 -0.0201  0.4409  0.1337
  359MOL0     C48340   2.280   0.648   8.683 -1.1982 -0.1084  0.5351
  359MOL0     C48341   2.229   0.519   8.602  0.4943  0.1365  0.1676
  359MOL0     C48342   2.287   0.384   8.652 -0.0514 -0.6031 -0.7818
  359MOL0     C48343   2.218   0.261   8.584 -1.2042 -0.0248  0.9158
  359MOL0     C48344   2.272   0.130   8.647 -0.5014 -0.1235  0.6614
  359MOL0     C48345   2.240   0.006   8.566  0.3249 -0.2433 -1.0000
  359MOL0     C48346   2.316  -0.123   8.609  0.0164 -0.4314  0.1965
  359MOL0     N48347   2.449  -0.130   8.546  0.0508  0.8679 -0.9012
  359MOL0     C48348   2.469  -0.179   8.422 -0.2516 -0.1761  0.4682
  359MOL0     C48349   2.607  -0.168   8.416 -0.1934 -0.2894 -0.3474
  359MOL0     C48350   2.689  -0.221   8.309  0.4766  0.3812 -0.2536
  359MOL0     C48351   2.719  -0.373   8.326  0.6679  0.4274 -0.1855
  359MOL0     C48352   2.789  -0.397   8.458 -0.7403  1.2380 -0.5076
  359MOL0     C48353   2.920  -0.310   8.474  0.2172  0.2112 -0.1125
  359MOL0     O48354   3.001  -0.310   8.358 -1.0665  0.8661  0.0743
  359MOL0     C48355   3.050  -0.441   8.310  0.1330  0.4125 -0.5400
  359MOL0     C48356   3.072  -0.445   8.170 -0.3740 -0.1265 -0.8178
  359MOL0     C48357   3.112  -0.560   8.109  0.6934  0.8765  0.5541
  359MOL0     C48358   3.126  -0.680   8.174 -0.5109 -1.0374 -0.4039
  359MOL0     C48359   3.168  -0.800   8.098 -0.6178 -1.1286  0.8630
  359MOL0     O48360   3.220  -0.896   8.179  0.6139 -0.3756  0.3540
  359MOL0     C48361   3.290  -0.996   8.106  0.1384  0.5111  0.2553
  359MOL0     C48362   3.411  -0.965   8.048  0.9783  0.5926  0.0124
  359MOL0     C48363   3.476  -1.063   7.977  0.6579 -0.1868  0.3377
  359MOL0     C48364   3.438  -1.199   7.975 -0.7811  0.1096  0.7150
  359MOL0     O48365   3.514  -1.282   7.891 -0.1184  0.3105  0.1508
  359MOL0     C48366   3.495  -1.427   7.903 -0.1132  0.9711 -0.0369
  359MOL0     C48367   3.591  -1.484   7.798 -0.4233  0.2909 -2.0494
  359MOL0     C48368   3.635  -1.630   7.828 -0.3187 -0.9172 -0.7331
  359MOL0     C48369   3.746  -1.693   7.734  0.3222  0.6065 -0.4398
  359MOL0     C48370   3.755  -1.846   7.753  0.3406  0.1218 -0.1823
  359MOL0     C48371   3.860  -1.896   7.657  0.2892 -0.4707  0.3780
  359MOL0     C48372   3.846  -2.049   7.640 -0.5201 -1.1091  0.0869
  359MOL0     C48373   3.922  -2.118   7.753  0.3480 -0.4336 -0.4327
  359MOL0    Cl48374   3.923  -2.288   7.703  0.5690  0.1105  0.4505
  359MOL0     C48375   3.327  -1.231   8.054  0.4454 -0.4345  0.1597
  359MOL0     C48376   3.254  -1.132   8.111  0.5788  0.2772 -0.5358
  359MOL0     O48377   3.149  -0.810   7.975 -0.0874 -1.0457  0.5230
  359MOL0     C48378   3.097  -0.677   8.317  0.4277  0.3785  0.6605
  359MOL0     C48379   3.058  -0.560   8.380 -0.0893 -0.7408 -1.5781
  359MOL0     N48380   2.660  -0.113   8.533 -0.2524  0.4003 -0.2483
  359MOL0     N48381   2.566  -0.086   8.611  0.3664  0.4816  0.0566
  359MOL0     C48382   2.227   0.818   8.248 -0.2640  0.2381  0.2531
  359MOL0     C48383   2.167   0.892   8.143  1.2287  0.1456  0.0448
  359MOL0     C48384   1.926   1.173   7.901  0.4383  0.4320 -0.7416
  359MOL0     C48385   1.904   1.136   7.776  1.1142  0.6660  0.7298
  359MOL0     C48386   1.879   1.221   7.673 -0.2526 -0.1795 -0.0669
  359MOL0     C48387   1.862   1.361   7.683 -0.0934  0.5436 -0.3877
  359MOL0     O48388   1.817   1.437   7.574 -1.0320  0.3694 -1.0014
  359MOL0     C48389   1.758   1.568   7.605  0.2557  0.1361  0.1642
  359MOL0     C48390   1.868   1.677   7.610  0.1197  0.5893 -0.3078
  359MOL0     C48391   1.813   1.818   7.610 -0.2516 -0.5701 -0.0551
  359MOL0     C48392   1.682   1.813   7.698 -0.5618 -1.4532  0.5689
  359MOL0     C48393   1.637   1.948   7.725  0.2775 -0.7507  0.0562
  359MOL0     C48394   1.622   2.063   7.746 -0.2741 -0.7453 -0.2791
  359MOL0     C48395   1.879   1.399   7.815  0.2466 -0.1986  0.2155
  359MOL0     C48396   1.922   1.313   7.919  0.7425  0.4683 -0.8759
  359MOL0     C48397   1.942   1.396   8.045  0.5898  0.5484 -0.9632
  359MOL0     H48398   2.107   1.174   8.331 -0.2652 -0.6856  2.6367
  359MOL0     H48399   2.208   1.039   8.514 -0.1625  0.1101 -0.3002
  359MOL0     H48400   2.319   0.867   8.650  1.2534 -0.1753 -0.8079
  359MOL0     H48401   2.150   0.818   8.640 -2.0943 -6.0099  1.3819
  359MOL0     H48402   2.248   0.637   8.787  0.3633  1.1308  1.1872
  359MOL0     H48403   2.389   0.643   8.684 -1.1412 -1.5625 -2.4400
  359MOL0     H48404   2.253   0.523   8.495 -3.3131  0.8486 -0.7854
  359MOL0     H48405   2.123   0.500   8.620  0.3651 -1.1028 -1.5947
  359MOL0     H48406   2.394   0.385   8.631  0.6928 -1.0263  2.5024
  359MOL0     H48407   2.269   0.381   8.760 -3.0434 -1.5265 -1.2222
  359MOL0     H48408   2.110   0.268   8.599 -1.6640  0.3242 -1.8764
  359MOL0     H48409   2.251   0.265   8.480 -1.1783 -1.0682  0.8735
  359MOL0     H48410   2.380   0.136   8.635 -0.5818  0.8369  0.2525
  359MOL0     H48411   2.246   0.114   8.753 -4.4061 -3.5709 -0.5451
  359MOL0     H48412   2.264   0.009   8.459 -2.2029  1.5265 -1.6079
  359MOL0     H48413   2.137  -0.023   8.589  0.2792  0.2644 -0.5318
  359MOL0     H48414   2.316  -0.132   8.719 -2.7163  0.6211  0.3538
  359MOL0     H48415   2.268  -0.216   8.578  2.7398 -2.0275  0.4539
  359MOL0     H48416   2.400  -0.213   8.344 -2.3991 -2.2594  3.0792
  359MOL0     H48417   2.645  -0.211   8.210 -0.0263 -1.2069 -0.2321
  359MOL0     H48418   2.789  -0.177   8.308  0.6478 -0.0144 -1.0068
  359MOL0     H48419   2.637  -0.442   8.305  1.5948  0.1702 -3.3827
  359MOL0     H48420   2.796  -0.402   8.254  0.8220  0.3397  0.0118
  359MOL0     H48421   2.810  -0.505   8.458  2.3225  1.7173  0.7378
  359MOL0     H48422   2.726  -0.380   8.546 -2.0089 -0.2485 -1.0826
  359MOL0     H48423   2.977  -0.338   8.562  0.2150 -1.2866 -0.5697
  359MOL0     H48424   2.893  -0.208   8.503 -2.0287 -0.7134  1.3857
  359MOL0     H48425   3.062  -0.362   8.101  0.7717  0.7111 -0.0156
  359MOL0     H48426   3.141  -0.556   8.004  1.3108  1.8157  0.7484
  359MOL0     H48427   3.445  -0.862   8.049  0.6544  0.7729 -2.5180
  359MOL0     H48428   3.559  -1.027   7.918  0.0742 -0.6549 -0.7933
  359MOL0     H48429   3.514  -1.463   8.004 -0.7588 -0.7725 -0.5009
  359MOL0     H48430   3.395  -1.462   7.880  0.5153 -4.9301  4.0744
  359MOL0     H48431   3.546  -1.477   7.699  1.4966  1.2654 -2.9069
  359MOL0     H48432   3.687  -1.431   7.805  1.2176 -2.6153 -0.4087
  359MOL0     H48433   3.673  -1.636   7.931  2.0384  0.1001 -1.4898
  359MOL0     H48434   3.540  -1.682   7.816 -2.1955  1.7026  1.3510
  359MOL0     H48435   3.848  -1.661   7.756  0.5650  0.7073 -1.6500
  359MOL0     H48436   3.731  -1.673   7.628 -1.5117 -1.4167 -0.6354
  359MOL0     H48437   3.660  -1.894   7.729  1.6689 -2.2245 -1.1045
  359MOL0     H48438   3.778  -1.860   7.859 -1.8237 -0.8696  0.2037
  359MOL0     H48439   3.834  -1.860   7.557 -0.9591 -2.2794  0.0008
  359MOL0     H48440   3.966  -1.870   7.668  0.0521 -0.4471  3.2361
  359MOL0     H48441   3.885  -2.093   7.548  0.2518  1.3554 -0.8384
  359MOL0     H48442   3.740  -2.072   7.646 -1.4207  2.6975  1.7964
  359MOL0     H48443   4.028  -2.090   7.759  0.6834 -1.7828  0.1967
  359MOL0     H48444   3.877  -2.109   7.852  2.0384 -0.0220  0.3317
  359MOL0     H48445   3.291  -1.333   8.056  0.1700 -0.3886 -1.2691
  359MOL0     H48446   3.182  -1.157   8.188  2.5130 -1.2136  0.9050
  359MOL0     H48447   3.092  -0.776   8.362 -2.8321  0.7772  1.4411
  359MOL0     H48448   3.027  -0.575   8.483  0.0176 -1.9224 -1.7019
  359MOL0     H48449   2.283   0.725   8.242  0.1392  0.5629 -1.7930
  359MOL0     H48450   2.154   0.857   8.041  2.6587 -0.0286 -0.0905
  359MOL0     H48451   1.876   1.035   7.746 -1.3026  2.3801 -3.6030
  359MOL0     H48452   1.848   1.179   7.578 -4.3586  0.9611  0.5654
  359MOL0     H48453   1.688   1.573   7.689  0.0490 -1.5572  0.1398
  359MOL0     H48454   1.696   1.592   7.518  0.7069  1.8725  0.2997
  359MOL0     H48455   1.955   1.664   7.545  1.1921  0.6659  1.0494
  359MOL0     H48456   1.924   1.674   7.704 -0.3103  1.6615  0.0020
  359MOL0     H48457   1.788   1.838   7.506  2.9993 -0.3894 -0.8971
  359MOL0     H48458   1.874   1.900   7.648 -1.5724 -0.3974  1.8454
  359MOL0     H48459   1.602   1.770   7.638 -2.2013  1.4056  0.4971
  359MOL0     H48460   1.708   1.762   7.790  1.2743  1.5367  1.8697
  359MOL0     H48461   1.602   2.167   7.760 -0.4712 -1.0998  2.6556
  359MOL0     H48462   1.852   1.500   7.848  0.9491  0.1968 -0.3986
  359MOL0     H48463   1.861   1.468   8.059  1.4373  1.6828 -1.7751
  359MOL0     H48464   1.945   1.334   8.136  1.2115 -0.5478 -1.7037
  359MOL0     H48465   2.042   1.439   8.037  0.6480  0.3261 -1.4746
  360MOL0     O48466  11.420   5.582  11.238  0.2693  0.1811  0.4224
  360MOL0     C48467  11.341   5.539  11.323 -0.3232  0.2739  0.1150
  360MOL0     O48468  11.369   5.508  11.452  1.3333 -0.1874  0.2115
  360MOL0     C48469  11.493   5.505  11.500 -0.6431 -0.5090 -0.5717
  360MOL0     C48470  11.518   5.529  11.647 -0.0936  0.4487  0.3655
  360MOL0     C48471  11.652   5.519  11.698  0.8665  0.1461 -0.3351
  360MOL0     C48472  11.757   5.486  11.615  0.0142  0.4028 -0.3240
  360MOL0     O48473  11.876   5.467  11.676 -0.0427 -0.4692  0.1444
  360MOL0     C48474  11.961   5.354  11.623  0.0980 -0.3475  0.4861
  360MOL0     C48475  12.079   5.325  11.711 -0.6864 -0.5355  0.2270
  360MOL0     C48476  12.155   5.216  11.647  0.1675  0.0649 -1.5394
  360MOL0     C48477  12.287   5.171  11.711  0.1338 -0.9409 -0.1793
  360MOL0     C48478  12.395   5.277  11.695 -0.3709 -0.6495  0.9263
  360MOL0     C48479  12.530   5.253  11.762 -0.4579  0.2818 -0.1100
  360MOL0     C48480  12.613   5.149  11.695  0.9024  0.3487 -0.9719
  360MOL0     C48481  12.740   5.131  11.772 -0.7523  0.0818 -0.3717
  360MOL0     N48482  12.744   5.006  11.858 -0.3290  0.5052  0.0953
  360MOL0     C48483  12.791   5.010  11.988  0.9888 -0.5248  0.8084
  360MOL0     C48484  12.807   4.877  12.009  0.4020  0.6990  0.8392
  360MOL0     C48485  12.880   4.813  12.122 -0.2281 -0.5016 -0.7181
  360MOL0     C48486  13.029   4.853  12.108 -0.2628 -0.5192 -1.1184
  360MOL0     C48487  13.088   4.809  12.250 -1.1258  0.3211  0.6645
  360MOL0     C48488  13.237   4.827  12.253  0.4969 -0.4069 -0.0088
  360MOL0     O48489  13.262   4.969  12.250  0.0738 -0.0513  0.5784
  360MOL0     C48490  13.371   5.010  12.311 -0.5397  0.5995 -0.5675
  360MOL0     C48491  13.385   5.132  12.368 -0.5410 -0.5247 -0.1052
  360MOL0     C48492  13.505   5.185  12.420 -0.6406  0.9057  0.1903
  360MOL0     C48493  13.620   5.100  12.406 -0.4901 -0.4276  0.7173
  360MOL0     C48494  13.743   5.167  12.456  0.0183  0.0541 -0.3736
  360MOL0     O48495  13.720   5.233  12.572 -0.6565 -0.1547  0.3324
  360MOL0     C48496  13.839   5.271  12.624 -0.2913 -0.7347  0.4113
  360MOL0     C48497  13.904   5.389  12.577  0.8795  1.0783 -0.1955
  360MOL0     C48498  14.030   5.417  12.627 -0.9665 -0.3809 -0.7983
  360MOL0     C48499  14.081   5.357  12.746 -0.7257  0.5378  0.1059
  360MOL0     O48500  14.215   5.392  12.780  0.0565  0.0032 -0.4474
  360MOL0     C48501  14.316   5.307  12.844 -0.1039 -0.3629  0.9429
  360MOL0     C48502  14.419   5.266  12.734  0.6053 -0.9989 -0.7636
  360MOL0     C48503  14.516   5.383  12.690 -0.0214  0.6126  0.2019
  360MOL0     C48504  14.574   5.462  12.808  0.6440 -0.4102  0.9198
  360MOL0     C48505  14.695   5.544  12.759 -0.7025 -0.2229  0.7729
  360MOL0     C48506  14.660   5.652  12.661  0.0877 -0.7348 -0.1677
  360MOL0     C48507  14.779   5.747  12.661  0.3530 -0.8912 -0.4479
  360MOL0     C48508  14.749   5.862  12.563  0.0509 -0.9804  0.3145
  360MOL0    Cl48509  14.811   6.021  12.620 -0.0708 -0.1391  0.0025
  360MOL0     C48510  14.010   5.249  12.801 -0.4546  0.2951  0.0447
  360MOL0     C48511  13.897   5.196  12.734  0.2452 -0.1332  0.7533
  360MOL0     O48512  13.859   5.140  12.411 -0.0389  0.1337 -0.0633
  360MOL0     C48513  13.619   4.977  12.343 -0.0376 -0.1378  0.2525
  360MOL0     C48514  13.491   4.928  12.294 -0.0513  0.5243 -0.2828
  360MOL0     N48515  12.781   4.809  11.893  0.3657 -0.1016 -0.2398
  360MOL0     N48516  12.742   4.887  11.801  0.5344 -0.3414  0.8468
  360MOL0     C48517  11.735   5.469  11.476  0.2361  0.4610  0.1161
  360MOL0     C48518  11.607   5.465  11.426  0.4774  0.1846  0.4720
  360MOL0     C48519  11.211   5.495  11.266  0.6139 -0.1378  0.4439
  360MOL0     C48520  11.160   5.368  11.300 -0.5384 -0.2248  0.1303
  360MOL0     C48521  11.049   5.325  11.224 -1.5640  0.0351  0.0163
  360MOL0     C48522  10.996   5.397  11.115  0.1544  0.3583  0.7072
  360MOL0     O48523  10.888   5.355  11.041 -0.4370 -0.7901 -0.2935
  360MOL0     C48524  10.796   5.274  11.106  0.6576 -0.3806 -0.2765
  360MOL0     C48525  10.663   5.360  11.097  0.0187  1.6242 -0.5663
  360MOL0     C48526  10.551   5.274  11.146  0.8643 -0.4796  0.2058
  360MOL0     C48527  10.547   5.275  11.299  0.6385 -0.0243 -1.0326
  360MOL0     C48528  10.440   5.197  11.365 -0.1811 -0.1486 -0.3418
  360MOL0     C48529  10.340   5.139  11.398  0.5618 -0.1617 -0.4296
  360MOL0     C48530  11.042   5.522  11.089  0.0612 -0.0063 -0.2247
  360MOL0     C48531  11.142   5.578  11.170 -0.2931  0.9502  0.3063
  360MOL0     C48532  11.186   5.725  11.140  1.2041 -1.4539 -0.1446
  360MOL0     H48533  11.429   5.539  11.709  0.6603 -0.5753  1.6517
  360MOL0     H48534  11.650   5.537  11.805 -0.5576  2.2667 -0.6606
  360MOL0     H48535  11.892   5.269  11.621 -1.4980  0.8706 -2.1174
  360MOL0     H48536  11.983   5.372  11.518 -2.3820 -2.8083 -0.5754
  360MOL0     H48537  12.038   5.304  11.810 -1.7044  4.5277  1.1462
  360MOL0     H48538  12.133   5.420  11.708  0.0164 -0.9504 -0.5419
  360MOL0     H48539  12.181   5.241  11.544  2.3664  0.3811 -0.9575
  360MOL0     H48540  12.096   5.124  11.649  0.9033 -0.4396  1.1856
  360MOL0     H48541  12.264   5.155  11.817 -3.4898  0.4361 -0.5764
  360MOL0     H48542  12.322   5.081  11.661  1.0559 -0.4125 -0.5106
  360MOL0     H48543  12.422   5.297  11.591  0.2274  0.8600  1.3374
  360MOL0     H48544  12.344   5.366  11.733 -0.8978 -0.0827 -1.0248
  360MOL0     H48545  12.590   5.345  11.758  0.1087  0.0817  2.2748
  360MOL0     H48546  12.510   5.219  11.864  0.7572  1.7235  0.6483
  360MOL0     H48547  12.628   5.163  11.587 -0.3233 -1.7490 -1.4799
  360MOL0     H48548  12.553   5.058  11.704  1.1280  0.4090  1.8196
  360MOL0     H48549  12.827   5.138  11.706 -0.9397  1.5722 -0.5172
  360MOL0     H48550  12.759   5.226  11.824 -0.1588  0.5301 -1.3737
  360MOL0     H48551  12.827   5.091  12.050  2.3278  0.2368 -0.8693
  360MOL0     H48552  12.832   4.845  12.215 -2.0675 -2.6198 -0.8516
  360MOL0     H48553  12.872   4.705  12.110 -0.7134 -0.5689  0.1567
  360MOL0     H48554  13.070   4.802  12.021 -1.7577 -1.0473 -1.5416
  360MOL0     H48555  13.039   4.961  12.090  2.8696  0.1384  2.9823
  360MOL0     H48556  13.058   4.706  12.268 -0.8387  0.0608 -0.3318
  360MOL0     H48557  13.047   4.872  12.330 -1.4018  2.6224 -1.1895
  360MOL0     H48558  13.291   4.782  12.169  1.7805 -0.8712  1.0436
  360MOL0     H48559  13.270   4.775  12.343 -1.7400  2.1999  2.5317
  360MOL0     H48560  13.307   5.206  12.358  1.5667  1.9165  0.3656
  360MOL0     H48561  13.513   5.291  12.439 -0.0716  1.0789 -0.9585
  360MOL0     H48562  13.858   5.454  12.503 -0.1263 -0.9188 -1.3928
  360MOL0     H48563  14.094   5.497  12.590  0.7303 -1.5305 -0.4350
  360MOL0     H48564  14.370   5.344  12.931  0.6932 -2.1635  1.2499
  360MOL0     H48565  14.271   5.210  12.866  2.0966 -1.6957 -0.0553
  360MOL0     H48566  14.487   5.188  12.766  1.5277  0.5090  1.1296
  360MOL0     H48567  14.354   5.235  12.651  0.6675  1.3679 -1.8096
  360MOL0     H48568  14.592   5.324  12.637  0.2005  0.8734  0.2286
  360MOL0     H48569  14.469   5.451  12.620 -1.3129 -2.3678 -2.0573
  360MOL0     H48570  14.598   5.390  12.887 -2.7003 -0.7023  1.8257
  360MOL0     H48571  14.503   5.536  12.845  1.3788  0.5285  0.4897
  360MOL0     H48572  14.769   5.477  12.714 -1.7282 -0.3587 -0.8145
  360MOL0     H48573  14.739   5.599  12.843  2.1025  5.6582 -3.7111
  360MOL0     H48574  14.643   5.606  12.563 -0.0623 -2.4170  0.6214
  360MOL0     H48575  14.570   5.702  12.698  0.5741  1.5249 -1.7934
  360MOL0     H48576  14.866   5.687  12.634  1.0609 -0.3649  0.5785
  360MOL0     H48577  14.796   5.790  12.760 -0.7909 -2.4663  0.4922
  360MOL0     H48578  14.781   5.843  12.460  1.6531  0.6003  0.4824
  360MOL0     H48579  14.640   5.876  12.556  0.4009  1.7812 -1.2442
  360MOL0     H48580  14.048   5.191  12.885 -1.4675  0.4970  0.6604
  360MOL0     H48581  13.858   5.108  12.783  1.3073 -0.5986  0.7847
  360MOL0     H48582  13.706   4.914  12.328  0.6571  0.5328  1.3465
  360MOL0     H48583  13.502   4.841  12.230  0.5290  0.1190  0.3475
  360MOL0     H48584  11.810   5.439  11.403 -1.8123 -1.0441 -1.4770
  360MOL0     H48585  11.604   5.436  11.321  0.7843  1.5968  0.0518
  360MOL0     H48586  11.206   5.309  11.380  1.2540 -1.7062 -1.8810
  360MOL0     H48587  11.007   5.231  11.258 -0.8825 -1.1656 -2.2665
  360MOL0     H48588  10.823   5.255  11.210 -1.6418 -1.1415  0.2372
  360MOL0     H48589  10.779   5.180  11.053  1.4311 -0.3909 -0.5101
  360MOL0     H48590  10.641   5.397  10.996 -3.3969 -0.0317 -0.5739
  360MOL0     H48591  10.674   5.438  11.172  0.4300  0.5172  0.5463
  360MOL0     H48592  10.566   5.172  11.110  3.0056  0.3389 -1.4447
  360MOL0     H48593  10.460   5.313  11.099  3.8349  2.2183 -3.9476
  360MOL0     H48594  10.642   5.260  11.352 -0.7506 -1.2380  1.2862
  360MOL0     H48595  10.520   5.377  11.329  0.8248 -0.6012  1.2749
  360MOL0     H48596  10.266   5.069  11.432 -2.1465  3.3271  1.5813
  360MOL0     H48597  10.997   5.587  11.015 -1.9085  0.0412  0.9554
  360MOL0     H48598  11.289   5.736  11.106  2.2033 -1.2441  2.6969
  360MOL0     H48599  11.118   5.790  11.084 -0.5336 -2.1575  1.0541
  360MOL0     H48600  11.179   5.769  11.240 -2.5118  1.6377 -1.5120
  361MOL0     O48601  10.035   3.265   0.236 -0.0197  0.7301 -0.0813
  361MOL0     C48602  10.158   3.244   0.239  0.5922  0.2685  0.3045
  361MOL0     O48603  10.221   3.179   0.135  0.2958 -0.2176  0.0779
  361MOL0     C48604  10.168   3.179   0.010 -0.4015  0.9143  0.5269
  361MOL0     C48605  10.086   3.277  -0.049  0.1447 -0.1198 -0.5202
  361MOL0     C48606  10.089   3.282  -0.188 -0.2805  0.6327 -0.9516
  361MOL0     C48607  10.142   3.178  -0.263  0.2854  0.0277 -0.2158
  361MOL0     O48608  10.121   3.191  -0.406 -0.0272 -0.1301 -0.5932
  361MOL0     C48609  10.139   3.080  -0.494 -0.0729  0.5092 -0.5277
  361MOL0     C48610  10.114   3.117  -0.641  0.0599 -0.1355 -0.5124
  361MOL0     C48611  10.188   3.037  -0.738  0.0411  0.8233  0.2929
  361MOL0     C48612  10.151   3.061  -0.880 -0.3645 -0.2811  0.0768
  361MOL0     C48613  10.235   2.986  -0.988 -0.0697  0.3071 -0.6161
  361MOL0     C48614  10.182   3.005  -1.130 -0.0816 -0.4653 -0.5441
  361MOL0     C48615  10.209   3.140  -1.198 -0.0621 -0.1610 -0.2340
  361MOL0     C48616  10.130   3.149  -1.322  0.3118  0.5529  0.2344
  361MOL0     N48617  10.196   3.243  -1.409 -0.7046 -1.4307  0.3713
  361MOL0     C48618  10.288   3.212  -1.507  0.6793 -1.2969  1.1759
  361MOL0     C48619  10.331   3.337  -1.548 -0.3208  0.8352  0.6593
  361MOL0     C48620  10.444   3.351  -1.648  0.7605 -0.6569 -0.5114
  361MOL0     C48621  10.391   3.402  -1.771 -0.0812 -1.6219  0.9787
  361MOL0     C48622  10.498   3.400  -1.881 -0.6577  0.2683 -0.8150
  361MOL0     C48623  10.460   3.483  -2.012  0.8750 -0.3778  0.0511
  361MOL0     O48624  10.345   3.432  -2.085  0.4817 -0.5111 -0.0462
  361MOL0     C48625  10.337   3.461  -2.220 -0.0236 -0.5920 -0.4437
  361MOL0     C48626  10.260   3.367  -2.290  0.6050 -0.0806  1.0935
  361MOL0     C48627  10.265   3.366  -2.437  0.6471 -0.3438 -0.5683
  361MOL0     C48628  10.328   3.474  -2.508  0.0126 -0.2667  0.3085
  361MOL0     C48629  10.307   3.498  -2.655 -0.2441 -0.4804  0.0344
  361MOL0     O48630  10.370   3.610  -2.708 -0.3563 -0.0026  0.4093
  361MOL0     C48631  10.362   3.628  -2.847 -0.3842 -0.2416 -0.8049
  361MOL0     C48632  10.242   3.615  -2.919 -0.4879 -0.4468 -0.1074
  361MOL0     C48633  10.240   3.659  -3.056 -0.3431  0.1980  0.1117
  361MOL0     C48634  10.357   3.704  -3.119  0.1444 -0.5197 -0.4848
  361MOL0     O48635  10.354   3.731  -3.251  0.6669  0.2876  0.3730
  361MOL0     C48636  10.472   3.743  -3.324  0.4788 -0.4716  1.4083
  361MOL0     C48637  10.421   3.786  -3.462 -0.8819 -0.1463  0.2130
  361MOL0     C48638  10.533   3.819  -3.562 -0.3230 -0.9159  0.1700
  361MOL0     C48639  10.470   3.850  -3.700 -0.7357 -0.7750  0.4061
  361MOL0     C48640  10.588   3.827  -3.797 -0.2158 -0.2961 -0.7574
  361MOL0     C48641  10.542   3.833  -3.946  0.2334  0.6911 -0.2648
  361MOL0     C48642  10.658   3.780  -4.045  0.3546  0.6666 -0.3911
  361MOL0     C48643  10.610   3.776  -4.191 -0.4651 -0.4145  1.3410
  361MOL0    Cl48644  10.761   3.726  -4.282  0.2056 -0.4269  0.1666
  361MOL0     C48645  10.474   3.708  -3.038  0.2220 -0.1591 -0.1086
  361MOL0     C48646  10.478   3.663  -2.907  0.4686 -0.6806  0.7854
  361MOL0     O48647  10.222   3.430  -2.716  0.0873  0.8315 -0.1211
  361MOL0     C48648  10.398   3.569  -2.435  0.7384  0.1445 -0.0062
  361MOL0     C48649  10.399   3.556  -2.298  1.1288  0.2894  0.1565
  361MOL0     N48650  10.261   3.435  -1.480 -0.3566  0.3115 -0.3785
  361MOL0     N48651  10.178   3.382  -1.396 -0.7460  0.0903  0.1547
  361MOL0     C48652  10.215   3.083  -0.210 -0.0416  0.5799  0.4566
  361MOL0     C48653  10.230   3.077  -0.069  0.0913  0.7109  0.4777
  361MOL0     C48654  10.218   3.266   0.371 -0.3684  0.5270 -0.5445
  361MOL0     C48655  10.298   3.163   0.421 -0.1413 -0.0952  0.5045
  361MOL0     C48656  10.353   3.154   0.548 -0.5219  0.2862 -0.5263
  361MOL0     C48657  10.320   3.252   0.640  0.5891  0.3925 -0.6593
  361MOL0     O48658  10.386   3.246   0.760  0.0832  0.0678 -0.2675
  361MOL0     C48659  10.340   3.333   0.871 -1.0375 -0.8336  0.3437
  361MOL0     C48660  10.397   3.291   0.999 -0.1175 -0.0849 -0.7388
  361MOL0     C48661  10.546   3.264   1.009  0.3123  0.0778  0.5365
  361MOL0     C48662  10.576   3.166   1.127  0.8251 -1.1291 -0.3575
  361MOL0     C48663  10.704   3.102   1.103 -0.7298 -0.1121  0.6680
  361MOL0     C48664  10.809   3.036   1.075  0.5542 -0.6478 -0.2162
  361MOL0     C48665  10.240   3.357   0.600 -1.4936 -0.7911  1.1058
  361MOL0     C48666  10.190   3.367   0.463 -0.1361 -0.3976  0.2126
  361MOL0     C48667  10.107   3.497   0.432  0.1450  0.3296 -0.3947
  361MOL0     H48668  10.049   3.367  -0.000  0.5795 -0.2326  0.0260
  361MOL0     H48669  10.036   3.357  -0.247 -2.0220 -0.8320 -1.3546
  361MOL0     H48670  10.243   3.050  -0.477  0.0525  1.6669  1.0524
  361MOL0     H48671  10.070   3.001  -0.463 -2.4842  1.9332 -2.0169
  361MOL0     H48672  10.155   3.218  -0.650  1.5454 -0.7313 -0.7373
  361MOL0     H48673  10.005   3.114  -0.649 -0.4309  1.1597  3.3166
  361MOL0     H48674  10.156   2.934  -0.718 -1.7608  1.4266  0.6319
  361MOL0     H48675  10.295   3.048  -0.717  0.1993 -0.9363  0.6234
  361MOL0     H48676  10.046   3.039  -0.901 -0.2689 -1.8226  1.0626
  361MOL0     H48677  10.148   3.171  -0.879  0.1540 -0.2658  0.8753
  361MOL0     H48678  10.337   3.026  -0.990 -0.8719  2.4962 -1.0915
  361MOL0     H48679  10.231   2.879  -0.968  4.3093  0.2791  1.2044
  361MOL0     H48680  10.250   2.936  -1.181  2.0191  0.1655  1.2670
  361MOL0     H48681  10.076   2.978  -1.137 -0.3667  0.4439 -0.0100
  361MOL0     H48682  10.312   3.154  -1.233  0.2547 -1.6312  0.0579
  361MOL0     H48683  10.175   3.224  -1.137 -0.7218 -0.8620  0.3778
  361MOL0     H48684  10.116   3.052  -1.369  3.8146 -0.8600  1.7717
  361MOL0     H48685  10.035   3.195  -1.292 -0.6423 -1.0731 -0.2049
  361MOL0     H48686  10.320   3.113  -1.540 -0.6032 -0.9440 -1.3850
  361MOL0     H48687  10.497   3.438  -1.608  2.1545 -1.4704 -0.5329
  361MOL0     H48688  10.496   3.255  -1.650  1.6063 -0.2381 -3.3947
  361MOL0     H48689  10.309   3.338  -1.804 -3.2099  2.1563  0.5861
  361MOL0     H48690  10.371   3.510  -1.763  1.9605 -0.4546 -4.6502
  361MOL0     H48691  10.491   3.294  -1.907 -0.9732  0.5352 -1.8565
  361MOL0     H48692  10.595   3.437  -1.846 -0.8421 -0.2104  0.2431
  361MOL0     H48693  10.540   3.482  -2.086 -0.7216 -0.4417 -1.7664
  361MOL0     H48694  10.433   3.586  -1.987  3.8911  2.0257 -4.9183
  361MOL0     H48695  10.197   3.300  -2.233  0.7374  0.9511  2.5085
  361MOL0     H48696  10.204   3.292  -2.487  1.8920 -0.8564 -1.3709
  361MOL0     H48697  10.145   3.587  -2.878 -0.4144  3.1270  3.0462
  361MOL0     H48698  10.156   3.649  -3.124  0.2025 -0.9338 -0.4251
  361MOL0     H48699  10.533   3.829  -3.294  1.0411 -0.4666  0.3327
  361MOL0     H48700  10.525   3.647  -3.323 -0.6930 -1.1681 -0.2346
  361MOL0     H48701  10.361   3.703  -3.502 -0.3429 -1.4561  1.9960
  361MOL0     H48702  10.357   3.873  -3.444 -1.1538  0.2885 -2.4118
  361MOL0     H48703  10.607   3.897  -3.542  1.6180 -2.0833 -1.9957
  361MOL0     H48704  10.584   3.723  -3.572  1.6178 -0.2874  2.8587
  361MOL0     H48705  10.431   3.951  -3.714 -3.0611 -1.7387 -0.6839
  361MOL0     H48706  10.384   3.791  -3.736 -0.0411 -2.4048  1.2898
  361MOL0     H48707  10.641   3.736  -3.771  2.9526  2.0095  1.7352
  361MOL0     H48708  10.653   3.915  -3.782 -0.1491 -0.4798  0.0302
  361MOL0     H48709  10.460   3.762  -3.961  1.5186 -0.6375 -1.3377
  361MOL0     H48710  10.514   3.935  -3.974  1.8072  1.0109 -0.8032
  361MOL0     H48711  10.683   3.676  -4.023 -1.8035 -0.1885 -1.6494
  361MOL0     H48712  10.743   3.848  -4.034  0.3342  0.6321  0.0263
  361MOL0     H48713  10.540   3.700  -4.228  0.9761 -0.7496 -0.8441
  361MOL0     H48714  10.571   3.877  -4.204  1.7999  0.5555  1.5912
  361MOL0     H48715  10.564   3.749  -3.083  0.1372  1.0909  0.8110
  361MOL0     H48716  10.566   3.683  -2.847  2.6435 -1.1262 -2.0224
  361MOL0     H48717  10.444   3.656  -2.482 -0.6954  0.6223 -0.5862
  361MOL0     H48718  10.468   3.617  -2.242 -0.9873  0.5981  2.6100
  361MOL0     H48719  10.249   3.004  -0.277 -0.6721  1.9007 -1.5225
  361MOL0     H48720  10.286   2.991  -0.034 -0.1529 -1.3358 -3.5684
  361MOL0     H48721  10.300   3.072   0.362 -3.2773  1.8835 -3.1361
  361MOL0     H48722  10.408   3.071   0.590 -0.0307  1.2297  0.7947
  361MOL0     H48723  10.231   3.339   0.868 -1.1587 -2.6975 -0.5706
  361MOL0     H48724  10.381   3.432   0.849 -1.3978 -0.7299  0.1323
  361MOL0     H48725  10.350   3.199   1.035 -0.9606  1.3189  1.9967
  361MOL0     H48726  10.367   3.362   1.076  1.4068 -2.4229  2.2112
  361MOL0     H48727  10.598   3.358   1.026  0.1663  0.6268 -1.7153
  361MOL0     H48728  10.577   3.228   0.910  2.9955  1.9036  0.6143
  361MOL0     H48729  10.587   3.211   1.226  0.7110 -0.8935 -0.4491
  361MOL0     H48730  10.493   3.096   1.139 -0.5429  0.2458 -1.4221
  361MOL0     H48731  10.893   2.975   1.050  2.1717  1.3840  0.0061
  361MOL0     H48732  10.230   3.439   0.670 -1.1905 -0.3207  0.5995
  361MOL0     H48733  10.002   3.470   0.446  1.3480 -4.8156  0.5351
  361MOL0     H48734  10.132   3.568   0.512 -1.9203 -0.5087  1.0897
  361MOL0     H48735  10.125   3.538   0.332 -2.0702  2.0045 -0.1871
  362MOL0     O48736   4.540   8.220   6.311 -0.8880  0.1350  0.0930
  362MOL0     C48737   4.648   8.269   6.282 -0.0871 -0.6115  0.5868
  362MOL0     O48738   4.721   8.348   6.365  0.2059 -0.4563 -0.0612
  362MOL0     C48739   4.701   8.340   6.498  0.1464  0.4374 -0.5861
  362MOL0     C48740   4.782   8.435   6.558 -0.3929 -0.3317 -0.8270
  362MOL0     C48741   4.813   8.441   6.696 -0.4876  0.0639  0.0772
  362MOL0     C48742   4.752   8.342   6.783 -0.9166 -0.6694  0.4153
  362MOL0     O48743   4.788   8.355   6.915 -0.8497  0.9269 -0.6838
  362MOL0     C48744   4.701   8.315   7.022  0.0641 -0.5303  0.5499
  362MOL0     C48745   4.569   8.409   7.015  0.3004 -0.1817 -0.8307
  362MOL0     C48746   4.516   8.397   7.162  0.0455  0.1270  0.4204
  362MOL0     C48747   4.416   8.508   7.206  0.5626 -0.9692  0.1478
  362MOL0     C48748   4.367   8.491   7.356 -0.9927  0.4418 -0.7022
  362MOL0     C48749   4.485   8.507   7.450 -1.0451 -1.5693 -0.4913
  362MOL0     C48750   4.441   8.509   7.598 -0.0769  0.0601 -0.0171
  362MOL0     C48751   4.517   8.612   7.690 -0.1129 -0.2828 -0.5794
  362MOL0     N48752   4.627   8.529   7.751 -0.2501  0.2077 -0.3592
  362MOL0     C48753   4.720   8.477   7.671 -0.1431 -0.1327  0.7602
  362MOL0     C48754   4.796   8.388   7.739 -0.2035  0.6338  1.1375
  362MOL0     C48755   4.905   8.301   7.690 -0.6383  0.2565 -0.6748
  362MOL0     C48756   5.033   8.331   7.783 -0.1724 -0.3448 -0.5490
  362MOL0     C48757   5.154   8.239   7.759  0.0894  0.5223 -0.5059
  362MOL0     C48758   5.138   8.103   7.825 -0.3595 -0.3957  0.9586
  362MOL0     O48759   5.061   8.112   7.950 -0.6944 -0.0985  0.6681
  362MOL0     C48760   5.114   8.017   8.037  0.4663  0.8836  0.7609
  362MOL0     C48761   5.060   7.887   8.046  0.4369  0.3000 -0.2550
  362MOL0     C48762   5.104   7.794   8.141  0.6554  0.6205 -0.3591
  362MOL0     C48763   5.189   7.843   8.242  0.3578 -0.0484 -0.4619
  362MOL0     C48764   5.233   7.742   8.337  0.7891 -0.1488 -0.5102
  362MOL0     O48765   5.141   7.644   8.361 -0.5825 -0.1373 -0.2455
  362MOL0     C48766   5.194   7.555   8.450  0.6823 -0.2225 -0.2440
  362MOL0     C48767   5.177   7.566   8.597 -0.1685 -0.0462  1.1830
  362MOL0     C48768   5.212   7.458   8.689 -0.7717 -0.7684  0.4090
  362MOL0     C48769   5.271   7.342   8.650 -0.5080 -0.7053  0.8036
  362MOL0     O48770   5.326   7.242   8.726  0.2798 -0.1105 -0.0569
  362MOL0     C48771   5.412   7.291   8.821 -0.1870 -0.3110 -0.5457
  362MOL0     C48772   5.531   7.199   8.856  0.9494  0.6141  0.9575
  362MOL0     C48773   5.587   7.219   8.996 -0.4380  0.8904 -0.1972
  362MOL0     C48774   5.720   7.144   9.019 -0.3567  0.0326 -0.2804
  362MOL0     C48775   5.749   7.118   9.178  0.2361  0.1094 -0.4303
  362MOL0     C48776   5.874   7.039   9.189 -0.1660 -0.1290 -0.2801
  362MOL0     C48777   5.849   6.891   9.153  0.8735  1.4623 -0.0895
  362MOL0     C48778   5.969   6.803   9.175  0.5461 -0.0342  1.1844
  362MOL0    Cl48779   6.081   6.785   9.027  0.2381  0.5421  0.0647
  362MOL0     C48780   5.287   7.337   8.504 -0.5137 -0.9525 -0.6258
  362MOL0     C48781   5.249   7.437   8.410 -0.0792 -0.5094 -0.2781
  362MOL0     O48782   5.351   7.747   8.391  0.5896  0.7642  0.6368
  362MOL0     C48783   5.235   7.973   8.246  0.1957  0.5717  0.4132
  362MOL0     C48784   5.196   8.058   8.143  0.1565 -0.9499  0.1953
  362MOL0     N48785   4.743   8.380   7.863 -0.4939  0.8018 -0.6513
  362MOL0     N48786   4.642   8.460   7.869 -0.8337 -0.1420  0.0417
  362MOL0     C48787   4.667   8.243   6.729  0.4517 -0.7191 -0.3287
  362MOL0     C48788   4.635   8.244   6.587  0.3624  0.3812 -0.8244
  362MOL0     C48789   4.693   8.271   6.145 -0.1860  0.6378 -0.0933
  362MOL0     C48790   4.842   8.274   6.131  0.3001 -0.4200 -0.5936
  362MOL0     C48791   4.895   8.301   6.005  0.7401  0.2747 -0.1032
  362MOL0     C48792   4.813   8.299   5.885  0.0884 -0.5619  0.5445
  362MOL0     O48793   4.854   8.317   5.753  0.6874  1.3334  0.3637
  362MOL0     C48794   4.978   8.390   5.737  0.0333  0.7360 -0.0888
  362MOL0     C48795   5.025   8.403   5.595 -0.0183 -1.0024 -0.0647
  362MOL0     C48796   4.924   8.488   5.518  0.8608 -0.2965 -0.2003
  362MOL0     C48797   4.972   8.524   5.378 -0.4385 -0.5480 -0.1368
  362MOL0     C48798   4.876   8.591   5.295 -0.3768 -0.1419 -0.9516
  362MOL0     C48799   4.799   8.652   5.231 -0.0289  0.0964  0.9022
  362MOL0     C48800   4.672   8.281   5.900 -0.5208 -0.3110 -0.2815
  362MOL0     C48801   4.610   8.259   6.029 -0.6843 -0.3682 -0.2389
  362MOL0     C48802   4.462   8.244   6.040 -0.5608 -0.5249  0.4409
  362MOL0     H48803   4.831   8.511   6.498 -1.7361 -1.0622 -2.9653
  362MOL0     H48804   4.888   8.513   6.727  0.5949 -0.8161 -0.4099
  362MOL0     H48805   4.682   8.209   7.001  0.8419  0.1398 -4.9306
  362MOL0     H48806   4.751   8.344   7.115 -3.1841  6.1486  0.8542
  362MOL0     H48807   4.496   8.378   6.940 -1.5397 -1.8151  1.5005
  362MOL0     H48808   4.600   8.513   6.998 -1.3145  0.1970 -1.6241
  362MOL0     H48809   4.601   8.407   7.231 -0.3453  1.7485  0.7150
  362MOL0     H48810   4.476   8.296   7.179  3.8418 -1.5303  0.5248
  362MOL0     H48811   4.474   8.600   7.197  3.1858 -2.5393 -0.2341
  362MOL0     H48812   4.323   8.509   7.150  1.4168  0.5344 -1.3193
  362MOL0     H48813   4.305   8.577   7.381  0.4410  1.6465 -1.1554
  362MOL0     H48814   4.319   8.393   7.360 -1.9123  0.8497 -1.3850
  362MOL0     H48815   4.565   8.434   7.440  1.3924  1.0479 -1.5496
  362MOL0     H48816   4.528   8.607   7.434  2.0050 -2.2639  2.1886
  362MOL0     H48817   4.436   8.410   7.645  0.5526 -0.2773 -0.6405
  362MOL0     H48818   4.338   8.541   7.612 -0.4688 -0.0314 -2.2978
  362MOL0     H48819   4.561   8.693   7.632  0.8290 -0.4297 -0.0873
  362MOL0     H48820   4.446   8.651   7.764  0.0235 -3.2907  1.2805
  362MOL0     H48821   4.744   8.516   7.572  1.5890  1.2209  1.6516
  362MOL0     H48822   4.888   8.193   7.692  2.1931 -0.2706  0.4322
  362MOL0     H48823   4.924   8.332   7.586 -1.4626  1.3952 -0.5092
  362MOL0     H48824   5.072   8.427   7.747 -0.5755 -0.1873 -0.5658
  362MOL0     H48825   5.015   8.335   7.890  1.6232 -1.1666 -0.1824
  362MOL0     H48826   5.249   8.284   7.790  1.3070 -2.3148  0.2479
  362MOL0     H48827   5.166   8.223   7.652  0.4768 -0.9751 -0.2593
  362MOL0     H48828   5.239   8.065   7.846  0.0589  0.8590  1.2641
  362MOL0     H48829   5.082   8.045   7.751 -0.5780 -1.8305  2.1903
  362MOL0     H48830   4.978   7.860   7.980  0.3225 -2.8048  1.0376
  362MOL0     H48831   5.069   7.691   8.137 -0.8034  0.9909  1.5311
  362MOL0     H48832   5.142   7.659   8.641  0.9415 -0.3806  2.8602
  362MOL0     H48833   5.181   7.473   8.791 -0.6977  2.0597  0.1153
  362MOL0     H48834   5.459   7.383   8.783  3.6038 -0.9091  2.0886
  362MOL0     H48835   5.349   7.314   8.907 -0.5808  0.9133 -1.1288
  362MOL0     H48836   5.496   7.096   8.863 -1.7020  1.5331  4.3290
  362MOL0     H48837   5.606   7.194   8.776  1.9710 -1.2178  1.9717
  362MOL0     H48838   5.598   7.327   9.012  0.1501  1.1732 -2.2070
  362MOL0     H48839   5.510   7.191   9.067 -1.1318  0.7467 -0.9877
  362MOL0     H48840   5.797   7.210   8.979  2.5145 -1.7496  1.8966
  362MOL0     H48841   5.720   7.050   8.963  1.3360  0.5359 -1.1834
  362MOL0     H48842   5.661   7.070   9.223 -0.5255  1.2835 -0.6137
  362MOL0     H48843   5.746   7.213   9.233  1.5217 -0.3463  0.4656
  362MOL0     H48844   5.952   7.077   9.123 -0.4390 -0.3668 -0.7471
  362MOL0     H48845   5.903   7.046   9.294  2.3986 -0.1469 -0.9172
  362MOL0     H48846   5.812   6.888   9.050 -0.7236  0.6923  0.4707
  362MOL0     H48847   5.768   6.861   9.221  1.0287  0.0290 -0.5037
  362MOL0     H48848   6.037   6.832   9.256  4.3684 -4.3981 -0.0445
  362MOL0     H48849   5.939   6.699   9.189 -0.3862 -0.0435 -0.5797
  362MOL0     H48850   5.339   7.252   8.462  0.7225  0.3087 -1.7684
  362MOL0     H48851   5.252   7.425   8.302 -1.5820 -0.8538 -0.2990
  362MOL0     H48852   5.294   8.019   8.324  1.0364  0.3640 -0.0807
  362MOL0     H48853   5.230   8.161   8.147  2.0817 -1.5961  2.4809
  362MOL0     H48854   4.622   8.168   6.792 -2.4933  1.9754  1.1024
  362MOL0     H48855   4.571   8.164   6.553 -0.1496  0.2698  0.3869
  362MOL0     H48856   4.911   8.261   6.213 -1.9099 -0.6569  1.3399
  362MOL0     H48857   5.002   8.293   5.993  0.7043  1.7409 -1.8828
  362MOL0     H48858   5.065   8.352   5.792  0.1461 -0.0643 -0.7965
  362MOL0     H48859   4.957   8.492   5.771  0.1772  0.3635  1.1843
  362MOL0     H48860   5.040   8.302   5.555  1.9930 -1.8196  2.4165
  362MOL0     H48861   5.126   8.443   5.580 -0.0239 -1.7637 -2.6605
  362MOL0     H48862   4.903   8.574   5.581  1.7937  0.2171 -0.5748
  362MOL0     H48863   4.831   8.432   5.501 -0.5175  2.1470 -1.2029
  362MOL0     H48864   5.059   8.589   5.392 -0.9798  0.1792 -0.0980
  362MOL0     H48865   5.003   8.437   5.319 -0.4912 -1.1697  0.7330
  362MOL0     H48866   4.714   8.704   5.191  0.6135 -0.0421 -0.7103
  362MOL0     H48867   4.618   8.267   5.806 -3.1581 -1.7264  1.3208
  362MOL0     H48868   4.446   8.146   6.086 -0.9923  0.0755  1.6140
  362MOL0     H48869   4.420   8.317   6.110 -0.0037  0.2939 -0.0611
  362MOL0     H48870   4.409   8.245   5.945 -1.6676 -2.6585  0.9641
  363MOL0     O48871   7.763  10.232  11.185 -0.2622 -0.0697  0.2174
  363MOL0     C48872   7.808  10.335  11.226 -1.6100 -0.1964 -0.6105
  363MOL0     O48873   7.937  10.380  11.198 -0.5639 -0.4644  0.4977
  363MOL0     C48874   8.012  10.339  11.088 -0.0305 -0.2447 -0.5538
  363MOL0     C48875   7.962  10.274  10.976 -0.1629 -1.1542  0.3991
  363MOL0     C48876   8.037  10.232  10.866  0.3177 -0.2255 -0.7104
  363MOL0     C48877   8.179  10.258  10.877 -0.6325  1.6728  0.3586
  363MOL0     O48878   8.264  10.219  10.774 -0.1528 -0.0138 -0.0203
  363MOL0     C48879   8.350  10.312  10.722  0.4736 -1.1396  0.8859
  363MOL0     C48880   8.397  10.274  10.580 -0.0969  0.3778 -0.1834
  363MOL0     C48881   8.282  10.296  10.485  1.1678  0.3571 -0.2144
  363MOL0     C48882   8.288  10.204  10.363 -0.1558  0.2313 -0.4010
  363MOL0     C48883   8.405  10.234  10.277  0.3572 -0.2555 -0.0301
  363MOL0     C48884   8.379  10.342  10.180 -0.0730  0.0294 -0.2995
  363MOL0     C48885   8.507  10.361  10.088  0.0896 -0.1118 -0.8140
  363MOL0     C48886   8.506  10.501  10.020  0.0805 -0.1254  0.9313
  363MOL0     N48887   8.403  10.515   9.921  0.4251 -0.3216  0.7285
  363MOL0     C48888   8.413  10.465   9.788 -0.5725 -0.6833  0.0158
  363MOL0     C48889   8.289  10.471   9.747  0.5638 -0.6878  0.5510
  363MOL0     C48890   8.237  10.429   9.616 -0.4400  0.9461  0.2346
  363MOL0     C48891   8.163  10.297   9.616 -0.8507  0.3362 -0.2950
  363MOL0     C48892   8.105  10.259   9.484  0.9111  0.5439  0.6848
  363MOL0     C48893   8.119  10.110   9.461 -0.8461 -0.0216 -0.0861
  363MOL0     O48894   8.251  10.055   9.474  0.0114  0.0200 -0.6294
  363MOL0     C48895   8.260   9.922   9.481  0.0208  0.1967 -0.0619
  363MOL0     C48896   8.385   9.878   9.505  0.4057  0.5610  0.5716
  363MOL0     C48897   8.414   9.736   9.505  0.3237  0.3511 -0.2376
  363MOL0     C48898   8.314   9.638   9.481  0.2793  0.7042  0.4289
  363MOL0     C48899   8.348   9.493   9.475  0.8044  0.8415  1.0328
  363MOL0     O48900   8.246   9.400   9.435 -0.9004  0.0932 -0.8924
  363MOL0     C48901   8.286   9.268   9.446  0.1934 -0.2738  0.1321
  363MOL0     C48902   8.368   9.222   9.343  0.9500  0.2333 -0.0145
  363MOL0     C48903   8.377   9.087   9.325  0.5964  0.4705 -0.1815
  363MOL0     C48904   8.319   8.990   9.412  0.3973  0.1454 -0.1234
  363MOL0     O48905   8.351   8.851   9.404  1.0155  0.4053  0.1904
  363MOL0     C48906   8.401   8.799   9.280  0.2098  0.2048  0.3725
  363MOL0     C48907   8.432   8.645   9.303  0.0078  0.3895 -0.6104
  363MOL0     C48908   8.458   8.586   9.162 -0.4532 -0.3482 -0.2655
  363MOL0     C48909   8.457   8.438   9.168  0.7045 -0.0623  0.2119
  363MOL0     C48910   8.452   8.374   9.028  0.8600  0.1295  0.0618
  363MOL0     C48911   8.402   8.230   9.028  0.1657  1.2085  0.9676
  363MOL0     C48912   8.243   8.231   9.013 -0.1780  0.0131 -0.2055
  363MOL0     C48913   8.181   8.093   9.017 -0.6785 -0.6492 -0.1825
  363MOL0    Cl48914   7.998   8.112   9.037  0.1543  0.2335  0.1893
  363MOL0     C48915   8.244   9.043   9.517 -0.8420  0.7073 -0.6582
  363MOL0     C48916   8.218   9.180   9.528 -0.4145  0.6415  0.7655
  363MOL0     O48917   8.450   9.461   9.521 -0.2677  0.2249 -0.4705
  363MOL0     C48918   8.192   9.687   9.434  0.2604 -0.1949  0.3683
  363MOL0     C48919   8.167   9.825   9.441 -0.3047  0.0546  0.3807
  363MOL0     N48920   8.209  10.533   9.840 -0.3679  0.1266 -0.8561
  363MOL0     N48921   8.271  10.546   9.956  0.4061  0.2789  0.3751
  363MOL0     C48922   8.229  10.329  10.991 -1.1008 -0.0232 -0.1174
  363MOL0     C48923   8.146  10.362  11.095 -0.2445 -0.5037  0.1218
  363MOL0     C48924   7.754  10.402  11.350  0.5871 -0.6841 -0.1275
  363MOL0     C48925   7.614  10.381  11.364 -0.6677 -0.1212 -0.0141
  363MOL0     C48926   7.538  10.436  11.467  0.4724  0.3230  0.1386
  363MOL0     C48927   7.603  10.512  11.559  0.8415 -0.3856 -1.2405
  363MOL0     O48928   7.530  10.591  11.652  0.3740 -0.0999  0.5331
  363MOL0     C48929   7.542  10.741  11.618  0.8102  0.5349 -0.2317
  363MOL0     C48930   7.406  10.817  11.610  0.4499 -0.0515 -0.6445
  363MOL0     C48931   7.294  10.739  11.683  0.2484  0.2323  1.1191
  363MOL0     C48932   7.163  10.813  11.693 -0.3312  0.3649  0.1780
  363MOL0     C48933   7.099  10.769  11.814  0.0966 -0.0056 -0.7210
  363MOL0     C48934   7.044  10.750  11.918 -0.0663 -0.1983  0.8301
  363MOL0     C48935   7.747  10.539  11.551 -0.4925  1.1375 -0.2653
  363MOL0     C48936   7.819  10.482  11.442 -1.3923 -0.9343 -0.1565
  363MOL0     C48937   7.968  10.517  11.454  0.0975 -0.1656  0.2488
  363MOL0     H48938   7.858  10.260  10.951 -0.0440  0.9150 -1.6894
  363MOL0     H48939   7.985  10.192  10.780 -1.9563  1.5381 -0.2581
  363MOL0     H48940   8.313  10.415  10.724  1.9859 -0.5808  1.3819
  363MOL0     H48941   8.436  10.321  10.788  1.7786  3.8434 -1.0223
  363MOL0     H48942   8.429  10.170  10.589  1.0836  0.8945  2.8265
  363MOL0     H48943   8.480  10.341  10.558  0.1051  0.8236  1.7972
  363MOL0     H48944   8.276  10.403  10.468 -1.2078  1.1779  4.2213
  363MOL0     H48945   8.190  10.254  10.528 -0.0231  0.4670 -2.4927
  363MOL0     H48946   8.305  10.099  10.391  1.2667 -0.0013 -1.9809
  363MOL0     H48947   8.202  10.197  10.295  0.3633 -1.5109 -0.9467
  363MOL0     H48948   8.484  10.280  10.338 -0.1242  2.3029 -1.1792
  363MOL0     H48949   8.444  10.144  10.230  0.3186 -1.0170  1.3291
  363MOL0     H48950   8.291  10.313  10.122 -1.4470 -0.4446  1.9018
  363MOL0     H48951   8.357  10.436  10.231 -2.2003 -1.3830  1.5614
  363MOL0     H48952   8.506  10.274  10.022 -1.4371  0.6906 -1.8983
  363MOL0     H48953   8.591  10.347  10.157  0.9152 -3.1908 -2.2619
  363MOL0     H48954   8.509  10.578  10.098 -1.0405  2.4361 -1.3781
  363MOL0     H48955   8.603  10.517   9.973 -1.2230  1.0598 -1.5458
  363MOL0     H48956   8.501  10.436   9.732 -0.0998  1.8198 -0.6649
  363MOL0     H48957   8.164  10.505   9.585 -0.3049 -0.3420 -3.8070
  363MOL0     H48958   8.321  10.430   9.546 -0.0506  3.0716  0.6620
  363MOL0     H48959   8.245  10.234   9.651  0.6776  2.4391  0.1439
  363MOL0     H48960   8.079  10.291   9.685 -0.9794 -2.8220 -0.5966
  363MOL0     H48961   8.154  10.303   9.398  2.7238  0.4968  1.6390
  363MOL0     H48962   7.998  10.282   9.485  0.8516  0.3636  2.2679
  363MOL0     H48963   8.087  10.079   9.361 -2.5260 -0.6075  0.5921
  363MOL0     H48964   8.058  10.060   9.538  0.9340 -2.0932  0.0804
  363MOL0     H48965   8.465   9.946   9.535  1.2096 -0.3761  0.5899
  363MOL0     H48966   8.509   9.698   9.541 -0.3585  1.2376  2.8227
  363MOL0     H48967   8.431   9.283   9.279  2.4824 -1.5459 -0.2788
  363MOL0     H48968   8.436   9.051   9.241  0.9435 -1.1787  0.7257
  363MOL0     H48969   8.332   8.815   9.196 -0.4895  1.9045  1.2261
  363MOL0     H48970   8.497   8.845   9.256  0.6688  0.3359  2.3148
  363MOL0     H48971   8.515   8.626   9.372 -0.5263 -1.4065 -0.4247
  363MOL0     H48972   8.347   8.597   9.352  0.9620 -1.3054 -0.5381
  363MOL0     H48973   8.381   8.618   9.092 -1.1421  1.1312  1.0834
  363MOL0     H48974   8.556   8.622   9.128  1.3637 -1.4006  3.3150
  363MOL0     H48975   8.373   8.407   9.231  1.3985 -1.9269  0.2569
  363MOL0     H48976   8.548   8.417   9.224 -0.4651  1.8788  3.1216
  363MOL0     H48977   8.557   8.381   8.995  1.8149 -2.1298  2.2935
  363MOL0     H48978   8.390   8.422   8.952  2.5166  0.2429 -1.2915
  363MOL0     H48979   8.439   8.176   8.940  0.7492  2.9282  0.1122
  363MOL0     H48980   8.436   8.173   9.115  5.6971  1.3544 -0.6972
  363MOL0     H48981   8.223   8.275   8.915  1.7069 -1.9756 -1.5694
  363MOL0     H48982   8.195   8.299   9.084  1.2042  0.8270 -0.0240
  363MOL0     H48983   8.207   8.039   8.926 -1.3728  0.6882 -1.2107
  363MOL0     H48984   8.221   8.038   9.102 -0.3377 -0.9248 -0.5184
  363MOL0     H48985   8.211   8.967   9.588  0.1222  1.1129  0.2533
  363MOL0     H48986   8.147   9.229   9.593 -0.6773  0.8822  0.2995
  363MOL0     H48987   8.109   9.631   9.393  0.1335 -0.2725  0.7291
  363MOL0     H48988   8.075   9.867   9.402  1.4281  3.0216 -0.8008
  363MOL0     H48989   8.336  10.346  10.999 -0.9988 -1.2681  2.4385
  363MOL0     H48990   8.188  10.411  11.182  4.3210  0.5417 -2.3509
  363MOL0     H48991   7.567  10.312  11.294 -0.1904  0.0284 -0.4878
  363MOL0     H48992   7.431  10.420  11.473  0.8727 -3.0133  0.5883
  363MOL0     H48993   7.585  10.754  11.519  2.1300  1.1780  0.4053
  363MOL0     H48994   7.598  10.794  11.695  2.1760  1.2029 -1.6342
  363MOL0     H48995   7.394  10.825  11.501 -0.3272 -2.2810 -0.7825
  363MOL0     H48996   7.406  10.919  11.650 -0.0551  0.8606 -2.7998
  363MOL0     H48997   7.339  10.738  11.783 -1.6095 -1.1970  1.9946
  363MOL0     H48998   7.284  10.636  11.648  3.1691 -0.4749  2.0694
  363MOL0     H48999   7.191  10.918  11.705  0.9696 -0.1251  1.8956
  363MOL0     H49000   7.098  10.797  11.607 -0.7754  1.5135  0.2781
  363MOL0     H49001   7.001  10.738  12.015 -5.0486  0.4322 -1.0265
  363MOL0     H49002   7.787  10.605  11.627 -1.5455 -0.3322  1.6557
  363MOL0     H49003   8.039  10.437  11.428  4.2517  3.5062 -0.9827
  363MOL0     H49004   7.984  10.606  11.393 -2.9917 -0.5324 -1.2623
  363MOL0     H49005   7.981  10.542  11.560 -0.8649  0.6180  0.1924
  364MOL0     O49006   7.780   8.404   4.277  0.1058 -0.2453 -0.5632
  364MOL0     C49007   7.733   8.347   4.174 -0.8144 -0.2950 -0.2900
  364MOL0     O49008   7.790   8.356   4.048  0.2229  0.1577 -0.4087
  364MOL0     C49009   7.891   8.444   4.027  0.7974  0.1927 -0.6887
  364MOL0     C49010   7.877   8.585   4.013  0.8949  0.8389 -0.2653
  364MOL0     C49011   7.996   8.673   4.001  1.2537 -0.4038  0.6563
  364MOL0     C49012   8.117   8.606   3.999 -1.2430  0.6570  1.0206
  364MOL0     O49013   8.235   8.675   3.968  1.4048  1.1605  0.8315
  364MOL0     C49014   8.253   8.809   4.032 -0.5404  0.0168 -0.3367
  364MOL0     C49015   8.394   8.867   4.006  0.1876  0.1167 -0.4064
  364MOL0     C49016   8.500   8.794   4.085 -0.0232 -1.1509  0.5273
  364MOL0     C49017   8.609   8.893   4.123  0.1568 -0.5998 -0.5219
  364MOL0     C49018   8.653   8.884   4.273 -0.1112 -0.4251  0.6088
  364MOL0     C49019   8.700   8.738   4.303  0.4330 -0.1344  0.2287
  364MOL0     C49020   8.776   8.725   4.440 -0.8023  0.1391  0.6942
  364MOL0     C49021   8.677   8.703   4.551  0.7436 -0.6944  0.4066
  364MOL0     N49022   8.630   8.564   4.558  0.3541 -0.0359  0.3706
  364MOL0     C49023   8.529   8.504   4.482 -0.2862 -0.4354 -0.1991
  364MOL0     C49024   8.511   8.387   4.536 -0.0831  0.5823 -0.4720
  364MOL0     C49025   8.413   8.274   4.506  0.9351 -0.4934  0.7777
  364MOL0     C49026   8.307   8.322   4.408 -0.8133  1.1233  1.0655
  364MOL0     C49027   8.213   8.207   4.379  1.4324  0.3821  0.1250
  364MOL0     C49028   8.235   8.110   4.255 -0.4372 -1.3050 -0.7598
  364MOL0     O49029   8.150   7.990   4.257  0.5296 -0.7703  0.2976
  364MOL0     C49030   8.052   7.981   4.166 -0.2586 -0.4624  0.3902
  364MOL0     C49031   8.080   7.985   4.026 -0.2387  0.3506 -0.3652
  364MOL0     C49032   7.970   7.966   3.944 -0.2701 -0.3428 -0.2134
  364MOL0     C49033   7.834   7.952   3.991 -0.7606 -1.4480  0.4969
  364MOL0     C49034   7.717   7.943   3.896 -0.7367 -0.8108  0.3599
  364MOL0     O49035   7.733   7.949   3.766  0.1551  0.0415  0.2037
  364MOL0     C49036   7.626   7.949   3.677  0.4997 -0.0549 -0.5107
  364MOL0     C49037   7.519   7.858   3.692 -0.3689 -0.0855 -0.0469
  364MOL0     C49038   7.411   7.857   3.601  0.7943  0.5034  0.1229
  364MOL0     C49039   7.418   7.947   3.487  0.7104 -1.0894 -0.3102
  364MOL0     O49040   7.316   7.941   3.393 -0.9065  0.3443 -0.1695
  364MOL0     C49041   7.310   8.006   3.265 -0.7904 -0.5792  0.1817
  364MOL0     C49042   7.165   7.993   3.221 -0.0205  0.9179  0.2487
  364MOL0     C49043   7.139   8.054   3.085  0.4683  0.3590  0.4891
  364MOL0     C49044   6.988   8.044   3.046  0.7056 -1.1872 -1.2026
  364MOL0     C49045   6.956   8.056   2.902 -0.3106 -0.7693  0.9736
  364MOL0     C49046   6.996   8.196   2.844 -0.4414  0.3016 -0.8160
  364MOL0     C49047   6.911   8.319   2.895 -0.0165  0.4445 -0.5421
  364MOL0     C49048   6.957   8.441   2.822  0.1102  0.2137 -0.1493
  364MOL0    Cl49049   6.916   8.421   2.659 -0.3172  0.0516 -0.1561
  364MOL0     C49050   7.536   8.027   3.462  0.8346 -0.0785  0.0167
  364MOL0     C49051   7.634   8.036   3.560  0.2990  0.1558  0.0336
  364MOL0     O49052   7.616   7.916   3.955  0.6297  0.2565 -0.3506
  364MOL0     C49053   7.815   7.938   4.125  0.4763 -0.7693 -0.4062
  364MOL0     C49054   7.927   7.952   4.209  0.3375 -0.0202 -0.0513
  364MOL0     N49055   8.601   8.375   4.653  0.2774 -0.5401  0.1191
  364MOL0     N49056   8.675   8.479   4.658 -0.4563 -0.3558  0.2907
  364MOL0     C49057   8.133   8.468   4.014  0.3004 -0.0692  0.0176
  364MOL0     C49058   8.025   8.388   4.030 -0.2416 -0.7268 -0.0194
  364MOL0     C49059   7.605   8.263   4.196 -0.9715  0.4779 -0.6694
  364MOL0     C49060   7.511   8.253   4.096  0.5497 -0.1898  0.3555
  364MOL0     C49061   7.402   8.168   4.092 -0.4524 -0.1147  0.8573
  364MOL0     C49062   7.369   8.090   4.208 -0.8408 -0.8523  0.2480
  364MOL0     O49063   7.260   8.017   4.221  0.5234  0.4465 -0.3022
  364MOL0     C49064   7.256   7.906   4.129  0.3232 -0.5722  0.8279
  364MOL0     C49065   7.154   7.925   4.008 -0.3180  1.1721 -0.2166
  364MOL0     C49066   7.002   7.939   4.056 -1.5419  0.7124 -0.1274
  364MOL0     C49067   6.911   7.818   4.028  0.8121 -0.3992  0.7184
  364MOL0     C49068   6.939   7.697   4.102 -0.4647  0.2515  0.2173
  364MOL0     C49069   6.958   7.603   4.174  0.2808  0.5103  0.4167
  364MOL0     C49070   7.461   8.107   4.316  0.3242 -0.2052 -0.6983
  364MOL0     C49071   7.574   8.189   4.306 -0.6445  1.3675 -0.8336
  364MOL0     C49072   7.678   8.170   4.427  0.0293 -0.1748 -0.1799
  364MOL0     H49073   7.782   8.636   4.020 -1.5916 -3.5742  2.2679
  364MOL0     H49074   7.984   8.779   4.017  1.5736 -0.3638  0.6350
  364MOL0     H49075   8.190   8.877   3.974  3.5714  3.7516 -0.9315
  364MOL0     H49076   8.245   8.805   4.141  4.3842  0.8741  0.2702
  364MOL0     H49077   8.384   8.970   4.039 -2.4682  0.4363 -1.9099
  364MOL0     H49078   8.408   8.856   3.898 -0.6167 -0.6569 -0.4473
  364MOL0     H49079   8.543   8.729   4.008  2.9811 -0.4825  1.5205
  364MOL0     H49080   8.449   8.748   4.170  0.3108 -1.0395  0.7919
  364MOL0     H49081   8.698   8.882   4.061  0.8416 -0.4439  0.4208
  364MOL0     H49082   8.577   8.997   4.108 -3.8144 -1.8183 -1.8246
  364MOL0     H49083   8.722   8.966   4.294  1.1220 -0.8619 -1.4515
  364MOL0     H49084   8.568   8.905   4.338 -0.1844 -2.2410  1.1523
  364MOL0     H49085   8.622   8.662   4.309 -0.7742  1.1328  1.4797
  364MOL0     H49086   8.773   8.710   4.226  0.4771  1.5786 -0.3978
  364MOL0     H49087   8.833   8.816   4.460 -1.2141  0.4548  0.4585
  364MOL0     H49088   8.844   8.640   4.434 -0.2225  0.6821 -3.0876
  364MOL0     H49089   8.733   8.718   4.644 -1.3774  0.2029  1.5986
  364MOL0     H49090   8.598   8.778   4.551 -1.3675 -2.5993 -3.7328
  364MOL0     H49091   8.472   8.544   4.398 -0.0822  1.1516  0.3838
  364MOL0     H49092   8.473   8.185   4.480  3.4634  0.8939  1.4735
  364MOL0     H49093   8.370   8.245   4.602 -1.1221  0.9137  0.3419
  364MOL0     H49094   8.248   8.401   4.456  0.5089  1.6864  1.8451
  364MOL0     H49095   8.349   8.369   4.318  1.1307  3.0072  2.8533
  364MOL0     H49096   8.117   8.254   4.355  1.5381  0.5835  0.1003
  364MOL0     H49097   8.190   8.141   4.463  0.4984 -1.2365 -1.3074
  364MOL0     H49098   8.339   8.081   4.272 -0.7774 -2.9577 -1.3162
  364MOL0     H49099   8.227   8.168   4.163 -1.8887  0.9938  0.7004
  364MOL0     H49100   8.177   7.999   3.978 -1.5021 -1.2147 -3.6480
  364MOL0     H49101   7.994   7.977   3.839  3.7124 -3.0461  0.1898
  364MOL0     H49102   7.531   7.789   3.774  1.1634  0.5692  0.3282
  364MOL0     H49103   7.324   7.794   3.609 -0.5910  2.5589  2.3660
  364MOL0     H49104   7.352   8.107   3.266 -0.6317 -0.6049 -1.2613
  364MOL0     H49105   7.373   7.964   3.185 -2.5404  1.4997 -2.4856
  364MOL0     H49106   7.140   7.887   3.208 -0.0159  0.8081  1.0861
  364MOL0     H49107   7.098   8.034   3.297 -0.3946  2.2289 -0.7622
  364MOL0     H49108   7.155   8.160   3.103  2.1923 -0.2780  3.3412
  364MOL0     H49109   7.196   8.010   3.002 -1.2425  0.7558 -0.9821
  364MOL0     H49110   6.927   8.107   3.112 -1.6399 -1.6160 -2.8464
  364MOL0     H49111   6.957   7.946   3.083 -0.1491 -0.9945 -1.3953
  364MOL0     H49112   6.849   8.037   2.885 -0.1656  0.4980 -1.9550
  364MOL0     H49113   7.016   7.984   2.847  0.4560  2.2535 -2.5279
  364MOL0     H49114   7.100   8.212   2.872 -0.6128  0.7758 -0.4164
  364MOL0     H49115   7.002   8.197   2.735 -1.5920  2.8608 -0.9521
  364MOL0     H49116   6.957   8.332   2.994  1.3018 -1.7197 -0.8064
  364MOL0     H49117   6.806   8.301   2.871  0.5454  0.7647 -3.7039
  364MOL0     H49118   6.905   8.532   2.853 -3.5786 -1.2539 -1.4441
  364MOL0     H49119   7.065   8.458   2.820  0.2519 -0.6773 -2.2878
  364MOL0     H49120   7.528   8.097   3.379 -3.4427  0.1657  0.4072
  364MOL0     H49121   7.721   8.096   3.534 -0.7690  1.2215 -1.2623
  364MOL0     H49122   7.714   7.939   4.165 -1.2584 -0.5621 -4.3132
  364MOL0     H49123   7.907   7.938   4.314  1.3335 -3.2263 -0.1851
  364MOL0     H49124   8.233   8.425   4.009  0.0048 -0.9074  0.9091
  364MOL0     H49125   8.046   8.282   4.040 -4.0340 -1.9374 -2.7723
  364MOL0     H49126   7.535   8.309   4.006 -0.0948  1.4140  1.1521
  364MOL0     H49127   7.345   8.171   4.000 -1.8307  0.3294  1.6945
  364MOL0     H49128   7.231   7.809   4.174 -2.0983 -0.4335 -0.1033
  364MOL0     H49129   7.349   7.904   4.072 -0.0437 -1.1920  0.2412
  364MOL0     H49130   7.163   7.837   3.944 -4.1913 -0.6243  1.3930
  364MOL0     H49131   7.185   8.020   3.963 -2.9794  2.0210 -0.4737
  364MOL0     H49132   6.958   8.025   4.005  0.7636  1.8837 -0.2693
  364MOL0     H49133   7.002   7.956   4.164 -1.1779  0.8560 -0.1462
  364MOL0     H49134   6.809   7.853   4.046  0.4046  0.0862 -2.0202
  364MOL0     H49135   6.915   7.798   3.920  1.2215 -1.0132  0.8432
  364MOL0     H49136   6.983   7.519   4.235  2.1110  0.5970 -0.1482
  364MOL0     H49137   7.441   8.067   4.415  0.4345 -1.4168 -1.1550
  364MOL0     H49138   7.625   8.112   4.503 -0.7607 -0.3485 -0.8452
  364MOL0     H49139   7.762   8.112   4.388 -1.1252 -2.3008  0.3529
  364MOL0     H49140   7.713   8.265   4.469  1.5543 -1.5038  1.6508
  365MOL0     O49141   8.641   1.622   8.557  0.7043 -0.1127 -0.5398
  365MOL0     C49142   8.742   1.690   8.550  0.1385 -0.1976  0.0038
  365MOL0     O49143   8.815   1.735   8.656 -0.3626 -0.2623  0.0230
  365MOL0     C49144   8.804   1.689   8.781 -0.9131 -0.1677 -0.0680
  365MOL0     C49145   8.883   1.758   8.878 -0.6064  0.6451  0.4429
  365MOL0     C49146   8.886   1.734   9.017 -0.5372  0.1169 -0.6353
  365MOL0     C49147   8.811   1.619   9.049 -1.2477  0.8870 -0.2596
  365MOL0     O49148   8.822   1.567   9.176 -0.4937 -0.3515 -0.7657
  365MOL0     C49149   8.919   1.626   9.267 -0.1005 -0.3142  0.3272
  365MOL0     C49150   8.932   1.537   9.391  0.5688 -0.3671  0.5174
  365MOL0     C49151   8.803   1.488   9.462  0.3367  0.0031  0.0122
  365MOL0     C49152   8.819   1.337   9.514  0.3610 -1.2395 -0.0971
  365MOL0     C49153   8.683   1.296   9.562 -0.2634 -0.3794 -0.3963
  365MOL0     C49154   8.649   1.342   9.711 -0.1298  0.0234 -0.2341
  365MOL0     C49155   8.529   1.286   9.774  0.6173  0.4047  1.0382
  365MOL0     C49156   8.407   1.290   9.694 -0.1369  0.6808 -0.2683
  365MOL0     N49157   8.369   1.426   9.666 -0.0628  0.0790 -0.2874
  365MOL0     C49158   8.394   1.512   9.569 -0.4506 -0.2360 -1.1766
  365MOL0     C49159   8.363   1.637   9.614  0.4164  0.2733 -0.3131
  365MOL0     C49160   8.392   1.774   9.548  0.3971 -0.0200 -0.9024
  365MOL0     C49161   8.451   1.877   9.640  0.9193 -0.1585  0.0668
  365MOL0     C49162   8.594   1.834   9.691  0.1162  0.1300 -0.1137
  365MOL0     C49163   8.647   1.943   9.777 -0.5914 -0.1975 -0.1517
  365MOL0     O49164   8.669   2.079   9.717  0.5820  0.5109 -0.0350
  365MOL0     C49165   8.773   2.078   9.618  0.6057  0.1504 -0.2835
  365MOL0     C49166   8.910   2.095   9.642 -0.9432  0.1026 -0.0620
  365MOL0     C49167   9.001   2.124   9.539  0.3250  0.2600 -0.3623
  365MOL0     C49168   8.955   2.119   9.412 -0.7952  0.1686  0.2698
  365MOL0     C49169   9.046   2.153   9.289  0.0535  0.2938 -0.4836
  365MOL0     O49170   8.987   2.164   9.170 -0.3185  0.3335  0.8436
  365MOL0     C49171   9.050   2.198   9.051  0.3086 -0.0484  1.2460
  365MOL0     C49172   8.992   2.301   8.966  0.3568 -0.1684 -0.6145
  365MOL0     C49173   9.045   2.307   8.834  0.0597 -0.7678  0.5430
  365MOL0     C49174   9.155   2.223   8.785 -0.0613 -0.7882  0.0729
  365MOL0     O49175   9.208   2.217   8.660 -0.3244  0.5934 -0.0715
  365MOL0     C49176   9.138   2.299   8.568  0.4383  0.1952 -0.0911
  365MOL0     C49177   9.204   2.319   8.433 -0.3758 -0.4728  0.2795
  365MOL0     C49178   9.315   2.423   8.444 -0.4424  0.3012 -0.8674
  365MOL0     C49179   9.448   2.361   8.481 -0.5804  0.2099 -0.5511
  365MOL0     C49180   9.560   2.461   8.494  0.7521 -0.0596 -0.3193
  365MOL0     C49181   9.569   2.510   8.635  1.0347 -0.8751 -0.6323
  365MOL0     C49182   9.700   2.592   8.657 -0.5097 -0.0844 -0.6066
  365MOL0     C49183   9.716   2.661   8.797  0.6257 -0.0043 -0.5287
  365MOL0    Cl49184   9.721   2.529   8.905 -0.1242 -0.3480 -0.1324
  365MOL0     C49185   9.214   2.131   8.881 -0.2487 -0.3212 -0.0721
  365MOL0     C49186   9.160   2.120   9.009 -0.4146  0.3285  0.5380
  365MOL0     O49187   9.163   2.171   9.315  0.3690  0.2413 -0.0950
  365MOL0     C49188   8.818   2.100   9.395 -0.1428  0.8552  0.2795
  365MOL0     C49189   8.727   2.083   9.489 -0.2631  0.2270  0.1079
  365MOL0     N49190   8.305   1.623   9.743  0.4761  0.6379  0.6049
  365MOL0     N49191   8.296   1.493   9.762 -0.8256 -0.2771  0.5001
  365MOL0     C49192   8.726   1.552   8.963  0.6466  0.6564  0.8648
  365MOL0     C49193   8.733   1.571   8.824 -0.2909 -0.3834  0.2533
  365MOL0     C49194   8.788   1.722   8.412  0.4640  0.6429 -0.6339
  365MOL0     C49195   8.718   1.666   8.302  0.1783 -0.0452  0.3271
  365MOL0     C49196   8.764   1.699   8.172 -0.4732 -0.2795  0.0618
  365MOL0     C49197   8.880   1.767   8.152  0.1236  0.4941 -0.8648
  365MOL0     O49198   8.916   1.805   8.029 -0.6594 -0.1446  0.0054
  365MOL0     C49199   9.056   1.774   7.993  1.2458  0.5195 -0.3284
  365MOL0     C49200   9.068   1.692   7.866  0.2857  0.1418 -1.0798
  365MOL0     C49201   9.014   1.551   7.890  0.5229  0.5381 -0.5939
  365MOL0     C49202   8.958   1.493   7.765 -0.2244 -0.4426  0.1728
  365MOL0     C49203   8.894   1.367   7.774  0.4251  0.2518 -0.5881
  365MOL0     C49204   8.834   1.261   7.787 -0.2316 -0.0971  0.2585
  365MOL0     C49205   8.946   1.821   8.260  0.5561 -0.6006  0.5301
  365MOL0     C49206   8.893   1.812   8.388 -0.3282  0.2341  1.1244
  365MOL0     C49207   8.951   1.914   8.489  0.2672  0.4047 -0.0764
  365MOL0     H49208   8.956   1.828   8.838 -0.6323 -0.1274 -1.0062
  365MOL0     H49209   8.946   1.789   9.089  1.1695 -0.7850 -1.2965
  365MOL0     H49210   9.017   1.621   9.219 -0.9859  0.0548 -1.6171
  365MOL0     H49211   8.903   1.728   9.303  1.7065 -0.4479  1.6100
  365MOL0     H49212   8.987   1.591   9.468 -1.3515  1.0561  0.9783
  365MOL0     H49213   8.993   1.452   9.360 -0.6011 -1.6116  1.4784
  365MOL0     H49214   8.708   1.495   9.407 -2.0723  1.2935  3.9107
  365MOL0     H49215   8.781   1.537   9.557  1.9767 -1.1483  1.0272
  365MOL0     H49216   8.840   1.288   9.418 -1.0384  2.1129 -2.2742
  365MOL0     H49217   8.895   1.334   9.593  0.3548 -2.1497 -0.1170
  365MOL0     H49218   8.605   1.330   9.493 -0.1002 -1.1559 -0.9818
  365MOL0     H49219   8.694   1.187   9.560  0.5620 -0.2844 -1.4094
  365MOL0     H49220   8.737   1.323   9.773 -0.9987  0.1408  1.0665
  365MOL0     H49221   8.643   1.451   9.714  0.4364  0.0627 -0.3194
  365MOL0     H49222   8.493   1.339   9.863 -2.9785 -0.2206  0.1135
  365MOL0     H49223   8.540   1.181   9.801  0.7241  0.4731  1.2696
  365MOL0     H49224   8.422   1.238   9.599  0.3666  3.5274 -1.8810
  365MOL0     H49225   8.329   1.245   9.756 -0.7703  1.1834 -0.6857
  365MOL0     H49226   8.436   1.477   9.475  0.3623 -2.7798  0.0753
  365MOL0     H49227   8.463   1.769   9.465  0.2044 -3.0753 -1.0021
  365MOL0     H49228   8.295   1.815   9.520  0.0336  0.2476  0.6404
  365MOL0     H49229   8.450   1.960   9.569 -0.3185 -1.2486 -1.2584
  365MOL0     H49230   8.384   1.888   9.726  3.4482  1.6103  1.9554
  365MOL0     H49231   8.655   1.815   9.602 -0.0431 -2.0817  0.1964
  365MOL0     H49232   8.585   1.747   9.757  1.3966  0.0534 -0.0189
  365MOL0     H49233   8.738   1.897   9.817 -0.1886  1.3122  0.7357
  365MOL0     H49234   8.578   1.953   9.862  1.0853  2.2313  1.0261
  365MOL0     H49235   8.937   2.098   9.747 -0.3268  2.3175 -0.2400
  365MOL0     H49236   9.108   2.114   9.551 -0.0159  0.3375  4.9682
  365MOL0     H49237   8.909   2.364   8.996  0.6303  0.9009 -1.9934
  365MOL0     H49238   9.004   2.384   8.770  0.4163 -1.0920 -0.0838
  365MOL0     H49239   9.035   2.264   8.556  0.6771 -0.7534  0.4596
  365MOL0     H49240   9.132   2.399   8.611  0.2203  1.1737 -2.2772
  365MOL0     H49241   9.247   2.226   8.395 -1.8162  0.0140 -2.9116
  365MOL0     H49242   9.133   2.358   8.358  0.4759  0.3158 -0.1317
  365MOL0     H49243   9.335   2.456   8.342 -0.2736  1.4413 -0.4892
  365MOL0     H49244   9.283   2.505   8.509 -0.9194 -1.2850  1.0054
  365MOL0     H49245   9.494   2.300   8.403  4.2010  2.6472 -0.0285
  365MOL0     H49246   9.450   2.295   8.568  0.6819  0.9576  0.0132
  365MOL0     H49247   9.546   2.543   8.423 -5.2282 -1.2423 -0.9931
  365MOL0     H49248   9.657   2.414   8.475  0.6420 -0.3166 -0.2473
  365MOL0     H49249   9.492   2.586   8.651 -0.9378 -2.6827 -1.1396
  365MOL0     H49250   9.556   2.439   8.717  1.3621 -0.1764  0.0482
  365MOL0     H49251   9.705   2.674   8.585 -1.4813  3.4292  2.9539
  365MOL0     H49252   9.786   2.528   8.636  0.0235 -0.5037  2.3946
  365MOL0     H49253   9.807   2.721   8.795 -0.1842  1.2693 -1.1179
  365MOL0     H49254   9.624   2.719   8.809  0.4217 -0.2500 -0.8671
  365MOL0     H49255   9.302   2.073   8.852  1.6763  0.8315  2.9739
  365MOL0     H49256   9.186   2.036   9.073 -1.5652 -0.9838 -0.6328
  365MOL0     H49257   8.774   2.085   9.297 -0.8800  2.0399  0.4063
  365MOL0     H49258   8.621   2.074   9.469 -0.5168 -0.3272  1.6252
  365MOL0     H49259   8.650   1.485   9.004 -2.1709  4.2043  1.8985
  365MOL0     H49260   8.670   1.517   8.755 -1.2767 -0.3472  1.1010
  365MOL0     H49261   8.632   1.599   8.307 -1.5479  2.0112 -0.5556
  365MOL0     H49262   8.734   1.664   8.074  0.2326  1.3739 -0.7886
  365MOL0     H49263   9.106   1.719   8.073 -0.8149  0.6269  1.1260
  365MOL0     H49264   9.102   1.872   7.978 -0.8304  1.6243  0.0859
  365MOL0     H49265   9.168   1.678   7.824  1.3596 -1.1507  1.6677
  365MOL0     H49266   9.026   1.749   7.782  2.1917  2.5644 -0.5155
  365MOL0     H49267   8.931   1.552   7.961  0.8250  0.8441 -0.2422
  365MOL0     H49268   9.089   1.483   7.931 -0.4200  0.5467  1.2059
  365MOL0     H49269   8.879   1.560   7.729  0.6780  2.1638  2.6042
  365MOL0     H49270   9.045   1.482   7.700  0.8470 -2.7511  1.8494
  365MOL0     H49271   8.776   1.172   7.797  1.3544 -1.0468  1.4916
  365MOL0     H49272   9.028   1.890   8.245  1.4449 -1.4691  1.2599
  365MOL0     H49273   9.023   1.875   8.560 -0.9468 -0.3235  0.7987
  365MOL0     H49274   9.008   1.990   8.434  1.9863  0.8155  2.1269
  365MOL0     H49275   8.873   1.965   8.547 -3.8008 -0.9802 -3.7027
  366MOL0     O49276  10.772   2.250   7.278 -0.0515 -0.0475  0.3062
  366MOL0     C49277  10.681   2.169   7.265  0.4595  0.5401 -0.6689
  366MOL0     O49278  10.658   2.049   7.333  0.1486  0.7687 -0.7856
  366MOL0     C49279  10.741   2.028   7.436  0.5832  0.5086  0.0962
  366MOL0     C49280  10.686   2.059   7.562 -0.0882 -0.7607 -0.8628
  366MOL0     C49281  10.755   2.042   7.683 -0.2811 -1.0260  0.4709
  366MOL0     C49282  10.893   1.996   7.668  0.2575  0.0820 -0.5651
  366MOL0     O49283  10.973   1.982   7.780 -0.0184  0.1811 -0.3351
  366MOL0     C49284  10.902   1.952   7.902  0.3421  0.5764  0.5716
  366MOL0     C49285  10.999   1.908   8.018 -0.2334  0.0022  0.3878
  366MOL0     C49286  11.025   1.767   8.032 -0.7913  0.0843 -0.2969
  366MOL0     C49287  11.065   1.750   8.186 -0.8683  0.0240  0.0349
  366MOL0     C49288  11.097   1.606   8.228  0.4269  0.3259 -0.2049
  366MOL0     C49289  11.162   1.593   8.362 -0.7343  0.0440 -0.3532
  366MOL0     C49290  11.229   1.459   8.400  0.4468 -0.3274 -0.0923
  366MOL0     C49291  11.345   1.478   8.497 -0.5931 -0.3699  0.1679
  366MOL0     N49292  11.379   1.343   8.551 -0.1977  0.0800 -0.8921
  366MOL0     C49293  11.474   1.260   8.485  0.1224 -0.1701  0.4343
  366MOL0     C49294  11.507   1.168   8.579  0.4764 -0.5150 -0.3762
  366MOL0     C49295  11.600   1.050   8.558  0.3360 -0.5528  0.8914
  366MOL0     C49296  11.563   0.939   8.654  0.5116 -0.3263  0.5259
  366MOL0     C49297  11.646   0.951   8.778  0.5198  1.4132  0.7449
  366MOL0     C49298  11.611   0.824   8.864 -0.1376  1.4461  0.6486
  366MOL0     O49299  11.637   0.699   8.796  0.2450 -0.1863  0.0319
  366MOL0     C49300  11.767   0.655   8.794 -0.1963  0.6061 -0.6015
  366MOL0     C49301  11.877   0.721   8.836 -0.7731 -0.4828  0.5475
  366MOL0     C49302  12.009   0.690   8.810  0.2177 -0.4003  1.1541
  366MOL0     C49303  12.028   0.575   8.733  0.3306  0.0974  0.5139
  366MOL0     C49304  12.159   0.524   8.702 -0.4852  0.1273  0.1816
  366MOL0     O49305  12.170   0.424   8.602  0.2930 -0.3985 -0.4320
  366MOL0     C49306  12.283   0.401   8.536  0.5437 -0.4371  0.8770
  366MOL0     C49307  12.343   0.490   8.451  0.6875 -0.7361 -0.6931
  366MOL0     C49308  12.469   0.452   8.387  0.0097 -0.5483  0.2538
  366MOL0     C49309  12.526   0.329   8.394 -0.3925  0.1589  0.1810
  366MOL0     O49310  12.652   0.306   8.347 -1.1022  0.3410  0.1645
  366MOL0     C49311  12.677   0.219   8.235 -0.0915  0.0601  0.7045
  366MOL0     C49312  12.826   0.230   8.211 -1.5763 -0.5964 -0.1539
  366MOL0     C49313  12.858   0.141   8.088 -0.0823 -0.3179  0.2218
  366MOL0     C49314  13.006   0.126   8.058  0.1570  0.9646 -0.0418
  366MOL0     C49315  13.030   0.076   7.911 -0.5677  0.0315  0.2982
  366MOL0     C49316  13.186   0.043   7.893 -0.6596  0.0995  0.5441
  366MOL0     C49317  13.265   0.173   7.893 -0.4464  0.5356  0.3994
  366MOL0     C49318  13.415   0.120   7.887  0.1381 -0.4069 -0.2374
  366MOL0    Cl49319  13.470   0.038   7.743  0.5223  0.1038  0.0103
  366MOL0     C49320  12.461   0.231   8.470 -0.3942 -0.5529 -0.7317
  366MOL0     C49321  12.343   0.264   8.540 -0.2415 -1.1259 -0.0199
  366MOL0     O49322  12.258   0.568   8.764  0.2595  0.3121 -0.4022
  366MOL0     C49323  11.919   0.495   8.688 -0.6541 -0.5216 -0.1118
  366MOL0     C49324  11.793   0.534   8.721  0.2189 -0.3683  0.6102
  366MOL0     N49325  11.438   1.201   8.697  0.4433  0.8662  0.7238
  366MOL0     N49326  11.364   1.305   8.678 -0.2671  0.5591 -0.0326
  366MOL0     C49327  10.951   1.969   7.542  0.0906 -0.9056 -1.1572
  366MOL0     C49328  10.872   1.982   7.432  0.1644 -0.9984  0.0522
  366MOL0     C49329  10.603   2.199   7.138  0.3252 -0.1174 -0.2866
  366MOL0     C49330  10.564   2.076   7.072  0.3278 -1.3000 -0.5434
  366MOL0     C49331  10.467   2.080   6.968 -0.3221  0.0160 -0.2122
  366MOL0     C49332  10.401   2.194   6.923 -0.1444 -0.1246  0.8454
  366MOL0     O49333  10.305   2.185   6.828  0.1708 -0.0388 -0.3811
  366MOL0     C49334  10.211   2.289   6.796  0.5734 -0.5139  0.0161
  366MOL0     C49335  10.112   2.303   6.899 -0.0288  0.1334 -0.1945
  366MOL0     C49336  10.028   2.428   6.902  0.6459 -0.1675  0.6199
  366MOL0     C49337   9.950   2.448   6.768 -0.0707 -0.1080 -0.6442
  366MOL0     C49338   9.842   2.540   6.765 -0.3619  0.5979  0.4322
  366MOL0     C49339   9.744   2.608   6.779 -0.2292 -1.1663  0.1035
  366MOL0     C49340  10.440   2.312   6.994  0.2502 -0.2729 -0.3395
  366MOL0     C49341  10.533   2.320   7.101  0.9863 -0.5868  0.4572
  366MOL0     C49342  10.543   2.448   7.178  0.2796  0.3073  0.4229
  366MOL0     H49343  10.585   2.097   7.571 -0.4090 -1.7327 -0.3494
  366MOL0     H49344  10.711   2.061   7.780 -2.5047 -1.0709 -0.4550
  366MOL0     H49345  10.859   2.044   7.941 -0.9093 -1.5195  4.8366
  366MOL0     H49346  10.830   1.870   7.887 -1.0076  1.9100 -0.4730
  366MOL0     H49347  10.947   1.929   8.112 -0.7368 -0.9376  0.3288
  366MOL0     H49348  11.098   1.953   8.013  1.0960 -2.8052  0.1497
  366MOL0     H49349  11.113   1.743   7.971 -1.1430  1.1912 -1.2658
  366MOL0     H49350  10.941   1.702   8.006 -2.3848  0.2758  3.6380
  366MOL0     H49351  11.158   1.807   8.192 -0.0030 -0.8986 -3.1754
  366MOL0     H49352  11.010   1.805   8.264  0.4463 -2.3327  2.7951
  366MOL0     H49353  11.019   1.530   8.225  0.1743  0.5743 -3.4062
  366MOL0     H49354  11.167   1.568   8.153 -0.7606 -0.6387 -0.8656
  366MOL0     H49355  11.244   1.666   8.356  1.4342 -2.0448  1.7025
  366MOL0     H49356  11.085   1.625   8.434 -1.4145 -0.1081 -1.0094
  366MOL0     H49357  11.251   1.421   8.300 -1.1091  3.7657 -2.2284
  366MOL0     H49358  11.154   1.398   8.451 -1.8656  3.2070  1.1117
  366MOL0     H49359  11.431   1.516   8.440 -1.9034 -0.0161 -1.6569
  366MOL0     H49360  11.321   1.548   8.577  0.4157  0.5852 -0.3408
  366MOL0     H49361  11.508   1.267   8.382  5.3776  1.6884  1.9856
  366MOL0     H49362  11.580   1.011   8.459 -0.2940  0.9737  0.3799
  366MOL0     H49363  11.704   1.081   8.575 -0.5736  2.7481  1.2763
  366MOL0     H49364  11.458   0.946   8.683 -0.2550  0.4069 -2.0830
  366MOL0     H49365  11.567   0.839   8.610 -3.4288 -0.1863 -0.4919
  366MOL0     H49366  11.630   1.045   8.831 -1.4827  2.7128 -1.9582
  366MOL0     H49367  11.752   0.962   8.751  1.1576 -1.1407  1.9063
  366MOL0     H49368  11.503   0.840   8.870 -0.5213  1.3548 -3.4189
  366MOL0     H49369  11.655   0.820   8.964 -1.7655 -3.5069  1.4230
  366MOL0     H49370  11.866   0.814   8.890  1.2856  1.3594 -1.9940
  366MOL0     H49371  12.081   0.759   8.853 -0.5066  0.5245  0.9420
  366MOL0     H49372  12.287   0.583   8.442 -1.3422 -1.9233 -1.0149
  366MOL0     H49373  12.528   0.525   8.333 -1.9277  1.1832  0.3665
  366MOL0     H49374  12.660   0.112   8.251 -0.5609 -0.1615 -1.0995
  366MOL0     H49375  12.611   0.239   8.150 -4.3757 -0.0941  3.6707
  366MOL0     H49376  12.861   0.332   8.195 -1.2557 -1.1323 -3.4827
  366MOL0     H49377  12.872   0.187   8.301  0.7078 -0.9323 -1.4112
  366MOL0     H49378  12.822   0.038   8.095 -1.7908  0.2802  0.7187
  366MOL0     H49379  12.815   0.182   7.997  1.0406  1.1892  0.3377
  366MOL0     H49380  13.055   0.059   8.128 -3.5212 -0.2242  1.6503
  366MOL0     H49381  13.052   0.223   8.077  2.0585 -0.4653  3.7191
  366MOL0     H49382  13.002   0.150   7.835  0.0810 -1.1954 -1.2084
  366MOL0     H49383  12.973  -0.014   7.883 -0.0898  0.5409 -2.6215
  366MOL0     H49384  13.220  -0.042   7.953 -1.4318 -2.3563 -2.2153
  366MOL0     H49385  13.194  -0.003   7.794 -0.7962  0.2810  0.4477
  366MOL0     H49386  13.264   0.237   7.981 -1.6411  1.4257 -0.2286
  366MOL0     H49387  13.238   0.238   7.809 -0.4660 -0.6151 -0.5116
  366MOL0     H49388  13.477   0.209   7.898  2.5452 -2.1144  0.7660
  366MOL0     H49389  13.436   0.057   7.974 -1.5365  3.1051  3.0046
  366MOL0     H49390  12.493   0.128   8.481  0.2713 -0.1588  1.5282
  366MOL0     H49391  12.313   0.176   8.597  1.1575 -1.4635  0.2313
  366MOL0     H49392  11.928   0.398   8.639 -3.6293 -1.6920  1.4377
  366MOL0     H49393  11.714   0.471   8.681  0.6864  0.6401 -2.1586
  366MOL0     H49394  11.056   1.944   7.539 -0.1938 -2.8132  1.3750
  366MOL0     H49395  10.920   1.972   7.335 -1.3636 -2.6607 -0.5876
  366MOL0     H49396  10.596   1.975   7.092  0.6080 -1.0579  0.2550
  366MOL0     H49397  10.441   1.991   6.910 -0.9362  0.9022 -1.3358
  366MOL0     H49398  10.161   2.267   6.701 -1.6765 -2.0147  1.4681
  366MOL0     H49399  10.264   2.384   6.788  0.7876 -0.7713 -3.5397
  366MOL0     H49400  10.138   2.284   7.004 -0.8976  3.5927  0.7901
  366MOL0     H49401  10.045   2.219   6.882 -0.4419  0.8173 -2.2133
  366MOL0     H49402  10.076   2.523   6.927 -0.1819 -0.1916  2.4546
  366MOL0     H49403   9.955   2.404   6.980  1.5089 -1.0227  1.1868
  366MOL0     H49404  10.007   2.458   6.675 -0.2988  1.8094 -0.6214
  366MOL0     H49405   9.891   2.357   6.754 -0.5696  0.5153 -3.1266
  366MOL0     H49406   9.664   2.677   6.791  2.1277  1.4135  2.5971
  366MOL0     H49407  10.376   2.398   6.979  0.1655  0.0142  1.4318
  366MOL0     H49408  10.601   2.429   7.269  0.9630 -0.8461 -0.2252
  366MOL0     H49409  10.590   2.525   7.116  1.0591 -0.5311 -0.0515
  366MOL0     H49410  10.446   2.491   7.205  1.2545  0.7609  3.6756
  367MOL0     O49411   3.761   7.914   0.018 -0.4321  0.0113  0.7285
  367MOL0     C49412   3.855   7.882   0.085 -0.7230 -0.7937  0.4824
  367MOL0     O49413   3.980   7.926   0.055 -0.0092  0.2445  0.3475
  367MOL0     C49414   4.014   7.982  -0.064  0.2093 -0.5289 -0.6350
  367MOL0     C49415   4.079   8.108  -0.067 -0.5119  0.0711 -0.3225
  367MOL0     C49416   4.123   8.153  -0.200 -0.0914  0.2587 -0.5034
  367MOL0     C49417   4.085   8.088  -0.316 -0.1574 -1.2370  0.3907
  367MOL0     O49418   4.106   8.144  -0.443  0.0051 -0.1644 -0.4163
  367MOL0     C49419   4.166   8.072  -0.547  0.9561  0.3048  0.0501
  367MOL0     C49420   4.252   8.177  -0.623  0.3248 -0.2221  0.3920
  367MOL0     C49421   4.283   8.134  -0.769  0.5088  0.4171  0.0191
  367MOL0     C49422   4.355   8.004  -0.785  0.1323 -0.3376 -0.5658
  367MOL0     C49423   4.500   8.016  -0.715  0.8587 -0.0128 -0.7557
  367MOL0     C49424   4.611   8.053  -0.801  0.4941 -0.2857  0.5149
  367MOL0     C49425   4.743   8.029  -0.735 -0.3266 -1.6931 -0.3819
  367MOL0     C49426   4.764   8.130  -0.617 -0.0794 -1.1413  0.5587
  367MOL0     N49427   4.903   8.139  -0.578  0.9453  0.3698 -0.3787
  367MOL0     C49428   4.993   8.220  -0.643 -1.7910  0.3702  0.3664
  367MOL0     C49429   5.103   8.234  -0.560  0.4618 -0.2569 -0.1917
  367MOL0     C49430   5.215   8.321  -0.593 -0.6296  0.1772 -0.2200
  367MOL0     C49431   5.344   8.238  -0.584  0.0405  0.0469  0.7457
  367MOL0     C49432   5.450   8.328  -0.657 -0.2167 -0.2304 -0.1566
  367MOL0     C49433   5.581   8.286  -0.606  0.1238  0.2277 -0.1748
  367MOL0     O49434   5.628   8.173  -0.672 -0.1476  0.9689  0.5061
  367MOL0     C49435   5.758   8.146  -0.662  0.5729  0.7713 -0.3973
  367MOL0     C49436   5.849   8.189  -0.553 -0.3416  0.0452  0.9977
  367MOL0     C49437   5.978   8.143  -0.542 -0.2823 -0.1855 -0.1818
  367MOL0     C49438   6.007   8.027  -0.611 -0.3733  0.4566  0.4653
  367MOL0     C49439   6.148   7.965  -0.581  0.2488 -0.5126  0.5062
  367MOL0     O49440   6.164   7.835  -0.607  0.0688  0.7153  0.3335
  367MOL0     C49441   6.278   7.768  -0.572  0.6320  0.3401 -0.2498
  367MOL0     C49442   6.329   7.693  -0.675  0.5267 -0.9849  0.8724
  367MOL0     C49443   6.456   7.632  -0.663 -0.2473 -1.3972  0.3875
  367MOL0     C49444   6.521   7.634  -0.538  0.8915  0.3988  0.2409
  367MOL0     O49445   6.638   7.563  -0.517  0.2143 -1.1621  0.0847
  367MOL0     C49446   6.623   7.440  -0.448  0.0814 -0.1853 -0.0506
  367MOL0     C49447   6.546   7.322  -0.520  0.7929 -0.6337 -0.4853
  367MOL0     C49448   6.621   7.274  -0.643 -0.3107 -0.0243 -0.0506
  367MOL0     C49449   6.542   7.157  -0.702 -0.3003  0.2126 -0.9395
  367MOL0     C49450   6.587   7.104  -0.844  0.7458 -0.3037 -0.7503
  367MOL0     C49451   6.501   6.981  -0.870 -1.1782 -0.4731  0.5326
  367MOL0     C49452   6.536   6.908  -1.007  0.5489 -0.4909 -0.9490
  367MOL0     C49453   6.648   6.800  -0.997 -0.3051  0.7770 -0.3617
  367MOL0    Cl49454   6.814   6.844  -0.931  0.3466 -0.2938 -0.1913
  367MOL0     C49455   6.477   7.715  -0.437  0.7295  0.5263 -0.0739
  367MOL0     C49456   6.354   7.779  -0.453  0.1827 -0.4429  0.8597
  367MOL0     O49457   6.232   8.046  -0.548 -0.3429 -0.0250  0.3639
  367MOL0     C49458   5.921   7.982  -0.718 -0.5730 -0.1083 -1.1209
  367MOL0     C49459   5.808   8.049  -0.755  0.2042 -0.9964  0.2202
  367MOL0     N49460   5.081   8.155  -0.447  0.2570 -0.2302 -0.6734
  367MOL0     N49461   4.958   8.102  -0.460  0.5006  0.0871 -0.1908
  367MOL0     C49462   4.010   7.973  -0.314 -0.2599  0.5985  0.0311
  367MOL0     C49463   3.974   7.920  -0.183  0.4447 -1.0446  0.4842
  367MOL0     C49464   3.852   7.799   0.210  0.0177  0.5482  0.0805
  367MOL0     C49465   3.961   7.725   0.244 -0.3585 -1.0976 -1.3626
  367MOL0     C49466   3.978   7.651   0.361  0.8340 -0.7600 -0.0745
  367MOL0     C49467   3.864   7.641   0.437  0.3258  0.1411 -0.5133
  367MOL0     O49468   3.847   7.548   0.540  0.0757 -0.2180 -0.8082
  367MOL0     C49469   3.963   7.496   0.612 -0.8229  0.5705  1.0927
  367MOL0     C49470   4.019   7.602   0.708  0.0493  0.1973 -0.6021
  367MOL0     C49471   3.909   7.685   0.776 -0.1282  0.7331 -0.2094
  367MOL0     C49472   3.820   7.601   0.870  0.2481  0.1645  0.8031
  367MOL0     C49473   3.730   7.692   0.944 -0.1185 -0.2427 -0.6574
  367MOL0     C49474   3.674   7.767   1.026 -1.0287 -0.7629 -0.4073
  367MOL0     C49475   3.747   7.708   0.406 -0.1759  0.1222  0.5975
  367MOL0     C49476   3.744   7.796   0.294 -0.0404  0.3449  0.5101
  367MOL0     C49477   3.615   7.878   0.279  0.1047 -0.4894  0.1097
  367MOL0     H49478   4.099   8.177   0.014  1.6447 -3.5976  2.6111
  367MOL0     H49479   4.172   8.248  -0.217  3.1792 -1.2607 -0.4405
  367MOL0     H49480   4.236   7.994  -0.516 -0.7128 -1.8281 -1.2374
  367MOL0     H49481   4.092   8.028  -0.614  1.4186  0.5156 -0.6172
  367MOL0     H49482   4.340   8.194  -0.560  0.1042 -0.8526  0.8795
  367MOL0     H49483   4.193   8.269  -0.626 -2.2117 -1.6880 -3.8876
  367MOL0     H49484   4.338   8.209  -0.828 -1.8341  0.4228 -2.3137
  367MOL0     H49485   4.188   8.127  -0.822 -1.4936 -3.8167  3.5674
  367MOL0     H49486   4.292   7.922  -0.749 -0.3264 -1.2838 -3.2447
  367MOL0     H49487   4.381   7.967  -0.885  0.3897 -2.6146  0.2742
  367MOL0     H49488   4.509   8.091  -0.636 -1.0364 -1.6472  1.1076
  367MOL0     H49489   4.519   7.915  -0.678 -1.2763  0.3923  1.7102
  367MOL0     H49490   4.610   7.986  -0.887  0.9830  1.8509 -1.2403
  367MOL0     H49491   4.614   8.159  -0.827 -1.7047  0.1598  1.7548
  367MOL0     H49492   4.827   8.037  -0.806  0.8654  1.9976  1.1922
  367MOL0     H49493   4.741   7.929  -0.691 -2.1006 -0.8871  1.5235
  367MOL0     H49494   4.745   8.235  -0.642 -3.0307 -1.3630  1.5952
  367MOL0     H49495   4.702   8.099  -0.533 -2.6306  2.9982  0.4852
  367MOL0     H49496   4.975   8.274  -0.735 -2.5262  1.4474  1.1214
  367MOL0     H49497   5.211   8.345  -0.699  2.2309 -1.5726 -0.8295
  367MOL0     H49498   5.215   8.418  -0.541 -2.1479 -0.0635  0.2717
  367MOL0     H49499   5.373   8.207  -0.483  2.7650 -2.2915 -0.6135
  367MOL0     H49500   5.331   8.147  -0.644 -2.0263  2.5381 -2.9519
  367MOL0     H49501   5.431   8.428  -0.618  1.8452  0.4875 -0.8549
  367MOL0     H49502   5.454   8.333  -0.767  2.2364  1.2658 -0.0860
  367MOL0     H49503   5.585   8.259  -0.500  0.9364 -1.2199 -0.5373
  367MOL0     H49504   5.645   8.374  -0.619  2.7586 -1.3948  0.8898
  367MOL0     H49505   5.814   8.267  -0.486 -0.1318 -1.8270  3.4068
  367MOL0     H49506   6.048   8.186  -0.472  0.8420  0.5389 -1.6952
  367MOL0     H49507   6.270   7.683  -0.765  0.5347 -1.7920  0.9473
  367MOL0     H49508   6.490   7.572  -0.747  0.6707  0.8027 -0.8855
  367MOL0     H49509   6.726   7.413  -0.426 -0.4343 -0.8594  1.7080
  367MOL0     H49510   6.576   7.453  -0.350 -0.6152 -3.9350  0.2832
  367MOL0     H49511   6.515   7.239  -0.456  0.0648  1.2298  1.7019
  367MOL0     H49512   6.457   7.378  -0.552  0.8057  1.2294  2.3857
  367MOL0     H49513   6.637   7.346  -0.724  0.9559  0.9964  1.0543
  367MOL0     H49514   6.717   7.226  -0.623 -0.7868 -1.0543 -0.1930
  367MOL0     H49515   6.438   7.186  -0.687 -0.1124 -0.1937  1.6382
  367MOL0     H49516   6.542   7.071  -0.634 -4.0291  0.7478 -0.0624
  367MOL0     H49517   6.688   7.065  -0.858  1.3929  2.0636 -3.8699
  367MOL0     H49518   6.553   7.176  -0.919 -0.3744 -0.4224 -0.3811
  367MOL0     H49519   6.521   6.912  -0.787  0.2813 -1.3612 -0.5031
  367MOL0     H49520   6.397   7.012  -0.876 -1.3977 -1.2948 -0.1438
  367MOL0     H49521   6.559   6.979  -1.087  0.7776  0.6122  0.0614
  367MOL0     H49522   6.439   6.864  -1.027 -0.3925  0.4404  1.2044
  367MOL0     H49523   6.615   6.720  -0.930  2.3837  0.1531  0.3194
  367MOL0     H49524   6.656   6.749  -1.093 -1.0930 -0.0579  0.0019
  367MOL0     H49525   6.526   7.711  -0.340  1.2598 -4.8446 -0.2438
  367MOL0     H49526   6.318   7.845  -0.374 -1.7265  0.9447 -1.0555
  367MOL0     H49527   5.964   7.908  -0.784 -0.1806 -0.6031 -0.3214
  367MOL0     H49528   5.746   8.033  -0.843 -1.3812  1.6253  0.7693
  367MOL0     H49529   3.987   7.919  -0.406 -0.7940 -0.9024  1.0025
  367MOL0     H49530   3.933   7.822  -0.165  1.2861 -1.7578 -1.1741
  367MOL0     H49531   4.044   7.721   0.174  0.5886  3.0212 -0.7255
  367MOL0     H49532   4.068   7.596   0.387  1.9033  0.9859  0.0963
  367MOL0     H49533   4.036   7.461   0.539 -0.1327 -2.8385  3.2127
  367MOL0     H49534   3.935   7.409   0.672 -1.6770  0.2154  0.2106
  367MOL0     H49535   4.088   7.662   0.649 -0.1146  1.0188  0.0288
  367MOL0     H49536   4.079   7.548   0.783  1.6838  0.5437 -1.6093
  367MOL0     H49537   3.843   7.737   0.706 -4.2265 -1.3058  1.7441
  367MOL0     H49538   3.965   7.762   0.829  1.3418  1.0379 -2.0859
  367MOL0     H49539   3.755   7.549   0.798  0.0327  1.6840 -0.1416
  367MOL0     H49540   3.878   7.528   0.927  0.4724 -0.9866 -0.8255
  367MOL0     H49541   3.644   7.825   1.111 -0.8236 -0.9529 -0.2048
  367MOL0     H49542   3.663   7.671   0.464 -2.0456  1.6284 -1.0134
  367MOL0     H49543   3.631   7.983   0.256  0.1592 -0.8771 -1.8328
  367MOL0     H49544   3.559   7.832   0.197 -1.0888 -0.1811  0.7241
  367MOL0     H49545   3.561   7.871   0.374  0.1777 -0.1957  0.1729
  368MOL0     O49546   1.689   7.220   3.044  0.3084 -0.3023  0.5241
  368MOL0     C49547   1.618   7.171   3.132 -0.0522 -0.1640 -0.0049
  368MOL0     O49548   1.490   7.115   3.115  0.0228  0.3064  0.0522
  368MOL0     C49549   1.461   7.083   2.984  1.2072 -0.7921  0.1305
  368MOL0     C49550   1.341   7.137   2.933  0.5558 -1.0678 -0.6288
  368MOL0     C49551   1.294   7.109   2.807  0.0767  0.2937  0.2155
  368MOL0     C49552   1.369   7.021   2.724 -0.5179 -0.6477 -1.1242
  368MOL0     O49553   1.321   6.983   2.601 -0.2514  0.4349  0.6991
  368MOL0     C49554   1.402   6.908   2.511 -0.5093 -0.6242 -0.7202
  368MOL0     C49555   1.329   6.880   2.376 -0.6875 -0.7787  0.3405
  368MOL0     C49556   1.270   7.001   2.302 -0.1036  0.2531 -0.3502
  368MOL0     C49557   1.226   6.961   2.172 -0.0121  0.2106  0.3970
  368MOL0     C49558   1.132   7.054   2.106 -0.4291 -0.5835  0.3015
  368MOL0     C49559   1.167   7.060   1.960 -0.7203 -0.5347  0.8369
  368MOL0     C49560   1.072   7.170   1.907  0.3423 -0.4211  0.3482
  368MOL0     C49561   1.093   7.204   1.762  0.8885 -0.1057 -0.3992
  368MOL0     N49562   1.059   7.096   1.673  0.3300  0.1110 -0.6929
  368MOL0     C49563   0.933   7.051   1.642  1.0501  0.1598  0.4958
  368MOL0     C49564   0.964   6.970   1.536  0.4346  0.3455 -0.2501
  368MOL0     C49565   0.875   6.889   1.450  0.4258  0.8876 -0.3393
  368MOL0     C49566   0.859   6.753   1.528  0.9111  0.1676 -0.2443
  368MOL0     C49567   0.744   6.665   1.486 -0.3024 -0.7735 -0.2292
  368MOL0     C49568   0.712   6.545   1.581  0.4205 -0.2430 -0.6224
  368MOL0     O49569   0.639   6.611   1.694 -0.2166  0.0950  0.2786
  368MOL0     C49570   0.504   6.585   1.705  0.7403  0.4249  0.4830
  368MOL0     C49571   0.469   6.535   1.834 -0.1973  0.5240  0.0743
  368MOL0     C49572   0.337   6.485   1.869 -0.8824  0.8367  0.9507
  368MOL0     C49573   0.229   6.497   1.779 -1.3117  0.7062 -0.0218
  368MOL0     C49574   0.094   6.450   1.817 -1.2737 -0.4542  0.4373
  368MOL0     O49575   0.001   6.484   1.724  0.5822 -0.9983 -0.7196
  368MOL0     C49576  -0.125   6.435   1.748 -0.5633  0.8578 -0.4621
  368MOL0     C49577  -0.153   6.305   1.710 -0.5654 -0.5610 -0.4536
  368MOL0     C49578  -0.284   6.247   1.742 -0.0983 -1.1826  0.0631
  368MOL0     C49579  -0.383   6.325   1.807  0.1268 -0.2865  0.2410
  368MOL0     O49580  -0.504   6.273   1.840  0.0722 -0.1721  0.6774
  368MOL0     C49581  -0.523   6.132   1.865  0.0485  1.1842  0.1477
  368MOL0     C49582  -0.657   6.094   1.928 -0.1615  0.0997  0.0669
  368MOL0     C49583  -0.649   5.952   1.993 -0.8643 -0.4695  0.2229
  368MOL0     C49584  -0.795   5.916   2.044  0.1585  0.7187  0.4741
  368MOL0     C49585  -0.835   5.774   2.092 -0.0635 -0.4762 -0.4733
  368MOL0     C49586  -0.983   5.740   2.045 -0.1851  0.8224 -0.3412
  368MOL0     C49587  -1.020   5.600   2.070  0.0644  0.5894 -0.4866
  368MOL0     C49588  -1.149   5.564   2.013 -0.0401 -0.7868  0.0868
  368MOL0    Cl49589  -1.132   5.531   1.837 -0.2163  0.5452  0.2940
  368MOL0     C49590  -0.359   6.459   1.831  0.4091 -0.0726  0.7670
  368MOL0     C49591  -0.226   6.508   1.811 -0.6429 -0.4227 -0.2013
  368MOL0     O49592   0.077   6.392   1.923 -0.9504 -1.1361 -0.4821
  368MOL0     C49593   0.259   6.551   1.651 -0.1996  0.8821  0.0453
  368MOL0     C49594   0.388   6.600   1.615  0.0853  0.1402 -0.2225
  368MOL0     N49595   1.102   6.934   1.542  0.0272 -0.2896  0.8752
  368MOL0     N49596   1.153   7.007   1.628  0.0712 -0.7651 -0.8340
  368MOL0     C49597   1.495   6.974   2.775  0.2724 -0.8392 -0.1988
  368MOL0     C49598   1.547   7.007   2.902  0.9118  0.5489  0.7822
  368MOL0     C49599   1.688   7.146   3.261 -0.3431  0.2908  1.0856
  368MOL0     C49600   1.787   7.231   3.305  0.4289  0.2516 -1.0272
  368MOL0     C49601   1.851   7.210   3.423  0.5527  0.8214 -0.2759
  368MOL0     C49602   1.808   7.110   3.523  0.6248 -0.1613  0.0426
  368MOL0     O49603   1.856   7.084   3.649  0.5206 -0.4582 -0.3679
  368MOL0     C49604   1.961   7.157   3.687  0.6151 -1.0314 -1.0361
  368MOL0     C49605   1.922   7.303   3.738 -0.3829 -0.1035  0.5177
  368MOL0     C49606   2.034   7.362   3.826  0.3636 -0.8817 -0.1188
  368MOL0     C49607   1.997   7.500   3.867 -0.2259  0.7811 -0.7064
  368MOL0     C49608   2.121   7.578   3.898  0.3083 -0.3524  0.1313
  368MOL0     C49609   2.225   7.627   3.943 -1.8393  0.4472  0.4569
  368MOL0     C49610   1.695   7.032   3.491 -0.3851 -1.4997 -0.2632
  368MOL0     C49611   1.643   7.045   3.353  0.1654 -0.4322 -1.3145
  368MOL0     C49612   1.543   6.935   3.321 -1.0891 -0.6073 -0.7967
  368MOL0     H49613   1.279   7.185   3.009  0.2374 -1.5076 -0.6087
  368MOL0     H49614   1.197   7.142   2.770 -0.3858 -0.0775  1.0797
  368MOL0     H49615   1.491   6.969   2.494  0.4256 -0.8626  2.5744
  368MOL0     H49616   1.437   6.812   2.550 -2.9513 -1.1625  0.3366
  368MOL0     H49617   1.244   6.815   2.398  3.0719 -5.0163  4.7152
  368MOL0     H49618   1.410   6.840   2.314  2.4974  1.8253  2.4815
  368MOL0     H49619   1.342   7.082   2.287  1.3095 -0.7623  0.6371
  368MOL0     H49620   1.187   7.042   2.360 -1.0812 -0.5773 -1.1101
  368MOL0     H49621   1.313   6.952   2.106 -0.5590  1.9899 -0.6369
  368MOL0     H49622   1.174   6.866   2.187  0.4977 -0.8455 -3.4666
  368MOL0     H49623   1.028   7.022   2.114 -1.0555  1.6214  1.9455
  368MOL0     H49624   1.139   7.150   2.157 -1.3127 -0.0126 -0.6063
  368MOL0     H49625   1.269   7.091   1.935 -1.0642 -1.3128 -1.7916
  368MOL0     H49626   1.153   6.967   1.904 -1.2982  1.1825 -2.0771
  368MOL0     H49627   1.072   7.262   1.968  0.4430 -0.5354  0.5214
  368MOL0     H49628   0.976   7.123   1.930 -0.5975  1.4646  0.5688
  368MOL0     H49629   1.056   7.306   1.746  0.7819 -0.3815 -2.0451
  368MOL0     H49630   1.202   7.217   1.761  0.9706 -0.7562 -2.3903
  368MOL0     H49631   0.846   7.096   1.690  1.2350 -0.3395  1.3170
  368MOL0     H49632   0.786   6.952   1.445  1.0618  1.8420  0.1576
  368MOL0     H49633   0.902   6.871   1.346  1.1910  0.5237 -0.0857
  368MOL0     H49634   0.949   6.691   1.537  1.0457  0.6803  3.1360
  368MOL0     H49635   0.841   6.774   1.633  1.6067 -2.7420  0.5426
  368MOL0     H49636   0.769   6.633   1.384  0.3756 -0.6948 -0.0919
  368MOL0     H49637   0.654   6.726   1.476 -0.6662 -0.2797  4.0075
  368MOL0     H49638   0.798   6.485   1.613  0.2857  0.0417  0.3044
  368MOL0     H49639   0.651   6.467   1.534 -1.0436  1.0656 -0.9509
  368MOL0     H49640   0.546   6.518   1.909  0.9533 -1.7363 -1.4870
  368MOL0     H49641   0.330   6.435   1.965  1.2143  0.4894  0.9786
  368MOL0     H49642  -0.076   6.252   1.654  1.7921  1.4605  0.7005
  368MOL0     H49643  -0.311   6.146   1.713 -4.3559 -0.1339 -0.2944
  368MOL0     H49644  -0.529   6.087   1.766  1.8410  1.3993 -0.0903
  368MOL0     H49645  -0.437   6.082   1.910 -0.7307  0.4732  0.8864
  368MOL0     H49646  -0.689   6.165   2.005 -2.1713  0.0090 -0.6444
  368MOL0     H49647  -0.736   6.101   1.853  1.2752  1.1991 -1.4080
  368MOL0     H49648  -0.620   5.878   1.917 -2.0955 -0.5273 -0.2015
  368MOL0     H49649  -0.575   5.956   2.073  1.0567  4.9849 -1.3733
  368MOL0     H49650  -0.862   5.937   1.960 -1.1895  0.7629  1.5132
  368MOL0     H49651  -0.831   5.992   2.114 -2.0914  3.1109 -2.9636
  368MOL0     H49652  -0.831   5.781   2.201 -0.4324 -0.4151 -0.4625
  368MOL0     H49653  -0.765   5.705   2.044 -1.1235 -1.3226 -0.8396
  368MOL0     H49654  -1.052   5.804   2.102 -0.1935 -0.7935  1.5605
  368MOL0     H49655  -0.983   5.752   1.936 -0.0914  2.1305 -0.2161
  368MOL0     H49656  -1.029   5.573   2.176 -2.4575 -3.4984 -1.5320
  368MOL0     H49657  -0.952   5.528   2.024 -2.0864 -2.3142  0.5743
  368MOL0     H49658  -1.197   5.480   2.064 -2.0292 -0.7220 -1.5789
  368MOL0     H49659  -1.224   5.641   2.032 -0.1224 -1.6438  4.3795
  368MOL0     H49660  -0.439   6.517   1.875  0.3186  0.7541 -0.4569
  368MOL0     H49661  -0.210   6.612   1.836  1.9834 -0.6526 -0.6841
  368MOL0     H49662   0.196   6.552   1.563  0.7349  0.3620 -0.6564
  368MOL0     H49663   0.397   6.652   1.520 -0.5674 -0.5147 -0.6527
  368MOL0     H49664   1.560   6.904   2.725  0.1202 -2.6784  1.9909
  368MOL0     H49665   1.643   6.976   2.942 -0.6519 -2.6711  2.4514
  368MOL0     H49666   1.819   7.316   3.245  1.5795  0.4168 -0.2258
  368MOL0     H49667   1.934   7.275   3.450 -0.2954  1.2292  1.4831
  368MOL0     H49668   2.037   7.161   3.608 -0.5524 -0.0301 -2.1535
  368MOL0     H49669   2.001   7.104   3.774 -2.4403 -2.8633 -0.6038
  368MOL0     H49670   1.824   7.292   3.786 -1.1830 -2.2042 -1.4112
  368MOL0     H49671   1.917   7.370   3.651  2.4774  0.2184  0.5215
  368MOL0     H49672   2.128   7.350   3.772  0.0242 -0.9938 -0.6915
  368MOL0     H49673   2.053   7.291   3.908 -1.7232 -3.8956 -2.0010
  368MOL0     H49674   1.950   7.551   3.782  0.6075 -1.1588 -2.4347
  368MOL0     H49675   1.930   7.487   3.953 -2.3605 -0.6490 -2.4554
  368MOL0     H49676   2.307   7.680   3.986 -2.3458  0.9369  0.8327
  368MOL0     H49677   1.662   6.957   3.562  1.0106 -0.5842  1.4313
  368MOL0     H49678   1.529   6.913   3.215  0.8765 -0.9198 -1.0208
  368MOL0     H49679   1.564   6.841   3.372  0.3076  0.0575 -0.0890
  368MOL0     H49680   1.444   6.971   3.352 -0.5683  0.1870 -0.0078
  369MOL0     O49681   0.506  11.154   1.007  0.4404  1.1132  0.5719
  369MOL0     C49682   0.501  11.093   0.896  0.0017  0.3643 -0.3757
  369MOL0     O49683   0.403  11.023   0.850  0.0766 -0.0162  0.3454
  369MOL0     C49684   0.278  11.088   0.840 -0.7869 -0.2572  0.3226
  369MOL0     C49685   0.261  11.206   0.777  0.3105 -0.6114  0.0412
  369MOL0     C49686   0.139  11.272   0.778  0.0503 -0.8288  0.0097
  369MOL0     C49687   0.031  11.204   0.830 -0.0563 -0.2056  0.2253
  369MOL0     O49688  -0.099  11.250   0.815  0.0074 -0.2179 -1.1561
  369MOL0     C49689  -0.136  11.385   0.856  0.2606  0.3529  0.1421
  369MOL0     C49690  -0.247  11.403   0.963 -0.4924 -0.1804 -0.6671
  369MOL0     C49691  -0.368  11.324   0.920 -1.5725 -0.5256  0.1639
  369MOL0     C49692  -0.478  11.328   1.026  1.0508 -0.0373  1.0399
  369MOL0     C49693  -0.601  11.239   0.997  0.4852  0.2771  0.9478
  369MOL0     C49694  -0.713  11.242   1.103  0.4940 -0.3272 -0.5696
  369MOL0     C49695  -0.771  11.385   1.137  0.2202  0.3129 -0.0330
  369MOL0     C49696  -0.830  11.434   1.003  0.7431 -0.8573  0.0322
  369MOL0     N49697  -0.904  11.556   1.050 -0.9078 -0.0324  0.3054
  369MOL0     C49698  -0.847  11.684   1.075 -0.3980  0.1130  0.8929
  369MOL0     C49699  -0.951  11.762   1.105 -0.2824  0.1109  0.2453
  369MOL0     C49700  -0.945  11.904   1.154 -0.2008  0.9471  0.3570
  369MOL0     C49701  -1.075  11.990   1.132  0.0260 -0.2988  0.4014
  369MOL0     C49702  -1.046  12.136   1.163  0.5587 -0.1968  0.3397
  369MOL0     C49703  -1.171  12.229   1.129 -0.3353 -0.3013  0.1770
  369MOL0     O49704  -1.284  12.201   1.213 -0.1117  0.4439 -0.2352
  369MOL0     C49705  -1.400  12.262   1.181  1.1240 -0.9645 -0.2707
  369MOL0     C49706  -1.495  12.301   1.285 -0.9056 -0.0347 -0.1729
  369MOL0     C49707  -1.626  12.333   1.266 -0.1717  0.0666  0.0363
  369MOL0     C49708  -1.673  12.362   1.137  0.3101  0.6855  0.0717
  369MOL0     C49709  -1.809  12.414   1.120  0.8763  0.7109  0.2064
  369MOL0     O49710  -1.885  12.431   1.226 -0.4264  0.4051  0.1997
  369MOL0     C49711  -2.020  12.441   1.196 -0.1977  0.5147  0.4372
  369MOL0     C49712  -2.098  12.551   1.182 -0.2625  0.6937 -0.3721
  369MOL0     C49713  -2.234  12.538   1.162  0.3084 -0.4363  0.9610
  369MOL0     C49714  -2.297  12.418   1.157  0.8632 -0.3100 -0.0024
  369MOL0     O49715  -2.430  12.404   1.130  0.4965  0.4384  0.3904
  369MOL0     C49716  -2.517  12.523   1.116 -0.0547 -0.2310  0.0594
  369MOL0     C49717  -2.666  12.486   1.098 -0.7764  0.3082 -0.2038
  369MOL0     C49718  -2.761  12.598   1.063 -0.5665  0.2267  0.0420
  369MOL0     C49719  -2.750  12.708   1.169  0.7297 -0.9978 -0.1642
  369MOL0     C49720  -2.848  12.836   1.151  0.2692  0.3879  0.0424
  369MOL0     C49721  -2.791  12.962   1.211  0.0761 -0.5955  0.1455
  369MOL0     C49722  -2.853  13.088   1.157  1.2315  0.4947 -0.0841
  369MOL0     C49723  -2.784  13.139   1.021  0.1379 -0.1445  0.6088
  369MOL0    Cl49724  -2.857  13.056   0.879 -0.1668  0.2950 -0.2137
  369MOL0     C49725  -2.216  12.303   1.173  0.5191  0.3891  0.4180
  369MOL0     C49726  -2.080  12.313   1.189 -0.1732 -0.1995 -0.8711
  369MOL0     O49727  -1.848  12.426   1.004 -0.2002 -0.0540  1.0133
  369MOL0     C49728  -1.580  12.342   1.029  0.0333 -0.4009 -0.9411
  369MOL0     C49729  -1.450  12.287   1.048  0.0057 -0.0218 -0.1887
  369MOL0     N49730  -1.060  11.682   1.123 -0.3714  0.4192  0.4639
  369MOL0     N49731  -1.034  11.559   1.088 -0.1218 -0.0893 -0.2167
  369MOL0     C49732   0.042  11.083   0.894 -0.2209  0.4386 -0.6144
  369MOL0     C49733   0.168  11.030   0.897  0.0491 -0.5515 -0.2103
  369MOL0     C49734   0.636  11.065   0.830 -0.1171  0.2297  0.3178
  369MOL0     C49735   0.730  11.175   0.833  0.6742  0.2701 -1.2248
  369MOL0     C49736   0.861  11.158   0.796  0.2386  0.2682  0.0631
  369MOL0     C49737   0.907  11.037   0.745 -0.6242 -0.2381  0.2536
  369MOL0     O49738   1.040  11.031   0.712  0.6784  0.3164  0.2513
  369MOL0     C49739   1.089  10.895   0.680 -0.5188  0.5607 -0.2049
  369MOL0     C49740   1.230  10.892   0.616 -0.2495  0.3769 -0.2260
  369MOL0     C49741   1.278  10.755   0.594  0.0536 -0.0017  0.0999
  369MOL0     C49742   1.330  10.671   0.713  0.5730 -0.1945  0.2205
  369MOL0     C49743   1.342  10.527   0.680  1.1801 -0.8554  0.1463
  369MOL0     C49744   1.335  10.407   0.656  0.3101 -0.5422  0.6820
  369MOL0     C49745   0.807  10.938   0.713 -0.5876 -0.0012  0.2092
  369MOL0     C49746   0.676  10.940   0.760 -0.4481  0.3109 -0.0484
  369MOL0     C49747   0.587  10.822   0.746  0.6740 -0.2693 -0.4398
  369MOL0     H49748   0.340  11.257   0.723 -1.3987  0.1878 -1.8549
  369MOL0     H49749   0.113  11.360   0.720 -1.3293 -2.3168 -1.7430
  369MOL0     H49750  -0.054  11.439   0.905  0.9316 -0.9980  0.5437
  369MOL0     H49751  -0.176  11.423   0.761  0.4177 -0.9385 -0.4650
  369MOL0     H49752  -0.271  11.509   0.976  0.5714  0.0151 -0.1698
  369MOL0     H49753  -0.211  11.370   1.061  1.9242  0.5579 -1.2428
  369MOL0     H49754  -0.337  11.220   0.910  0.8422 -0.7348  6.0325
  369MOL0     H49755  -0.404  11.361   0.824 -2.7285  0.7573  1.0388
  369MOL0     H49756  -0.445  11.294   1.124 -3.3080 -3.1145  1.6837
  369MOL0     H49757  -0.498  11.435   1.040 -1.0298 -0.3773  0.9990
  369MOL0     H49758  -0.644  11.272   0.903 -3.2377 -2.5660  1.4108
  369MOL0     H49759  -0.566  11.135   0.997 -1.7343 -0.5390  1.4919
  369MOL0     H49760  -0.796  11.181   1.067  2.7007 -2.6064 -2.0172
  369MOL0     H49761  -0.671  11.196   1.193  1.6193 -0.7830 -1.3111
  369MOL0     H49762  -0.710  11.465   1.178 -2.8433  2.3511  0.9260
  369MOL0     H49763  -0.843  11.385   1.219  1.8076 -1.8127  1.4678
  369MOL0     H49764  -0.752  11.463   0.933 -0.9007 -0.4624 -1.7228
  369MOL0     H49765  -0.892  11.357   0.956 -0.0679 -0.8971  1.1146
  369MOL0     H49766  -0.746  11.721   1.069 -0.7781  1.0689  0.1670
  369MOL0     H49767  -0.917  11.898   1.260 -1.6077 -4.4268  0.7119
  369MOL0     H49768  -0.856  11.946   1.107  0.0696 -1.5044 -1.4804
  369MOL0     H49769  -1.106  11.976   1.028 -0.4066 -2.2229  0.7454
  369MOL0     H49770  -1.162  11.951   1.184  1.1608 -4.6736 -0.5377
  369MOL0     H49771  -0.961  12.166   1.101  0.5358 -2.9942 -1.1825
  369MOL0     H49772  -1.020  12.154   1.267 -0.2128 -0.7579  0.6411
  369MOL0     H49773  -1.187  12.214   1.021 -1.6787 -0.8578  0.4309
  369MOL0     H49774  -1.137  12.331   1.145  2.2916 -0.2242 -4.2417
  369MOL0     H49775  -1.459  12.293   1.387  1.3730 -1.1107 -1.0184
  369MOL0     H49776  -1.681  12.324   1.359  0.7305 -2.0520  0.4395
  369MOL0     H49777  -2.051  12.649   1.187 -3.1925  2.2354  4.1765
  369MOL0     H49778  -2.292  12.628   1.146 -2.2045 -2.1479 -0.1564
  369MOL0     H49779  -2.521  12.578   1.210  1.5386 -2.5866  1.6263
  369MOL0     H49780  -2.491  12.600   1.044  3.8739  0.5174  2.0605
  369MOL0     H49781  -2.659  12.417   1.013  3.4165  0.1675  0.0535
  369MOL0     H49782  -2.706  12.432   1.184 -0.8358 -2.5963 -1.9164
  369MOL0     H49783  -2.747  12.615   0.956 -0.0919 -1.4609 -0.1908
  369MOL0     H49784  -2.861  12.554   1.064  0.2020 -1.7375 -1.9104
  369MOL0     H49785  -2.650  12.752   1.170  0.6129 -0.7279  1.1860
  369MOL0     H49786  -2.751  12.663   1.268 -2.8288 -0.2811  0.2375
  369MOL0     H49787  -2.954  12.818   1.173  0.0076 -2.7094 -2.8558
  369MOL0     H49788  -2.849  12.866   1.045  1.9001 -1.4823 -0.5705
  369MOL0     H49789  -2.833  12.972   1.311  0.3304  3.8953 -0.0211
  369MOL0     H49790  -2.681  12.960   1.212  0.1272 -4.2602  1.5533
  369MOL0     H49791  -2.823  13.164   1.230 -2.5872  1.0128  1.1520
  369MOL0     H49792  -2.960  13.082   1.136  1.1502  3.3652 -0.8902
  369MOL0     H49793  -2.790  13.247   1.008  2.0008 -0.4338 -5.8190
  369MOL0     H49794  -2.678  13.112   1.020  0.2610 -0.0532  3.3541
  369MOL0     H49795  -2.257  12.203   1.164 -1.7129  1.2837  0.1696
  369MOL0     H49796  -2.007  12.233   1.191 -0.0224 -0.0532  0.3101
  369MOL0     H49797  -1.628  12.377   0.938 -0.2640  2.5030  0.2220
  369MOL0     H49798  -1.392  12.277   0.957 -1.5090  1.3000 -1.3693
  369MOL0     H49799  -0.036  11.013   0.921  0.6785 -0.1480  0.5394
  369MOL0     H49800   0.191  10.936   0.945  0.0090 -0.9621 -0.9755
  369MOL0     H49801   0.705  11.280   0.847 -4.1298 -0.8175  0.0570
  369MOL0     H49802   0.933  11.239   0.801  0.2496  0.2891 -0.3918
  369MOL0     H49803   1.031  10.849   0.600  0.3065 -1.5364  0.3482
  369MOL0     H49804   1.085  10.827   0.765 -0.8477  0.0445 -0.6302
  369MOL0     H49805   1.295  10.943   0.687 -3.4289  1.5155  2.1243
  369MOL0     H49806   1.240  10.952   0.526  2.1736  1.3984  0.6398
  369MOL0     H49807   1.367  10.762   0.531 -0.2302 -0.6647 -0.3945
  369MOL0     H49808   1.201  10.695   0.545  0.9036 -0.9520 -0.1109
  369MOL0     H49809   1.426  10.711   0.745  0.1180  0.2658  1.0371
  369MOL0     H49810   1.265  10.678   0.801 -0.9467 -1.3300 -0.7492
  369MOL0     H49811   1.314  10.302   0.662  0.5526 -0.5347  1.8995
  369MOL0     H49812   0.844  10.852   0.658 -0.6036 -0.0687  0.3022
  369MOL0     H49813   0.583  10.765   0.839 -0.8741 -0.4185 -0.5850
  369MOL0     H49814   0.485  10.854   0.727  0.5359  0.6456  1.6204
  369MOL0     H49815   0.619  10.764   0.658 -2.4919 -0.8646 -1.3401
  370MOL0     O49816  10.651  11.141   1.363 -0.2168  0.2641 -0.2789
  370MOL0     C49817  10.595  11.032   1.368 -0.0307  0.0085  0.2034
  370MOL0     O49818  10.514  10.971   1.264 -0.5120  0.0442 -0.4861
  370MOL0     C49819  10.469  11.046   1.160 -0.0221 -0.7009  0.0091
  370MOL0     C49820  10.472  10.989   1.036  0.1491  0.2240  0.2708
  370MOL0     C49821  10.442  11.064   0.915  1.0622 -0.8394  0.2118
  370MOL0     C49822  10.386  11.187   0.923  0.2776  0.0217  0.4261
  370MOL0     O49823  10.340  11.254   0.812  0.0757  0.0955  0.3455
  370MOL0     C49824  10.385  11.215   0.687 -0.4427  0.1954  0.2084
  370MOL0     C49825  10.344  11.320   0.573 -0.1327  0.5945  0.6388
  370MOL0     C49826  10.404  11.454   0.570 -0.3929 -0.6915 -1.5373
  370MOL0     C49827  10.548  11.448   0.531 -0.8225 -0.3114  0.7807
  370MOL0     C49828  10.598  11.573   0.450  0.1293 -0.2732  0.2381
  370MOL0     C49829  10.737  11.573   0.393 -0.8911 -0.1629 -0.1308
  370MOL0     C49830  10.785  11.697   0.327  0.7548  0.2478  0.1422
  370MOL0     C49831  10.927  11.731   0.353 -0.8330  0.1777 -1.1153
  370MOL0     N49832  10.956  11.858   0.294 -0.1996  1.1673  0.4475
  370MOL0     C49833  10.896  11.987   0.329  0.9015  0.0933  1.0570
  370MOL0     C49834  10.964  12.070   0.242  0.5827  0.4696 -1.3059
  370MOL0     C49835  10.945  12.217   0.223 -0.6456 -0.2645 -0.5427
  370MOL0     C49836  11.051  12.285   0.316  1.1705 -0.4899 -0.2760
  370MOL0     C49837  11.095  12.436   0.291  0.0551  0.4029 -0.0647
  370MOL0     C49838  11.222  12.480   0.385  0.2576  0.6008  0.6762
  370MOL0     O49839  11.176  12.522   0.511 -0.5918 -0.5435  0.0114
  370MOL0     C49840  11.271  12.587   0.580  0.5360  0.5696  0.3454
  370MOL0     C49841  11.390  12.521   0.631  0.2431  0.4006 -0.5296
  370MOL0     C49842  11.482  12.589   0.707  0.9269 -0.1612 -0.5546
  370MOL0     C49843  11.474  12.729   0.720  0.4957  0.3176 -0.2282
  370MOL0     C49844  11.574  12.804   0.793  0.4082  0.6940  0.3432
  370MOL0     O49845  11.538  12.923   0.844  0.0390 -0.3727 -0.5468
  370MOL0     C49846  11.617  12.978   0.943 -0.7006 -0.0931 -0.0297
  370MOL0     C49847  11.633  13.121   0.940  0.9809  0.2658 -0.3855
  370MOL0     C49848  11.699  13.182   1.045  0.2274 -1.1111 -0.1453
  370MOL0     C49849  11.763  13.115   1.149 -0.8996 -0.1724  0.1361
  370MOL0     O49850  11.842  13.189   1.232 -0.0031  0.0311  0.5530
  370MOL0     C49851  11.865  13.133   1.359  0.0746  0.6205 -0.6093
  370MOL0     C49852  11.948  13.230   1.441  0.2126 -0.2102  1.3805
  370MOL0     C49853  11.952  13.191   1.592 -0.4795  0.1179 -0.9662
  370MOL0     C49854  12.059  13.280   1.664  0.3386  0.3574 -0.8828
  370MOL0     C49855  12.051  13.239   1.813 -0.2342 -0.5045  0.2285
  370MOL0     C49856  12.158  13.316   1.894  0.7182 -0.4253  0.1867
  370MOL0     C49857  12.124  13.465   1.918 -0.3714 -0.6441  0.8129
  370MOL0     C49858  12.084  13.514   2.058 -0.2514 -0.6657 -1.5296
  370MOL0    Cl49859  12.172  13.438   2.206  0.0585 -0.1164 -0.1527
  370MOL0     C49860  11.747  12.977   1.153  0.4294 -0.4874  0.1089
  370MOL0     C49861  11.683  12.905   1.048  0.2914 -0.7720 -0.3867
  370MOL0     O49862  11.688  12.767   0.774 -0.2658  0.1787 -0.3141
  370MOL0     C49863  11.362  12.795   0.669  0.2005  0.8809  0.4715
  370MOL0     C49864  11.257  12.728   0.606 -0.1542  0.7972  0.4807
  370MOL0     N49865  11.061  12.000   0.164  0.6540  0.4621  0.1906
  370MOL0     N49866  11.050  11.875   0.195  0.2046 -0.5910 -0.6517
  370MOL0     C49867  10.377  11.242   1.051 -0.6453 -0.0566 -0.1978
  370MOL0     C49868  10.427  11.184   1.164  0.2350  0.6944  0.6282
  370MOL0     C49869  10.597  10.946   1.487 -0.4919  0.9399 -0.0737
  370MOL0     C49870  10.564  10.812   1.466  0.3258  0.3481 -0.6936
  370MOL0     C49871  10.585  10.712   1.563  0.4704 -0.5524  0.5254
  370MOL0     C49872  10.608  10.748   1.691 -0.1823  1.3129 -0.0302
  370MOL0     O49873  10.590  10.658   1.795  0.0018  0.2705  0.1888
  370MOL0     C49874  10.529  10.532   1.776 -0.1107  0.2793 -0.9031
  370MOL0     C49875  10.491  10.477   1.923 -0.8923  0.1509  0.8038
  370MOL0     C49876  10.605  10.463   2.020 -0.4846  0.5318  0.5103
  370MOL0     C49877  10.566  10.409   2.152 -0.2594  0.8798 -0.6608
  370MOL0     C49878  10.491  10.509   2.236 -0.7182 -0.5670 -0.0663
  370MOL0     C49879  10.426  10.587   2.296 -1.0258 -0.5902 -0.7831
  370MOL0     C49880  10.648  10.876   1.726 -0.9395  0.0373  0.5456
  370MOL0     C49881  10.638  10.980   1.621  0.5057  0.4547  0.2972
  370MOL0     C49882  10.660  11.119   1.662 -0.5275 -0.3426 -0.1974
  370MOL0     H49883  10.506  10.887   1.022  1.3093  0.5253  0.8278
  370MOL0     H49884  10.446  11.014   0.819  4.0044 -0.8398  0.2440
  370MOL0     H49885  10.494  11.203   0.688 -0.2249  1.8759 -0.5795
  370MOL0     H49886  10.333  11.121   0.663  3.2799 -2.1039  0.3306
  370MOL0     H49887  10.237  11.346   0.569 -0.2122  0.1344 -0.6068
  370MOL0     H49888  10.360  11.265   0.480 -3.6739 -1.1091  0.8454
  370MOL0     H49889  10.381  11.514   0.658  0.4008 -2.7802  0.1893
  370MOL0     H49890  10.350  11.504   0.489  0.3186 -0.2997 -1.7812
  370MOL0     H49891  10.607  11.435   0.622 -1.0879 -2.3393  0.7063
  370MOL0     H49892  10.559  11.364   0.462 -1.5735  0.1075  0.1399
  370MOL0     H49893  10.528  11.590   0.368  0.7537  1.6139  0.0660
  370MOL0     H49894  10.597  11.663   0.511  0.9361  1.7097 -2.5009
  370MOL0     H49895  10.796  11.558   0.484 -1.8088 -1.4229  0.2862
  370MOL0     H49896  10.757  11.485   0.332 -0.2545 -1.0464  1.3160
  370MOL0     H49897  10.725  11.787   0.345 -5.1799 -2.1125 -4.5476
  370MOL0     H49898  10.773  11.683   0.220  1.5695  2.3092 -0.2690
  370MOL0     H49899  10.955  11.721   0.458  0.3342 -5.3694 -1.6015
  370MOL0     H49900  10.994  11.661   0.301  0.0270  0.1252  0.0312
  370MOL0     H49901  10.806  12.020   0.379 -0.1118  3.8828 -2.6749
  370MOL0     H49902  10.957  12.239   0.117  0.2515  0.5745 -0.2761
  370MOL0     H49903  10.849  12.261   0.251 -1.7365 -0.8510 -3.0827
  370MOL0     H49904  11.025  12.280   0.423  1.0603 -3.2688 -0.3578
  370MOL0     H49905  11.147  12.233   0.309  2.0276  0.4724  2.6531
  370MOL0     H49906  11.014  12.506   0.314 -0.5164 -0.1420 -0.3764
  370MOL0     H49907  11.109  12.441   0.183 -1.3869  2.2220 -0.2138
  370MOL0     H49908  11.270  12.565   0.335  1.8355  1.0329  2.7914
  370MOL0     H49909  11.291  12.396   0.396  0.6257  0.5666 -1.3935
  370MOL0     H49910  11.414  12.417   0.613 -0.9134 -0.3546  1.8617
  370MOL0     H49911  11.567  12.522   0.724  0.6420 -0.7405 -1.3565
  370MOL0     H49912  11.588  13.186   0.866 -1.2389 -1.6017 -0.7819
  370MOL0     H49913  11.703  13.290   1.041  5.2909 -1.0706 -0.4059
  370MOL0     H49914  11.768  13.113   1.404  0.6193  2.8785  1.8431
  370MOL0     H49915  11.922  13.041   1.373 -0.4312  0.4173  0.1848
  370MOL0     H49916  12.047  13.224   1.395 -0.2848 -2.4388  0.4958
  370MOL0     H49917  11.915  13.334   1.429  1.5427  0.1633  0.8085
  370MOL0     H49918  11.858  13.215   1.641 -1.1485  0.0386 -2.1696
  370MOL0     H49919  11.972  13.086   1.614 -1.4461  0.7441  4.0529
  370MOL0     H49920  12.040  13.387   1.656 -1.8216 -0.0160 -1.4288
  370MOL0     H49921  12.159  13.274   1.622  0.2545 -4.1409 -0.9861
  370MOL0     H49922  12.075  13.138   1.846 -1.3465 -0.2033  2.0937
  370MOL0     H49923  11.952  13.264   1.853 -0.1095  2.2982 -0.9470
  370MOL0     H49924  12.169  13.269   1.992  1.7597 -3.6229 -1.3196
  370MOL0     H49925  12.259  13.313   1.851  0.1151  3.1678 -1.9540
  370MOL0     H49926  12.051  13.512   1.851  0.3816  4.1048  2.9509
  370MOL0     H49927  12.214  13.521   1.890 -2.9150  2.7808 -1.2859
  370MOL0     H49928  12.097  13.622   2.065 -0.5127 -0.7152  0.3085
  370MOL0     H49929  11.975  13.505   2.065 -0.2050 -0.0749  1.1921
  370MOL0     H49930  11.787  12.925   1.240  1.3410 -0.9878 -0.5886
  370MOL0     H49931  11.677  12.796   1.048  0.4396 -0.7813 -0.2287
  370MOL0     H49932  11.354  12.901   0.690 -0.0180  1.0041 -0.1997
  370MOL0     H49933  11.176  12.787   0.564  0.4585 -0.1992 -2.3312
  370MOL0     H49934  10.341  11.344   1.061 -0.4286  0.0849 -0.7895
  370MOL0     H49935  10.438  11.247   1.252 -2.0173  0.1219  1.4021
  370MOL0     H49936  10.520  10.762   1.380 -1.8860  1.9367 -0.5605
  370MOL0     H49937  10.574  10.608   1.534  2.8274 -0.2377 -1.9006
  370MOL0     H49938  10.611  10.476   1.730  1.6957 -0.4952  2.8810
  370MOL0     H49939  10.430  10.540   1.730 -0.9787  2.5522  1.1497
  370MOL0     H49940  10.447  10.377   1.920 -2.3442  0.7825  0.2270
  370MOL0     H49941  10.409  10.540   1.961 -2.5168 -0.3131 -1.7175
  370MOL0     H49942  10.646  10.563   2.037  0.4874  0.4928 -1.3706
  370MOL0     H49943  10.677  10.390   1.983 -1.6463 -1.7151  2.3579
  370MOL0     H49944  10.495  10.327   2.141 -0.2360  0.7980 -0.1905
  370MOL0     H49945  10.656  10.370   2.201 -0.5044  0.6997 -0.3547
  370MOL0     H49946  10.364  10.664   2.336 -1.3982 -1.6534  0.8021
  370MOL0     H49947  10.674  10.898   1.829 -4.4556  2.3298  1.1370
  370MOL0     H49948  10.562  11.165   1.679 -1.0692 -1.3073 -0.6180
  370MOL0     H49949  10.724  11.117   1.751 -2.6589 -0.4888  1.4163
  370MOL0     H49950  10.711  11.179   1.586 -0.3383 -1.2574 -0.8092
  371MOL0     O49951   8.130   2.237   9.826  0.0565  0.0452  0.0069
  371MOL0     C49952   8.218   2.320   9.865  0.5669 -0.0448 -0.0638
  371MOL0     O49953   8.316   2.299   9.965  0.3531 -0.4517  0.3124
  371MOL0     C49954   8.322   2.175  10.024  0.3131  0.9336  0.0341
  371MOL0     C49955   8.326   2.054   9.951  0.0367 -0.4831 -0.9388
  371MOL0     C49956   8.358   1.923  10.012 -0.1137 -0.2380  1.4461
  371MOL0     C49957   8.384   1.919  10.155 -1.9626 -0.4024  0.1378
  371MOL0     O49958   8.435   1.806  10.223  0.2094 -0.2061  0.1752
  371MOL0     C49959   8.433   1.662  10.176 -0.0243 -0.3131  0.5245
  371MOL0     C49960   8.484   1.569  10.294  0.5553 -0.2167  0.7056
  371MOL0     C49961   8.469   1.424  10.236 -0.4740 -0.3082 -0.0001
  371MOL0     C49962   8.592   1.329  10.276 -0.1260 -1.0225  0.4312
  371MOL0     C49963   8.728   1.348  10.197  0.9328 -0.1271  0.5865
  371MOL0     C49964   8.758   1.236  10.099 -0.5722 -0.3122 -0.0988
  371MOL0     C49965   8.898   1.233  10.062 -0.2886 -0.8244  0.4657
  371MOL0     C49966   8.923   1.117   9.961 -0.3055  0.8693 -0.1238
  371MOL0     N49967   8.953   0.986  10.030 -0.0464 -0.0437  0.5784
  371MOL0     C49968   8.863   0.903  10.087 -0.3546  0.0612 -0.0921
  371MOL0     C49969   8.931   0.813  10.166 -0.0013  0.1036  0.0020
  371MOL0     C49970   8.874   0.695  10.243 -0.7222  0.6057  0.0753
  371MOL0     C49971   8.791   0.601  10.158  0.1855  0.1022  0.2666
  371MOL0     C49972   8.640   0.603  10.194  0.1742 -0.3578 -0.2377
  371MOL0     C49973   8.560   0.510  10.108 -0.0849 -0.8619  0.3587
  371MOL0     O49974   8.585   0.541   9.967 -0.4934 -0.0865 -0.5288
  371MOL0     C49975   8.569   0.450   9.865 -1.1634 -0.8485 -0.3955
  371MOL0     C49976   8.447   0.409   9.822 -0.2393  0.4474 -0.4226
  371MOL0     C49977   8.432   0.317   9.727 -0.1961  0.4591 -0.1482
  371MOL0     C49978   8.537   0.253   9.669 -0.3420 -0.2558  0.2904
  371MOL0     C49979   8.511   0.170   9.549  0.5121 -0.9873  0.7232
  371MOL0     O49980   8.621   0.118   9.481  0.4481  0.3633 -0.4243
  371MOL0     C49981   8.596   0.039   9.368 -0.5528 -0.7069  0.2548
  371MOL0     C49982   8.491  -0.057   9.350  1.4892 -0.7260  0.1798
  371MOL0     C49983   8.479  -0.128   9.226 -0.2037 -0.5769  0.5832
  371MOL0     C49984   8.563  -0.105   9.123 -0.0867 -0.2191  0.7540
  371MOL0     O49985   8.514  -0.158   9.007  0.0733 -1.1007 -0.3745
  371MOL0     C49986   8.487  -0.059   8.899 -0.2396  0.0056 -0.0716
  371MOL0     C49987   8.334  -0.061   8.909 -0.5877 -0.0169  0.8108
  371MOL0     C49988   8.265   0.007   8.795  0.3557  0.3053  0.0412
  371MOL0     C49989   8.297  -0.057   8.662 -1.5292  0.1987  0.7163
  371MOL0     C49990   8.213  -0.022   8.541  0.0030  0.4001  0.2479
  371MOL0     C49991   8.058  -0.041   8.557  0.6020  0.1255 -1.0542
  371MOL0     C49992   8.038  -0.200   8.561 -0.0784  0.0328  0.8059
  371MOL0     C49993   7.898  -0.243   8.524  0.0864 -0.3062  0.1980
  371MOL0    Cl49994   7.856  -0.201   8.351  0.1291  0.3346 -0.1215
  371MOL0     C49995   8.656  -0.002   9.134 -1.2455  0.8625 -0.8287
  371MOL0     C49996   8.683   0.061   9.256 -0.9706  0.8424  0.0631
  371MOL0     O49997   8.398   0.166   9.510  0.1312 -0.1380  0.1869
  371MOL0     C49998   8.665   0.288   9.720  0.2564 -0.1433 -0.4978
  371MOL0     C49999   8.685   0.380   9.822 -1.1143 -0.3346 -0.0899
  371MOL0     N50000   9.062   0.858  10.152 -0.6673 -0.0559  0.3416
  371MOL0     N50001   9.075   0.951  10.072 -0.4563 -0.7179  0.0330
  371MOL0     C50002   8.365   2.043  10.216  0.3383  0.2175  0.2505
  371MOL0     C50003   8.332   2.165  10.158 -0.6104 -1.1907 -0.5740
  371MOL0     C50004   8.237   2.459   9.797 -0.4506 -0.2302  0.1151
  371MOL0     C50005   8.179   2.462   9.668 -0.3224  0.0362  0.3102
  371MOL0     C50006   8.216   2.575   9.587  0.0439 -0.2412 -0.2635
  371MOL0     C50007   8.283   2.685   9.633 -0.1622 -0.2256 -0.0593
  371MOL0     O50008   8.294   2.792   9.551  0.2712  0.0213  0.0902
  371MOL0     C50009   8.350   2.917   9.594  0.6340 -0.1984 -0.5615
  371MOL0     C50010   8.344   3.012   9.481 -0.6310 -0.2621  0.4047
  371MOL0     C50011   8.446   2.981   9.357  0.7576 -0.5648  0.0074
  371MOL0     C50012   8.416   2.844   9.292  0.2339  0.0253  0.1080
  371MOL0     C50013   8.498   2.829   9.171 -0.0679  0.9532 -0.0406
  371MOL0     C50014   8.565   2.810   9.067  0.2836  0.5200 -0.4968
  371MOL0     C50015   8.325   2.687   9.762  0.4003 -0.0549  0.1502
  371MOL0     C50016   8.318   2.575   9.842  0.3540 -0.1436  1.3115
  371MOL0     C50017   8.409   2.575   9.962  0.8481  0.2677 -1.2875
  371MOL0     H50018   8.321   2.064   9.843 -0.3897 -2.0324 -1.0906
  371MOL0     H50019   8.369   1.828   9.961 -2.4978 -0.0879  0.5317
  371MOL0     H50020   8.333   1.634  10.144 -0.7313 -0.4779  2.7285
  371MOL0     H50021   8.497   1.663  10.087 -1.7035 -1.9607 -0.7622
  371MOL0     H50022   8.419   1.578  10.381 -2.9308 -1.7092 -1.5130
  371MOL0     H50023   8.589   1.597  10.310  0.2014  0.9681  1.0337
  371MOL0     H50024   8.469   1.416  10.127  1.8173  1.0332 -0.1549
  371MOL0     H50025   8.373   1.395  10.281 -0.4264 -1.5182 -0.6415
  371MOL0     H50026   8.612   1.350  10.382  1.4657  1.4125 -0.2761
  371MOL0     H50027   8.561   1.225  10.267 -0.1628 -1.2314  2.5263
  371MOL0     H50028   8.731   1.450  10.158 -0.0021  0.2911  1.5808
  371MOL0     H50029   8.806   1.368  10.272  0.1472  1.8773  0.9363
  371MOL0     H50030   8.735   1.135  10.135  1.4438 -0.8953 -0.3060
  371MOL0     H50031   8.696   1.245  10.009 -0.1390  0.0747 -0.3568
  371MOL0     H50032   8.961   1.237  10.152 -2.8103  1.3183  2.2977
  371MOL0     H50033   8.922   1.327  10.010 -3.7779  0.1215  0.3259
  371MOL0     H50034   8.834   1.108   9.898  0.1053 -1.1983 -0.4942
  371MOL0     H50035   9.006   1.136   9.893 -1.6714  0.9506 -1.8603
  371MOL0     H50036   8.756   0.908  10.070 -0.2755  1.7951 -0.2087
  371MOL0     H50037   8.952   0.631  10.286 -2.5358 -1.1325  0.9986
  371MOL0     H50038   8.818   0.730  10.330  1.7065  1.1727  1.5040
  371MOL0     H50039   8.811   0.607  10.050 -1.1867 -0.3381 -0.0417
  371MOL0     H50040   8.823   0.498  10.177 -2.3506 -1.1346 -1.5293
  371MOL0     H50041   8.589   0.700  10.189 -0.0080 -0.4460 -0.1248
  371MOL0     H50042   8.625   0.558  10.292 -0.0783  1.6800  0.7035
  371MOL0     H50043   8.456   0.519  10.141  0.6132  0.8395  2.3482
  371MOL0     H50044   8.600   0.412  10.133 -1.4454 -0.9356  2.6269
  371MOL0     H50045   8.355   0.454   9.859  0.7374  0.7111  1.8124
  371MOL0     H50046   8.333   0.305   9.682  1.2173 -0.6138 -3.2623
  371MOL0     H50047   8.423  -0.071   9.433 -0.4654  2.7126 -0.6421
  371MOL0     H50048   8.405  -0.205   9.206 -2.0801  1.7394 -2.2991
  371MOL0     H50049   8.529   0.042   8.908 -0.5166  0.3473 -2.1202
  371MOL0     H50050   8.530  -0.098   8.806  1.4539 -1.7163  1.3467
  371MOL0     H50051   8.305  -0.164   8.932  0.2755  0.1600  2.8559
  371MOL0     H50052   8.309   0.000   8.996 -0.1482  3.0266 -1.0337
  371MOL0     H50053   8.157  -0.007   8.812  0.2243  3.3347  2.8142
  371MOL0     H50054   8.279   0.115   8.780  0.0455  0.1237 -1.7480
  371MOL0     H50055   8.303  -0.166   8.664  0.6464  0.2682  1.8712
  371MOL0     H50056   8.396  -0.014   8.645 -1.3682  0.6313  2.5251
  371MOL0     H50057   8.244  -0.077   8.451  2.5762 -0.6726  1.6592
  371MOL0     H50058   8.221   0.086   8.525  1.5235  0.4882  1.3427
  371MOL0     H50059   8.018   0.005   8.648 -2.0551  2.6408 -3.2635
  371MOL0     H50060   7.994   0.001   8.479  0.4377  2.8102  0.4196
  371MOL0     H50061   8.064  -0.258   8.650  1.2738  1.4896  1.4054
  371MOL0     H50062   8.101  -0.252   8.488  0.8145 -1.7310  2.7562
  371MOL0     H50063   7.871  -0.349   8.534 -5.6915  0.6502 -1.5832
  371MOL0     H50064   7.841  -0.184   8.597  2.8533  3.0851 -0.1300
  371MOL0     H50065   8.720   0.017   9.048  0.5459 -0.0234  0.2640
  371MOL0     H50066   8.763   0.135   9.259  0.3019 -0.4994  0.6834
  371MOL0     H50067   8.742   0.230   9.670  0.5560 -1.6062  1.5367
  371MOL0     H50068   8.789   0.395   9.850 -1.0165  0.6004 -0.8883
  371MOL0     H50069   8.372   2.041  10.325  0.2612  0.7961  0.2695
  371MOL0     H50070   8.332   2.259  10.213  1.3941  1.1206 -4.0475
  371MOL0     H50071   8.111   2.390   9.625 -0.7858  1.2189 -1.0313
  371MOL0     H50072   8.169   2.568   9.489 -4.8697 -1.7750  1.8830
  371MOL0     H50073   8.450   2.915   9.638 -0.6492  1.4214  2.7546
  371MOL0     H50074   8.282   2.967   9.663 -0.4815  1.3389 -2.6397
  371MOL0     H50075   8.357   3.113   9.521 -0.9006 -0.9434  2.3162
  371MOL0     H50076   8.241   3.016   9.445 -1.4057 -0.2336  2.4667
  371MOL0     H50077   8.552   2.989   9.384  0.9674 -1.5295 -0.4873
  371MOL0     H50078   8.429   3.052   9.276  3.6980 -0.5506 -0.7073
  371MOL0     H50079   8.442   2.771   9.369  1.9250  2.6229  2.1765
  371MOL0     H50080   8.312   2.820   9.266  1.2910 -0.6125 -4.2992
  371MOL0     H50081   8.619   2.789   8.977  0.7637 -0.1146 -0.0690
  371MOL0     H50082   8.349   2.783   9.808 -1.5916  1.4105 -1.6374
  371MOL0     H50083   8.441   2.676   9.990 -0.8543 -0.0708  2.4180
  371MOL0     H50084   8.345   2.538  10.043  0.1185 -0.1535 -2.0447
  371MOL0     H50085   8.494   2.507   9.947  0.0021 -0.6327 -2.0803
  372MOL0     O50086   9.848   0.359   9.933 -0.3950  0.0798  0.9443
  372MOL0     C50087   9.926   0.395  10.019  0.8441 -0.0288  0.1487
  372MOL0     O50088  10.018   0.314  10.081 -0.0731 -0.3270  0.3379
  372MOL0     C50089  10.010   0.183  10.040 -0.6576 -0.5114  0.4494
  372MOL0     C50090   9.927   0.086  10.093 -0.0362  0.0005  0.4804
  372MOL0     C50091   9.937  -0.052  10.059 -0.1219 -0.1449  0.2695
  372MOL0     C50092  10.042  -0.102   9.980 -0.9527 -0.4944 -1.3406
  372MOL0     O50093  10.041  -0.231   9.937  0.6954  0.1747  0.3757
  372MOL0     C50094  10.169  -0.291   9.921 -0.3352 -0.9832 -0.3523
  372MOL0     C50095  10.157  -0.432   9.881 -0.5865  1.2940 -0.4344
  372MOL0     C50096  10.090  -0.452   9.749 -0.2593 -0.3811 -0.7100
  372MOL0     C50097  10.185  -0.432   9.622 -0.8611  0.1615 -0.2383
  372MOL0     C50098  10.114  -0.451   9.495 -0.2072 -0.1882  0.3635
  372MOL0     C50099  10.200  -0.435   9.376 -0.0630 -0.6521 -0.0494
  372MOL0     C50100  10.265  -0.291   9.365  0.5600  0.3689 -0.1863
  372MOL0     C50101  10.334  -0.255   9.236  0.3177 -0.9534 -0.6038
  372MOL0     N50102  10.436  -0.348   9.218 -0.2434 -0.4139 -0.6764
  372MOL0     C50103  10.560  -0.347   9.288  0.0210 -0.2879  0.8725
  372MOL0     C50104  10.627  -0.437   9.226  0.1886  0.6613  1.2193
  372MOL0     C50105  10.762  -0.490   9.272  0.1816  0.3393  0.1448
  372MOL0     C50106  10.762  -0.601   9.374 -1.3444  0.6536  0.1726
  372MOL0     C50107  10.730  -0.736   9.299  0.0277 -0.0747  0.3503
  372MOL0     C50108  10.693  -0.848   9.398 -0.2193 -0.3483 -0.1280
  372MOL0     O50109  10.673  -0.983   9.345 -0.4913 -0.2966 -0.5835
  372MOL0     C50110  10.784  -1.052   9.289  0.9784 -0.4403 -0.3783
  372MOL0     C50111  10.750  -1.152   9.204 -0.0139  0.0359 -0.3692
  372MOL0     C50112  10.846  -1.237   9.157  1.0327 -0.1375 -0.6230
  372MOL0     C50113  10.982  -1.227   9.179  0.5161 -0.1600 -0.1479
  372MOL0     C50114  11.079  -1.330   9.139 -0.9147  0.1920  0.5166
  372MOL0     O50115  11.040  -1.467   9.123 -0.7239  0.0037 -0.8617
  372MOL0     C50116  11.133  -1.558   9.102 -0.4937 -0.6110 -0.0273
  372MOL0     C50117  11.108  -1.668   9.020 -0.2372  0.2401  0.1479
  372MOL0     C50118  11.204  -1.760   9.004  0.6505  0.4412  0.7441
  372MOL0     C50119  11.330  -1.753   9.066 -0.4010  0.8889  0.7055
  372MOL0     O50120  11.427  -1.855   9.067  0.8767 -0.0889 -0.0997
  372MOL0     C50121  11.420  -1.973   8.983 -0.0958  0.2609  0.1784
  372MOL0     C50122  11.570  -2.019   8.949  0.7918 -0.4514  0.2236
  372MOL0     C50123  11.595  -2.098   8.810  0.6795  0.5957  0.2223
  372MOL0     C50124  11.638  -1.999   8.699 -0.2956 -0.0732 -0.7592
  372MOL0     C50125  11.673  -2.066   8.566 -0.2519  0.2407  0.0254
  372MOL0     C50126  11.777  -1.989   8.485 -0.8258  0.1572 -0.1055
  372MOL0     C50127  11.921  -1.999   8.558  0.1429 -0.1995 -0.9730
  372MOL0     C50128  12.004  -1.900   8.471  0.3978 -0.4570 -0.2793
  372MOL0    Cl50129  12.162  -1.883   8.542 -0.0830 -0.1178 -0.4371
  372MOL0     C50130  11.364  -1.640   9.142  0.3205 -0.3593 -0.5202
  372MOL0     C50131  11.264  -1.539   9.165  0.4550 -0.0441  0.4266
  372MOL0     O50132  11.190  -1.278   9.113 -0.3158  1.1030  0.3543
  372MOL0     C50133  11.015  -1.110   9.262 -0.6244  0.9948 -0.0759
  372MOL0     C50134  10.911  -1.032   9.324  0.0041 -0.0940  0.4105
  372MOL0     N50135  10.552  -0.495   9.124 -0.5622 -0.2774  0.7280
  372MOL0     N50136  10.437  -0.437   9.120 -0.2807  0.7856  0.0806
  372MOL0     C50137  10.125  -0.000   9.929  0.3296  0.2764  0.3566
  372MOL0     C50138  10.116   0.134   9.965  0.6946 -0.4041 -0.4018
  372MOL0     C50139   9.913   0.543  10.039  0.3725  0.9529 -1.3717
  372MOL0     C50140  10.029   0.616  10.027  0.0889 -0.8060 -0.7148
  372MOL0     C50141  10.035   0.755  10.025 -0.1927 -0.0645  0.8806
  372MOL0     C50142   9.917   0.820  10.059  1.3167 -0.5963 -0.3381
  372MOL0     O50143   9.938   0.957  10.072 -0.2529  0.0052 -0.4082
  372MOL0     C50144   9.838   1.035  10.138  0.1165 -1.4054  0.0720
  372MOL0     C50145   9.901   1.182  10.143 -0.5697  0.6786 -0.4097
  372MOL0     C50146   9.832   1.268  10.033 -0.5469  0.0204 -0.3873
  372MOL0     C50147   9.918   1.368   9.963  0.5591 -0.1344 -0.3123
  372MOL0     C50148   9.914   1.337   9.823  0.9768 -0.0693  0.1729
  372MOL0     C50149   9.923   1.297   9.709  0.1744  0.5249  0.5057
  372MOL0     C50150   9.793   0.752  10.075 -0.0803 -0.3606  0.4135
  372MOL0     C50151   9.786   0.617  10.056 -0.7025  1.1415  0.4677
  372MOL0     C50152   9.650   0.566  10.062 -0.0893  0.2844  0.3758
  372MOL0     H50153   9.848   0.119  10.160  0.1923  0.7192  0.4065
  372MOL0     H50154   9.859  -0.125  10.079  1.4221 -1.4598  1.9595
  372MOL0     H50155  10.218  -0.237   9.840 -0.1639 -2.6036 -1.3663
  372MOL0     H50156  10.233  -0.278  10.010 -0.7031  0.3073 -0.2644
  372MOL0     H50157  10.099  -0.490   9.953 -0.9368  1.2911 -0.7161
  372MOL0     H50158  10.262  -0.464   9.885 -0.8069  0.6404  0.4698
  372MOL0     H50159  10.000  -0.392   9.735 -0.3972 -1.2017 -4.2756
  372MOL0     H50160  10.067  -0.559   9.747  0.5012 -0.6148 -4.4207
  372MOL0     H50161  10.217  -0.327   9.624 -1.0636  0.2167  1.1292
  372MOL0     H50162  10.264  -0.507   9.623 -0.8669  0.0896  2.5074
  372MOL0     H50163  10.068  -0.550   9.501  0.5518 -0.5090  1.2040
  372MOL0     H50164  10.031  -0.383   9.475  1.6046  1.8598 -0.5369
  372MOL0     H50165  10.283  -0.506   9.373  0.4443 -0.0805 -2.9079
  372MOL0     H50166  10.143  -0.451   9.284  1.6247  0.7119 -1.4294
  372MOL0     H50167  10.335  -0.284   9.449 -0.3133 -3.0841  1.0165
  372MOL0     H50168  10.186  -0.218   9.382 -1.4603 -1.3148 -1.8538
  372MOL0     H50169  10.271  -0.246   9.148 -1.8417  0.1660  0.9518
  372MOL0     H50170  10.379  -0.155   9.236 -1.5970 -0.0542 -1.0659
  372MOL0     H50171  10.583  -0.285   9.375  4.1982  0.4407 -0.4959
  372MOL0     H50172  10.816  -0.520   9.182  1.3790  3.3608 -0.2520
  372MOL0     H50173  10.814  -0.404   9.314 -2.8278  0.8483  3.3262
  372MOL0     H50174  10.865  -0.604   9.411  0.0981 -2.6506 -3.4312
  372MOL0     H50175  10.686  -0.591   9.452  0.5131 -1.3715  2.3572
  372MOL0     H50176  10.819  -0.776   9.250 -0.3008 -0.1638 -0.1800
  372MOL0     H50177  10.647  -0.718   9.230  0.3250 -1.0556 -0.2714
  372MOL0     H50178  10.600  -0.801   9.431  2.4097  6.0306 -0.3919
  372MOL0     H50179  10.757  -0.842   9.487  2.5439  3.1127 -2.1106
  372MOL0     H50180  10.644  -1.173   9.188  0.0588  0.3785 -1.3522
  372MOL0     H50181  10.824  -1.307   9.077  0.5493  0.9566 -1.4681
  372MOL0     H50182  11.014  -1.692   8.971 -0.1958 -0.8030  0.5444
  372MOL0     H50183  11.174  -1.847   8.948 -0.2203  1.6759 -0.7539
  372MOL0     H50184  11.364  -2.055   9.030 -1.7945 -0.2344 -2.4804
  372MOL0     H50185  11.367  -1.940   8.893  0.2169  1.0614  0.2839
  372MOL0     H50186  11.639  -1.935   8.962 -0.2478  0.4559 -0.0121
  372MOL0     H50187  11.582  -2.098   9.024 -0.6892 -2.5192 -1.6102
  372MOL0     H50188  11.684  -2.160   8.828  2.4236  3.5149  2.3926
  372MOL0     H50189  11.505  -2.150   8.774  2.7947 -2.6418 -0.8343
  372MOL0     H50190  11.719  -1.950   8.754  0.4549 -3.5294  1.5970
  372MOL0     H50191  11.559  -1.927   8.677 -0.9835 -0.9591 -1.2579
  372MOL0     H50192  11.579  -2.070   8.512 -1.2781 -0.4853  1.7752
  372MOL0     H50193  11.709  -2.167   8.586 -0.5170  0.4451  1.6488
  372MOL0     H50194  11.773  -2.021   8.381 -0.4208 -1.8813  0.4624
  372MOL0     H50195  11.749  -1.883   8.482  4.5804  1.9705  0.7058
  372MOL0     H50196  11.951  -2.104   8.548  1.4612  0.2069 -1.4499
  372MOL0     H50197  11.928  -1.970   8.663  0.8751 -0.1187 -1.0383
  372MOL0     H50198  12.005  -1.950   8.373 -4.2575  0.8277 -1.2445
  372MOL0     H50199  11.958  -1.801   8.460 -0.4021 -0.5539  1.8640
  372MOL0     H50200  11.461  -1.632   9.191 -0.5406  0.5898  1.1041
  372MOL0     H50201  11.303  -1.465   9.234  0.2036  0.2717  0.2287
  372MOL0     H50202  11.120  -1.092   9.278 -0.4313 -0.3797  0.3154
  372MOL0     H50203  10.948  -0.950   9.386 -4.3055  0.2798  2.8645
  372MOL0     H50204  10.215  -0.018   9.872  0.8246  2.5223  0.3565
  372MOL0     H50205  10.185   0.205   9.920 -0.8144 -0.6468 -3.3546
  372MOL0     H50206  10.132   0.582  10.016  0.3336 -0.4441  0.3419
  372MOL0     H50207  10.118   0.819   9.998  1.0259 -1.7453  0.5142
  372MOL0     H50208   9.818   1.000  10.239  2.9182 -0.3939  1.0748
  372MOL0     H50209   9.745   1.038  10.080 -0.0272 -3.6518  0.0834
  372MOL0     H50210  10.008   1.193  10.122 -0.5973  3.2864  0.5516
  372MOL0     H50211   9.876   1.221  10.242 -0.9089  4.4971 -1.8371
  372MOL0     H50212   9.760   1.334  10.082 -0.7830 -0.3268 -0.2614
  372MOL0     H50213   9.763   1.209   9.972  0.2371 -0.2043 -1.0887
  372MOL0     H50214   9.873   1.465   9.985  0.4618 -0.9329  3.7718
  372MOL0     H50215  10.022   1.377   9.996  0.6224  0.2436 -0.6075
  372MOL0     H50216   9.933   1.259   9.610  2.0532  1.7789  0.1515
  372MOL0     H50217   9.702   0.797  10.114 -1.1541 -1.9667 -0.1626
  372MOL0     H50218   9.594   0.621   9.985  2.7352 -0.3442 -2.3223
  372MOL0     H50219   9.640   0.463  10.026 -5.3088  1.6947 -3.6114
  372MOL0     H50220   9.609   0.564  10.163 -2.2846  1.2076 -0.4214
  373MOL0     O50221   2.475   1.196  10.386 -0.2418 -0.3664 -0.1436
  373MOL0     C50222   2.576   1.156  10.328  0.3857  0.0273  0.7166
  373MOL0     O50223   2.646   1.050  10.367  0.1780 -0.7271  0.4286
  373MOL0     C50224   2.630   0.987  10.482  0.4429 -1.0519  0.9715
  373MOL0     C50225   2.730   1.006  10.572  0.0077 -0.2022  0.2158
  373MOL0     C50226   2.695   0.980  10.706 -0.3862  0.6734  0.2228
  373MOL0     C50227   2.572   0.937  10.755 -0.1122  0.1628  0.7991
  373MOL0     O50228   2.542   0.935  10.890  0.7473 -0.3736  0.0690
  373MOL0     C50229   2.426   1.010  10.931 -0.0922  0.4527  0.3033
  373MOL0     C50230   2.403   1.015  11.084 -0.0267  0.6929  0.0670
  373MOL0     C50231   2.398   1.148  11.148  1.1847 -0.1980 -0.0549
  373MOL0     C50232   2.422   1.136  11.300 -0.0648  0.4678  0.9030
  373MOL0     C50233   2.425   1.285  11.358 -0.0544  0.9839 -0.5305
  373MOL0     C50234   2.287   1.339  11.370  0.3563  1.1239 -0.2190
  373MOL0     C50235   2.280   1.485  11.353  0.5771  0.1582 -0.1881
  373MOL0     C50236   2.165   1.551  11.435  0.3986  0.7878  0.0496
  373MOL0     N50237   2.044   1.535  11.349 -0.0414 -0.9936 -0.5077
  373MOL0     C50238   1.957   1.639  11.325 -0.0779  0.0298 -0.0939
  373MOL0     C50239   1.837   1.582  11.312 -0.0909  0.4488  0.2353
  373MOL0     C50240   1.707   1.663  11.282 -0.9654  0.3447 -0.2369
  373MOL0     C50241   1.587   1.576  11.246  0.2987  0.4356 -0.4449
  373MOL0     C50242   1.452   1.657  11.248 -0.1897  0.5797 -0.0079
  373MOL0     C50243   1.345   1.558  11.221 -0.3887  0.1511 -1.0223
  373MOL0     O50244   1.234   1.545  11.312 -0.6573  0.5652  0.2351
  373MOL0     C50245   1.158   1.422  11.296  0.5737 -0.3230  0.1734
  373MOL0     C50246   1.112   1.371  11.412  0.1807 -0.0648  0.1168
  373MOL0     C50247   1.032   1.254  11.414  0.6565  0.2681 -0.2195
  373MOL0     C50248   1.019   1.171  11.295 -1.0616  0.5361 -0.4845
  373MOL0     C50249   0.958   1.037  11.303 -0.0065 -0.1861 -1.0091
  373MOL0     O50250   0.953   0.993  11.433 -0.2607 -0.0463 -0.5678
  373MOL0     C50251   0.899   0.873  11.481 -0.3439 -1.5197 -0.2978
  373MOL0     C50252   0.947   0.809  11.596  0.3178 -0.0529  0.2287
  373MOL0     C50253   0.870   0.713  11.664  0.3366  0.1076 -0.2791
  373MOL0     C50254   0.743   0.673  11.614  0.1343  0.6653  0.1933
  373MOL0     O50255   0.682   0.564  11.674  0.7246 -0.2795  0.6805
  373MOL0     C50256   0.540   0.568  11.692 -0.4612 -0.7368 -0.2848
  373MOL0     C50257   0.479   0.443  11.751  0.5335  0.7034 -0.0278
  373MOL0     C50258   0.525   0.413  11.892 -0.1472  0.5883  0.2642
  373MOL0     C50259   0.437   0.309  11.965  0.2382 -0.6046 -0.1538
  373MOL0     C50260   0.475   0.302  12.111  0.1770 -0.0794  0.4506
  373MOL0     C50261   0.391   0.198  12.193 -0.1075 -0.1006  0.1289
  373MOL0     C50262   0.424   0.226  12.344  0.3284 -0.6277 -0.7849
  373MOL0     C50263   0.319   0.153  12.431 -0.2766  0.5151  1.0397
  373MOL0    Cl50264   0.141   0.212  12.407  0.2256  0.2073  0.2447
  373MOL0     C50265   0.691   0.731  11.498 -0.9164 -0.8003  0.0344
  373MOL0     C50266   0.769   0.837  11.433 -0.2517 -0.4038 -0.0560
  373MOL0     O50267   0.918   0.982  11.202 -0.2299  0.4975 -0.0698
  373MOL0     C50268   1.076   1.232  11.180  0.1653  0.4468  0.5100
  373MOL0     C50269   1.148   1.350  11.176  0.1891  0.6288  0.2786
  373MOL0     N50270   1.850   1.443  11.318 -0.0308 -0.3198 -0.1281
  373MOL0     N50271   1.974   1.416  11.342  0.3989 -0.2934  0.4427
  373MOL0     C50272   2.480   0.899  10.651  0.0250 -0.2456  0.8997
  373MOL0     C50273   2.515   0.928  10.519  0.2700 -0.3014 -0.2953
  373MOL0     C50274   2.628   1.203  10.201 -0.4497 -0.6610  0.5710
  373MOL0     C50275   2.692   1.114  10.109  0.6216  0.3767  0.1726
  373MOL0     C50276   2.739   1.153   9.988  0.4895  0.1551  1.0822
  373MOL0     C50277   2.720   1.289   9.950 -0.6409 -0.8904 -0.5109
  373MOL0     O50278   2.754   1.350   9.831  0.3415  0.3021 -0.5005
  373MOL0     C50279   2.766   1.270   9.711 -0.1803 -0.0607 -0.7835
  373MOL0     C50280   2.709   1.351   9.582  0.9123 -0.5724  0.4824
  373MOL0     C50281   2.711   1.499   9.571 -0.1220 -0.2446 -0.0801
  373MOL0     C50282   2.632   1.563   9.453 -0.1704  0.0143 -0.0032
  373MOL0     C50283   2.695   1.532   9.328 -0.4540  0.1011 -0.7345
  373MOL0     C50284   2.748   1.507   9.219 -1.2160  0.2045  0.4579
  373MOL0     C50285   2.677   1.378  10.047  0.7004 -0.8266  0.2218
  373MOL0     C50286   2.622   1.340  10.166  0.7216  0.5271 -1.0694
  373MOL0     C50287   2.560   1.444  10.257 -0.1401 -0.1017  0.3100
  373MOL0     H50288   2.822   1.056  10.543 -1.6950  3.3923  0.5783
  373MOL0     H50289   2.776   0.993  10.777 -2.4764 -1.5403  3.2789
  373MOL0     H50290   2.426   1.112  10.892  0.2774  1.7577  3.4971
  373MOL0     H50291   2.334   0.966  10.890  0.1315 -1.0929  1.3705
  373MOL0     H50292   2.485   0.962  11.133  0.7941  2.9077  1.2223
  373MOL0     H50293   2.321   0.950  11.114  1.7787 -0.2819  3.3365
  373MOL0     H50294   2.299   1.193  11.140 -0.4039 -3.4288  0.0545
  373MOL0     H50295   2.480   1.202  11.101  2.4403 -1.3648  0.7164
  373MOL0     H50296   2.351   1.072  11.352  1.4274 -1.2201  0.9690
  373MOL0     H50297   2.526   1.104  11.316 -0.8021 -2.2114  0.6740
  373MOL0     H50298   2.476   1.292  11.455  0.9843 -2.2597 -0.6938
  373MOL0     H50299   2.483   1.339  11.283  0.8588  1.4058  0.4380
  373MOL0     H50300   2.212   1.289  11.309  0.3649  0.3222  0.4028
  373MOL0     H50301   2.264   1.309  11.473 -2.5403 -0.4260 -1.2119
  373MOL0     H50302   2.266   1.513  11.248  5.0572  0.4378 -0.8738
  373MOL0     H50303   2.368   1.540  11.386  0.7033  0.5327 -1.1187
  373MOL0     H50304   2.150   1.489  11.523  0.8443 -2.0738 -1.7435
  373MOL0     H50305   2.197   1.651  11.464 -1.4568  1.5405 -0.3656
  373MOL0     H50306   1.974   1.745  11.316 -0.9800  0.1079 -0.9251
  373MOL0     H50307   1.681   1.730  11.365 -1.8233 -0.5196  0.2101
  373MOL0     H50308   1.746   1.718  11.196 -0.1380 -0.5170 -0.4223
  373MOL0     H50309   1.604   1.544  11.143  3.5528  4.2761 -1.3554
  373MOL0     H50310   1.589   1.490  11.314 -2.6240 -3.6987 -4.9080
  373MOL0     H50311   1.446   1.737  11.173 -5.3295 -0.3741 -0.9947
  373MOL0     H50312   1.433   1.693  11.349  1.8369 -1.0452  1.0148
  373MOL0     H50313   1.392   1.459  11.211 -0.4518 -0.4232  2.7652
  373MOL0     H50314   1.294   1.576  11.126 -0.8289 -1.8846 -1.2271
  373MOL0     H50315   1.138   1.439  11.493 -0.7248  2.0348 -1.2462
  373MOL0     H50316   0.996   1.216  11.509  0.1963 -2.3168 -1.3294
  373MOL0     H50317   1.048   0.842  11.619  0.3644  1.1155 -1.5202
  373MOL0     H50318   0.924   0.657  11.740 -1.8365 -0.6437  0.8123
  373MOL0     H50319   0.512   0.658  11.748  1.6169  0.5763 -1.2617
  373MOL0     H50320   0.492   0.587  11.596 -2.9475 -1.0449  0.8015
  373MOL0     H50321   0.374   0.471  11.746  0.5936  0.7550 -1.3931
  373MOL0     H50322   0.499   0.359  11.684 -1.5205 -1.5319  1.9401
  373MOL0     H50323   0.631   0.388  11.892 -0.2512 -0.3911  3.8367
  373MOL0     H50324   0.520   0.510  11.944 -1.3463  1.5234 -1.4875
  373MOL0     H50325   0.464   0.221  11.905  1.2929  1.2989 -2.6612
  373MOL0     H50326   0.328   0.320  11.966  0.3111  0.1171 -0.0766
  373MOL0     H50327   0.455   0.400  12.154  0.7479 -0.7289  2.2775
  373MOL0     H50328   0.579   0.283  12.136  0.2696 -0.8954 -0.4928
  373MOL0     H50329   0.287   0.218  12.164  0.8016  4.0426 -0.8360
  373MOL0     H50330   0.422   0.095  12.171 -2.5846 -1.1973  1.3348
  373MOL0     H50331   0.416   0.334  12.361 -1.5181 -0.8531 -0.0027
  373MOL0     H50332   0.522   0.198  12.382 -0.8919 -1.0939  2.2770
  373MOL0     H50333   0.332   0.050  12.398 -2.2538  1.3062 -2.7305
  373MOL0     H50334   0.352   0.165  12.535 -0.9771  0.8199  1.2319
  373MOL0     H50335   0.603   0.694  11.445  0.1506 -2.3687 -0.7056
  373MOL0     H50336   0.720   0.884  11.348  1.2789  1.3053 -0.0629
  373MOL0     H50337   1.060   1.166  11.094 -0.7147  1.7619 -0.3686
  373MOL0     H50338   1.188   1.376  11.079 -2.2485 -1.7327 -1.5269
  373MOL0     H50339   2.377   0.867  10.660 -0.7861  0.4292 -3.6075
  373MOL0     H50340   2.442   0.913  10.440  0.7612 -2.3341 -0.4348
  373MOL0     H50341   2.706   1.011  10.140  0.1837  0.4776  0.7252
  373MOL0     H50342   2.799   1.091   9.923 -1.2463 -1.4274  0.9037
  373MOL0     H50343   2.715   1.173   9.714 -4.3183  1.9225 -0.1416
  373MOL0     H50344   2.873   1.249   9.710 -0.1483 -0.7467  2.6310
  373MOL0     H50345   2.603   1.329   9.573  1.0047 -0.3867 -1.4965
  373MOL0     H50346   2.756   1.307   9.493  1.8313 -1.4077  1.3471
  373MOL0     H50347   2.813   1.535   9.558 -0.4860  1.0672  0.5357
  373MOL0     H50348   2.679   1.559   9.657  1.0126 -2.6456  2.1829
  373MOL0     H50349   2.536   1.511   9.455  0.0469 -0.3615  1.0194
  373MOL0     H50350   2.619   1.672   9.460 -2.8859 -0.1920 -0.6295
  373MOL0     H50351   2.778   1.464   9.126 -1.9268 -1.3449  0.9255
  373MOL0     H50352   2.671   1.482  10.016  2.9736 -1.3366 -2.3051
  373MOL0     H50353   2.585   1.545  10.222  3.9285 -0.9191  0.3560
  373MOL0     H50354   2.456   1.425  10.283  0.9424 -2.1129  3.7071
  373MOL0     H50355   2.611   1.440  10.353  2.2720  3.6900 -0.5856
  374MOL0     O50356   3.083   3.671   6.417 -0.3113  0.2110 -0.5398
  374MOL0     C50357   3.059   3.556   6.455 -0.0936  0.2279  0.2752
  374MOL0     O50358   2.932   3.506   6.456 -0.0576 -0.2371  0.0902
  374MOL0     C50359   2.832   3.592   6.494 -0.1776 -0.1695  0.2434
  374MOL0     C50360   2.713   3.557   6.439 -0.5767  0.9605 -0.4024
  374MOL0     C50361   2.603   3.636   6.448 -0.5215 -0.7699 -0.1146
  374MOL0     C50362   2.610   3.755   6.520 -0.9473 -0.3090 -0.8227
  374MOL0     O50363   2.500   3.829   6.547  1.0139  0.3782  0.7429
  374MOL0     C50364   2.378   3.813   6.458  0.8891  0.3644 -0.0357
  374MOL0     C50365   2.272   3.923   6.480  0.0665 -0.0120 -0.8738
  374MOL0     C50366   2.226   3.908   6.625 -0.0229 -0.7229  0.5092
  374MOL0     C50367   2.112   4.017   6.647  0.1361 -0.2148 -0.5471
  374MOL0     C50368   2.164   4.151   6.690 -0.8647 -0.0861 -0.6525
  374MOL0     C50369   2.062   4.265   6.672 -0.5658  0.9413 -0.5702
  374MOL0     C50370   1.931   4.241   6.752  0.7647  0.7434 -0.4301
  374MOL0     C50371   1.891   4.372   6.801  0.4980 -0.3069 -0.4177
  374MOL0     N50372   1.759   4.359   6.877 -0.4151  0.3155 -0.4249
  374MOL0     C50373   1.735   4.370   7.009 -0.9295  0.2162 -0.6994
  374MOL0     C50374   1.599   4.353   7.020 -0.4754  1.1712  0.2697
  374MOL0     C50375   1.505   4.329   7.142 -0.6688  0.3485  0.1323
  374MOL0     C50376   1.454   4.460   7.198 -0.6731  0.1161  1.2227
  374MOL0     C50377   1.310   4.454   7.245 -0.0958  0.2148  0.2985
  374MOL0     C50378   1.288   4.362   7.372  0.2053 -0.0006  0.9272
  374MOL0     O50379   1.156   4.388   7.405 -0.2838  0.4571 -0.0426
  374MOL0     C50380   1.110   4.355   7.532  0.0402 -0.4510  0.5645
  374MOL0     C50381   1.182   4.280   7.626 -0.2441 -0.8367  0.0486
  374MOL0     C50382   1.122   4.241   7.743  0.5904 -0.0363  0.0267
  374MOL0     C50383   0.996   4.263   7.779  1.0438 -0.5543  0.5128
  374MOL0     C50384   0.949   4.205   7.902 -0.6450  0.3161 -1.2945
  374MOL0     O50385   0.821   4.226   7.954  0.1874  0.2245  0.1722
  374MOL0     C50386   0.781   4.158   8.070 -0.1972 -1.0893  0.2332
  374MOL0     C50387   0.700   4.236   8.146 -0.0696  0.4613 -0.4504
  374MOL0     C50388   0.650   4.185   8.262 -0.2929  0.1244 -0.1763
  374MOL0     C50389   0.672   4.051   8.307 -0.6140 -1.0401  1.0613
  374MOL0     O50390   0.631   4.024   8.434 -0.1460  0.2474 -0.1564
  374MOL0     C50391   0.484   4.008   8.441  0.2805  0.4476  0.5649
  374MOL0     C50392   0.452   3.912   8.556 -0.1269  0.1818  0.4700
  374MOL0     C50393   0.498   3.762   8.534 -0.6447  0.3413  0.6283
  374MOL0     C50394   0.470   3.677   8.662  0.3781  0.0781  0.2561
  374MOL0     C50395   0.447   3.528   8.637 -0.4207  0.8876  0.0142
  374MOL0     C50396   0.580   3.458   8.627 -0.4625 -1.0644 -0.0374
  374MOL0     C50397   0.591   3.337   8.723  0.3508  0.0583  0.0740
  374MOL0     C50398   0.708   3.258   8.692 -0.5326 -0.0340  0.8510
  374MOL0    Cl50399   0.853   3.372   8.697  0.1356 -0.0252 -0.0170
  374MOL0     C50400   0.757   3.968   8.230  0.4437  0.0798 -0.0020
  374MOL0     C50401   0.801   4.026   8.109 -0.3363 -0.1200  1.2342
  374MOL0     O50402   1.027   4.139   7.968 -0.4352 -0.4528 -0.6164
  374MOL0     C50403   0.927   4.344   7.681 -0.0006 -0.2239 -0.0956
  374MOL0     C50404   0.976   4.380   7.559 -0.1672  0.5399  0.5998
  374MOL0     N50405   1.548   4.338   6.893  0.8490  0.1199 -0.3054
  374MOL0     N50406   1.641   4.346   6.809  0.1292  0.0275 -1.2604
  374MOL0     C50407   2.729   3.792   6.591  0.3214  0.8060 -0.0727
  374MOL0     C50408   2.836   3.705   6.578 -0.4905 -0.0303 -0.1339
  374MOL0     C50409   3.163   3.465   6.517 -0.2562  1.4810  0.3809
  374MOL0     C50410   3.128   3.371   6.615 -0.4104  0.0700  0.0378
  374MOL0     C50411   3.210   3.265   6.652 -0.2656  0.6401  0.7195
  374MOL0     C50412   3.345   3.267   6.607  1.1195  0.2936  1.0005
  374MOL0     O50413   3.430   3.169   6.642 -0.7153  0.0112  0.0439
  374MOL0     C50414   3.495   3.106   6.532  0.3135  0.2630 -0.7086
  374MOL0     C50415   3.557   2.980   6.594 -0.7368  0.6093 -0.6766
  374MOL0     C50416   3.459   2.892   6.668  0.7206 -0.0109 -0.2264
  374MOL0     C50417   3.499   2.757   6.711 -0.6862 -0.2637  0.4765
  374MOL0     C50418   3.615   2.769   6.799 -0.7152  1.0563 -0.1889
  374MOL0     C50419   3.724   2.768   6.859  0.1528 -0.7280 -0.2505
  374MOL0     C50420   3.384   3.366   6.513  0.3545 -0.1058 -0.3786
  374MOL0     C50421   3.294   3.452   6.458 -0.0289 -0.1514  0.3670
  374MOL0     C50422   3.343   3.549   6.350  0.0969  0.7431 -0.1909
  374MOL0     H50423   2.722   3.464   6.384  1.4994  1.3317 -0.7846
  374MOL0     H50424   2.512   3.616   6.391  0.1158  1.5111 -2.0962
  374MOL0     H50425   2.421   3.823   6.358  3.1899 -0.0446  0.8465
  374MOL0     H50426   2.327   3.717   6.466  2.7644 -1.0554 -3.3886
  374MOL0     H50427   2.192   3.911   6.406  0.6210  3.6840 -2.2719
  374MOL0     H50428   2.315   4.023   6.472 -3.6218  1.8551  0.5264
  374MOL0     H50429   2.307   3.937   6.692  0.4663 -1.1649  0.1131
  374MOL0     H50430   2.192   3.806   6.647  0.2938 -1.0626 -0.5336
  374MOL0     H50431   2.052   4.028   6.555 -2.6834 -0.0176  1.1782
  374MOL0     H50432   2.039   3.980   6.719  3.2471 -4.5754  0.7432
  374MOL0     H50433   2.206   4.145   6.791 -0.7065 -0.7684 -0.7530
  374MOL0     H50434   2.258   4.162   6.636  1.8345  0.3471  3.6821
  374MOL0     H50435   2.119   4.355   6.698  1.0935 -0.3714  0.6270
  374MOL0     H50436   2.031   4.294   6.571  0.1056  2.9254 -0.2458
  374MOL0     H50437   1.954   4.172   6.835 -0.4120 -1.6196 -1.9685
  374MOL0     H50438   1.855   4.193   6.690 -0.5890  1.7616  0.3741
  374MOL0     H50439   1.967   4.422   6.862  0.6750 -1.6388  0.4878
  374MOL0     H50440   1.866   4.442   6.721  0.2576  1.3964  1.0936
  374MOL0     H50441   1.805   4.375   7.092 -0.3244  1.6414 -1.2757
  374MOL0     H50442   1.428   4.260   7.108  0.9058 -0.2293 -2.5375
  374MOL0     H50443   1.567   4.270   7.211 -1.4291 -1.8012 -0.9353
  374MOL0     H50444   1.518   4.502   7.277 -2.7079  4.3381  0.9216
  374MOL0     H50445   1.457   4.523   7.109 -0.0594 -2.0662 -0.3932
  374MOL0     H50446   1.252   4.416   7.161  1.5140  1.7236 -1.5900
  374MOL0     H50447   1.269   4.550   7.276  0.5957  2.6123 -5.1513
  374MOL0     H50448   1.354   4.395   7.453 -0.7435  0.2686  1.6186
  374MOL0     H50449   1.301   4.256   7.347  2.9711  0.4852  0.0148
  374MOL0     H50450   1.286   4.252   7.617 -0.1360 -0.0922 -1.2693
  374MOL0     H50451   1.195   4.193   7.808  2.5242  0.4879 -1.6529
  374MOL0     H50452   0.658   4.328   8.107 -1.6446 -0.7893 -1.8131
  374MOL0     H50453   0.581   4.237   8.328  1.0061  2.2933 -0.4394
  374MOL0     H50454   0.441   4.107   8.455 -2.2984 -0.7304  1.5078
  374MOL0     H50455   0.451   3.978   8.341  1.6239  0.2440  0.1651
  374MOL0     H50456   0.485   3.953   8.652 -0.1778  0.9966  0.1496
  374MOL0     H50457   0.343   3.906   8.547 -0.2150 -0.6307  1.8804
  374MOL0     H50458   0.439   3.729   8.448  0.0550  1.4313 -0.2916
  374MOL0     H50459   0.602   3.751   8.502 -0.2260 -1.4057  2.3915
  374MOL0     H50460   0.369   3.707   8.690 -0.8403 -1.3647 -2.2608
  374MOL0     H50461   0.535   3.716   8.741 -3.0145  1.6410  2.4820
  374MOL0     H50462   0.382   3.502   8.553  1.5077  2.3992 -2.0686
  374MOL0     H50463   0.386   3.498   8.723 -0.7570  2.4465  0.3378
  374MOL0     H50464   0.593   3.410   8.530  1.0841 -1.7814  0.4946
  374MOL0     H50465   0.663   3.528   8.639  1.8699 -3.3525 -1.7757
  374MOL0     H50466   0.495   3.285   8.718  1.0198 -1.4454  1.6909
  374MOL0     H50467   0.603   3.375   8.825 -1.2117 -1.5190  0.9098
  374MOL0     H50468   0.721   3.179   8.767  1.6822 -0.2833  0.2838
  374MOL0     H50469   0.706   3.205   8.597 -0.2057  0.1311  0.7507
  374MOL0     H50470   0.782   3.869   8.267 -0.8692 -0.4634 -0.5083
  374MOL0     H50471   0.861   3.956   8.052 -1.1035  0.4528 -0.3441
  374MOL0     H50472   0.820   4.363   7.686  0.2987  1.2970  1.7190
  374MOL0     H50473   0.916   4.423   7.480  1.3507  0.1720 -0.8048
  374MOL0     H50474   2.730   3.868   6.669  3.6347 -0.7754  1.6119
  374MOL0     H50475   2.930   3.729   6.627 -0.7985  1.3087 -0.1413
  374MOL0     H50476   3.026   3.366   6.652 -1.2498 -0.4287 -2.1530
  374MOL0     H50477   3.172   3.186   6.716 -0.5956 -2.4694 -2.9545
  374MOL0     H50478   3.581   3.166   6.501  3.2733 -2.2089  2.0083
  374MOL0     H50479   3.425   3.091   6.449 -1.6406  1.6295  0.6004
  374MOL0     H50480   3.631   3.004   6.671 -0.9372 -1.8770  0.3939
  374MOL0     H50481   3.615   2.924   6.520 -0.9945 -0.2951 -0.2144
  374MOL0     H50482   3.368   2.882   6.608  1.8012  2.3715 -2.4949
  374MOL0     H50483   3.431   2.936   6.764  1.9410  0.4176 -0.0377
  374MOL0     H50484   3.414   2.706   6.756  0.0511 -0.8070  1.2849
  374MOL0     H50485   3.531   2.692   6.630 -0.7401  1.2377 -0.8073
  374MOL0     H50486   3.821   2.763   6.904  0.6293 -2.4258 -1.3640
  374MOL0     H50487   3.492   3.376   6.502  0.5008  0.1729  1.1347
  374MOL0     H50488   3.342   3.654   6.380  2.0732  0.4867  0.9174
  374MOL0     H50489   3.448   3.521   6.342  0.5274  2.3732 -0.6295
  374MOL0     H50490   3.302   3.528   6.251  0.6779 -2.5315  0.1378
  375MOL0     O50491   7.736   7.530   9.516 -0.4278 -0.4255  0.5481
  375MOL0     C50492   7.671   7.436   9.564  0.4844  0.8007  0.6236
  375MOL0     O50493   7.573   7.445   9.657  0.4544 -0.0861  0.6486
  375MOL0     C50494   7.527   7.574   9.679  0.3318  0.3395 -0.0500
  375MOL0     C50495   7.432   7.645   9.597  0.5855  0.2981 -0.5711
  375MOL0     C50496   7.396   7.784   9.623 -0.6288  0.4138 -0.1710
  375MOL0     C50497   7.450   7.846   9.743  0.6337 -0.0667  0.5770
  375MOL0     O50498   7.391   7.966   9.771 -0.1642  0.0113 -0.4988
  375MOL0     C50499   7.481   8.073   9.810  0.6603  0.0225 -0.1948
  375MOL0     C50500   7.397   8.201   9.831 -0.1332  0.1892  0.9189
  375MOL0     C50501   7.487   8.308   9.891 -0.2468  0.3242  0.0614
  375MOL0     C50502   7.408   8.446   9.887 -0.1667  1.0810  0.6757
  375MOL0     C50503   7.487   8.568   9.921  0.0326 -0.9291 -0.6408
  375MOL0     C50504   7.404   8.659  10.027  0.3733  0.1408  0.5403
  375MOL0     C50505   7.466   8.809  10.055  0.4082  0.9819  0.0833
  375MOL0     C50506   7.388   8.879  10.162 -1.2502  0.2098  0.1322
  375MOL0     N50507   7.248   8.882  10.128 -0.6500  0.1589 -0.0400
  375MOL0     C50508   7.155   8.801  10.178  1.0124  0.4171  0.0593
  375MOL0     C50509   7.036   8.849  10.145  0.4734  0.5001 -0.1418
  375MOL0     C50510   6.898   8.780  10.166  0.0766 -0.0040 -0.7339
  375MOL0     C50511   6.835   8.825  10.298  1.0087  0.9716 -0.5161
  375MOL0     C50512   6.828   8.978  10.312 -0.0261  0.2275  0.4738
  375MOL0     C50513   6.744   9.035  10.432  0.4143 -0.5233  0.7707
  375MOL0     O50514   6.607   9.018  10.407  0.2741 -0.8651  0.3732
  375MOL0     C50515   6.532   9.101  10.324 -0.8980 -0.0788 -0.1289
  375MOL0     C50516   6.415   9.045  10.255 -0.2324 -0.4537  0.4436
  375MOL0     C50517   6.363   9.116  10.153  0.5032 -0.4081 -0.2493
  375MOL0     C50518   6.404   9.251  10.128 -0.8098 -0.3230 -0.3651
  375MOL0     C50519   6.341   9.327  10.017  0.3375 -0.5309 -0.4658
  375MOL0     O50520   6.280   9.254   9.923 -0.1867  1.2385  0.4848
  375MOL0     C50521   6.212   9.330   9.822  0.0326  0.3591  0.0199
  375MOL0     C50522   6.083   9.373   9.855  0.9505  0.5616  1.5309
  375MOL0     C50523   6.017   9.459   9.755 -0.5657 -0.7836  0.0517
  375MOL0     C50524   6.075   9.486   9.626  0.4215 -0.4385 -0.8930
  375MOL0     O50525   6.002   9.561   9.539 -0.1835  0.1614  0.7072
  375MOL0     C50526   6.081   9.619   9.436  0.7328 -0.3957  0.4512
  375MOL0     C50527   5.990   9.690   9.339 -0.2052  0.5836 -0.4088
  375MOL0     C50528   6.062   9.788   9.242  0.2053 -0.5186 -0.3202
  375MOL0     C50529   5.960   9.836   9.141 -0.1110  0.6857  0.5114
  375MOL0     C50530   6.014   9.941   9.037 -0.7360  0.7860 -0.3430
  375MOL0     C50531   5.903   9.962   8.935  0.1407  0.3846  0.5302
  375MOL0     C50532   5.947  10.058   8.825 -0.9074  0.4619 -0.5102
  375MOL0     C50533   5.962  10.205   8.876 -0.6129 -0.7798 -0.2312
  375MOL0    Cl50534   5.827  10.266   8.960  0.5626 -0.0599 -0.5976
  375MOL0     C50535   6.201   9.429   9.603  0.0540  1.8463  0.4827
  375MOL0     C50536   6.266   9.351   9.698  0.4021  0.6846  0.2074
  375MOL0     O50537   6.344   9.452  10.026 -0.1266  0.4263  0.6973
  375MOL0     C50538   6.494   9.314  10.204 -0.7659  0.0214 -0.0607
  375MOL0     C50539   6.561   9.244  10.306  0.2483  0.2797 -1.2154
  375MOL0     N50540   7.059   8.959  10.069  1.0203 -0.8256  0.7873
  375MOL0     N50541   7.185   8.982  10.049 -0.7714  0.0832  0.0578
  375MOL0     C50542   7.537   7.777   9.829 -1.7134  0.0210 -0.3906
  375MOL0     C50543   7.577   7.650   9.787  0.7923  0.0635 -0.3959
  375MOL0     C50544   7.706   7.306   9.510 -0.1861  0.5523 -0.3568
  375MOL0     C50545   7.600   7.220   9.481  0.2568  0.2930 -0.2756
  375MOL0     C50546   7.628   7.085   9.433  0.1387 -0.5072  0.3139
  375MOL0     C50547   7.755   7.037   9.413 -0.6137  0.4081  0.7004
  375MOL0     O50548   7.761   6.907   9.374 -0.2942  0.3274  1.0873
  375MOL0     C50549   7.881   6.838   9.349 -0.5439 -0.2551  0.3079
  375MOL0     C50550   7.904   6.740   9.464 -0.7120  0.8122  0.1302
  375MOL0     C50551   7.919   6.795   9.610  1.3059  0.4477  0.9607
  375MOL0     C50552   7.955   6.691   9.713 -0.2687  1.2769  1.2016
  375MOL0     C50553   7.854   6.595   9.736  0.2862 -0.3624  0.0702
  375MOL0     C50554   7.769   6.507   9.745 -0.1480 -0.7924  0.2552
  375MOL0     C50555   7.863   7.128   9.432  0.1622  0.5980  0.6282
  375MOL0     C50556   7.839   7.262   9.478 -0.3408 -0.0855  0.2704
  375MOL0     C50557   7.969   7.340   9.502  0.8042  0.4267  0.1445
  375MOL0     H50558   7.385   7.589   9.517  4.3895 -1.4473 -1.8008
  375MOL0     H50559   7.324   7.840   9.564  2.6061  0.8927 -4.0902
  375MOL0     H50560   7.527   8.050   9.906  0.2295 -0.3745 -0.0782
  375MOL0     H50561   7.552   8.092   9.729  0.2392  1.9110 -0.1761
  375MOL0     H50562   7.312   8.177   9.896  0.0558  0.3425  1.2276
  375MOL0     H50563   7.353   8.229   9.735  2.4986 -1.1036 -0.7699
  375MOL0     H50564   7.569   8.314   9.819  0.1400 -7.3896 -1.0571
  375MOL0     H50565   7.526   8.277   9.988  1.9902  1.3951 -0.4325
  375MOL0     H50566   7.358   8.460   9.790  0.9422 -0.2177 -0.1207
  375MOL0     H50567   7.319   8.432   9.949 -2.4679  0.9330 -2.4200
  375MOL0     H50568   7.579   8.538   9.972 -0.1053 -0.1501  0.0738
  375MOL0     H50569   7.510   8.621   9.828  0.7619  1.6905  0.9430
  375MOL0     H50570   7.304   8.671   9.984  0.8948  2.0868 -0.2271
  375MOL0     H50571   7.397   8.602  10.121  2.1869  0.0115  0.6326
  375MOL0     H50572   7.450   8.864   9.962 -0.0475  1.5628  0.4981
  375MOL0     H50573   7.571   8.817  10.085 -0.5752  2.3584  3.7907
  375MOL0     H50574   7.420   8.823  10.250  1.7182 -0.8495 -1.4665
  375MOL0     H50575   7.427   8.980  10.167 -1.1244  0.2305 -1.1002
  375MOL0     H50576   7.156   8.712  10.240  0.4764  1.1317  1.1175
  375MOL0     H50577   6.831   8.810  10.086 -1.7579  1.6311  1.2972
  375MOL0     H50578   6.921   8.673  10.174  1.4367  0.4097  3.6559
  375MOL0     H50579   6.733   8.784  10.299  1.2120  0.4600  0.0640
  375MOL0     H50580   6.895   8.787  10.381 -2.5124 -2.8720  0.6470
  375MOL0     H50581   6.791   9.038  10.228  0.3905  0.3182  0.3544
  375MOL0     H50582   6.932   9.008  10.328 -0.2229  0.4064  1.4930
  375MOL0     H50583   6.763   9.142  10.446 -3.5262  0.8907 -2.6795
  375MOL0     H50584   6.780   8.978  10.519  3.3438 -0.5383 -0.3466
  375MOL0     H50585   6.393   8.941  10.276  2.1991 -0.7828  1.6818
  375MOL0     H50586   6.277   9.072  10.104  0.9029 -1.9822  0.4063
  375MOL0     H50587   6.032   9.360   9.950  0.4029 -0.1276  1.1496
  375MOL0     H50588   5.915   9.490   9.773 -0.5006 -0.6819  0.2603
  375MOL0     H50589   6.157   9.688   9.474  2.8276 -0.6008 -2.9488
  375MOL0     H50590   6.138   9.540   9.386  1.6937 -0.3139  1.3683
  375MOL0     H50591   5.927   9.623   9.279 -2.3057  2.0180  0.0994
  375MOL0     H50592   5.924   9.755   9.397 -0.2934 -1.7471  2.3040
  375MOL0     H50593   6.097   9.877   9.296  1.3210 -1.9139  1.3867
  375MOL0     H50594   6.149   9.742   9.194  1.2455  2.0223 -1.0072
  375MOL0     H50595   5.871   9.888   9.178 -0.0832  2.1766 -1.3357
  375MOL0     H50596   5.940   9.743   9.087  2.1644 -0.8287  2.1207
  375MOL0     H50597   6.095   9.888   8.987 -0.0941 -0.7512  2.1594
  375MOL0     H50598   6.044  10.028   9.095 -1.6969  2.1707 -1.8521
  375MOL0     H50599   5.877   9.864   8.893  2.5278  0.5450 -1.5507
  375MOL0     H50600   5.808   9.999   8.974  0.1660  1.5287 -0.4620
  375MOL0     H50601   5.876  10.058   8.742 -0.3061 -1.1614 -1.0532
  375MOL0     H50602   6.040  10.019   8.784 -0.6840 -0.5755  0.9049
  375MOL0     H50603   6.054  10.226   8.933  0.8514 -0.1390 -2.6584
  375MOL0     H50604   5.969  10.264   8.784 -4.6531  0.7292  0.2367
  375MOL0     H50605   6.255   9.420   9.509  1.6568 -0.5594  1.5493
  375MOL0     H50606   6.357   9.300   9.669 -1.6726 -4.2330  1.4190
  375MOL0     H50607   6.524   9.412  10.170  2.6503 -1.3293 -1.3915
  375MOL0     H50608   6.639   9.300  10.357  0.2938  0.0652 -1.0485
  375MOL0     H50609   7.581   7.823   9.917 -0.7062 -1.9536  0.1998
  375MOL0     H50610   7.644   7.586   9.844 -0.2705 -0.1982  0.6134
  375MOL0     H50611   7.496   7.251   9.487  0.0225 -0.1731 -1.5943
  375MOL0     H50612   7.551   7.015   9.404  0.6886 -0.2183 -2.1140
  375MOL0     H50613   7.968   6.905   9.348  1.2412 -2.4434  0.0937
  375MOL0     H50614   7.888   6.788   9.251  3.2979 -0.9090  0.7624
  375MOL0     H50615   7.996   6.691   9.434 -0.9834 -0.9943  2.0618
  375MOL0     H50616   7.827   6.662   9.461  0.2766 -0.1980  0.5816
  375MOL0     H50617   7.834   6.844   9.658  0.0695  0.0497 -0.7668
  375MOL0     H50618   8.001   6.867   9.614  1.2389  0.7920 -2.0531
  375MOL0     H50619   8.047   6.645   9.678 -1.9869 -2.1612  0.7706
  375MOL0     H50620   7.997   6.741   9.801  1.7911  0.7016  0.5815
  375MOL0     H50621   7.683   6.445   9.731  0.3876 -1.5825  0.3869
  375MOL0     H50622   7.966   7.105   9.409  0.7905 -1.9556  4.8638
  375MOL0     H50623   8.037   7.275   9.557 -2.4657 -2.4216  1.1676
  375MOL0     H50624   8.012   7.381   9.410  1.6058  2.6938  1.4595
  375MOL0     H50625   7.951   7.426   9.567 -1.8345  0.1239 -0.0746
  376MOL0     O50626   4.000   7.254  10.762  1.1831  0.8973 -0.0513
  376MOL0     C50627   3.919   7.177  10.709 -0.8007  0.4042 -0.7233
  376MOL0     O50628   3.902   7.046  10.746 -0.3230  0.7093  1.1821
  376MOL0     C50629   3.978   7.004  10.846 -0.1887  1.1128  2.0713
  376MOL0     C50630   3.967   7.042  10.975  0.3137 -0.6460  0.0203
  376MOL0     C50631   4.043   6.993  11.079 -1.2811 -0.1314 -0.1719
  376MOL0     C50632   4.138   6.904  11.054 -1.1122 -0.3401  0.3253
  376MOL0     O50633   4.208   6.869  11.165 -1.2608 -0.1835 -0.2115
  376MOL0     C50634   4.346   6.837  11.140  0.7403 -0.0044 -0.4827
  376MOL0     C50635   4.419   6.821  11.277 -0.1598 -0.0549  0.3270
  376MOL0     C50636   4.567   6.770  11.266 -1.9061 -0.8138  0.8443
  376MOL0     C50637   4.597   6.621  11.219 -1.0433 -0.3719  0.4817
  376MOL0     C50638   4.742   6.616  11.174 -0.3828 -0.8523  0.3239
  376MOL0     C50639   4.784   6.485  11.110  0.3979  0.3064  0.3424
  376MOL0     C50640   4.925   6.508  11.044  0.1891 -0.1941 -0.1138
  376MOL0     C50641   5.045   6.547  11.139 -0.8510  0.4488 -0.4435
  376MOL0     N50642   5.037   6.452  11.253 -1.0408  0.6436  0.8755
  376MOL0     C50643   4.979   6.460  11.384 -0.4296  0.0839  0.3288
  376MOL0     C50644   4.978   6.337  11.439 -1.0428 -0.0528  0.0536
  376MOL0     C50645   4.913   6.290  11.560 -0.7315 -0.2766 -0.0998
  376MOL0     C50646   5.008   6.303  11.685 -0.9356 -0.1966  0.1289
  376MOL0     C50647   4.949   6.217  11.798 -0.2770  0.3913 -0.9277
  376MOL0     C50648   4.987   6.065  11.794 -0.6735 -0.3016 -0.3430
  376MOL0     O50649   4.997   5.991  11.917  0.8511  0.7954 -0.6083
  376MOL0     C50650   4.899   6.026  12.003 -0.5431  1.4646  0.3865
  376MOL0     C50651   4.760   6.022  11.978  0.0156 -0.0141 -0.3422
  376MOL0     C50652   4.676   6.086  12.071  0.9597 -0.3978  1.2466
  376MOL0     C50653   4.725   6.137  12.192 -0.2171  0.6162 -0.3856
  376MOL0     C50654   4.631   6.211  12.287  0.0954  0.4595 -0.2116
  376MOL0     O50655   4.520   6.259  12.231  0.3379  0.5070  0.5436
  376MOL0     C50656   4.427   6.329  12.302 -0.3499 -0.5029 -0.4222
  376MOL0     C50657   4.420   6.468  12.301 -0.9743  0.0465 -1.8110
  376MOL0     C50658   4.306   6.532  12.371 -0.7578 -0.5234  0.7378
  376MOL0     C50659   4.218   6.456  12.441 -0.2283  0.2547  0.1062
  376MOL0     O50660   4.134   6.532  12.532  0.8156 -0.2072 -0.6286
  376MOL0     C50661   4.045   6.462  12.617  0.4180 -0.3676 -0.3762
  376MOL0     C50662   3.983   6.567  12.709  0.2026  0.1888  0.0344
  376MOL0     C50663   4.035   6.542  12.855  0.7129 -0.2521 -0.7255
  376MOL0     C50664   3.990   6.643  12.958 -0.4778 -0.5540  0.2956
  376MOL0     C50665   4.003   6.587  13.098  0.1210  1.3284 -0.1786
  376MOL0     C50666   3.995   6.697  13.203 -1.1373 -0.8215 -0.7009
  376MOL0     C50667   4.062   6.678  13.340 -0.1931  0.0997 -0.4060
  376MOL0     C50668   4.206   6.635  13.330  0.4844 -0.7456 -0.7077
  376MOL0    Cl50669   4.291   6.777  13.266  0.3275 -0.2979 -0.2295
  376MOL0     C50670   4.225   6.316  12.435  0.9683  0.9346  0.9234
  376MOL0     C50671   4.324   6.253  12.359  0.5179  0.1997  0.1645
  376MOL0     O50672   4.666   6.220  12.407 -0.2076 -0.4661 -0.0755
  376MOL0     C50673   4.861   6.136  12.211  0.9986  0.0109 -0.2275
  376MOL0     C50674   4.952   6.072  12.127  0.0472  0.0415 -0.7924
  376MOL0     N50675   5.049   6.262  11.345  0.9577  0.1822  0.4405
  376MOL0     N50676   5.080   6.323  11.238 -0.8005 -0.3582  0.2873
  376MOL0     C50677   4.161   6.857  10.925  0.4906  0.7111 -0.2779
  376MOL0     C50678   4.072   6.897  10.817 -0.6603 -0.7770  1.0247
  376MOL0     C50679   3.820   7.236  10.619 -0.2101 -0.3486  0.3637
  376MOL0     C50680   3.708   7.168  10.592  0.4682  0.1497 -1.0724
  376MOL0     C50681   3.606   7.202  10.500  0.0745 -0.0443 -0.7144
  376MOL0     C50682   3.609   7.325  10.439 -1.0171 -0.5627 -1.1594
  376MOL0     O50683   3.506   7.371  10.360  0.1703  0.5459 -0.1661
  376MOL0     C50684   3.547   7.377  10.224  0.2277  0.6161 -0.4447
  376MOL0     C50685   3.435   7.433  10.151  0.0445  0.0804  0.4336
  376MOL0     C50686   3.400   7.575  10.215 -0.5354  0.7406  0.8179
  376MOL0     C50687   3.294   7.659  10.140  0.3980 -0.4698 -0.3288
  376MOL0     C50688   3.216   7.586  10.041 -0.4093 -0.1606  0.2936
  376MOL0     C50689   3.160   7.538   9.946 -0.0433 -0.3598  0.4033
  376MOL0     C50690   3.727   7.399  10.462  0.0751 -0.1749 -0.6173
  376MOL0     C50691   3.826   7.362  10.553 -0.7830  0.7084 -0.1735
  376MOL0     C50692   3.930   7.466  10.597  0.7098 -0.4784  0.3971
  376MOL0     H50693   3.897   7.124  10.984 -1.1375 -1.5323 -2.3201
  376MOL0     H50694   4.024   7.032  11.179  0.0604  0.9842 -0.3262
  376MOL0     H50695   4.356   6.743  11.084 -2.7924  0.0466 -1.3890
  376MOL0     H50696   4.397   6.915  11.082  2.0205 -0.6174 -0.2347
  376MOL0     H50697   4.374   6.742  11.337  3.0264  0.3732  3.6114
  376MOL0     H50698   4.419   6.915  11.334 -0.4206  0.3904 -0.3836
  376MOL0     H50699   4.628   6.795  11.353 -1.8909 -0.2967  0.6878
  376MOL0     H50700   4.617   6.823  11.185 -1.4917 -1.2949  0.7796
  376MOL0     H50701   4.582   6.540  11.291  0.3189 -0.1755  1.0326
  376MOL0     H50702   4.541   6.591  11.130 -3.9400 -1.2526  2.4502
  376MOL0     H50703   4.749   6.696  11.100 -0.9080 -1.7063 -0.6722
  376MOL0     H50704   4.804   6.624  11.263 -0.9926  1.2768  0.6219
  376MOL0     H50705   4.781   6.406  11.185 -2.3676  0.1742  0.2160
  376MOL0     H50706   4.711   6.456  11.033 -1.3441  3.1306  0.7558
  376MOL0     H50707   4.917   6.599  10.984  0.1433 -1.0770 -1.5197
  376MOL0     H50708   4.959   6.424  10.982  0.5293 -0.4916  0.4722
  376MOL0     H50709   5.138   6.529  11.085  1.1916 -0.3706  3.0657
  376MOL0     H50710   5.047   6.650  11.176  1.8707  0.4213 -0.3741
  376MOL0     H50711   4.917   6.535  11.431 -1.3498  0.9849 -2.1620
  376MOL0     H50712   4.823   6.352  11.563  0.7299  2.0713 -1.7012
  376MOL0     H50713   4.874   6.188  11.549 -1.4586  0.1164 -1.4930
  376MOL0     H50714   5.102   6.252  11.659 -1.0998 -0.3906 -0.0957
  376MOL0     H50715   5.027   6.409  11.701 -0.6674  0.0546 -1.6493
  376MOL0     H50716   4.841   6.222  11.782 -0.1920  0.3860 -1.5271
  376MOL0     H50717   4.975   6.262  11.894 -0.7462 -1.0039 -0.1210
  376MOL0     H50718   5.088   6.059  11.754  1.3652  5.0207  2.9782
  376MOL0     H50719   4.923   6.019  11.717 -2.2209  0.0537  0.6972
  376MOL0     H50720   4.718   5.977  11.888  2.5088 -1.9657 -0.6427
  376MOL0     H50721   4.572   6.062  12.053  0.3809  1.5571  1.7735
  376MOL0     H50722   4.494   6.525  12.246  3.7543 -2.6131  1.0876
  376MOL0     H50723   4.290   6.639  12.356  0.1941 -0.4433  0.2729
  376MOL0     H50724   3.979   6.404  12.551 -0.4740  3.1718 -2.9318
  376MOL0     H50725   4.098   6.394  12.684  1.4664  0.7144 -0.0777
  376MOL0     H50726   4.006   6.670  12.679  1.7958 -0.4723 -1.1125
  376MOL0     H50727   3.875   6.554  12.713  0.2388 -1.2149 -2.0254
  376MOL0     H50728   4.003   6.447  12.898  0.5511  0.6436  1.2567
  376MOL0     H50729   4.144   6.545  12.863  0.6371 -0.6213  0.8026
  376MOL0     H50730   3.884   6.664  12.939 -0.7101 -1.4589  0.5119
  376MOL0     H50731   4.049   6.731  12.932 -3.1606  1.0868 -0.6593
  376MOL0     H50732   4.099   6.535  13.103  0.9177  2.5628 -1.7956
  376MOL0     H50733   3.923   6.515  13.119 -0.4708  1.2153 -2.5717
  376MOL0     H50734   4.039   6.787  13.159  0.6346  0.0300  2.5099
  376MOL0     H50735   3.895   6.735  13.226 -0.8289 -0.5844  0.2940
  376MOL0     H50736   3.998   6.605  13.390  0.0667  0.3361  0.2829
  376MOL0     H50737   4.054   6.776  13.387  4.5951  0.5439 -0.0036
  376MOL0     H50738   4.234   6.605  13.431 -1.7804 -0.1355  0.1604
  376MOL0     H50739   4.220   6.543  13.272  1.8911 -1.8544  1.2808
  376MOL0     H50740   4.161   6.245  12.486  2.6137 -2.4115 -1.3729
  376MOL0     H50741   4.317   6.145  12.355  2.6149  0.0689 -1.7813
  376MOL0     H50742   4.899   6.187  12.299  1.7208  2.7531 -2.0185
  376MOL0     H50743   5.055   6.084  12.158 -0.1000  1.0303 -0.6522
  376MOL0     H50744   4.240   6.790  10.892  2.1836  2.5435 -0.1771
  376MOL0     H50745   4.099   6.854  10.721  3.1416  1.5101  0.8779
  376MOL0     H50746   3.691   7.084  10.657  1.9610 -0.3363 -1.2663
  376MOL0     H50747   3.524   7.133  10.480 -1.6422  1.6056  0.3532
  376MOL0     H50748   3.574   7.277  10.189  0.5755 -0.3676  2.3346
  376MOL0     H50749   3.637   7.439  10.227  0.8939 -0.3198  2.7086
  376MOL0     H50750   3.356   7.362  10.174  0.1452 -0.7251 -1.4754
  376MOL0     H50751   3.455   7.442  10.043  0.3869 -0.6331  0.4355
  376MOL0     H50752   3.494   7.631  10.209  1.4776 -2.3180  1.5756
  376MOL0     H50753   3.385   7.573  10.323 -0.3008  2.0603  0.8941
  376MOL0     H50754   3.223   7.692  10.217  0.1305 -0.1156 -0.7209
  376MOL0     H50755   3.344   7.740  10.086 -0.2531  0.2038  0.0436
  376MOL0     H50756   3.101   7.490   9.871  1.4909  1.8360 -2.3738
  376MOL0     H50757   3.731   7.496  10.412  0.0083  0.4730  0.5812
  376MOL0     H50758   4.029   7.425  10.575 -1.1881 -4.5400 -1.6634
  376MOL0     H50759   3.923   7.563  10.545  1.9879 -0.9564 -0.7302
  376MOL0     H50760   3.935   7.488  10.704 -0.2699  0.7128  0.2238
  377MOL0     O50761   6.204   8.372   2.875  0.1245 -0.5622  0.0653
  377MOL0     C50762   6.192   8.249   2.864  0.3778  0.0654 -0.7368
  377MOL0     O50763   6.094   8.174   2.920 -0.6787  0.2872 -0.1069
  377MOL0     C50764   5.991   8.235   2.991 -0.6424 -0.1690 -0.0625
  377MOL0     C50765   5.943   8.363   2.970  0.7305  0.8234 -0.8651
  377MOL0     C50766   5.853   8.419   3.055  0.8339  1.1000  0.1630
  377MOL0     C50767   5.804   8.347   3.165 -0.0725 -0.5043  0.2631
  377MOL0     O50768   5.694   8.397   3.231 -0.0974  0.2823  0.0120
  377MOL0     C50769   5.642   8.337   3.350 -0.1533  0.7035 -0.9447
  377MOL0     C50770   5.538   8.428   3.417 -0.3173 -0.1576  0.3513
  377MOL0     C50771   5.485   8.361   3.547  0.4257  0.2209  0.3860
  377MOL0     C50772   5.386   8.445   3.620 -0.1567  0.2665 -0.5676
  377MOL0     C50773   5.344   8.385   3.755  0.0993  0.6373 -0.1640
  377MOL0     C50774   5.249   8.468   3.834  0.2433 -0.4669 -0.0696
  377MOL0     C50775   5.135   8.525   3.751  0.2439  0.3455  0.3469
  377MOL0     C50776   5.021   8.597   3.842 -0.1856 -0.4837  1.1762
  377MOL0     N50777   4.940   8.531   3.943  0.0430 -0.0586  0.9129
  377MOL0     C50778   4.973   8.499   4.069  0.5555 -0.4847  0.1495
  377MOL0     C50779   4.848   8.473   4.131 -0.1744 -0.9411 -0.0768
  377MOL0     C50780   4.819   8.442   4.274 -0.2747  0.2365 -0.1986
  377MOL0     C50781   4.715   8.336   4.294  0.2573  0.8575  0.2115
  377MOL0     C50782   4.686   8.328   4.446  0.4703  0.2700  1.1465
  377MOL0     C50783   4.775   8.234   4.522  0.0780 -0.3195 -0.0597
  377MOL0     O50784   4.720   8.243   4.653 -0.0971 -0.0720  0.2367
  377MOL0     C50785   4.783   8.161   4.751 -0.4270  0.0912  0.2653
  377MOL0     C50786   4.883   8.063   4.719  0.0791 -0.9471 -0.7231
  377MOL0     C50787   4.942   8.003   4.830  0.7232 -1.1550 -0.0282
  377MOL0     C50788   4.902   8.023   4.965  0.6162 -0.3999 -0.5587
  377MOL0     C50789   4.946   7.940   5.073 -0.3761 -0.2008  0.1672
  377MOL0     O50790   4.961   7.814   5.048 -0.3421 -1.5200  0.8091
  377MOL0     C50791   5.034   7.725   5.127  0.6109  0.3800 -1.0548
  377MOL0     C50792   5.061   7.731   5.269  0.2854  0.5879  0.4327
  377MOL0     C50793   5.121   7.629   5.339 -0.8935 -0.7688  0.6822
  377MOL0     C50794   5.157   7.512   5.265 -0.7870 -0.7279  0.5368
  377MOL0     O50795   5.248   7.420   5.304  0.8438 -0.1064 -0.3338
  377MOL0     C50796   5.348   7.467   5.391 -0.1419 -0.0178  0.0044
  377MOL0     C50797   5.486   7.393   5.360 -0.4947 -0.4232 -0.0639
  377MOL0     C50798   5.599   7.450   5.448  0.2137 -0.4478  0.5346
  377MOL0     C50799   5.737   7.384   5.425  0.4041 -0.0070 -0.1901
  377MOL0     C50800   5.838   7.451   5.521 -0.5632  0.1845  1.2177
  377MOL0     C50801   5.980   7.407   5.493 -0.2984  0.5014  0.2552
  377MOL0     C50802   6.080   7.454   5.603  0.0920 -0.6187 -0.9946
  377MOL0     C50803   6.109   7.605   5.614 -0.7118  0.4433  0.0603
  377MOL0    Cl50804   6.204   7.651   5.463 -0.2447 -0.1480 -0.7301
  377MOL0     C50805   5.116   7.494   5.138 -0.0904  0.4800 -0.5791
  377MOL0     C50806   5.050   7.597   5.068 -0.3364 -0.8588  0.1407
  377MOL0     O50807   4.997   8.002   5.163 -0.0008 -0.8980 -0.4718
  377MOL0     C50808   4.810   8.126   4.995 -0.2810 -1.3268  0.0104
  377MOL0     C50809   4.756   8.197   4.886 -0.5729 -0.0770  0.2775
  377MOL0     N50810   4.755   8.488   4.033 -0.0881 -0.1760 -0.1247
  377MOL0     N50811   4.808   8.519   3.922  0.8091  1.1727 -0.1645
  377MOL0     C50812   5.870   8.223   3.203 -0.9400  0.0912 -0.3341
  377MOL0     C50813   5.957   8.168   3.108 -0.6918 -0.0670 -0.7533
  377MOL0     C50814   6.300   8.179   2.799  0.1904 -0.6765 -0.4462
  377MOL0     C50815   6.371   8.240   2.691  1.0223  0.0257 -0.2015
  377MOL0     C50816   6.488   8.177   2.638 -0.2463 -0.3446  0.0970
  377MOL0     C50817   6.544   8.065   2.700  0.1760  0.2254 -0.3330
  377MOL0     O50818   6.662   7.997   2.680  0.2628 -0.2818 -0.6454
  377MOL0     C50819   6.700   8.000   2.542  0.3993  0.1306  0.0351
  377MOL0     C50820   6.786   8.117   2.494  0.9318 -1.0734  0.6963
  377MOL0     C50821   6.853   8.095   2.361  0.2776 -0.2840 -1.3930
  377MOL0     C50822   6.784   8.174   2.244 -0.5465 -0.8903 -0.2440
  377MOL0     C50823   6.787   8.324   2.261  0.7972 -0.9343  0.7240
  377MOL0     C50824   6.802   8.444   2.245 -0.2072 -0.7858 -0.7138
  377MOL0     C50825   6.476   8.021   2.809  0.4599 -0.3859 -0.2187
  377MOL0     C50826   6.360   8.068   2.861 -0.0872 -0.0298 -0.5229
  377MOL0     C50827   6.326   8.022   3.000 -0.5850  0.4661  0.4843
  377MOL0     H50828   5.971   8.414   2.878 -0.1982 -0.5901 -1.9693
  377MOL0     H50829   5.814   8.519   3.039  0.5862  0.7560 -1.5563
  377MOL0     H50830   5.596   8.239   3.334  0.9782 -0.6237  2.7413
  377MOL0     H50831   5.727   8.311   3.414  0.1983 -0.6628 -1.9379
  377MOL0     H50832   5.459   8.459   3.348 -1.2456 -2.5082  0.2658
  377MOL0     H50833   5.595   8.518   3.442  1.9132 -0.1718 -3.7882
  377MOL0     H50834   5.573   8.337   3.607  1.5926  1.7976 -0.5938
  377MOL0     H50835   5.439   8.266   3.521 -0.3761  1.0226 -1.3598
  377MOL0     H50836   5.430   8.545   3.631  1.1345 -0.0715 -2.2326
  377MOL0     H50837   5.297   8.456   3.558  1.1495  0.1251 -2.5537
  377MOL0     H50838   5.306   8.286   3.733  1.7996 -0.1620  0.3050
  377MOL0     H50839   5.443   8.375   3.802 -0.0517  0.3568  0.0895
  377MOL0     H50840   5.186   8.413   3.904 -0.7250  0.7753  0.0783
  377MOL0     H50841   5.302   8.541   3.895 -1.1674  1.3155 -0.8734
  377MOL0     H50842   5.084   8.442   3.701 -1.5865  0.6327  1.6269
  377MOL0     H50843   5.166   8.596   3.675 -0.2250  0.0270 -0.1499
  377MOL0     H50844   5.069   8.683   3.890 -1.4133  0.6625  0.3950
  377MOL0     H50845   4.954   8.648   3.773 -0.0445  0.7561  1.9266
  377MOL0     H50846   5.076   8.497   4.104  1.4479  0.1159 -2.2110
  377MOL0     H50847   4.908   8.427   4.336 -1.0079 -1.1086  0.5544
  377MOL0     H50848   4.773   8.529   4.323  0.4037  0.8118 -0.5567
  377MOL0     H50849   4.633   8.367   4.230  0.6151  2.5091  0.5245
  377MOL0     H50850   4.753   8.239   4.259 -2.9466  0.1076 -1.5164
  377MOL0     H50851   4.589   8.278   4.456  1.5957 -2.1376  0.8130
  377MOL0     H50852   4.678   8.428   4.490  0.6181 -0.1398  2.1417
  377MOL0     H50853   4.880   8.266   4.527 -0.8637  3.3837 -0.7291
  377MOL0     H50854   4.770   8.130   4.489  1.7308 -0.4153 -0.0953
  377MOL0     H50855   4.908   8.046   4.615  2.4254  0.3338 -0.4412
  377MOL0     H50856   5.015   7.923   4.819  1.7876 -0.2590  0.3743
  377MOL0     H50857   5.030   7.822   5.320 -2.4229 -0.6558  1.1919
  377MOL0     H50858   5.159   7.649   5.439  0.2251 -0.4237  0.2134
  377MOL0     H50859   5.353   7.576   5.391 -0.3865  0.0091  1.0982
  377MOL0     H50860   5.324   7.429   5.491 -0.4223 -1.3387 -0.5439
  377MOL0     H50861   5.475   7.285   5.369 -0.7960 -0.2417  2.4434
  377MOL0     H50862   5.520   7.408   5.257  2.8036 -0.6274  0.8843
  377MOL0     H50863   5.602   7.559   5.440 -2.3247 -0.3641 -0.1755
  377MOL0     H50864   5.565   7.440   5.551 -4.8335  2.6352 -0.4869
  377MOL0     H50865   5.771   7.391   5.321 -1.8666 -1.2996 -1.0851
  377MOL0     H50866   5.726   7.280   5.457  2.9044 -0.1115  0.5250
  377MOL0     H50867   5.809   7.417   5.621 -3.9193 -0.6464  0.1101
  377MOL0     H50868   5.835   7.560   5.509 -3.4503  0.0646  0.0677
  377MOL0     H50869   5.980   7.298   5.501 -1.5014  0.5204  0.7309
  377MOL0     H50870   6.027   7.441   5.401  4.3698 -1.2289  1.6973
  377MOL0     H50871   6.172   7.396   5.611  1.5081  1.6514  0.5013
  377MOL0     H50872   6.025   7.418   5.691 -0.9282  0.2784 -1.2427
  377MOL0     H50873   6.016   7.662   5.626 -0.8614 -0.0670  1.4858
  377MOL0     H50874   6.178   7.609   5.699 -0.3735  2.8220 -0.2641
  377MOL0     H50875   5.129   7.392   5.102  3.6512  0.7608 -0.3639
  377MOL0     H50876   5.018   7.577   4.966  0.7175 -1.4809 -0.0764
  377MOL0     H50877   4.780   8.147   5.098  1.0544  0.2599  0.1159
  377MOL0     H50878   4.682   8.270   4.918 -1.0178 -1.2665  2.1601
  377MOL0     H50879   5.846   8.174   3.297  3.6212  1.2944  1.7263
  377MOL0     H50880   6.014   8.077   3.120 -0.2678  0.4500  1.4677
  377MOL0     H50881   6.333   8.329   2.641 -0.1174  0.8808  2.0744
  377MOL0     H50882   6.531   8.231   2.554 -0.4467 -0.3384 -0.0025
  377MOL0     H50883   6.602   7.996   2.494 -0.3087 -0.3536  1.4493
  377MOL0     H50884   6.759   7.914   2.508  0.0051  0.5961 -1.9420
  377MOL0     H50885   6.863   8.115   2.572  0.8994 -2.0428  0.7185
  377MOL0     H50886   6.728   8.210   2.494  1.7300 -0.5078  3.0039
  377MOL0     H50887   6.865   7.988   2.342 -0.7458 -0.5774 -0.4565
  377MOL0     H50888   6.950   8.145   2.363  0.0867  0.1039  0.8765
  377MOL0     H50889   6.828   8.147   2.147  2.5932 -2.4237  1.4526
  377MOL0     H50890   6.683   8.137   2.225 -1.1569 -0.0549  1.2079
  377MOL0     H50891   6.818   8.547   2.223 -0.9647 -0.7494 -1.1494
  377MOL0     H50892   6.536   7.955   2.871  1.2750 -0.2848 -0.8863
  377MOL0     H50893   6.420   7.992   3.048 -0.5079 -0.2401 -0.0948
  377MOL0     H50894   6.276   8.094   3.066 -2.7641 -1.4401  1.0504
  377MOL0     H50895   6.260   7.935   2.993  1.3708 -1.0322 -0.1575
  378MOL0     O50896   0.665  10.077   1.398  0.0460  0.5959  0.1346
  378MOL0     C50897   0.637  10.118   1.289  1.0641 -0.9555 -0.2284
  378MOL0     O50898   0.651  10.255   1.255  0.3863  1.0665 -0.4878
  378MOL0     C50899   0.702  10.356   1.327 -0.9068  0.5917 -0.3601
  378MOL0     C50900   0.726  10.351   1.473  0.3268 -0.3156  0.5510
  378MOL0     C50901   0.761  10.468   1.539 -0.6722 -0.0271 -0.7180
  378MOL0     C50902   0.802  10.580   1.471 -0.3198 -0.0465  0.4373
  378MOL0     O50903   0.856  10.680   1.549  0.1467 -0.4292 -0.3099
  378MOL0     C50904   0.922  10.791   1.486  1.1590  0.6096 -0.6533
  378MOL0     C50905   1.008  10.898   1.567  0.2690  0.7485 -0.0563
  378MOL0     C50906   0.937  10.970   1.676  0.2254 -0.0135  0.0461
  378MOL0     C50907   0.998  11.109   1.703 -1.4012 -0.4347  0.8429
  378MOL0     C50908   0.943  11.160   1.837 -0.3522 -0.9964  0.5118
  378MOL0     C50909   1.033  11.261   1.897 -0.1695 -0.0216  0.4449
  378MOL0     C50910   1.157  11.210   1.970  0.3497 -0.1264 -0.6194
  378MOL0     C50911   1.133  11.123   2.095  0.0500  0.2882  0.2959
  378MOL0     N50912   1.254  11.054   2.127  0.0680  0.6004 -0.0725
  378MOL0     C50913   1.365  11.125   2.150  0.0004 -0.0906  0.1266
  378MOL0     C50914   1.448  11.027   2.178 -0.5568  0.5005 -0.3183
  378MOL0     C50915   1.590  11.049   2.212 -0.5280  0.5113 -0.2204
  378MOL0     C50916   1.613  11.075   2.367  0.0195  0.2905  0.8189
  378MOL0     C50917   1.507  11.163   2.443 -0.4448  0.6086 -0.5180
  378MOL0     C50918   1.588  11.215   2.574 -0.3874  0.5119  0.2368
  378MOL0     O50919   1.648  11.343   2.535  0.1047  0.9092  0.3598
  378MOL0     C50920   1.603  11.445   2.618 -0.8541  0.3453  0.1890
  378MOL0     C50921   1.484  11.502   2.584  0.0398 -0.3875 -0.1488
  378MOL0     C50922   1.421  11.603   2.657 -0.0885  0.2237 -0.1527
  378MOL0     C50923   1.490  11.658   2.766 -0.1276  0.0846 -0.6174
  378MOL0     C50924   1.434  11.773   2.840  0.6310  0.8286 -0.3971
  378MOL0     O50925   1.491  11.804   2.960  0.1719 -0.8627 -0.0689
  378MOL0     C50926   1.423  11.900   3.033  0.2524  0.3794 -0.0454
  378MOL0     C50927   1.492  12.014   3.061  0.6468  0.7575 -0.3821
  378MOL0     C50928   1.437  12.116   3.125 -0.3096  0.9516 -0.0247
  378MOL0     C50929   1.309  12.110   3.169 -0.0783 -0.0753 -0.0518
  378MOL0     O50930   1.262  12.206   3.253  0.3537 -0.1545 -1.0975
  378MOL0     C50931   1.311  12.183   3.394 -0.5493 -0.1013  0.6557
  378MOL0     C50932   1.217  12.257   3.484  0.2383  0.0383  0.3129
  378MOL0     C50933   1.096  12.184   3.515  0.0114 -0.0248 -0.2734
  378MOL0     C50934   1.007  12.274   3.610 -0.6579  1.1564  0.5959
  378MOL0     C50935   0.867  12.296   3.552 -1.1659 -0.6437 -0.0056
  378MOL0     C50936   0.776  12.166   3.541  0.5055 -0.7666  0.9410
  378MOL0     C50937   0.763  12.064   3.651 -1.4717  0.2539 -0.7853
  378MOL0     C50938   0.697  11.940   3.594  0.5369 -0.2818 -0.9477
  378MOL0    Cl50939   0.648  11.850   3.733  0.2082 -0.2375 -0.6236
  378MOL0     C50940   1.229  12.001   3.134 -0.2180 -0.0941 -0.0734
  378MOL0     C50941   1.295  11.894   3.073 -0.3380 -0.3063  0.2113
  378MOL0     O50942   1.326  11.819   2.795 -0.8713 -0.2973  0.2891
  378MOL0     C50943   1.625  11.607   2.796  0.2296 -0.0334 -0.9652
  378MOL0     C50944   1.679  11.494   2.729 -0.1832 -0.3910 -0.9017
  378MOL0     N50945   1.389  10.898   2.171  0.1039  0.5832 -0.4072
  378MOL0     N50946   1.269  10.923   2.134 -0.5778  0.5853 -0.0635
  378MOL0     C50947   0.778  10.586   1.336 -0.0067 -0.6239 -0.0755
  378MOL0     C50948   0.734  10.471   1.263  0.5840  0.5531 -0.5623
  378MOL0     C50949   0.578  10.029   1.184  0.1429  0.1918 -0.9358
  378MOL0     C50950   0.555   9.901   1.217  0.4338  0.8657  0.3078
  378MOL0     C50951   0.490   9.812   1.134 -0.1400  0.5119 -0.3801
  378MOL0     C50952   0.454   9.842   1.007 -0.7050 -0.6184 -0.0297
  378MOL0     O50953   0.405   9.757   0.915  0.4819 -0.1938 -0.6507
  378MOL0     C50954   0.505   9.683   0.858  0.6996 -0.7938  1.2199
  378MOL0     C50955   0.436   9.570   0.771 -0.3693 -1.1050 -0.1136
  378MOL0     C50956   0.357   9.464   0.854  0.1293 -1.1157 -0.1605
  378MOL0     C50957   0.326   9.335   0.772 -1.5451  0.1767  0.0325
  378MOL0     C50958   0.228   9.355   0.674  0.9996  0.4456 -0.5225
  378MOL0     C50959   0.161   9.392   0.578  1.3317  0.3698 -0.5281
  378MOL0     C50960   0.479   9.972   0.967 -0.6839 -0.0924 -0.4597
  378MOL0     C50961   0.541  10.068   1.057 -0.0995 -0.2099  0.0820
  378MOL0     C50962   0.547  10.207   1.003 -0.5779  0.2347 -0.0781
  378MOL0     H50963   0.694  10.266   1.533  1.8686 -0.9473  0.5133
  378MOL0     H50964   0.776  10.465   1.647 -0.3666  0.1614 -0.7558
  378MOL0     H50965   0.996  10.742   1.422  1.7322 -0.7589  0.9619
  378MOL0     H50966   0.845  10.851   1.437  2.1956  4.3701  1.8682
  378MOL0     H50967   1.054  10.962   1.492  1.9757 -3.1621 -2.6611
  378MOL0     H50968   1.086  10.854   1.630 -2.8266 -2.4829  1.9778
  378MOL0     H50969   0.959  10.917   1.770 -1.7393  0.6185  0.9103
  378MOL0     H50970   0.830  10.973   1.657 -0.4049 -2.3994  2.5323
  378MOL0     H50971   1.107  11.103   1.709 -1.1079  0.9558 -1.7450
  378MOL0     H50972   0.967  11.172   1.619 -0.9661 -1.1247  0.1561
  378MOL0     H50973   0.857  11.225   1.816  1.2160 -0.1653 -4.5459
  378MOL0     H50974   0.912  11.080   1.905  2.0654 -2.4419  0.0361
  378MOL0     H50975   1.067  11.328   1.817  0.5933 -1.9243 -0.9002
  378MOL0     H50976   0.973  11.321   1.966  0.0765 -1.8385  2.3395
  378MOL0     H50977   1.224  11.296   1.981  0.5531 -0.3613  0.0554
  378MOL0     H50978   1.214  11.150   1.898  0.2401 -2.1175  0.8768
  378MOL0     H50979   1.107  11.197   2.172  1.2450 -0.6636  1.6588
  378MOL0     H50980   1.050  11.053   2.081  1.7871 -1.9380  0.6830
  378MOL0     H50981   1.378  11.233   2.147 -3.6926  0.4517 -0.9483
  378MOL0     H50982   1.644  10.956   2.192 -3.8732 -1.3923 -1.2608
  378MOL0     H50983   1.638  11.125   2.149 -1.4430  0.8767 -0.4955
  378MOL0     H50984   1.625  10.976   2.413  1.1253  0.2580  0.4943
  378MOL0     H50985   1.708  11.128   2.366  1.4211 -2.0403 -1.3055
  378MOL0     H50986   1.423  11.105   2.482  1.5483  0.3038  4.0556
  378MOL0     H50987   1.483  11.254   2.387 -1.9267  2.3294  2.6311
  378MOL0     H50988   1.678  11.157   2.594  0.0077  0.2712 -1.9408
  378MOL0     H50989   1.536  11.226   2.669  1.3273 -1.5099  1.4861
  378MOL0     H50990   1.455  11.467   2.486 -0.0724  1.5392 -0.8516
  378MOL0     H50991   1.332  11.656   2.623  1.5337  2.9814 -0.3601
  378MOL0     H50992   1.593  12.004   3.024 -0.0054  0.6559 -2.2813
  378MOL0     H50993   1.503  12.196   3.156  0.9733 -0.5351  1.2258
  378MOL0     H50994   1.321  12.078   3.424 -1.2367 -0.5638 -0.7089
  378MOL0     H50995   1.413  12.223   3.387  1.2013 -4.3839 -1.7716
  378MOL0     H50996   1.274  12.276   3.576 -0.4922 -1.1065  1.0358
  378MOL0     H50997   1.194  12.354   3.439 -0.1348  1.0873  2.6256
  378MOL0     H50998   1.048  12.131   3.432  1.5344 -1.0396 -0.5620
  378MOL0     H50999   1.141  12.103   3.574 -0.1774 -0.4562 -0.7100
  378MOL0     H51000   1.056  12.371   3.614 -3.2583  2.6874 -1.3953
  378MOL0     H51001   0.988  12.232   3.709  1.0232 -2.7298 -0.4986
  378MOL0     H51002   0.894  12.340   3.456 -3.6560 -0.1023 -0.5244
  378MOL0     H51003   0.810  12.380   3.591 -1.6725 -1.3646  0.8321
  378MOL0     H51004   0.675  12.207   3.533  1.7510  2.6044  0.7795
  378MOL0     H51005   0.821  12.110   3.459  4.0214  0.4073  1.9015
  378MOL0     H51006   0.719  12.109   3.741 -0.4697  1.1514 -0.7275
  378MOL0     H51007   0.864  12.037   3.682 -1.5704 -2.2097 -2.3550
  378MOL0     H51008   0.610  11.983   3.543  0.5270 -0.2280 -0.8855
  378MOL0     H51009   0.754  11.886   3.519  4.0526 -1.4560  2.2508
  378MOL0     H51010   1.130  12.022   3.173  0.4846  1.6912  0.8804
  378MOL0     H51011   1.245  11.798   3.068  2.3368 -1.7182 -1.9317
  378MOL0     H51012   1.686  11.649   2.875 -1.5283 -1.3878  1.2125
  378MOL0     H51013   1.774  11.450   2.756  0.2124 -0.6125 -2.5445
  378MOL0     H51014   0.793  10.677   1.279  2.0992  0.1396  1.5869
  378MOL0     H51015   0.719  10.464   1.156  1.3241 -1.1076 -0.5761
  378MOL0     H51016   0.579   9.871   1.318 -0.0402  1.8726  0.7321
  378MOL0     H51017   0.482   9.706   1.158  0.4867  0.6644  0.5515
  378MOL0     H51018   0.584   9.647   0.925  0.1244  1.5734  3.3261
  378MOL0     H51019   0.561   9.743   0.786 -0.3306 -2.2284 -0.8762
  378MOL0     H51020   0.507   9.530   0.699 -1.7794 -0.0736 -2.1859
  378MOL0     H51021   0.359   9.625   0.716  1.2435  2.8594  1.1621
  378MOL0     H51022   0.267   9.513   0.891 -0.0548 -0.5124 -1.3521
  378MOL0     H51023   0.419   9.443   0.942 -1.4957 -1.7760  0.8707
  378MOL0     H51024   0.418   9.280   0.750 -0.8452  0.0620  2.8161
  378MOL0     H51025   0.280   9.269   0.847 -1.9958 -0.4506 -0.7777
  378MOL0     H51026   0.104   9.431   0.496 -0.3095 -0.9491 -0.0836
  378MOL0     H51027   0.462  10.017   0.870  1.1272  0.6978 -0.4584
  378MOL0     H51028   0.530  10.223   0.896 -0.9474 -1.3037 -0.2694
  378MOL0     H51029   0.475  10.276   1.049  0.2254  1.0052  0.0474
  378MOL0     H51030   0.646  10.250   1.018 -2.3195  4.5973  0.5933
  379MOL0     O51031   2.771   7.897   7.875 -0.5735 -0.5426 -0.0961
  379MOL0     C51032   2.727   7.808   7.799 -0.4837  0.2944 -0.4793
  379MOL0     O51033   2.696   7.689   7.841 -0.0396 -0.1539 -0.3481
  379MOL0     C51034   2.713   7.650   7.971 -0.5319 -0.4037 -0.2498
  379MOL0     C51035   2.616   7.565   8.035 -0.2038 -0.3322 -1.1084
  379MOL0     C51036   2.641   7.519   8.165 -0.5172 -0.0039  0.4017
  379MOL0     C51037   2.765   7.540   8.217 -0.1309 -0.2446 -0.4936
  379MOL0     O51038   2.802   7.480   8.341 -0.7176 -0.1849 -0.3824
  379MOL0     C51039   2.728   7.366   8.384  0.4631 -0.4702 -0.4156
  379MOL0     C51040   2.749   7.341   8.546 -0.4956 -0.7430  0.3051
  379MOL0     C51041   2.627   7.256   8.605 -0.0375 -0.1790 -0.3667
  379MOL0     C51042   2.664   7.206   8.739  0.3901  0.3677 -0.3750
  379MOL0     C51043   2.536   7.134   8.795  1.1923  0.8516  0.1911
  379MOL0     C51044   2.531   6.994   8.722 -0.1149  0.5754 -0.8286
  379MOL0     C51045   2.443   6.908   8.805  0.4250  0.0999  0.6784
  379MOL0     C51046   2.471   6.769   8.780  0.0828  1.2546 -0.6891
  379MOL0     N51047   2.350   6.689   8.811 -0.2488 -0.2905  0.1009
  379MOL0     C51048   2.354   6.582   8.892 -1.0863  0.3405 -0.5067
  379MOL0     C51049   2.239   6.518   8.873  0.0343 -0.7126  0.9732
  379MOL0     C51050   2.190   6.396   8.933  0.0848  0.1263 -0.6323
  379MOL0     C51051   2.171   6.276   8.842 -0.3386 -0.1057  0.7989
  379MOL0     C51052   2.315   6.232   8.795 -0.3240  0.3123  0.1569
  379MOL0     C51053   2.294   6.093   8.736  0.3020 -0.9496  0.1796
  379MOL0     O51054   2.416   6.058   8.671  0.8232  0.4680  0.5154
  379MOL0     C51055   2.446   5.924   8.645 -0.4268  0.7180 -0.5720
  379MOL0     C51056   2.340   5.830   8.633  0.3428  1.1196 -0.3825
  379MOL0     C51057   2.377   5.699   8.576 -0.2670 -0.0978  0.2421
  379MOL0     C51058   2.509   5.663   8.531  0.8002  0.2265 -0.0102
  379MOL0     C51059   2.535   5.528   8.480 -1.0235  0.3639  1.2844
  379MOL0     O51060   2.429   5.468   8.425  0.7034  0.0352  0.1627
  379MOL0     C51061   2.413   5.348   8.371 -0.0091  0.1468  0.4770
  379MOL0     C51062   2.297   5.316   8.307  0.4137  0.5451 -0.7993
  379MOL0     C51063   2.282   5.185   8.245 -0.0062 -0.4145 -1.3878
  379MOL0     C51064   2.377   5.081   8.261  0.6534  0.4710 -0.4952
  379MOL0     O51065   2.348   4.968   8.187 -0.2831  0.2998 -0.7200
  379MOL0     C51066   2.434   4.857   8.209  0.2723  0.2614 -0.1815
  379MOL0     C51067   2.360   4.727   8.174  0.0600 -0.5439 -0.3008
  379MOL0     C51068   2.475   4.622   8.170  0.7053 -0.3885  0.5847
  379MOL0     C51069   2.403   4.479   8.179 -1.0820  0.0158 -0.7872
  379MOL0     C51070   2.325   4.422   8.063  1.4531 -0.6421  0.6078
  379MOL0     C51071   2.396   4.408   7.930  0.1330  0.5724  0.0069
  379MOL0     C51072   2.303   4.408   7.796 -0.5944  0.3311  0.1793
  379MOL0     C51073   2.392   4.457   7.686  0.6745 -0.2396 -1.0476
  379MOL0    Cl51074   2.325   4.435   7.515 -0.2500  0.3125 -0.0329
  379MOL0     C51075   2.496   5.117   8.322  0.5700 -0.9345 -0.1884
  379MOL0     C51076   2.514   5.249   8.376  0.2447 -0.0088  0.3149
  379MOL0     O51077   2.648   5.485   8.471  0.1147  0.7766  0.7830
  379MOL0     C51078   2.605   5.754   8.555 -0.0528 -0.0979 -0.7176
  379MOL0     C51079   2.575   5.887   8.602 -0.8718  0.0636  0.0776
  379MOL0     N51080   2.173   6.586   8.772 -1.3130 -0.2539  0.8672
  379MOL0     N51081   2.239   6.688   8.737  0.6621  0.4348  0.3121
  379MOL0     C51082   2.858   7.630   8.159 -0.0613 -0.1355  0.3555
  379MOL0     C51083   2.832   7.683   8.036 -0.2005 -0.0404  0.0031
  379MOL0     C51084   2.707   7.841   7.651  0.6862  0.6205  0.1361
  379MOL0     C51085   2.710   7.974   7.605  0.0674 -0.7691 -0.5135
  379MOL0     C51086   2.675   8.010   7.475  0.4864  0.6659  0.0022
  379MOL0     C51087   2.636   7.922   7.380 -0.6028 -0.4523 -0.6950
  379MOL0     O51088   2.632   7.961   7.246 -0.0091  0.2327 -0.7430
  379MOL0     C51089   2.585   7.881   7.141  0.5256 -0.1452  0.0194
  379MOL0     C51090   2.698   7.803   7.076 -0.0471 -0.3597 -0.2273
  379MOL0     C51091   2.664   7.687   6.985 -0.1415 -0.5388  0.0790
  379MOL0     C51092   2.806   7.651   6.926  0.3064  0.9662  0.3324
  379MOL0     C51093   2.772   7.541   6.832 -0.4366 -0.3175 -0.4029
  379MOL0     C51094   2.749   7.434   6.789  0.1712  0.8836 -0.3876
  379MOL0     C51095   2.640   7.793   7.425  1.5236  0.7522 -0.1883
  379MOL0     C51096   2.665   7.744   7.550  0.4007 -0.6740 -0.8289
  379MOL0     C51097   2.644   7.599   7.559  0.3628 -0.2182 -0.3250
  379MOL0     H51098   2.523   7.542   7.985 -1.4264  0.2914  0.8006
  379MOL0     H51099   2.568   7.453   8.212  2.6248 -3.4651  0.9432
  379MOL0     H51100   2.620   7.380   8.383  0.4125 -0.2636  1.7685
  379MOL0     H51101   2.751   7.274   8.329  1.9242 -0.2103 -0.2962
  379MOL0     H51102   2.759   7.440   8.592  0.7751  0.0989 -1.6477
  379MOL0     H51103   2.847   7.300   8.571  0.4664  1.0535 -0.3234
  379MOL0     H51104   2.616   7.164   8.546  1.2772  0.9359 -2.4748
  379MOL0     H51105   2.528   7.303   8.598 -0.8330 -1.5255  1.1597
  379MOL0     H51106   2.738   7.126   8.725 -1.3591 -1.9062  2.2653
  379MOL0     H51107   2.707   7.287   8.798  1.1297 -0.0872 -0.2722
  379MOL0     H51108   2.535   7.130   8.904 -3.2161  0.5628  0.3135
  379MOL0     H51109   2.446   7.188   8.766 -0.6495 -3.5685 -3.6918
  379MOL0     H51110   2.482   7.005   8.625 -0.8684  1.0922 -0.4005
  379MOL0     H51111   2.632   6.953   8.714 -0.2881 -0.4192  1.2855
  379MOL0     H51112   2.340   6.934   8.779 -0.0968 -2.9135 -0.6682
  379MOL0     H51113   2.455   6.925   8.912 -0.5843 -5.6776  2.0170
  379MOL0     H51114   2.505   6.749   8.678  2.3803 -3.2163  0.6905
  379MOL0     H51115   2.546   6.733   8.852 -2.5440  1.5538  2.4276
  379MOL0     H51116   2.432   6.563   8.964 -2.0737 -1.8861  0.0481
  379MOL0     H51117   2.245   6.363   9.022  0.0203 -1.5838 -1.1804
  379MOL0     H51118   2.089   6.421   8.966  0.5742  1.6739 -0.2497
  379MOL0     H51119   2.125   6.186   8.884  2.1037 -3.3536 -2.7187
  379MOL0     H51120   2.109   6.317   8.761 -2.8329 -3.5635  0.7451
  379MOL0     H51121   2.383   6.210   8.877  0.5223 -1.6261 -1.0064
  379MOL0     H51122   2.357   6.298   8.718 -1.8544  0.5664 -0.5085
  379MOL0     H51123   2.211   6.086   8.665  1.6530 -1.1502 -1.4499
  379MOL0     H51124   2.270   6.023   8.817 -0.7085  1.5902  2.2121
  379MOL0     H51125   2.242   5.854   8.673 -0.7142 -0.9081 -1.6100
  379MOL0     H51126   2.291   5.633   8.566 -0.1128 -0.5333  1.5938
  379MOL0     H51127   2.221   5.393   8.302  0.7214  1.1916  2.2656
  379MOL0     H51128   2.197   5.166   8.182 -0.7392  1.1144 -0.9267
  379MOL0     H51129   2.519   4.859   8.141 -0.0407  1.3262 -0.5737
  379MOL0     H51130   2.466   4.853   8.313  0.5514 -0.1909 -0.2853
  379MOL0     H51131   2.276   4.701   8.239 -0.8347  0.0776 -1.1679
  379MOL0     H51132   2.316   4.735   8.074  1.2799 -2.3482 -1.0330
  379MOL0     H51133   2.545   4.624   8.086  0.4865 -2.1679  0.3253
  379MOL0     H51134   2.535   4.643   8.259 -0.1734 -0.2088  1.1469
  379MOL0     H51135   2.322   4.476   8.252 -0.3739  1.2101  0.0687
  379MOL0     H51136   2.487   4.418   8.212 -0.0273  0.4188 -2.5968
  379MOL0     H51137   2.246   4.494   8.039  2.1203 -0.0112  0.2744
  379MOL0     H51138   2.279   4.326   8.089  3.7771 -2.6083 -1.9250
  379MOL0     H51139   2.459   4.497   7.935  0.2155  0.4649  1.2076
  379MOL0     H51140   2.471   4.328   7.923 -0.9801 -0.7111  1.8229
  379MOL0     H51141   2.237   4.490   7.824  1.3570  1.6294  1.1938
  379MOL0     H51142   2.241   4.321   7.773 -4.3907  1.5973  4.1382
  379MOL0     H51143   2.417   4.563   7.693  1.4746 -0.3574 -1.8974
  379MOL0     H51144   2.482   4.396   7.694  0.2223 -1.0289 -1.8113
  379MOL0     H51145   2.583   5.052   8.317  0.6988 -0.7035 -1.0973
  379MOL0     H51146   2.612   5.255   8.424 -0.0337 -1.2852  1.0683
  379MOL0     H51147   2.708   5.732   8.528 -0.7762 -1.2431 -2.8145
  379MOL0     H51148   2.648   5.967   8.609 -2.7597  1.7511  2.2036
  379MOL0     H51149   2.951   7.662   8.204 -0.1845 -1.0546  1.2980
  379MOL0     H51150   2.918   7.723   7.983 -1.3113  0.9388 -1.1129
  379MOL0     H51151   2.742   8.050   7.676  3.9898 -2.8013  0.2098
  379MOL0     H51152   2.688   8.113   7.446 -0.8478  0.3710 -1.8131
  379MOL0     H51153   2.545   7.954   7.070 -1.7119 -2.7099 -1.5368
  379MOL0     H51154   2.507   7.807   7.158  0.3715 -0.0262 -0.1738
  379MOL0     H51155   2.754   7.758   7.159  0.1967  1.9112  0.9201
  379MOL0     H51156   2.760   7.881   7.032  0.1190 -0.2624  0.1710
  379MOL0     H51157   2.592   7.712   6.907  0.0615 -1.8801 -0.5774
  379MOL0     H51158   2.628   7.609   7.053 -1.7384  1.7012  1.9823
  379MOL0     H51159   2.851   7.732   6.868 -0.5619 -1.0799 -3.4532
  379MOL0     H51160   2.890   7.618   6.988 -0.0260  0.7840  0.6932
  379MOL0     H51161   2.731   7.333   6.758 -3.5910  1.1788  0.3795
  379MOL0     H51162   2.621   7.717   7.350  0.3071  0.8136  0.0474
  379MOL0     H51163   2.671   7.546   7.467  0.1479  2.3444 -1.9485
  379MOL0     H51164   2.709   7.559   7.637  2.6764  2.2194 -0.8599
  379MOL0     H51165   2.541   7.577   7.589 -0.5216  2.3449 -1.2433
  380MOL0     O51166   1.319   0.925   1.459  0.1156 -0.5511  1.0345
  380MOL0     C51167   1.372   0.829   1.517 -0.9297 -1.5831  0.2844
  380MOL0     O51168   1.499   0.786   1.492  0.4593 -0.0420  0.3518
  380MOL0     C51169   1.565   0.813   1.378  0.0819  0.0321  0.1718
  380MOL0     C51170   1.513   0.862   1.255 -0.0330  0.3026  0.5935
  380MOL0     C51171   1.607   0.903   1.151  0.4971  0.7820 -1.0953
  380MOL0     C51172   1.744   0.879   1.166 -0.2768  0.9600 -0.2937
  380MOL0     O51173   1.830   0.911   1.065  0.5179  0.2317  0.6718
  380MOL0     C51174   1.948   0.832   1.054 -0.0440  1.2554  0.0706
  380MOL0     C51175   2.015   0.881   0.921 -0.3098 -0.0111  0.0482
  380MOL0     C51176   2.144   0.789   0.879  0.6433  0.1246 -0.6911
  380MOL0     C51177   2.202   0.843   0.746  0.0209 -0.3946  1.1829
  380MOL0     C51178   2.308   0.748   0.695 -0.0780 -0.2677 -0.3661
  380MOL0     C51179   2.370   0.768   0.564 -0.2877  1.0711  1.1178
  380MOL0     C51180   2.477   0.666   0.544 -0.5008  0.3654 -0.2097
  380MOL0     C51181   2.543   0.662   0.399  0.7567  0.0313  0.2609
  380MOL0     N51182   2.560   0.790   0.332 -0.4191  0.6903  0.5558
  380MOL0     C51183   2.505   0.824   0.213 -0.4993 -0.0023  0.3266
  380MOL0     C51184   2.521   0.953   0.204  0.2587  0.3264  0.6004
  380MOL0     C51185   2.451   1.044   0.106  0.2703 -0.2094 -0.3876
  380MOL0     C51186   2.297   1.078   0.147  0.0463  1.4410 -0.5525
  380MOL0     C51187   2.288   1.204   0.244  0.4365  1.5133  0.2648
  380MOL0     C51188   2.150   1.238   0.294 -0.4087 -0.4871 -0.3493
  380MOL0     O51189   2.160   1.383   0.301  0.0784  0.6809 -0.2693
  380MOL0     C51190   2.063   1.459   0.359 -0.8929  0.3949 -1.0003
  380MOL0     C51191   1.948   1.411   0.419  0.5260 -1.0521  0.6595
  380MOL0     C51192   1.854   1.495   0.461  0.6451  0.0014 -0.7155
  380MOL0     C51193   1.873   1.638   0.457  1.4158  0.9881 -0.2197
  380MOL0     C51194   1.769   1.733   0.500 -0.5007 -0.7729 -0.4871
  380MOL0     O51195   1.648   1.682   0.543 -0.1036  0.7201 -0.7661
  380MOL0     C51196   1.548   1.762   0.586  0.3841 -0.9519 -0.7216
  380MOL0     C51197   1.457   1.730   0.687  0.0581  0.6195  0.3329
  380MOL0     C51198   1.333   1.801   0.713 -0.5158  0.2515  0.0090
  380MOL0     C51199   1.301   1.910   0.624 -0.3522 -0.5556  0.6019
  380MOL0     O51200   1.190   1.988   0.614 -0.7323 -0.2883  0.1939
  380MOL0     C51201   1.071   1.956   0.675  0.0306  0.7700  0.0967
  380MOL0     C51202   0.954   2.042   0.613 -0.4522  0.1596  0.4490
  380MOL0     C51203   0.933   2.023   0.459  0.3515 -0.2869 -0.2004
  380MOL0     C51204   0.801   2.079   0.413  0.6123  0.6487 -0.5927
  380MOL0     C51205   0.780   2.094   0.264 -0.4688 -0.0022 -0.6748
  380MOL0     C51206   0.784   1.950   0.197 -0.3097  0.2999 -0.5804
  380MOL0     C51207   0.675   1.862   0.257  0.1557 -0.4841  0.6995
  380MOL0     C51208   0.660   1.742   0.168  0.0694  0.6064 -0.0254
  380MOL0    Cl51209   0.498   1.710   0.096  0.0895 -0.2157  0.5576
  380MOL0     C51210   1.398   1.942   0.516 -0.5623 -0.5434 -0.1435
  380MOL0     C51211   1.515   1.871   0.502 -0.9253 -0.4068 -0.5295
  380MOL0     O51212   1.810   1.849   0.504 -0.1806 -0.5349  0.0820
  380MOL0     C51213   1.990   1.685   0.387  0.6109  0.3852  0.6192
  380MOL0     C51214   2.092   1.599   0.342  0.2763 -0.5743  0.7858
  380MOL0     N51215   2.596   1.002   0.309 -0.2442 -0.0725 -0.3453
  380MOL0     N51216   2.629   0.899   0.383  0.8275  0.0051 -1.0700
  380MOL0     C51217   1.791   0.816   1.279 -0.0923 -1.2455  0.1580
  380MOL0     C51218   1.704   0.796   1.389  0.8578 -0.4493  0.5671
  380MOL0     C51219   1.313   0.795   1.646 -0.8109  0.5885  0.6438
  380MOL0     C51220   1.406   0.767   1.747  0.6137 -0.4147  0.7682
  380MOL0     C51221   1.364   0.727   1.872  0.1084  0.6504  0.3450
  380MOL0     C51222   1.227   0.692   1.890  0.1532  0.4549  0.1206
  380MOL0     O51223   1.163   0.642   1.995  0.7603  0.0222  0.1612
  380MOL0     C51224   1.223   0.624   2.117 -0.0101  0.2089 -0.5908
  380MOL0     C51225   1.170   0.734   2.212  0.3022  0.4756 -0.3347
  380MOL0     C51226   1.244   0.724   2.352  0.1386  0.1134  0.0333
  380MOL0     C51227   1.336   0.850   2.358  0.4654  0.0004 -0.7863
  380MOL0     C51228   1.460   0.834   2.281  0.1528  0.9564  0.1949
  380MOL0     C51229   1.563   0.813   2.219 -0.1244 -0.3992  0.6090
  380MOL0     C51230   1.138   0.713   1.787 -0.6009 -1.1504 -0.5769
  380MOL0     C51231   1.177   0.772   1.665  1.1277 -0.7279 -0.0323
  380MOL0     C51232   1.059   0.777   1.565 -1.0777 -0.7388  0.0601
  380MOL0     H51233   1.409   0.885   1.230  0.1045  2.9999  2.1380
  380MOL0     H51234   1.585   0.946   1.054 -2.1014  1.0175 -0.4698
  380MOL0     H51235   2.019   0.849   1.135 -1.2153 -1.1213  1.7273
  380MOL0     H51236   1.928   0.724   1.051 -2.0058  1.4993  2.0674
  380MOL0     H51237   2.055   0.982   0.930 -0.5807  0.1624 -0.6347
  380MOL0     H51238   1.942   0.881   0.840 -3.2726 -1.9836  2.4664
  380MOL0     H51239   2.126   0.682   0.875  0.3184  0.1196  0.5726
  380MOL0     H51240   2.216   0.803   0.960 -1.2614  0.3639  1.0523
  380MOL0     H51241   2.125   0.850   0.669 -0.4899 -0.6452  1.6708
  380MOL0     H51242   2.245   0.944   0.746 -0.9112  0.0072  0.7222
  380MOL0     H51243   2.395   0.749   0.763 -0.3298 -2.4413  0.0729
  380MOL0     H51244   2.268   0.646   0.689  0.9261 -0.5870 -2.5421
  380MOL0     H51245   2.291   0.752   0.491 -0.9948 -1.8137  2.3659
  380MOL0     H51246   2.401   0.873   0.553  0.7929  0.5604 -1.2568
  380MOL0     H51247   2.423   0.572   0.556 -1.6162  0.7145 -2.0171
  380MOL0     H51248   2.551   0.691   0.621 -0.1427 -0.3034 -0.3321
  380MOL0     H51249   2.646   0.627   0.413  1.9563  2.7023 -1.0938
  380MOL0     H51250   2.491   0.587   0.338  2.0616  0.1509 -1.0756
  380MOL0     H51251   2.444   0.764   0.146 -1.5965  3.1653 -1.7467
  380MOL0     H51252   2.505   1.137   0.085  1.6625 -0.1706  2.8037
  380MOL0     H51253   2.455   0.991   0.011 -1.2042  1.6993 -1.5966
  380MOL0     H51254   2.249   1.096   0.050  3.3033  0.3308 -2.5155
  380MOL0     H51255   2.238   0.995   0.186 -2.9728  3.3525 -0.7480
  380MOL0     H51256   2.315   1.287   0.179 -1.1198  0.5486 -1.7022
  380MOL0     H51257   2.352   1.192   0.332 -1.4209 -0.4871  1.4400
  380MOL0     H51258   2.132   1.193   0.392 -1.6509  0.3404 -0.1722
  380MOL0     H51259   2.070   1.201   0.229  0.0946 -4.1285  0.9041
  380MOL0     H51260   1.924   1.306   0.414 -2.7772 -0.4598  1.6730
  380MOL0     H51261   1.774   1.437   0.506  2.9736 -1.7764  1.3581
  380MOL0     H51262   1.483   1.639   0.741  1.0837  1.5729  1.5010
  380MOL0     H51263   1.258   1.762   0.780  1.3240  1.3013  2.8743
  380MOL0     H51264   1.035   1.853   0.662 -1.4376  1.0130  1.7995
  380MOL0     H51265   1.076   1.981   0.782  2.5542 -1.2553  0.5540
  380MOL0     H51266   0.860   2.001   0.650 -1.2152 -0.0845 -1.6345
  380MOL0     H51267   0.959   2.150   0.629 -3.1247  0.7555 -1.9497
  380MOL0     H51268   1.011   2.076   0.402  0.2084 -0.5478 -0.6451
  380MOL0     H51269   0.939   1.918   0.431 -1.2404 -0.4920  0.1449
  380MOL0     H51270   0.805   2.181   0.452  7.4478  0.8171 -0.4934
  380MOL0     H51271   0.723   2.018   0.459  1.6059  0.8367  1.4118
  380MOL0     H51272   0.857   2.160   0.226 -1.0262  0.6671 -0.6518
  380MOL0     H51273   0.680   2.137   0.251 -0.0950  0.5452 -1.8226
  380MOL0     H51274   0.763   1.970   0.092 -1.0998  0.3370 -0.4206
  380MOL0     H51275   0.879   1.898   0.212 -0.0039  1.5140  2.5823
  380MOL0     H51276   0.577   1.908   0.269  0.2085 -1.0999  4.4853
  380MOL0     H51277   0.702   1.823   0.355  1.0658  1.3586  1.2157
  380MOL0     H51278   0.742   1.742   0.095 -0.8519 -1.1241 -1.1323
  380MOL0     H51279   0.688   1.657   0.232 -1.4471  1.2235  1.5543
  380MOL0     H51280   1.376   2.022   0.446  0.9258  0.2079  0.2159
  380MOL0     H51281   1.591   1.900   0.430 -2.0085  0.0508 -1.5064
  380MOL0     H51282   1.997   1.793   0.379 -0.7310  0.4511 -0.0016
  380MOL0     H51283   2.183   1.640   0.299  0.4698 -0.5269  1.2329
  380MOL0     H51284   1.895   0.794   1.299  0.3114  1.7623  2.1210
  380MOL0     H51285   1.741   0.764   1.486  1.5886 -2.0438 -0.1891
  380MOL0     H51286   1.509   0.794   1.726 -0.1098  1.9460  0.0023
  380MOL0     H51287   1.449   0.719   1.938  1.4517 -0.4475 -1.4318
  380MOL0     H51288   1.332   0.630   2.109 -0.1480  1.5816 -1.9908
  380MOL0     H51289   1.198   0.527   2.160 -0.3211  1.1765  1.5242
  380MOL0     H51290   1.066   0.704   2.222  0.3831  0.2925 -0.0251
  380MOL0     H51291   1.193   0.822   2.152  0.4782  1.4854  1.1818
  380MOL0     H51292   1.292   0.628   2.373 -0.4657  0.0383  1.1290
  380MOL0     H51293   1.168   0.723   2.431  0.6487 -1.0187  0.5256
  380MOL0     H51294   1.277   0.933   2.319 -0.8138  0.4894  1.9852
  380MOL0     H51295   1.372   0.873   2.459 -0.4697  1.4988 -0.7533
  380MOL0     H51296   1.653   0.794   2.164 -0.5421  0.8924 -0.5890
  380MOL0     H51297   1.032   0.702   1.803 -1.2088  0.5686 -2.8370
  380MOL0     H51298   1.032   0.880   1.541  2.2929 -0.2089 -2.1112
  380MOL0     H51299   1.094   0.739   1.469  1.2241 -1.2651  1.0390
  380MOL0     H51300   0.974   0.716   1.596 -1.8999  1.7427  3.3115
  381MOL0     O51301   6.917   9.235  10.947  0.0165  0.3600 -0.0362
  381MOL0     C51302   6.860   9.256  11.052  0.1187  0.6743  0.5989
  381MOL0     O51303   6.745   9.322  11.075  0.1929  0.0068 -0.8923
  381MOL0     C51304   6.662   9.345  10.965 -0.0018  0.6963  0.6836
  381MOL0     C51305   6.573   9.247  10.937 -0.3085 -0.2998 -0.4324
  381MOL0     C51306   6.483   9.264  10.830  0.2469  0.0001  0.4129
  381MOL0     C51307   6.481   9.392  10.757 -0.1657  0.5269  0.4216
  381MOL0     O51308   6.387   9.415  10.648  0.6054 -0.9132 -0.6818
  381MOL0     C51309   6.317   9.301  10.593 -0.2508  0.3807 -0.6249
  381MOL0     C51310   6.235   9.369  10.480  0.5035 -0.2985  0.4993
  381MOL0     C51311   6.101   9.298  10.479  1.1435  1.3809  0.8386
  381MOL0     C51312   6.003   9.384  10.403  0.5072  0.0345 -0.7115
  381MOL0     C51313   5.951   9.505  10.491  0.2026  0.2339  0.3412
  381MOL0     C51314   5.814   9.552  10.443  0.0364  0.1468  0.8140
  381MOL0     C51315   5.795   9.696  10.444  0.1710 -0.5107 -1.1301
  381MOL0     C51316   5.653   9.734  10.399  0.5389 -0.7881  0.2782
  381MOL0     N51317   5.632   9.881  10.380 -0.2771 -0.6525 -0.2468
  381MOL0     C51318   5.512   9.947  10.354 -0.6319  0.3971  0.1886
  381MOL0     C51319   5.556  10.074  10.347 -0.3925  0.2411  0.1495
  381MOL0     C51320   5.477  10.205  10.326 -0.0376  0.3549  0.0055
  381MOL0     C51321   5.457  10.294  10.441 -0.8860 -0.2651 -0.5595
  381MOL0     C51322   5.408  10.211  10.570 -0.4515  0.2753 -0.5552
  381MOL0     C51323   5.259  10.159  10.550 -0.2898  0.3865  0.5171
  381MOL0     O51324   5.198  10.128  10.677 -0.5333  0.1690  0.1792
  381MOL0     C51325   5.274  10.053  10.764 -0.9922  0.1655  1.0012
  381MOL0     C51326   5.287  10.085  10.900 -0.5664  0.4738  0.7447
  381MOL0     C51327   5.366   9.998  10.981 -0.1060 -0.3050  0.5169
  381MOL0     C51328   5.436   9.887  10.927 -0.8294 -0.8118 -0.3337
  381MOL0     C51329   5.503   9.792  11.015  0.8771  0.4043 -0.2435
  381MOL0     O51330   5.584   9.699  10.952  0.9982  0.2844 -0.3842
  381MOL0     C51331   5.641   9.592  11.019 -0.3400 -1.1212  0.4601
  381MOL0     C51332   5.776   9.552  10.986  0.6746  0.3729 -0.3514
  381MOL0     C51333   5.846   9.454  11.062  0.3020 -0.2110  0.4377
  381MOL0     C51334   5.779   9.398  11.169 -0.1429  0.3576 -0.6831
  381MOL0     O51335   5.851   9.319  11.257  0.0164 -0.0334  0.2252
  381MOL0     C51336   5.879   9.364  11.395  0.5562  0.5729  1.2422
  381MOL0     C51337   6.014   9.327  11.449 -0.3576 -0.4833 -0.2819
  381MOL0     C51338   6.123   9.294  11.342  0.5756 -0.5950  1.1048
  381MOL0     C51339   6.166   9.426  11.275 -0.5091 -0.1751 -0.3383
  381MOL0     C51340   6.273   9.419  11.161  0.6260  0.4336 -1.4203
  381MOL0     C51341   6.326   9.542  11.101  0.0638  0.3501 -0.4270
  381MOL0     C51342   6.209   9.619  11.030 -0.0814 -0.2712 -0.2602
  381MOL0     C51343   6.180   9.562  10.886 -0.1894  0.4039 -1.1073
  381MOL0    Cl51344   6.046   9.652  10.809 -0.2864  0.2789  0.1337
  381MOL0     C51345   5.646   9.424  11.195  0.0477 -0.2838 -0.6405
  381MOL0     C51346   5.579   9.521  11.127  0.7077  0.1280 -0.3218
  381MOL0     O51347   5.479   9.799  11.131  0.3837 -0.5921 -0.4375
  381MOL0     C51348   5.432   9.861  10.789 -0.7670 -1.1348 -0.9421
  381MOL0     C51349   5.355   9.939  10.706  0.2546 -0.3548 -0.6680
  381MOL0     N51350   5.696  10.081  10.339 -0.9051  0.0771 -0.9226
  381MOL0     N51351   5.737   9.961  10.364  0.3956 -0.5083 -0.2603
  381MOL0     C51352   6.570   9.491  10.790 -0.7185 -0.4440  0.7499
  381MOL0     C51353   6.660   9.469  10.892 -0.1792 -0.4041 -0.9364
  381MOL0     C51354   6.931   9.198  11.167  0.5873  0.8801 -0.5865
  381MOL0     C51355   6.847   9.169  11.274 -0.4781 -0.5048  0.0264
  381MOL0     C51356   6.897   9.100  11.389  0.2880  0.3196  0.6636
  381MOL0     C51357   7.028   9.058  11.400 -0.2557 -0.0755  0.2262
  381MOL0     O51358   7.058   8.996  11.517 -0.0876  1.1129 -0.0201
  381MOL0     C51359   7.178   8.918  11.515  0.8224 -0.5900 -0.2692
  381MOL0     C51360   7.210   8.886  11.658  0.2727  0.6623 -0.9928
  381MOL0     C51361   7.111   8.788  11.725  0.0571 -0.2155  0.1368
  381MOL0     C51362   7.102   8.826  11.877  0.5030 -0.0525 -0.4483
  381MOL0     C51363   7.059   8.712  11.972 -0.4217  0.1276  0.6905
  381MOL0     C51364   7.030   8.627  12.051 -0.3747 -0.0005  0.6181
  381MOL0     C51365   7.119   9.111  11.298  0.7368  0.6655 -0.0458
  381MOL0     C51366   7.075   9.171  11.175  0.2307 -0.0505 -1.3017
  381MOL0     C51367   7.182   9.211  11.075  0.2107 -0.7986  0.5498
  381MOL0     H51368   6.567   9.156  10.996  1.1997 -0.1506  0.0006
  381MOL0     H51369   6.409   9.186  10.816 -0.6446  0.8437  0.3049
  381MOL0     H51370   6.382   9.223  10.552 -4.4828 -3.7698 -0.3946
  381MOL0     H51371   6.263   9.244  10.669  0.5845 -3.6542 -2.7501
  381MOL0     H51372   6.279   9.367  10.380 -0.7047  0.6329 -0.0701
  381MOL0     H51373   6.237   9.475  10.506  1.5453  0.4992 -2.4640
  381MOL0     H51374   6.079   9.271  10.583  2.8435  1.9294  1.3916
  381MOL0     H51375   6.106   9.201  10.429 -1.5307  1.7672 -0.3244
  381MOL0     H51376   6.041   9.416  10.305  1.5968  2.4619  0.4453
  381MOL0     H51377   5.917   9.324  10.370  0.2584  1.2494 -2.4168
  381MOL0     H51378   5.954   9.481  10.597 -0.9078  0.1686  0.3614
  381MOL0     H51379   6.012   9.592  10.466 -1.1427  1.0021 -0.3811
  381MOL0     H51380   5.800   9.517  10.340 -2.1887 -4.2229  2.3480
  381MOL0     H51381   5.742   9.498  10.505  1.7619 -2.3298  0.8008
  381MOL0     H51382   5.865   9.737  10.370  3.8032 -0.6575  1.8637
  381MOL0     H51383   5.842   9.734  10.536 -0.2392 -2.1593 -0.1932
  381MOL0     H51384   5.635   9.672  10.311  0.5664 -2.4503  1.3957
  381MOL0     H51385   5.596   9.698  10.485  0.2412  2.0067  1.3469
  381MOL0     H51386   5.414   9.902  10.356 -0.6336  0.2714  3.7387
  381MOL0     H51387   5.515  10.257  10.238  1.3769  1.0867  0.9949
  381MOL0     H51388   5.372  10.183  10.304 -0.4363 -0.0954  2.1337
  381MOL0     H51389   5.558  10.330  10.463 -1.2589  0.5874 -0.2035
  381MOL0     H51390   5.400  10.380  10.405  2.5209  1.4694 -2.2266
  381MOL0     H51391   5.419  10.277  10.657  0.6256 -3.5728  2.4791
  381MOL0     H51392   5.485  10.136  10.587 -0.0614  0.8270  0.1808
  381MOL0     H51393   5.251  10.068  10.490 -3.7203  0.8885 -0.0165
  381MOL0     H51394   5.193  10.231  10.501  1.2951  2.6733  1.6072
  381MOL0     H51395   5.239  10.168  10.951  1.6039  0.8743  2.3185
  381MOL0     H51396   5.383  10.017  11.086  0.1881 -1.0425  0.6105
  381MOL0     H51397   5.827   9.602  10.904 -0.2787  1.5308 -0.2537
  381MOL0     H51398   5.950   9.423  11.053  0.3675  0.1375 -0.0513
  381MOL0     H51399   5.875   9.473  11.402  1.4960  0.6787  0.3382
  381MOL0     H51400   5.802   9.324  11.461 -0.8046  0.1963 -0.5083
  381MOL0     H51401   6.046   9.418  11.501  1.4086 -0.6681 -0.9823
  381MOL0     H51402   5.999   9.250  11.525 -0.4076 -1.5586 -1.3506
  381MOL0     H51403   6.212   9.253  11.391  0.8350  0.7133  1.7689
  381MOL0     H51404   6.083   9.221  11.270  0.5600 -2.7984  3.2388
  381MOL0     H51405   6.192   9.493  11.357 -2.1784  0.5857 -0.3930
  381MOL0     H51406   6.080   9.471  11.225  1.0507  1.1793 -1.9299
  381MOL0     H51407   6.229   9.356  11.084  0.4654 -2.0093  0.5255
  381MOL0     H51408   6.353   9.350  11.190  0.1670 -1.3636 -4.0345
  381MOL0     H51409   6.372   9.601  11.181 -2.2250 -0.4516  1.5862
  381MOL0     H51410   6.407   9.523  11.030 -0.7927 -1.7160 -0.9037
  381MOL0     H51411   6.239   9.724  11.026  0.3091 -0.4081 -1.2430
  381MOL0     H51412   6.114   9.615  11.083 -0.9092  0.4924 -1.6357
  381MOL0     H51413   6.273   9.558  10.830  0.6367 -2.8835  0.2358
  381MOL0     H51414   6.136   9.461  10.885 -0.0873  0.2632  1.7171
  381MOL0     H51415   5.591   9.380  11.277 -0.5088  1.6197  0.0742
  381MOL0     H51416   5.473   9.543  11.141 -0.1866 -3.8191  0.4908
  381MOL0     H51417   5.488   9.773  10.758  1.8881  0.5215 -1.1804
  381MOL0     H51418   5.359   9.902  10.604  2.5777  0.2966 -0.8712
  381MOL0     H51419   6.573   9.589  10.742 -2.2775 -1.0380 -0.6745
  381MOL0     H51420   6.731   9.546  10.923  0.0982 -1.4792  1.3520
  381MOL0     H51421   6.742   9.194  11.277 -0.3971 -0.0887 -0.5848
  381MOL0     H51422   6.819   9.068  11.458 -0.7194 -0.0958 -0.6079
  381MOL0     H51423   7.258   8.976  11.469 -1.6637  1.8205 -1.8052
  381MOL0     H51424   7.165   8.822  11.464 -1.5306 -1.3134  1.5006
  381MOL0     H51425   7.221   8.985  11.704  3.3983  0.8266 -1.8600
  381MOL0     H51426   7.308   8.841  11.668 -1.0086 -1.6835  2.9118
  381MOL0     H51427   7.152   8.687  11.713 -3.1586 -1.3111 -3.5745
  381MOL0     H51428   7.017   8.797  11.671  0.2993 -0.5215 -0.3488
  381MOL0     H51429   7.200   8.860  11.913 -0.5314  1.8542  0.7853
  381MOL0     H51430   7.044   8.918  11.893 -0.5361 -1.0719  2.2237
  381MOL0     H51431   6.997   8.556  12.124 -0.4152  0.7899  1.3843
  381MOL0     H51432   7.224   9.084  11.309  0.3783  0.2830  3.8613
  381MOL0     H51433   7.151   9.288  11.003  0.8045 -1.4638 -0.4522
  381MOL0     H51434   7.270   9.252  11.126  0.2747  1.5241 -1.2316
  381MOL0     H51435   7.216   9.118  11.028 -0.8018 -0.2948 -1.2601
  382MOL0     O51436   5.970   3.512  11.210 -0.2647 -0.0428 -1.2731
  382MOL0     C51437   5.984   3.466  11.101  0.4160 -0.2878  0.9093
  382MOL0     O51438   6.107   3.465  11.045  0.1067 -1.3446  0.4120
  382MOL0     C51439   6.225   3.426  11.107  0.3367 -0.4633  0.1311
  382MOL0     C51440   6.351   3.476  11.058  0.0178 -0.2956 -0.1662
  382MOL0     C51441   6.472   3.437  11.117 -0.2098  0.9685  0.1463
  382MOL0     C51442   6.463   3.374  11.237 -1.0312  1.2712 -0.2829
  382MOL0     O51443   6.576   3.322  11.307  0.8668  0.1434  0.5790
  382MOL0     C51444   6.701   3.327  11.245  0.0063 -0.6946  0.5525
  382MOL0     C51445   6.800   3.250  11.335 -0.5484 -0.0800 -0.3377
  382MOL0     C51446   6.735   3.164  11.442  0.1295  0.4999  0.4989
  382MOL0     C51447   6.850   3.066  11.498  0.2341  0.1585  0.1684
  382MOL0     C51448   6.835   3.012  11.646 -0.1881 -1.1519  0.3315
  382MOL0     C51449   6.711   2.935  11.671  0.3442 -0.4295  0.2956
  382MOL0     C51450   6.700   2.849  11.801 -0.6482 -0.9486  0.7892
  382MOL0     C51451   6.814   2.751  11.822 -1.4462 -0.7405 -0.8474
  382MOL0     N51452   6.773   2.653  11.933  0.3201 -0.3971  0.2716
  382MOL0     C51453   6.751   2.520  11.902  0.6361 -0.5832  0.5334
  382MOL0     C51454   6.738   2.465  12.024  0.2643  1.1853 -0.2927
  382MOL0     C51455   6.719   2.313  12.050 -0.4911 -0.8669 -0.2560
  382MOL0     C51456   6.791   2.224  11.938  0.2563  0.3144  0.6901
  382MOL0     C51457   6.823   2.071  11.971  0.0998 -0.3212  0.4851
  382MOL0     C51458   6.956   2.052  12.052  0.4905  0.0433  0.4049
  382MOL0     O51459   6.973   1.919  12.107 -0.1859  0.8405  0.0593
  382MOL0     C51460   7.070   1.838  12.042  0.1086 -0.8438 -0.2502
  382MOL0     C51461   7.160   1.877  11.942 -0.5698 -0.5658 -0.8852
  382MOL0     C51462   7.259   1.788  11.895 -0.0864 -0.7625 -0.0116
  382MOL0     C51463   7.271   1.652  11.940  0.6536  0.0164  0.1707
  382MOL0     C51464   7.372   1.546  11.890  0.6244 -0.1665  0.4518
  382MOL0     O51465   7.372   1.439  11.959 -0.1569 -1.0714 -0.6527
  382MOL0     C51466   7.450   1.338  11.907  0.1451  0.0759  0.1463
  382MOL0     C51467   7.594   1.334  11.904  0.2233 -0.3704  0.4413
  382MOL0     C51468   7.666   1.225  11.842  0.4819 -0.2797 -0.1207
  382MOL0     C51469   7.595   1.127  11.767 -0.7550 -0.0830 -0.8875
  382MOL0     O51470   7.661   1.021  11.699  0.3879  0.4085 -0.4819
  382MOL0     C51471   7.800   1.017  11.728  0.5309 -0.5411 -0.3724
  382MOL0     C51472   7.847   0.888  11.657 -0.2595 -1.0104  0.2010
  382MOL0     C51473   7.802   0.767  11.734 -0.7466  0.6059  0.0279
  382MOL0     C51474   7.835   0.636  11.655 -0.0526 -0.2864  0.5374
  382MOL0     C51475   7.807   0.511  11.734 -0.0848  0.7616  0.4645
  382MOL0     C51476   7.659   0.469  11.710 -0.3585 -0.2299  0.1826
  382MOL0     C51477   7.625   0.328  11.762 -0.0414 -0.3562  0.3631
  382MOL0     C51478   7.506   0.256  11.697 -0.1623  0.0005  0.5487
  382MOL0    Cl51479   7.525   0.223  11.514 -0.4763 -0.4344  0.2086
  382MOL0     C51480   7.462   1.130  11.777 -0.3242 -0.0072 -0.5928
  382MOL0     C51481   7.391   1.229  11.852  0.3556 -0.3819 -0.5474
  382MOL0     O51482   7.452   1.576  11.806  0.4830  0.0291  0.4637
  382MOL0     C51483   7.180   1.625  12.047 -0.1069  0.2466  0.4527
  382MOL0     C51484   7.085   1.718  12.104 -1.0238 -0.1618 -0.0294
  382MOL0     N51485   6.776   2.551  12.126  0.4770  1.3962  0.5824
  382MOL0     N51486   6.789   2.669  12.071 -0.3019 -0.6740 -0.2097
  382MOL0     C51487   6.339   3.342  11.295 -0.3207  0.4308  0.0012
  382MOL0     C51488   6.219   3.366  11.227 -0.1301  1.1380  0.7797
  382MOL0     C51489   5.862   3.450  11.012  0.1573  1.0828 -0.1418
  382MOL0     C51490   5.754   3.543  11.027  0.3002 -0.1048  0.6328
  382MOL0     C51491   5.633   3.518  10.964  0.0676  0.2564 -0.6952
  382MOL0     C51492   5.622   3.407  10.876  0.2786 -0.0168 -0.7180
  382MOL0     O51493   5.502   3.395  10.818  0.9866  0.6947 -0.1002
  382MOL0     C51494   5.474   3.296  10.727  0.2836  0.5795 -0.1465
  382MOL0     C51495   5.329   3.291  10.692 -0.5555 -0.3467  0.0571
  382MOL0     C51496   5.230   3.279  10.810  0.3030 -0.2724  0.2991
  382MOL0     C51497   5.086   3.261  10.770 -0.4165 -0.5116  0.8352
  382MOL0     C51498   4.994   3.296  10.871 -0.2880 -0.2199 -0.6001
  382MOL0     C51499   4.916   3.312  10.963 -0.1132  0.3699 -0.1144
  382MOL0     C51500   5.727   3.324  10.862  0.5484  0.0983 -1.3505
  382MOL0     C51501   5.844   3.344  10.931 -0.2839 -0.0397 -0.0521
  382MOL0     C51502   5.936   3.227  10.934 -0.2762 -0.4223  0.4216
  382MOL0     H51503   6.361   3.541  10.972 -1.5813 -2.9406 -2.5115
  382MOL0     H51504   6.569   3.455  11.072  0.3852 -2.0939  0.0205
  382MOL0     H51505   6.685   3.276  11.150 -3.2157  2.0790 -0.6218
  382MOL0     H51506   6.741   3.429  11.234 -0.5851 -0.4864  0.3021
  382MOL0     H51507   6.856   3.323  11.394  1.3600 -2.5201  1.0384
  382MOL0     H51508   6.861   3.176  11.284  1.1848 -0.5404  2.2114
  382MOL0     H51509   6.640   3.117  11.414  1.0133 -0.4382 -1.0560
  382MOL0     H51510   6.711   3.235  11.522 -1.4103  1.6308 -0.9127
  382MOL0     H51511   6.841   2.989  11.421 -2.1288 -0.2330  0.7348
  382MOL0     H51512   6.946   3.113  11.474 -0.0168 -0.3480 -2.0606
  382MOL0     H51513   6.926   2.952  11.659  0.1253 -0.5724  0.8767
  382MOL0     H51514   6.840   3.101  11.709 -1.2143  2.4904 -4.1581
  382MOL0     H51515   6.627   3.004  11.661  1.0032  0.3227 -0.1035
  382MOL0     H51516   6.699   2.862  11.590  3.7808 -1.4425  0.5323
  382MOL0     H51517   6.616   2.780  11.784 -0.4671 -1.0987  0.4843
  382MOL0     H51518   6.677   2.908  11.890 -0.9853 -1.0617  0.7782
  382MOL0     H51519   6.840   2.712  11.723 -2.7872  2.8138 -2.7544
  382MOL0     H51520   6.909   2.796  11.852 -0.6581 -0.7377 -3.1453
  382MOL0     H51521   6.751   2.482  11.800  0.4740  0.7140  0.0389
  382MOL0     H51522   6.758   2.299  12.151 -3.5585  0.0555  1.1900
  382MOL0     H51523   6.612   2.297  12.035  0.0751 -3.0335 -2.6220
  382MOL0     H51524   6.725   2.237  11.851  1.2744  1.0632 -0.0007
  382MOL0     H51525   6.888   2.263  11.908 -0.0610 -0.2816 -1.2642
  382MOL0     H51526   6.832   2.019  11.875 -2.8528 -0.0453 -0.0435
  382MOL0     H51527   6.737   2.026  12.021  0.1388 -0.0691  0.7821
  382MOL0     H51528   6.944   2.118  12.138 -2.1518  0.9862 -0.5791
  382MOL0     H51529   7.048   2.090  12.005  1.0233 -2.9139 -1.1900
  382MOL0     H51530   7.151   1.976  11.897 -3.7534  0.8512  2.4384
  382MOL0     H51531   7.316   1.819  11.808  0.2752 -1.4606 -0.0322
  382MOL0     H51532   7.642   1.406  11.969 -2.0181  1.2805  0.3872
  382MOL0     H51533   7.773   1.234  11.858 -0.0247  1.0403  3.3208
  382MOL0     H51534   7.857   1.104  11.692  3.5342 -2.0100  0.5197
  382MOL0     H51535   7.831   1.006  11.833  0.1027  4.2616  0.4899
  382MOL0     H51536   7.811   0.881  11.554 -2.3331  5.7946 -0.0676
  382MOL0     H51537   7.956   0.882  11.654 -0.2389 -0.3817 -2.3866
  382MOL0     H51538   7.855   0.754  11.829 -0.2632 -4.8384 -0.6654
  382MOL0     H51539   7.694   0.767  11.754 -0.4380 -0.4526  1.9517
  382MOL0     H51540   7.940   0.632  11.624 -0.3586 -1.0170 -0.4689
  382MOL0     H51541   7.782   0.627  11.559  1.4937 -4.9012 -0.1653
  382MOL0     H51542   7.811   0.530  11.842  1.0232 -1.9816  0.9836
  382MOL0     H51543   7.878   0.434  11.701  0.9920  1.7248  0.4925
  382MOL0     H51544   7.596   0.540  11.764 -3.6862 -0.9255 -2.4370
  382MOL0     H51545   7.630   0.467  11.604  3.9327  1.0838 -1.2279
  382MOL0     H51546   7.606   0.338  11.870  2.5580  1.8586  0.7366
  382MOL0     H51547   7.709   0.262  11.740 -1.0602 -1.5074 -0.1509
  382MOL0     H51548   7.506   0.155  11.739 -1.1316 -0.7520 -1.1450
  382MOL0     H51549   7.408   0.299  11.719 -0.5160 -2.1755  4.0793
  382MOL0     H51550   7.422   1.047  11.720  0.5720 -3.2354  3.0581
  382MOL0     H51551   7.283   1.229  11.859  0.3580 -1.3360 -0.2944
  382MOL0     H51552   7.178   1.526  12.090  0.0822 -0.4825 -1.1544
  382MOL0     H51553   7.024   1.685  12.188  1.6866 -3.3732  0.8907
  382MOL0     H51554   6.338   3.305  11.397 -2.6492  2.8971  1.0226
  382MOL0     H51555   6.122   3.340  11.270 -1.8187  0.5934 -2.9667
  382MOL0     H51556   5.760   3.629  11.094 -0.9411  2.0727 -1.8401
  382MOL0     H51557   5.541   3.575  10.960 -0.8428 -1.1886 -1.0287
  382MOL0     H51558   5.497   3.200  10.772  0.3604  1.3088  1.4395
  382MOL0     H51559   5.531   3.317  10.636  0.8111 -2.9674 -0.7856
  382MOL0     H51560   5.308   3.203  10.631  0.6623 -2.4900  2.5202
  382MOL0     H51561   5.318   3.390  10.647  0.1767 -1.2000 -2.1727
  382MOL0     H51562   5.239   3.363  10.880 -2.6439  2.1134 -1.9239
  382MOL0     H51563   5.257   3.193  10.871 -2.7992  0.0643  2.4142
  382MOL0     H51564   5.065   3.325  10.683  0.5227 -2.1831 -0.6942
  382MOL0     H51565   5.081   3.158  10.734 -2.6947 -0.1982  0.1454
  382MOL0     H51566   4.840   3.331  11.036  0.2687  0.2204  0.3259
  382MOL0     H51567   5.729   3.233  10.802  3.9201 -1.9371  1.5097
  382MOL0     H51568   5.903   3.167  11.019 -1.8081 -1.4775 -0.8684
  382MOL0     H51569   5.921   3.160  10.849 -2.2483 -1.4250  1.4955
  382MOL0     H51570   6.041   3.256  10.948 -1.0203  2.8846 -0.0828
  383MOL0     O51571   6.206   4.492   9.743 -0.3391  0.3594 -0.3144
  383MOL0     C51572   6.178   4.593   9.682  0.2985 -0.9406 -0.0330
  383MOL0     O51573   6.257   4.673   9.617  0.0136 -0.3775 -0.1049
  383MOL0     C51574   6.377   4.646   9.573  0.3112  0.0953 -0.5210
  383MOL0     C51575   6.458   4.756   9.536 -0.3865  0.2816 -0.9047
  383MOL0     C51576   6.582   4.722   9.481 -0.1307  1.0226 -0.2934
  383MOL0     C51577   6.636   4.586   9.469  0.3818  1.1422  0.2028
  383MOL0     O51578   6.764   4.553   9.423 -0.6140 -0.3889 -0.2034
  383MOL0     C51579   6.874   4.624   9.487 -0.1952 -0.0156 -0.0687
  383MOL0     C51580   6.960   4.545   9.586  0.1492 -0.3654 -0.0233
  383MOL0     C51581   6.866   4.485   9.689  0.2360 -0.8283 -0.0958
  383MOL0     C51582   6.936   4.447   9.822 -0.1418  0.9078  1.4179
  383MOL0     C51583   6.975   4.559   9.916  0.3772 -1.0833  0.3916
  383MOL0     C51584   7.002   4.511  10.061 -1.1293 -0.4423  0.4973
  383MOL0     C51585   6.956   4.609  10.173  0.4065  0.2945  0.1375
  383MOL0     C51586   6.811   4.586  10.215 -0.2625  1.6655  0.5884
  383MOL0     N51587   6.752   4.691  10.306  0.6099  0.1143 -0.0383
  383MOL0     C51588   6.624   4.670  10.350  0.6547  0.2657  0.0490
  383MOL0     C51589   6.597   4.785  10.418 -0.1469 -0.5311 -0.5928
  383MOL0     C51590   6.476   4.839  10.474 -0.2452  0.2379 -0.4757
  383MOL0     C51591   6.394   4.909  10.373 -0.3792 -0.8774  1.6402
  383MOL0     C51592   6.261   4.943  10.429 -0.5845 -0.8001  0.6407
  383MOL0     C51593   6.168   4.996  10.321  0.2110  0.2425 -0.2460
  383MOL0     O51594   6.128   4.863  10.265  0.1311  0.9655 -0.2325
  383MOL0     C51595   6.003   4.861  10.204 -0.7434  0.9058  0.5941
  383MOL0     C51596   5.951   4.962  10.112 -0.3017  0.1974  0.9203
  383MOL0     C51597   5.820   4.960  10.070  0.1640  0.5382  0.6148
  383MOL0     C51598   5.731   4.857  10.103 -0.7548  0.8032 -0.0325
  383MOL0     C51599   5.581   4.872  10.082  0.2285  0.8497  0.3574
  383MOL0     O51600   5.500   4.766  10.112 -0.9050  0.0613 -0.0356
  383MOL0     C51601   5.370   4.792  10.086  0.2196 -0.2289  0.3029
  383MOL0     C51602   5.299   4.709   9.997  1.0148  0.5585  0.0214
  383MOL0     C51603   5.152   4.706   9.994  0.1506 -0.3287  0.4707
  383MOL0     C51604   5.083   4.791  10.087 -0.1511  0.3676 -0.4453
  383MOL0     O51605   4.950   4.774  10.107  0.7070 -0.0547  0.4669
  383MOL0     C51606   4.925   4.639  10.174  0.1353 -0.8732 -0.5448
  383MOL0     C51607   4.779   4.631  10.229  0.0527  0.2840 -0.7551
  383MOL0     C51608   4.745   4.734  10.341  0.8129  0.4573  0.5301
  383MOL0     C51609   4.600   4.724  10.373 -0.5261 -0.4788  0.0879
  383MOL0     C51610   4.541   4.824  10.465 -0.0031  0.0645 -0.5624
  383MOL0     C51611   4.391   4.814  10.469  0.3952 -0.8300  0.8066
  383MOL0     C51612   4.339   4.898  10.586 -0.1615 -0.8288 -0.5105
  383MOL0     C51613   4.194   4.931  10.571 -0.4924 -0.4527  0.0355
  383MOL0    Cl51614   4.100   4.778  10.528  0.1269 -0.2282 -0.1048
  383MOL0     C51615   5.158   4.878  10.171  0.2013 -0.4178 -0.5659
  383MOL0     C51616   5.298   4.888  10.163 -0.1581 -0.2856  0.7894
  383MOL0     O51617   5.539   4.984  10.047 -0.2786 -0.5873 -0.0622
  383MOL0     C51618   5.786   4.762  10.201 -0.0186 -0.2897 -0.8498
  383MOL0     C51619   5.918   4.773  10.250 -0.3882  0.5807  0.3954
  383MOL0     N51620   6.705   4.874  10.408 -1.1055  0.5556  0.2017
  383MOL0     N51621   6.795   4.815  10.340 -0.3018 -0.3783 -0.4404
  383MOL0     C51622   6.552   4.482   9.503  0.4721  0.4130 -0.2131
  383MOL0     C51623   6.429   4.511   9.551  0.6013 -0.2055  0.3324
  383MOL0     C51624   6.032   4.625   9.689 -0.0349  0.5534 -0.4138
  383MOL0     C51625   5.967   4.637   9.565  2.0863  0.3814  0.3822
  383MOL0     C51626   5.837   4.684   9.561  0.1653  0.4621  0.4677
  383MOL0     C51627   5.758   4.718   9.673 -0.0461  0.6494 -0.2562
  383MOL0     O51628   5.628   4.756   9.649 -0.5314  0.5368  0.1044
  383MOL0     C51629   5.541   4.793   9.751 -0.8794 -0.7055 -0.0200
  383MOL0     C51630   5.425   4.878   9.710  0.3211  0.3802 -0.4847
  383MOL0     C51631   5.467   5.028   9.718  0.3774  0.7222 -0.7176
  383MOL0     C51632   5.585   5.064   9.625 -0.3863  0.0544 -0.2063
  383MOL0     C51633   5.598   5.202   9.584  0.3016  0.5932 -1.3363
  383MOL0     C51634   5.600   5.320   9.569 -0.1107  1.4388 -0.0444
  383MOL0     C51635   5.818   4.676   9.801  0.1769 -0.4523  0.2788
  383MOL0     C51636   5.952   4.631   9.807  0.8343  0.0823  0.6586
  383MOL0     C51637   5.991   4.573   9.947  0.3878  0.6582 -0.8256
  383MOL0     H51638   6.429   4.861   9.539 -3.5534 -0.5207  0.1707
  383MOL0     H51639   6.643   4.808   9.456 -0.7062  0.8080 -2.7041
  383MOL0     H51640   6.936   4.664   9.406 -0.5298  1.3377  0.3297
  383MOL0     H51641   6.833   4.712   9.536 -1.6397 -0.8331  0.2548
  383MOL0     H51642   7.031   4.611   9.636 -1.7544  0.8970  1.1711
  383MOL0     H51643   7.003   4.449   9.555 -0.2377 -0.3982 -0.4787
  383MOL0     H51644   6.819   4.389   9.666  1.1970 -2.0897  2.7730
  383MOL0     H51645   6.792   4.563   9.711 -0.4539 -2.5887  5.2928
  383MOL0     H51646   6.853   4.387   9.861 -1.9487 -0.6044 -3.8213
  383MOL0     H51647   7.016   4.375   9.800  2.2732  3.7112  0.4308
  383MOL0     H51648   7.065   4.610   9.880  0.9539 -1.4730  1.2603
  383MOL0     H51649   6.886   4.624   9.909  1.5238  0.4061 -4.1479
  383MOL0     H51650   6.956   4.413  10.082  1.2307 -1.5637  0.7494
  383MOL0     H51651   7.108   4.493  10.083 -2.0241 -2.7961  3.6329
  383MOL0     H51652   6.978   4.707  10.131 -0.5096 -0.1207 -1.4269
  383MOL0     H51653   7.012   4.613  10.267 -1.2736  0.5159  1.1671
  383MOL0     H51654   6.753   4.564  10.125  0.3798  0.6670  0.4116
  383MOL0     H51655   6.796   4.494  10.272 -0.6461  2.0722  1.1643
  383MOL0     H51656   6.567   4.580  10.328  1.5812 -0.2398 -0.3246
  383MOL0     H51657   6.423   4.751  10.514  2.4353 -1.6738 -0.8273
  383MOL0     H51658   6.497   4.908  10.555 -1.0262 -1.1301  0.9599
  383MOL0     H51659   6.440   5.004  10.344 -3.0994  0.3373  0.9561
  383MOL0     H51660   6.379   4.855  10.279 -0.2745 -2.1095  2.3132
  383MOL0     H51661   6.263   5.023  10.504  0.9614 -1.8722  1.7975
  383MOL0     H51662   6.212   4.861  10.483 -0.7472 -0.6256  0.7624
  383MOL0     H51663   6.209   5.055  10.238  1.3085 -0.3276 -0.1333
  383MOL0     H51664   6.089   5.054  10.368  0.1924  0.6531 -0.7751
  383MOL0     H51665   6.007   5.049  10.081 -0.4500  0.2425  0.7765
  383MOL0     H51666   5.767   5.030  10.004 -1.2612  0.0671  1.2221
  383MOL0     H51667   5.348   4.652   9.919  0.7236  3.4778 -2.5047
  383MOL0     H51668   5.100   4.651   9.917  2.6014 -0.1749 -1.3962
  383MOL0     H51669   4.917   4.560  10.099  1.0556 -3.0203  1.5059
  383MOL0     H51670   4.982   4.602  10.259  0.5713  1.6157  0.3465
  383MOL0     H51671   4.703   4.644  10.152  0.3957  0.0073 -1.1499
  383MOL0     H51672   4.762   4.530  10.268  0.3882 -0.7571 -3.0845
  383MOL0     H51673   4.809   4.739  10.430  0.8633  0.9626  0.4673
  383MOL0     H51674   4.755   4.832  10.294  0.0296 -0.5409 -1.8388
  383MOL0     H51675   4.570   4.630  10.422  0.3692 -2.4612 -2.8664
  383MOL0     H51676   4.541   4.736  10.282 -0.8125  1.6641  0.5223
  383MOL0     H51677   4.569   4.923  10.429 -1.4596  0.2051 -1.4271
  383MOL0     H51678   4.571   4.802  10.567 -0.3748  0.7035 -0.3101
  383MOL0     H51679   4.339   4.872  10.392 -2.0336  1.6461  4.0534
  383MOL0     H51680   4.352   4.711  10.466 -0.5521 -0.4641  0.1330
  383MOL0     H51681   4.387   4.996  10.585  1.7712 -1.6242  2.2979
  383MOL0     H51682   4.352   4.849  10.683  3.3015 -0.0291 -0.4270
  383MOL0     H51683   4.161   4.965  10.669 -0.6010 -1.2009  0.2682
  383MOL0     H51684   4.164   5.019  10.513  2.0915  1.9882  2.1212
  383MOL0     H51685   5.106   4.947  10.237 -0.1779  0.2452 -1.5193
  383MOL0     H51686   5.348   4.959  10.227  3.0646 -0.7660 -0.9905
  383MOL0     H51687   5.711   4.698  10.247  0.0159  1.0253  1.1669
  383MOL0     H51688   5.951   4.717  10.338  0.6394  2.3201  1.1596
  383MOL0     H51689   6.595   4.383   9.499  1.2591  0.5654  2.7324
  383MOL0     H51690   6.366   4.423   9.558  1.9015 -1.1861  0.0915
  383MOL0     H51691   6.038   4.634   9.483  0.5025  0.5597 -1.0591
  383MOL0     H51692   5.808   4.697   9.457  1.4910 -3.5652 -0.6138
  383MOL0     H51693   5.602   4.861   9.811 -1.3119  1.2463 -1.6904
  383MOL0     H51694   5.521   4.701   9.807  3.5345 -0.8613  1.7184
  383MOL0     H51695   5.341   4.866   9.779  0.4646  0.6835 -0.2547
  383MOL0     H51696   5.389   4.847   9.611 -0.8228 -0.1667  0.0891
  383MOL0     H51697   5.477   5.057   9.822 -2.6066 -0.9786  0.1683
  383MOL0     H51698   5.379   5.083   9.683 -1.2530 -1.0261  0.4691
  383MOL0     H51699   5.676   5.044   9.683 -1.3793 -1.2411  0.9791
  383MOL0     H51700   5.591   5.001   9.536  1.6129  1.9116 -1.5017
  383MOL0     H51701   5.602   5.424   9.544  2.0561  0.5583 -4.4274
  383MOL0     H51702   5.755   4.683   9.890  1.9470  1.5099  1.4416
  383MOL0     H51703   5.901   4.545  10.003  2.0073 -0.5509  1.3156
  383MOL0     H51704   6.036   4.476   9.929 -2.7053 -1.0745 -0.0244
  383MOL0     H51705   6.057   4.621  10.020  0.5176 -2.3596  1.1927
  384MOL0     O51706   7.786   6.291   8.304 -0.3959 -0.3012 -0.1531
  384MOL0     C51707   7.713   6.221   8.372 -0.0012  0.1680  0.2218
  384MOL0     O51708   7.761   6.123   8.450  0.1637  0.8413  0.0213
  384MOL0     C51709   7.895   6.099   8.480 -0.6879  0.0109  0.3655
  384MOL0     C51710   7.937   5.968   8.497 -0.9603  1.5954 -0.0264
  384MOL0     C51711   8.057   5.943   8.554 -0.2336  0.1196  0.3027
  384MOL0     C51712   8.142   6.041   8.594 -0.7528  0.8355  0.4341
  384MOL0     O51713   8.260   6.017   8.659 -0.1540 -0.2417 -0.2020
  384MOL0     C51714   8.371   5.973   8.565 -0.3721  0.2576 -0.0358
  384MOL0     C51715   8.488   5.950   8.658 -0.1608 -0.4977 -1.0177
  384MOL0     C51716   8.538   6.087   8.716 -0.2821 -0.1048 -1.1130
  384MOL0     C51717   8.645   6.041   8.820  0.3898  0.3898  0.0784
  384MOL0     C51718   8.661   6.151   8.926  0.6615  0.9947 -0.1057
  384MOL0     C51719   8.714   6.286   8.873  1.2065  1.0692 -0.3537
  384MOL0     C51720   8.844   6.254   8.790  0.4670 -0.6253 -0.6716
  384MOL0     C51721   8.932   6.376   8.753 -0.3837  0.0597 -0.2880
  384MOL0     N51722   8.955   6.471   8.858  0.6368  0.0983  0.6546
  384MOL0     C51723   9.042   6.458   8.961  0.1919  0.2890 -0.0735
  384MOL0     C51724   9.032   6.575   9.028  0.0071  0.2521 -1.1175
  384MOL0     C51725   9.092   6.621   9.156 -0.1672 -0.1278 -0.5868
  384MOL0     C51726   9.218   6.544   9.182  0.0618 -0.2111  0.0129
  384MOL0     C51727   9.311   6.616   9.277  0.7356 -0.2121 -0.1448
  384MOL0     C51728   9.440   6.547   9.293 -0.0039  0.2199  0.5628
  384MOL0     O51729   9.429   6.426   9.361 -0.7476  0.1945 -0.6950
  384MOL0     C51730   9.541   6.357   9.405  0.1870 -0.4653  1.1275
  384MOL0     C51731   9.508   6.242   9.479  0.4219 -0.8755 -0.4557
  384MOL0     C51732   9.618   6.158   9.527 -0.1573 -0.4626  0.0521
  384MOL0     C51733   9.757   6.186   9.485 -0.0495  0.2207 -0.1467
  384MOL0     C51734   9.865   6.087   9.534  0.6937 -0.4691  0.6100
  384MOL0     O51735   9.834   5.985   9.621  0.0002 -0.0571 -0.1707
  384MOL0     C51736   9.936   5.899   9.656  1.3281 -0.6256 -0.4313
  384MOL0     C51737  10.026   5.933   9.759 -0.1613 -0.0980  0.1266
  384MOL0     C51738  10.107   5.833   9.815  0.2838 -0.2437  0.8035
  384MOL0     C51739  10.100   5.704   9.777  1.1842  0.2195 -0.0728
  384MOL0     O51740  10.160   5.596   9.832  0.4558  0.2480 -0.1076
  384MOL0     C51741  10.166   5.583   9.972  0.8895 -0.0146 -0.3426
  384MOL0     C51742  10.216   5.448  10.030  0.5804  0.4698 -0.3529
  384MOL0     C51743  10.216   5.469  10.187  0.2232  0.2347 -0.4334
  384MOL0     C51744  10.244   5.329  10.245 -0.4069  0.1425 -0.0548
  384MOL0     C51745  10.172   5.310  10.381 -1.0384  0.5638  0.0787
  384MOL0     C51746  10.239   5.366  10.511 -0.0837 -0.4076  0.6552
  384MOL0     C51747  10.332   5.483  10.502 -0.6199 -0.4779  0.3438
  384MOL0     C51748  10.397   5.537  10.632 -0.4214 -0.4661  0.1625
  384MOL0    Cl51749  10.497   5.426  10.712 -0.0132 -0.4941 -0.7816
  384MOL0     C51750  10.005   5.666   9.671 -0.1369 -0.3063  0.6129
  384MOL0     C51751   9.924   5.774   9.621 -0.6489  0.5106  0.3109
  384MOL0     O51752   9.977   6.115   9.495 -0.3600  0.4082  0.2425
  384MOL0     C51753   9.776   6.299   9.404 -0.0848  0.8116  0.6991
  384MOL0     C51754   9.674   6.379   9.371 -0.0787 -0.4941  1.0897
  384MOL0     N51755   8.957   6.658   8.953  0.4103 -0.1154 -0.1554
  384MOL0     N51756   8.900   6.597   8.858 -0.2935 -0.6039  0.6563
  384MOL0     C51757   8.105   6.170   8.579 -0.2192 -0.3681 -0.1455
  384MOL0     C51758   7.982   6.198   8.520  0.9402 -0.2797  0.6663
  384MOL0     C51759   7.564   6.227   8.364 -1.3706 -0.2037  0.4641
  384MOL0     C51760   7.491   6.108   8.373 -0.0838 -0.5944 -0.5357
  384MOL0     C51761   7.351   6.119   8.377 -0.0516  0.1575  0.0236
  384MOL0     C51762   7.288   6.240   8.359  0.4289 -0.4645  0.9969
  384MOL0     O51763   7.156   6.254   8.356  0.1758 -0.5193 -0.9505
  384MOL0     C51764   7.069   6.160   8.433 -0.8733  0.0562  0.0883
  384MOL0     C51765   6.931   6.220   8.471 -0.4997  0.1109  0.4295
  384MOL0     C51766   6.843   6.127   8.555  1.1609 -0.2497  0.7228
  384MOL0     C51767   6.914   6.102   8.690  1.2764 -0.2248 -0.1602
  384MOL0     C51768   6.987   5.974   8.693  0.3443 -0.0328 -0.0452
  384MOL0     C51769   7.061   5.886   8.675 -0.8565 -0.7055  0.7830
  384MOL0     C51770   7.362   6.355   8.356  0.5570 -0.4542 -0.3285
  384MOL0     C51771   7.497   6.356   8.360  0.1313 -0.6861  1.1401
  384MOL0     C51772   7.567   6.491   8.353  0.5477 -0.2981 -0.3645
  384MOL0     H51773   7.876   5.885   8.463  2.5028 -0.2314 -2.3945
  384MOL0     H51774   8.073   5.839   8.582  2.4889  0.0434 -1.2300
  384MOL0     H51775   8.347   5.876   8.519 -2.0888 -0.8581  2.9684
  384MOL0     H51776   8.393   6.045   8.486  1.8094 -0.8800 -0.5474
  384MOL0     H51777   8.568   5.897   8.604 -0.0618 -1.6810  0.2487
  384MOL0     H51778   8.448   5.893   8.742  0.4090  2.0449  1.1216
  384MOL0     H51779   8.461   6.150   8.760 -1.1553 -1.6925 -0.3108
  384MOL0     H51780   8.590   6.145   8.639  1.0698 -0.4688 -0.5079
  384MOL0     H51781   8.603   5.951   8.867 -1.3082  0.6092 -0.9274
  384MOL0     H51782   8.731   6.005   8.763  0.7570  1.8682 -0.3396
  384MOL0     H51783   8.568   6.164   8.983 -1.3417 -2.0517 -2.3576
  384MOL0     H51784   8.733   6.102   8.992 -0.2191 -1.3215 -0.7633
  384MOL0     H51785   8.641   6.333   8.806 -3.2826 -0.8634  2.7251
  384MOL0     H51786   8.733   6.358   8.953 -0.0612  1.5935 -0.5030
  384MOL0     H51787   8.821   6.212   8.692 -0.2392 -0.5756 -0.5324
  384MOL0     H51788   8.912   6.192   8.850  0.5591 -0.2362 -0.3653
  384MOL0     H51789   9.030   6.339   8.722 -1.0829 -3.1223  0.9566
  384MOL0     H51790   8.879   6.423   8.669  0.6046 -2.4923 -2.4688
  384MOL0     H51791   9.088   6.362   8.981 -2.1769 -0.8353  0.3488
  384MOL0     H51792   9.112   6.727   9.142 -3.4279  0.5215 -1.1302
  384MOL0     H51793   9.023   6.614   9.240 -2.2460 -1.3773 -2.2838
  384MOL0     H51794   9.196   6.448   9.229 -1.8573  2.1569  4.4780
  384MOL0     H51795   9.275   6.527   9.089  1.6503 -2.5111  1.3213
  384MOL0     H51796   9.262   6.617   9.376 -0.9830 -1.7844 -0.9193
  384MOL0     H51797   9.327   6.713   9.228 -2.3966 -1.6355 -4.6476
  384MOL0     H51798   9.503   6.615   9.351  0.2665 -1.0909  1.8570
  384MOL0     H51799   9.485   6.513   9.199 -1.5385 -2.4519  0.6825
  384MOL0     H51800   9.403   6.220   9.494  0.7553 -1.5723  0.9951
  384MOL0     H51801   9.591   6.065   9.575  1.2695  1.1955  4.5488
  384MOL0     H51802  10.028   6.030   9.808  2.4653 -0.6910  1.3732
  384MOL0     H51803  10.173   5.858   9.897  2.2393  2.6476 -1.4349
  384MOL0     H51804  10.239   5.660   9.998  0.5140 -0.6776  3.0872
  384MOL0     H51805  10.069   5.614  10.012  2.0781 -0.9367  3.6410
  384MOL0     H51806  10.141   5.371  10.013  1.0883 -0.2927  0.7618
  384MOL0     H51807  10.319   5.423  10.002  1.6181  2.4412  1.4061
  384MOL0     H51808  10.293   5.540  10.218  0.3952 -0.5562  1.0494
  384MOL0     H51809  10.115   5.507  10.207 -1.6285 -2.1298 -4.0793
  384MOL0     H51810  10.350   5.305  10.249 -0.2023  1.1177  0.8542
  384MOL0     H51811  10.198   5.259  10.174  0.4036 -0.6779  0.2135
  384MOL0     H51812  10.163   5.203  10.397 -1.2328  0.5655 -0.0170
  384MOL0     H51813  10.069   5.346  10.379 -0.2869  2.9026 -1.7550
  384MOL0     H51814  10.160   5.408  10.574  2.4413  1.5154  2.7559
  384MOL0     H51815  10.296   5.291  10.567  0.4386 -0.1240  0.5102
  384MOL0     H51816  10.272   5.560  10.454  3.7413  0.8917 -3.6723
  384MOL0     H51817  10.410   5.462  10.428 -1.1997  2.8230 -1.3821
  384MOL0     H51818  10.454   5.626  10.605 -1.1735 -0.8480 -3.1197
  384MOL0     H51819  10.313   5.562  10.697 -1.5817 -3.1168 -0.1686
  384MOL0     H51820  10.001   5.563   9.637 -0.5019  1.0245 -4.0514
  384MOL0     H51821   9.852   5.743   9.546 -0.6922  1.5876 -0.1073
  384MOL0     H51822   9.876   6.312   9.364  1.4071 -2.7917  2.7229
  384MOL0     H51823   9.708   6.456   9.302  1.5436 -0.6657  1.6402
  384MOL0     H51824   8.176   6.246   8.611  1.1216 -1.6825  0.0719
  384MOL0     H51825   7.946   6.300   8.512  1.1485 -0.2543 -0.1217
  384MOL0     H51826   7.539   6.011   8.364  1.6101  0.3416 -2.2959
  384MOL0     H51827   7.278   6.039   8.367 -0.2334  0.5976 -4.6122
  384MOL0     H51828   7.123   6.129   8.523 -0.1929  0.4426 -0.1733
  384MOL0     H51829   7.046   6.074   8.369 -2.3083  1.1246 -0.8873
  384MOL0     H51830   6.882   6.233   8.373  0.8507  2.4290 -0.0267
  384MOL0     H51831   6.933   6.321   8.513 -2.2763  0.3250  0.1007
  384MOL0     H51832   6.826   6.032   8.504  1.0294 -0.3300  0.9153
  384MOL0     H51833   6.742   6.166   8.570 -0.5355 -4.1356  0.5644
  384MOL0     H51834   6.978   6.188   8.712  2.4137 -0.3275 -2.7575
  384MOL0     H51835   6.842   6.096   8.772  0.9778 -1.8465 -0.5062
  384MOL0     H51836   7.138   5.812   8.666  0.1567  0.5140 -1.2286
  384MOL0     H51837   7.295   6.441   8.351 -0.1682 -1.0168 -0.3647
  384MOL0     H51838   7.500   6.578   8.350  2.3543  1.2098  0.6918
  384MOL0     H51839   7.618   6.501   8.449  0.4683  1.2512 -0.4462
  384MOL0     H51840   7.645   6.496   8.277  0.3905 -3.6846 -0.8961
  385MOL0     O51841  11.320   7.271   5.753 -0.3316  0.2481  0.5237
  385MOL0     C51842  11.431   7.245   5.807 -0.8814  0.8796  0.1031
  385MOL0     O51843  11.545   7.279   5.758  0.0372 -0.5079 -0.2579
  385MOL0     C51844  11.557   7.332   5.631 -0.4558 -1.0642  0.3106
  385MOL0     C51845  11.661   7.432   5.606  0.6147  0.3575 -0.7091
  385MOL0     C51846  11.679   7.487   5.490 -0.0972  0.2840 -0.6031
  385MOL0     C51847  11.598   7.471   5.377 -0.2398 -0.3751 -1.2589
  385MOL0     O51848  11.630   7.544   5.266  0.2181  0.3680 -0.3436
  385MOL0     C51849  11.551   7.532   5.144 -0.5324  0.7205  0.2309
  385MOL0     C51850  11.610   7.623   5.038 -0.4904 -0.3361 -0.7301
  385MOL0     C51851  11.746   7.579   4.983  0.7397  0.4448 -0.1184
  385MOL0     C51852  11.792   7.686   4.881 -0.6852  0.6682 -1.0023
  385MOL0     C51853  11.937   7.675   4.856 -0.1041 -0.4017 -0.3821
  385MOL0     C51854  11.973   7.672   4.704  0.4139 -0.1976  1.5637
  385MOL0     C51855  12.120   7.639   4.682  0.3459  0.6743  0.4983
  385MOL0     C51856  12.139   7.479   4.694  0.1531 -0.7547 -0.4665
  385MOL0     N51857  12.258   7.432   4.626 -0.2453 -0.7706 -0.6920
  385MOL0     C51858  12.276   7.318   4.556 -0.1435  0.4031 -0.7567
  385MOL0     C51859  12.409   7.294   4.547 -0.6819  1.0510  0.0695
  385MOL0     C51860  12.488   7.181   4.490  0.3234 -0.0410 -0.1504
  385MOL0     C51861  12.535   7.081   4.598  1.0691  0.3232 -1.1984
  385MOL0     C51862  12.656   7.126   4.690 -0.6706  0.7153 -0.3234
  385MOL0     C51863  12.753   7.010   4.743 -0.2026  0.6777  0.4173
  385MOL0     O51864  12.787   7.013   4.881  0.3823 -0.0397 -0.3530
  385MOL0     C51865  12.889   7.096   4.930 -0.3760 -0.6123 -0.1369
  385MOL0     C51866  12.954   7.202   4.853  0.7181  0.0631 -0.9992
  385MOL0     C51867  13.044   7.286   4.912  0.1629 -0.4598 -0.0872
  385MOL0     C51868  13.074   7.290   5.041  0.7295  0.0588  0.2258
  385MOL0     C51869  13.155   7.397   5.102 -0.3610  0.7136 -0.3997
  385MOL0     O51870  13.223   7.365   5.221 -0.3459 -0.0943  1.0978
  385MOL0     C51871  13.295   7.459   5.279  0.0539  0.2574 -0.0597
  385MOL0     C51872  13.429   7.468   5.261 -0.4060 -0.7425  0.2683
  385MOL0     C51873  13.504   7.557   5.326  0.0222 -0.8026  0.3623
  385MOL0     C51874  13.441   7.647   5.416 -0.4112 -0.2204  0.5793
  385MOL0     O51875  13.518   7.750   5.465 -0.1081  0.5341  0.0756
  385MOL0     C51876  13.478   7.809   5.588  0.2588 -0.3624  0.8497
  385MOL0     C51877  13.596   7.910   5.636  0.1544  0.7471 -0.0830
  385MOL0     C51878  13.562   7.963   5.781  0.0145 -0.5281 -0.8163
  385MOL0     C51879  13.682   8.046   5.831  0.1747 -0.0235 -0.3753
  385MOL0     C51880  13.636   8.171   5.911 -0.3696  0.4379 -0.2133
  385MOL0     C51881  13.750   8.262   5.946 -0.3376  0.5600  0.8165
  385MOL0     C51882  13.708   8.364   6.054 -0.1093  1.1060  0.4970
  385MOL0     C51883  13.808   8.470   6.054  0.1598 -0.4339  0.0389
  385MOL0    Cl51884  13.768   8.582   5.917 -0.1630  0.0194  0.1049
  385MOL0     C51885  13.303   7.643   5.434 -0.5847 -0.6138 -0.7343
  385MOL0     C51886  13.229   7.546   5.360  0.2720  0.0301  0.1462
  385MOL0     O51887  13.143   7.508   5.045 -0.6573 -0.3720  0.2602
  385MOL0     C51888  13.006   7.192   5.122  0.1340  0.7738  0.3759
  385MOL0     C51889  12.921   7.092   5.067 -0.5707 -0.5036 -1.0362
  385MOL0     N51890  12.466   7.408   4.605  0.4737 -0.0094  0.2891
  385MOL0     N51891  12.374   7.488   4.643 -0.1103 -0.0781 -0.3032
  385MOL0     C51892  11.501   7.369   5.388  0.0481  0.3187 -0.0577
  385MOL0     C51893  11.483   7.308   5.516  1.0853  0.5607  0.5370
  385MOL0     C51894  11.437   7.164   5.924  0.4335  0.1381 -0.3511
  385MOL0     C51895  11.371   7.204   6.040  0.7292  0.8936  0.2941
  385MOL0     C51896  11.400   7.162   6.173  0.1870 -0.5047 -0.3198
  385MOL0     C51897  11.494   7.062   6.192  0.3074 -0.1297  0.1285
  385MOL0     O51898  11.522   7.002   6.312  0.6802  0.8077  0.1976
  385MOL0     C51899  11.485   7.051   6.432  1.1040 -0.1967  0.7757
  385MOL0     C51900  11.575   7.002   6.546  0.6318 -0.0266 -0.8153
  385MOL0     C51901  11.556   6.849   6.584 -0.7515  1.0672  1.0165
  385MOL0     C51902  11.660   6.810   6.698 -0.4712 -0.7937 -0.2419
  385MOL0     C51903  11.663   6.665   6.722 -0.1491  0.9793  0.7268
  385MOL0     C51904  11.669   6.547   6.758  1.0388 -0.5780  0.4989
  385MOL0     C51905  11.556   7.001   6.084 -1.1745 -0.6508  0.0417
  385MOL0     C51906  11.538   7.064   5.955 -1.0256  0.5515  0.6447
  385MOL0     C51907  11.614   7.009   5.836 -0.1500  1.3195 -0.3046
  385MOL0     H51908  11.708   7.480   5.692  0.1537  0.2639 -0.4045
  385MOL0     H51909  11.751   7.568   5.494 -2.2508  2.2645  1.3794
  385MOL0     H51910  11.564   7.427   5.118 -0.1719  0.7646  0.2264
  385MOL0     H51911  11.443   7.544   5.156 -0.3198  0.1082  4.3746
  385MOL0     H51912  11.621   7.724   5.078  2.3814 -0.3127 -1.3864
  385MOL0     H51913  11.538   7.620   4.955  2.1983 -1.8551 -3.1662
  385MOL0     H51914  11.742   7.480   4.937 -3.9649  0.5577 -0.4461
  385MOL0     H51915  11.814   7.584   5.069  0.0189 -2.4471  0.7088
  385MOL0     H51916  11.736   7.662   4.790  1.0067 -0.0248 -1.9150
  385MOL0     H51917  11.764   7.785   4.918 -0.5213 -0.2026  1.6674
  385MOL0     H51918  11.992   7.755   4.905 -2.0177  1.3374 -0.9191
  385MOL0     H51919  11.976   7.585   4.905  3.1758  0.8271 -0.4532
  385MOL0     H51920  11.909   7.598   4.654  1.0827  0.2620 -0.0374
  385MOL0     H51921  11.943   7.764   4.654 -1.2863 -1.1215  0.8004
  385MOL0     H51922  12.185   7.693   4.751  0.5431  4.2267 -2.1566
  385MOL0     H51923  12.141   7.664   4.578  4.3870 -2.0517  0.4620
  385MOL0     H51924  12.140   7.448   4.799 -1.3045 -1.6822 -0.6994
  385MOL0     H51925  12.057   7.434   4.638 -1.2341  1.1648 -0.0786
  385MOL0     H51926  12.196   7.247   4.542  0.9375 -0.9369 -0.3882
  385MOL0     H51927  12.440   7.114   4.418  0.4246 -0.8888  0.5577
  385MOL0     H51928  12.575   7.232   4.447  2.9879 -2.0895  2.3963
  385MOL0     H51929  12.454   7.047   4.663  2.6790  0.1109  0.8062
  385MOL0     H51930  12.579   7.001   4.536 -0.9497 -1.8332 -0.0171
  385MOL0     H51931  12.621   7.179   4.779  3.0534  2.9712  0.0221
  385MOL0     H51932  12.706   7.196   4.622 -2.3840 -1.0338 -3.6825
  385MOL0     H51933  12.844   7.002   4.682  1.0199 -0.4533  2.2807
  385MOL0     H51934  12.694   6.919   4.728 -2.5497  2.1505  0.1062
  385MOL0     H51935  12.915   7.224   4.754  0.6216  1.1930 -0.7240
  385MOL0     H51936  13.088   7.363   4.849  0.6700  0.3696  1.2586
  385MOL0     H51937  13.477   7.425   5.174  2.8541 -0.7494  1.9017
  385MOL0     H51938  13.611   7.560   5.312  0.0253 -0.0130  0.5027
  385MOL0     H51939  13.381   7.859   5.590  0.6635  0.4374  0.8620
  385MOL0     H51940  13.479   7.730   5.663  1.9829 -1.3456 -0.1491
  385MOL0     H51941  13.687   7.850   5.628 -0.8275 -0.7145 -0.9167
  385MOL0     H51942  13.589   7.996   5.569 -1.1181  1.9002  1.4537
  385MOL0     H51943  13.468   8.019   5.791  1.1721  1.2289  1.0507
  385MOL0     H51944  13.548   7.876   5.845  0.0270  0.0233 -0.0452
  385MOL0     H51945  13.738   8.088   5.747 -2.8801  2.4391 -1.3833
  385MOL0     H51946  13.742   7.988   5.901  0.8016  1.7427  0.6313
  385MOL0     H51947  13.585   8.142   6.004  1.3684 -0.8480  0.3876
  385MOL0     H51948  13.563   8.220   5.846 -1.1130 -3.1270 -2.3368
  385MOL0     H51949  13.836   8.197   5.968 -2.3801 -2.6096  0.2159
  385MOL0     H51950  13.780   8.318   5.857 -0.6335 -0.5175  0.0047
  385MOL0     H51951  13.715   8.312   6.150  0.9655  2.0211  0.9335
  385MOL0     H51952  13.608   8.407   6.038 -0.1314  0.6184 -0.8149
  385MOL0     H51953  13.804   8.512   6.155  4.1995 -1.1548  0.6506
  385MOL0     H51954  13.912   8.437   6.050  1.3177  2.8846  0.0573
  385MOL0     H51955  13.253   7.711   5.502 -1.3281 -1.8950  0.0517
  385MOL0     H51956  13.123   7.536   5.380  0.1900  2.6592  1.4592
  385MOL0     H51957  13.018   7.195   5.230  0.5081 -0.1385  0.3641
  385MOL0     H51958  12.867   7.014   5.120 -1.7921 -0.1387 -1.7018
  385MOL0     H51959  11.421   7.350   5.318 -1.1107  0.2337  1.2509
  385MOL0     H51960  11.407   7.232   5.525  2.0410 -0.9333 -2.5123
  385MOL0     H51961  11.292   7.275   6.021 -0.2432 -0.6326 -1.7834
  385MOL0     H51962  11.339   7.201   6.254  1.6311  1.9755 -0.3254
  385MOL0     H51963  11.384   7.013   6.448 -0.5405  2.3195 -2.4912
  385MOL0     H51964  11.479   7.160   6.435 -0.7297 -0.0770 -2.6622
  385MOL0     H51965  11.547   7.059   6.636 -2.0448  2.4787 -3.0135
  385MOL0     H51966  11.677   7.035   6.525  0.3779 -0.1411 -2.3377
  385MOL0     H51967  11.564   6.789   6.493 -0.3912  1.9741  0.4361
  385MOL0     H51968  11.457   6.828   6.626 -0.5715 -1.4923  0.3322
  385MOL0     H51969  11.766   6.827   6.678  0.1415 -3.4785  0.4225
  385MOL0     H51970  11.641   6.866   6.790 -1.5585 -0.3006 -0.7398
  385MOL0     H51971  11.656   6.447   6.792 -2.9709 -0.1779  0.7099
  385MOL0     H51972  11.637   6.929   6.091 -1.2148 -0.5210  2.7948
  385MOL0     H51973  11.666   6.915   5.856  1.3437  2.6013  2.3372
  385MOL0     H51974  11.546   6.985   5.754 -1.4669  1.7810  0.6211
  385MOL0     H51975  11.689   7.078   5.795  1.0398 -0.4961 -1.3387
  386MOL0     O51976   1.216   6.711  10.846 -0.9806 -0.2320 -0.1428
  386MOL0     C51977   1.100   6.665  10.876  0.5594  0.6915  0.2143
  386MOL0     O51978   1.070   6.602  10.988 -0.3440  0.0240 -0.5370
  386MOL0     C51979   1.136   6.633  11.108  0.0653  0.5944 -0.5841
  386MOL0     C51980   1.181   6.534  11.194 -0.9743  0.6832  0.1093
  386MOL0     C51981   1.241   6.565  11.324  0.9894  0.5931  1.2153
  386MOL0     C51982   1.260   6.692  11.372 -0.4203 -0.0650  0.3616
  386MOL0     O51983   1.325   6.723  11.490 -0.4445  0.3715 -0.3741
  386MOL0     C51984   1.296   6.630  11.596  0.3725 -0.1391 -0.0628
  386MOL0     C51985   1.290   6.709  11.732  0.0039  0.6700  1.2386
  386MOL0     C51986   1.179   6.669  11.824  0.1245  0.5988  0.8205
  386MOL0     C51987   1.141   6.519  11.860 -0.5550  0.3632 -0.1832
  386MOL0     C51988   1.254   6.450  11.946  0.5434 -0.7259  0.5503
  386MOL0     C51989   1.258   6.501  12.088 -0.6316 -0.5728 -0.3420
  386MOL0     C51990   1.133   6.552  12.156  0.0173 -0.0285  0.2399
  386MOL0     C51991   1.050   6.451  12.231  0.0037  0.4726 -0.0827
  386MOL0     N51992   0.968   6.501  12.338 -0.0190 -0.4852 -0.1014
  386MOL0     C51993   1.020   6.573  12.447 -0.0187 -0.2885 -0.0283
  386MOL0     C51994   0.915   6.645  12.500 -0.4443  0.0583  1.4142
  386MOL0     C51995   0.932   6.730  12.619 -0.5425 -0.2456 -0.4511
  386MOL0     C51996   1.008   6.868  12.582 -0.4170  0.1541  0.5633
  386MOL0     C51997   0.933   6.939  12.463  0.1218  0.1812 -0.0561
  386MOL0     C51998   1.025   7.046  12.410  0.6097 -0.3131 -0.0559
  386MOL0     O51999   1.117   6.977  12.336  0.8614  0.6099  0.2625
  386MOL0     C52000   1.224   7.053  12.289 -0.6299  0.6494  0.0936
  386MOL0     C52001   1.271   7.179  12.330 -0.4432 -0.1725 -0.3131
  386MOL0     C52002   1.390   7.242  12.273  0.7196  0.0151  0.2299
  386MOL0     C52003   1.459   7.173  12.173 -0.9541  0.0609  0.1131
  386MOL0     C52004   1.586   7.224  12.114  0.1425 -0.1953 -0.0770
  386MOL0     O52005   1.582   7.358  12.117  0.5570  0.0783 -0.6430
  386MOL0     C52006   1.692   7.428  12.094 -0.1346  0.4472 -0.4773
  386MOL0     C52007   1.752   7.508  12.190  0.3437  0.7443  0.7449
  386MOL0     C52008   1.877   7.574  12.145 -0.1438  1.0669 -0.9018
  386MOL0     C52009   1.929   7.571  12.014 -0.2463 -0.2963 -0.4451
  386MOL0     O52010   2.057   7.612  12.000 -0.1129  0.0628  0.0118
  386MOL0     C52011   2.138   7.565  11.884  0.0819  0.6015 -0.0301
  386MOL0     C52012   2.146   7.643  11.755  0.3559 -0.5288  0.1098
  386MOL0     C52013   2.028   7.748  11.730 -0.9780 -0.2306  0.2772
  386MOL0     C52014   2.043   7.824  11.602 -1.0008 -0.6390  0.1118
  386MOL0     C52015   1.912   7.880  11.552 -0.3514 -0.9057  0.1264
  386MOL0     C52016   1.919   7.981  11.441  0.5202 -0.1444 -0.3394
  386MOL0     C52017   1.781   8.004  11.374 -0.3043 -0.3844  0.1672
  386MOL0     C52018   1.719   8.146  11.430 -0.3178  0.5249  0.2694
  386MOL0    Cl52019   1.827   8.283  11.356  0.1427  0.2852 -0.7079
  386MOL0     C52020   1.852   7.500  11.923  0.4838  0.2080 -0.7073
  386MOL0     C52021   1.740   7.426  11.966  0.0562  0.2158 -0.2341
  386MOL0     O52022   1.668   7.150  12.063  0.4346  0.4632  0.4742
  386MOL0     C52023   1.401   7.054  12.126  0.6270  0.5650  0.1699
  386MOL0     C52024   1.290   6.989  12.191 -0.1998 -1.2820  0.0330
  386MOL0     N52025   0.807   6.609  12.429 -0.4083 -0.2806  0.4214
  386MOL0     N52026   0.836   6.519  12.339  0.7380  0.3415 -0.5845
  386MOL0     C52027   1.223   6.795  11.280 -0.0764 -0.5145  0.7970
  386MOL0     C52028   1.154   6.763  11.153 -0.4041 -0.3677  0.1126
  386MOL0     C52029   0.993   6.697  10.782  0.1031  0.6905  0.6313
  386MOL0     C52030   1.017   6.718  10.645 -0.0854 -0.3009  1.0195
  386MOL0     C52031   0.915   6.721  10.556 -0.5806  0.3945 -0.0431
  386MOL0     C52032   0.786   6.706  10.595 -0.0394 -0.2578 -0.2397
  386MOL0     O52033   0.696   6.696  10.492  0.2916  1.1366 -0.2573
  386MOL0     C52034   0.584   6.600  10.488 -0.0655  0.6594 -0.3709
  386MOL0     C52035   0.481   6.633  10.371 -0.7113 -0.7728 -0.2353
  386MOL0     C52036   0.553   6.603  10.239  0.5426  0.2039  0.0651
  386MOL0     C52037   0.633   6.725  10.187 -0.8393 -0.0045  0.3414
  386MOL0     C52038   0.555   6.839  10.146 -0.6583 -0.3626 -0.2488
  386MOL0     C52039   0.493   6.938  10.127 -0.1548 -0.5316  0.9549
  386MOL0     C52040   0.751   6.687  10.731 -0.0137 -0.7234 -0.0324
  386MOL0     C52041   0.860   6.684  10.826  0.6219  0.0231 -0.2937
  386MOL0     C52042   0.799   6.669  10.971  0.1325  0.3800  0.2002
  386MOL0     H52043   1.170   6.429  11.170  3.1010  0.4535 -1.5101
  386MOL0     H52044   1.272   6.486  11.392 -2.1694  1.4848  3.9241
  386MOL0     H52045   1.208   6.567  11.581  0.5929 -0.8470  1.4273
  386MOL0     H52046   1.374   6.553  11.589 -0.2175 -0.7754  0.2471
  386MOL0     H52047   1.292   6.818  11.722  2.9949  0.6159  0.3603
  386MOL0     H52048   1.381   6.681  11.785  1.5283  1.6443 -0.7223
  386MOL0     H52049   1.093   6.720  11.780  1.5881  1.7708 -0.8210
  386MOL0     H52050   1.211   6.715  11.917  2.0973  0.2796  0.3519
  386MOL0     H52051   1.048   6.516  11.919 -0.5796 -1.0165 -0.2740
  386MOL0     H52052   1.121   6.461  11.770 -0.3741 -0.9930  0.6198
  386MOL0     H52053   1.250   6.341  11.941 -0.4835 -0.6482 -1.5148
  386MOL0     H52054   1.344   6.482  11.892 -0.9975  0.3056 -1.6145
  386MOL0     H52055   1.324   6.443  12.153  0.6478  1.2159  0.0346
  386MOL0     H52056   1.319   6.590  12.073 -2.1155  1.0048  2.1793
  386MOL0     H52057   1.070   6.619  12.097  0.5339  0.5696  0.3525
  386MOL0     H52058   1.165   6.621  12.236 -0.7170  2.4678 -1.4940
  386MOL0     H52059   0.987   6.398  12.158 -0.9655  0.5993  0.6429
  386MOL0     H52060   1.106   6.367  12.270  0.3841 -0.9386 -3.3702
  386MOL0     H52061   1.122   6.549  12.473 -1.3002 -3.0782  3.2480
  386MOL0     H52062   0.834   6.759  12.658  1.2043  2.7526  2.1339
  386MOL0     H52063   0.973   6.663  12.694 -1.0258  2.0879  2.0496
  386MOL0     H52064   1.032   6.933  12.666 -1.5104  1.5756 -0.1776
  386MOL0     H52065   1.109   6.861  12.542 -0.8663  0.3531 -0.6651
  386MOL0     H52066   0.850   7.000  12.500  1.5275  3.5658 -2.0124
  386MOL0     H52067   0.904   6.870  12.383 -0.3864 -1.2830  1.3284
  386MOL0     H52068   1.063   7.099  12.498 -1.7262 -1.2351  1.5766
  386MOL0     H52069   0.958   7.109  12.351 -1.2646  0.0656  2.3341
  386MOL0     H52070   1.213   7.229  12.407  4.4135  2.3395  2.1736
  386MOL0     H52071   1.426   7.333  12.319  0.1476  0.9907 -1.1809
  386MOL0     H52072   1.721   7.516  12.293  1.8242  1.3178  1.1691
  386MOL0     H52073   1.933   7.637  12.213  1.4327 -2.3048  1.1946
  386MOL0     H52074   2.241   7.559  11.921 -0.7762  0.1636  2.4362
  386MOL0     H52075   2.111   7.461  11.866 -1.2707  1.2345 -1.9943
  386MOL0     H52076   2.232   7.711  11.757 -1.1887  1.6566 -2.1375
  386MOL0     H52077   2.169   7.577  11.671 -0.4138 -0.1462 -0.4090
  386MOL0     H52078   1.943   7.680  11.726 -0.7319 -0.5062 -0.3404
  386MOL0     H52079   2.012   7.816  11.815  0.1570  0.1130  0.2298
  386MOL0     H52080   2.078   7.760  11.521  0.1918  0.4031 -0.2356
  386MOL0     H52081   2.115   7.903  11.626 -1.4672  0.7332 -2.5654
  386MOL0     H52082   1.850   7.920  11.633 -1.6867 -1.5041 -0.5670
  386MOL0     H52083   1.855   7.792  11.520 -1.4282 -1.8782  4.1592
  386MOL0     H52084   1.956   8.072  11.487  1.0135 -0.0149 -0.9760
  386MOL0     H52085   1.981   7.954  11.354  0.2567 -0.1344 -0.5322
  386MOL0     H52086   1.709   7.936  11.420  1.0188 -2.0432 -0.1230
  386MOL0     H52087   1.790   8.006  11.265 -3.2547  1.1643 -0.1457
  386MOL0     H52088   1.619   8.159  11.388 -0.1349 -2.2283 -1.2862
  386MOL0     H52089   1.706   8.155  11.538  1.4147 -3.4292  1.0010
  386MOL0     H52090   1.886   7.495  11.819 -1.9062  0.0554 -1.5283
  386MOL0     H52091   1.686   7.371  11.890 -0.4840 -1.2644  1.1804
  386MOL0     H52092   1.444   7.002  12.041 -0.8520  0.7378 -0.7290
  386MOL0     H52093   1.261   6.902  12.133 -1.7769  1.2308 -3.2516
  386MOL0     H52094   1.248   6.894  11.318  2.9036 -0.9371  0.1602
  386MOL0     H52095   1.116   6.846  11.095  0.1752 -1.1096 -1.3784
  386MOL0     H52096   1.118   6.737  10.610 -0.5580 -0.2862 -0.3826
  386MOL0     H52097   0.924   6.733  10.449 -0.9252 -1.7585 -0.3600
  386MOL0     H52098   0.534   6.608  10.585  0.0099  1.8864 -0.4196
  386MOL0     H52099   0.615   6.495  10.493  3.2831  1.5622  1.0903
  386MOL0     H52100   0.444   6.733  10.394  1.1083 -0.9153  4.1646
  386MOL0     H52101   0.413   6.548  10.383  0.0408 -1.3117  0.2421
  386MOL0     H52102   0.476   6.580  10.165  2.6061 -3.3389 -1.1772
  386MOL0     H52103   0.603   6.509  10.264 -4.2339 -2.6518  0.1668
  386MOL0     H52104   0.710   6.768  10.251  2.4455  0.5332 -3.5302
  386MOL0     H52105   0.671   6.694  10.089 -2.6597 -0.9941 -0.1012
  386MOL0     H52106   0.433   7.027  10.120 -1.6166 -1.6038 -2.3467
  386MOL0     H52107   0.646   6.676  10.755  0.1515 -0.8211  0.6611
  386MOL0     H52108   0.779   6.565  10.995  2.2893 -0.2423 -0.4891
  386MOL0     H52109   0.876   6.699  11.043  2.5531 -1.1743 -1.5838
  386MOL0     H52110   0.713   6.733  10.992  0.7217  0.3862  2.8792
  387MOL0     O52111   7.158   2.374   7.697 -0.1038 -0.2399  0.9957
  387MOL0     C52112   7.095   2.441   7.606 -0.1358  0.3114  0.2150
  387MOL0     O52113   6.993   2.392   7.533 -0.0295  1.2427  0.1251
  387MOL0     C52114   6.978   2.252   7.526 -1.3354  0.0994  0.6028
  387MOL0     C52115   6.865   2.198   7.577  0.1073  0.3480  0.1229
  387MOL0     C52116   6.829   2.065   7.554  0.6261 -0.5947 -0.3076
  387MOL0     C52117   6.916   1.987   7.477  0.2099 -0.2383 -0.8024
  387MOL0     O52118   6.900   1.856   7.455  0.4688 -0.1313 -0.3724
  387MOL0     C52119   6.778   1.804   7.501  0.1248  0.4311 -0.2572
  387MOL0     C52120   6.772   1.665   7.438  0.7951 -0.4303 -0.3958
  387MOL0     C52121   6.884   1.566   7.486  0.2068 -0.1654 -0.7131
  387MOL0     C52122   7.001   1.545   7.380 -0.6052  1.1635  0.7366
  387MOL0     C52123   7.131   1.479   7.425  1.1856 -0.2591 -0.4623
  387MOL0     C52124   7.184   1.530   7.555  0.0584 -0.2003 -0.5036
  387MOL0     C52125   7.210   1.674   7.560 -0.6451 -0.4750  0.3367
  387MOL0     C52126   7.332   1.707   7.465 -0.1680  0.4020  1.0226
  387MOL0     N52127   7.364   1.849   7.453  0.4658  0.5986  0.6892
  387MOL0     C52128   7.429   1.911   7.553 -0.4058  0.5287 -0.7474
  387MOL0     C52129   7.441   2.040   7.509 -0.1245  0.7850  0.0440
  387MOL0     C52130   7.515   2.156   7.575 -0.2347 -0.1103 -0.4105
  387MOL0     C52131   7.663   2.132   7.568  1.2089 -0.9292  0.1879
  387MOL0     C52132   7.709   2.116   7.417 -0.3025 -0.5926  0.3545
  387MOL0     C52133   7.861   2.149   7.400 -0.2791  1.7680  0.4274
  387MOL0     O52134   7.901   2.278   7.442  1.1942 -0.6068  0.1236
  387MOL0     C52135   7.978   2.297   7.552  0.1670  0.1685 -0.1823
  387MOL0     C52136   8.046   2.415   7.557 -0.7228 -0.3363  0.3344
  387MOL0     C52137   8.155   2.438   7.643  0.2255 -0.0562  0.4146
  387MOL0     C52138   8.159   2.348   7.753  0.0012  0.0923 -0.3232
  387MOL0     C52139   8.265   2.365   7.856  0.8087  0.2451 -0.0529
  387MOL0     O52140   8.243   2.325   7.986  0.0022 -0.1851  0.2122
  387MOL0     C52141   8.321   2.339   8.096  0.4793  0.2615 -0.0039
  387MOL0     C52142   8.454   2.389   8.104 -0.0232 -1.1830  0.5038
  387MOL0     C52143   8.519   2.411   8.226 -0.8587  0.8691 -0.6058
  387MOL0     C52144   8.453   2.406   8.342  0.3868 -1.0181  0.6330
  387MOL0     O52145   8.520   2.437   8.457 -0.7669 -0.5761  0.6558
  387MOL0     C52146   8.489   2.359   8.570  0.3097  0.2379 -0.1727
  387MOL0     C52147   8.564   2.391   8.696 -0.0640 -0.2157 -0.3084
  387MOL0     C52148   8.546   2.290   8.808 -0.5440 -0.9402 -1.8115
  387MOL0     C52149   8.662   2.300   8.919  0.0903 -0.3220 -0.5179
  387MOL0     C52150   8.639   2.208   9.039  0.1150 -0.7408 -0.9613
  387MOL0     C52151   8.600   2.067   8.994 -0.2948 -0.3504  0.5877
  387MOL0     C52152   8.610   1.960   9.115  0.2627 -0.1593 -0.0967
  387MOL0     C52153   8.537   1.832   9.079 -0.6848 -0.9148 -0.7501
  387MOL0    Cl52154   8.545   1.723   9.213 -0.2618  0.0167 -0.3178
  387MOL0     C52155   8.314   2.368   8.334  0.6003  0.1740 -0.6324
  387MOL0     C52156   8.248   2.333   8.219  0.1144  0.1113  1.2021
  387MOL0     O52157   8.363   2.431   7.821 -0.4229  0.5405 -0.3642
  387MOL0     C52158   8.079   2.240   7.758 -0.3774 -1.0879  0.0498
  387MOL0     C52159   7.991   2.207   7.659  0.4999  0.1046 -0.0099
  387MOL0     N52160   7.389   2.050   7.375 -0.2593  0.6332  0.0025
  387MOL0     N52161   7.345   1.930   7.341 -0.3406  0.3015 -0.1900
  387MOL0     C52162   7.037   2.040   7.438  0.4195  0.8188  0.1661
  387MOL0     C52163   7.073   2.168   7.460  1.1695 -0.4842  0.8301
  387MOL0     C52164   7.119   2.586   7.601 -0.2815  0.7224  0.0648
  387MOL0     C52165   7.026   2.664   7.676 -0.4820  0.6495 -0.0434
  387MOL0     C52166   7.043   2.796   7.679 -0.2699 -0.1708  0.1072
  387MOL0     C52167   7.154   2.861   7.623  0.0049  0.5647 -0.3490
  387MOL0     O52168   7.180   2.992   7.622  0.4744 -0.2791  0.0888
  387MOL0     C52169   7.129   3.080   7.732  0.0604  0.1078  0.1193
  387MOL0     C52170   7.241   3.114   7.837 -0.0019  0.2319 -0.6185
  387MOL0     C52171   7.199   3.226   7.927  0.2917 -0.9516  0.8987
  387MOL0     C52172   7.322   3.284   8.006  0.3544  0.3390  0.2344
  387MOL0     C52173   7.288   3.385   8.107  0.7903  0.3100  0.0659
  387MOL0     C52174   7.233   3.463   8.180 -0.2323 -0.5040  1.0033
  387MOL0     C52175   7.245   2.787   7.548 -0.1106  0.8173  0.1309
  387MOL0     C52176   7.230   2.648   7.531 -0.1976 -1.0045  0.3355
  387MOL0     C52177   7.330   2.566   7.444  0.0011 -0.1653 -0.3182
  387MOL0     H52178   6.800   2.275   7.617 -0.4261  0.7765 -1.5049
  387MOL0     H52179   6.732   2.028   7.585 -0.2918  0.9634 -1.1951
  387MOL0     H52180   6.781   1.796   7.610  1.1071 -2.1553 -0.3837
  387MOL0     H52181   6.689   1.855   7.464 -2.8810 -2.0439  2.9098
  387MOL0     H52182   6.783   1.679   7.331  4.5066  1.0270  0.0326
  387MOL0     H52183   6.678   1.613   7.460  0.9391  0.3357  2.4962
  387MOL0     H52184   6.832   1.470   7.492  0.8509 -0.5607 -1.2844
  387MOL0     H52185   6.921   1.586   7.587  0.8719 -0.5756 -0.8613
  387MOL0     H52186   6.972   1.473   7.303 -1.7643 -0.7798  2.8618
  387MOL0     H52187   7.023   1.642   7.333  1.0192  0.7872  0.6553
  387MOL0     H52188   7.118   1.372   7.442  0.3546 -0.4885 -2.2613
  387MOL0     H52189   7.205   1.471   7.345 -1.3866 -0.7057 -2.9452
  387MOL0     H52190   7.119   1.519   7.642  2.0439  1.5289  1.2864
  387MOL0     H52191   7.274   1.478   7.588 -1.9468 -1.0372  4.5764
  387MOL0     H52192   7.238   1.697   7.663 -0.9251 -1.4166  0.6363
  387MOL0     H52193   7.128   1.738   7.526  1.4391  2.9880  1.3304
  387MOL0     H52194   7.428   1.657   7.474  1.0154  1.1823 -4.3644
  387MOL0     H52195   7.298   1.687   7.363  1.5064 -1.9965  0.8633
  387MOL0     H52196   7.464   1.878   7.651 -1.3944  3.9206  0.9031
  387MOL0     H52197   7.480   2.244   7.520 -3.3974  0.6737  2.4932
  387MOL0     H52198   7.486   2.180   7.678 -0.1625 -0.4725 -0.3055
  387MOL0     H52199   7.702   2.226   7.608 -0.2130  0.5222 -1.6289
  387MOL0     H52200   7.707   2.053   7.629  2.4335 -1.8765 -1.8247
  387MOL0     H52201   7.660   2.184   7.346  1.0822  0.6782  0.5691
  387MOL0     H52202   7.693   2.012   7.387 -1.5567  0.1285 -1.6598
  387MOL0     H52203   7.874   2.135   7.292  1.1423 -2.6154  1.0022
  387MOL0     H52204   7.914   2.066   7.447 -2.4412 -2.1891 -3.2895
  387MOL0     H52205   8.034   2.478   7.470  3.8059  0.9047  0.3821
  387MOL0     H52206   8.220   2.525   7.637 -1.3904  1.2628  1.0320
  387MOL0     H52207   8.520   2.401   8.020 -0.3040 -0.3175  0.3900
  387MOL0     H52208   8.624   2.439   8.234 -1.0179  1.2509  0.2925
  387MOL0     H52209   8.382   2.364   8.595  0.7943  1.1871  1.9377
  387MOL0     H52210   8.501   2.256   8.534 -0.1506 -1.1363  3.1888
  387MOL0     H52211   8.669   2.412   8.677  0.4574 -1.1005  1.3593
  387MOL0     H52212   8.541   2.493   8.729  1.4649 -0.8855  3.3027
  387MOL0     H52213   8.448   2.299   8.856  0.9188 -0.8515  1.3486
  387MOL0     H52214   8.543   2.191   8.759 -1.5335 -0.9397 -1.7891
  387MOL0     H52215   8.658   2.394   8.975  0.2951 -1.0228  0.7051
  387MOL0     H52216   8.758   2.286   8.868  0.6828 -0.0018  0.4778
  387MOL0     H52217   8.561   2.244   9.107  1.1821 -0.1306 -0.0207
  387MOL0     H52218   8.738   2.207   9.086 -1.9827  1.2127  4.3580
  387MOL0     H52219   8.494   2.069   8.970  0.0197 -0.1963 -0.8748
  387MOL0     H52220   8.651   2.043   8.900 -4.3462  0.3780 -2.0289
  387MOL0     H52221   8.588   2.003   9.213  1.6857 -1.0390  0.6516
  387MOL0     H52222   8.713   1.924   9.125  0.6864 -0.0548 -3.1827
  387MOL0     H52223   8.436   1.862   9.051  0.0572  0.3050 -2.2715
  387MOL0     H52224   8.578   1.785   8.989  2.3290  1.0881 -0.5665
  387MOL0     H52225   8.259   2.374   8.428  3.5546  3.5762  1.1487
  387MOL0     H52226   8.142   2.311   8.210  0.9328 -3.8326 -1.2952
  387MOL0     H52227   8.109   2.160   7.824 -0.6425 -2.4832 -1.4522
  387MOL0     H52228   7.922   2.125   7.676  0.7969 -0.0201  0.6141
  387MOL0     H52229   7.090   1.974   7.369  0.0140 -1.3469  1.8004
  387MOL0     H52230   7.167   2.203   7.417  0.4195  1.0721  0.3870
  387MOL0     H52231   6.943   2.623   7.733 -0.6917  2.4001  1.0091
  387MOL0     H52232   6.962   2.841   7.736 -0.5221 -3.0891  2.2946
  387MOL0     H52233   7.044   3.033   7.782 -0.0605 -0.4254 -0.5764
  387MOL0     H52234   7.092   3.174   7.690 -1.9258 -1.7742 -2.7742
  387MOL0     H52235   7.338   3.129   7.789  0.4485 -1.1358 -0.1824
  387MOL0     H52236   7.254   3.025   7.899  0.6596  0.0811 -0.9706
  387MOL0     H52237   7.123   3.190   7.997 -1.4294 -2.9267 -1.7958
  387MOL0     H52238   7.152   3.303   7.866 -0.9762 -0.9426  1.8643
  387MOL0     H52239   7.382   3.206   8.056  0.0361  0.7293  1.2386
  387MOL0     H52240   7.389   3.337   7.937  2.1852  0.7685  2.2397
  387MOL0     H52241   7.203   3.536   8.254 -2.3722 -0.2332 -0.0548
  387MOL0     H52242   7.334   2.827   7.502  0.0591  0.9013  0.5344
  387MOL0     H52243   7.352   2.478   7.505 -2.2207 -0.9121 -0.4905
  387MOL0     H52244   7.283   2.536   7.350  2.1966  1.3088 -2.0045
  387MOL0     H52245   7.421   2.619   7.416 -0.4692  0.7155 -0.2199
  388MOL0     O52246   5.003   1.575  11.083 -0.5089  0.7524  0.2211
  388MOL0     C52247   4.897   1.642  11.102  0.1470  0.0978  0.2270
  388MOL0     O52248   4.786   1.603  11.169 -0.1756  0.7089  0.3317
  388MOL0     C52249   4.765   1.466  11.183  0.2164  0.0886 -1.0206
  388MOL0     C52250   4.830   1.365  11.116  0.4222  0.4476  0.0031
  388MOL0     C52251   4.790   1.233  11.139 -0.0494 -0.2581 -0.1224
  388MOL0     C52252   4.680   1.208  11.225  0.4162 -0.5192  0.8822
  388MOL0     O52253   4.625   1.084  11.247 -0.3392 -0.3510  0.0834
  388MOL0     C52254   4.716   1.008  11.317 -0.9166  0.2743  0.4197
  388MOL0     C52255   4.655   0.873  11.366  0.5052 -0.6607 -0.1900
  388MOL0     C52256   4.753   0.774  11.420 -0.4135 -0.5490  0.0719
  388MOL0     C52257   4.685   0.634  11.422  0.2421 -0.5406  0.3730
  388MOL0     C52258   4.786   0.523  11.447  0.1644 -0.3255 -0.4130
  388MOL0     C52259   4.715   0.390  11.458 -0.1275 -0.3839 -0.0971
  388MOL0     C52260   4.637   0.352  11.335 -0.4056 -0.9913 -0.4287
  388MOL0     C52261   4.570   0.210  11.360  0.3493  0.0866  0.1374
  388MOL0     N52262   4.656   0.100  11.336 -0.0172 -0.1475  1.0144
  388MOL0     C52263   4.710   0.019  11.429  0.0208  0.3166  0.0771
  388MOL0     C52264   4.781  -0.061  11.352 -0.2596  0.4058 -0.3518
  388MOL0     C52265   4.877  -0.166  11.415  0.1051  0.2664  1.1149
  388MOL0     C52266   5.007  -0.097  11.464 -0.6339  0.3118  0.6642
  388MOL0     C52267   5.088  -0.081  11.339 -0.4269  0.6711 -0.3253
  388MOL0     C52268   5.212   0.006  11.352 -0.7609  0.0623 -0.9015
  388MOL0     O52269   5.169   0.134  11.403 -0.3230  1.0114  0.3085
  388MOL0     C52270   5.165   0.218  11.300 -0.4129 -0.3751  0.5476
  388MOL0     C52271   5.046   0.257  11.251  0.8101 -0.6756 -0.1033
  388MOL0     C52272   5.039   0.368  11.166 -0.0930  1.1123  0.0413
  388MOL0     C52273   5.150   0.434  11.127 -1.5378  0.3711 -0.0959
  388MOL0     C52274   5.148   0.547  11.021  0.0846  0.1180 -0.0776
  388MOL0     O52275   5.032   0.567  10.946 -0.2521  1.1406  0.2603
  388MOL0     C52276   5.019   0.681  10.873  0.6716 -0.1410 -0.7990
  388MOL0     C52277   4.916   0.779  10.911  0.0593  0.9575  1.1735
  388MOL0     C52278   4.906   0.904  10.840 -0.1559  0.0751  1.1339
  388MOL0     C52279   5.000   0.941  10.743  0.7174 -0.8840 -0.8543
  388MOL0     O52280   4.993   1.077  10.713  0.1265 -0.1361 -0.6460
  388MOL0     C52281   5.028   1.089  10.570 -1.0893 -1.1201  0.4968
  388MOL0     C52282   4.986   1.224  10.506  0.1030 -0.8720  0.2497
  388MOL0     C52283   4.834   1.230  10.488 -0.5328  0.7493  0.4223
  388MOL0     C52284   4.804   1.366  10.425  0.3602  0.3462  0.2371
  388MOL0     C52285   4.656   1.382  10.406  0.7575 -0.6837  0.0605
  388MOL0     C52286   4.616   1.509  10.318 -1.2557 -0.5326 -0.5301
  388MOL0     C52287   4.471   1.513  10.265 -0.7511  0.1334  0.4525
  388MOL0     C52288   4.367   1.469  10.367  0.2778 -0.6815  0.3421
  388MOL0    Cl52289   4.204   1.485  10.296  0.3550 -0.3987 -0.3177
  388MOL0     C52290   5.099   0.849  10.708  0.2049  0.3445  0.2071
  388MOL0     C52291   5.107   0.720  10.772 -0.0156  0.0853 -0.2524
  388MOL0     O52292   5.239   0.629  11.015 -0.5689  0.6680 -0.5663
  388MOL0     C52293   5.274   0.386  11.165 -0.1788  0.4444 -0.9987
  388MOL0     C52294   5.282   0.284  11.261  0.3624  0.1201 -0.2033
  388MOL0     N52295   4.773  -0.032  11.216  0.3855  0.4810  0.2711
  388MOL0     N52296   4.699   0.071  11.210 -0.4472 -0.1598 -0.4090
  388MOL0     C52297   4.613   1.310  11.282  0.1451  0.6542 -0.4135
  388MOL0     C52298   4.654   1.442  11.262  0.2515 -0.2592 -0.3348
  388MOL0     C52299   4.885   1.775  11.044 -0.7949 -0.8266  0.5265
  388MOL0     C52300   4.761   1.826  11.004  0.0197  0.7440  0.3930
  388MOL0     C52301   4.750   1.949  10.938 -0.2244  0.5367  0.0045
  388MOL0     C52302   4.860   2.021  10.902 -0.3626  0.6450  0.6947
  388MOL0     O52303   4.857   2.129  10.827  0.0673  0.0693  0.4634
  388MOL0     C52304   4.730   2.161  10.768 -0.5528  0.5427 -1.1783
  388MOL0     C52305   4.735   2.283  10.672 -0.8729 -0.0009 -1.4389
  388MOL0     C52306   4.784   2.256  10.535  1.0577 -0.3207  0.7371
  388MOL0     C52307   4.936   2.243  10.523  0.0244  0.7057  0.4851
  388MOL0     C52308   4.986   2.259  10.385 -1.0964 -0.2146 -0.0825
  388MOL0     C52309   5.018   2.294  10.272 -0.4216 -0.0324 -0.1944
  388MOL0     C52310   4.979   1.982  10.960  0.0058 -0.5522  0.3887
  388MOL0     C52311   4.997   1.858  11.018 -0.7311 -0.8348 -0.8151
  388MOL0     C52312   5.144   1.833  11.062 -1.1477 -0.9171 -0.3765
  388MOL0     H52313   4.889   1.383  11.026 -2.4702 -0.5754 -2.2616
  388MOL0     H52314   4.826   1.148  11.081  2.6587  1.0269 -0.4699
  388MOL0     H52315   4.792   0.993  11.240 -0.7243 -0.0335  0.6678
  388MOL0     H52316   4.776   1.051  11.397  0.4371  0.2595 -0.5590
  388MOL0     H52317   4.606   0.833  11.276  0.1044  2.8989 -1.7290
  388MOL0     H52318   4.576   0.891  11.439  2.1974 -2.7411  2.3434
  388MOL0     H52319   4.787   0.813  11.516 -3.2207  2.4605  0.0329
  388MOL0     H52320   4.832   0.762  11.345  1.7664 -0.9004  2.3161
  388MOL0     H52321   4.619   0.635  11.509  1.8218  1.2363  1.6310
  388MOL0     H52322   4.627   0.620  11.330 -0.1584  5.3588 -0.6212
  388MOL0     H52323   4.845   0.518  11.355 -0.5690 -0.7306 -0.8745
  388MOL0     H52324   4.857   0.546  11.527  1.0090  0.7170 -1.4231
  388MOL0     H52325   4.789   0.310  11.466 -1.6227 -1.7637  0.4804
  388MOL0     H52326   4.649   0.398  11.545 -1.3058  1.1715 -1.0855
  388MOL0     H52327   4.696   0.346  11.243  1.2772  0.2227  0.5035
  388MOL0     H52328   4.562   0.431  11.321  1.2780  0.7272 -0.2356
  388MOL0     H52329   4.528   0.211  11.461 -4.1293  0.7973 -1.5049
  388MOL0     H52330   4.480   0.199  11.298 -1.6111  0.1404  2.8215
  388MOL0     H52331   4.691   0.020  11.536 -2.4225 -2.6891 -0.2106
  388MOL0     H52332   4.833  -0.218  11.500  2.5297 -0.5284  1.9636
  388MOL0     H52333   4.902  -0.237  11.336 -0.1184 -1.4071  2.4951
  388MOL0     H52334   4.970  -0.009  11.517 -0.4888 -1.1142  3.3326
  388MOL0     H52335   5.056  -0.153  11.544  1.6946 -0.6669 -1.3201
  388MOL0     H52336   5.024  -0.034  11.263  1.9757 -0.4194 -3.1632
  388MOL0     H52337   5.115  -0.179  11.300 -3.3538 -0.9687  1.4000
  388MOL0     H52338   5.272   0.012  11.261  1.6911 -1.3015  0.4988
  388MOL0     H52339   5.282  -0.039  11.423 -0.2838  1.9190 -0.1259
  388MOL0     H52340   4.953   0.209  11.277  0.4282 -1.4902 -2.7161
  388MOL0     H52341   4.945   0.410  11.129  1.2255  2.5729 -1.8823
  388MOL0     H52342   4.837   0.746  10.977  0.3107  2.3229  2.2091
  388MOL0     H52343   4.817   0.964  10.859 -0.0714  1.4228 -2.0714
  388MOL0     H52344   5.130   1.061  10.544 -1.4208  1.3020 -4.5729
  388MOL0     H52345   4.973   1.010  10.518 -2.0223 -0.8729  1.0861
  388MOL0     H52346   5.023   1.307  10.568  1.3007  0.2547 -1.8629
  388MOL0     H52347   5.038   1.257  10.416 -0.6487 -0.7475 -0.1428
  388MOL0     H52348   4.793   1.154  10.421 -4.2673 -0.4995  3.7239
  388MOL0     H52349   4.791   1.213  10.588  0.2213  0.5228  0.7147
  388MOL0     H52350   4.857   1.363  10.329 -0.4570  0.6208 -0.2297
  388MOL0     H52351   4.854   1.447  10.479 -0.8725  2.7097 -1.9201
  388MOL0     H52352   4.598   1.389  10.499 -0.3594  3.0848 -0.7400
  388MOL0     H52353   4.623   1.290  10.357 -2.9351 -0.3748  1.6939
  388MOL0     H52354   4.631   1.595  10.385 -3.0238 -0.6364  0.0529
  388MOL0     H52355   4.691   1.508  10.239  1.5931  0.8362  1.9345
  388MOL0     H52356   4.476   1.446  10.179 -2.1497 -1.1368  1.3076
  388MOL0     H52357   4.445   1.613  10.229 -2.7249  0.6241  2.9744
  388MOL0     H52358   4.393   1.368  10.400 -0.0824 -0.1615  2.3426
  388MOL0     H52359   4.378   1.538  10.451 -0.7178  2.0904 -1.6458
  388MOL0     H52360   5.180   0.869  10.639 -0.0670  3.7866  0.7292
  388MOL0     H52361   5.186   0.647  10.759  0.2711 -0.0542  1.8506
  388MOL0     H52362   5.368   0.425  11.126  1.7969 -0.8027  2.1128
  388MOL0     H52363   5.379   0.249  11.293  0.5660 -0.3451 -1.2733
  388MOL0     H52364   4.532   1.276  11.346  0.5737 -2.8897 -1.5167
  388MOL0     H52365   4.598   1.526  11.301  3.5857  2.2434 -0.4556
  388MOL0     H52366   4.677   1.761  11.029  1.3472  0.1322  3.6850
  388MOL0     H52367   4.644   1.966  10.919 -1.4234 -3.2271  2.2596
  388MOL0     H52368   4.650   2.188  10.837 -0.8905  0.9669 -1.7240
  388MOL0     H52369   4.692   2.071  10.718 -1.3965 -0.1454  0.6258
  388MOL0     H52370   4.805   2.350  10.722 -2.9232  2.1108 -1.2769
  388MOL0     H52371   4.639   2.335  10.676 -1.3211 -0.8396  1.8521
  388MOL0     H52372   4.747   2.340  10.475 -1.1179 -1.2231  0.7159
  388MOL0     H52373   4.723   2.169  10.508  2.1896 -0.2642 -2.3958
  388MOL0     H52374   4.990   2.316  10.584  2.7636 -0.3068 -0.5822
  388MOL0     H52375   4.970   2.144  10.554 -0.2516 -0.0707 -1.5182
  388MOL0     H52376   5.044   2.325  10.173 -1.3102  1.8498  0.1194
  388MOL0     H52377   5.066   2.048  10.958 -0.4663  0.1446  1.7138
  388MOL0     H52378   5.201   1.926  11.059 -2.0995 -0.2732  0.6022
  388MOL0     H52379   5.151   1.785  11.161  1.9532  1.8020  0.9117
  388MOL0     H52380   5.188   1.763  10.990  1.7842 -1.3286  1.6204
  389MOL0     O52381   3.565   5.783   2.677 -0.2785  0.2263 -0.4577
  389MOL0     C52382   3.614   5.881   2.622 -0.2896 -0.5886  0.5079
  389MOL0     O52383   3.589   5.939   2.497  0.1585 -0.0771  0.0400
  389MOL0     C52384   3.484   5.875   2.437  0.6519  0.6551  0.6017
  389MOL0     C52385   3.357   5.897   2.497 -0.5603  0.0378 -0.2962
  389MOL0     C52386   3.245   5.839   2.449  0.5707  0.6403 -0.2301
  389MOL0     C52387   3.238   5.769   2.328  0.4243 -0.0087  0.4502
  389MOL0     O52388   3.127   5.716   2.279 -0.1482 -0.1637 -0.7284
  389MOL0     C52389   3.029   5.800   2.227  1.3210  0.4276 -0.0632
  389MOL0     C52390   2.878   5.741   2.251 -0.3067  0.6235  0.4199
  389MOL0     C52391   2.764   5.840   2.206 -0.6313  0.7919  0.3659
  389MOL0     C52392   2.634   5.761   2.232 -0.1855  0.1759  0.1729
  389MOL0     C52393   2.524   5.851   2.179 -0.2285 -0.0556  0.4623
  389MOL0     C52394   2.390   5.779   2.198 -0.0830  0.5393 -0.3608
  389MOL0     C52395   2.279   5.840   2.104  0.6873 -0.1701  0.4877
  389MOL0     C52396   2.140   5.785   2.132  1.2240  0.3447 -0.0915
  389MOL0     N52397   2.030   5.836   2.036 -0.5106 -0.4891  0.5721
  389MOL0     C52398   1.996   5.801   1.906 -0.6988  1.0348  0.0830
  389MOL0     C52399   1.873   5.853   1.882 -0.0887 -0.3728 -0.2965
  389MOL0     C52400   1.785   5.823   1.765  0.2670  0.5094  0.5129
  389MOL0     C52401   1.708   5.692   1.796 -0.1107  0.2117  0.0319
  389MOL0     C52402   1.778   5.553   1.780 -0.7351  0.5118 -0.5294
  389MOL0     C52403   1.687   5.431   1.766  0.7636 -1.0674 -0.4885
  389MOL0     O52404   1.592   5.417   1.877  0.3682  0.6402  0.3465
  389MOL0     C52405   1.517   5.309   1.875  0.4369  1.5550 -0.0660
  389MOL0     C52406   1.519   5.211   1.972  0.2787 -0.6193  0.7495
  389MOL0     C52407   1.421   5.111   1.980 -1.3028  0.0796  0.7841
  389MOL0     C52408   1.335   5.079   1.870  0.0679 -0.5823 -0.4857
  389MOL0     C52409   1.238   4.961   1.866  0.7972 -0.2199 -0.0612
  389MOL0     O52410   1.282   4.859   1.938  0.1618  0.1216 -0.0958
  389MOL0     C52411   1.218   4.742   1.920 -0.8544 -0.6559 -0.4206
  389MOL0     C52412   1.081   4.737   1.973 -0.8825 -0.5244  0.6258
  389MOL0     C52413   0.999   4.625   1.946  0.6852 -1.2237  0.6733
  389MOL0     C52414   1.044   4.510   1.869  0.3893  0.5501  0.3046
  389MOL0     O52415   0.966   4.398   1.849 -0.4022 -0.2716 -0.6308
  389MOL0     C52416   0.832   4.412   1.881 -0.8269  0.4752  0.4566
  389MOL0     C52417   0.748   4.298   1.820  0.2098 -0.3987  0.0756
  389MOL0     C52418   0.779   4.157   1.890  0.0671 -0.0458  0.3475
  389MOL0     C52419   0.653   4.066   1.867 -0.0227  0.4977  0.2249
  389MOL0     C52420   0.659   3.940   1.955  0.1939  0.6728 -0.4950
  389MOL0     C52421   0.783   3.855   1.950  0.3086  0.7083 -0.1892
  389MOL0     C52422   0.836   3.823   1.814  0.3350 -0.3594 -0.1203
  389MOL0     C52423   0.960   3.726   1.828  0.5459 -0.5319 -0.2540
  389MOL0    Cl52424   1.082   3.799   1.929 -0.3896  0.0150  0.2949
  389MOL0     C52425   1.176   4.520   1.811  0.5299 -0.1603  0.8757
  389MOL0     C52426   1.258   4.629   1.840  0.0090 -0.3863  0.3809
  389MOL0     O52427   1.143   4.962   1.793  0.3174  0.6890  0.2628
  389MOL0     C52428   1.336   5.185   1.766 -0.2478 -1.0741  0.2399
  389MOL0     C52429   1.411   5.298   1.776  0.1729 -0.9647 -0.7698
  389MOL0     N52430   1.851   5.929   1.994 -0.4497 -0.8002  0.3655
  389MOL0     N52431   1.935   5.915   2.084 -0.3858 -0.2799 -0.3452
  389MOL0     C52432   3.367   5.758   2.247  0.5412  0.9764 -0.6789
  389MOL0     C52433   3.488   5.805   2.311  0.3891  0.3658 -0.0887
  389MOL0     C52434   3.718   5.937   2.714  0.6473 -0.6514  0.2161
  389MOL0     C52435   3.694   5.957   2.849 -0.6760 -0.4142 -0.6524
  389MOL0     C52436   3.781   6.012   2.933 -0.6947 -0.0937  0.6352
  389MOL0     C52437   3.899   6.066   2.884 -0.7626  0.2080 -0.4561
  389MOL0     O52438   3.985   6.109   2.982  0.1102 -0.8594 -0.2358
  389MOL0     C52439   4.131   6.127   2.965 -0.0055  0.9452  0.1632
  389MOL0     C52440   4.194   6.188   3.074 -0.2810  0.1315 -0.7547
  389MOL0     C52441   4.339   6.210   3.060 -0.2523 -0.4243 -0.5376
  389MOL0     C52442   4.435   6.100   3.108  0.0244 -0.3156  0.2514
  389MOL0     C52443   4.453   5.991   3.022  0.1579  0.2226  0.6751
  389MOL0     C52444   4.433   5.907   2.934 -0.7519  1.0290  0.8978
  389MOL0     C52445   3.926   6.059   2.746  0.5108  0.9490 -0.6744
  389MOL0     C52446   3.841   5.984   2.662 -0.7310  0.5662  0.8028
  389MOL0     C52447   3.884   5.930   2.526  0.4481  0.1904 -0.1750
  389MOL0     H52448   3.357   5.965   2.581  0.3421  1.3248 -1.3105
  389MOL0     H52449   3.149   5.856   2.497 -0.8181  0.8639 -2.9031
  389MOL0     H52450   3.053   5.902   2.260  1.7366  1.2436 -2.6723
  389MOL0     H52451   3.053   5.802   2.120  0.1701 -0.8659 -0.3660
  389MOL0     H52452   2.860   5.706   2.353 -2.3289 -0.7603 -0.3425
  389MOL0     H52453   2.877   5.653   2.186  3.0990 -0.7770  2.0260
  389MOL0     H52454   2.773   5.860   2.099  1.5749 -0.0862  0.3250
  389MOL0     H52455   2.758   5.941   2.248 -3.3183  1.1990 -0.7835
  389MOL0     H52456   2.642   5.660   2.191  1.4892  1.4436 -2.8786
  389MOL0     H52457   2.626   5.751   2.341 -0.4734 -1.5372  0.0228
  389MOL0     H52458   2.539   5.950   2.225  2.4529  0.0324 -0.4670
  389MOL0     H52459   2.540   5.866   2.072 -3.8164  1.8216  0.0237
  389MOL0     H52460   2.394   5.673   2.170 -0.9192  0.1763  0.8215
  389MOL0     H52461   2.359   5.793   2.302  1.3205  0.0800  0.1434
  389MOL0     H52462   2.313   5.807   2.006  0.2297  2.9314 -0.8468
  389MOL0     H52463   2.263   5.948   2.096 -1.4101 -0.3953  0.9534
  389MOL0     H52464   2.128   5.678   2.147 -1.8755  0.4712 -0.9611
  389MOL0     H52465   2.108   5.824   2.229  0.0943 -2.9294  0.9919
  389MOL0     H52466   2.056   5.730   1.849  1.8908 -0.0799  3.7895
  389MOL0     H52467   1.726   5.912   1.740 -0.7525 -0.1412  0.5427
  389MOL0     H52468   1.852   5.789   1.685  0.5066 -1.6626  1.5879
  389MOL0     H52469   1.657   5.693   1.893 -0.8619 -1.1069 -0.3251
  389MOL0     H52470   1.620   5.688   1.731 -0.8164  1.5437  0.8623
  389MOL0     H52471   1.846   5.531   1.863 -1.2369  1.3636  0.1214
  389MOL0     H52472   1.851   5.538   1.699 -1.7237 -0.5514 -1.2542
  389MOL0     H52473   1.754   5.345   1.758  1.1412 -0.7703 -0.5532
  389MOL0     H52474   1.629   5.450   1.675  2.3915  0.5769 -1.2567
  389MOL0     H52475   1.597   5.200   2.047  0.5881 -1.2291  0.3463
  389MOL0     H52476   1.441   5.044   2.064  0.1347  1.5711  1.7001
  389MOL0     H52477   1.042   4.824   2.023  0.7851  1.1198 -0.7741
  389MOL0     H52478   0.898   4.638   1.982  1.2196  0.7762  1.5858
  389MOL0     H52479   0.808   4.420   1.988 -1.6462 -1.1395  0.4122
  389MOL0     H52480   0.798   4.502   1.829  0.8208  2.5408  2.7288
  389MOL0     H52481   0.650   4.335   1.849 -0.0529 -1.4114  0.5158
  389MOL0     H52482   0.782   4.300   1.715  1.2396  0.9962  0.4059
  389MOL0     H52483   0.876   4.115   1.862 -0.5403 -2.4551  1.5474
  389MOL0     H52484   0.786   4.182   1.996 -1.9201  0.0336  0.4974
  389MOL0     H52485   0.645   4.046   1.760 -0.8370  1.9531 -0.0155
  389MOL0     H52486   0.565   4.122   1.901  0.8186  2.6320 -0.9071
  389MOL0     H52487   0.570   3.879   1.937  0.9509 -0.9650  1.0034
  389MOL0     H52488   0.651   3.971   2.059  0.1453 -1.0032  0.0382
  389MOL0     H52489   0.864   3.894   2.012 -0.4634  0.1313  1.2436
  389MOL0     H52490   0.769   3.759   2.000  2.2611 -1.3041 -3.1742
  389MOL0     H52491   0.875   3.914   1.767  0.4605 -0.3336  0.0327
  389MOL0     H52492   0.754   3.773   1.761 -0.7176 -0.7933  1.8384
  389MOL0     H52493   0.930   3.630   1.872  1.5460 -0.5345  0.4671
  389MOL0     H52494   1.001   3.704   1.730 -2.2631 -2.8606 -1.0387
  389MOL0     H52495   1.217   4.436   1.755  0.0372 -1.3745  2.2903
  389MOL0     H52496   1.360   4.628   1.802  0.5177 -2.3972  1.6145
  389MOL0     H52497   1.259   5.196   1.690  2.0103 -0.3340 -2.0508
  389MOL0     H52498   1.396   5.390   1.720  1.3949 -0.0234  0.3576
  389MOL0     H52499   3.362   5.717   2.147  1.9431  1.6735 -1.0634
  389MOL0     H52500   3.584   5.808   2.259  0.3996  1.7092 -0.0339
  389MOL0     H52501   3.610   5.908   2.898  1.3275 -3.8702 -0.3662
  389MOL0     H52502   3.764   6.006   3.040  1.2487 -3.6273  0.9271
  389MOL0     H52503   4.132   6.200   2.884 -2.5319  2.1614  1.1055
  389MOL0     H52504   4.183   6.032   2.946 -0.9140  0.5990 -0.7536
  389MOL0     H52505   4.182   6.132   3.167  1.0130  1.1192  0.0487
  389MOL0     H52506   4.141   6.283   3.070  2.0478  1.4710 -1.5448
  389MOL0     H52507   4.352   6.291   3.132  1.5406 -0.7509 -0.4446
  389MOL0     H52508   4.360   6.254   2.962  2.5564 -0.0678  0.1267
  389MOL0     H52509   4.526   6.160   3.108 -1.2875  1.8153  1.1492
  389MOL0     H52510   4.425   6.061   3.210  2.7181 -2.0351 -0.0442
  389MOL0     H52511   4.400   5.838   2.859  0.6261 -0.5051  1.6459
  389MOL0     H52512   4.022   6.098   2.714  1.2865 -0.6528 -0.3690
  389MOL0     H52513   3.836   5.834   2.505 -0.9990  0.9093 -0.2620
  389MOL0     H52514   3.869   6.000   2.444 -3.2265  0.7358  0.7912
  389MOL0     H52515   3.993   5.925   2.529  0.4352  0.1179  0.1493
  390MOL0     O52516   6.896   4.153   1.146 -0.3323 -0.2961 -0.8762
  390MOL0     C52517   6.875   4.277   1.137 -0.0474 -0.3016  0.8691
  390MOL0     O52518   6.910   4.378   1.232 -0.0474  0.2887 -0.2260
  390MOL0     C52519   6.988   4.325   1.338  0.2809 -0.0395 -0.2704
  390MOL0     C52520   6.928   4.312   1.466  0.1713  0.1191  0.3093
  390MOL0     C52521   7.001   4.251   1.574  0.0935 -0.3879  1.2010
  390MOL0     C52522   7.136   4.209   1.557  1.0937 -0.3008 -0.1981
  390MOL0     O52523   7.182   4.147   1.666 -0.5796 -0.3656  0.2818
  390MOL0     C52524   7.321   4.172   1.695  0.5811  0.2199  0.3945
  390MOL0     C52525   7.335   4.154   1.853 -0.6872  0.9509  0.2087
  390MOL0     C52526   7.477   4.180   1.891  1.2440  0.5616 -0.1633
  390MOL0     C52527   7.497   4.180   2.048 -0.1006 -0.5227  0.1449
  390MOL0     C52528   7.648   4.185   2.077  0.4234  0.2754  0.4551
  390MOL0     C52529   7.657   4.170   2.225 -0.1367 -0.9213 -0.1740
  390MOL0     C52530   7.641   4.022   2.279 -0.6992  0.3949  0.1823
  390MOL0     C52531   7.638   4.016   2.432 -0.5309  0.5265 -0.1636
  390MOL0     N52532   7.525   4.089   2.482 -0.6367  0.3484  0.9782
  390MOL0     C52533   7.399   4.043   2.478 -0.3190  0.4182 -0.0597
  390MOL0     C52534   7.336   4.154   2.508  0.0177  1.0546 -0.0780
  390MOL0     C52535   7.187   4.152   2.515 -0.1814 -0.6258 -0.0443
  390MOL0     C52536   7.115   4.125   2.382  0.0056 -0.5394 -0.1463
  390MOL0     C52537   7.171   4.214   2.271 -0.2385 -0.7198  1.0122
  390MOL0     C52538   7.059   4.286   2.193  0.1925  0.0931 -0.4962
  390MOL0     O52539   6.955   4.195   2.165 -0.0354  0.2527  0.6525
  390MOL0     C52540   6.845   4.240   2.107  0.3719  0.7230 -0.2651
  390MOL0     C52541   6.791   4.152   2.009  0.9659  0.5154  1.0396
  390MOL0     C52542   6.663   4.180   1.950 -0.6866  0.3336  0.1397
  390MOL0     C52543   6.590   4.293   2.012 -0.4114  0.8668 -0.3421
  390MOL0     C52544   6.450   4.316   1.972  0.8771 -0.1814  0.6253
  390MOL0     O52545   6.411   4.237   1.862  0.8286 -0.4792  0.0816
  390MOL0     C52546   6.283   4.229   1.817 -0.8511  0.1377  0.9056
  390MOL0     C52547   6.177   4.318   1.840  0.2363  0.3244 -0.1718
  390MOL0     C52548   6.054   4.307   1.792  0.3849  0.9015  0.9433
  390MOL0     C52549   6.023   4.190   1.713 -0.1204  0.4622 -0.6095
  390MOL0     O52550   5.907   4.159   1.655 -0.7385  1.2010  0.4220
  390MOL0     C52551   5.788   4.207   1.710 -0.1203 -0.5417 -0.0913
  390MOL0     C52552   5.676   4.123   1.638 -0.1426  1.1766 -1.5203
  390MOL0     C52553   5.661   4.120   1.484 -0.9190 -0.0291 -0.5362
  390MOL0     C52554   5.517   4.086   1.441 -0.2324  1.0840  0.8158
  390MOL0     C52555   5.487   3.940   1.470  0.6332  0.3290  0.2716
  390MOL0     C52556   5.333   3.917   1.486 -1.0530 -0.2875  0.1839
  390MOL0     C52557   5.300   3.779   1.552  0.3851  0.8041 -0.1780
  390MOL0     C52558   5.197   3.792   1.665  1.0326  0.5913 -0.3522
  390MOL0    Cl52559   5.055   3.886   1.613  0.0072 -0.3404  0.0364
  390MOL0     C52560   6.120   4.098   1.702 -0.6759 -0.1714  0.0708
  390MOL0     C52561   6.254   4.109   1.748 -0.4809  0.2169 -0.0703
  390MOL0     O52562   6.382   4.416   2.018  0.8359 -0.1041  0.4639
  390MOL0     C52563   6.639   4.374   2.108 -0.1832 -0.7022  0.3231
  390MOL0     C52564   6.770   4.345   2.152 -0.9178  0.0824 -0.4152
  390MOL0     N52565   7.414   4.264   2.540 -0.8904  1.3744 -0.8929
  390MOL0     N52566   7.538   4.214   2.532  1.3749  0.0752  0.0270
  390MOL0     C52567   7.190   4.222   1.427 -0.0233 -0.7861 -0.4702
  390MOL0     C52568   7.123   4.292   1.324  0.5117  0.3350  1.1474
  390MOL0     C52569   6.783   4.332   1.017  0.0333 -0.2261 -0.8302
  390MOL0     C52570   6.773   4.469   0.989 -0.3813 -0.1505 -0.3998
  390MOL0     C52571   6.702   4.527   0.885 -1.4180  0.3911  0.3854
  390MOL0     C52572   6.609   4.443   0.816 -0.0365  1.1110 -0.4527
  390MOL0     O52573   6.533   4.503   0.717  0.5929  0.4763  0.7292
  390MOL0     C52574   6.425   4.430   0.659  0.0388 -0.8634  0.4174
  390MOL0     C52575   6.333   4.526   0.580  0.6005  0.9175 -0.2464
  390MOL0     C52576   6.229   4.434   0.498 -0.2814 -0.6961  0.8030
  390MOL0     C52577   6.163   4.524   0.389  1.1443 -0.7869 -0.3520
  390MOL0     C52578   6.077   4.430   0.313 -0.6866  0.1781  0.1831
  390MOL0     C52579   6.018   4.344   0.260  0.2191 -0.4086 -0.4233
  390MOL0     C52580   6.625   4.309   0.835  0.3490  0.5290  0.5515
  390MOL0     C52581   6.703   4.251   0.935 -0.6552 -0.1047  0.2416
  390MOL0     C52582   6.692   4.103   0.951  1.0832  0.5043  0.1540
  390MOL0     H52583   6.822   4.336   1.469 -0.5170 -2.2036 -1.7705
  390MOL0     H52584   6.942   4.246   1.665 -3.5486 -0.1479 -0.9729
  390MOL0     H52585   7.385   4.099   1.645 -1.5479 -0.1333 -2.0197
  390MOL0     H52586   7.360   4.269   1.662  1.4888 -0.5372 -0.8181
  390MOL0     H52587   7.305   4.055   1.890  3.4811 -0.6734 -0.3277
  390MOL0     H52588   7.278   4.230   1.909  0.8236  1.2986  1.3443
  390MOL0     H52589   7.510   4.274   1.845 -0.5907  2.2713  1.7680
  390MOL0     H52590   7.540   4.100   1.852  1.0364 -0.1354  0.9070
  390MOL0     H52591   7.454   4.270   2.094 -0.2484 -0.4219 -0.1866
  390MOL0     H52592   7.434   4.099   2.085 -2.6932 -0.7094 -4.0596
  390MOL0     H52593   7.696   4.099   2.029  5.1323  0.7082  3.6656
  390MOL0     H52594   7.693   4.280   2.045 -0.2818  2.2435  4.5991
  390MOL0     H52595   7.758   4.204   2.252 -1.2448  1.7481  0.9666
  390MOL0     H52596   7.594   4.240   2.280  3.1755  1.0072  1.4757
  390MOL0     H52597   7.730   3.969   2.243 -0.6908  0.6025 -0.1137
  390MOL0     H52598   7.548   3.974   2.246  0.8746 -0.0758 -4.2193
  390MOL0     H52599   7.622   3.917   2.476 -3.5833  0.6463 -0.7782
  390MOL0     H52600   7.734   4.059   2.462  1.4820 -2.1134 -2.3659
  390MOL0     H52601   7.364   3.945   2.447 -0.8605  0.6669 -0.2444
  390MOL0     H52602   7.160   4.081   2.593 -0.4784  3.9894  4.6551
  390MOL0     H52603   7.146   4.243   2.561  0.6818 -0.4021  0.3239
  390MOL0     H52604   7.122   4.019   2.358 -0.1293  0.0043 -3.0062
  390MOL0     H52605   7.010   4.151   2.398  0.3514  2.3832 -1.7898
  390MOL0     H52606   7.235   4.143   2.219  3.4814 -0.1033  4.3221
  390MOL0     H52607   7.233   4.293   2.315 -1.5714 -0.1168  1.9097
  390MOL0     H52608   7.091   4.326   2.096  1.2029 -0.6742 -0.5020
  390MOL0     H52609   7.027   4.365   2.261  1.4751  0.1970  0.0117
  390MOL0     H52610   6.853   4.073   1.968 -0.7067 -2.2472  3.5337
  390MOL0     H52611   6.628   4.130   1.861  0.0261 -0.2452  0.1797
  390MOL0     H52612   6.202   4.411   1.891  3.2462 -0.0071 -0.8761
  390MOL0     H52613   5.979   4.382   1.814 -0.2573  2.1070 -4.0621
  390MOL0     H52614   5.797   4.193   1.818  0.4618 -1.4909 -0.2468
  390MOL0     H52615   5.767   4.313   1.698  1.4701 -0.2015 -0.1124
  390MOL0     H52616   5.699   4.022   1.673 -1.8693  1.2132 -0.1632
  390MOL0     H52617   5.582   4.153   1.684  1.1354  2.7417  0.2453
  390MOL0     H52618   5.682   4.221   1.447 -0.2570  0.7548  1.8026
  390MOL0     H52619   5.733   4.053   1.436 -0.1788  1.9307 -2.3679
  390MOL0     H52620   5.518   4.100   1.332 -1.2856 -2.7774  0.1756
  390MOL0     H52621   5.445   4.162   1.472  3.6583  5.2628  0.7395
  390MOL0     H52622   5.539   3.903   1.559  0.3331 -0.6157  0.0649
  390MOL0     H52623   5.513   3.873   1.388  0.0749 -0.5620  0.7966
  390MOL0     H52624   5.297   3.995   1.554  1.2478 -1.1327  2.5259
  390MOL0     H52625   5.278   3.932   1.393 -2.3701 -0.9323  0.8284
  390MOL0     H52626   5.388   3.725   1.587 -0.9659  0.5665  3.3089
  390MOL0     H52627   5.264   3.709   1.476  2.8970 -1.7620  0.8383
  390MOL0     H52628   5.167   3.691   1.691 -1.7010  0.3347 -3.7593
  390MOL0     H52629   5.227   3.841   1.758 -0.7100 -1.4420  1.3759
  390MOL0     H52630   6.106   4.006   1.647 -3.7135 -0.8099  1.7127
  390MOL0     H52631   6.324   4.033   1.717  0.4668  1.4658 -1.1197
  390MOL0     H52632   6.581   4.455   2.152  1.2486  0.1789  0.6687
  390MOL0     H52633   6.817   4.410   2.225 -2.3400  1.0670 -0.3489
  390MOL0     H52634   7.294   4.194   1.415  1.4145  3.0562  1.1746
  390MOL0     H52635   7.176   4.295   1.229  0.7971  1.5144  1.3360
  390MOL0     H52636   6.823   4.546   1.048 -1.3665  1.4620 -1.5960
  390MOL0     H52637   6.701   4.635   0.879  0.2951  0.3796 -0.9784
  390MOL0     H52638   6.360   4.388   0.736 -2.4003 -0.4844 -1.2830
  390MOL0     H52639   6.470   4.358   0.591 -1.3849 -1.0272 -0.3993
  390MOL0     H52640   6.397   4.576   0.507  0.2789 -0.6546 -1.6725
  390MOL0     H52641   6.290   4.595   0.652 -1.2380  1.5662 -1.8867
  390MOL0     H52642   6.153   4.384   0.558 -0.1523 -1.5022  0.3113
  390MOL0     H52643   6.281   4.356   0.442  0.4485  0.7934 -0.7175
  390MOL0     H52644   6.101   4.607   0.425 -2.7703 -3.0466 -1.3026
  390MOL0     H52645   6.230   4.559   0.310 -0.4400  1.3637 -0.8346
  390MOL0     H52646   5.943   4.280   0.218 -0.7448 -0.7429  1.6965
  390MOL0     H52647   6.568   4.243   0.770  1.8357 -2.4325  2.0424
  390MOL0     H52648   6.791   4.055   0.957  1.3575  1.0504  0.0707
  390MOL0     H52649   6.645   4.104   1.050  0.7984  1.3491  0.0153
  390MOL0     H52650   6.629   4.058   0.875  0.4380  0.5333  0.6645
  391MOL0     O52651  10.573   8.335   3.000  0.5363  0.5498 -1.0198
  391MOL0     C52652  10.451   8.340   3.023 -0.2070 -0.3613  0.8561
  391MOL0     O52653  10.397   8.373   3.147  0.1621 -0.0697  0.9621
  391MOL0     C52654  10.480   8.420   3.248  0.4565 -0.4333  0.3760
  391MOL0     C52655  10.501   8.347   3.363 -1.1728 -0.0252  0.0850
  391MOL0     C52656  10.605   8.371   3.460  0.1853  0.1373  1.2204
  391MOL0     C52657  10.688   8.474   3.435 -0.0390 -0.5205  1.1000
  391MOL0     O52658  10.774   8.513   3.531  0.0878 -0.4029  0.2358
  391MOL0     C52659  10.864   8.621   3.530  0.1548 -0.0553  0.1567
  391MOL0     C52660  10.795   8.742   3.593 -1.0741  0.1623  0.1232
  391MOL0     C52661  10.763   8.710   3.735  0.6285  0.1344 -1.3974
  391MOL0     C52662  10.664   8.821   3.779  0.6743 -0.4552  1.1149
  391MOL0     C52663  10.647   8.831   3.923 -0.8181  0.1215 -0.1274
  391MOL0     C52664  10.515   8.905   3.954  0.1200  0.8451  0.6578
  391MOL0     C52665  10.524   9.057   3.922 -0.0059  0.0172 -0.0903
  391MOL0     C52666  10.618   9.131   4.005  0.2470  0.7022  0.2571
  391MOL0     N52667  10.598   9.112   4.150 -0.5122  0.3647  0.4392
  391MOL0     C52668  10.502   9.177   4.224  0.5410 -0.2592  0.6659
  391MOL0     C52669  10.553   9.165   4.352  0.2849 -0.6532 -0.5991
  391MOL0     C52670  10.482   9.204   4.482  0.1172  0.4220 -0.5337
  391MOL0     C52671  10.352   9.127   4.514  0.0801  0.1721  0.3496
  391MOL0     C52672  10.228   9.168   4.439 -0.5028 -0.2557  0.3148
  391MOL0     C52673  10.173   9.306   4.475  0.4332  0.4457 -0.6012
  391MOL0     O52674  10.115   9.320   4.602 -0.1914 -0.6186 -0.1453
  391MOL0     C52675  10.061   9.447   4.625  0.0698  0.9535  0.1004
  391MOL0     C52676  10.112   9.530   4.715  0.4893 -0.9191  0.7729
  391MOL0     C52677  10.040   9.647   4.751  1.4000  0.9619  0.5899
  391MOL0     C52678   9.931   9.682   4.673  0.4857 -1.0906  0.6219
  391MOL0     C52679   9.863   9.810   4.687 -0.2781 -0.9174  0.1026
  391MOL0     O52680   9.875   9.889   4.794 -0.2367  0.6241 -0.5485
  391MOL0     C52681   9.849  10.028   4.785  0.4850 -0.4507  0.2831
  391MOL0     C52682   9.726  10.087   4.803  0.1409  0.4164  0.4410
  391MOL0     C52683   9.717  10.234   4.805  0.2078  0.3508 -0.7546
  391MOL0     C52684   9.829  10.317   4.805  0.0128 -0.2561  1.0258
  391MOL0     O52685   9.822  10.454   4.810  0.4607  0.4052  0.7312
  391MOL0     C52686   9.944  10.536   4.793  0.9443 -0.7968 -0.3145
  391MOL0     C52687  10.033  10.548   4.920 -0.7751  0.1613  0.4903
  391MOL0     C52688   9.964  10.623   5.035  1.2018  0.1466  0.1204
  391MOL0     C52689   9.979  10.768   5.011  0.3031 -0.1611 -0.5333
  391MOL0     C52690   9.906  10.850   5.113 -0.0045 -0.5965 -0.3630
  391MOL0     C52691   9.925  11.004   5.089  0.0414 -0.8066  0.2329
  391MOL0     C52692  10.071  11.063   5.135  0.3091  0.9300 -0.2603
  391MOL0     C52693  10.066  11.213   5.147 -1.3535 -0.3120  0.5791
  391MOL0    Cl52694  10.229  11.278   5.211 -0.0526  0.0668  0.0580
  391MOL0     C52695   9.951  10.252   4.784  0.3167 -0.4658 -1.1657
  391MOL0     C52696   9.959  10.110   4.780  1.0309  1.5582  0.2020
  391MOL0     O52697   9.807   9.844   4.582 -0.0363  0.3385  0.1891
  391MOL0     C52698   9.885   9.592   4.586 -0.1458  0.8615  0.1263
  391MOL0     C52699   9.944   9.470   4.558  0.7615  0.1668 -0.8601
  391MOL0     N52700  10.668   9.101   4.348 -0.4589  0.0904  0.4260
  391MOL0     N52701  10.700   9.063   4.231  0.7477  0.2716  0.3952
  391MOL0     C52702  10.670   8.554   3.317  0.2307 -0.0215  0.1546
  391MOL0     C52703  10.564   8.525   3.228 -0.5462 -0.4084 -1.7712
  391MOL0     C52704  10.368   8.306   2.913  0.4496 -1.0436  0.5356
  391MOL0     C52705  10.400   8.387   2.800 -0.3287 -0.1072  0.1732
  391MOL0     C52706  10.305   8.378   2.689 -0.6685  0.4470  0.2328
  391MOL0     C52707  10.196   8.290   2.685  0.7560  0.4128  0.0255
  391MOL0     O52708  10.111   8.270   2.576 -0.1074  0.1692 -0.3535
  391MOL0     C52709  10.119   8.332   2.452  0.9909  0.0860  0.4886
  391MOL0     C52710  10.072   8.480   2.452  0.3340 -0.9289 -0.1710
  391MOL0     C52711   9.927   8.497   2.503  0.1745  0.6146  0.4994
  391MOL0     C52712   9.893   8.639   2.538  0.0231  0.3343  0.6628
  391MOL0     C52713   9.882   8.722   2.424 -0.3844 -0.6428  0.5195
  391MOL0     C52714   9.859   8.797   2.325 -0.4861  0.1295 -0.6259
  391MOL0     C52715  10.169   8.218   2.809  0.5214  0.5165 -0.0481
  391MOL0     C52716  10.254   8.221   2.918 -0.1605 -0.6548 -1.0885
  391MOL0     C52717  10.234   8.145   3.050 -0.5915  0.3208  0.5142
  391MOL0     H52718  10.437   8.261   3.381 -0.1802 -0.3561  2.3837
  391MOL0     H52719  10.630   8.312   3.548  0.3408  0.5012  1.4227
  391MOL0     H52720  10.955   8.599   3.585  0.8133  0.7532 -0.5838
  391MOL0     H52721  10.896   8.634   3.426 -4.0068 -2.4582 -1.7068
  391MOL0     H52722  10.697   8.765   3.549 -1.4659 -0.8975  0.4035
  391MOL0     H52723  10.859   8.829   3.577  0.4126 -0.8556  0.4115
  391MOL0     H52724  10.855   8.716   3.793  1.3011 -0.6522 -2.3704
  391MOL0     H52725  10.726   8.608   3.746  2.4438 -0.8778 -3.8022
  391MOL0     H52726  10.703   8.918   3.747 -0.9754  0.1026  0.6860
  391MOL0     H52727  10.569   8.823   3.725  1.0509  1.6202  0.4388
  391MOL0     H52728  10.642   8.729   3.961  2.4892 -1.1868 -2.6441
  391MOL0     H52729  10.736   8.878   3.968 -0.5092  0.4032 -1.0054
  391MOL0     H52730  10.432   8.862   3.898  1.9566 -0.2310 -1.3906
  391MOL0     H52731  10.487   8.889   4.059  0.6810  1.5075  0.9186
  391MOL0     H52732  10.423   9.099   3.932  0.1116  0.3090 -0.1287
  391MOL0     H52733  10.545   9.074   3.816 -0.1295  1.1859  0.0604
  391MOL0     H52734  10.720   9.118   3.970 -0.1419  1.8485 -1.4041
  391MOL0     H52735  10.611   9.238   3.987  2.7565  0.6082 -1.8113
  391MOL0     H52736  10.412   9.229   4.191  1.7940  0.7447 -1.3354
  391MOL0     H52737  10.559   9.173   4.553 -0.8734 -0.4223  0.2012
  391MOL0     H52738  10.459   9.311   4.493  2.2755  0.6723  3.5228
  391MOL0     H52739  10.365   9.019   4.503  4.2206  0.1090  3.3369
  391MOL0     H52740  10.310   9.144   4.614 -4.9595 -0.2166 -1.4015
  391MOL0     H52741  10.147   9.101   4.467  0.4553 -0.9054  1.6748
  391MOL0     H52742  10.255   9.168   4.333  2.2994 -1.0707  0.9396
  391MOL0     H52743  10.102   9.333   4.396 -1.5497 -3.7288 -0.5386
  391MOL0     H52744  10.255   9.377   4.473  2.7503 -1.9074  1.9090
  391MOL0     H52745  10.205   9.498   4.761  0.8527 -0.4071  0.3997
  391MOL0     H52746  10.070   9.714   4.831  1.3928  1.3118  0.3016
  391MOL0     H52747   9.639  10.023   4.803  1.1360 -1.0146 -1.0894
  391MOL0     H52748   9.617  10.276   4.814 -0.1223 -0.6605  0.9901
  391MOL0     H52749  10.006  10.504   4.709 -1.7812  1.3649 -3.3932
  391MOL0     H52750   9.903  10.634   4.768 -1.3758 -1.6228  0.0522
  391MOL0     H52751  10.076  10.455   4.958  4.2679  1.3470 -1.5238
  391MOL0     H52752  10.121  10.609   4.896 -1.7843  3.0470  3.3700
  391MOL0     H52753   9.860  10.590   5.046 -0.0063  3.3938 -0.4535
  391MOL0     H52754  10.011  10.604   5.132 -0.5456 -1.3984  0.7297
  391MOL0     H52755   9.942  10.799   4.913 -0.5775  1.0319  0.1549
  391MOL0     H52756  10.084  10.797   5.020 -0.0791  2.0217 -2.1950
  391MOL0     H52757   9.940  10.819   5.212  0.9929 -2.1393 -1.1635
  391MOL0     H52758   9.798  10.829   5.105 -0.3018  0.7095  0.0178
  391MOL0     H52759   9.909  11.028   4.984  0.0909 -0.8387  0.2176
  391MOL0     H52760   9.845  11.061   5.137 -0.0188  0.0685 -0.8778
  391MOL0     H52761  10.140  11.022   5.061  2.9227  3.8425  0.3397
  391MOL0     H52762  10.093  11.016   5.231 -2.4854  2.3184  1.1971
  391MOL0     H52763  10.047  11.255   5.048  0.4281 -2.7354 -0.9047
  391MOL0     H52764   9.983  11.240   5.213 -1.7872  0.5630 -0.3062
  391MOL0     H52765  10.040  10.309   4.763 -0.1072 -0.0136 -1.8000
  391MOL0     H52766  10.058  10.068   4.768  2.3183  3.6547  2.5377
  391MOL0     H52767   9.808   9.621   4.516 -1.8321  1.9948  2.3131
  391MOL0     H52768   9.917   9.397   4.482  0.7304 -0.4491 -0.2631
  391MOL0     H52769  10.715   8.650   3.293  2.7545 -1.4699 -1.3816
  391MOL0     H52770  10.552   8.588   3.140 -3.2127  1.1298 -0.4420
  391MOL0     H52771  10.477   8.463   2.792  0.6798 -1.2789 -4.1515
  391MOL0     H52772  10.321   8.438   2.600 -1.8925  0.3705 -0.0679
  391MOL0     H52773  10.063   8.273   2.378 -1.1742  1.7293  0.7160
  391MOL0     H52774  10.224   8.322   2.423  1.4386  3.5080  0.5107
  391MOL0     H52775  10.075   8.527   2.353 -3.0543  2.8365  1.2303
  391MOL0     H52776  10.145   8.521   2.521  0.3483 -0.4487 -0.4649
  391MOL0     H52777   9.928   8.426   2.586  0.1564 -1.2322 -1.0195
  391MOL0     H52778   9.856   8.469   2.424 -0.4061  0.4917  1.0531
  391MOL0     H52779   9.805   8.645   2.603 -0.9294  2.0871 -0.7186
  391MOL0     H52780   9.978   8.690   2.586 -0.3701  3.7476 -1.9104
  391MOL0     H52781   9.817   8.852   2.242  0.5687  2.4448  0.3003
  391MOL0     H52782  10.081   8.155   2.817  1.5896 -0.8739  6.2126
  391MOL0     H52783  10.330   8.094   3.068 -0.6682  0.0655  0.2179
  391MOL0     H52784  10.190   8.202   3.132 -0.5864 -0.1907  0.8797
  391MOL0     H52785  10.166   8.060   3.046 -1.6018  1.0837  1.1161
  392MOL0     O52786   0.125   8.262  10.987 -0.2050  0.1818  0.3192
  392MOL0     C52787   0.170   8.161  10.931 -0.2718 -0.1386  0.0412
  392MOL0     O52788   0.268   8.151  10.842 -0.8281  0.3037  0.1286
  392MOL0     C52789   0.302   8.270  10.784  0.5299  0.7283  0.2229
  392MOL0     C52790   0.421   8.327  10.818 -0.0837  0.3917 -0.0059
  392MOL0     C52791   0.455   8.449  10.753  0.1920 -0.4141 -0.4207
  392MOL0     C52792   0.366   8.502  10.654 -0.4413  0.8166 -0.6023
  392MOL0     O52793   0.414   8.622  10.600  0.2921  0.0257 -1.0486
  392MOL0     C52794   0.315   8.707  10.543 -0.2934  0.3861  0.3900
  392MOL0     C52795   0.388   8.839  10.511 -0.4089  0.3194 -0.0948
  392MOL0     C52796   0.445   8.920  10.634 -0.0245 -0.1476 -0.2494
  392MOL0     C52797   0.594   8.884  10.671  0.5894  0.4868  0.0714
  392MOL0     C52798   0.623   8.891  10.824 -0.5469  0.0631  0.3555
  392MOL0     C52799   0.773   8.844  10.833 -0.0710 -0.1310 -1.1730
  392MOL0     C52800   0.806   8.827  10.984  0.2643 -0.7348  1.0084
  392MOL0     C52801   0.923   8.738  10.998 -0.3693 -0.3228  0.0617
  392MOL0     N52802   0.895   8.595  10.970  0.6553 -0.5774 -0.2764
  392MOL0     C52803   0.974   8.516  10.894  0.1754  0.1906 -0.4732
  392MOL0     C52804   0.933   8.387  10.914 -1.1484 -0.1893  0.5372
  392MOL0     C52805   0.981   8.258  10.863 -0.7494 -0.6552  0.5019
  392MOL0     C52806   0.918   8.139  10.928 -0.7684 -1.0771 -0.3118
  392MOL0     C52807   0.970   8.010  10.866 -0.8578  0.7873  0.3231
  392MOL0     C52808   0.918   7.883  10.928 -0.3178  0.2519  0.0596
  392MOL0     O52809   0.954   7.864  11.068 -0.2300  1.1809  0.2372
  392MOL0     C52810   0.887   7.757  11.132  0.4011  0.0592  0.2515
  392MOL0     C52811   0.819   7.654  11.066 -0.5237 -0.7004 -0.2306
  392MOL0     C52812   0.767   7.552  11.139 -0.2389 -0.0277  0.5635
  392MOL0     C52813   0.790   7.545  11.276 -0.1596  0.7754  0.3664
  392MOL0     C52814   0.726   7.434  11.354 -0.9258  0.1660 -0.5507
  392MOL0     O52815   0.750   7.430  11.496  0.6091  0.0235  0.9756
  392MOL0     C52816   0.670   7.351  11.574  0.4438 -0.0638 -0.0111
  392MOL0     C52817   0.588   7.407  11.663 -0.2349 -0.7540  0.2406
  392MOL0     C52818   0.503   7.333  11.754  0.1525  0.3106  0.8808
  392MOL0     C52819   0.519   7.193  11.760  0.1030 -0.3821  0.3615
  392MOL0     O52820   0.464   7.109  11.850  0.5054 -0.2487 -0.5435
  392MOL0     C52821   0.345   7.032  11.811 -0.1653  0.1332 -0.1914
  392MOL0     C52822   0.305   6.934  11.921 -0.0244 -0.8839  0.5251
  392MOL0     C52823   0.204   6.819  11.873 -0.0160 -0.6201  0.4773
  392MOL0     C52824   0.133   6.756  11.997 -0.2907 -0.1604  0.2911
  392MOL0     C52825   0.209   6.648  12.077 -0.0471  0.5986  0.1648
  392MOL0     C52826   0.120   6.610  12.198  0.3786  0.2748 -0.5447
  392MOL0     C52827   0.185   6.515  12.296  0.0753  0.0837  0.7068
  392MOL0     C52828   0.131   6.508  12.446 -0.0672  0.0655  0.1460
  392MOL0    Cl52829  -0.048   6.510  12.422  0.2133  0.0476  0.4823
  392MOL0     C52830   0.595   7.140  11.653  0.5589  0.0517 -0.6550
  392MOL0     C52831   0.673   7.211  11.567  0.9820 -0.4015 -0.7267
  392MOL0     O52832   0.654   7.356  11.300  0.0764  0.1133  0.0858
  392MOL0     C52833   0.857   7.645  11.341 -0.4343 -0.7592 -0.1148
  392MOL0     C52834   0.905   7.749  11.271  0.2910  0.6237  0.4550
  392MOL0     N52835   0.844   8.389  11.021  0.0965  0.2975 -0.4618
  392MOL0     N52836   0.829   8.513  11.058 -0.4678  0.7804 -0.2285
  392MOL0     C52837   0.250   8.435  10.623  0.1548  0.4515 -0.1537
  392MOL0     C52838   0.211   8.315  10.694  0.5545 -0.5792  0.8374
  392MOL0     C52839   0.102   8.036  10.964 -0.0622  0.0776  0.2899
  392MOL0     C52840   0.184   7.927  11.009  0.4759 -1.1146  0.7049
  392MOL0     C52841   0.135   7.803  11.043 -0.5007  0.7589 -1.1758
  392MOL0     C52842  -0.003   7.783  11.030 -0.1466  0.0199 -0.7885
  392MOL0     O52843  -0.078   7.680  11.082 -0.2039  0.3925  0.4931
  392MOL0     C52844  -0.020   7.572  11.153  1.0197  0.3338 -0.3391
  392MOL0     C52845  -0.121   7.494  11.240 -0.9082 -1.1770 -0.6647
  392MOL0     C52846  -0.179   7.584  11.348  0.0307 -0.3820 -0.0337
  392MOL0     C52847  -0.219   7.500  11.471 -0.8150 -0.9013  0.4390
  392MOL0     C52848  -0.281   7.582  11.582 -0.8784  0.0370  0.4681
  392MOL0     C52849  -0.349   7.654  11.656  0.3485  0.0870  0.9599
  392MOL0     C52850  -0.084   7.887  10.989  0.3028  0.1483  0.4650
  392MOL0     C52851  -0.032   8.013  10.957  0.7148  0.2888 -0.4930
  392MOL0     C52852  -0.132   8.120  10.909 -0.3348 -0.3993 -0.5181
  392MOL0     H52853   0.486   8.279  10.890  0.9956 -2.5146 -2.6622
  392MOL0     H52854   0.551   8.493  10.776 -0.4647  0.1512  1.4355
  392MOL0     H52855   0.273   8.676  10.447 -1.3506 -0.6209  1.1565
  392MOL0     H52856   0.234   8.733  10.613  1.4644  2.3832  1.8400
  392MOL0     H52857   0.328   8.900  10.443 -0.7550 -2.9162 -2.9644
  392MOL0     H52858   0.472   8.824  10.443 -0.5841  2.0952 -0.7762
  392MOL0     H52859   0.386   8.913  10.726  1.5525  1.1982  0.9228
  392MOL0     H52860   0.438   9.026  10.609  0.0873  0.6188  2.6142
  392MOL0     H52861   0.610   8.785  10.626 -3.0946 -0.5045  0.6666
  392MOL0     H52862   0.667   8.952  10.625  2.3061 -0.9633  0.5282
  392MOL0     H52863   0.604   8.992  10.860 -0.2487  0.1733  0.2060
  392MOL0     H52864   0.561   8.817  10.876  0.6183 -2.1896 -1.2518
  392MOL0     H52865   0.781   8.748  10.782  0.9175  1.2997 -3.9020
  392MOL0     H52866   0.836   8.918  10.782 -1.5856  0.1851 -2.6666
  392MOL0     H52867   0.726   8.784  11.045 -0.0221  0.8038  1.7676
  392MOL0     H52868   0.826   8.927  11.022  1.0036  0.0416 -1.2967
  392MOL0     H52869   1.001   8.783  10.937  0.5293  0.2514  1.5680
  392MOL0     H52870   0.955   8.732  11.103  4.6845  1.4099 -1.0560
  392MOL0     H52871   1.061   8.543  10.834 -0.7604  1.6719 -1.2379
  392MOL0     H52872   0.960   8.249  10.756  0.2547  0.3458  0.2091
  392MOL0     H52873   1.089   8.242  10.863 -0.7529 -0.7499 -0.5336
  392MOL0     H52874   0.946   8.142  11.034  1.3379  1.9922 -0.8291
  392MOL0     H52875   0.809   8.151  10.924 -0.4431  2.8947 -3.5574
  392MOL0     H52876   1.079   7.998  10.876 -1.0973 -1.4290  0.7004
  392MOL0     H52877   0.945   8.004  10.759  1.4486  2.2422 -0.3817
  392MOL0     H52878   0.949   7.795  10.871 -0.8876 -2.0350  3.0465
  392MOL0     H52879   0.809   7.889  10.915 -0.1340  1.1075 -1.2946
  392MOL0     H52880   0.807   7.656  10.958 -0.3068  1.5202 -0.2565
  392MOL0     H52881   0.713   7.474  11.087 -0.7197  1.2067 -0.8785
  392MOL0     H52882   0.591   7.515  11.667  2.5289 -0.7334 -0.2543
  392MOL0     H52883   0.447   7.382  11.833 -3.4021 -1.8570 -0.0993
  392MOL0     H52884   0.256   7.092  11.792  1.7207  2.8045 -1.2818
  392MOL0     H52885   0.365   6.992  11.711  2.5704 -1.3131  0.8347
  392MOL0     H52886   0.398   6.887  11.955  1.6595  1.7041 -0.1467
  392MOL0     H52887   0.265   6.994  12.003  0.8816 -1.2638  1.2705
  392MOL0     H52888   0.133   6.869  11.807 -0.4935 -2.8968 -0.8513
  392MOL0     H52889   0.253   6.742  11.813  1.3111  0.1286  0.5507
  392MOL0     H52890   0.041   6.703  11.970 -0.6689  0.6233  0.0043
  392MOL0     H52891   0.105   6.828  12.075  0.3212 -0.1311  0.4855
  392MOL0     H52892   0.309   6.686  12.102  0.5333  0.7237 -2.0809
  392MOL0     H52893   0.238   6.561  12.016  2.6554  1.3257  0.2663
  392MOL0     H52894   0.101   6.701  12.254 -0.2607 -1.4115  2.1509
  392MOL0     H52895   0.023   6.566  12.171  0.4030 -0.7282  0.8702
  392MOL0     H52896   0.292   6.537  12.292  0.0226  0.1770 -0.4154
  392MOL0     H52897   0.175   6.418  12.248  1.5879  0.4185 -0.3540
  392MOL0     H52898   0.164   6.411  12.485 -1.2253 -0.3222  0.1923
  392MOL0     H52899   0.140   6.588  12.519 -2.4645 -0.4778  1.1310
  392MOL0     H52900   0.611   7.033  11.659 -1.8219 -0.2954  2.4690
  392MOL0     H52901   0.742   7.163  11.498 -0.0241  0.2159 -2.2050
  392MOL0     H52902   0.889   7.636  11.444 -1.4289  1.1317  0.4065
  392MOL0     H52903   0.961   7.823  11.327  0.5279  1.3868 -0.7739
  392MOL0     H52904   0.169   8.478  10.565 -0.4327  1.8583  1.6098
  392MOL0     H52905   0.124   8.258  10.665 -1.4034  3.2459 -1.7399
  392MOL0     H52906   0.292   7.944  11.006  0.5168 -1.5401 -1.7073
  392MOL0     H52907   0.196   7.728  11.092 -0.9923 -0.9880 -3.0883
  392MOL0     H52908   0.059   7.603  11.222  0.0945  1.8684  0.0938
  392MOL0     H52909   0.032   7.507  11.082  0.5643 -2.0099  1.3599
  392MOL0     H52910  -0.058   7.413  11.279 -0.7457 -0.5679  0.3471
  392MOL0     H52911  -0.205   7.450  11.185 -0.6368 -2.1083 -0.3610
  392MOL0     H52912  -0.269   7.620  11.298  1.2670 -0.9345 -2.8103
  392MOL0     H52913  -0.122   7.676  11.363  0.5848 -0.4880 -1.3398
  392MOL0     H52914  -0.293   7.431  11.428  0.2846 -1.7866 -0.0979
  392MOL0     H52915  -0.130   7.451  11.513  1.9738  2.6362 -0.7917
  392MOL0     H52916  -0.391   7.694  11.746 -4.8107  0.3669 -1.2579
  392MOL0     H52917  -0.185   7.847  10.981  1.2438 -2.3462  0.2369
  392MOL0     H52918  -0.092   8.161  10.816  2.7378 -0.4277  0.6828
  392MOL0     H52919  -0.233   8.080  10.896 -0.7754  1.1124 -2.1588
  392MOL0     H52920  -0.142   8.203  10.980 -0.0023 -1.2198  0.5218
  393MOL0     O52921   1.978   5.019   9.523 -0.2646 -0.1650 -0.9140
  393MOL0     C52922   1.975   4.904   9.570 -1.1008 -0.8626 -0.0238
  393MOL0     O52923   2.079   4.843   9.633 -0.1246  0.4521  0.5283
  393MOL0     C52924   2.207   4.873   9.610  0.0191 -0.9423 -0.2525
  393MOL0     C52925   2.265   4.917   9.489 -0.1012 -0.9530  0.2129
  393MOL0     C52926   2.397   4.958   9.492  0.1636  0.0723 -0.0726
  393MOL0     C52927   2.476   4.925   9.609 -0.4445 -0.0397  0.2951
  393MOL0     O52928   2.612   4.943   9.611  0.2098  0.3288 -0.2988
  393MOL0     C52929   2.671   5.041   9.528 -0.0209  0.4719  0.0920
  393MOL0     C52930   2.816   5.057   9.561 -0.4778 -0.0226 -0.3386
  393MOL0     C52931   2.883   5.186   9.492  0.6262 -0.0175 -0.5842
  393MOL0     C52932   3.027   5.202   9.537  0.4397 -0.1933 -0.0215
  393MOL0     C52933   3.083   5.331   9.478 -0.4104  0.6702  0.6726
  393MOL0     C52934   3.242   5.313   9.466  0.3455  0.0839  0.3926
  393MOL0     C52935   3.312   5.448   9.444 -0.4932  0.3489 -0.0386
  393MOL0     C52936   3.317   5.526   9.583 -0.2602 -0.2832  0.1507
  393MOL0     N52937   3.381   5.650   9.530  0.0121 -0.5335 -0.5637
  393MOL0     C52938   3.504   5.689   9.568 -0.3088 -0.1350  0.7025
  393MOL0     C52939   3.497   5.828   9.561 -0.2708  0.8626 -0.2297
  393MOL0     C52940   3.602   5.935   9.599 -0.4826  0.2885  0.1890
  393MOL0     C52941   3.724   5.888   9.677 -0.1000 -0.5336 -0.0846
  393MOL0     C52942   3.701   5.921   9.824 -0.5796 -0.4975 -0.6715
  393MOL0     C52943   3.576   5.852   9.894  0.2077 -0.3399  0.2157
  393MOL0     O52944   3.572   5.707   9.906 -0.9567  0.1511 -0.7610
  393MOL0     C52945   3.449   5.646   9.919 -0.3193 -0.1375 -0.0736
  393MOL0     C52946   3.447   5.508   9.920 -1.2709  0.2211  0.8008
  393MOL0     C52947   3.329   5.429   9.928 -0.0690 -0.4911 -0.5243
  393MOL0     C52948   3.209   5.496   9.932 -0.0481  0.1306 -0.2916
  393MOL0     C52949   3.076   5.430   9.914 -1.2631 -0.3237 -1.0103
  393MOL0     O52950   2.963   5.509   9.902  0.4986  0.2500 -0.3840
  393MOL0     C52951   2.836   5.459   9.897  0.0588 -0.4070  0.6842
  393MOL0     C52952   2.795   5.327   9.864 -1.1000 -0.6489  0.2143
  393MOL0     C52953   2.662   5.293   9.844  0.0110  0.3902 -0.2386
  393MOL0     C52954   2.568   5.383   9.878  0.6223  0.5200  0.4440
  393MOL0     O52955   2.437   5.350   9.887  0.0358 -0.0505 -0.6133
  393MOL0     C52956   2.381   5.276   9.784  0.1499 -0.2808 -0.5974
  393MOL0     C52957   2.227   5.265   9.778  0.1462  0.2664 -0.0800
  393MOL0     C52958   2.180   5.180   9.897 -0.0792  1.5273  0.4509
  393MOL0     C52959   2.029   5.151   9.904 -0.2095 -0.5967 -0.5582
  393MOL0     C52960   1.989   5.056  10.019  0.7086  0.4184 -0.2176
  393MOL0     C52961   2.014   4.906   9.983  0.0404 -0.6848 -0.2521
  393MOL0     C52962   1.961   4.825  10.105  1.3006 -0.3789  0.1405
  393MOL0     C52963   1.903   4.690  10.063  0.3106  0.1913 -0.9785
  393MOL0    Cl52964   2.022   4.576   9.993 -0.0299  0.1808 -0.4228
  393MOL0     C52965   2.596   5.517   9.915 -0.4130  0.3467  0.7404
  393MOL0     C52966   2.738   5.550   9.926  0.8837  0.0531  0.3981
  393MOL0     O52967   3.080   5.310   9.928  0.6417 -0.3709 -0.1477
  393MOL0     C52968   3.213   5.633   9.950  0.1584  0.4323 -0.7791
  393MOL0     C52969   3.324   5.709   9.941 -0.2656  0.5506 -0.3127
  393MOL0     N52970   3.371   5.860   9.512  0.9759 -0.2399  0.9029
  393MOL0     N52971   3.302   5.753   9.488 -0.2913 -0.3507 -0.0789
  393MOL0     C52972   2.420   4.856   9.719 -0.3973  0.2565  0.2306
  393MOL0     C52973   2.285   4.839   9.718 -0.8533  0.5648  0.5248
  393MOL0     C52974   1.848   4.827   9.563  0.7000  0.0669 -0.8496
  393MOL0     C52975   1.865   4.685   9.550 -0.0209  0.6169  0.0291
  393MOL0     C52976   1.754   4.604   9.521 -0.2423  0.0882  0.4138
  393MOL0     C52977   1.628   4.648   9.528  0.2636 -0.1248  0.2209
  393MOL0     O52978   1.525   4.558   9.495 -0.2830  0.0292 -0.1968
  393MOL0     C52979   1.403   4.596   9.425  0.7607  0.2641 -0.6526
  393MOL0     C52980   1.312   4.469   9.383  1.3098  0.0420 -0.3738
  393MOL0     C52981   1.312   4.357   9.489  0.5244  0.2823 -0.4826
  393MOL0     C52982   1.201   4.253   9.471  0.3689 -0.5504 -0.4783
  393MOL0     C52983   1.179   4.194   9.604  0.4311 -0.3903 -1.1604
  393MOL0     C52984   1.154   4.123   9.705  0.3606  0.0185 -0.8011
  393MOL0     C52985   1.612   4.786   9.538  0.2938 -0.5457  0.0130
  393MOL0     C52986   1.714   4.883   9.547 -0.5299  0.9823  0.7839
  393MOL0     C52987   1.682   5.032   9.548 -0.2375  0.5189 -0.1727
  393MOL0     H52988   2.200   4.923   9.403 -1.2178  2.1562  1.1257
  393MOL0     H52989   2.431   5.013   9.404  2.2707 -0.4637  0.3450
  393MOL0     H52990   2.658   5.018   9.422 -2.7789 -0.8742  0.6271
  393MOL0     H52991   2.616   5.132   9.553 -0.2470  0.0236  1.2732
  393MOL0     H52992   2.861   4.964   9.524 -1.6800 -0.8775  0.2890
  393MOL0     H52993   2.826   5.059   9.670  1.2474 -2.6579 -0.3391
  393MOL0     H52994   2.820   5.273   9.512  0.1920 -0.4598 -0.0020
  393MOL0     H52995   2.875   5.157   9.387 -0.0044 -3.5140  0.2989
  393MOL0     H52996   3.020   5.220   9.644 -1.0990 -1.5163  0.1466
  393MOL0     H52997   3.082   5.111   9.512 -1.0114 -1.1391  0.0717
  393MOL0     H52998   3.042   5.355   9.380 -2.9030  5.1497  2.4955
  393MOL0     H52999   3.065   5.414   9.547  3.2019  0.9326  1.5330
  393MOL0     H53000   3.263   5.270   9.564 -1.7981 -0.4628  0.6751
  393MOL0     H53001   3.276   5.241   9.391  1.6533  1.8649 -0.8131
  393MOL0     H53002   3.256   5.508   9.371  1.4567 -0.1389 -2.0570
  393MOL0     H53003   3.417   5.433   9.416  0.0245  0.5397  1.6831
  393MOL0     H53004   3.217   5.557   9.612 -1.1506 -0.9512 -1.9892
  393MOL0     H53005   3.380   5.477   9.658  0.2860 -4.2217 -2.5712
  393MOL0     H53006   3.591   5.646   9.617 -0.2074  1.6558  2.2264
  393MOL0     H53007   3.635   5.970   9.501 -1.3951  0.5844 -0.0200
  393MOL0     H53008   3.548   6.022   9.637 -2.3325 -0.8926  0.3973
  393MOL0     H53009   3.729   5.779   9.669  2.9753 -0.4564 -0.5340
  393MOL0     H53010   3.815   5.933   9.635  0.6664 -3.3195 -1.6475
  393MOL0     H53011   3.679   6.028   9.817  3.4044  0.3764 -3.5653
  393MOL0     H53012   3.787   5.913   9.892 -0.9079 -1.3131 -0.3359
  393MOL0     H53013   3.489   5.895   9.844  0.8723  1.6516  0.6956
  393MOL0     H53014   3.572   5.893   9.995  2.3245  1.9955 -0.5501
  393MOL0     H53015   3.531   5.441   9.903 -1.7184 -0.5927  1.6944
  393MOL0     H53016   3.334   5.321   9.924 -1.4583 -0.5618 -1.0594
  393MOL0     H53017   2.860   5.243   9.845 -0.2235  0.5022 -2.2823
  393MOL0     H53018   2.641   5.190   9.817 -0.3813  0.4079 -0.0009
  393MOL0     H53019   2.433   5.300   9.691  2.9424  0.1160  0.9505
  393MOL0     H53020   2.424   5.178   9.803  2.2513  0.4221 -1.4525
  393MOL0     H53021   2.178   5.362   9.795 -0.1641  0.3304 -1.2229
  393MOL0     H53022   2.187   5.209   9.692 -1.8474 -1.7128  1.9946
  393MOL0     H53023   2.221   5.079   9.889 -0.9767  1.0202  1.8922
  393MOL0     H53024   2.195   5.232   9.991 -1.6952  2.2093  0.3617
  393MOL0     H53025   1.997   5.105   9.810  1.9515  0.1645 -1.7159
  393MOL0     H53026   1.981   5.249   9.907  0.0867 -0.0540 -5.3812
  393MOL0     H53027   1.882   5.065  10.042  0.9387 -1.1417  1.6797
  393MOL0     H53028   2.043   5.092  10.106 -1.7414  2.0655  0.7481
  393MOL0     H53029   1.963   4.872   9.893 -0.6412 -1.3202  0.3578
  393MOL0     H53030   2.121   4.889   9.969  0.3404 -3.2805  3.5915
  393MOL0     H53031   1.886   4.886  10.156  1.3587 -1.3022  1.3679
  393MOL0     H53032   2.032   4.806  10.187  0.3154 -0.8797  0.8966
  393MOL0     H53033   1.852   4.657  10.153 -0.9647  0.7695 -1.4626
  393MOL0     H53034   1.824   4.710   9.990  0.5665  2.0201 -0.8158
  393MOL0     H53035   2.518   5.581   9.956  1.3118  1.4422  2.4998
  393MOL0     H53036   2.774   5.650   9.946 -0.2395  0.4489  0.5160
  393MOL0     H53037   3.112   5.672   9.960 -0.3278 -1.1070  0.8261
  393MOL0     H53038   3.317   5.817   9.951  4.4712  1.1181 -0.4386
  393MOL0     H53039   2.492   4.814   9.788  1.0849 -0.1644 -1.4872
  393MOL0     H53040   2.235   4.780   9.794  4.0058 -2.5569  1.7597
  393MOL0     H53041   1.963   4.639   9.560 -0.3886 -0.4017 -0.9131
  393MOL0     H53042   1.770   4.502   9.486 -1.7687 -0.8602  2.3087
  393MOL0     H53043   1.428   4.654   9.335 -1.4427  1.2478 -0.7025
  393MOL0     H53044   1.343   4.647   9.501  1.2847  0.2619 -0.2305
  393MOL0     H53045   1.348   4.428   9.288 -0.3585 -0.4760 -0.8310
  393MOL0     H53046   1.213   4.505   9.355  0.6796 -1.3711 -0.0796
  393MOL0     H53047   1.294   4.402   9.587  2.2131  0.3419 -0.1833
  393MOL0     H53048   1.410   4.310   9.485  0.5206  0.0634  1.2929
  393MOL0     H53049   1.105   4.296   9.439 -0.5564 -2.3684 -0.2997
  393MOL0     H53050   1.221   4.168   9.404 -0.8314 -1.4535  0.2709
  393MOL0     H53051   1.117   4.060   9.783 -2.7664  0.9362 -1.4086
  393MOL0     H53052   1.509   4.816   9.556  0.3620  1.4970 -2.4050
  393MOL0     H53053   1.729   5.073   9.459  1.4123 -3.6317 -1.4710
  393MOL0     H53054   1.573   5.039   9.554 -0.5435 -2.4724 -0.6141
  393MOL0     H53055   1.728   5.079   9.636 -1.9457 -2.5193  2.5999
  394MOL0     O53056   6.112   6.770   5.308  0.2891  0.0729  0.3826
  394MOL0     C53057   6.065   6.777   5.193  0.1071 -0.5159  0.0043
  394MOL0     O53058   6.086   6.684   5.096 -0.0764  0.5184  0.7951
  394MOL0     C53059   6.177   6.582   5.116  0.0135  0.0452  0.2333
  394MOL0     C53060   6.144   6.451   5.083  0.3288  0.4579  0.2607
  394MOL0     C53061   6.233   6.348   5.106  0.3540  0.4344  1.2645
  394MOL0     C53062   6.363   6.379   5.150 -0.6257  0.1956 -0.7968
  394MOL0     O53063   6.468   6.290   5.179 -0.3815 -0.2418  0.2273
  394MOL0     C53064   6.464   6.150   5.153  1.1506 -0.4408  0.8276
  394MOL0     C53065   6.592   6.083   5.129 -1.3323  0.2189  0.5825
  394MOL0     C53066   6.695   6.105   5.242 -0.6965  0.4921 -0.5884
  394MOL0     C53067   6.835   6.051   5.227 -0.1205 -0.5246 -0.9390
  394MOL0     C53068   6.841   5.895   5.245  0.2119  0.2312 -0.0861
  394MOL0     C53069   6.976   5.819   5.213  1.1432  0.4415 -0.2071
  394MOL0     C53070   7.003   5.822   5.067 -0.1342 -1.0713  0.2978
  394MOL0     C53071   7.086   5.696   5.034  0.3016 -0.3895  0.0359
  394MOL0     N53072   7.135   5.690   4.901  0.2510  0.4589  0.5311
  394MOL0     C53073   7.223   5.775   4.841 -0.2723 -0.0246 -0.0299
  394MOL0     C53074   7.233   5.731   4.711  0.6676  0.8013  0.0013
  394MOL0     C53075   7.311   5.800   4.615  0.3775  0.3455 -0.4117
  394MOL0     C53076   7.237   5.910   4.544  0.4353 -0.6371 -0.9967
  394MOL0     C53077   7.171   6.019   4.625 -0.8368  0.0093 -0.2568
  394MOL0     C53078   7.137   6.143   4.532 -0.5513  0.3330  0.2944
  394MOL0     O53079   7.269   6.208   4.500  0.1835  1.0396 -0.3804
  394MOL0     C53080   7.308   6.203   4.361  0.2962 -0.9817 -0.2248
  394MOL0     C53081   7.242   6.151   4.253  0.0812  1.0435  0.9858
  394MOL0     C53082   7.282   6.177   4.121 -0.1488  0.4736 -0.5649
  394MOL0     C53083   7.404   6.245   4.096  0.2384  0.6248  0.7171
  394MOL0     C53084   7.462   6.248   3.952  0.9437  0.2594 -0.2595
  394MOL0     O53085   7.593   6.283   3.936  0.0974 -0.1064 -0.4129
  394MOL0     C53086   7.651   6.287   3.813 -0.2797 -0.2097 -0.2605
  394MOL0     C53087   7.748   6.389   3.785  0.3510  0.9310  0.5634
  394MOL0     C53088   7.812   6.379   3.659  1.1937  0.0594  1.0442
  394MOL0     C53089   7.776   6.285   3.562  0.8522 -0.3078 -0.1883
  394MOL0     O53090   7.851   6.292   3.441 -0.0354  0.0338 -0.2370
  394MOL0     C53091   7.812   6.201   3.343 -0.2023  0.1641  0.3112
  394MOL0     C53092   7.903   6.196   3.227 -0.1872  0.2305  0.1572
  394MOL0     C53093   7.905   6.336   3.153  0.3100 -0.4225 -0.6520
  394MOL0     C53094   7.960   6.336   3.010  0.5166  0.2087 -1.5103
  394MOL0     C53095   7.892   6.248   2.901  0.2974  0.8339  0.0079
  394MOL0     C53096   7.758   6.293   2.858 -0.6224  0.2700  0.4040
  394MOL0     C53097   7.679   6.187   2.792  0.3780  1.0566  0.5582
  394MOL0     C53098   7.538   6.232   2.738  0.0160 -0.2672 -0.2250
  394MOL0    Cl53099   7.550   6.374   2.640  0.0121 -0.2526  0.2407
  394MOL0     C53100   7.677   6.190   3.588  0.3664  0.6243 -0.0690
  394MOL0     C53101   7.619   6.197   3.713 -0.6903  0.6398 -1.0864
  394MOL0     O53102   7.376   6.230   3.862  0.1870  0.4947 -0.8247
  394MOL0     C53103   7.470   6.298   4.207 -0.8410  0.6412  0.2894
  394MOL0     C53104   7.418   6.278   4.329  0.1708 -1.2279 -0.3697
  394MOL0     N53105   7.149   5.614   4.703  0.5627  0.2393  0.8858
  394MOL0     N53106   7.111   5.586   4.819  0.4563  0.4119 -0.1162
  394MOL0     C53107   6.403   6.518   5.163  0.0241  0.2768  0.0794
  394MOL0     C53108   6.306   6.613   5.151  0.9269 -0.1012 -0.6711
  394MOL0     C53109   5.982   6.896   5.165 -0.1213 -0.1359  0.3454
  394MOL0     C53110   6.043   6.996   5.083  0.4804  0.1233 -0.6591
  394MOL0     C53111   5.977   7.112   5.057  0.1568  0.6593 -0.1891
  394MOL0     C53112   5.847   7.142   5.105  0.5641  0.1966 -0.8468
  394MOL0     O53113   5.781   7.252   5.070 -0.2019  0.1513 -0.0523
  394MOL0     C53114   5.764   7.275   4.937  0.2249  0.4199 -0.2643
  394MOL0     C53115   5.670   7.393   4.920 -0.8955 -0.2812 -0.4525
  394MOL0     C53116   5.683   7.458   4.782  0.4604  0.4235 -0.3648
  394MOL0     C53117   5.652   7.350   4.677 -0.6281 -0.2975 -0.7336
  394MOL0     C53118   5.618   7.416   4.546 -0.6316  0.6185 -0.3663
  394MOL0     C53119   5.585   7.462   4.440  0.2593 -0.4172 -0.7392
  394MOL0     C53120   5.791   7.050   5.197  0.2705  0.4965  0.7669
  394MOL0     C53121   5.850   6.923   5.220 -0.8581 -0.3764  0.7529
  394MOL0     C53122   5.784   6.823   5.305 -0.1013 -0.4764  0.2084
  394MOL0     H53123   6.045   6.416   5.055  0.2843 -0.4062  1.4269
  394MOL0     H53124   6.200   6.249   5.075 -1.8089  0.4857  3.1608
  394MOL0     H53125   6.416   6.108   5.242  1.0902 -0.9093  0.5797
  394MOL0     H53126   6.401   6.128   5.067 -0.1268  1.0877  1.3298
  394MOL0     H53127   6.626   6.111   5.029  1.0223  0.2743  1.3245
  394MOL0     H53128   6.580   5.974   5.120  1.3454  0.0093 -3.8106
  394MOL0     H53129   6.654   6.060   5.333  0.0844  2.6807  0.9398
  394MOL0     H53130   6.708   6.213   5.258  0.2527  0.6922 -2.3875
  394MOL0     H53131   6.867   6.075   5.125 -2.4591 -0.7697 -1.7889
  394MOL0     H53132   6.894   6.107   5.299 -1.1560 -0.1429 -0.3792
  394MOL0     H53133   6.831   5.868   5.351 -1.2541  0.3324 -0.1823
  394MOL0     H53134   6.763   5.843   5.190 -0.7522  0.9501  0.5704
  394MOL0     H53135   7.060   5.873   5.259  0.5092  1.8459 -0.6535
  394MOL0     H53136   6.966   5.723   5.264  2.6557 -0.1672 -0.9947
  394MOL0     H53137   7.059   5.911   5.037 -1.0433 -0.7598 -0.5217
  394MOL0     H53138   6.911   5.814   5.008  0.2739  0.3919 -0.5747
  394MOL0     H53139   7.167   5.679   5.106  0.9221 -2.1981 -1.0190
  394MOL0     H53140   7.022   5.607   5.043 -1.0115  0.5390  0.1834
  394MOL0     H53141   7.269   5.862   4.887 -0.9344  0.0804  0.4583
  394MOL0     H53142   7.404   5.842   4.655  1.3537 -0.8470 -1.3534
  394MOL0     H53143   7.336   5.728   4.537 -2.1431 -0.0766 -0.9057
  394MOL0     H53144   7.314   5.955   4.481  1.9536 -0.4377  0.8991
  394MOL0     H53145   7.162   5.867   4.477  1.2611  1.3091 -3.3219
  394MOL0     H53146   7.236   6.061   4.702 -3.5045  2.6723  0.7709
  394MOL0     H53147   7.078   5.991   4.675 -0.4585  0.0390  0.4685
  394MOL0     H53148   7.063   6.211   4.576 -0.9804  0.6941 -0.9447
  394MOL0     H53149   7.091   6.090   4.448  1.5393 -1.1730  0.0300
  394MOL0     H53150   7.154   6.089   4.269 -0.4048  1.3592 -0.3409
  394MOL0     H53151   7.248   6.120   4.035  0.3222 -0.7477  0.0393
  394MOL0     H53152   7.768   6.466   3.859  0.8952  0.9702  0.3803
  394MOL0     H53153   7.889   6.453   3.636  0.0094  0.6508 -1.3826
  394MOL0     H53154   7.807   6.101   3.389 -2.6172  1.7894  4.0890
  394MOL0     H53155   7.712   6.218   3.304 -0.1005 -2.7702 -1.5405
  394MOL0     H53156   8.004   6.169   3.261  0.4903 -0.4680 -2.2327
  394MOL0     H53157   7.865   6.120   3.159 -3.9610  1.9569  0.0705
  394MOL0     H53158   7.805   6.377   3.139 -0.1434 -1.2504  0.0990
  394MOL0     H53159   7.978   6.396   3.210 -0.6717 -1.8874  2.3642
  394MOL0     H53160   8.061   6.300   3.032  0.6280  2.1631  1.8218
  394MOL0     H53161   7.967   6.437   2.968  0.9615 -0.8964 -4.3184
  394MOL0     H53162   7.887   6.143   2.932  0.3426  0.6727 -0.5069
  394MOL0     H53163   7.964   6.264   2.820 -0.7472  1.6492 -0.8045
  394MOL0     H53164   7.699   6.321   2.945 -1.1172  1.1812 -0.2016
  394MOL0     H53165   7.773   6.384   2.798  0.3932 -0.7860 -1.0117
  394MOL0     H53166   7.663   6.095   2.848  1.2604 -0.6763 -1.8441
  394MOL0     H53167   7.733   6.152   2.703  1.0673  1.1375  0.9406
  394MOL0     H53168   7.491   6.147   2.687 -0.6483 -0.6137  0.9251
  394MOL0     H53169   7.472   6.254   2.822  1.3586 -0.0518  0.8027
  394MOL0     H53170   7.637   6.111   3.525 -0.5328  1.0609 -0.0648
  394MOL0     H53171   7.544   6.121   3.734 -0.9554  1.0066 -0.6928
  394MOL0     H53172   7.570   6.341   4.197 -0.9801  0.8324 -0.3270
  394MOL0     H53173   7.458   6.331   4.415 -0.4588  0.2625 -0.9717
  394MOL0     H53174   6.496   6.543   5.213 -1.6093  0.0287  3.5623
  394MOL0     H53175   6.349   6.711   5.164 -0.3630  0.1212  3.1490
  394MOL0     H53176   6.146   6.983   5.054  0.9620 -0.2355  1.0873
  394MOL0     H53177   6.027   7.181   4.990 -1.0093  0.0257 -1.7717
  394MOL0     H53178   5.710   7.197   4.883  1.9991 -0.1542 -1.2865
  394MOL0     H53179   5.865   7.292   4.899  1.3336 -3.1756  0.7457
  394MOL0     H53180   5.690   7.472   4.993 -2.5952  2.0995 -2.4039
  394MOL0     H53181   5.566   7.368   4.939 -0.3774 -0.5638  2.4982
  394MOL0     H53182   5.786   7.491   4.769  0.1205  1.3015 -0.9338
  394MOL0     H53183   5.624   7.549   4.791 -0.9240 -0.6840  4.6211
  394MOL0     H53184   5.741   7.286   4.674  1.9958  2.7047  3.1511
  394MOL0     H53185   5.566   7.290   4.708  0.5913 -0.9146  1.7618
  394MOL0     H53186   5.557   7.517   4.352  0.4340  1.8288  0.5457
  394MOL0     H53187   5.698   7.076   5.246 -0.1199  0.1593  0.2182
  394MOL0     H53188   5.819   6.728   5.264 -2.0640  0.2726 -3.7606
  394MOL0     H53189   5.804   6.834   5.412 -0.9761  0.0975  0.3203
  394MOL0     H53190   5.676   6.836   5.295 -0.5918 -2.9134  1.4290
  395MOL0     O53191   4.187   1.452   6.745 -0.0469 -0.2498 -1.0055
  395MOL0     C53192   4.168   1.562   6.788  0.7502 -0.2599 -0.2022
  395MOL0     O53193   4.059   1.633   6.758 -0.3108 -0.2106  0.5299
  395MOL0     C53194   3.943   1.585   6.694 -0.2818  0.0392 -0.2002
  395MOL0     C53195   3.909   1.456   6.648  0.0225  0.5052  0.0848
  395MOL0     C53196   3.796   1.435   6.582  0.1105  0.5252  0.1582
  395MOL0     C53197   3.700   1.540   6.572 -0.2273 -0.6444  0.0925
  395MOL0     O53198   3.568   1.503   6.546  0.5510  0.1167  0.7600
  395MOL0     C53199   3.501   1.455   6.665 -0.2170 -0.5203  0.2953
  395MOL0     C53200   3.355   1.430   6.652 -0.3801 -0.9286 -0.2333
  395MOL0     C53201   3.280   1.550   6.604 -0.1117  0.7790 -0.2828
  395MOL0     C53202   3.125   1.519   6.596  0.4109  0.3262 -0.3777
  395MOL0     C53203   3.051   1.646   6.590 -0.7897  0.0747 -0.4165
  395MOL0     C53204   3.079   1.715   6.456  0.6073  0.5748 -0.2789
  395MOL0     C53205   2.978   1.812   6.406 -0.1210 -0.2298  0.4338
  395MOL0     C53206   3.031   1.871   6.279  0.5000 -0.1148  0.0657
  395MOL0     N53207   2.912   1.906   6.191 -0.2684  0.0159  0.0366
  395MOL0     C53208   2.916   1.972   6.073  0.2962 -0.2509 -0.5758
  395MOL0     C53209   2.794   1.959   6.017  1.0841  0.1565  0.5331
  395MOL0     C53210   2.738   1.999   5.886 -0.5596 -1.0635 -0.4704
  395MOL0     C53211   2.797   1.905   5.782  0.3762  1.0237  0.2961
  395MOL0     C53212   2.728   1.900   5.642 -0.5859 -0.2881  0.2401
  395MOL0     C53213   2.691   2.037   5.590 -0.3493 -0.2334 -0.2869
  395MOL0     O53214   2.644   2.030   5.459  0.7594 -0.2277  0.1990
  395MOL0     C53215   2.512   2.055   5.421 -0.0023 -0.3860 -0.3002
  395MOL0     C53216   2.397   2.085   5.509 -0.0366 -0.1929  0.1147
  395MOL0     C53217   2.279   2.123   5.447 -0.2315  0.2403  0.6770
  395MOL0     C53218   2.264   2.126   5.303 -0.6828  1.3837  0.5916
  395MOL0     C53219   2.139   2.175   5.245  0.5082 -0.5120  0.2740
  395MOL0     O53220   2.048   2.216   5.339  0.1086 -0.4103 -0.0460
  395MOL0     C53221   1.913   2.221   5.297  0.4185 -0.0321 -1.1291
  395MOL0     C53222   1.837   2.107   5.320  1.2477  0.4399 -0.8473
  395MOL0     C53223   1.696   2.114   5.282  0.5722 -0.0377  0.2740
  395MOL0     C53224   1.642   2.230   5.229 -0.9863 -0.0776  0.0188
  395MOL0     O53225   1.514   2.224   5.181  0.9364  0.4708 -0.4546
  395MOL0     C53226   1.459   2.317   5.087 -0.4056  0.0593 -0.2592
  395MOL0     C53227   1.360   2.251   4.993 -0.6384  0.7371 -0.5787
  395MOL0     C53228   1.316   2.346   4.876  0.1799 -0.7096  0.5412
  395MOL0     C53229   1.293   2.265   4.748 -0.2271  1.0198  0.3275
  395MOL0     C53230   1.260   2.342   4.627 -0.7312  0.2077 -0.0827
  395MOL0     C53231   1.241   2.246   4.507 -0.2009  0.7913  0.4797
  395MOL0     C53232   1.365   2.172   4.475  0.2936 -0.4379 -0.7559
  395MOL0     C53233   1.391   2.148   4.326 -0.3567 -0.0795  0.4144
  395MOL0    Cl53234   1.573   2.140   4.305  0.1498  0.5630  0.8634
  395MOL0     C53235   1.719   2.343   5.228 -0.3325  0.3521  0.0796
  395MOL0     C53236   1.855   2.339   5.249  0.6814  0.1388 -0.4458
  395MOL0     O53237   2.121   2.174   5.127  0.3426 -0.2087 -0.0157
  395MOL0     C53238   2.373   2.087   5.225 -0.7565 -0.5367  0.9821
  395MOL0     C53239   2.496   2.055   5.281 -0.1029 -0.4644 -0.6280
  395MOL0     N53240   2.714   1.885   6.100  0.7052  0.2195  0.2409
  395MOL0     N53241   2.787   1.845   6.199  0.8537 -0.0751  0.9183
  395MOL0     C53242   3.728   1.665   6.624 -0.0710  0.2813 -0.3235
  395MOL0     C53243   3.851   1.686   6.688  0.9264  0.0201  0.4237
  395MOL0     C53244   4.265   1.617   6.872 -1.2342 -0.5325 -0.1807
  395MOL0     C53245   4.335   1.531   6.968  0.4988 -0.3432 -0.3004
  395MOL0     C53246   4.444   1.573   7.042  0.1087 -0.9510  0.0184
  395MOL0     C53247   4.482   1.708   7.038 -0.1953  0.2876  0.2807
  395MOL0     O53248   4.594   1.748   7.113  0.0391 -1.0598  0.3641
  395MOL0     C53249   4.716   1.760   7.037  0.7046 -0.9345 -0.3819
  395MOL0     C53250   4.774   1.903   7.057 -0.7448  0.3875 -1.0384
  395MOL0     C53251   4.856   1.964   6.942 -0.2017  0.2195 -0.0340
  395MOL0     C53252   4.942   2.080   6.983  0.2712 -0.0103 -0.3972
  395MOL0     C53253   5.011   2.134   6.863  0.7403 -0.1445 -0.7898
  395MOL0     C53254   5.051   2.157   6.752 -0.0001 -0.3596 -1.0342
  395MOL0     C53255   4.403   1.793   6.956 -0.4829 -0.0079 -0.3401
  395MOL0     C53256   4.309   1.752   6.862 -0.4205  0.0041  1.1307
  395MOL0     C53257   4.258   1.857   6.765 -0.2997 -0.3006  0.5960
  395MOL0     H53258   3.967   1.365   6.659 -2.0646 -0.7208  1.5544
  395MOL0     H53259   3.767   1.339   6.541 -0.5649  0.4942  0.6754
  395MOL0     H53260   3.553   1.360   6.679  0.1862 -0.6178 -1.5591
  395MOL0     H53261   3.519   1.513   6.756 -2.4906 -2.6336  2.2593
  395MOL0     H53262   3.315   1.389   6.745 -3.6908 -4.3811 -2.8757
  395MOL0     H53263   3.343   1.350   6.578  0.3523  0.4775 -1.9554
  395MOL0     H53264   3.323   1.573   6.506  0.7869 -1.9657 -0.6073
  395MOL0     H53265   3.287   1.637   6.670 -0.7862  2.3083 -2.1319
  395MOL0     H53266   3.105   1.462   6.505  1.2346  2.9108 -2.3088
  395MOL0     H53267   3.083   1.463   6.681  2.9585 -1.0375  0.0837
  395MOL0     H53268   2.946   1.615   6.594 -1.8270  3.3690  1.7612
  395MOL0     H53269   3.079   1.708   6.675  3.5347 -2.7949  0.5155
  395MOL0     H53270   3.184   1.747   6.453  0.6685  0.4554  0.3197
  395MOL0     H53271   3.065   1.626   6.394  2.3489 -1.8840  2.5690
  395MOL0     H53272   2.969   1.895   6.477 -3.3531  0.0587 -0.1647
  395MOL0     H53273   2.884   1.756   6.397  0.3650 -0.8554 -0.8554
  395MOL0     H53274   3.075   1.969   6.298 -1.3222  0.8611 -0.5364
  395MOL0     H53275   3.093   1.800   6.223 -1.7702 -1.1052 -1.3847
  395MOL0     H53276   3.000   2.020   6.025 -0.8527  1.3838 -1.0509
  395MOL0     H53277   2.629   2.008   5.891 -0.5050 -0.1154 -0.7397
  395MOL0     H53278   2.769   2.101   5.861 -0.5665 -1.4470 -2.1463
  395MOL0     H53279   2.903   1.924   5.767  0.6984 -0.3961  0.6719
  395MOL0     H53280   2.778   1.806   5.826  1.8639 -0.0569 -1.3560
  395MOL0     H53281   2.631   1.849   5.640 -1.7262  1.7615  0.1539
  395MOL0     H53282   2.794   1.845   5.574  3.5155  0.6257  3.1385
  395MOL0     H53283   2.774   2.108   5.587 -0.5009 -0.0791 -2.7135
  395MOL0     H53284   2.621   2.085   5.659 -0.1635  0.4120 -0.5357
  395MOL0     H53285   2.416   2.081   5.616  1.0379 -1.3804 -0.1014
  395MOL0     H53286   2.197   2.130   5.517  0.7291 -1.0537  1.9816
  395MOL0     H53287   1.862   2.017   5.375 -1.9564 -1.3023 -1.9448
  395MOL0     H53288   1.639   2.023   5.300  0.2174  0.3960  1.4806
  395MOL0     H53289   1.406   2.396   5.141 -0.9509 -1.2732  1.2359
  395MOL0     H53290   1.537   2.358   5.022  0.3672 -2.4502 -1.0049
  395MOL0     H53291   1.399   2.156   4.957  0.4783  0.5356  1.0867
  395MOL0     H53292   1.275   2.216   5.053  0.3321 -1.1302 -0.2362
  395MOL0     H53293   1.217   2.392   4.883  0.9141  0.8185  1.3272
  395MOL0     H53294   1.381   2.433   4.878  1.4646 -1.6369  0.5936
  395MOL0     H53295   1.201   2.209   4.767 -0.7155  2.2500  1.7500
  395MOL0     H53296   1.373   2.194   4.723  1.1119  2.4679  0.3337
  395MOL0     H53297   1.348   2.400   4.601 -0.3568 -0.0944  0.4867
  395MOL0     H53298   1.180   2.415   4.643  2.1418  3.6755 -0.4552
  395MOL0     H53299   1.158   2.177   4.524  0.6739 -0.2888  0.4473
  395MOL0     H53300   1.209   2.289   4.411  5.6765 -3.4196 -4.1039
  395MOL0     H53301   1.360   2.076   4.527 -1.2040  0.0250  0.0221
  395MOL0     H53302   1.443   2.234   4.520 -0.0291 -1.0789  0.7431
  395MOL0     H53303   1.343   2.059   4.285 -2.7321  0.6652  1.4094
  395MOL0     H53304   1.354   2.234   4.269  1.0965  0.0599 -0.3796
  395MOL0     H53305   1.673   2.432   5.187  0.7535  1.6907  1.6325
  395MOL0     H53306   1.911   2.432   5.241 -0.3377  0.6911 -1.3873
  395MOL0     H53307   2.365   2.104   5.118 -0.8855 -1.5300  0.8223
  395MOL0     H53308   2.582   2.031   5.219  0.1500  0.2349 -0.5594
  395MOL0     H53309   3.650   1.739   6.611 -1.6048 -0.7836  2.0327
  395MOL0     H53310   3.858   1.782   6.739  3.6137 -0.4509  1.0659
  395MOL0     H53311   4.297   1.430   6.977  0.5010 -0.3180  0.0088
  395MOL0     H53312   4.518   1.514   7.095  2.0676 -0.2717 -1.8183
  395MOL0     H53313   4.694   1.754   6.930 -6.0427 -0.5732  0.5333
  395MOL0     H53314   4.794   1.685   7.051 -1.1496 -3.2367 -1.6821
  395MOL0     H53315   4.824   1.892   7.154 -0.3385 -0.7104 -1.3580
  395MOL0     H53316   4.688   1.968   7.077 -1.1333  0.0733 -1.6592
  395MOL0     H53317   4.786   1.994   6.863  0.5127 -0.4641 -0.9487
  395MOL0     H53318   4.914   1.885   6.894  1.5510  2.6714 -2.2535
  395MOL0     H53319   4.876   2.153   7.030  0.3498 -0.3735  0.3032
  395MOL0     H53320   5.018   2.040   7.051  0.8855 -2.7212 -2.4879
  395MOL0     H53321   5.115   2.162   6.666 -1.4951 -2.3570 -2.3781
  395MOL0     H53322   4.434   1.897   6.950 -0.4108 -0.0939 -2.5089
  395MOL0     H53323   4.277   1.818   6.664  0.8188  1.0287  0.2623
  395MOL0     H53324   4.152   1.883   6.772 -0.7151 -1.5918 -0.3471
  395MOL0     H53325   4.313   1.950   6.780  1.2134 -1.2943  1.4731
  396MOL0     O53326   6.398  11.412   0.951 -0.4221 -0.1549 -0.0808
  396MOL0     C53327   6.444  11.527   0.949 -1.5351  0.1724 -0.2289
  396MOL0     O53328   6.383  11.643   0.992  0.4043 -0.5677  0.7057
  396MOL0     C53329   6.256  11.623   1.043  1.2181  0.5579  0.4861
  396MOL0     C53330   6.148  11.668   0.960  0.2184  0.7696  0.9418
  396MOL0     C53331   6.012  11.642   1.000 -0.5497 -0.4636 -0.3100
  396MOL0     C53332   5.982  11.580   1.123 -1.1685  1.0663 -0.0980
  396MOL0     O53333   5.861  11.562   1.167  0.2668  0.3598 -0.1052
  396MOL0     C53334   5.828  11.423   1.203  0.3855  0.1736  0.9196
  396MOL0     C53335   5.681  11.410   1.258 -0.1824 -1.0661 -0.6359
  396MOL0     C53336   5.568  11.475   1.184  0.3210 -1.9401 -0.4484
  396MOL0     C53337   5.440  11.465   1.264  0.0051  0.2580 -0.5200
  396MOL0     C53338   5.323  11.551   1.196  0.0286 -0.3747  1.4018
  396MOL0     C53339   5.267  11.483   1.075  0.1548 -0.1128  0.0732
  396MOL0     C53340   5.138  11.548   1.016 -0.1059 -0.3350 -0.4300
  396MOL0     C53341   5.006  11.469   1.044  0.4176  0.1311  0.0719
  396MOL0     N53342   4.881  11.543   1.012 -0.2758 -0.3121  0.8651
  396MOL0     C53343   4.861  11.679   1.046 -0.8234  0.1741 -1.5172
  396MOL0     C53344   4.761  11.711   0.970 -0.3143 -0.0872 -0.7725
  396MOL0     C53345   4.691  11.845   0.960  0.9638 -1.1721  0.0631
  396MOL0     C53346   4.563  11.850   0.874  1.0991  0.1417  0.2801
  396MOL0     C53347   4.442  11.772   0.940  0.3828 -0.6034  0.4282
  396MOL0     C53348   4.338  11.716   0.835  0.4722  0.2552 -0.7340
  396MOL0     O53349   4.376  11.590   0.782  1.1647  0.5391  0.6749
  396MOL0     C53350   4.287  11.487   0.750 -0.0727 -0.7846 -0.0383
  396MOL0     C53351   4.338  11.358   0.749 -0.0357 -1.0295  0.3966
  396MOL0     C53352   4.252  11.250   0.712 -0.1011  0.2243 -0.5259
  396MOL0     C53353   4.118  11.274   0.671 -0.4921 -0.4066 -0.1086
  396MOL0     C53354   4.029  11.171   0.624  1.0140  0.4728 -0.9806
  396MOL0     O53355   4.075  11.047   0.657 -0.1498 -0.3412 -0.1712
  396MOL0     C53356   3.998  10.930   0.639 -0.8815  0.1931 -1.2944
  396MOL0     C53357   3.855  10.910   0.633 -0.4848  0.3067 -0.8430
  396MOL0     C53358   3.806  10.783   0.620 -0.2118  0.0833 -0.1768
  396MOL0     C53359   3.895  10.669   0.614  0.1988  0.0060  0.4657
  396MOL0     O53360   3.830  10.549   0.616  0.0947  0.1551 -0.4737
  396MOL0     C53361   3.786  10.501   0.745 -0.8794  0.8360 -0.1828
  396MOL0     C53362   3.860  10.371   0.784  0.2977  0.2515 -0.4366
  396MOL0     C53363   3.865  10.246   0.680  0.9601  0.6162 -0.0158
  396MOL0     C53364   3.743  10.150   0.699  0.2413  0.3782 -1.1097
  396MOL0     C53365   3.771  10.009   0.654 -0.0854 -0.5174 -0.9628
  396MOL0     C53366   3.636   9.929   0.617 -0.3324 -0.4599 -0.3153
  396MOL0     C53367   3.558   9.913   0.758 -0.2726  0.6596  0.5954
  396MOL0     C53368   3.495   9.778   0.738  0.7384 -0.3626  0.7770
  396MOL0    Cl53369   3.618   9.644   0.757  0.7000  0.1594 -0.4327
  396MOL0     C53370   4.032  10.689   0.601 -0.2729  0.4440  0.1328
  396MOL0     C53371   4.081  10.821   0.617  1.0358 -0.5221 -0.1013
  396MOL0     O53372   3.928  11.199   0.564  0.0787  0.0693  0.5327
  396MOL0     C53373   4.066  11.401   0.685  0.1945  0.3916  1.1521
  396MOL0     C53374   4.153  11.509   0.721 -0.5543  0.0904 -0.7115
  396MOL0     N53375   4.718  11.599   0.901  0.5671  0.1704  0.7951
  396MOL0     N53376   4.803  11.504   0.908  0.6340  0.0741 -0.6401
  396MOL0     C53377   6.100  11.549   1.211 -0.0570 -0.5908 -0.0298
  396MOL0     C53378   6.230  11.562   1.163  0.7382  0.2110 -0.6787
  396MOL0     C53379   6.589  11.531   0.916  0.8654  0.7244  0.6502
  396MOL0     C53380   6.632  11.473   0.796  0.3044 -0.3471  1.0745
  396MOL0     C53381   6.766  11.484   0.755  0.1251  0.4275  0.0519
  396MOL0     C53382   6.858  11.543   0.831  0.2015 -0.1792  0.3793
  396MOL0     O53383   6.985  11.547   0.794  0.2005  0.1100  0.0874
  396MOL0     C53384   7.079  11.636   0.859 -0.3678  0.1315  0.5327
  396MOL0     C53385   7.033  11.785   0.819  0.2948  0.0977  0.1221
  396MOL0     C53386   7.125  11.898   0.883 -0.3323  0.6287  0.7460
  396MOL0     C53387   7.110  11.915   1.028 -0.6017 -0.9926  0.2502
  396MOL0     C53388   6.972  11.940   1.061 -0.3882  0.5243 -0.6473
  396MOL0     C53389   6.859  11.982   1.097  0.2496 -0.1306  0.7682
  396MOL0     C53390   6.821  11.593   0.959 -0.3518 -0.3276  0.0149
  396MOL0     C53391   6.688  11.585   0.999  0.2956 -1.2106  0.2740
  396MOL0     C53392   6.669  11.634   1.140 -0.1312 -1.2864 -0.0616
  396MOL0     H53393   6.158  11.727   0.870 -2.0155  0.5737  0.5022
  396MOL0     H53394   5.928  11.672   0.938  0.3260  0.8841 -0.9155
  396MOL0     H53395   5.860  11.359   1.121  2.6582 -0.0972  1.9423
  396MOL0     H53396   5.881  11.390   1.292  0.5080  1.5147  1.3671
  396MOL0     H53397   5.676  11.464   1.353 -1.6856  0.7580 -1.6914
  396MOL0     H53398   5.658  11.303   1.270 -0.9000 -0.8435  0.0432
  396MOL0     H53399   5.542  11.426   1.090 -2.7992 -3.5429  1.1125
  396MOL0     H53400   5.597  11.578   1.159 -4.1628 -0.4604 -0.4028
  396MOL0     H53401   5.414  11.361   1.285  0.2863  0.2168 -0.3841
  396MOL0     H53402   5.466  11.517   1.356  0.4973  2.1543 -1.6687
  396MOL0     H53403   5.242  11.585   1.262 -2.0190  0.5622 -1.4287
  396MOL0     H53404   5.366  11.640   1.150  4.2551 -2.1985  1.3988
  396MOL0     H53405   5.341  11.481   0.994 -1.4596  0.4686 -1.4981
  396MOL0     H53406   5.247  11.378   1.101  0.5205 -0.0215  0.7360
  396MOL0     H53407   5.159  11.567   0.910  0.2920 -1.2808 -0.5321
  396MOL0     H53408   5.127  11.652   1.047  1.1593 -0.3999  0.2912
  396MOL0     H53409   5.019  11.368   1.004  2.7179  0.4453 -0.1070
  396MOL0     H53410   5.011  11.462   1.153  5.0569  0.2333  0.0676
  396MOL0     H53411   4.917  11.745   1.111 -1.5610 -2.5687  2.2358
  396MOL0     H53412   4.674  11.887   1.060  2.2259  1.4203 -0.7278
  396MOL0     H53413   4.766  11.912   0.917 -2.0674 -0.0759 -4.0479
  396MOL0     H53414   4.540  11.956   0.863 -2.3166 -0.1476  2.9895
  396MOL0     H53415   4.577  11.808   0.774  1.8531 -0.8178  0.7636
  396MOL0     H53416   4.390  11.837   1.010  0.8860 -1.4643  1.6295
  396MOL0     H53417   4.471  11.690   1.006 -0.4934 -0.7019  0.7001
  396MOL0     H53418   4.314  11.786   0.754 -2.5286  0.7094  0.4022
  396MOL0     H53419   4.239  11.704   0.880  0.2284  0.2805 -1.2572
  396MOL0     H53420   4.445  11.361   0.769 -0.4082  4.4688  3.5744
  396MOL0     H53421   4.287  11.148   0.702  0.9075  0.6607 -1.6216
  396MOL0     H53422   3.774  10.980   0.650  0.2555  0.4231  3.1984
  396MOL0     H53423   3.699  10.765   0.628 -0.2175  0.5052  0.7900
  396MOL0     H53424   3.799  10.579   0.821  1.0230  2.6871 -2.2807
  396MOL0     H53425   3.685  10.462   0.764  0.2075 -2.4889 -0.5547
  396MOL0     H53426   3.968  10.388   0.781  0.3234  0.5904  1.2766
  396MOL0     H53427   3.828  10.343   0.885 -1.8536  2.2078 -0.4800
  396MOL0     H53428   3.870  10.283   0.577 -2.6372 -0.5644 -0.7435
  396MOL0     H53429   3.957  10.190   0.697  1.5440  1.7868  0.8007
  396MOL0     H53430   3.660  10.194   0.642  0.0706  0.8167 -0.5419
  396MOL0     H53431   3.721  10.149   0.807  0.1055  3.7589 -0.9747
  396MOL0     H53432   3.828   9.961   0.734 -2.2672 -0.1632  0.9225
  396MOL0     H53433   3.844  10.016   0.573 -0.9719  2.7106 -1.6268
  396MOL0     H53434   3.575   9.972   0.537 -1.0948 -0.3852  0.2948
  396MOL0     H53435   3.680   9.837   0.580  4.2331  0.7918  1.3487
  396MOL0     H53436   3.486   9.994   0.772 -1.3807 -0.2401  0.2571
  396MOL0     H53437   3.621   9.904   0.847 -0.0377  0.0291  0.3728
  396MOL0     H53438   3.429   9.778   0.826 -2.0003 -0.5094 -1.1564
  396MOL0     H53439   3.443   9.771   0.643  4.4722 -2.4365 -1.3635
  396MOL0     H53440   4.104  10.609   0.589  2.5918  2.8705 -0.1518
  396MOL0     H53441   4.189  10.835   0.619  0.8972  1.4129 -1.9206
  396MOL0     H53442   3.964  11.426   0.656 -0.1955 -3.7588 -2.0130
  396MOL0     H53443   4.123  11.613   0.712 -2.9928 -0.6754 -2.2990
  396MOL0     H53444   6.080  11.489   1.299 -5.7442 -0.5824 -0.9238
  396MOL0     H53445   6.293  11.503   1.229  0.9923  1.8626  0.6268
  396MOL0     H53446   6.557  11.416   0.743 -0.8942 -0.2870  2.6268
  396MOL0     H53447   6.804  11.437   0.665 -1.8984  0.5588 -0.9348
  396MOL0     H53448   7.178  11.625   0.812 -0.4467  3.8988 -0.8893
  396MOL0     H53449   7.080  11.619   0.967  2.4781 -2.0504  0.2886
  396MOL0     H53450   6.930  11.797   0.855  1.3840  2.0421  2.9195
  396MOL0     H53451   7.044  11.793   0.710  2.3216  2.1420  0.4147
  396MOL0     H53452   7.102  11.994   0.836  2.1847  0.8194 -0.2347
  396MOL0     H53453   7.228  11.879   0.854 -0.5922 -1.9639  1.2447
  396MOL0     H53454   7.149  11.829   1.083 -4.6069 -0.2750  4.8686
  396MOL0     H53455   7.172  11.999   1.060 -0.8539 -0.4755 -0.5836
  396MOL0     H53456   6.771  12.030   1.136 -1.3381 -2.4135  0.1541
  396MOL0     H53457   6.877  11.633   1.043 -3.2158  0.3392  1.7719
  396MOL0     H53458   6.756  11.606   1.201  0.9162  1.7286 -0.0042
  396MOL0     H53459   6.651  11.742   1.136 -0.7657 -1.4258 -2.4817
  396MOL0     H53460   6.590  11.575   1.188 -1.7645 -0.6135 -1.7656
  397MOL0     O53461   8.605   1.096   6.443 -0.2118 -0.3276 -1.2404
  397MOL0     C53462   8.542   1.025   6.519  0.5937 -0.3802  0.1918
  397MOL0     O53463   8.474   1.061   6.625 -0.1661  0.1508  0.1309
  397MOL0     C53464   8.481   1.185   6.690  0.2686 -0.2429  0.0756
  397MOL0     C53465   8.479   1.188   6.828 -0.0531  0.1470 -0.0884
  397MOL0     C53466   8.484   1.310   6.896 -0.4060 -0.0306  0.0203
  397MOL0     C53467   8.494   1.437   6.827  0.8611 -0.9400 -0.2628
  397MOL0     O53468   8.481   1.545   6.913  0.0926  0.2981 -0.4386
  397MOL0     C53469   8.452   1.669   6.856  0.1473 -0.1452  0.2436
  397MOL0     C53470   8.456   1.778   6.968 -0.5863 -0.0926  0.4453
  397MOL0     C53471   8.592   1.785   7.044 -0.2035 -0.0938 -0.5080
  397MOL0     C53472   8.601   1.908   7.134  0.2228 -0.6996 -0.0090
  397MOL0     C53473   8.742   1.961   7.141  0.0180  0.2693 -0.9136
  397MOL0     C53474   8.762   2.091   7.233  0.1773  0.6634  0.3471
  397MOL0     C53475   8.698   2.084   7.373  0.6749  0.1166 -0.4738
  397MOL0     C53476   8.760   2.177   7.475 -0.4907  0.2956  0.3959
  397MOL0     N53477   8.815   2.300   7.418 -0.0235 -0.1609  0.8457
  397MOL0     C53478   8.734   2.391   7.344 -0.0481 -0.1281 -0.4190
  397MOL0     C53479   8.824   2.482   7.296 -0.0092  0.0876 -0.1134
  397MOL0     C53480   8.809   2.593   7.191  0.0257 -0.3329  0.1181
  397MOL0     C53481   8.713   2.701   7.243 -0.4506  0.1428  0.6831
  397MOL0     C53482   8.732   2.829   7.155  0.7243  0.7602 -0.2855
  397MOL0     C53483   8.585   2.879   7.122 -0.5241 -1.1681  0.6833
  397MOL0     O53484   8.519   2.802   7.019  0.1410 -0.6176 -0.3271
  397MOL0     C53485   8.386   2.836   6.997  0.4297  1.0444 -0.1894
  397MOL0     C53486   8.337   2.964   6.997 -0.3644 -0.1586 -0.0455
  397MOL0     C53487   8.206   2.993   6.953 -0.2876  0.0155  0.5084
  397MOL0     C53488   8.127   2.891   6.887 -0.4226 -0.6548 -1.1578
  397MOL0     C53489   7.997   2.932   6.815  0.5635 -0.4708  0.2438
  397MOL0     O53490   7.928   2.846   6.735 -0.1884 -0.0011 -0.1874
  397MOL0     C53491   7.827   2.909   6.667 -0.2331  0.6994  0.5678
  397MOL0     C53492   7.703   2.848   6.683 -0.3482  0.1737  0.1986
  397MOL0     C53493   7.600   2.901   6.610  0.2044 -0.4585 -1.6188
  397MOL0     C53494   7.613   3.010   6.524 -0.6028  0.1754  0.2724
  397MOL0     O53495   7.516   3.084   6.463  0.1073 -0.1362  0.0694
  397MOL0     C53496   7.426   2.993   6.388 -0.3914 -0.5283 -0.3490
  397MOL0     C53497   7.497   2.951   6.258  0.8832  0.1678  0.4734
  397MOL0     C53498   7.574   2.823   6.279  0.0004  0.2741  0.9171
  397MOL0     C53499   7.628   2.784   6.139  0.0826  1.0917  0.4869
  397MOL0     C53500   7.655   2.633   6.110  0.0237  0.3346 -0.6424
  397MOL0     C53501   7.513   2.565   6.105 -0.0816 -0.3508  1.0695
  397MOL0     C53502   7.493   2.449   6.017 -0.0002 -0.2553 -0.2599
  397MOL0     C53503   7.344   2.432   5.967  0.4096 -0.5669 -0.2545
  397MOL0    Cl53504   7.229   2.404   6.099 -0.0923 -0.1718  0.6861
  397MOL0     C53505   7.739   3.063   6.508 -0.2231 -0.0348  0.2971
  397MOL0     C53506   7.853   3.009   6.570 -0.4913 -0.1093  0.4997
  397MOL0     O53507   7.963   3.050   6.838  0.1471  0.1198  0.6819
  397MOL0     C53508   8.170   2.757   6.889 -0.4538  0.4180  0.5644
  397MOL0     C53509   8.302   2.727   6.945 -0.0157  0.4320 -0.6674
  397MOL0     N53510   8.948   2.444   7.335  0.8468 -1.0867  0.2924
  397MOL0     N53511   8.946   2.350   7.413  0.3864 -0.7530 -0.1288
  397MOL0     C53512   8.494   1.437   6.689 -1.0421 -0.4114  0.0519
  397MOL0     C53513   8.490   1.312   6.624  0.1460  0.6292  0.6834
  397MOL0     C53514   8.528   0.889   6.478  0.1551 -0.1093 -0.1923
  397MOL0     C53515   8.420   0.813   6.530  0.1473  0.4446  0.8189
  397MOL0     C53516   8.406   0.674   6.492  0.5666 -0.0303  0.9883
  397MOL0     C53517   8.506   0.613   6.420  0.2400 -0.4349 -1.3934
  397MOL0     O53518   8.480   0.483   6.409 -0.9430  0.7409 -0.8749
  397MOL0     C53519   8.601   0.408   6.362  1.2094  0.5828 -0.8973
  397MOL0     C53520   8.588   0.254   6.377  0.4395  0.1672  0.6206
  397MOL0     C53521   8.489   0.189   6.267  0.0545  0.1868 -1.4191
  397MOL0     C53522   8.485   0.033   6.280  0.1445  0.2706 -0.3997
  397MOL0     C53523   8.360   0.002   6.213  0.7576 -0.6775  0.3097
  397MOL0     C53524   8.249  -0.005   6.156 -0.1923 -0.2186 -0.1870
  397MOL0     C53525   8.611   0.687   6.365 -1.2209  0.3194 -1.9483
  397MOL0     C53526   8.620   0.820   6.401 -0.0115  0.0028  0.1531
  397MOL0     C53527   8.747   0.892   6.345  0.2898  0.4144  0.0115
  397MOL0     H53528   8.485   1.098   6.889  2.4507  0.9092  0.9041
  397MOL0     H53529   8.476   1.319   7.003 -0.2088 -2.0065  0.2280
  397MOL0     H53530   8.532   1.692   6.785  0.3539  2.2665  1.1599
  397MOL0     H53531   8.354   1.676   6.808  0.8148 -0.5354 -1.2287
  397MOL0     H53532   8.378   1.749   7.040 -0.3090 -2.3035 -0.0528
  397MOL0     H53533   8.432   1.877   6.929 -2.8508 -0.2182  1.3531
  397MOL0     H53534   8.674   1.792   6.971  0.9172  2.7136  0.8795
  397MOL0     H53535   8.607   1.698   7.108  0.2238 -0.0490 -0.5405
  397MOL0     H53536   8.538   1.993   7.105  0.3563 -0.4102  0.5405
  397MOL0     H53537   8.561   1.876   7.231  2.0125 -0.3683  0.8664
  397MOL0     H53538   8.812   1.884   7.174 -1.7523 -1.0216 -0.0103
  397MOL0     H53539   8.778   1.992   7.042  1.6870  0.7369 -0.2113
  397MOL0     H53540   8.870   2.110   7.232 -0.1218  2.6776  0.9861
  397MOL0     H53541   8.729   2.177   7.175  1.1819  0.5146 -0.4893
  397MOL0     H53542   8.693   1.983   7.415  0.2575  0.7203  1.0012
  397MOL0     H53543   8.592   2.109   7.365 -0.0799 -2.8389 -1.0139
  397MOL0     H53544   8.692   2.198   7.558  0.4811  1.3542  0.9498
  397MOL0     H53545   8.848   2.121   7.510  0.3911  1.2077 -0.3027
  397MOL0     H53546   8.630   2.384   7.312 -0.2405 -0.3630  0.2365
  397MOL0     H53547   8.911   2.630   7.175  0.4185 -0.7665  1.4472
  397MOL0     H53548   8.772   2.558   7.094 -1.0116  0.7031  0.1139
  397MOL0     H53549   8.614   2.656   7.230 -1.0007  1.2936  0.7807
  397MOL0     H53550   8.732   2.724   7.348 -2.0735  2.3375  0.5533
  397MOL0     H53551   8.783   2.803   7.062  1.5606  0.8498  0.1299
  397MOL0     H53552   8.799   2.900   7.204 -0.2689 -0.3346  2.9499
  397MOL0     H53553   8.607   2.980   7.085  0.2196 -1.0176  1.5062
  397MOL0     H53554   8.533   2.881   7.218 -0.3088 -0.5371  0.7974
  397MOL0     H53555   8.399   3.047   7.030 -0.2013  0.0943 -0.9511
  397MOL0     H53556   8.157   3.089   6.957  0.5562  0.5125 -0.6234
  397MOL0     H53557   7.689   2.762   6.749 -3.0878 -0.8294 -1.5235
  397MOL0     H53558   7.500   2.860   6.618  0.0416  0.1722 -0.1708
  397MOL0     H53559   7.399   2.899   6.439 -0.9391 -1.5180 -2.3471
  397MOL0     H53560   7.330   3.043   6.372 -2.4923 -3.5474  1.5330
  397MOL0     H53561   7.420   2.928   6.184  0.4678 -2.6841  1.6434
  397MOL0     H53562   7.565   3.030   6.225  0.9288  0.1328  0.4834
  397MOL0     H53563   7.644   2.830   6.362  1.4151  3.3261 -0.3666
  397MOL0     H53564   7.509   2.740   6.307  2.1123 -3.0401 -2.9501
  397MOL0     H53565   7.725   2.823   6.105  0.3200 -0.4542 -0.7636
  397MOL0     H53566   7.560   2.829   6.067 -0.9695  2.9881  2.5533
  397MOL0     H53567   7.718   2.592   6.190 -1.3769  0.8009  0.7634
  397MOL0     H53568   7.712   2.619   6.018  0.5969  4.0754 -1.0140
  397MOL0     H53569   7.493   2.537   6.208  2.2911 -0.7719  1.4745
  397MOL0     H53570   7.432   2.635   6.084  1.0657  0.6206 -0.3715
  397MOL0     H53571   7.515   2.355   6.068 -1.9354  0.5681  2.3312
  397MOL0     H53572   7.568   2.458   5.938 -0.6538 -1.0896 -0.9865
  397MOL0     H53573   7.317   2.523   5.912 -0.8301 -1.9008 -1.9580
  397MOL0     H53574   7.331   2.348   5.899 -3.9628 -1.0850  0.9598
  397MOL0     H53575   7.757   3.146   6.440  3.2152 -1.0651 -0.2218
  397MOL0     H53576   7.951   3.054   6.564 -0.4628  0.1162  2.0506
  397MOL0     H53577   8.107   2.673   6.862 -1.3631  0.6901  1.7441
  397MOL0     H53578   8.336   2.624   6.957  0.4987  0.4918 -1.4943
  397MOL0     H53579   8.512   1.520   6.622  0.0110 -2.8567 -2.8999
  397MOL0     H53580   8.484   1.305   6.516 -0.8341  0.7183  0.7223
  397MOL0     H53581   8.350   0.861   6.597  0.1650  3.8264 -1.3536
  397MOL0     H53582   8.321   0.619   6.530 -1.2965 -0.8751 -3.6765
  397MOL0     H53583   8.686   0.440   6.424 -0.9661 -0.2555  2.7542
  397MOL0     H53584   8.625   0.437   6.259 -0.1256 -0.4585 -1.5243
  397MOL0     H53585   8.554   0.253   6.481  0.2497  2.6208  0.6414
  397MOL0     H53586   8.688   0.213   6.360  0.3834  0.4411 -0.4476
  397MOL0     H53587   8.528   0.212   6.167  1.5433 -0.9413 -1.1234
  397MOL0     H53588   8.391   0.236   6.276 -0.4305 -0.5210 -2.6744
  397MOL0     H53589   8.555  -0.024   6.219 -1.4049  0.0564 -2.0470
  397MOL0     H53590   8.489   0.005   6.386  1.5783 -0.8480 -0.7190
  397MOL0     H53591   8.151  -0.024   6.118 -1.0232  0.8869  1.3055
  397MOL0     H53592   8.692   0.645   6.307  0.5633  2.9644 -1.5338
  397MOL0     H53593   8.721   0.973   6.276 -0.2798  0.2592  0.0468
  397MOL0     H53594   8.806   0.932   6.428 -1.2080  0.5956  1.0154
  397MOL0     H53595   8.811   0.818   6.295 -0.7512 -0.9923  0.6907
  398MOL0     O53596   1.876   9.597   0.209  0.1802 -0.1515 -1.0716
  398MOL0     C53597   1.880   9.716   0.184 -0.2621 -0.1451  0.0313
  398MOL0     O53598   1.912   9.772   0.062 -0.8556  0.0482  0.1702
  398MOL0     C53599   1.944   9.699  -0.047 -0.3026 -0.1695 -0.1355
  398MOL0     C53600   1.858   9.600  -0.101 -0.6395  0.0790  0.4438
  398MOL0     C53601   1.898   9.544  -0.226  0.2111 -0.8077  0.5001
  398MOL0     C53602   2.028   9.567  -0.280 -0.3145 -0.7762  1.0644
  398MOL0     O53603   2.050   9.511  -0.398  0.4139 -0.1553 -0.1135
  398MOL0     C53604   2.179   9.450  -0.411  0.3165 -1.0733 -0.0846
  398MOL0     C53605   2.166   9.317  -0.492 -0.2528 -1.0595  1.0646
  398MOL0     C53606   2.196   9.338  -0.641  0.6309  0.1282  0.3606
  398MOL0     C53607   2.166   9.216  -0.731  0.1980  0.3488 -0.2888
  398MOL0     C53608   2.142   9.250  -0.879 -0.0940  0.4882 -0.5956
  398MOL0     C53609   2.124   9.124  -0.964 -0.5175  0.6562  1.0263
  398MOL0     C53610   2.197   9.117  -1.097 -0.0805 -0.8665 -0.3355
  398MOL0     C53611   2.353   9.124  -1.077 -0.2433 -0.3831 -0.7229
  398MOL0     N53612   2.419   9.017  -0.995  0.2813  0.4430  0.7616
  398MOL0     C53613   2.422   8.884  -1.021 -0.3084  0.6772 -0.1424
  398MOL0     C53614   2.500   8.826  -0.918  0.0041 -0.1903  0.0139
  398MOL0     C53615   2.528   8.686  -0.878  0.4662 -0.0771 -0.4577
  398MOL0     C53616   2.675   8.677  -0.845  0.5264 -0.1215 -0.5656
  398MOL0     C53617   2.708   8.536  -0.782  0.7280  0.3151 -0.2962
  398MOL0     C53618   2.852   8.526  -0.726 -0.5687 -0.0140  0.5589
  398MOL0     O53619   2.865   8.594  -0.605 -0.3140  0.2913  0.6026
  398MOL0     C53620   2.860   8.531  -0.482 -0.0528 -0.2164  0.6980
  398MOL0     C53621   2.911   8.590  -0.373 -1.0900  0.1907 -0.6970
  398MOL0     C53622   2.910   8.524  -0.242  0.4905 -0.1632  0.6836
  398MOL0     C53623   2.838   8.403  -0.235 -0.0866  0.0619 -0.8099
  398MOL0     C53624   2.812   8.335  -0.105 -0.8973  0.3502 -0.3463
  398MOL0     O53625   2.760   8.209  -0.096  0.0058  0.0106  0.6337
  398MOL0     C53626   2.776   8.146   0.019 -0.1795 -0.2984  0.2501
  398MOL0     C53627   2.897   8.092   0.063 -0.1849 -0.0938 -0.1731
  398MOL0     C53628   2.913   8.034   0.189  0.7160  0.0754 -0.2453
  398MOL0     C53629   2.808   8.035   0.283  0.0887 -0.1096  0.0694
  398MOL0     O53630   2.833   7.966   0.404  0.1239  0.5577  0.2730
  398MOL0     C53631   2.730   7.984   0.503 -0.0839 -0.4847  0.1114
  398MOL0     C53632   2.783   7.951   0.639 -0.2289  0.0142 -0.2393
  398MOL0     C53633   2.860   7.817   0.654 -0.8550  0.3423 -1.2382
  398MOL0     C53634   2.784   7.692   0.620 -0.3143 -0.6304  0.6559
  398MOL0     C53635   2.871   7.571   0.636 -0.3409  1.2951  0.2511
  398MOL0     C53636   2.926   7.547   0.778 -0.1279  0.8781 -0.2924
  398MOL0     C53637   2.959   7.397   0.790  0.0137  1.0106  0.1967
  398MOL0     C53638   2.833   7.331   0.848  0.1878  0.9219  0.0577
  398MOL0    Cl53639   2.835   7.148   0.873  0.3467  0.0629 -0.2914
  398MOL0     C53640   2.688   8.078   0.234 -0.0468  0.7907 -0.1257
  398MOL0     C53641   2.673   8.138   0.108 -0.4375 -0.6364  0.0213
  398MOL0     O53642   2.841   8.406  -0.011 -0.1581  0.5085  0.5214
  398MOL0     C53643   2.787   8.348  -0.343 -0.1566  0.1046 -0.0770
  398MOL0     C53644   2.810   8.399  -0.473  0.6298  0.3111 -0.6188
  398MOL0     N53645   2.561   8.933  -0.854 -0.5406  0.5278  0.7480
  398MOL0     N53646   2.513   9.040  -0.898 -0.0779 -0.1271  0.2549
  398MOL0     C53647   2.110   9.660  -0.219  0.2698 -0.9353 -0.8195
  398MOL0     C53648   2.067   9.728  -0.104 -0.1191  0.4108  0.0518
  398MOL0     C53649   1.861   9.818   0.295 -0.0362 -0.3609 -0.1676
  398MOL0     C53650   1.903   9.950   0.277  1.0770  0.6939 -0.6043
  398MOL0     C53651   1.858  10.052   0.361 -0.6488 -0.2114 -0.8698
  398MOL0     C53652   1.781  10.017   0.472  1.2215 -0.1846 -1.1544
  398MOL0     O53653   1.747  10.095   0.583  0.3287  0.2126 -0.7671
  398MOL0     C53654   1.832  10.208   0.602 -0.0816  0.7537 -0.3301
  398MOL0     C53655   1.815  10.275   0.736 -0.0084 -0.5299  1.0814
  398MOL0     C53656   1.691  10.364   0.742  0.1633 -0.5654 -0.3949
  398MOL0     C53657   1.631  10.398   0.869 -0.0323 -0.4109  0.5018
  398MOL0     C53658   1.711  10.510   0.921  0.7964 -0.1379  0.1824
  398MOL0     C53659   1.769  10.614   0.959  0.7861  0.2100  0.2949
  398MOL0     C53660   1.760   9.880   0.504 -0.0972 -0.7888 -0.6231
  398MOL0     C53661   1.794   9.785   0.418 -0.4979 -0.1535  1.0104
  398MOL0     C53662   1.737   9.656   0.450  0.3517  0.4327  0.2962
  398MOL0     H53663   1.756   9.579  -0.071 -0.9285 -1.1342 -1.2582
  398MOL0     H53664   1.823   9.478  -0.270  0.0923 -0.4463  0.1518
  398MOL0     H53665   2.251   9.514  -0.462  1.3981 -0.5344  2.0181
  398MOL0     H53666   2.232   9.433  -0.317 -0.6235  0.2352  0.7107
  398MOL0     H53667   2.060   9.288  -0.490 -1.1751  1.2027 -3.0499
  398MOL0     H53668   2.242   9.247  -0.456  1.4666 -0.3163 -0.8952
  398MOL0     H53669   2.304   9.351  -0.652  0.5124  1.0692  0.1606
  398MOL0     H53670   2.145   9.430  -0.673  0.9418  0.3029  0.3550
  398MOL0     H53671   2.235   9.132  -0.725 -0.5533 -0.3747 -1.3524
  398MOL0     H53672   2.068   9.186  -0.691 -0.3752 -0.2075 -2.0062
  398MOL0     H53673   2.049   9.308  -0.888  1.3438  3.2089  0.9187
  398MOL0     H53674   2.221   9.323  -0.899  1.7271  0.3920  4.6428
  398MOL0     H53675   2.151   9.041  -0.898 -3.6807  0.6011  2.4741
  398MOL0     H53676   2.017   9.112  -0.985 -0.3088 -5.0128  1.7496
  398MOL0     H53677   2.170   9.205  -1.157 -0.2671 -2.0190 -2.0242
  398MOL0     H53678   2.168   9.026  -1.150 -2.4880 -1.4030  1.7001
  398MOL0     H53679   2.397   9.115  -1.176  1.0152 -2.1162 -0.0532
  398MOL0     H53680   2.382   9.215  -1.024 -0.7062 -2.5584  3.7772
  398MOL0     H53681   2.347   8.838  -1.084  0.3667  0.1759 -0.6049
  398MOL0     H53682   2.461   8.655  -0.797  0.7609  4.6381  1.9228
  398MOL0     H53683   2.502   8.627  -0.966  0.1761 -2.2857  1.0234
  398MOL0     H53684   2.736   8.699  -0.933 -1.0153 -1.3421 -1.9949
  398MOL0     H53685   2.709   8.749  -0.769 -1.9275  1.5385 -0.9363
  398MOL0     H53686   2.697   8.458  -0.858 -2.3855  2.9428 -2.8764
  398MOL0     H53687   2.648   8.518  -0.693  0.0667 -1.5973 -1.0855
  398MOL0     H53688   2.921   8.570  -0.797  0.8520 -3.4227 -0.3534
  398MOL0     H53689   2.890   8.424  -0.724  2.8634  1.1616  1.6014
  398MOL0     H53690   2.956   8.689  -0.371  0.5315 -0.5130 -0.7585
  398MOL0     H53691   2.959   8.565  -0.154  2.0569 -0.7548  0.1241
  398MOL0     H53692   2.990   8.095   0.006  0.7233 -0.8966  1.1909
  398MOL0     H53693   3.017   8.012   0.212  1.9266  3.1661 -2.1688
  398MOL0     H53694   2.692   8.086   0.493 -0.3718 -0.4679  1.2294
  398MOL0     H53695   2.648   7.915   0.481  2.0926 -3.5908  1.1454
  398MOL0     H53696   2.846   8.032   0.678  3.1648 -0.5951 -3.7903
  398MOL0     H53697   2.694   7.951   0.703  1.7855  4.2942  3.0947
  398MOL0     H53698   2.958   7.823   0.605  0.7290  2.1541  1.8086
  398MOL0     H53699   2.875   7.806   0.762 -3.1505  2.1560 -0.6447
  398MOL0     H53700   2.744   7.687   0.518 -1.3294 -1.9299  1.0787
  398MOL0     H53701   2.699   7.675   0.688  2.1808 -3.4807  3.4339
  398MOL0     H53702   2.955   7.558   0.567 -0.3838 -1.0412  0.5366
  398MOL0     H53703   2.802   7.494   0.599 -0.3086  1.3757  0.0262
  398MOL0     H53704   3.014   7.611   0.791 -0.4797  1.0214  1.5570
  398MOL0     H53705   2.864   7.584   0.860  0.4531 -0.8489  0.9944
  398MOL0     H53706   3.034   7.396   0.869 -0.2654 -0.2125  0.4781
  398MOL0     H53707   2.968   7.344   0.694 -2.0086 -0.4387  0.7518
  398MOL0     H53708   2.810   7.377   0.944  0.4257  1.4490 -0.1334
  398MOL0     H53709   2.752   7.350   0.777  0.0731 -0.7740 -0.3047
  398MOL0     H53710   2.603   8.068   0.300  0.1051 -0.7319 -0.1342
  398MOL0     H53711   2.579   8.189   0.085  0.7905  2.1619  0.7479
  398MOL0     H53712   2.733   8.256  -0.328  1.3639 -0.4384  2.6618
  398MOL0     H53713   2.781   8.329  -0.551  1.7910 -1.9220  0.8510
  398MOL0     H53714   2.211   9.695  -0.240  2.1510 -1.0476  5.7466
  398MOL0     H53715   2.119   9.799  -0.040  1.1140 -2.0844  2.0104
  398MOL0     H53716   1.933   9.973   0.175 -3.2251 -0.4539 -2.3598
  398MOL0     H53717   1.884  10.153   0.329  0.6040  0.4348  1.9036
  398MOL0     H53718   1.811  10.274   0.517 -2.8318 -1.3821 -1.4949
  398MOL0     H53719   1.934  10.171   0.598 -1.3390 -3.6350  1.8772
  398MOL0     H53720   1.904  10.337   0.747 -0.3330 -0.5484  5.3953
  398MOL0     H53721   1.816  10.201   0.816 -0.5441 -1.4208  0.2935
  398MOL0     H53722   1.624  10.302   0.681  1.0263 -1.5834 -0.3273
  398MOL0     H53723   1.716  10.457   0.689  1.4279  1.0275  2.7916
  398MOL0     H53724   1.538  10.445   0.834  0.4645 -0.3275 -0.7263
  398MOL0     H53725   1.610  10.322   0.945 -1.0664  1.2362  1.9580
  398MOL0     H53726   1.826  10.697   0.998  1.5683 -0.9378  1.6922
  398MOL0     H53727   1.710   9.851   0.595 -0.7610 -0.5377 -0.9000
  398MOL0     H53728   1.652   9.668   0.518  1.7524 -0.1923  2.2647
  398MOL0     H53729   1.690   9.600   0.368 -1.3451 -0.0037  1.5183
  398MOL0     H53730   1.813   9.601   0.507 -0.1153  1.3525  1.8576
  399MOL0     O53731   2.164   1.651   7.940 -0.1505  0.1063  0.2644
  399MOL0     C53732   2.220   1.758   7.912  0.0957  0.2333  0.1284
  399MOL0     O53733   2.334   1.775   7.848 -0.0242 -0.0124  0.0792
  399MOL0     C53734   2.415   1.659   7.826 -0.6209  1.1442  0.3878
  399MOL0     C53735   2.556   1.663   7.839 -0.6591 -0.3687  0.7207
  399MOL0     C53736   2.632   1.552   7.814 -0.2176 -0.1245 -0.0709
  399MOL0     C53737   2.573   1.430   7.760 -0.3342 -0.5641 -0.1969
  399MOL0     O53738   2.666   1.332   7.720  0.4486  0.0737 -1.1403
  399MOL0     C53739   2.656   1.203   7.779 -0.1872  0.8642  0.7840
  399MOL0     C53740   2.757   1.102   7.716 -0.4339 -0.1550 -0.3046
  399MOL0     C53741   2.725   1.072   7.566  0.1556  0.1692 -0.2848
  399MOL0     C53742   2.807   0.954   7.519 -0.9593 -0.6063 -0.7932
  399MOL0     C53743   2.783   0.922   7.372  0.0973 -0.1608  0.8767
  399MOL0     C53744   2.857   0.792   7.338 -0.4443 -0.0109 -0.5684
  399MOL0     C53745   2.861   0.788   7.178 -0.5320  0.0921  0.1013
  399MOL0     C53746   2.938   0.671   7.124 -0.3799  0.1875  0.9618
  399MOL0     N53747   2.982   0.698   6.985 -0.1842 -0.0337 -0.5750
  399MOL0     C53748   2.903   0.672   6.875  0.0453 -0.5241  0.8825
  399MOL0     C53749   2.982   0.653   6.768  0.2857  0.3754 -0.5185
  399MOL0     C53750   2.935   0.618   6.623 -0.9046 -0.3261  0.5391
  399MOL0     C53751   2.887   0.745   6.550  0.7431  0.3652 -0.7062
  399MOL0     C53752   2.850   0.699   6.405 -0.7645 -1.2484 -0.1485
  399MOL0     C53753   2.803   0.813   6.310  0.1146 -0.7402  0.0990
  399MOL0     O53754   2.677   0.869   6.354  1.0508 -0.0067 -0.3879
  399MOL0     C53755   2.600   0.944   6.270  0.4215 -1.0461 -0.0839
  399MOL0     C53756   2.660   1.003   6.155 -0.2169  0.4654  0.8797
  399MOL0     C53757   2.589   1.095   6.074  0.2010  0.2312 -0.3054
  399MOL0     C53758   2.453   1.123   6.109 -0.7233  0.7793 -0.0587
  399MOL0     C53759   2.376   1.217   6.028  0.4507  0.2232 -0.8228
  399MOL0     O53760   2.238   1.212   6.037  0.6705  0.2068 -0.3211
  399MOL0     C53761   2.152   1.276   5.951 -0.7853 -0.7518  0.0280
  399MOL0     C53762   2.063   1.194   5.886 -0.1762 -0.3290  1.1840
  399MOL0     C53763   1.964   1.250   5.805 -1.2284  0.2144 -0.2729
  399MOL0     C53764   1.954   1.388   5.777  0.9452 -0.0973  0.8819
  399MOL0     O53765   1.839   1.422   5.700 -0.6287 -0.4015  0.2152
  399MOL0     C53766   1.810   1.570   5.685  0.5719 -0.6736  1.4039
  399MOL0     C53767   1.734   1.632   5.806  0.9454  0.9547 -0.2917
  399MOL0     C53768   1.710   1.782   5.799  0.4262 -0.3871 -0.1798
  399MOL0     C53769   1.612   1.816   5.683 -1.0857 -0.4707 -0.0352
  399MOL0     C53770   1.588   1.966   5.679 -0.8858 -0.7441 -0.5871
  399MOL0     C53771   1.474   2.002   5.590 -0.5058 -0.7146  0.2625
  399MOL0     C53772   1.452   2.156   5.603  1.1194 -0.2484 -0.0242
  399MOL0     C53773   1.365   2.207   5.484  0.3750  0.4635 -0.2831
  399MOL0    Cl53774   1.349   2.386   5.478 -0.2602 -0.0904 -0.7766
  399MOL0     C53775   2.044   1.475   5.841  0.4736  0.1360  0.1090
  399MOL0     C53776   2.143   1.420   5.920  0.1780 -0.4332 -0.5615
  399MOL0     O53777   2.435   1.295   5.957 -0.5540  0.4192  0.0966
  399MOL0     C53778   2.397   1.062   6.216 -1.6162  1.7693  0.0459
  399MOL0     C53779   2.468   0.975   6.295  1.3057  0.7681  0.9785
  399MOL0     N53780   3.116   0.657   6.815  0.1470  0.3009 -0.1179
  399MOL0     N53781   3.111   0.702   6.939 -0.4048  0.7170 -0.0540
  399MOL0     C53782   2.434   1.434   7.737  0.2550 -1.3440  0.7551
  399MOL0     C53783   2.359   1.541   7.776  0.1066  0.1793  0.2191
  399MOL0     C53784   2.139   1.878   7.915  0.0380  0.4386  0.3588
  399MOL0     C53785   2.190   1.996   7.865  0.3536  0.1297 -0.7777
  399MOL0     C53786   2.127   2.122   7.863  0.2156 -0.0622  0.0047
  399MOL0     C53787   1.999   2.133   7.917 -0.2410  0.7547  1.0001
  399MOL0     O53788   1.939   2.252   7.934  0.3008  0.8034 -0.4088
  399MOL0     C53789   2.005   2.374   7.915  1.1372  0.0711 -0.3283
  399MOL0     C53790   1.895   2.488   7.927  0.0893  0.7813 -0.0008
  399MOL0     C53791   1.956   2.626   7.898  0.3550  0.6842  0.4472
  399MOL0     C53792   1.845   2.722   7.921  0.3756 -0.3948  0.6797
  399MOL0     C53793   1.896   2.864   7.926  0.6489  0.9797  0.6525
  399MOL0     C53794   1.922   2.976   7.924 -0.0841 -0.6348 -0.0396
  399MOL0     C53795   1.948   2.024   7.989  0.3404  0.2246  0.4209
  399MOL0     C53796   2.014   1.897   7.981  0.2239  0.1636  0.2558
  399MOL0     C53797   1.930   1.786   8.042  1.1955  0.5947  0.1184
  399MOL0     H53798   2.598   1.760   7.863 -3.2480  0.9951  0.1989
  399MOL0     H53799   2.740   1.559   7.822 -0.0761  0.0887 -1.8643
  399MOL0     H53800   2.680   1.222   7.884  0.6646 -0.0325  0.7720
  399MOL0     H53801   2.555   1.168   7.757  0.0747  2.0204 -2.9630
  399MOL0     H53802   2.738   1.005   7.762 -1.6435 -0.1534 -0.7519
  399MOL0     H53803   2.860   1.134   7.734 -0.3266 -1.1246  0.9829
  399MOL0     H53804   2.754   1.155   7.500 -0.1589  1.2802  0.9402
  399MOL0     H53805   2.622   1.039   7.547  1.6234 -5.3077 -0.2877
  399MOL0     H53806   2.914   0.977   7.515 -0.9264 -0.9119 -2.2984
  399MOL0     H53807   2.776   0.863   7.571 -2.6988 -0.9654 -2.3643
  399MOL0     H53808   2.676   0.913   7.353 -0.5782  1.1019  3.6101
  399MOL0     H53809   2.824   1.006   7.315  0.1684 -0.9929 -0.3464
  399MOL0     H53810   2.956   0.795   7.384 -0.7587  0.8560  0.0853
  399MOL0     H53811   2.793   0.715   7.382 -2.4621  1.5611 -0.6065
  399MOL0     H53812   2.888   0.884   7.134 -3.2119  0.7156 -0.3274
  399MOL0     H53813   2.761   0.763   7.143 -0.3628 -1.2975  0.5338
  399MOL0     H53814   3.036   0.658   7.172 -0.8093  1.6362  2.3110
  399MOL0     H53815   2.883   0.577   7.134 -0.9212  0.5399  1.3489
  399MOL0     H53816   2.794   0.667   6.875 -0.0636 -0.2677 -2.4221
  399MOL0     H53817   3.012   0.570   6.562 -0.9784  0.0197  0.1705
  399MOL0     H53818   2.844   0.558   6.623 -2.2521  1.6268  1.6630
  399MOL0     H53819   2.807   0.786   6.611 -1.0515 -3.5765 -0.0910
  399MOL0     H53820   2.971   0.816   6.549  0.4563  0.7029 -0.8385
  399MOL0     H53821   2.775   0.619   6.403 -0.1620 -1.8843  1.1088
  399MOL0     H53822   2.938   0.662   6.352 -2.3929 -4.4232 -0.8866
  399MOL0     H53823   2.779   0.777   6.209  0.4229  2.2045 -1.1143
  399MOL0     H53824   2.880   0.889   6.297 -2.5354  2.6599  2.4597
  399MOL0     H53825   2.765   0.983   6.140 -0.7144 -4.6976  2.3035
  399MOL0     H53826   2.640   1.156   6.000  1.3608 -0.2933  0.0396
  399MOL0     H53827   2.057   1.086   5.886 -0.3248 -0.3256  0.3731
  399MOL0     H53828   1.901   1.175   5.759  0.8521 -2.3402  0.7575
  399MOL0     H53829   1.895   1.630   5.653 -0.0314 -0.3327  0.3871
  399MOL0     H53830   1.741   1.551   5.602 -0.1428 -3.3012  2.4894
  399MOL0     H53831   1.643   1.576   5.831  0.2558  2.7926  1.6814
  399MOL0     H53832   1.789   1.616   5.899  0.4184  0.0852 -0.1173
  399MOL0     H53833   1.677   1.819   5.897 -3.1516  0.2095 -1.4402
  399MOL0     H53834   1.798   1.841   5.773  2.3030 -2.5820  0.8621
  399MOL0     H53835   1.516   1.768   5.703 -2.6863  2.4583 -0.1820
  399MOL0     H53836   1.652   1.783   5.586 -2.1903 -1.2837 -0.2317
  399MOL0     H53837   1.687   2.003   5.650  0.2369 -1.2240  2.3156
  399MOL0     H53838   1.569   1.999   5.782 -0.6050  0.9290 -1.0428
  399MOL0     H53839   1.489   1.974   5.486 -2.3608  1.6217 -0.7134
  399MOL0     H53840   1.378   1.953   5.610 -0.9392 -0.8699 -1.9851
  399MOL0     H53841   1.549   2.206   5.612  1.4800 -1.0349  0.4918
  399MOL0     H53842   1.401   2.171   5.698 -0.8575  1.0507 -1.2122
  399MOL0     H53843   1.422   2.180   5.395 -0.0931 -0.7270 -0.2383
  399MOL0     H53844   1.267   2.159   5.493  1.8103 -2.3557  1.6671
  399MOL0     H53845   2.062   1.581   5.833  2.7417 -0.0808  1.2588
  399MOL0     H53846   2.207   1.490   5.974 -2.9681  3.2519 -1.2130
  399MOL0     H53847   2.292   1.071   6.244 -1.7768 -3.2204  1.9253
  399MOL0     H53848   2.415   0.939   6.382 -1.8443  0.9409 -0.6863
  399MOL0     H53849   2.388   1.351   7.684  1.5240 -0.6208 -1.6070
  399MOL0     H53850   2.257   1.544   7.740  0.0656  1.0028  0.3741
  399MOL0     H53851   2.293   2.004   7.829  2.1927 -3.0986  2.9884
  399MOL0     H53852   2.193   2.200   7.828  3.8194 -1.3824  3.1284
  399MOL0     H53853   2.060   2.364   7.821  0.6864 -0.1037 -0.5808
  399MOL0     H53854   2.086   2.379   7.988  1.8547 -1.2701 -0.9969
  399MOL0     H53855   1.867   2.487   8.033  2.3163  3.1954  0.7237
  399MOL0     H53856   1.816   2.461   7.856  1.3143 -1.1499 -0.6825
  399MOL0     H53857   2.001   2.629   7.798 -3.7022 -3.7047 -1.8761
  399MOL0     H53858   2.031   2.642   7.977  0.8816  1.3691 -0.1814
  399MOL0     H53859   1.774   2.729   7.838  4.3385  1.7010 -2.9326
  399MOL0     H53860   1.794   2.697   8.014 -0.4622 -1.1685  0.0325
  399MOL0     H53861   1.956   3.077   7.928  0.7545 -0.8397 -1.1819
  399MOL0     H53862   1.849   2.037   8.032 -0.5044 -2.3180 -0.5376
  399MOL0     H53863   1.834   1.830   8.068  1.6785  1.7681 -0.0252
  399MOL0     H53864   1.904   1.701   7.978 -0.3742  0.9717  0.2383
  399MOL0     H53865   1.978   1.741   8.130  0.1104 -1.3032 -0.2146
  400MOL0     O53866  10.583   4.398   9.790 -0.1569 -0.0990 -0.2001
  400MOL0     C53867  10.594   4.477   9.882 -0.0937  0.7276 -0.1881
  400MOL0     O53868  10.665   4.597   9.882  0.3690  0.3548  0.9976
  400MOL0     C53869  10.726   4.636   9.765 -0.0445 -0.6449  0.3607
  400MOL0     C53870  10.792   4.564   9.672 -0.1827  0.8194  0.3558
  400MOL0     C53871  10.807   4.601   9.545 -0.2769  0.4824  0.9695
  400MOL0     C53872  10.771   4.725   9.493 -0.0835  0.8522 -0.1141
  400MOL0     O53873  10.805   4.756   9.363  0.2980  0.3093  0.1176
  400MOL0     C53874  10.729   4.858   9.304 -0.3695  0.1847  0.7237
  400MOL0     C53875  10.774   4.867   9.151 -0.2839  0.4815 -0.1352
  400MOL0     C53876  10.916   4.925   9.137  1.5958 -0.0733 -0.1348
  400MOL0     C53877  10.928   5.072   9.108 -0.0939  0.1822  0.0519
  400MOL0     C53878  10.907   5.105   8.956 -0.5385 -0.4947 -0.6012
  400MOL0     C53879  10.947   5.253   8.916 -0.5112  0.2497 -0.4365
  400MOL0     C53880  10.873   5.362   9.000 -0.7352 -0.5705  0.6552
  400MOL0     C53881  10.917   5.504   8.992  0.1019 -0.2746  1.1010
  400MOL0     N53882  10.931   5.537   8.841 -0.1512 -0.2838 -0.1207
  400MOL0     C53883  11.048   5.530   8.771 -0.3999 -0.3293 -0.0059
  400MOL0     C53884  11.017   5.565   8.644  0.8419  0.0349 -0.2178
  400MOL0     C53885  11.115   5.568   8.534 -0.4358  0.2022  0.0135
  400MOL0     C53886  11.110   5.690   8.452 -0.4276  0.0031  0.6045
  400MOL0     C53887  11.189   5.695   8.322 -0.5178  0.1693  0.2681
  400MOL0     C53888  11.193   5.834   8.246 -0.3974  0.5105 -0.1374
  400MOL0     O53889  11.276   5.823   8.126 -0.1236  0.8324  0.7342
  400MOL0     C53890  11.251   5.910   8.024 -0.3732 -0.1433 -0.8278
  400MOL0     C53891  11.268   5.871   7.894 -0.1472  0.2850 -0.4626
  400MOL0     C53892  11.237   5.952   7.787  0.3539  0.3670  0.3707
  400MOL0     C53893  11.207   6.089   7.810  0.1061  0.7852 -0.9758
  400MOL0     C53894  11.194   6.184   7.699 -0.3168  0.6064  0.1282
  400MOL0     O53895  11.204   6.318   7.729 -0.3333 -0.5148 -0.5660
  400MOL0     C53896  11.195   6.405   7.624 -1.4204  0.9447 -0.4072
  400MOL0     C53897  11.137   6.533   7.663 -0.3456 -0.0983 -0.1268
  400MOL0     C53898  11.112   6.640   7.576 -0.4276  0.1189  0.3762
  400MOL0     C53899  11.128   6.620   7.438  0.0953  0.7091 -0.6874
  400MOL0     O53900  11.060   6.711   7.361  0.3210 -0.0902  0.0120
  400MOL0     C53901  11.082   6.698   7.221 -0.1355  0.3197  1.1205
  400MOL0     C53902  11.020   6.814   7.145  0.4170  0.1583 -0.8974
  400MOL0     C53903  11.067   6.960   7.189  0.5262  0.9855 -0.2280
  400MOL0     C53904  10.981   7.074   7.141 -0.6479 -0.3036 -0.1802
  400MOL0     C53905  11.031   7.202   7.208  0.8926  0.1674  0.0445
  400MOL0     C53906  10.927   7.312   7.193  0.5097 -0.8833  0.6904
  400MOL0     C53907  10.960   7.424   7.285  0.5095  0.0747  0.2855
  400MOL0     C53908  11.069   7.518   7.236 -0.3948  0.7993 -0.8562
  400MOL0    Cl53909  11.069   7.679   7.314 -0.1565  0.4458  0.7819
  400MOL0     C53910  11.187   6.495   7.395 -1.0347  0.5437  0.1331
  400MOL0     C53911  11.230   6.384   7.491 -0.3872 -0.4596  0.3001
  400MOL0     O53912  11.173   6.135   7.588  0.2836  0.0662  0.0516
  400MOL0     C53913  11.181   6.129   7.948  0.3922 -0.4174  0.8168
  400MOL0     C53914  11.198   6.039   8.057 -0.9935  0.7611  0.4087
  400MOL0     N53915  10.883   5.594   8.629 -0.2242 -0.1793  0.1925
  400MOL0     N53916  10.836   5.572   8.750  0.4195 -0.2293 -0.5203
  400MOL0     C53917  10.704   4.810   9.582  0.4398  0.0631  0.2819
  400MOL0     C53918  10.686   4.760   9.714  0.1424 -0.1674 -0.4934
  400MOL0     C53919  10.500   4.449   9.999 -0.4742 -0.0140  0.4259
  400MOL0     C53920  10.379   4.371   9.976  0.0765 -0.2628  0.0074
  400MOL0     C53921  10.268   4.367  10.071 -0.6937  0.7490 -0.3936
  400MOL0     C53922  10.285   4.429  10.197 -1.8434 -0.7603  0.2541
  400MOL0     O53923  10.197   4.440  10.302 -0.3753 -0.2191 -0.4087
  400MOL0     C53924  10.103   4.331  10.303  0.0736 -0.4200 -1.1552
  400MOL0     C53925  10.018   4.353  10.431 -0.0149  0.2295  0.7098
  400MOL0     C53926   9.910   4.457  10.427 -0.1369 -0.1596 -0.1136
  400MOL0     C53927   9.836   4.457  10.296  0.8042 -0.0287 -0.8198
  400MOL0     C53928   9.697   4.519  10.314  0.2720 -0.6132 -0.6590
  400MOL0     C53929   9.593   4.583  10.325  0.2954  0.2134 -0.3523
  400MOL0     C53930  10.404   4.492  10.212  0.6721 -0.4057  1.2000
  400MOL0     C53931  10.513   4.510  10.125  0.1154  1.3628 -0.1421
  400MOL0     C53932  10.638   4.582  10.173  0.0293  0.2370 -0.3134
  400MOL0     H53933  10.823   4.468   9.712 -3.1590  0.6386  2.5495
  400MOL0     H53934  10.860   4.525   9.487  0.8963  2.1141 -0.2094
  400MOL0     H53935  10.621   4.842   9.309 -0.4804  0.2023 -0.9872
  400MOL0     H53936  10.746   4.954   9.355 -2.2539 -0.0007  1.7642
  400MOL0     H53937  10.701   4.917   9.086  0.9311 -1.4734 -3.2262
  400MOL0     H53938  10.775   4.767   9.108  0.4165  0.7301 -0.7169
  400MOL0     H53939  10.971   4.871   9.059  0.7100  1.4723 -1.8835
  400MOL0     H53940  10.969   4.907   9.231  1.6656  3.5822  0.6451
  400MOL0     H53941  10.853   5.116   9.174 -0.4224 -3.9204  2.8061
  400MOL0     H53942  11.021   5.121   9.138 -0.2903 -0.3060  1.5805
  400MOL0     H53943  10.973   5.045   8.893  1.1200 -0.4197  0.9756
  400MOL0     H53944  10.799   5.093   8.947 -1.0209 -0.1130  3.1032
  400MOL0     H53945  11.055   5.262   8.924 -0.5787  0.3681  0.5176
  400MOL0     H53946  10.918   5.268   8.811 -1.0128  2.6461 -0.0185
  400MOL0     H53947  10.893   5.333   9.104  4.7263 -0.0952  0.0106
  400MOL0     H53948  10.766   5.371   8.978 -0.2968  3.1496 -0.7488
  400MOL0     H53949  10.866   5.577   9.057 -0.3544  0.1337  0.3004
  400MOL0     H53950  11.012   5.495   9.045  0.3787  0.7991  0.8173
  400MOL0     H53951  11.148   5.501   8.802  0.0825  0.6766 -0.5709
  400MOL0     H53952  11.213   5.570   8.583 -1.2841  0.3318  1.8131
  400MOL0     H53953  11.117   5.472   8.482  3.3756 -0.7165  1.5183
  400MOL0     H53954  11.006   5.713   8.430 -1.3818 -2.2340  2.3145
  400MOL0     H53955  11.145   5.769   8.519 -3.0770 -0.7583  3.1052
  400MOL0     H53956  11.142   5.621   8.257 -3.7262  2.1046  0.1806
  400MOL0     H53957  11.292   5.665   8.342  1.2145  3.7161 -2.0780
  400MOL0     H53958  11.237   5.915   8.304  1.9491 -0.2978 -0.6796
  400MOL0     H53959  11.089   5.853   8.217 -1.2381 -1.6016  1.2894
  400MOL0     H53960  11.316   5.778   7.866  2.9545  1.2668  1.1443
  400MOL0     H53961  11.243   5.904   7.690 -2.2084 -2.2387  1.3529
  400MOL0     H53962  11.123   6.545   7.770 -0.2677 -0.0666 -0.1204
  400MOL0     H53963  11.074   6.733   7.618 -0.3192 -0.6418  2.2771
  400MOL0     H53964  11.189   6.705   7.203  0.0387  1.2495  2.3891
  400MOL0     H53965  11.033   6.607   7.183  1.1077 -0.1948  0.6794
  400MOL0     H53966  11.043   6.800   7.039  2.0567 -2.5852 -0.2747
  400MOL0     H53967  10.913   6.790   7.155  0.6244 -0.8244 -0.9005
  400MOL0     H53968  11.056   6.972   7.297  0.3333  1.1716 -0.2668
  400MOL0     H53969  11.173   6.971   7.167 -0.0256  3.2862 -2.2404
  400MOL0     H53970  10.875   7.058   7.162 -0.8044  1.6162  0.7765
  400MOL0     H53971  10.990   7.073   7.032 -1.8962  2.3360 -0.4006
  400MOL0     H53972  11.125   7.243   7.169  1.0478 -0.9384 -0.7756
  400MOL0     H53973  11.060   7.196   7.314 -0.5704  1.2281  0.5331
  400MOL0     H53974  10.924   7.356   7.092  0.9005 -0.9086  0.6657
  400MOL0     H53975  10.828   7.276   7.218  0.6189 -2.8804 -1.4136
  400MOL0     H53976  10.989   7.374   7.378  1.2554  0.9122  0.5076
  400MOL0     H53977  10.866   7.481   7.290 -0.0690 -0.8690  0.6061
  400MOL0     H53978  11.162   7.464   7.255 -0.8854 -0.9078 -2.9076
  400MOL0     H53979  11.054   7.539   7.130 -0.9766  2.3571 -0.4839
  400MOL0     H53980  11.198   6.462   7.292 -2.4307  0.3443  0.0326
  400MOL0     H53981  11.266   6.288   7.455 -0.1686  1.0227 -3.9362
  400MOL0     H53982  11.159   6.233   7.968  1.3856  0.7668 -3.3925
  400MOL0     H53983  11.187   6.074   8.159 -0.1802 -1.1865  1.1994
  400MOL0     H53984  10.662   4.901   9.540 -0.4482 -1.0900 -1.4831
  400MOL0     H53985  10.621   4.810   9.784  0.2247 -0.5198 -0.1603
  400MOL0     H53986  10.373   4.320   9.880  0.0600  0.7881 -0.5575
  400MOL0     H53987  10.175   4.316  10.046 -0.7061  1.6326 -2.2790
  400MOL0     H53988  10.151   4.234  10.319 -3.1198 -1.8890  0.4790
  400MOL0     H53989  10.035   4.326  10.218 -0.5199 -0.0993 -0.7031
  400MOL0     H53990  10.085   4.380  10.514  2.0173  0.6603 -0.9940
  400MOL0     H53991   9.984   4.251  10.454  1.5335 -0.8492 -1.3908
  400MOL0     H53992   9.949   4.558  10.445  0.5005 -0.4898  0.4365
  400MOL0     H53993   9.844   4.431  10.510  0.7567  0.6708  0.8972
  400MOL0     H53994   9.886   4.501  10.210 -2.4204 -3.7553 -5.0654
  400MOL0     H53995   9.827   4.353  10.265  0.3062 -0.1082 -0.4150
  400MOL0     H53996   9.504   4.641  10.336 -0.2363 -0.7383  0.6604
  400MOL0     H53997  10.405   4.541  10.309 -0.9438  0.9067  0.5959
  400MOL0     H53998  10.640   4.675  10.116  0.3418  0.0962 -0.5366
  400MOL0     H53999  10.629   4.599  10.281  1.7354  4.0354 -0.6240
  400MOL0     H54000  10.729   4.528  10.146 -0.7003  0.0578 -2.5919
  401MOL0     O54001   3.790   8.929   4.318 -0.9960  0.2517  0.6956
  401MOL0     C54002   3.911   8.958   4.344  0.1686  0.5488  0.7286
  401MOL0     O54003   3.984   8.894   4.439 -0.0987 -0.9155 -0.3800
  401MOL0     C54004   4.046   8.968   4.539  0.5303  0.1513 -0.8041
  401MOL0     C54005   4.179   8.921   4.577  0.7898 -0.1397  0.3833
  401MOL0     C54006   4.252   9.000   4.664  0.4206 -0.6418  0.0116
  401MOL0     C54007   4.199   9.110   4.730 -0.1970  0.6164  0.9001
  401MOL0     O54008   4.283   9.167   4.811 -0.1401  0.2655  0.6710
  401MOL0     C54009   4.245   9.290   4.876 -0.3310  0.4397 -0.6456
  401MOL0     C54010   4.372   9.359   4.926 -0.1281  0.5093 -0.0173
  401MOL0     C54011   4.361   9.499   4.979 -0.0269 -0.6040 -0.0974
  401MOL0     C54012   4.310   9.603   4.880 -0.5324 -0.5456 -0.0857
  401MOL0     C54013   4.290   9.743   4.945 -0.4199  0.4952  0.5967
  401MOL0     C54014   4.232   9.814   4.829  0.2315  0.2646  0.8866
  401MOL0     C54015   4.209   9.957   4.845 -0.5365  0.1780 -1.5145
  401MOL0     C54016   4.162  10.034   4.723  0.5479  0.1338  0.0428
  401MOL0     N54017   4.118  10.172   4.748 -0.1234  0.1632  0.2985
  401MOL0     C54018   4.024  10.205   4.838  1.0762 -0.7189  0.5727
  401MOL0     C54019   3.994  10.333   4.820  0.4569 -0.3637  0.2832
  401MOL0     C54020   3.878  10.410   4.886  0.1326 -0.2130 -0.4452
  401MOL0     C54021   3.908  10.435   5.032  0.2210  0.2471 -0.0517
  401MOL0     C54022   4.037  10.523   5.049  0.0566  0.1743 -0.7392
  401MOL0     C54023   4.050  10.572   5.196  0.0152 -0.0906 -0.6665
  401MOL0     O54024   4.003  10.469   5.280  0.1808  0.0923  0.1202
  401MOL0     C54025   4.049  10.452   5.402 -0.6910 -0.2929 -0.3855
  401MOL0     C54026   4.001  10.342   5.484 -0.3747 -0.4264  0.1761
  401MOL0     C54027   4.018  10.336   5.620 -0.1593 -0.3478 -0.5029
  401MOL0     C54028   4.106  10.429   5.677  0.0704  0.5786  0.1772
  401MOL0     C54029   4.139  10.424   5.824  0.1609 -1.0448  0.2974
  401MOL0     O54030   4.161  10.310   5.882  0.3382  0.0306  0.2346
  401MOL0     C54031   4.168  10.277   6.013  0.3596 -0.3808  0.2203
  401MOL0     C54032   4.239  10.154   6.049 -0.2856  0.5942  0.9764
  401MOL0     C54033   4.233  10.107   6.180  0.0014 -0.4626 -0.4466
  401MOL0     C54034   4.185  10.186   6.284 -0.2486 -0.4215  0.4050
  401MOL0     O54035   4.203  10.142   6.410 -0.6754 -0.2102 -0.1505
  401MOL0     C54036   4.149  10.224   6.515 -0.1048 -0.2208  0.6077
  401MOL0     C54037   4.188  10.158   6.645  0.1784  0.2343  0.7453
  401MOL0     C54038   4.116  10.023   6.680 -0.6075  0.5926 -0.5292
  401MOL0     C54039   4.126   9.984   6.834  0.5956  0.2239  1.4724
  401MOL0     C54040   4.050  10.068   6.940 -0.0653 -1.1727 -0.9486
  401MOL0     C54041   4.092  10.016   7.073  0.3049  0.2201  0.6673
  401MOL0     C54042   4.012  10.089   7.183 -0.0508  0.0269 -0.4270
  401MOL0     C54043   4.053  10.043   7.326 -0.0162  0.4936 -0.0175
  401MOL0    Cl54044   3.929   9.941   7.398 -0.2896  0.1190 -0.0212
  401MOL0     C54045   4.104  10.299   6.245  0.0622  0.5221 -0.0918
  401MOL0     C54046   4.094  10.344   6.112 -0.7223 -1.0386 -0.5797
  401MOL0     O54047   4.147  10.532   5.883 -0.3803 -0.1020 -0.3428
  401MOL0     C54048   4.150  10.534   5.600  0.8631  0.4707  0.6378
  401MOL0     C54049   4.124  10.552   5.466 -0.4721  0.9745  0.0309
  401MOL0     N54050   4.090  10.386   4.720  0.2068  0.2595 -0.7519
  401MOL0     N54051   4.165  10.287   4.693 -0.0341  0.4659 -0.0830
  401MOL0     C54052   4.058   9.141   4.701 -0.0081 -0.1987 -1.5534
  401MOL0     C54053   3.992   9.075   4.604  0.7300  0.5592 -0.0541
  401MOL0     C54054   3.954   9.084   4.284 -0.1332  0.1605 -0.4848
  401MOL0     C54055   3.873   9.199   4.291  0.3123 -0.1561 -0.1551
  401MOL0     C54056   3.923   9.324   4.253  0.1618  0.2810 -0.6185
  401MOL0     C54057   4.043   9.324   4.182  0.2897 -0.5292 -0.3984
  401MOL0     O54058   4.083   9.448   4.146 -0.1542 -0.1398  0.4557
  401MOL0     C54059   4.145   9.460   4.022 -0.8892 -0.0197 -1.3179
  401MOL0     C54060   4.082   9.575   3.936 -0.1370  0.5216  0.1272
  401MOL0     C54061   3.943   9.560   3.899  0.7332 -0.1380 -0.5921
  401MOL0     C54062   3.923   9.474   3.771 -0.8820  0.2867 -0.7986
  401MOL0     C54063   3.940   9.334   3.796 -0.9399  0.5275  0.6457
  401MOL0     C54064   3.975   9.209   3.804  0.3672 -0.5884  0.0150
  401MOL0     C54065   4.121   9.209   4.166  0.0114 -0.4700  0.0212
  401MOL0     C54066   4.076   9.087   4.224  0.3932  0.0724  0.2683
  401MOL0     C54067   4.163   8.974   4.214 -1.1476  0.4914  0.3820
  401MOL0     H54068   4.221   8.832   4.533 -4.0620 -2.0294 -1.1655
  401MOL0     H54069   4.358   8.983   4.678  0.0092 -1.4959  2.6051
  401MOL0     H54070   4.194   9.359   4.808 -0.9883  1.2037  0.5945
  401MOL0     H54071   4.169   9.272   4.952  0.9718  3.2209  1.5263
  401MOL0     H54072   4.441   9.362   4.842 -1.1005  2.2271 -0.8240
  401MOL0     H54073   4.423   9.295   4.998 -2.4664 -1.7020 -0.1795
  401MOL0     H54074   4.464   9.530   4.995  0.2328 -0.8205 -1.2617
  401MOL0     H54075   4.309   9.497   5.076  0.3432 -1.0354  0.0956
  401MOL0     H54076   4.371   9.612   4.789 -0.5693  2.1524  0.0838
  401MOL0     H54077   4.211   9.575   4.841 -0.5580  1.3037 -1.4960
  401MOL0     H54078   4.216   9.734   5.024 -2.2460  0.6201 -1.0308
  401MOL0     H54079   4.383   9.795   4.970  0.5925 -0.7673 -0.3509
  401MOL0     H54080   4.291   9.814   4.737 -2.1610  1.0249 -0.7532
  401MOL0     H54081   4.141   9.765   4.792 -0.8827  3.8683 -1.7505
  401MOL0     H54082   4.285  10.024   4.885 -2.9327  3.4810 -2.0462
  401MOL0     H54083   4.124   9.966   4.913 -0.3553 -0.7221 -1.1550
  401MOL0     H54084   4.233  10.027   4.640  2.1950  1.2090  1.2884
  401MOL0     H54085   4.078   9.973   4.690  0.7306 -0.8345  1.3094
  401MOL0     H54086   3.990  10.137   4.916  0.4773  0.1991  1.1429
  401MOL0     H54087   3.852  10.506   4.841 -0.7188  1.3437  3.0032
  401MOL0     H54088   3.788  10.351   4.868 -1.4225  1.2475  1.9642
  401MOL0     H54089   3.825  10.491   5.077 -2.9934 -2.2540 -2.3246
  401MOL0     H54090   3.916  10.336   5.077 -0.4306  1.6156  3.3706
  401MOL0     H54091   4.030  10.617   4.991 -0.7555  0.2869 -0.4753
  401MOL0     H54092   4.126  10.467   5.020 -0.5808 -1.4610  0.3339
  401MOL0     H54093   3.996  10.667   5.198 -0.5800 -0.3901 -1.6356
  401MOL0     H54094   4.155  10.599   5.213  0.2820 -2.6561  2.8362
  401MOL0     H54095   3.932  10.281   5.426 -2.6813  3.0883 -1.1762
  401MOL0     H54096   3.961  10.259   5.672 -3.7520  0.5868 -2.6751
  401MOL0     H54097   4.307  10.103   5.982 -0.8065 -0.5766  1.3072
  401MOL0     H54098   4.303  10.030   6.211  1.1674  0.7246 -0.0158
  401MOL0     H54099   4.190  10.325   6.505  1.8086 -0.8399  1.6471
  401MOL0     H54100   4.041  10.235   6.516 -0.0257  0.6097  0.7370
  401MOL0     H54101   4.295  10.135   6.652  0.2438 -0.0897 -0.9335
  401MOL0     H54102   4.173  10.241   6.715 -4.1434  0.3764 -0.0777
  401MOL0     H54103   4.014  10.012   6.643 -1.3123  0.9279  1.2174
  401MOL0     H54104   4.181   9.947   6.636 -0.2893  0.5560 -0.0137
  401MOL0     H54105   4.233   9.987   6.852  0.6455  0.1331  1.2001
  401MOL0     H54106   4.103   9.878   6.843  1.4346  0.0136  1.1873
  401MOL0     H54107   3.942  10.065   6.926 -0.2343 -0.3960  0.1447
  401MOL0     H54108   4.080  10.171   6.923  1.5058 -0.7976  3.0893
  401MOL0     H54109   4.056   9.913   7.065  2.2954 -0.3946 -1.5128
  401MOL0     H54110   4.200  10.018   7.089  0.3917  0.1404  0.0948
  401MOL0     H54111   3.904  10.081   7.175  0.0038  0.9885 -3.5348
  401MOL0     H54112   4.016  10.199   7.179 -0.0339  0.0785  0.7432
  401MOL0     H54113   4.138   9.977   7.340 -2.0138 -2.3971 -0.6610
  401MOL0     H54114   4.063  10.127   7.395 -2.8660  1.6271 -0.8181
  401MOL0     H54115   4.055  10.349   6.328  1.6169 -0.1615  1.2851
  401MOL0     H54116   4.038  10.433   6.084 -0.4453 -1.1164 -1.3952
  401MOL0     H54117   4.204  10.620   5.638 -1.4474  2.9106 -1.2304
  401MOL0     H54118   4.155  10.644   5.418 -0.6305  0.4236 -1.1571
  401MOL0     H54119   4.008   9.217   4.759  0.3445 -1.6411  0.7965
  401MOL0     H54120   3.888   9.096   4.584  1.0033  1.4126 -0.6316
  401MOL0     H54121   3.774   9.181   4.332 -0.1832 -2.2455 -2.0450
  401MOL0     H54122   3.874   9.418   4.274  0.3931  0.5834 -1.3880
  401MOL0     H54123   4.136   9.374   3.955 -0.0771  0.8847 -2.6141
  401MOL0     H54124   4.247   9.490   4.050 -1.6277  0.2830  1.3318
  401MOL0     H54125   4.139   9.578   3.843  1.7136 -3.7168  0.9033
  401MOL0     H54126   4.109   9.669   3.984  1.8314  0.5709 -0.9949
  401MOL0     H54127   3.912   9.661   3.869 -2.4590 -0.3909  1.3700
  401MOL0     H54128   3.880   9.526   3.982  0.2147 -0.6691 -1.1881
  401MOL0     H54129   3.822   9.480   3.730 -1.5394 -2.3776  0.1903
  401MOL0     H54130   3.992   9.483   3.687  1.9915 -1.6255  1.1700
  401MOL0     H54131   3.996   9.104   3.804  3.5786 -0.0470  1.0677
  401MOL0     H54132   4.217   9.224   4.118 -0.8967  1.2635 -1.3807
  401MOL0     H54133   4.219   8.962   4.308 -0.6941 -0.5407 -0.0038
  401MOL0     H54134   4.111   8.879   4.202 -2.3429  1.0786  0.7282
  401MOL0     H54135   4.240   8.984   4.137 -1.1447 -0.2645  0.2823
  402MOL0     O54136   2.263   9.101   8.488  0.2739 -0.4136  0.0511
  402MOL0     C54137   2.165   9.026   8.521  0.5551 -0.1374 -0.7212
  402MOL0     O54138   2.144   8.901   8.476 -0.0546 -0.5494  0.3041
  402MOL0     C54139   2.224   8.856   8.377  0.1813  1.1150  0.7464
  402MOL0     C54140   2.356   8.811   8.400  0.9831 -0.5222 -0.3905
  402MOL0     C54141   2.423   8.781   8.284 -0.0221 -0.6297 -0.1772
  402MOL0     C54142   2.373   8.785   8.151  0.6302 -0.2395 -0.0443
  402MOL0     O54143   2.453   8.747   8.037  1.0563 -0.0223 -0.1686
  402MOL0     C54144   2.594   8.760   8.052 -0.2828  0.4278 -0.5070
  402MOL0     C54145   2.669   8.794   7.923  0.4503 -0.6499 -0.5832
  402MOL0     C54146   2.602   8.869   7.808 -1.0603 -0.2229  0.1097
  402MOL0     C54147   2.709   8.916   7.696  0.3397 -0.3362 -0.4283
  402MOL0     C54148   2.627   8.958   7.572  0.6479  1.0291  0.8139
  402MOL0     C54149   2.733   8.968   7.456  0.0576  0.2794 -0.7026
  402MOL0     C54150   2.696   9.064   7.352  0.7614 -1.0457  0.6641
  402MOL0     C54151   2.800   9.090   7.248  0.2740 -0.3412  0.2228
  402MOL0     N54152   2.734   9.169   7.144 -0.4056 -0.0545  0.1897
  402MOL0     C54153   2.620   9.149   7.064 -0.0299  0.2229 -0.1428
  402MOL0     C54154   2.614   9.269   6.988  0.4117 -0.5625  1.0925
  402MOL0     C54155   2.512   9.276   6.882 -0.7531 -0.3178  0.3134
  402MOL0     C54156   2.545   9.393   6.781 -0.0249 -0.0154 -0.2274
  402MOL0     C54157   2.514   9.531   6.848 -0.3251 -0.3175 -0.0617
  402MOL0     C54158   2.535   9.650   6.750 -0.7194  1.0913 -1.2986
  402MOL0     O54159   2.482   9.774   6.797  0.9419 -0.1463  0.3848
  402MOL0     C54160   2.534   9.899   6.776 -0.4654 -0.0807  0.7755
  402MOL0     C54161   2.654   9.918   6.687  0.4883 -0.5644 -0.0692
  402MOL0     C54162   2.717  10.049   6.684  0.7682  0.6108 -0.6017
  402MOL0     C54163   2.659  10.155   6.748  0.3501  0.2363  0.4084
  402MOL0     C54164   2.717  10.289   6.740 -0.2370  0.2904  0.1751
  402MOL0     O54165   2.643  10.395   6.788 -0.1752  0.3082 -0.0670
  402MOL0     C54166   2.689  10.526   6.785 -0.7172 -0.1646 -0.3863
  402MOL0     C54167   2.811  10.570   6.845 -0.1580 -0.2338  0.6228
  402MOL0     C54168   2.836  10.702   6.830 -0.4006  0.3792  0.0596
  402MOL0     C54169   2.759  10.792   6.767  0.4626  0.1947  0.4260
  402MOL0     O54170   2.799  10.921   6.742  0.2131 -0.5211 -0.1129
  402MOL0     C54171   2.705  11.028   6.723  1.0170  0.0804  0.5936
  402MOL0     C54172   2.771  11.158   6.751 -0.8654  0.2634  0.3813
  402MOL0     C54173   2.704  11.278   6.704  0.4787 -0.1991  0.8756
  402MOL0     C54174   2.726  11.404   6.794 -0.5644  0.1339 -0.8077
  402MOL0     C54175   2.625  11.518   6.768 -0.1225 -0.1602  0.0353
  402MOL0     C54176   2.689  11.661   6.791  0.3847 -0.1435  0.1458
  402MOL0     C54177   2.807  11.697   6.700 -0.3481  0.7915  0.3468
  402MOL0     C54178   2.855  11.841   6.731 -0.3217  0.6825  0.4566
  402MOL0    Cl54179   2.916  11.855   6.892  0.1868 -0.0850 -0.0088
  402MOL0     C54180   2.643  10.742   6.708 -1.0867 -0.7489  0.7327
  402MOL0     C54181   2.602  10.616   6.723 -0.8727 -0.4931  0.2269
  402MOL0     O54182   2.833  10.291   6.702  0.0125 -1.0393  0.8283
  402MOL0     C54183   2.546  10.136   6.823 -0.8250 -0.0058 -0.8177
  402MOL0     C54184   2.488  10.007   6.840 -0.3646 -0.6475  0.3841
  402MOL0     N54185   2.714   9.354   7.037  0.4788  0.5284  0.5170
  402MOL0     N54186   2.771   9.298   7.127  0.7008  0.5239  0.5424
  402MOL0     C54187   2.235   8.822   8.139 -0.5599  0.6570  0.2645
  402MOL0     C54188   2.156   8.852   8.250  0.8332  1.6068  0.9427
  402MOL0     C54189   2.065   9.057   8.631  0.0877 -0.8381 -0.3811
  402MOL0     C54190   1.994   8.956   8.689 -0.1976  0.2056 -0.1475
  402MOL0     C54191   1.919   8.986   8.800  0.6829 -0.4317  0.0184
  402MOL0     C54192   1.885   9.111   8.843 -0.6130 -0.0698  0.2196
  402MOL0     O54193   1.796   9.134   8.942 -0.3877  0.2137  0.1006
  402MOL0     C54194   1.752   9.267   8.966  0.6502  0.6713 -0.4218
  402MOL0     C54195   1.657   9.333   8.865 -0.3956 -0.1533  0.0641
  402MOL0     C54196   1.503   9.314   8.907 -0.0812  0.1582  0.6953
  402MOL0     C54197   1.456   9.163   8.880 -1.2614 -0.1772 -0.3435
  402MOL0     C54198   1.417   9.128   8.746  0.1116 -0.2267  0.4297
  402MOL0     C54199   1.386   9.096   8.640  0.5027 -0.3141  0.7650
  402MOL0     C54200   1.959   9.217   8.773  0.2008  0.1354 -0.8708
  402MOL0     C54201   2.047   9.189   8.670 -0.2597  0.4692 -0.9148
  402MOL0     C54202   2.118   9.316   8.610  0.0545 -0.6212 -0.0856
  402MOL0     H54203   2.404   8.802   8.497 -1.3302 -0.1262  0.8679
  402MOL0     H54204   2.516   8.729   8.302 -1.2784 -2.9220 -0.0364
  402MOL0     H54205   2.614   8.852   8.107 -1.3209  0.4211 -0.1058
  402MOL0     H54206   2.642   8.678   8.106  1.2734  2.0017  0.6040
  402MOL0     H54207   2.705   8.699   7.881  1.6296 -1.0053  1.1248
  402MOL0     H54208   2.762   8.845   7.950 -1.1719  2.2507 -0.0418
  402MOL0     H54209   2.549   8.961   7.836  0.2569  1.0895 -1.5242
  402MOL0     H54210   2.530   8.802   7.760 -1.7815  0.5117  0.1374
  402MOL0     H54211   2.763   8.997   7.746  2.6790 -3.4491  2.5692
  402MOL0     H54212   2.783   8.837   7.681  1.5014  1.0369 -2.2142
  402MOL0     H54213   2.552   8.886   7.537  3.1508 -0.2773 -2.4785
  402MOL0     H54214   2.575   9.051   7.593  0.7029  0.9251  1.4220
  402MOL0     H54215   2.832   8.989   7.497  0.5361 -0.2622 -1.5624
  402MOL0     H54216   2.735   8.870   7.407  0.5564 -0.8526  1.4613
  402MOL0     H54217   2.681   9.162   7.398  0.6146 -0.3459 -0.8138
  402MOL0     H54218   2.603   9.019   7.313  1.1227 -0.6751 -0.7024
  402MOL0     H54219   2.887   9.134   7.299 -0.9264  1.7673  0.5240
  402MOL0     H54220   2.838   9.001   7.196 -0.3858  0.7125 -2.1955
  402MOL0     H54221   2.566   9.055   7.063  2.7251 -1.4775  0.1328
  402MOL0     H54222   2.517   9.186   6.821 -0.0279  1.0520 -1.7653
  402MOL0     H54223   2.411   9.280   6.925 -1.0433  0.3955 -0.4148
  402MOL0     H54224   2.645   9.375   6.743 -0.9326 -2.9430 -1.4910
  402MOL0     H54225   2.487   9.386   6.688  0.4068  1.6757 -0.6618
  402MOL0     H54226   2.598   9.550   6.915 -0.2519  0.0524 -0.2608
  402MOL0     H54227   2.430   9.536   6.918  2.4196  0.7551  3.4796
  402MOL0     H54228   2.504   9.629   6.647  0.4155 -3.2628 -0.9631
  402MOL0     H54229   2.644   9.660   6.739 -0.8990  0.8822 -4.1498
  402MOL0     H54230   2.684   9.833   6.627 -1.7305 -1.3860 -0.0995
  402MOL0     H54231   2.798  10.064   6.613  0.3196  0.7502 -1.0953
  402MOL0     H54232   2.869  10.497   6.900 -2.8776 -2.0642  1.2838
  402MOL0     H54233   2.920  10.753   6.877  1.0637 -0.7715 -1.2186
  402MOL0     H54234   2.674  11.018   6.619 -3.0917 -1.1125  1.7496
  402MOL0     H54235   2.614  11.011   6.781  2.2995 -0.2863  2.5904
  402MOL0     H54236   2.776  11.172   6.859  0.7276  2.0635  0.1261
  402MOL0     H54237   2.872  11.163   6.709 -1.2973 -1.3225 -0.9221
  402MOL0     H54238   2.740  11.305   6.604 -0.1058  1.5153  1.1016
  402MOL0     H54239   2.598  11.255   6.696  0.0891  1.0193  2.2369
  402MOL0     H54240   2.829  11.438   6.782 -0.0968 -0.6938  0.6131
  402MOL0     H54241   2.715  11.372   6.898 -2.2130 -1.9360 -1.5451
  402MOL0     H54242   2.527  11.504   6.816  0.9895  1.1571  2.9137
  402MOL0     H54243   2.602  11.524   6.661 -1.0597 -1.8503  0.0956
  402MOL0     H54244   2.611  11.736   6.780 -0.1305 -0.7461 -0.4383
  402MOL0     H54245   2.711  11.667   6.898 -2.3078 -0.9530  0.8304
  402MOL0     H54246   2.766  11.701   6.599  0.6593  4.7690 -0.0836
  402MOL0     H54247   2.891  11.628   6.714 -2.3740 -1.9927 -0.3939
  402MOL0     H54248   2.933  11.872   6.661 -0.9220 -2.8005 -2.0067
  402MOL0     H54249   2.765  11.900   6.709 -0.7377 -1.0584 -3.4335
  402MOL0     H54250   2.585  10.808   6.644  0.2979  2.5542  2.6072
  402MOL0     H54251   2.499  10.596   6.694 -2.0898  0.3777  3.4501
  402MOL0     H54252   2.491  10.216   6.872 -0.0759 -0.6642  1.1777
  402MOL0     H54253   2.403   9.983   6.903  0.9959 -2.3281  1.6809
  402MOL0     H54254   2.195   8.829   8.038  0.5438 -2.0648 -0.4442
  402MOL0     H54255   2.054   8.885   8.237  0.3039  0.1788  1.2668
  402MOL0     H54256   2.006   8.850   8.672 -2.6583 -1.0034  4.1755
  402MOL0     H54257   1.872   8.896   8.839  0.8335 -0.8472 -0.7397
  402MOL0     H54258   1.840   9.332   8.973 -0.0557  1.8508 -2.0131
  402MOL0     H54259   1.715   9.274   9.069  2.3731  0.9061  0.2108
  402MOL0     H54260   1.677   9.288   8.768  0.2611  1.2398 -0.4711
  402MOL0     H54261   1.678   9.440   8.858  0.6893 -0.4166 -1.0271
  402MOL0     H54262   1.435   9.390   8.867  1.4809  1.5633  0.6214
  402MOL0     H54263   1.493   9.335   9.014  0.0799  4.7940 -0.0193
  402MOL0     H54264   1.530   9.084   8.899  0.4793  1.6373  0.7650
  402MOL0     H54265   1.385   9.146   8.962  0.7493 -1.1271  1.3102
  402MOL0     H54266   1.355   9.050   8.548  1.6887 -0.2849  0.3210
  402MOL0     H54267   1.951   9.318   8.812  4.9521 -0.3024  2.0130
  402MOL0     H54268   2.075   9.414   8.635  0.2626 -0.1838 -1.3879
  402MOL0     H54269   2.222   9.319   8.644  0.7854 -3.5493 -1.7311
  402MOL0     H54270   2.107   9.312   8.502 -4.1987  0.5645  0.1048
  403MOL0     O54271   1.640   9.117   1.095  0.6754  0.0766 -0.7421
  403MOL0     C54272   1.563   9.124   0.996  0.0347 -0.3352  0.7170
  403MOL0     O54273   1.476   9.228   0.970 -0.4144 -0.4181 -0.6044
  403MOL0     C54274   1.462   9.334   1.058 -0.0738 -0.5045 -0.1206
  403MOL0     C54275   1.539   9.373   1.167  0.1226  0.0822 -0.6062
  403MOL0     C54276   1.514   9.488   1.243 -0.2757 -0.2472 -0.6070
  403MOL0     C54277   1.405   9.565   1.224  0.9136 -1.3869 -0.3994
  403MOL0     O54278   1.373   9.680   1.293 -0.7514 -0.4602  0.0286
  403MOL0     C54279   1.473   9.722   1.395 -0.2418  0.0636 -0.0680
  403MOL0     C54280   1.426   9.858   1.434 -0.2633 -0.1313 -0.1195
  403MOL0     C54281   1.467   9.881   1.582  0.4129  0.6200 -0.2037
  403MOL0     C54282   1.417  10.018   1.631 -0.6651 -0.4829  0.4608
  403MOL0     C54283   1.462  10.038   1.775 -0.6513 -0.9838 -0.0458
  403MOL0     C54284   1.616  10.055   1.804  0.4737  0.7066  0.0132
  403MOL0     C54285   1.643  10.101   1.952  0.0895 -1.8293 -0.2411
  403MOL0     C54286   1.616   9.991   2.052  0.5122 -0.8497  0.3622
  403MOL0     N54287   1.651  10.058   2.182 -0.2494  0.3457  0.6276
  403MOL0     C54288   1.560  10.120   2.270 -0.3705 -1.1888  0.0824
  403MOL0     C54289   1.627  10.140   2.386  0.1254  1.2673  0.5027
  403MOL0     C54290   1.584  10.207   2.510  0.4454 -0.3828  0.6895
  403MOL0     C54291   1.699  10.204   2.615  0.0990  0.0155  0.7733
  403MOL0     C54292   1.659  10.285   2.739 -0.4193  0.0051  0.5441
  403MOL0     C54293   1.790  10.327   2.807  0.5646 -0.0235  0.0480
  403MOL0     O54294   1.778  10.376   2.944  0.0120 -1.2878 -0.5319
  403MOL0     C54295   1.673  10.473   2.973  0.1477  0.3363 -0.7077
  403MOL0     C54296   1.568  10.436   3.063 -0.6961  0.3374  0.2987
  403MOL0     C54297   1.468  10.525   3.088 -1.0033  0.2790  0.6769
  403MOL0     C54298   1.452  10.651   3.019 -0.5920  0.2153 -0.5680
  403MOL0     C54299   1.336  10.738   3.055 -0.0431 -0.4228  0.2642
  403MOL0     O54300   1.342  10.874   3.029 -0.1394 -0.1575  0.9103
  403MOL0     C54301   1.235  10.954   3.072 -0.0552  0.2542 -0.9844
  403MOL0     C54302   1.113  10.946   3.011  0.0535  0.0442 -0.0548
  403MOL0     C54303   1.008  11.042   3.039 -0.1509 -0.0791 -0.1373
  403MOL0     C54304   1.026  11.162   3.111 -0.4075  0.1297 -0.5700
  403MOL0     O54305   0.923  11.254   3.118  0.5816 -0.2614  0.1577
  403MOL0     C54306   0.931  11.358   3.212 -0.0374 -0.1517 -0.6523
  403MOL0     C54307   0.794  11.446   3.226  0.9068 -0.3881  0.3349
  403MOL0     C54308   0.742  11.497   3.089 -0.2317 -0.1418  0.8839
  403MOL0     C54309   0.594  11.511   3.077 -0.2046 -0.3907 -0.3126
  403MOL0     C54310   0.534  11.641   3.117  0.1735 -0.1867  0.1967
  403MOL0     C54311   0.390  11.649   3.103  0.9212  0.4673  0.1221
  403MOL0     C54312   0.334  11.644   2.961 -0.1344 -0.3427  0.1712
  403MOL0     C54313   0.374  11.771   2.888 -0.0747  0.1883  0.3418
  403MOL0    Cl54314   0.277  11.912   2.942 -0.5520  0.2334  0.3018
  403MOL0     C54315   1.158  11.167   3.174  0.0693  0.2377  0.7335
  403MOL0     C54316   1.265  11.064   3.155 -0.5575 -0.4492  0.1532
  403MOL0     O54317   1.246  10.686   3.119 -0.3774  0.3117 -0.3677
  403MOL0     C54318   1.555  10.693   2.934 -1.3861  0.4927 -0.3069
  403MOL0     C54319   1.658  10.598   2.911 -0.1849  0.0879 -1.0247
  403MOL0     N54320   1.758  10.095   2.369  0.3119  0.2787  0.2684
  403MOL0     N54321   1.775  10.051   2.246  0.0046 -0.1369  0.4053
  403MOL0     C54322   1.315   9.521   1.124  0.7883 -0.0912 -0.1453
  403MOL0     C54323   1.347   9.412   1.042 -0.3040 -0.4750  0.9282
  403MOL0     C54324   1.562   8.999   0.917  1.3194  0.1050 -1.2555
  403MOL0     C54325   1.681   8.952   0.864  0.2804  0.3519 -0.2498
  403MOL0     C54326   1.696   8.838   0.786 -0.3480 -1.0008  0.0756
  403MOL0     C54327   1.582   8.769   0.738  0.5945  0.4426  0.4786
  403MOL0     O54328   1.579   8.670   0.650  0.1999  0.5591 -0.1906
  403MOL0     C54329   1.641   8.548   0.673  0.3024 -0.7086  0.0543
  403MOL0     C54330   1.704   8.502   0.538 -0.2599  0.3893  0.2045
  403MOL0     C54331   1.842   8.556   0.499 -0.1391 -0.1697  0.1324
  403MOL0     C54332   1.836   8.706   0.460  0.2370  0.3622  1.3311
  403MOL0     C54333   1.940   8.740   0.363  0.1621  0.7501 -0.1495
  403MOL0     C54334   2.039   8.770   0.297 -0.0611  0.3778  0.9117
  403MOL0     C54335   1.452   8.812   0.784 -0.2700  0.7665  0.6075
  403MOL0     C54336   1.440   8.928   0.867 -0.8707  0.4453 -0.5339
  403MOL0     C54337   1.296   8.972   0.913 -0.9596  0.3824  0.3189
  403MOL0     H54338   1.635   9.326   1.187  0.4168  1.1791  0.7128
  403MOL0     H54339   1.590   9.521   1.313  0.5980 -2.7126 -0.2819
  403MOL0     H54340   1.486   9.653   1.478 -0.4114 -2.3996 -1.9805
  403MOL0     H54341   1.567   9.723   1.339  0.1802  0.3331  0.6294
  403MOL0     H54342   1.320   9.885   1.425 -0.5854 -0.7633  1.3500
  403MOL0     H54343   1.475   9.930   1.369 -2.6612 -0.8654 -2.9902
  403MOL0     H54344   1.575   9.893   1.587  0.4840 -0.5225  3.6600
  403MOL0     H54345   1.444   9.790   1.637  0.9307 -0.8879 -2.3506
  403MOL0     H54346   1.445  10.102   1.567 -1.8659 -0.1161  0.3969
  403MOL0     H54347   1.308  10.017   1.629 -0.7682  0.2260 -3.8909
  403MOL0     H54348   1.426  10.140   1.793  0.1562 -0.6349 -0.3604
  403MOL0     H54349   1.413   9.973   1.847 -1.0506 -1.4023 -0.6821
  403MOL0     H54350   1.665   9.963   1.773 -3.9880 -1.3273 -1.7741
  403MOL0     H54351   1.645  10.131   1.731 -0.5607  1.5606  0.4634
  403MOL0     H54352   1.567  10.178   1.967 -1.4402 -3.3314  0.0267
  403MOL0     H54353   1.743  10.141   1.972 -0.8809  1.5771 -1.3798
  403MOL0     H54354   1.508   9.975   2.049  0.8287 -3.7200  1.2256
  403MOL0     H54355   1.664   9.895   2.033  1.6481  0.1230 -2.1056
  403MOL0     H54356   1.459  10.156   2.250  0.4757  0.9023 -0.6568
  403MOL0     H54357   1.556  10.310   2.487  2.3497  0.1149  0.3796
  403MOL0     H54358   1.491  10.157   2.537  0.1438 -0.6457 -0.7231
  403MOL0     H54359   1.747  10.109   2.640  2.7272  1.2561  0.8470
  403MOL0     H54360   1.779  10.254   2.560 -1.9991 -1.7851 -4.5043
  403MOL0     H54361   1.603  10.219   2.805 -5.4995  2.1524 -1.1490
  403MOL0     H54362   1.597  10.375   2.731 -0.0690  0.5119  2.9493
  403MOL0     H54363   1.838  10.400   2.741 -0.8605  1.0396  0.1216
  403MOL0     H54364   1.848  10.236   2.817  0.0411 -0.5848 -1.5991
  403MOL0     H54365   1.567  10.341   3.115 -0.5330 -0.2159 -0.6951
  403MOL0     H54366   1.393  10.493   3.159 -2.9219  2.7947 -0.1119
  403MOL0     H54367   1.096  10.850   2.963  0.5194  0.8241 -1.8716
  403MOL0     H54368   0.911  11.014   3.000 -0.9401  1.4027  0.6980
  403MOL0     H54369   0.951  11.311   3.309  1.5159  1.5260 -0.1048
  403MOL0     H54370   1.025  11.411   3.192  0.2766  0.8556  2.8438
  403MOL0     H54371   0.705  11.394   3.264  0.9079 -1.6921 -1.2949
  403MOL0     H54372   0.813  11.534   3.287  1.2213 -1.4094  1.7605
  403MOL0     H54373   0.782  11.596   3.064 -0.3041 -0.4713 -0.6201
  403MOL0     H54374   0.782  11.432   3.011 -1.7052 -0.2553  0.1843
  403MOL0     H54375   0.540  11.428   3.124 -2.1880  0.5503 -0.8329
  403MOL0     H54376   0.561  11.498   2.973 -2.2952  1.0149  0.1188
  403MOL0     H54377   0.584  11.717   3.056  1.0585 -1.0317 -0.1634
  403MOL0     H54378   0.564  11.647   3.222  1.0530 -0.9944  0.0103
  403MOL0     H54379   0.347  11.558   3.146  0.8640  0.1601 -0.5799
  403MOL0     H54380   0.349  11.739   3.150 -0.5537 -0.0275 -0.1686
  403MOL0     H54381   0.226  11.627   2.961 -0.0641 -0.8321 -0.3694
  403MOL0     H54382   0.378  11.562   2.903  1.4683 -0.9260  2.0575
  403MOL0     H54383   0.480  11.797   2.874  0.2900 -1.1878  0.3924
  403MOL0     H54384   0.332  11.750   2.789 -3.5843  0.6257  1.6058
  403MOL0     H54385   1.194  11.258   3.221  3.5660 -0.0748 -1.0275
  403MOL0     H54386   1.361  11.090   3.198 -1.8588  3.1218  1.2427
  403MOL0     H54387   1.550  10.796   2.901  4.4811  2.2089  2.8277
  403MOL0     H54388   1.744  10.622   2.850  1.6138 -4.2646 -0.5907
  403MOL0     H54389   1.227   9.584   1.118 -2.2350 -3.8874  0.7868
  403MOL0     H54390   1.278   9.389   0.962  1.0810 -1.4863 -0.0376
  403MOL0     H54391   1.776   8.998   0.892  2.0645 -2.1553 -1.7236
  403MOL0     H54392   1.793   8.803   0.753  0.2396  1.2985 -0.7954
  403MOL0     H54393   1.564   8.482   0.713 -1.1330  1.1295  0.4212
  403MOL0     H54394   1.724   8.556   0.745  1.1524 -0.3880 -0.9407
  403MOL0     H54395   1.626   8.515   0.463  0.2612 -0.3533 -0.4838
  403MOL0     H54396   1.720   8.394   0.539  2.8014  0.7612  1.6179
  403MOL0     H54397   1.883   8.501   0.413  2.8926  2.3581 -0.2080
  403MOL0     H54398   1.914   8.533   0.577 -0.2584 -0.6322  0.1110
  403MOL0     H54399   1.743   8.732   0.407  2.7269  1.9000 -2.7296
  403MOL0     H54400   1.844   8.775   0.544  2.3775  1.6675  0.1271
  403MOL0     H54401   2.125   8.803   0.241 -0.2920 -0.0119  0.3112
  403MOL0     H54402   1.356   8.768   0.760 -0.7215 -0.0180  3.5481
  403MOL0     H54403   1.239   8.881   0.930  0.4604  0.1208  5.0138
  403MOL0     H54404   1.311   9.037   1.000 -0.3104 -0.3789  0.7871
  403MOL0     H54405   1.252   9.031   0.831  0.4259  2.2674  0.8492
  404MOL0     O54406   3.515   7.577   3.401  1.0504 -1.4381 -0.3198
  404MOL0     C54407   3.472   7.469   3.431 -0.1142 -0.6934 -0.5943
  404MOL0     O54408   3.339   7.441   3.462 -0.3529  0.5909 -0.2564
  404MOL0     C54409   3.243   7.540   3.463 -0.5358 -0.3990 -0.0769
  404MOL0     C54410   3.224   7.630   3.359  0.1659 -0.1275  0.7565
  404MOL0     C54411   3.125   7.733   3.362 -0.1824  0.6837  0.5596
  404MOL0     C54412   3.040   7.745   3.467 -0.3653 -0.5557 -0.2177
  404MOL0     O54413   2.947   7.846   3.495 -0.1416 -1.1661 -0.4922
  404MOL0     C54414   2.959   7.973   3.419  0.0480 -0.0396 -0.7003
  404MOL0     C54415   2.894   8.085   3.498 -0.0730 -0.0285  0.0866
  404MOL0     C54416   2.739   8.087   3.511 -0.3510 -0.1025  0.0673
  404MOL0     C54417   2.680   7.981   3.609  0.5810  0.8925 -0.3991
  404MOL0     C54418   2.531   7.979   3.625  0.9328  0.7234  0.4625
  404MOL0     C54419   2.469   8.110   3.683 -0.2279 -0.5317  0.5291
  404MOL0     C54420   2.318   8.091   3.701  0.0445 -0.7908  0.2828
  404MOL0     C54421   2.239   8.224   3.740 -0.0076  0.2893  0.2972
  404MOL0     N54422   2.109   8.176   3.798  0.5020  0.1627  0.5935
  404MOL0     C54423   2.006   8.123   3.726 -0.2973  0.1859 -0.4410
  404MOL0     C54424   1.928   8.064   3.817 -0.1897  0.9347 -0.0998
  404MOL0     C54425   1.803   7.988   3.803  0.4801 -0.0577 -0.3964
  404MOL0     C54426   1.823   7.834   3.774 -0.0254  0.0113 -0.4352
  404MOL0     C54427   1.680   7.769   3.795  0.2170 -0.7273  0.7322
  404MOL0     C54428   1.658   7.619   3.773 -0.6767  0.2791  0.3688
  404MOL0     O54429   1.639   7.553   3.904  0.1983  0.0363  0.7608
  404MOL0     C54430   1.582   7.425   3.903  0.0215  0.0041 -0.7519
  404MOL0     C54431   1.563   7.361   4.031 -0.7276  0.2538 -0.4557
  404MOL0     C54432   1.529   7.226   4.036 -0.3563  0.2061  0.0333
  404MOL0     C54433   1.494   7.158   3.915 -0.4304  1.0894  0.0839
  404MOL0     C54434   1.462   7.010   3.925 -0.5771  0.4274 -0.2694
  404MOL0     O54435   1.457   6.933   3.809 -0.5342 -1.0133  0.0373
  404MOL0     C54436   1.475   6.800   3.806  0.3434 -0.9113  0.9361
  404MOL0     C54437   1.366   6.715   3.806 -0.4779 -0.0548 -0.7688
  404MOL0     C54438   1.364   6.576   3.820  0.8000  1.0979  0.9728
  404MOL0     C54439   1.491   6.520   3.799  0.3178 -1.2066 -0.2488
  404MOL0     O54440   1.495   6.385   3.812  0.4329 -0.5181 -0.2833
  404MOL0     C54441   1.613   6.311   3.802  0.2316  0.6471 -0.0683
  404MOL0     C54442   1.592   6.166   3.831  0.0797  0.9679 -0.4732
  404MOL0     C54443   1.548   6.156   3.977  0.0320 -0.4051 -1.1495
  404MOL0     C54444   1.519   6.014   4.005 -0.1356 -0.8798  0.3734
  404MOL0     C54445   1.480   5.994   4.141  0.2149  0.3926  0.2161
  404MOL0     C54446   1.438   5.842   4.164  0.0981 -1.2171 -0.2972
  404MOL0     C54447   1.396   5.815   4.317 -0.8318  0.7699 -0.0144
  404MOL0     C54448   1.316   5.687   4.340 -0.4097 -0.6338  1.0053
  404MOL0    Cl54449   1.403   5.548   4.275  0.5590  0.0597 -0.0771
  404MOL0     C54450   1.609   6.599   3.803 -0.4690 -0.6746  0.4327
  404MOL0     C54451   1.603   6.742   3.814  0.4506 -0.0818 -0.4723
  404MOL0     O54452   1.459   6.961   4.036 -0.8762 -0.3541 -0.1536
  404MOL0     C54453   1.501   7.224   3.790  0.4208  0.1580 -0.2175
  404MOL0     C54454   1.544   7.352   3.788  0.6925  0.2235 -0.5880
  404MOL0     N54455   1.991   8.075   3.941 -0.5705 -0.4795 -0.1345
  404MOL0     N54456   2.093   8.151   3.927  0.3807  0.1483  0.0070
  404MOL0     C54457   3.045   7.647   3.560 -0.2520  0.1846  0.3288
  404MOL0     C54458   3.142   7.548   3.562  0.2067 -0.1481 -0.7081
  404MOL0     C54459   3.556   7.339   3.417  0.2257 -0.6546  1.1897
  404MOL0     C54460   3.527   7.220   3.498  0.5088 -0.6115  0.0173
  404MOL0     C54461   3.594   7.101   3.486  0.1043 -1.1665  0.0167
  404MOL0     C54462   3.706   7.090   3.404 -0.7301 -0.1391  0.0936
  404MOL0     O54463   3.774   6.974   3.388  0.4949 -0.4947  0.1641
  404MOL0     C54464   3.850   6.930   3.496  0.8780  0.8201  0.0383
  404MOL0     C54465   3.981   7.004   3.514 -0.3540  0.3833  1.0389
  404MOL0     C54466   4.077   6.992   3.388 -0.5138  0.5182  0.3008
  404MOL0     C54467   4.206   7.074   3.397 -1.0429  0.4909 -0.1462
  404MOL0     C54468   4.166   7.212   3.384 -0.2078  0.6748 -0.1566
  404MOL0     C54469   4.135   7.338   3.384  0.8503 -0.1717 -0.2703
  404MOL0     C54470   3.746   7.206   3.328  0.5950 -0.3541 -0.3098
  404MOL0     C54471   3.676   7.330   3.331 -0.0116  0.1720 -0.5124
  404MOL0     C54472   3.719   7.432   3.233 -0.4460 -0.6088  0.2416
  404MOL0     H54473   3.284   7.628   3.269 -0.5547  0.1085  0.2669
  404MOL0     H54474   3.116   7.803   3.280  1.3534 -0.3547 -0.5564
  404MOL0     H54475   3.063   7.994   3.392 -1.1464  4.0901 -2.9324
  404MOL0     H54476   2.904   7.960   3.325  0.4922 -0.5085 -0.9001
  404MOL0     H54477   2.900   8.185   3.455 -0.9355  0.0664  0.1665
  404MOL0     H54478   2.948   8.073   3.592 -1.0865 -2.5375  0.4372
  404MOL0     H54479   2.689   8.077   3.414 -1.7613 -5.1497  1.0344
  404MOL0     H54480   2.703   8.184   3.546 -3.8182 -1.0460 -0.5463
  404MOL0     H54481   2.695   7.879   3.573 -4.0450 -0.2853  0.3778
  404MOL0     H54482   2.716   7.991   3.712 -0.1266 -0.5754  0.0106
  404MOL0     H54483   2.495   7.963   3.523  3.9664  0.1781 -0.6341
  404MOL0     H54484   2.512   7.902   3.699 -0.7414 -1.3581 -1.9623
  404MOL0     H54485   2.515   8.134   3.779 -2.6617  2.7267  1.0539
  404MOL0     H54486   2.494   8.191   3.614  0.8618 -1.3248 -0.0353
  404MOL0     H54487   2.308   8.007   3.771 -1.8227  0.1499  1.2108
  404MOL0     H54488   2.278   8.062   3.603  0.4607 -0.9640  0.1640
  404MOL0     H54489   2.303   8.256   3.823 -0.1658 -0.2354  0.6270
  404MOL0     H54490   2.231   8.309   3.671 -2.0601  1.1594  1.5088
  404MOL0     H54491   1.991   8.125   3.619 -2.6389 -0.1566 -0.1680
  404MOL0     H54492   1.730   8.005   3.882 -0.3339 -1.3342 -0.8382
  404MOL0     H54493   1.760   8.031   3.712  0.2200 -0.7971 -0.6360
  404MOL0     H54494   1.855   7.818   3.671 -2.4310 -0.7194 -1.1217
  404MOL0     H54495   1.885   7.787   3.851  1.3000 -0.2080 -1.6111
  404MOL0     H54496   1.622   7.824   3.720  2.6361  0.5269 -0.3504
  404MOL0     H54497   1.635   7.801   3.889  0.2261  1.6195  0.0250
  404MOL0     H54498   1.735   7.580   3.706 -0.5206  3.0999 -1.2394
  404MOL0     H54499   1.561   7.617   3.723 -0.6466  5.6460 -0.4357
  404MOL0     H54500   1.602   7.397   4.125  3.0764  2.1050 -2.5234
  404MOL0     H54501   1.533   7.176   4.132  0.3821  2.7229  1.3732
  404MOL0     H54502   1.266   6.757   3.814 -0.4707 -0.0974 -0.4388
  404MOL0     H54503   1.275   6.515   3.825  0.3164  1.7957  0.9872
  404MOL0     H54504   1.674   6.350   3.721  1.2119 -2.8224 -1.1603
  404MOL0     H54505   1.672   6.338   3.890  0.7036 -0.3191 -0.0859
  404MOL0     H54506   1.523   6.131   3.752 -0.0123  2.1565 -0.9312
  404MOL0     H54507   1.686   6.111   3.827  0.1013  1.0204 -0.7044
  404MOL0     H54508   1.626   6.179   4.050 -3.6383  1.7401  2.4882
  404MOL0     H54509   1.449   6.197   3.999 -0.8160 -3.2826  1.1122
  404MOL0     H54510   1.610   5.959   3.980  0.8769  1.1793 -0.8003
  404MOL0     H54511   1.441   5.968   3.943 -1.0538 -2.3884  2.5359
  404MOL0     H54512   1.413   6.078   4.164  0.6243  0.0819  2.9700
  404MOL0     H54513   1.566   6.020   4.203  1.1258  0.5314 -1.0863
  404MOL0     H54514   1.354   5.818   4.099 -0.5512  2.1145 -0.8605
  404MOL0     H54515   1.527   5.788   4.129 -0.4138 -0.2728 -3.3149
  404MOL0     H54516   1.338   5.898   4.359 -0.1300  0.6592  1.2306
  404MOL0     H54517   1.491   5.803   4.370  0.0399 -1.3670 -1.9009
  404MOL0     H54518   1.305   5.659   4.445  0.8303 -2.1831  0.7519
  404MOL0     H54519   1.217   5.687   4.292  1.0482 -1.6703 -2.2718
  404MOL0     H54520   1.708   6.556   3.799 -0.0116  0.3716  0.1479
  404MOL0     H54521   1.687   6.809   3.828 -1.9003  3.1646 -0.6243
  404MOL0     H54522   1.469   7.188   3.692  0.1836  1.7665 -0.7666
  404MOL0     H54523   1.540   7.384   3.685 -2.1482 -0.1787 -0.6791
  404MOL0     H54524   2.965   7.653   3.633  0.0392  0.2581  0.6419
  404MOL0     H54525   3.155   7.467   3.633  0.7309 -0.0391 -0.6743
  404MOL0     H54526   3.434   7.219   3.553  0.8296 -0.0361  0.5810
  404MOL0     H54527   3.557   7.021   3.550 -3.3827 -0.3690 -0.7848
  404MOL0     H54528   3.881   6.831   3.462 -1.8755 -0.7337  1.6403
  404MOL0     H54529   3.793   6.928   3.590  4.0684  0.4561  2.1429
  404MOL0     H54530   4.027   6.974   3.608  0.3404  0.7126  0.8106
  404MOL0     H54531   3.951   7.109   3.527  2.5265  1.0938  2.6527
  404MOL0     H54532   4.027   7.026   3.297 -0.8205  0.5147  0.4646
  404MOL0     H54533   4.111   6.890   3.372  0.1774  0.8351 -0.3262
  404MOL0     H54534   4.249   7.044   3.493 -0.3855 -4.5452 -1.7042
  404MOL0     H54535   4.279   7.054   3.317  0.0743  0.6707  0.7907
  404MOL0     H54536   4.109   7.442   3.385  0.8157 -0.0850 -2.9684
  404MOL0     H54537   3.820   7.193   3.250 -0.5470 -2.5436 -1.1425
  404MOL0     H54538   3.813   7.481   3.261  0.7115 -1.2656 -2.2507
  404MOL0     H54539   3.739   7.382   3.137 -0.8262  1.0257 -0.7232
  404MOL0     H54540   3.645   7.511   3.218  1.6989  1.1136 -2.0005
  405MOL0     O54541   6.160   0.945   1.532 -0.1530 -0.8222 -0.9512
  405MOL0     C54542   6.136   0.841   1.477 -0.1861 -0.2206 -0.4807
  405MOL0     O54543   6.225   0.736   1.482  0.1339  0.3129  0.2961
  405MOL0     C54544   6.355   0.755   1.496 -1.0571  0.2050 -1.1324
  405MOL0     C54545   6.410   0.752   1.623  0.8435  0.3288  0.3609
  405MOL0     C54546   6.539   0.782   1.663  0.6781 -0.3138  0.0978
  405MOL0     C54547   6.634   0.805   1.557  0.7203 -0.4038 -0.5921
  405MOL0     O54548   6.768   0.821   1.597  0.3755  0.8105  0.5265
  405MOL0     C54549   6.809   0.961   1.580 -0.6889  0.9834  0.6536
  405MOL0     C54550   6.954   0.977   1.621 -0.8300  0.6239  0.1125
  405MOL0     C54551   6.997   1.112   1.619 -0.2277  0.2104 -0.3273
  405MOL0     C54552   7.145   1.121   1.620 -0.0240 -0.3717  0.7304
  405MOL0     C54553   7.193   1.270   1.617  0.0955 -0.2438  0.1139
  405MOL0     C54554   7.210   1.319   1.758 -0.3539  0.4323  0.3221
  405MOL0     C54555   7.154   1.456   1.767  0.9647 -0.2952  0.3788
  405MOL0     C54556   7.203   1.573   1.680 -0.4908  0.7768  0.2421
  405MOL0     N54557   7.113   1.692   1.693 -0.7807 -0.2934 -0.5173
  405MOL0     C54558   7.092   1.757   1.809  0.5977 -0.4399 -0.3687
  405MOL0     C54559   6.991   1.842   1.771 -0.8643 -0.0638 -0.7307
  405MOL0     C54560   6.927   1.945   1.870  0.5254 -0.3257  1.5691
  405MOL0     C54561   6.995   2.085   1.853  0.0895 -0.5314 -0.0092
  405MOL0     C54562   6.916   2.197   1.930 -0.1696 -0.0872  0.2448
  405MOL0     C54563   6.899   2.184   2.084 -0.1551  0.5659 -0.6768
  405MOL0     O54564   6.841   2.300   2.141 -0.3751 -0.1027  0.0550
  405MOL0     C54565   6.918   2.357   2.241  0.6606  0.6470  0.3842
  405MOL0     C54566   6.987   2.286   2.343 -0.4247  0.4408  0.8355
  405MOL0     C54567   7.065   2.349   2.439  0.0858 -1.2620  0.0024
  405MOL0     C54568   7.069   2.493   2.454  0.0530 -1.1093  0.4385
  405MOL0     C54569   7.123   2.564   2.575 -1.3503  0.3399  0.5516
  405MOL0     O54570   7.087   2.689   2.596  0.3234 -0.1283 -0.4119
  405MOL0     C54571   7.088   2.730   2.731 -0.5023 -0.5009  0.0652
  405MOL0     C54572   6.969   2.733   2.801 -0.4211  0.4728  1.0730
  405MOL0     C54573   6.959   2.789   2.925  1.3610  0.6056  0.7488
  405MOL0     C54574   7.068   2.838   2.984  0.5772  0.2012  0.1027
  405MOL0     O54575   7.080   2.880   3.113 -0.6136  0.4354 -0.4680
  405MOL0     C54576   6.986   2.830   3.211  0.1661  0.1850  0.3740
  405MOL0     C54577   7.061   2.870   3.344  0.0412 -0.5384  0.0842
  405MOL0     C54578   6.989   2.852   3.478 -0.6902 -0.2750  0.4050
  405MOL0     C54579   7.076   2.817   3.596  0.6212 -0.0945  0.4293
  405MOL0     C54580   7.002   2.777   3.728  0.2757 -1.2479  0.7327
  405MOL0     C54581   6.867   2.690   3.720 -0.7722 -0.4739  0.1853
  405MOL0     C54582   6.804   2.651   3.857  0.0822  0.2569 -0.5597
  405MOL0     C54583   6.671   2.588   3.841  0.3790  0.0113 -0.5645
  405MOL0    Cl54584   6.700   2.410   3.858  0.1447  0.2720 -0.0187
  405MOL0     C54585   7.184   2.849   2.917  0.7526  0.1495  0.5733
  405MOL0     C54586   7.200   2.791   2.789  0.0748  0.3747 -0.4386
  405MOL0     O54587   7.203   2.496   2.642 -0.3009 -0.2094 -0.4955
  405MOL0     C54588   6.998   2.561   2.360 -0.2880  0.0563 -0.4474
  405MOL0     C54589   6.922   2.492   2.252  0.2178 -0.4315  0.0751
  405MOL0     N54590   6.957   1.826   1.635 -0.5560  0.0220 -0.2141
  405MOL0     N54591   7.038   1.743   1.587 -0.4271  0.0107  0.2777
  405MOL0     C54592   6.587   0.798   1.423 -0.7441  0.6111  1.1921
  405MOL0     C54593   6.451   0.769   1.403 -0.3648 -0.8539 -0.0618
  405MOL0     C54594   5.996   0.795   1.434  0.1254 -0.9527  0.2430
  405MOL0     C54595   5.970   0.696   1.338 -0.2001  0.6628  0.1673
  405MOL0     C54596   5.846   0.654   1.296  0.2325 -0.4420  0.3493
  405MOL0     C54597   5.737   0.713   1.359  0.3752 -0.8651 -0.9247
  405MOL0     O54598   5.597   0.693   1.339  0.3260  0.5337  0.0408
  405MOL0     C54599   5.572   0.573   1.273 -0.3125  0.3383 -0.4402
  405MOL0     C54600   5.592   0.444   1.367  0.9366 -0.5573 -0.2138
  405MOL0     C54601   5.668   0.332   1.309  0.2170  0.5088 -0.0554
  405MOL0     C54602   5.710   0.237   1.428  0.2508 -0.3123  0.3652
  405MOL0     C54603   5.595   0.190   1.499  0.5833  0.4029 -0.3841
  405MOL0     C54604   5.491   0.172   1.562  0.4563 -0.0357 -0.2774
  405MOL0     C54605   5.743   0.829   1.434  0.0372 -0.8796  0.6138
  405MOL0     C54606   5.876   0.862   1.482  0.4489  0.1864  0.2654
  405MOL0     C54607   5.879   0.963   1.597 -0.4156 -0.7337 -0.4571
  405MOL0     H54608   6.346   0.739   1.709  0.8933 -1.9832  0.1320
  405MOL0     H54609   6.568   0.805   1.765  4.2693 -1.0480 -0.6259
  405MOL0     H54610   6.797   0.980   1.473 -0.5805  0.8375  0.6147
  405MOL0     H54611   6.745   1.024   1.642  1.2551  3.1831  0.5906
  405MOL0     H54612   7.021   0.923   1.552  0.3780  2.1356  0.0467
  405MOL0     H54613   6.961   0.934   1.721 -1.5507  0.6606  0.1831
  405MOL0     H54614   6.957   1.171   1.702 -3.6372 -1.0673 -0.8908
  405MOL0     H54615   6.962   1.165   1.530 -1.0473  0.0179 -0.1368
  405MOL0     H54616   7.181   1.076   1.713 -0.0357 -1.2666  0.3138
  405MOL0     H54617   7.190   1.081   1.529  0.1056  0.2560  0.5092
  405MOL0     H54618   7.286   1.293   1.563 -0.7057 -0.3948 -1.4002
  405MOL0     H54619   7.115   1.320   1.559  1.7191 -1.2737 -3.2054
  405MOL0     H54620   7.178   1.245   1.832 -0.5845 -0.2397 -0.4464
  405MOL0     H54621   7.315   1.327   1.786 -0.6748 -2.2750  2.9080
  405MOL0     H54622   7.141   1.491   1.870  2.1543  1.6805 -0.0865
  405MOL0     H54623   7.054   1.440   1.725  1.1209  0.6576 -0.3857
  405MOL0     H54624   7.306   1.607   1.696  0.4614 -0.3753 -2.6639
  405MOL0     H54625   7.212   1.539   1.576  0.1592  1.7788 -0.0514
  405MOL0     H54626   7.132   1.748   1.910 -0.5981 -0.2523  0.1439
  405MOL0     H54627   6.819   1.945   1.855  0.5792  0.1712  1.1630
  405MOL0     H54628   6.944   1.900   1.968  0.1031 -0.7907  1.4323
  405MOL0     H54629   7.102   2.076   1.873  0.5246 -4.0013 -2.8340
  405MOL0     H54630   6.993   2.115   1.748 -1.2092 -0.7963 -0.0872
  405MOL0     H54631   6.818   2.195   1.883  1.8174 -0.5531 -4.3691
  405MOL0     H54632   6.967   2.293   1.914 -0.4547  0.1601  0.8033
  405MOL0     H54633   6.995   2.149   2.125 -1.4058 -2.4486 -0.0829
  405MOL0     H54634   6.835   2.098   2.104  1.3573 -1.3135 -3.3651
  405MOL0     H54635   6.993   2.178   2.338 -3.1835  0.2471 -0.0204
  405MOL0     H54636   7.123   2.288   2.507 -1.1870  0.6673  3.0032
  405MOL0     H54637   6.887   2.674   2.762  1.0968  0.6644 -2.8846
  405MOL0     H54638   6.865   2.781   2.979  0.7706 -1.7774 -0.4525
  405MOL0     H54639   6.888   2.875   3.195 -0.4906 -2.0749 -3.3833
  405MOL0     H54640   6.985   2.720   3.207  0.6637  0.1794  0.2361
  405MOL0     H54641   7.162   2.829   3.339 -0.7630 -2.4961 -1.2828
  405MOL0     H54642   7.065   2.980   3.345 -2.3679 -0.3855  1.4876
  405MOL0     H54643   6.929   2.939   3.505  1.6859  2.1672 -1.7100
  405MOL0     H54644   6.917   2.772   3.456 -1.3554 -0.2824  2.3957
  405MOL0     H54645   7.140   2.902   3.621 -0.4179  0.8085  0.1261
  405MOL0     H54646   7.137   2.728   3.577 -0.4140 -0.5568 -0.9140
  405MOL0     H54647   6.956   2.866   3.773 -0.1286 -1.4311  0.6849
  405MOL0     H54648   7.074   2.735   3.799  3.4843  0.6250 -1.1673
  405MOL0     H54649   6.792   2.756   3.678 -1.3690  1.2745  3.6636
  405MOL0     H54650   6.905   2.603   3.665 -1.9587  0.2619 -1.8892
  405MOL0     H54651   6.782   2.752   3.894 -1.1737 -0.3549  0.4377
  405MOL0     H54652   6.866   2.598   3.930 -1.3519 -0.9166 -0.1409
  405MOL0     H54653   6.602   2.616   3.922  0.2655  1.0925 -1.0224
  405MOL0     H54654   6.611   2.608   3.753  1.2494 -0.5211 -1.2973
  405MOL0     H54655   7.267   2.899   2.965  0.1322  2.9527 -1.0739
  405MOL0     H54656   7.297   2.801   2.742 -0.0479 -2.0949 -1.3545
  405MOL0     H54657   6.986   2.669   2.368 -1.1606 -0.1887  2.7558
  405MOL0     H54658   6.883   2.564   2.182  2.4549 -0.2912 -1.1320
  405MOL0     H54659   6.661   0.819   1.346 -0.8154  0.6994  1.1483
  405MOL0     H54660   6.409   0.765   1.303  3.3971 -1.8471 -1.8308
  405MOL0     H54661   6.057   0.644   1.298 -0.4315 -1.4739  2.2154
  405MOL0     H54662   5.826   0.589   1.212 -0.7745  1.7583 -1.2157
  405MOL0     H54663   5.618   0.571   1.174  1.0369  1.7171  0.1091
  405MOL0     H54664   5.468   0.570   1.238 -0.0964 -1.6454 -1.0262
  405MOL0     H54665   5.490   0.424   1.399 -0.2301  0.5073 -2.9654
  405MOL0     H54666   5.649   0.480   1.454 -2.3537 -0.6886  2.1707
  405MOL0     H54667   5.759   0.365   1.258  0.2098  0.6363  0.0135
  405MOL0     H54668   5.605   0.279   1.238  1.8700  1.3358 -2.2630
  405MOL0     H54669   5.761   0.160   1.369  0.7028  1.9390 -2.4115
  405MOL0     H54670   5.788   0.289   1.485  2.0497  4.6724 -5.5187
  405MOL0     H54671   5.398   0.147   1.609  1.2035  0.1111  1.3439
  405MOL0     H54672   5.661   0.873   1.490 -0.9186 -0.0699 -1.3563
  405MOL0     H54673   5.783   1.012   1.582 -1.7932 -3.3012 -0.7051
  405MOL0     H54674   5.889   0.906   1.690 -0.2411  3.6601  2.4624
  405MOL0     H54675   5.960   1.035   1.583  1.2171 -2.7462 -2.1773
  406MOL0     O54676   6.503   0.754   7.696 -0.1187 -0.0001  0.1309
  406MOL0     C54677   6.512   0.657   7.768 -0.9403 -0.2783  0.2358
  406MOL0     O54678   6.413   0.570   7.802  0.0141 -0.7593 -0.3087
  406MOL0     C54679   6.308   0.572   7.723 -0.3908  0.1523  0.0203
  406MOL0     C54680   6.194   0.661   7.740 -0.6326 -0.2793  0.0110
  406MOL0     C54681   6.086   0.636   7.660  0.4468 -0.6074 -0.2648
  406MOL0     C54682   6.091   0.532   7.564  0.4025 -0.7874  0.2795
  406MOL0     O54683   5.985   0.499   7.475 -0.1192  0.0837 -0.5969
  406MOL0     C54684   5.860   0.571   7.486  0.5089 -0.1734  0.7090
  406MOL0     C54685   5.772   0.552   7.360 -0.0202 -0.1598 -0.9420
  406MOL0     C54686   5.750   0.408   7.325  0.3677 -1.0038  0.1466
  406MOL0     C54687   5.829   0.334   7.210  0.5583  0.5648 -0.6448
  406MOL0     C54688   5.784   0.357   7.067 -0.2320  0.2933  0.4485
  406MOL0     C54689   5.633   0.312   7.046 -0.5723  0.6067 -0.2328
  406MOL0     C54690   5.640   0.174   6.971  0.4322 -0.4132 -0.6531
  406MOL0     C54691   5.496   0.146   6.919 -0.4794  0.7353  0.0514
  406MOL0     N54692   5.487   0.043   6.813 -0.3674  0.0122 -0.6145
  406MOL0     C54693   5.575   0.019   6.713 -0.6502 -0.2562 -0.4394
  406MOL0     C54694   5.543  -0.097   6.655  0.7187 -0.2971  0.3803
  406MOL0     C54695   5.610  -0.196   6.558  0.2352  0.1589 -0.0982
  406MOL0     C54696   5.658  -0.110   6.438  0.2132 -0.6134 -0.4768
  406MOL0     C54697   5.553  -0.039   6.350 -0.1459 -0.4297  0.8024
  406MOL0     C54698   5.612   0.055   6.247  0.7791  0.7152  0.9507
  406MOL0     O54699   5.708   0.152   6.302  0.1224  0.1192 -0.2122
  406MOL0     C54700   5.776   0.230   6.211  0.1772 -0.0710  0.0689
  406MOL0     C54701   5.892   0.299   6.248 -1.3201  0.4109  0.0199
  406MOL0     C54702   5.978   0.357   6.156  0.4300 -0.9490 -0.0406
  406MOL0     C54703   5.961   0.357   6.025  0.9983 -0.8594  0.3093
  406MOL0     C54704   6.059   0.414   5.921  0.5815  0.5051 -0.3339
  406MOL0     O54705   6.020   0.405   5.789  0.3036 -0.9432  0.3607
  406MOL0     C54706   6.098   0.471   5.705 -1.1071 -0.4200 -0.1000
  406MOL0     C54707   6.194   0.401   5.631  1.0786 -0.4564 -0.3141
  406MOL0     C54708   6.247   0.456   5.518 -0.4985  0.0720 -1.4512
  406MOL0     C54709   6.228   0.596   5.498 -0.9971 -0.2617  0.4815
  406MOL0     O54710   6.279   0.672   5.396  0.0657 -0.3650  0.3522
  406MOL0     C54711   6.362   0.593   5.306  0.7924  0.1680 -0.9056
  406MOL0     C54712   6.406   0.656   5.181  0.2011  0.2100  0.2362
  406MOL0     C54713   6.475   0.790   5.183 -0.0825  0.0857 -0.0193
  406MOL0     C54714   6.492   0.849   5.044 -0.7687  0.7516 -0.3314
  406MOL0     C54715   6.546   0.994   5.050  0.2856 -0.1435  0.3889
  406MOL0     C54716   6.577   1.048   4.909  0.2455 -0.4049  0.3053
  406MOL0     C54717   6.626   1.202   4.913  0.1941 -0.0851 -0.2153
  406MOL0     C54718   6.640   1.264   4.775 -1.3500  0.3403  0.1442
  406MOL0    Cl54719   6.805   1.316   4.745  0.4560 -0.8460  0.0283
  406MOL0     C54720   6.147   0.669   5.587 -0.5501 -0.3004 -0.1188
  406MOL0     C54721   6.081   0.610   5.695  0.1902  0.3759  0.4767
  406MOL0     O54722   6.161   0.457   5.965 -1.0328 -1.2000 -0.3979
  406MOL0     C54723   5.840   0.300   5.987 -0.6866  0.9261 -0.5177
  406MOL0     C54724   5.760   0.228   6.077  0.3072 -0.8449  1.0826
  406MOL0     N54725   5.423  -0.133   6.721  0.5223  0.9177 -0.0825
  406MOL0     N54726   5.391  -0.052   6.816 -0.8599  0.4407 -0.2065
  406MOL0     C54727   6.204   0.454   7.546  0.0436  0.4233  0.5697
  406MOL0     C54728   6.311   0.478   7.621  0.0468 -0.4682 -0.0742
  406MOL0     C54729   6.633   0.616   7.840  0.2490 -0.6916 -0.5962
  406MOL0     C54730   6.641   0.496   7.908  1.8697  0.1108  0.1990
  406MOL0     C54731   6.741   0.455   7.983  0.1297 -0.4101  0.2430
  406MOL0     C54732   6.855   0.533   7.991  0.0598 -0.4608  0.2603
  406MOL0     O54733   6.976   0.490   8.053  0.9815 -0.4792 -0.0614
  406MOL0     C54734   6.964   0.473   8.189  0.6827  0.6415 -0.6970
  406MOL0     C54735   6.996   0.325   8.213  0.1060 -0.2327  1.1685
  406MOL0     C54736   7.022   0.297   8.361  0.0555 -0.7917  0.3916
  406MOL0     C54737   6.896   0.316   8.444 -0.4342 -0.0416  0.9150
  406MOL0     C54738   6.929   0.290   8.580  1.0465 -0.0029 -0.3290
  406MOL0     C54739   6.930   0.255   8.702  0.0430 -0.2278 -0.4108
  406MOL0     C54740   6.857   0.650   7.925 -0.0487  0.8875 -0.2255
  406MOL0     C54741   6.743   0.696   7.862 -0.2269  0.0481 -0.2274
  406MOL0     C54742   6.744   0.838   7.807  0.3321 -0.0699  0.3831
  406MOL0     H54743   6.194   0.733   7.821  0.4151  0.7303 -0.8428
  406MOL0     H54744   5.998   0.699   7.665  0.5315 -0.3818 -1.3303
  406MOL0     H54745   5.807   0.538   7.576 -0.5738  0.8653  0.4801
  406MOL0     H54746   5.884   0.678   7.477 -0.2445 -0.1515 -1.6323
  406MOL0     H54747   5.811   0.605   7.272  0.0608 -3.3952 -3.0235
  406MOL0     H54748   5.676   0.600   7.382 -0.5987 -1.6606 -0.0722
  406MOL0     H54749   5.641   0.400   7.316  0.3193 -1.1288  0.8238
  406MOL0     H54750   5.771   0.338   7.406 -5.2254 -0.7076  2.3354
  406MOL0     H54751   5.935   0.361   7.215  0.9461 -0.5771 -1.9551
  406MOL0     H54752   5.822   0.229   7.241 -2.0192  1.4827  2.4480
  406MOL0     H54753   5.793   0.464   7.045  2.1500 -0.2158 -1.4843
  406MOL0     H54754   5.859   0.306   7.005  0.8137  2.6617 -0.3426
  406MOL0     H54755   5.583   0.293   7.141 -1.0395 -0.5913 -0.6919
  406MOL0     H54756   5.575   0.393   7.000 -3.1109  0.7538  2.8922
  406MOL0     H54757   5.680   0.096   7.036  0.0427  1.2476  1.7154
  406MOL0     H54758   5.698   0.194   6.880 -0.8117  1.6183 -1.0721
  406MOL0     H54759   5.421   0.118   6.994 -1.5249 -0.1236 -1.2538
  406MOL0     H54760   5.457   0.235   6.869  2.7441  3.2614  1.6753
  406MOL0     H54761   5.661   0.083   6.696 -0.9318 -0.1536 -1.5733
  406MOL0     H54762   5.697  -0.244   6.604  2.0057  3.4341  0.2739
  406MOL0     H54763   5.547  -0.280   6.526 -0.5503  0.3050  1.0196
  406MOL0     H54764   5.717  -0.030   6.484 -1.0375 -0.9840  1.9585
  406MOL0     H54765   5.734  -0.159   6.377  2.9215 -0.3435  2.4114
  406MOL0     H54766   5.477   0.008   6.413  1.3466  1.9926  0.9185
  406MOL0     H54767   5.498  -0.110   6.287 -1.3951  1.1362  0.0799
  406MOL0     H54768   5.530   0.120   6.214  2.6600  3.6545  1.6532
  406MOL0     H54769   5.665  -0.009   6.176 -2.3851 -2.7276  1.4020
  406MOL0     H54770   5.921   0.291   6.353  1.5883  2.2070 -0.5311
  406MOL0     H54771   6.052   0.423   6.200 -0.9333 -0.1711  1.1695
  406MOL0     H54772   6.213   0.295   5.647 -1.9167 -0.9936  0.2760
  406MOL0     H54773   6.292   0.383   5.452 -0.1428 -1.4029  0.3468
  406MOL0     H54774   6.447   0.555   5.363 -1.0059 -0.1625  1.7821
  406MOL0     H54775   6.308   0.505   5.268  2.6784 -1.9032  0.8737
  406MOL0     H54776   6.469   0.583   5.130 -0.1056 -0.0613  0.2456
  406MOL0     H54777   6.317   0.667   5.118 -0.2127 -0.5904  0.6663
  406MOL0     H54778   6.409   0.860   5.234  1.2863  0.5784  1.1628
  406MOL0     H54779   6.567   0.792   5.243 -2.1046 -1.3094  3.4545
  406MOL0     H54780   6.393   0.859   4.996 -0.7401  1.6540 -0.2196
  406MOL0     H54781   6.554   0.787   4.979 -0.7700  1.5707 -1.1392
  406MOL0     H54782   6.635   0.989   5.113  0.6620 -0.5536 -0.1704
  406MOL0     H54783   6.478   1.061   5.103 -2.6207 -3.3650  1.1693
  406MOL0     H54784   6.650   0.986   4.856 -2.0363 -1.9574 -1.2088
  406MOL0     H54785   6.488   1.039   4.846 -1.5825  0.4972  2.6036
  406MOL0     H54786   6.719   1.208   4.971  0.7356  0.2318 -1.0930
  406MOL0     H54787   6.557   1.263   4.972 -1.0426 -0.1172 -1.5779
  406MOL0     H54788   6.632   1.179   4.707  1.8334 -0.0543  0.1149
  406MOL0     H54789   6.582   1.353   4.751 -2.9191 -0.3765  1.1071
  406MOL0     H54790   6.136   0.776   5.585 -1.2708 -0.3322  1.3789
  406MOL0     H54791   5.996   0.653   5.747 -2.0062 -3.8855  0.8094
  406MOL0     H54792   5.810   0.303   5.882  0.1158  1.5310 -0.7460
  406MOL0     H54793   5.670   0.178   6.043  0.9639 -2.4467  1.5961
  406MOL0     H54794   6.205   0.383   7.465  3.5060  3.2129 -2.1511
  406MOL0     H54795   6.408   0.431   7.610 -0.3081 -2.3888  3.5682
  406MOL0     H54796   6.556   0.428   7.909  1.2892  0.7463 -1.7234
  406MOL0     H54797   6.733   0.356   8.027  2.1219  0.6149  3.2013
  406MOL0     H54798   6.869   0.503   8.234  0.9531 -1.1891  1.2363
  406MOL0     H54799   7.045   0.529   8.238  1.9889 -2.0552  0.4223
  406MOL0     H54800   7.087   0.296   8.160 -0.9620 -1.5048 -0.0673
  406MOL0     H54801   6.917   0.261   8.172  1.7213 -0.1968 -2.3498
  406MOL0     H54802   7.090   0.370   8.406 -2.2272  1.1430  0.8753
  406MOL0     H54803   7.058   0.194   8.368 -3.5028 -2.0982  1.6130
  406MOL0     H54804   6.854   0.417   8.440  0.1082  0.1999  1.1806
  406MOL0     H54805   6.814   0.248   8.418 -1.9827  2.3282 -0.8142
  406MOL0     H54806   6.932   0.236   8.807  1.5857  0.0530 -0.3692
  406MOL0     H54807   6.950   0.706   7.927  1.0995 -0.8813 -1.3408
  406MOL0     H54808   6.649   0.875   7.848 -0.0819 -0.3802 -0.2901
  406MOL0     H54809   6.831   0.899   7.832 -0.5614  1.1084  0.6772
  406MOL0     H54810   6.742   0.845   7.698 -0.0123 -0.6099  0.3508
  407MOL0     O54811   7.111   3.477   3.154  0.2483 -0.7344 -0.2815
  407MOL0     C54812   7.088   3.499   3.278 -0.4208 -0.5429 -1.2321
  407MOL0     O54813   6.977   3.461   3.349 -0.3614 -0.1106  0.6125
  407MOL0     C54814   6.888   3.379   3.285  0.1507  0.4103  0.6036
  407MOL0     C54815   6.917   3.248   3.246  0.3429 -0.5006  0.6498
  407MOL0     C54816   6.817   3.168   3.188 -0.4441  0.3389  0.1440
  407MOL0     C54817   6.684   3.217   3.177  0.0057 -0.3911 -0.2530
  407MOL0     O54818   6.594   3.128   3.117  0.3515  0.1816  0.0137
  407MOL0     C54819   6.455   3.171   3.080 -0.5157 -0.0003  0.3056
  407MOL0     C54820   6.392   3.074   2.975 -0.2714 -0.4315  0.7915
  407MOL0     C54821   6.477   3.037   2.845 -0.0519 -0.6015 -0.2567
  407MOL0     C54822   6.487   3.138   2.732 -0.3651 -0.7106  1.4555
  407MOL0     C54823   6.514   3.064   2.589  0.6690 -0.8921 -0.3374
  407MOL0     C54824   6.472   3.154   2.485  0.1525 -0.6814  0.1395
  407MOL0     C54825   6.318   3.170   2.480 -0.2585  0.8052  0.0680
  407MOL0     C54826   6.257   3.218   2.350 -0.0251 -0.2416 -0.2826
  407MOL0     N54827   6.304   3.361   2.318 -0.0541 -0.1618 -0.5971
  407MOL0     C54828   6.432   3.399   2.267 -0.0920 -0.2945  0.5274
  407MOL0     C54829   6.429   3.534   2.272 -0.0204  0.3427 -0.8665
  407MOL0     C54830   6.532   3.637   2.233 -0.1227 -0.5572  0.3460
  407MOL0     C54831   6.476   3.724   2.107 -0.1507 -0.1099  0.5543
  407MOL0     C54832   6.342   3.797   2.117 -0.2911  0.0371 -0.4122
  407MOL0     C54833   6.335   3.889   1.990  0.6895  0.8784  0.1590
  407MOL0     O54834   6.284   3.820   1.878 -0.1089  0.5329 -0.9942
  407MOL0     C54835   6.154   3.770   1.895 -1.2174 -0.8235  0.8266
  407MOL0     C54836   6.040   3.857   1.896 -1.0070 -0.0541  0.0989
  407MOL0     C54837   5.904   3.816   1.898 -0.6227  0.1979  0.6802
  407MOL0     C54838   5.879   3.676   1.895  0.5722  0.5199 -0.4033
  407MOL0     C54839   5.740   3.624   1.915 -0.2623 -0.3533 -0.7827
  407MOL0     O54840   5.643   3.723   1.919 -0.3546  0.3523  0.2713
  407MOL0     C54841   5.510   3.696   1.938  1.2076 -0.4777 -0.1263
  407MOL0     C54842   5.443   3.793   2.012  0.9365 -1.1062 -0.2205
  407MOL0     C54843   5.297   3.784   2.032  0.0107  0.2969  0.7164
  407MOL0     C54844   5.219   3.679   1.970  1.0632  0.4766  0.5558
  407MOL0     O54845   5.089   3.663   2.012  0.2348 -0.3141  0.1250
  407MOL0     C54846   4.979   3.579   1.954 -0.2142  0.6697  0.4115
  407MOL0     C54847   4.865   3.578   2.060  0.2358  0.5380  0.1391
  407MOL0     C54848   4.899   3.477   2.177  1.0518 -0.1190 -0.0035
  407MOL0     C54849   4.778   3.488   2.274 -1.1547  0.2543  0.3023
  407MOL0     C54850   4.782   3.371   2.373  0.1466  0.8555  0.4043
  407MOL0     C54851   4.885   3.383   2.491 -0.7158 -0.2949  0.1209
  407MOL0     C54852   4.842   3.285   2.600 -0.1649  0.4651  0.0950
  407MOL0     C54853   4.932   3.280   2.714  0.2687  0.8226  0.0356
  407MOL0    Cl54854   4.917   3.431   2.786  0.0451  0.1087 -0.0400
  407MOL0     C54855   5.295   3.587   1.893  1.7444 -0.8440  0.1631
  407MOL0     C54856   5.432   3.595   1.883  0.5265 -0.2012  1.6933
  407MOL0     O54857   5.719   3.506   1.931 -0.5629  0.1551 -0.5779
  407MOL0     C54858   5.997   3.588   1.899 -0.1414 -0.4672 -0.4669
  407MOL0     C54859   6.127   3.635   1.885  0.2572 -0.4160  0.2724
  407MOL0     N54860   6.311   3.569   2.332  0.4668 -0.0908  0.1599
  407MOL0     N54861   6.237   3.464   2.361 -0.7043 -0.6526  0.1199
  407MOL0     C54862   6.652   3.341   3.238  1.1773 -0.7516  0.0456
  407MOL0     C54863   6.754   3.428   3.291 -0.2743  0.5056  0.0087
  407MOL0     C54864   7.169   3.578   3.365 -0.2633 -0.0250  0.4168
  407MOL0     C54865   7.138   3.587   3.505 -0.2995  0.0324 -0.3901
  407MOL0     C54866   7.214   3.655   3.590 -0.2508 -0.1229 -0.4952
  407MOL0     C54867   7.336   3.713   3.547  0.1261  0.6091 -0.3929
  407MOL0     O54868   7.406   3.795   3.630  0.2392 -0.3887  1.1489
  407MOL0     C54869   7.548   3.786   3.642 -1.7234  0.1449 -0.1945
  407MOL0     C54870   7.593   3.655   3.706 -0.2486 -0.1275  0.3972
  407MOL0     C54871   7.504   3.595   3.813 -1.1223  0.0432 -0.2804
  407MOL0     C54872   7.590   3.488   3.886  0.8064 -0.4688  0.0635
  407MOL0     C54873   7.661   3.385   3.797  0.2995 -0.2034 -0.0967
  407MOL0     C54874   7.707   3.311   3.711 -0.5937  0.1481  0.6421
  407MOL0     C54875   7.371   3.709   3.414  0.1201  1.2335 -0.1068
  407MOL0     C54876   7.297   3.623   3.322  0.0496  0.7857  0.0982
  407MOL0     C54877   7.359   3.603   3.181 -0.4535  0.1327 -0.4613
  407MOL0     H54878   7.016   3.210   3.269 -0.0262 -2.0482 -0.1782
  407MOL0     H54879   6.843   3.079   3.130 -4.4410  0.2854 -1.9144
  407MOL0     H54880   6.393   3.165   3.170  0.9644 -0.4541  1.3261
  407MOL0     H54881   6.461   3.268   3.030  3.8611 -0.5999 -0.7957
  407MOL0     H54882   6.296   3.117   2.945 -0.5065 -1.5528 -0.1139
  407MOL0     H54883   6.373   2.975   3.019  2.5378  0.2243  3.9485
  407MOL0     H54884   6.436   2.939   2.816  2.2362 -2.1311  1.2792
  407MOL0     H54885   6.580   3.014   2.874 -0.3342 -0.0106  1.3065
  407MOL0     H54886   6.404   3.209   2.727  1.5379  1.5650 -1.0364
  407MOL0     H54887   6.572   3.204   2.750 -0.3566 -0.4205  0.3995
  407MOL0     H54888   6.619   3.034   2.582  0.3157 -2.0717 -0.7955
  407MOL0     H54889   6.454   2.974   2.572 -1.6383  0.5530 -0.3169
  407MOL0     H54890   6.516   3.252   2.505 -0.8828 -0.8979  4.2530
  407MOL0     H54891   6.512   3.117   2.390  0.5386  3.1591 -1.3608
  407MOL0     H54892   6.278   3.235   2.557  0.0453  1.8100 -0.6051
  407MOL0     H54893   6.278   3.069   2.489  1.6612 -0.1112 -0.8983
  407MOL0     H54894   6.279   3.168   2.256 -1.5939  1.6143 -1.7274
  407MOL0     H54895   6.149   3.220   2.362 -0.1631  1.2122 -1.4066
  407MOL0     H54896   6.514   3.336   2.235  2.5176  2.9184  0.3143
  407MOL0     H54897   6.550   3.702   2.319  0.6434 -0.7326  0.3238
  407MOL0     H54898   6.626   3.593   2.199 -0.8235 -1.0170 -1.0458
  407MOL0     H54899   6.549   3.806   2.102 -0.8898  0.6714  1.9135
  407MOL0     H54900   6.460   3.662   2.019 -0.6928  1.1130 -0.2414
  407MOL0     H54901   6.334   3.859   2.207 -1.0420  2.6157 -2.1586
  407MOL0     H54902   6.255   3.732   2.125 -0.1340 -0.2954 -1.3317
  407MOL0     H54903   6.429   3.937   1.960  1.4200 -2.2994 -3.4318
  407MOL0     H54904   6.263   3.970   2.002 -1.3894 -0.9204  0.4002
  407MOL0     H54905   6.055   3.965   1.890 -0.7384 -0.0932  0.0515
  407MOL0     H54906   5.825   3.889   1.910 -0.0758  0.6875  1.3667
  407MOL0     H54907   5.496   3.874   2.061 -1.7208  0.8009 -0.2557
  407MOL0     H54908   5.239   3.845   2.101  0.0109  0.2728  0.7381
  407MOL0     H54909   4.946   3.616   1.856 -1.8460 -2.9620 -0.5494
  407MOL0     H54910   5.020   3.479   1.937 -3.5332 -0.5531 -1.1718
  407MOL0     H54911   4.851   3.678   2.102  0.1619  1.4409 -1.9343
  407MOL0     H54912   4.773   3.556   2.005  0.1798  0.9731  0.0576
  407MOL0     H54913   4.918   3.380   2.131  2.8569  1.1081 -1.9750
  407MOL0     H54914   4.997   3.503   2.218  0.6012  1.1924  0.2812
  407MOL0     H54915   4.689   3.483   2.210 -0.0952 -0.9730 -1.1710
  407MOL0     H54916   4.781   3.582   2.330 -0.1486  1.1640 -1.1843
  407MOL0     H54917   4.804   3.279   2.318 -0.2648 -0.1055  1.8085
  407MOL0     H54918   4.678   3.364   2.408  0.2020  2.0140  0.8285
  407MOL0     H54919   4.977   3.363   2.435 -1.9812 -1.0015 -1.8135
  407MOL0     H54920   4.878   3.481   2.540 -2.1081 -0.6977  0.7918
  407MOL0     H54921   4.829   3.190   2.548 -5.5999  0.7526  0.3425
  407MOL0     H54922   4.738   3.308   2.627 -0.4006  0.9801 -1.1659
  407MOL0     H54923   4.898   3.204   2.785 -0.4763  0.1657 -1.0093
  407MOL0     H54924   5.039   3.262   2.696  0.4160 -0.0370  1.5817
  407MOL0     H54925   5.233   3.510   1.847 -2.2686  1.3661  1.3776
  407MOL0     H54926   5.483   3.520   1.824 -0.5248  0.0490  0.4409
  407MOL0     H54927   5.973   3.483   1.911  0.1110 -0.5889 -0.9782
  407MOL0     H54928   6.200   3.555   1.884  1.4316  0.5450  2.4477
  407MOL0     H54929   6.545   3.360   3.239  0.9592 -1.9192 -0.0359
  407MOL0     H54930   6.731   3.528   3.326 -2.3800 -0.2155  0.8740
  407MOL0     H54931   7.047   3.551   3.551 -0.6207 -1.3485 -2.0075
  407MOL0     H54932   7.174   3.681   3.688  2.0276  0.6522  0.3053
  407MOL0     H54933   7.586   3.866   3.706  3.2222 -1.3178 -0.9360
  407MOL0     H54934   7.593   3.815   3.546  2.8932  1.7143  2.1393
  407MOL0     H54935   7.698   3.671   3.728  0.3319 -2.5373 -0.3275
  407MOL0     H54936   7.590   3.585   3.621  0.8016 -2.0602  1.8838
  407MOL0     H54937   7.421   3.544   3.763 -1.3090  0.3190 -0.2516
  407MOL0     H54938   7.466   3.677   3.875  1.7403  2.0474 -0.9630
  407MOL0     H54939   7.661   3.545   3.947  0.3320  1.3463 -0.9942
  407MOL0     H54940   7.525   3.430   3.952  2.2623 -4.5773 -1.7443
  407MOL0     H54941   7.748   3.246   3.636 -1.7343 -0.3337  0.4086
  407MOL0     H54942   7.460   3.758   3.377  2.1448 -1.5777  0.7367
  407MOL0     H54943   7.352   3.499   3.149 -1.0976 -0.7498  2.3172
  407MOL0     H54944   7.298   3.657   3.108 -1.3208 -0.2698 -0.0481
  407MOL0     H54945   7.461   3.643   3.182 -1.4221  3.0740 -2.7098
  408MOL0     O54946  11.230  10.556   0.557 -0.5792  0.1427 -0.3935
  408MOL0     C54947  11.303  10.555   0.653 -0.1177 -0.8349 -0.2746
  408MOL0     O54948  11.304  10.640   0.762 -0.1872  0.1012  0.0934
  408MOL0     C54949  11.228  10.754   0.753 -0.1722  0.4022 -0.2850
  408MOL0     C54950  11.089  10.753   0.743  0.2800 -1.8403 -0.2221
  408MOL0     C54951  11.018  10.873   0.716  0.2523  0.5832 -1.5437
  408MOL0     C54952  11.091  10.997   0.724  0.2453  0.2143  0.4237
  408MOL0     O54953  11.026  11.116   0.710  0.2794 -0.3242  0.4198
  408MOL0     C54954  10.891  11.118   0.654 -0.0110 -0.6080 -0.3062
  408MOL0     C54955  10.881  11.274   0.618 -0.2684  0.8725 -0.0650
  408MOL0     C54956  10.997  11.335   0.534 -1.0280  0.2910  0.3495
  408MOL0     C54957  11.045  11.247   0.412 -0.8163  0.2400  1.0304
  408MOL0     C54958  11.207  11.246   0.394 -0.4780  0.6279 -0.0339
  408MOL0     C54959  11.267  11.381   0.359 -0.3415  0.8784 -0.1462
  408MOL0     C54960  11.200  11.451   0.241  0.1446  0.2301  0.3893
  408MOL0     C54961  11.263  11.585   0.200  0.0951  0.6273  0.3036
  408MOL0     N54962  11.383  11.578   0.116 -0.3139 -0.0727  0.1725
  408MOL0     C54963  11.388  11.581  -0.020  0.5095 -0.0105  0.7915
  408MOL0     C54964  11.518  11.586  -0.061 -0.0695  0.7125  0.0299
  408MOL0     C54965  11.571  11.594  -0.194  0.8177 -0.8297 -0.1950
  408MOL0     C54966  11.566  11.736  -0.243 -0.1653 -0.6291  0.3193
  408MOL0     C54967  11.685  11.816  -0.193  0.4694  0.0882  0.3949
  408MOL0     C54968  11.822  11.762  -0.243  0.3349 -1.1058 -0.5567
  408MOL0     O54969  11.923  11.850  -0.185 -0.3560  0.6685  0.6530
  408MOL0     C54970  12.044  11.862  -0.250  0.1571 -0.5912 -0.1429
  408MOL0     C54971  12.099  11.991  -0.245  1.3929  0.0978 -0.5385
  408MOL0     C54972  12.223  12.011  -0.315 -0.3212  0.3861  0.7386
  408MOL0     C54973  12.279  11.900  -0.394 -0.7921 -0.0500  0.3406
  408MOL0     C54974  12.403  11.937  -0.461 -0.0686 -0.0742 -0.1700
  408MOL0     O54975  12.443  12.066  -0.450  0.0389  0.0128 -0.4115
  408MOL0     C54976  12.566  12.098  -0.507 -0.0709  0.0207  0.6102
  408MOL0     C54977  12.565  12.221  -0.572  0.3263 -1.3549 -0.5944
  408MOL0     C54978  12.682  12.266  -0.631 -0.0819  1.5837 -1.0598
  408MOL0     C54979  12.802  12.184  -0.635  0.5892  0.0590  0.0403
  408MOL0     O54980  12.904  12.236  -0.702 -0.8640 -0.5627 -0.5468
  408MOL0     C54981  12.979  12.142  -0.789  0.6552 -1.0653  0.0138
  408MOL0     C54982  13.123  12.152  -0.775 -0.3270  0.1972 -0.7600
  408MOL0     C54983  13.185  12.098  -0.645 -0.1064  0.7746 -0.4575
  408MOL0     C54984  13.193  11.941  -0.643 -0.4370 -0.7479  0.6747
  408MOL0     C54985  13.187  11.886  -0.504  0.4185  0.9544 -0.1723
  408MOL0     C54986  13.174  11.727  -0.488  0.1362  0.1552  0.1368
  408MOL0     C54987  13.297  11.651  -0.524  1.3310 -0.2157  0.2818
  408MOL0     C54988  13.281  11.493  -0.502  0.5541 -0.4613  0.8361
  408MOL0    Cl54989  13.419  11.409  -0.582  0.0564 -0.1407 -0.1875
  408MOL0     C54990  12.799  12.064  -0.561  0.5723 -0.4571  0.4950
  408MOL0     C54991  12.679  12.020  -0.490 -0.9809 -0.2842  0.7164
  408MOL0     O54992  12.452  11.858  -0.533 -0.0753  0.3184  0.3653
  408MOL0     C54993  12.211  11.784  -0.403  0.2304  1.1138 -0.0338
  408MOL0     C54994  12.092  11.760  -0.331  0.7240 -0.4490 -0.6068
  408MOL0     N54995  11.595  11.596   0.055  0.7412 -0.0675 -0.0751
  408MOL0     N54996  11.507  11.597   0.154 -0.1576 -0.0708 -0.0560
  408MOL0     C54997  11.230  10.995   0.743  0.4966 -0.3978 -0.2740
  408MOL0     C54998  11.298  10.869   0.758 -0.3694  0.0852  0.1865
  408MOL0     C54999  11.386  10.436   0.662 -0.1567  0.7567 -0.4497
  408MOL0     C55000  11.362  10.330   0.756  0.2370  0.3959 -0.6932
  408MOL0     C55001  11.449  10.220   0.769 -0.5229 -0.0363 -0.1880
  408MOL0     C55002  11.568  10.201   0.695  0.4273 -0.1297  0.2630
  408MOL0     O55003  11.645  10.083   0.714  0.9570  0.7613 -0.1436
  408MOL0     C55004  11.591   9.951   0.690  0.3001 -0.2194 -0.0022
  408MOL0     C55005  11.697   9.853   0.635 -0.2564 -0.8139 -0.4321
  408MOL0     C55006  11.714   9.871   0.487 -0.5631 -0.8761  0.9008
  408MOL0     C55007  11.826   9.781   0.420 -0.2172 -0.6754  1.0293
  408MOL0     C55008  11.954   9.802   0.485 -0.6490 -0.0261 -0.5474
  408MOL0     C55009  12.072   9.820   0.529  0.8888  0.0798 -0.2318
  408MOL0     C55010  11.598  10.317   0.607 -0.4051 -0.6733 -0.5832
  408MOL0     C55011  11.504  10.421   0.591  0.3261  1.2607  0.4279
  408MOL0     C55012  11.553  10.521   0.484  0.6567 -0.0892 -0.2329
  408MOL0     H55013  11.038  10.657   0.738 -0.5448 -1.4182 -0.1112
  408MOL0     H55014  10.914  10.850   0.693  0.2541 -1.4976  0.2253
  408MOL0     H55015  10.884  11.046   0.572 -0.1332 -0.8180 -0.1118
  408MOL0     H55016  10.806  11.110   0.723  0.1596  0.7721  0.0953
  408MOL0     H55017  10.870  11.325   0.714  1.4867 -0.2643  0.7900
  408MOL0     H55018  10.803  11.292   0.544 -0.8326 -1.1068 -0.0128
  408MOL0     H55019  11.082  11.343   0.602 -2.7567 -1.8863  2.9757
  408MOL0     H55020  10.973  11.434   0.494  1.5208  0.8484  0.0026
  408MOL0     H55021  11.015  11.144   0.430  1.4575 -0.1712  2.8906
  408MOL0     H55022  11.001  11.280   0.317  1.1255  1.0376  0.3584
  408MOL0     H55023  11.260  11.207   0.481  0.2175  3.0628  0.7148
  408MOL0     H55024  11.230  11.171   0.318  0.0252  0.4621  0.2789
  408MOL0     H55025  11.253  11.442   0.449 -1.5295 -0.4975  0.6405
  408MOL0     H55026  11.372  11.360   0.338 -0.2483  2.0101 -0.9097
  408MOL0     H55027  11.092  11.452   0.259  0.0110  1.0588 -0.3994
  408MOL0     H55028  11.207  11.372   0.166 -2.6172 -1.1181  1.3951
  408MOL0     H55029  11.190  11.640   0.141 -0.0800 -2.2754 -2.4682
  408MOL0     H55030  11.286  11.643   0.290  1.0025 -1.8964  1.8185
  408MOL0     H55031  11.303  11.595  -0.086  1.5653 -0.0635 -0.6262
  408MOL0     H55032  11.671  11.548  -0.203  1.5407  0.4180  1.0922
  408MOL0     H55033  11.511  11.530  -0.260 -0.2084  0.3390 -0.4342
  408MOL0     H55034  11.567  11.725  -0.351 -1.2168 -0.0086  0.2362
  408MOL0     H55035  11.474  11.783  -0.207  0.6468 -2.1332  5.0607
  408MOL0     H55036  11.686  11.820  -0.083 -0.9854  2.1807  0.3830
  408MOL0     H55037  11.672  11.919  -0.226 -0.9230 -0.1588  0.0826
  408MOL0     H55038  11.819  11.759  -0.353  0.6272 -1.9500 -0.5496
  408MOL0     H55039  11.837  11.657  -0.214 -0.0047 -0.9655  0.1453
  408MOL0     H55040  12.049  12.065  -0.184 -0.1928 -0.8858 -0.5920
  408MOL0     H55041  12.278  12.103  -0.300 -0.0101  0.2828  0.2593
  408MOL0     H55042  12.474  12.280  -0.577  0.2297 -1.4846 -0.4153
  408MOL0     H55043  12.701  12.361  -0.680  2.4029  3.2077  2.5441
  408MOL0     H55044  12.942  12.040  -0.777  1.6869 -1.3212  1.2425
  408MOL0     H55045  12.948  12.182  -0.886 -2.9501 -1.1746  1.0037
  408MOL0     H55046  13.169  12.091  -0.854 -0.0242 -1.5390  0.6713
  408MOL0     H55047  13.155  12.256  -0.781  1.1163 -0.0764  1.0066
  408MOL0     H55048  13.288  12.135  -0.636  0.5963 -0.7166 -1.9044
  408MOL0     H55049  13.127  12.135  -0.559 -2.4721 -1.9250 -0.7551
  408MOL0     H55050  13.275  11.910  -0.710  1.7046 -0.1676  2.8953
  408MOL0     H55051  13.101  11.907  -0.690  1.3184 -0.9243 -3.0202
  408MOL0     H55052  13.099  11.930  -0.456  1.2490  1.6130  0.8038
  408MOL0     H55053  13.279  11.924  -0.458  1.0063  1.5331 -1.7711
  408MOL0     H55054  13.145  11.715  -0.383 -2.1591 -2.5917 -0.6659
  408MOL0     H55055  13.087  11.707  -0.552 -1.4908  3.5510  1.0686
  408MOL0     H55056  13.369  11.681  -0.447 -2.0007  1.0913  3.1942
  408MOL0     H55057  13.319  11.668  -0.629 -0.6411  1.1579  0.0439
  408MOL0     H55058  13.271  11.466  -0.396 -1.1198 -1.0681  0.5481
  408MOL0     H55059  13.194  11.452  -0.553 -0.9611  3.3469 -0.0098
  408MOL0     H55060  12.889  12.004  -0.552  0.6631 -0.2499  0.9760
  408MOL0     H55061  12.702  11.931  -0.432  3.7448 -0.7880 -1.4376
  408MOL0     H55062  12.261  11.703  -0.456 -0.8276  0.0829  0.5019
  408MOL0     H55063  12.037  11.666  -0.339 -0.9538  0.4965 -0.6199
  408MOL0     H55064  11.284  11.087   0.758  1.3995 -0.9098 -0.3189
  408MOL0     H55065  11.402  10.880   0.786 -1.3343  0.9763  3.9943
  408MOL0     H55066  11.271  10.321   0.813  1.1803 -0.7185  0.6894
  408MOL0     H55067  11.408  10.132   0.817 -2.4181  0.2385 -1.2118
  408MOL0     H55068  11.503   9.974   0.630 -0.0486  1.5793  1.1408
  408MOL0     H55069  11.545   9.904   0.778  3.4471 -2.5475  0.5943
  408MOL0     H55070  11.654   9.759   0.671 -0.4926 -0.0204  1.4962
  408MOL0     H55071  11.792   9.881   0.681  1.5527  1.5107 -4.9993
  408MOL0     H55072  11.735   9.977   0.467 -1.0574 -0.8639  0.4127
  408MOL0     H55073  11.624   9.849   0.429 -0.8475 -3.6838  2.2549
  408MOL0     H55074  11.793   9.679   0.397  0.8316 -0.3058 -2.8556
  408MOL0     H55075  11.847   9.810   0.317  1.5426  0.2361  1.5997
  408MOL0     H55076  12.167   9.846   0.573  0.5234  0.6271  0.2479
  408MOL0     H55077  11.695  10.303   0.561 -1.6695 -4.2393 -2.5062
  408MOL0     H55078  11.581  10.469   0.391 -3.8855 -2.5735 -0.4865
  408MOL0     H55079  11.481  10.601   0.467  1.5235  0.8542  0.4132
  408MOL0     H55080  11.640  10.574   0.525  0.7000  1.1171 -1.7933
  409MOL0     O55081   2.920   9.385   1.098 -0.7317 -0.6316 -0.3457
  409MOL0     C55082   2.944   9.485   1.038  0.3590  0.4782 -0.0032
  409MOL0     O55083   2.859   9.597   1.032 -0.2650  0.2303 -0.4629
  409MOL0     C55084   2.733   9.592   1.079  0.2630  0.1118 -0.2093
  409MOL0     C55085   2.652   9.491   1.145 -0.7701  0.1239  0.7585
  409MOL0     C55086   2.525   9.518   1.194  0.1617  1.3546 -0.1557
  409MOL0     C55087   2.468   9.645   1.191 -0.6260  0.0373  0.1752
  409MOL0     O55088   2.346   9.660   1.244 -0.0989 -0.2167 -0.1296
  409MOL0     C55089   2.344   9.755   1.352  0.4306 -0.4298  0.2921
  409MOL0     C55090   2.216   9.834   1.338 -0.0213 -0.1461  0.6046
  409MOL0     C55091   2.243   9.919   1.210 -0.5438 -0.8993 -0.1819
  409MOL0     C55092   2.155  10.043   1.206 -1.1034 -0.7183 -0.3646
  409MOL0     C55093   2.206  10.137   1.100  0.4243  0.3425 -0.8367
  409MOL0     C55094   2.157  10.278   1.119 -0.3462 -0.9029 -0.3017
  409MOL0     C55095   2.166  10.354   0.976 -0.4743 -0.1061 -0.2451
  409MOL0     C55096   2.154  10.509   0.979  0.6615  0.8697  0.4645
  409MOL0     N55097   2.271  10.595   1.002 -0.0650  0.4051 -0.8164
  409MOL0     C55098   2.390  10.541   1.029  0.3538 -0.3369  0.2138
  409MOL0     C55099   2.472  10.648   1.039  0.2396  0.0315  1.0924
  409MOL0     C55100   2.622  10.637   1.057  0.0592  0.9821  0.4340
  409MOL0     C55101   2.683  10.768   1.070  0.5203  0.5299 -0.4819
  409MOL0     C55102   2.839  10.771   1.084  0.5977  0.0663  0.9248
  409MOL0     C55103   2.885  10.730   1.220  0.0238 -0.1882 -0.3840
  409MOL0     O55104   3.025  10.758   1.226  0.3222  0.6189  0.5406
  409MOL0     C55105   3.088  10.744   1.344  0.0419  0.6263 -0.4207
  409MOL0     C55106   3.061  10.636   1.431 -0.8253  0.0343 -0.3712
  409MOL0     C55107   3.130  10.621   1.552 -0.1900  0.2633  0.6522
  409MOL0     C55108   3.233  10.711   1.582 -0.5774  0.4312  0.4813
  409MOL0     C55109   3.313  10.686   1.707  1.3977 -0.4454 -0.8769
  409MOL0     O55110   3.432  10.752   1.719  0.1270  0.7225 -0.7624
  409MOL0     C55111   3.513  10.727   1.830  0.0208 -0.5025  0.6123
  409MOL0     C55112   3.645  10.719   1.795 -0.6232 -0.1008 -0.2527
  409MOL0     C55113   3.741  10.715   1.887 -0.1591 -0.5068 -0.3881
  409MOL0     C55114   3.706  10.727   2.026  0.6335 -0.3212 -0.4634
  409MOL0     O55115   3.813  10.737   2.112 -0.3513  0.2264  0.1052
  409MOL0     C55116   3.789  10.776   2.249 -0.2243  0.3048  0.8813
  409MOL0     C55117   3.909  10.848   2.311 -0.2703 -0.0299 -0.2135
  409MOL0     C55118   4.034  10.768   2.296  0.0068 -0.3306 -0.9696
  409MOL0     C55119   4.144  10.852   2.358 -0.4887 -0.8761 -0.1092
  409MOL0     C55120   4.282  10.791   2.387 -0.2109  0.2568 -0.1071
  409MOL0     C55121   4.389  10.896   2.415  0.5697  0.8733 -0.1203
  409MOL0     C55122   4.516  10.816   2.420  0.2794 -0.0753  0.4584
  409MOL0     C55123   4.626  10.917   2.437 -0.7392  0.4714 -0.1276
  409MOL0    Cl55124   4.647  11.032   2.295 -0.1742  0.0733 -0.0438
  409MOL0     C55125   3.573  10.724   2.065  0.1356  0.6406  0.0920
  409MOL0     C55126   3.472  10.724   1.961 -1.0110  0.3460 -0.5187
  409MOL0     O55127   3.268  10.598   1.790 -0.1737  0.1686  0.4322
  409MOL0     C55128   3.273  10.809   1.484 -0.4711  0.6697 -0.5288
  409MOL0     C55129   3.204  10.814   1.359 -0.5496  0.1915  0.8739
  409MOL0     N55130   2.399  10.759   1.001  0.1207  0.3520 -0.6628
  409MOL0     N55131   2.279  10.723   0.985 -0.9206  1.1569  0.5998
  409MOL0     C55132   2.544   9.746   1.131 -0.0165 -1.2080  0.4423
  409MOL0     C55133   2.679   9.728   1.085 -0.1964  0.0588 -0.6494
  409MOL0     C55134   3.052   9.477   0.935  0.2218  0.1040 -0.5470
  409MOL0     C55135   3.014   9.476   0.802  0.8746  0.4055 -0.1031
  409MOL0     C55136   3.116   9.474   0.707  0.0463  1.0693 -0.3850
  409MOL0     C55137   3.258   9.466   0.737 -0.1219 -0.0036  0.5403
  409MOL0     O55138   3.360   9.461   0.641 -0.6015  0.2508  0.2501
  409MOL0     C55139   3.345   9.352   0.544 -0.2408 -0.3749 -0.1405
  409MOL0     C55140   3.483   9.289   0.529  0.1184  0.2612 -0.6665
  409MOL0     C55141   3.536   9.231   0.651 -0.1756  0.3699 -0.2490
  409MOL0     C55142   3.677   9.169   0.619  0.4136 -0.2037 -0.4034
  409MOL0     C55143   3.667   9.022   0.602  0.4466 -0.9302 -1.1143
  409MOL0     C55144   3.655   8.907   0.584 -0.1909  0.1823  0.1627
  409MOL0     C55145   3.290   9.464   0.872 -0.4029 -0.3855 -0.7181
  409MOL0     C55146   3.187   9.473   0.967  0.2359  0.7119 -0.3952
  409MOL0     C55147   3.224   9.467   1.119 -0.3458  0.1893  0.6992
  409MOL0     H55148   2.678   9.388   1.165  4.3010  1.4663  2.6620
  409MOL0     H55149   2.467   9.438   1.238 -0.9614  2.1566 -0.1260
  409MOL0     H55150   2.347   9.693   1.442  0.4121  0.7135  1.0961
  409MOL0     H55151   2.435   9.815   1.363 -0.7736  1.3268  0.9463
  409MOL0     H55152   2.202   9.905   1.420  2.3702  0.9472  0.1444
  409MOL0     H55153   2.132   9.763   1.336 -0.7119  0.4841  3.2045
  409MOL0     H55154   2.215   9.852   1.128 -2.5573  0.1921 -0.4271
  409MOL0     H55155   2.347   9.950   1.196 -0.5758 -1.5302 -2.2543
  409MOL0     H55156   2.061   9.996   1.174 -0.4580 -3.4117  1.3103
  409MOL0     H55157   2.123  10.091   1.299 -1.8399 -3.3287  0.8232
  409MOL0     H55158   2.315  10.140   1.099  0.4561  0.1884 -3.3501
  409MOL0     H55159   2.173  10.092   1.006 -0.8001 -1.4485  0.3770
  409MOL0     H55160   2.049  10.285   1.139  0.3987  3.2988  4.3047
  409MOL0     H55161   2.218  10.331   1.192 -0.4378 -1.8782  0.5021
  409MOL0     H55162   2.102  10.303   0.903  1.2289  0.0699 -1.9272
  409MOL0     H55163   2.264  10.336   0.931 -0.9752  1.0241 -1.8966
  409MOL0     H55164   2.091  10.551   0.901 -1.7797  0.6974  2.2030
  409MOL0     H55165   2.100  10.517   1.074  0.0646 -1.7047  0.4226
  409MOL0     H55166   2.408  10.438   1.059  2.2119 -0.3857 -0.8828
  409MOL0     H55167   2.641  10.565   1.137  1.9697 -0.3406 -1.1375
  409MOL0     H55168   2.664  10.595   0.966 -2.8994  0.0223 -0.5940
  409MOL0     H55169   2.650  10.826   0.983  1.7450  2.5656  0.3399
  409MOL0     H55170   2.642  10.807   1.163  0.8828 -0.6092  0.1866
  409MOL0     H55171   2.876  10.867   1.045 -1.0252 -0.4173 -2.0583
  409MOL0     H55172   2.878  10.703   1.008 -2.4232 -2.1140  1.1651
  409MOL0     H55173   2.865  10.623   1.234 -1.1966  0.3544  2.7271
  409MOL0     H55174   2.840  10.785   1.303  0.3588  1.4722 -1.2740
  409MOL0     H55175   2.966  10.584   1.427 -0.1927 -1.2505  0.6343
  409MOL0     H55176   3.092  10.543   1.618 -2.4902 -1.7308 -2.7307
  409MOL0     H55177   3.666  10.712   1.689  0.9301 -3.2436  0.1640
  409MOL0     H55178   3.845  10.703   1.859 -0.3807 -0.4378 -1.2806
  409MOL0     H55179   3.706  10.847   2.262  1.4247  2.6646 -0.7181
  409MOL0     H55180   3.776  10.681   2.302  0.7244 -1.7833 -2.3417
  409MOL0     H55181   3.925  10.950   2.273  3.2190 -0.7720 -1.0900
  409MOL0     H55182   3.902  10.851   2.420  2.6336  1.2167  0.0261
  409MOL0     H55183   4.024  10.667   2.336 -1.7018  0.4395  0.6419
  409MOL0     H55184   4.043  10.753   2.188 -0.5688  2.4183 -1.4559
  409MOL0     H55185   4.106  10.882   2.456  1.8086  4.3346 -0.5011
  409MOL0     H55186   4.140  10.951   2.312  3.1323 -0.1432  0.8249
  409MOL0     H55187   4.310  10.733   2.299 -0.8452  1.9711 -1.5143
  409MOL0     H55188   4.268  10.724   2.472 -1.0997  1.4723  0.7473
  409MOL0     H55189   4.385  10.961   2.327 -0.1003 -1.5030 -1.9138
  409MOL0     H55190   4.373  10.956   2.506  1.0534  1.0464 -0.1459
  409MOL0     H55191   4.537  10.759   2.329  4.5230  1.1454  0.4607
  409MOL0     H55192   4.515  10.751   2.509  0.0190  0.3430  0.7622
  409MOL0     H55193   4.611  10.974   2.529 -1.4814  1.2857 -0.7282
  409MOL0     H55194   4.722  10.868   2.456 -0.9747 -1.4833 -3.2595
  409MOL0     H55195   3.549  10.709   2.170 -1.2488 -0.5108 -0.3563
  409MOL0     H55196   3.365  10.728   1.982 -0.4743  1.0051  2.4363
  409MOL0     H55197   3.362  10.869   1.499  0.5920 -1.1881  1.2823
  409MOL0     H55198   3.248  10.865   1.274 -1.3438 -2.0323 -0.9639
  409MOL0     H55199   2.519   9.851   1.139  1.1572 -0.7705 -1.0882
  409MOL0     H55200   2.735   9.807   1.036 -1.3182 -0.6014 -3.1571
  409MOL0     H55201   2.913   9.501   0.773  0.1619 -0.1971  1.7144
  409MOL0     H55202   3.088   9.479   0.603 -0.7897  0.4917 -0.1906
  409MOL0     H55203   3.312   9.399   0.451 -1.6551  0.1014  0.5643
  409MOL0     H55204   3.265   9.282   0.571 -0.5994 -1.3004 -3.2320
  409MOL0     H55205   3.553   9.351   0.472  1.8005 -3.7463 -3.3684
  409MOL0     H55206   3.466   9.202   0.466 -3.2368 -0.6565  1.2411
  409MOL0     H55207   3.478   9.163   0.713  2.1293 -2.2546 -0.8061
  409MOL0     H55208   3.574   9.302   0.726 -0.5526 -3.0384  3.5303
  409MOL0     H55209   3.733   9.221   0.541 -0.9717  0.6716 -0.8336
  409MOL0     H55210   3.745   9.182   0.704 -0.1669 -2.0400  0.4018
  409MOL0     H55211   3.639   8.801   0.570 -1.8367  0.3804  0.3677
  409MOL0     H55212   3.395   9.454   0.895 -0.4057 -1.4098 -1.1068
  409MOL0     H55213   3.197   9.566   1.157  1.8508  1.3747 -0.5873
  409MOL0     H55214   3.177   9.388   1.177  1.1576 -1.7657 -0.6159
  409MOL0     H55215   3.332   9.456   1.135  0.0094 -0.2662 -1.6607
  410MOL0     O55216   7.108   5.818   4.168  0.5373  0.7183  0.2718
  410MOL0     C55217   7.137   5.765   4.063  0.0492 -0.5306  0.3758
  410MOL0     O55218   7.252   5.784   3.993 -0.0595 -0.2992 -0.6704
  410MOL0     C55219   7.374   5.831   4.033  0.0744  0.0419 -0.4310
  410MOL0     C55220   7.401   5.871   4.163 -0.1360  0.4089  0.6790
  410MOL0     C55221   7.517   5.938   4.189  1.1767 -0.1259 -0.1890
  410MOL0     C55222   7.609   5.968   4.085 -0.9936 -0.3400 -0.4372
  410MOL0     O55223   7.712   6.061   4.112  0.0164  0.5365 -0.4314
  410MOL0     C55224   7.835   6.001   4.155 -0.0897  0.3550 -0.1000
  410MOL0     C55225   7.911   5.945   4.033  0.6505  0.4233  0.7839
  410MOL0     C55226   7.928   6.038   3.912 -0.1356  0.2997 -0.7288
  410MOL0     C55227   7.999   5.953   3.809  0.7276  0.2034 -0.2238
  410MOL0     C55228   8.058   6.037   3.694 -0.0002 -0.7055 -0.1863
  410MOL0     C55229   8.200   6.104   3.706  0.1192  0.7014  0.3447
  410MOL0     C55230   8.235   6.169   3.578  0.5489 -0.2315 -0.9190
  410MOL0     C55231   8.232   6.071   3.462  0.0474 -0.5106  0.3770
  410MOL0     N55232   8.302   6.107   3.338 -0.0746  0.7663 -0.0227
  410MOL0     C55233   8.327   6.234   3.288 -0.1578 -0.3967 -0.2705
  410MOL0     C55234   8.437   6.219   3.208 -0.8703 -0.6055  0.2527
  410MOL0     C55235   8.509   6.323   3.124  0.4836 -0.4067 -0.1719
  410MOL0     C55236   8.595   6.417   3.205 -0.6612 -0.3540 -0.6395
  410MOL0     C55237   8.686   6.339   3.309  0.3518 -0.7110 -0.0956
  410MOL0     C55238   8.775   6.437   3.392  0.4254 -1.0989 -0.3290
  410MOL0     O55239   8.690   6.527   3.478 -0.3511  0.1883  0.4655
  410MOL0     C55240   8.604   6.486   3.570 -0.7467 -0.6689 -0.3073
  410MOL0     C55241   8.609   6.363   3.645 -0.0513 -0.6301 -0.2097
  410MOL0     C55242   8.517   6.343   3.746 -0.8459 -0.2141  0.0221
  410MOL0     C55243   8.425   6.443   3.781  0.7627 -0.0986  0.0520
  410MOL0     C55244   8.331   6.422   3.891  0.4391 -0.0896  0.7468
  410MOL0     O55245   8.221   6.497   3.898 -0.0151  0.7265  0.2324
  410MOL0     C55246   8.143   6.462   4.012 -0.2437  0.3207  0.3681
  410MOL0     C55247   8.042   6.372   3.980  0.0517 -0.2023 -0.1920
  410MOL0     C55248   7.949   6.348   4.085 -0.1375 -0.0536  0.3273
  410MOL0     C55249   7.969   6.392   4.219 -0.3275  0.4661  0.4083
  410MOL0     O55250   7.879   6.342   4.310  0.5711 -0.2434 -0.2859
  410MOL0     C55251   7.794   6.441   4.356 -0.4632 -0.3228 -0.4518
  410MOL0     C55252   7.738   6.390   4.483  1.2707 -0.3265  0.9178
  410MOL0     C55253   7.837   6.374   4.596 -0.6611  1.0171 -0.0037
  410MOL0     C55254   7.763   6.371   4.723  0.7886  0.2810  0.7785
  410MOL0     C55255   7.853   6.347   4.847  0.3373 -0.2319  0.0486
  410MOL0     C55256   7.787   6.367   4.985 -0.5863 -0.2722  0.2500
  410MOL0     C55257   7.876   6.336   5.106  0.4295 -0.0965 -0.3901
  410MOL0     C55258   7.860   6.444   5.218 -0.0779  0.2090 -0.3158
  410MOL0    Cl55259   7.710   6.435   5.313 -1.0350  0.2184 -0.2498
  410MOL0     C55260   8.083   6.466   4.242 -0.2674  0.1650 -0.6799
  410MOL0     C55261   8.173   6.502   4.140  0.2613 -0.6024 -0.0653
  410MOL0     O55262   8.361   6.322   3.959  0.1356 -0.3173  0.5587
  410MOL0     C55263   8.411   6.556   3.701 -0.5167 -0.2341  0.6500
  410MOL0     C55264   8.504   6.576   3.597 -0.3894  0.0757  0.3723
  410MOL0     N55265   8.469   6.091   3.206 -0.3439 -0.6357 -0.4577
  410MOL0     N55266   8.383   6.021   3.274  1.0482  0.3404 -0.1270
  410MOL0     C55267   7.579   5.908   3.958  0.3347  0.2968 -0.1332
  410MOL0     C55268   7.462   5.834   3.933  1.0214 -0.0730 -0.1458
  410MOL0     C55269   7.033   5.668   4.005  0.1159 -0.8263  0.2125
  410MOL0     C55270   6.985   5.561   4.081  0.2975  0.2677  0.3639
  410MOL0     C55271   6.880   5.478   4.041 -0.1269 -0.5587  1.5853
  410MOL0     C55272   6.817   5.491   3.917 -0.5821 -0.3506 -0.6612
  410MOL0     O55273   6.717   5.416   3.875  0.4841  0.0602  0.5682
  410MOL0     C55274   6.695   5.284   3.923  0.6348 -0.3414  0.2299
  410MOL0     C55275   6.588   5.272   4.034 -0.5548 -0.2553 -1.2635
  410MOL0     C55276   6.454   5.318   3.989  0.3490  0.8630  0.0456
  410MOL0     C55277   6.346   5.312   4.103  0.0857 -0.3019 -0.3936
  410MOL0     C55278   6.215   5.323   4.025 -0.2940  0.1169 -0.1111
  410MOL0     C55279   6.103   5.337   3.982 -0.7678  0.4632  0.2665
  410MOL0     C55280   6.862   5.599   3.846 -0.0762  0.4533  0.5719
  410MOL0     C55281   6.965   5.687   3.883 -0.7921 -0.1063  0.4354
  410MOL0     C55282   7.005   5.790   3.783  0.3120 -0.5055  0.2125
  410MOL0     H55283   7.329   5.849   4.242 -0.3428 -0.3281  0.2934
  410MOL0     H55284   7.533   5.989   4.283 -2.1843 -1.1764  1.1058
  410MOL0     H55285   7.898   6.075   4.205  0.5206 -2.1613  3.1795
  410MOL0     H55286   7.808   5.919   4.222 -3.0456 -0.4746 -2.1196
  410MOL0     H55287   7.866   5.851   4.000 -1.9052  1.2410  1.6737
  410MOL0     H55288   8.008   5.919   4.076  1.0050  1.3631  0.5975
  410MOL0     H55289   7.987   6.125   3.941 -1.5210  0.6457  1.2462
  410MOL0     H55290   7.829   6.077   3.887  0.6183  1.5979 -1.8423
  410MOL0     H55291   8.095   5.905   3.834  0.2937 -2.4982 -3.0370
  410MOL0     H55292   7.934   5.874   3.770  0.5595  0.5342 -0.6242
  410MOL0     H55293   8.076   5.968   3.610  5.2098  0.8971 -0.7230
  410MOL0     H55294   7.991   6.121   3.673 -2.3750 -2.4481 -0.1038
  410MOL0     H55295   8.199   6.171   3.793 -1.3577  0.3823  0.6023
  410MOL0     H55296   8.275   6.025   3.716 -2.9088 -2.4074  0.4309
  410MOL0     H55297   8.333   6.213   3.600  0.7301 -0.8612 -0.4484
  410MOL0     H55298   8.165   6.251   3.558  0.6351 -0.4359 -2.1044
  410MOL0     H55299   8.260   5.970   3.493 -3.3410 -0.5195  4.2694
  410MOL0     H55300   8.125   6.060   3.438 -0.8883  1.7849  2.9157
  410MOL0     H55301   8.264   6.322   3.303 -0.0594 -0.5745  1.3013
  410MOL0     H55302   8.563   6.270   3.045 -0.8846  0.9345 -2.0770
  410MOL0     H55303   8.432   6.377   3.069  2.5691  2.7156 -0.2846
  410MOL0     H55304   8.662   6.460   3.130  0.2744 -0.6139  0.0249
  410MOL0     H55305   8.529   6.490   3.252 -2.0025 -0.7276 -1.8731
  410MOL0     H55306   8.750   6.267   3.257 -0.3542 -1.9926  0.7353
  410MOL0     H55307   8.621   6.278   3.374  1.4253 -1.5871  0.1818
  410MOL0     H55308   8.833   6.503   3.326  0.4832 -1.2796 -0.4601
  410MOL0     H55309   8.841   6.367   3.444  0.6146 -0.9447 -0.3596
  410MOL0     H55310   8.698   6.301   3.636  0.6777 -0.2357  3.2039
  410MOL0     H55311   8.527   6.261   3.816  3.3093 -0.7836 -0.9862
  410MOL0     H55312   8.016   6.342   3.880  1.6994  0.4233 -0.8430
  410MOL0     H55313   7.863   6.284   4.066 -1.7510  1.9757  0.4972
  410MOL0     H55314   7.845   6.537   4.373  1.5676 -0.8954 -2.7297
  410MOL0     H55315   7.715   6.460   4.283 -0.9614 -2.8434 -0.6508
  410MOL0     H55316   7.663   6.464   4.510 -0.4019 -0.2162 -3.3190
  410MOL0     H55317   7.698   6.290   4.461  0.6757 -0.3156  1.8842
  410MOL0     H55318   7.865   6.269   4.582 -3.3670  0.4141 -1.5342
  410MOL0     H55319   7.916   6.450   4.593 -0.2071  0.5520 -0.0509
  410MOL0     H55320   7.678   6.302   4.709 -1.7390  3.7279 -3.8763
  410MOL0     H55321   7.710   6.466   4.718 -2.6531 -1.5175 -1.2826
  410MOL0     H55322   7.945   6.406   4.847  0.5912 -0.6215  0.8675
  410MOL0     H55323   7.872   6.240   4.843 -1.3730 -0.6046  1.0572
  410MOL0     H55324   7.758   6.471   5.003 -1.7941 -0.8597  1.9119
  410MOL0     H55325   7.694   6.310   4.997 -1.6925  1.4812  0.3026
  410MOL0     H55326   7.980   6.332   5.073 -0.0914  0.4403 -2.1927
  410MOL0     H55327   7.845   6.236   5.137  0.5393 -2.0245 -5.5158
  410MOL0     H55328   7.936   6.427   5.295 -2.7681 -1.0155  2.2423
  410MOL0     H55329   7.872   6.548   5.186 -0.9877  0.4094 -0.0326
  410MOL0     H55330   8.087   6.518   4.338 -0.5503  0.7726 -0.9889
  410MOL0     H55331   8.262   6.561   4.158 -1.4298  1.3119  2.7838
  410MOL0     H55332   8.330   6.627   3.713 -0.1300  0.8633 -2.4163
  410MOL0     H55333   8.509   6.667   3.537  1.6138  2.0431  3.2179
  410MOL0     H55334   7.635   5.931   3.868 -0.0710 -2.1666 -1.0861
  410MOL0     H55335   7.444   5.781   3.841  0.6457  0.7485 -0.5565
  410MOL0     H55336   7.040   5.530   4.169 -0.2978 -1.6284  0.1028
  410MOL0     H55337   6.858   5.393   4.105  1.0476  0.4767  3.4629
  410MOL0     H55338   6.788   5.240   3.961 -0.8523 -0.6183  4.0743
  410MOL0     H55339   6.665   5.228   3.834 -0.9699  0.6599  0.1086
  410MOL0     H55340   6.609   5.338   4.118 -2.7801 -0.1231 -0.7550
  410MOL0     H55341   6.586   5.169   4.072 -2.1276  0.7064  1.5295
  410MOL0     H55342   6.424   5.263   3.899 -2.1423 -0.6956  1.6975
  410MOL0     H55343   6.467   5.421   3.956  0.0199  0.1034 -2.7266
  410MOL0     H55344   6.349   5.220   4.163  0.5428  0.4247  0.7414
  410MOL0     H55345   6.361   5.390   4.178 -2.7885  2.1281 -2.1459
  410MOL0     H55346   6.001   5.349   3.952 -1.0838 -2.1060  0.0715
  410MOL0     H55347   6.807   5.607   3.753 -2.4229  0.9335  1.9270
  410MOL0     H55348   6.958   5.754   3.691 -0.3097  3.6334 -1.3194
  410MOL0     H55349   6.959   5.886   3.808  1.8939  0.4338 -0.3241
  410MOL0     H55350   7.112   5.807   3.764 -0.3294  3.5819 -0.6961
  411MOL0     O55351   2.762   4.294   0.883 -0.3251  0.2205  0.1791
  411MOL0     C55352   2.874   4.255   0.900 -1.0813 -0.7118 -0.5348
  411MOL0     O55353   2.914   4.132   0.908  0.2581 -0.0061 -0.7361
  411MOL0     C55354   2.816   4.036   0.907  0.0807 -0.6270  0.1503
  411MOL0     C55355   2.734   4.019   0.786  0.3774 -0.1485  0.5448
  411MOL0     C55356   2.632   3.911   0.790  0.0527 -0.3928 -0.2124
  411MOL0     C55357   2.617   3.838   0.909 -0.0344 -0.0521  0.2606
  411MOL0     O55358   2.510   3.754   0.904 -0.3926  0.3886 -0.5636
  411MOL0     C55359   2.440   3.722   1.025  0.2956  0.7018  0.0052
  411MOL0     C55360   2.298   3.664   0.993  0.9818  0.1985  0.8349
  411MOL0     C55361   2.229   3.677   1.126 -0.8838 -0.0573  0.3137
  411MOL0     C55362   2.186   3.535   1.183 -0.5860 -0.4334  0.4130
  411MOL0     C55363   2.099   3.560   1.310 -0.5209 -0.4832  0.0367
  411MOL0     C55364   1.952   3.603   1.274  0.0782  0.3920 -0.4985
  411MOL0     C55365   1.875   3.610   1.407 -0.6786  0.9182 -0.4569
  411MOL0     C55366   1.822   3.743   1.449  0.7025  0.2017  1.3012
  411MOL0     N55367   1.933   3.823   1.497 -0.2710  0.1676  0.2928
  411MOL0     C55368   1.997   3.815   1.615  0.8489  0.4730 -0.0450
  411MOL0     C55369   2.021   3.946   1.652 -0.1350  0.4021 -0.9265
  411MOL0     C55370   2.090   3.981   1.785  1.1194 -0.2947  0.7294
  411MOL0     C55371   2.235   3.976   1.761  0.0146  0.3536 -0.2004
  411MOL0     C55372   2.303   4.019   1.899 -0.0301  0.6393  0.4733
  411MOL0     C55373   2.314   3.919   2.021  0.3222 -0.4734  0.9243
  411MOL0     O55374   2.394   3.805   1.995 -0.5397 -0.4183  1.1710
  411MOL0     C55375   2.388   3.704   2.074 -0.8790  0.4416 -0.6938
  411MOL0     C55376   2.269   3.635   2.094 -0.1291  0.0041  0.0107
  411MOL0     C55377   2.268   3.518   2.170  0.4888 -0.5811 -0.2036
  411MOL0     C55378   2.377   3.480   2.251  0.3515 -0.9760 -0.0992
  411MOL0     C55379   2.368   3.353   2.323 -0.2038  0.5488 -1.3681
  411MOL0     O55380   2.459   3.329   2.420  0.3208 -0.4351 -0.1153
  411MOL0     C55381   2.466   3.205   2.489  0.3650 -0.3327 -0.2192
  411MOL0     C55382   2.455   3.192   2.625 -0.5968 -0.2446  0.2145
  411MOL0     C55383   2.477   3.067   2.691 -0.1305  0.0956  0.8182
  411MOL0     C55384   2.501   2.949   2.610  0.2957  0.2539 -0.3440
  411MOL0     O55385   2.534   2.824   2.653  0.1224  0.5231  0.0830
  411MOL0     C55386   2.430   2.764   2.743 -0.5753 -0.1766 -0.0602
  411MOL0     C55387   2.494   2.650   2.815  0.2008  0.7201 -0.2683
  411MOL0     C55388   2.405   2.576   2.905 -0.1351 -0.3868  0.0649
  411MOL0     C55389   2.427   2.418   2.912 -0.3459 -0.1674  0.5177
  411MOL0     C55390   2.348   2.368   3.044  0.1332 -0.6991 -0.5644
  411MOL0     C55391   2.202   2.400   3.066  0.6499 -0.0576 -0.7992
  411MOL0     C55392   2.119   2.357   2.945  0.3040 -0.3903  0.4142
  411MOL0     C55393   1.967   2.356   2.973  1.0364 -0.1233  0.4339
  411MOL0    Cl55394   1.941   2.212   3.072 -0.0516 -0.2529 -0.2238
  411MOL0     C55395   2.475   2.962   2.471 -0.5715  0.3539 -0.4494
  411MOL0     C55396   2.470   3.089   2.410  0.5683 -0.5090 -0.2525
  411MOL0     O55397   2.264   3.287   2.308  0.5797 -0.2641 -0.9171
  411MOL0     C55398   2.493   3.563   2.236  0.6721  0.1786 -0.6043
  411MOL0     C55399   2.504   3.670   2.150 -0.3535  0.1129 -0.4026
  411MOL0     N55400   1.974   4.023   1.559 -0.1726  0.1031  0.1688
  411MOL0     N55401   1.927   3.948   1.454 -0.4350  0.0219  0.1641
  411MOL0     C55402   2.710   3.854   1.013  0.4031  0.2165  0.4875
  411MOL0     C55403   2.806   3.950   1.007  1.1482 -0.1037 -0.7849
  411MOL0     C55404   2.966   4.375   0.924  0.1655  0.1990  0.5296
  411MOL0     C55405   2.919   4.504   0.935 -0.0734 -0.7205  0.1175
  411MOL0     C55406   3.012   4.616   0.949  0.4814 -0.0825  0.2220
  411MOL0     C55407   3.146   4.602   0.956  0.0666  0.5433  0.8676
  411MOL0     O55408   3.229   4.709   0.948  0.2636  0.3242  0.0047
  411MOL0     C55409   3.330   4.719   1.054  0.3978 -0.2897  0.0698
  411MOL0     C55410   3.468   4.683   1.001  0.0604  0.1046  0.4329
  411MOL0     C55411   3.583   4.704   1.096  0.4745 -1.2481  0.8922
  411MOL0     C55412   3.572   4.625   1.231  0.4174 -0.0162  0.6012
  411MOL0     C55413   3.694   4.636   1.313 -0.7848  0.8828  0.5344
  411MOL0     C55414   3.795   4.636   1.380  0.1334  0.3555  0.3068
  411MOL0     C55415   3.198   4.473   0.952 -0.2890  0.0395  0.9311
  411MOL0     C55416   3.103   4.362   0.948 -0.0198  0.1281  0.4006
  411MOL0     C55417   3.170   4.226   0.931 -0.0850  0.5211 -0.2726
  411MOL0     H55418   2.758   4.084   0.703  0.4343 -0.6608  0.1506
  411MOL0     H55419   2.574   3.902   0.699  0.0403  0.3123 -0.2831
  411MOL0     H55420   2.489   3.647   1.087 -0.2193 -3.1401 -3.7727
  411MOL0     H55421   2.423   3.819   1.072  1.7447  1.2155 -0.4693
  411MOL0     H55422   2.303   3.559   0.963  1.2181  0.4813 -0.1592
  411MOL0     H55423   2.241   3.724   0.922 -0.7739 -2.3232 -0.0395
  411MOL0     H55424   2.145   3.746   1.111 -0.4938  0.9054  2.2070
  411MOL0     H55425   2.293   3.719   1.204 -0.1994 -0.8859  0.2068
  411MOL0     H55426   2.133   3.488   1.100 -0.8911 -1.3909  1.1375
  411MOL0     H55427   2.270   3.474   1.217 -0.5895 -0.6356  0.0617
  411MOL0     H55428   2.090   3.470   1.371  1.2381 -1.2942 -0.7995
  411MOL0     H55429   2.142   3.646   1.363 -2.0272  0.0176  0.4866
  411MOL0     H55430   1.955   3.701   1.226 -2.5478  0.6401 -0.3232
  411MOL0     H55431   1.904   3.540   1.199  1.8132 -0.0340 -1.3013
  411MOL0     H55432   1.929   3.557   1.486 -1.3942 -0.5765 -0.9387
  411MOL0     H55433   1.799   3.532   1.402  1.2002 -0.9728 -1.2793
  411MOL0     H55434   1.759   3.797   1.378 -0.7095  1.3161  3.2723
  411MOL0     H55435   1.760   3.719   1.536  2.5684 -0.2669  2.5702
  411MOL0     H55436   2.021   3.723   1.667  0.6561  0.4059 -0.0729
  411MOL0     H55437   2.058   4.082   1.811 -3.1408 -0.2594 -3.4561
  411MOL0     H55438   2.085   3.901   1.859  1.9105 -1.1117 -0.0748
  411MOL0     H55439   2.277   3.877   1.736 -0.3933  0.3881 -1.0451
  411MOL0     H55440   2.259   4.035   1.672 -1.0676  2.7444  1.0110
  411MOL0     H55441   2.254   4.112   1.929 -1.5240 -0.5068  1.7837
  411MOL0     H55442   2.404   4.042   1.864 -0.1823 -2.2343 -2.2956
  411MOL0     H55443   2.213   3.881   2.037  0.4866 -2.3080 -1.8352
  411MOL0     H55444   2.351   3.966   2.113  0.1697 -0.8371  1.1761
  411MOL0     H55445   2.181   3.670   2.040  0.6567  2.3658  0.1089
  411MOL0     H55446   2.171   3.475   2.190  1.3146 -1.5050  2.2505
  411MOL0     H55447   2.435   3.280   2.686  1.2267  1.2116 -1.1271
  411MOL0     H55448   2.482   3.047   2.797 -0.7757 -2.0341  0.4870
  411MOL0     H55449   2.366   2.831   2.802  0.4482  0.2879  0.5476
  411MOL0     H55450   2.355   2.730   2.671  0.0213  1.9742 -1.8030
  411MOL0     H55451   2.543   2.573   2.753  1.1652 -1.2047  2.6724
  411MOL0     H55452   2.573   2.691   2.880  0.2774 -1.2204  0.9412
  411MOL0     H55453   2.423   2.616   3.005 -3.8677 -1.1615  1.2165
  411MOL0     H55454   2.308   2.612   2.871  1.0414  0.1347 -3.0178
  411MOL0     H55455   2.533   2.396   2.924 -0.2713 -0.1246 -0.0667
  411MOL0     H55456   2.376   2.370   2.828  0.9287 -1.0096  0.2133
  411MOL0     H55457   2.405   2.406   3.129  0.7835  0.6760 -1.5849
  411MOL0     H55458   2.367   2.260   3.055  2.6757 -0.4083 -1.5359
  411MOL0     H55459   2.166   2.344   3.152  0.5990 -0.0642 -0.8251
  411MOL0     H55460   2.184   2.505   3.091  3.0602  0.2646 -0.1081
  411MOL0     H55461   2.146   2.253   2.923 -2.2428 -1.0705  0.2291
  411MOL0     H55462   2.135   2.424   2.860  0.8625  3.4700  3.2745
  411MOL0     H55463   1.916   2.445   3.009 -0.0218 -0.2619 -0.6156
  411MOL0     H55464   1.913   2.342   2.878  3.3680  0.2392 -1.0285
  411MOL0     H55465   2.467   2.875   2.406 -0.0228  1.0582 -1.4759
  411MOL0     H55466   2.475   3.094   2.302 -0.1416 -3.9663 -0.5425
  411MOL0     H55467   2.571   3.532   2.305  1.3324  0.5138 -1.1950
  411MOL0     H55468   2.595   3.728   2.141  0.4299 -1.1193 -0.7719
  411MOL0     H55469   2.695   3.803   1.108  0.0674  0.6537  0.6777
  411MOL0     H55470   2.871   3.964   1.092 -0.1915  1.8193 -0.0225
  411MOL0     H55471   2.813   4.527   0.939  0.8295  4.2737  2.8202
  411MOL0     H55472   2.976   4.718   0.956  6.0310  2.0732  3.4605
  411MOL0     H55473   3.310   4.651   1.137 -0.9558 -1.0314 -0.8273
  411MOL0     H55474   3.311   4.822   1.086 -0.3933 -0.0110 -1.2152
  411MOL0     H55475   3.476   4.735   0.905 -1.3919 -3.5814 -1.9295
  411MOL0     H55476   3.478   4.578   0.971  3.8009 -0.5632  3.2988
  411MOL0     H55477   3.605   4.808   1.120  3.0869 -1.4192 -0.3601
  411MOL0     H55478   3.675   4.670   1.047  2.3736  1.6195  2.2167
  411MOL0     H55479   3.486   4.655   1.292 -0.4983 -0.5607 -0.4023
  411MOL0     H55480   3.558   4.521   1.201  3.2223 -0.9094  1.9330
  411MOL0     H55481   3.888   4.638   1.434  1.3498 -0.4707 -1.6276
  411MOL0     H55482   3.305   4.456   0.948 -0.0202  1.5222  1.2026
  411MOL0     H55483   3.278   4.225   0.949  1.0425 -0.2586 -5.3743
  411MOL0     H55484   3.127   4.148   0.995 -1.6426  0.6774 -1.0789
  411MOL0     H55485   3.155   4.196   0.827 -1.6414 -1.7861  0.5435
  412MOL0     O55486  11.063   7.039   7.975  1.4175 -0.1996  0.1294
  412MOL0     C55487  11.067   7.064   7.854  0.5064  0.1100 -0.2412
  412MOL0     O55488  10.969   7.097   7.775  0.3177  0.4438 -0.2223
  412MOL0     C55489  10.846   7.130   7.825 -0.3064 -0.2443 -0.6473
  412MOL0     C55490  10.833   7.232   7.927  0.1085 -0.3111  0.1635
  412MOL0     C55491  10.704   7.276   7.974  0.1322 -0.4520  0.7127
  412MOL0     C55492  10.591   7.198   7.944 -0.3036 -0.3856 -1.1281
  412MOL0     O55493  10.484   7.234   8.008  0.1348  1.0906 -0.6626
  412MOL0     C55494  10.390   7.312   7.935  0.4482  0.6099 -0.0188
  412MOL0     C55495  10.286   7.361   8.036 -0.0042 -0.7386 -0.3455
  412MOL0     C55496  10.163   7.413   7.948 -0.3213 -0.4360 -0.0116
  412MOL0     C55497  10.048   7.317   7.929 -0.2682  0.2487  0.6269
  412MOL0     C55498   9.960   7.301   8.052  0.6378  0.4862 -0.2877
  412MOL0     C55499   9.830   7.225   8.018 -0.1174  0.5981  0.1119
  412MOL0     C55500   9.763   7.158   8.140 -0.3965 -0.8524  0.0909
  412MOL0     C55501   9.615   7.174   8.126 -0.2844 -0.1273  0.1649
  412MOL0     N55502   9.546   7.150   8.252  1.0369  0.1683  0.4453
  412MOL0     C55503   9.566   7.041   8.341  0.0643 -0.3485 -0.0133
  412MOL0     C55504   9.499   7.078   8.452  0.0781  0.5449  0.3069
  412MOL0     C55505   9.492   7.021   8.584  0.8910 -0.5171  0.4233
  412MOL0     C55506   9.626   7.001   8.659 -0.5731 -0.5079 -0.3723
  412MOL0     C55507   9.708   7.131   8.691  0.3510  0.8321 -0.7251
  412MOL0     C55508   9.625   7.213   8.786 -0.2032  0.5488  0.5153
  412MOL0     O55509   9.704   7.309   8.844  0.3337 -0.4871  0.2365
  412MOL0     C55510   9.789   7.280   8.947 -0.0725  0.4697  0.5990
  412MOL0     C55511   9.783   7.161   9.021 -0.2142 -0.1303  0.3282
  412MOL0     C55512   9.873   7.137   9.115 -0.1526  0.3548 -0.1191
  412MOL0     C55513   9.969   7.232   9.152 -0.7377  0.2208 -0.7848
  412MOL0     C55514  10.061   7.220   9.271 -0.6005  0.6675  0.9358
  412MOL0     O55515  10.152   7.320   9.301  0.3095  0.3766  0.1075
  412MOL0     C55516  10.211   7.319   9.429 -0.2955 -0.2862 -0.8078
  412MOL0     C55517  10.350   7.333   9.445 -1.0766 -0.7015  0.1752
  412MOL0     C55518  10.420   7.333   9.566  0.0428  0.0188  0.0709
  412MOL0     C55519  10.339   7.303   9.683  0.2602 -0.2165 -0.1301
  412MOL0     O55520  10.378   7.293   9.812  0.2979 -0.4435 -0.4198
  412MOL0     C55521  10.494   7.372   9.842  0.3011  0.1512 -0.1984
  412MOL0     C55522  10.447   7.501   9.911 -0.2155  0.4518  0.5086
  412MOL0     C55523  10.373   7.488  10.039  0.0085 -0.4116  1.0340
  412MOL0     C55524  10.461   7.494  10.161  0.3399 -0.0708  0.8459
  412MOL0     C55525  10.539   7.625  10.177 -0.5580 -1.0888 -0.1762
  412MOL0     C55526  10.450   7.753  10.170  0.1141  1.2274  0.7060
  412MOL0     C55527  10.470   7.860  10.280  0.8741 -1.1308  0.1061
  412MOL0     C55528  10.614   7.931  10.278 -0.9034  0.5684  1.4086
  412MOL0    Cl55529  10.628   7.999  10.103 -0.0345 -0.2057 -0.0743
  412MOL0     C55530  10.199   7.290   9.680 -0.4613  0.6918 -0.1876
  412MOL0     C55531  10.142   7.308   9.550  0.9832 -0.0879 -0.1138
  412MOL0     O55532  10.050   7.115   9.325  0.1946  0.6559 -0.1366
  412MOL0     C55533   9.972   7.350   9.079  0.6663  0.4971  0.7981
  412MOL0     C55534   9.888   7.366   8.980  1.2326  0.3197  0.3280
  412MOL0     N55535   9.435   7.198   8.427 -0.3781 -0.1312 -0.7330
  412MOL0     N55536   9.465   7.238   8.309 -0.4891  0.0897 -0.1406
  412MOL0     C55537  10.601   7.101   7.849 -0.8335  0.4332  0.0603
  412MOL0     C55538  10.724   7.057   7.790  0.7902 -0.2081 -0.1516
  412MOL0     C55539  11.206   7.024   7.796  0.3378 -0.0938 -0.7367
  412MOL0     C55540  11.209   6.979   7.665 -0.5609  0.2705  0.6976
  412MOL0     C55541  11.326   6.910   7.604 -0.1604 -0.7424 -0.5294
  412MOL0     C55542  11.441   6.906   7.687 -0.0541  0.0736  0.4528
  412MOL0     O55543  11.545   6.835   7.639 -0.1188 -0.1533 -0.1250
  412MOL0     C55544  11.676   6.844   7.687  0.3718  0.3434  0.1134
  412MOL0     C55545  11.775   6.774   7.590 -0.0522  0.7005 -0.2279
  412MOL0     C55546  11.780   6.849   7.452 -0.2477 -0.9180 -0.2420
  412MOL0     C55547  11.916   6.840   7.381  1.0909 -0.3697 -0.1288
  412MOL0     C55548  12.011   6.930   7.452 -0.0424 -0.0731  0.5691
  412MOL0     C55549  12.083   6.989   7.532  1.0002 -0.1821  0.0528
  412MOL0     C55550  11.441   6.970   7.810  0.2942 -0.6595 -0.5191
  412MOL0     C55551  11.328   7.030   7.874  0.0035  0.4013 -0.9063
  412MOL0     C55552  11.345   7.103   8.000 -0.1033 -0.5890 -0.7805
  412MOL0     H55553  10.924   7.282   7.959  1.0024  0.7110 -3.5631
  412MOL0     H55554  10.681   7.348   8.051  1.5355  0.2824  0.4866
  412MOL0     H55555  10.451   7.397   7.903  1.5990  0.2693  1.1823
  412MOL0     H55556  10.350   7.247   7.856  2.5806 -1.2410  0.3264
  412MOL0     H55557  10.322   7.444   8.097 -0.8930  1.2734 -2.3971
  412MOL0     H55558  10.258   7.285   8.110 -0.5632 -1.6757 -1.4834
  412MOL0     H55559  10.198   7.453   7.853 -0.7045  0.4409  0.2010
  412MOL0     H55560  10.125   7.509   7.985 -0.9606  0.6343 -3.1290
  412MOL0     H55561   9.977   7.365   7.861 -0.4864 -0.1361  0.5771
  412MOL0     H55562  10.093   7.228   7.885 -1.1479  0.3945 -0.6260
  412MOL0     H55563  10.023   7.243   8.120 -1.8049 -1.9622  0.0859
  412MOL0     H55564   9.933   7.397   8.095 -0.9557  0.0111 -0.1577
  412MOL0     H55565   9.769   7.303   7.971  1.8187  2.5162  0.6130
  412MOL0     H55566   9.854   7.142   7.952  2.3945 -0.4475  2.1840
  412MOL0     H55567   9.793   7.217   8.227 -2.2025  1.6357 -0.8362
  412MOL0     H55568   9.810   7.060   8.153  3.1657  0.3850 -1.7976
  412MOL0     H55569   9.596   7.279   8.102 -1.2447 -0.3290  0.0085
  412MOL0     H55570   9.575   7.112   8.045  1.4994 -2.0319  0.6525
  412MOL0     H55571   9.613   6.945   8.320 -0.1131 -1.1934  2.9665
  412MOL0     H55572   9.427   7.082   8.648 -1.0840 -0.0878 -1.8530
  412MOL0     H55573   9.441   6.925   8.589 -3.6316  1.6777  2.8981
  412MOL0     H55574   9.612   6.948   8.754 -1.6541  2.0044  0.9719
  412MOL0     H55575   9.695   6.949   8.594  0.7695  0.1656  0.4673
  412MOL0     H55576   9.737   7.187   8.602  1.8103 -0.0612 -0.8511
  412MOL0     H55577   9.803   7.097   8.734  0.1015  1.8023  0.6245
  412MOL0     H55578   9.590   7.138   8.858 -0.0906 -1.0775 -1.0524
  412MOL0     H55579   9.543   7.268   8.740  0.9600  2.9658  1.1516
  412MOL0     H55580   9.715   7.076   9.013  3.3371 -3.0333 -2.2869
  412MOL0     H55581   9.873   7.044   9.171  1.2167 -0.2579 -1.0691
  412MOL0     H55582  10.385   7.348   9.344  0.7876  1.7816  1.0854
  412MOL0     H55583  10.528   7.340   9.563  0.3709 -2.8749  1.4132
  412MOL0     H55584  10.551   7.310   9.911 -3.2919 -1.8703  1.2220
  412MOL0     H55585  10.557   7.399   9.757  0.0112  3.3270  0.4713
  412MOL0     H55586  10.534   7.568   9.916 -0.2452  0.4591  1.0928
  412MOL0     H55587  10.376   7.543   9.839 -3.7406 -0.8695  2.9697
  412MOL0     H55588  10.292   7.562  10.044  0.4145  0.2070 -0.6494
  412MOL0     H55589  10.324   7.390  10.036 -0.7737 -0.0124 -1.3535
  412MOL0     H55590  10.526   7.406  10.158 -0.4906 -0.6646 -1.0656
  412MOL0     H55591  10.395   7.469  10.244 -0.7905 -0.7269 -0.2197
  412MOL0     H55592  10.623   7.644  10.109 -1.2353  2.5621 -0.2228
  412MOL0     H55593  10.582   7.619  10.278  1.3025 -0.0783 -0.8481
  412MOL0     H55594  10.455   7.793  10.068  0.0186  2.3276  1.1221
  412MOL0     H55595  10.347   7.723  10.188 -0.0596  2.6472  2.3220
  412MOL0     H55596  10.464   7.822  10.382  3.0702  2.3368  1.7345
  412MOL0     H55597  10.387   7.930  10.284  1.9606  0.2388 -0.2737
  412MOL0     H55598  10.604   8.009  10.354 -1.6081  0.6535  1.2321
  412MOL0     H55599  10.696   7.860  10.295 -0.7974  1.5491  6.4835
  412MOL0     H55600  10.149   7.264   9.773  0.0594  0.4586  0.0271
  412MOL0     H55601  10.036   7.287   9.562  1.3702 -0.8691  2.8455
  412MOL0     H55602  10.036   7.436   9.097  2.9796 -0.7969 -0.7463
  412MOL0     H55603   9.872   7.451   8.915 -3.2589  0.1649  0.9200
  412MOL0     H55604  10.507   7.052   7.823 -1.4166  0.2620  2.3121
  412MOL0     H55605  10.729   6.972   7.724  0.0447  0.2207 -0.7763
  412MOL0     H55606  11.119   6.960   7.608  0.3272 -4.6264  0.4970
  412MOL0     H55607  11.340   6.858   7.509 -0.2074 -1.4872 -0.1387
  412MOL0     H55608  11.679   6.785   7.779 -2.8223 -0.4563 -0.1862
  412MOL0     H55609  11.704   6.949   7.701 -2.8667  1.4634 -0.9271
  412MOL0     H55610  11.763   6.668   7.567 -0.0436  0.9084 -1.2402
  412MOL0     H55611  11.862   6.781   7.656 -1.4467  5.9447  1.5283
  412MOL0     H55612  11.755   6.955   7.459 -1.3217 -1.2197  1.0278
  412MOL0     H55613  11.703   6.801   7.391 -0.6919 -0.4971 -0.0188
  412MOL0     H55614  11.948   6.736   7.385  0.7030 -0.5151 -0.7302
  412MOL0     H55615  11.895   6.872   7.279 -0.0912  2.1648  0.8009
  412MOL0     H55616  12.149   7.041   7.598 -0.0520 -1.1566  1.9396
  412MOL0     H55617  11.537   6.963   7.861 -0.9049 -3.7039  1.6194
  412MOL0     H55618  11.451   7.090   8.024  0.0345 -3.4657 -2.5033
  412MOL0     H55619  11.316   7.206   7.981  0.5345 -0.5775 -1.6934
  412MOL0     H55620  11.283   7.064   8.082  1.7456  2.0207  2.1230
  413MOL0     O55621   5.100   7.185   7.421 -0.1103 -0.2327 -0.1964
  413MOL0     C55622   4.978   7.205   7.435 -0.7819 -0.8458 -0.1110
  413MOL0     O55623   4.901   7.153   7.532 -0.4615 -0.6796  0.2308
  413MOL0     C55624   4.944   7.062   7.619  0.2440 -0.7417 -1.1473
  413MOL0     C55625   4.957   7.092   7.751  0.0398 -0.2042 -0.1057
  413MOL0     C55626   5.003   7.001   7.841 -0.3257  0.9229 -0.9041
  413MOL0     C55627   5.047   6.873   7.801  0.3736 -0.7129  0.5060
  413MOL0     O55628   5.113   6.786   7.879 -0.3993  0.2576  0.1641
  413MOL0     C55629   5.147   6.818   8.016 -0.4259  0.4868  0.5108
  413MOL0     C55630   5.250   6.714   8.066  1.1066  0.4386 -0.3082
  413MOL0     C55631   5.193   6.567   8.071 -1.0844  0.0838  0.4823
  413MOL0     C55632   5.293   6.464   8.026  0.3181 -0.0120  0.8857
  413MOL0     C55633   5.231   6.314   8.020 -0.5394 -0.9916  0.8106
  413MOL0     C55634   5.079   6.296   8.054  0.3109 -0.0695 -0.0480
  413MOL0     C55635   5.053   6.139   8.056  0.4238 -0.2020 -0.0625
  413MOL0     C55636   4.907   6.117   8.078 -1.3642  0.0319  0.0098
  413MOL0     N55637   4.858   5.973   8.073  0.7748 -0.0187  0.4788
  413MOL0     C55638   4.864   5.905   7.955 -0.5002 -0.4252  0.9293
  413MOL0     C55639   4.837   5.779   7.998  0.7149 -0.0814  0.6471
  413MOL0     C55640   4.864   5.661   7.923  0.5092  1.1269  0.7485
  413MOL0     C55641   4.756   5.549   7.936 -0.3312  0.1986  0.6347
  413MOL0     C55642   4.629   5.582   7.862  0.0983 -0.7948 -1.5619
  413MOL0     C55643   4.597   5.489   7.741 -0.0193  0.5171  0.7733
  413MOL0     O55644   4.498   5.560   7.665 -0.0582  0.0943 -0.3287
  413MOL0     C55645   4.531   5.673   7.591  0.5298  0.0125 -1.2019
  413MOL0     C55646   4.658   5.714   7.548  0.3027 -0.2475 -0.4502
  413MOL0     C55647   4.663   5.832   7.488  0.1422 -0.4134  0.8091
  413MOL0     C55648   4.559   5.926   7.474 -1.0599 -0.5480 -0.3581
  413MOL0     C55649   4.581   6.068   7.428  0.0091  1.0171  0.4046
  413MOL0     O55650   4.653   6.085   7.318 -0.4390 -0.1058 -0.6099
  413MOL0     C55651   4.678   6.209   7.278  0.4001 -0.2441 -0.6136
  413MOL0     C55652   4.796   6.276   7.314  0.2831  0.2358 -0.9354
  413MOL0     C55653   4.809   6.413   7.273  0.5983 -0.2638 -0.0649
  413MOL0     C55654   4.698   6.480   7.202  0.1885  0.4109  0.4326
  413MOL0     O55655   4.715   6.612   7.167 -0.1549 -1.0622 -0.6947
  413MOL0     C55656   4.840   6.653   7.116  0.7565 -1.0029 -0.3507
  413MOL0     C55657   4.855   6.801   7.158 -0.3129 -0.3412  1.1366
  413MOL0     C55658   4.766   6.893   7.085  0.4409 -0.8924  0.2763
  413MOL0     C55659   4.761   7.036   7.141 -0.3202 -0.5231  0.0328
  413MOL0     C55660   4.676   7.115   7.032 -1.0918 -0.3030  0.2823
  413MOL0     C55661   4.755   7.171   6.914 -0.0041  0.0523 -0.4805
  413MOL0     C55662   4.657   7.225   6.811  0.7503 -0.4057 -0.3324
  413MOL0     C55663   4.722   7.271   6.681  0.5554  1.1329  0.0836
  413MOL0    Cl55664   4.876   7.342   6.699  0.0301  0.5540  0.0308
  413MOL0     C55665   4.581   6.412   7.172 -0.0927  0.0991  0.0011
  413MOL0     C55666   4.581   6.274   7.212  0.6485 -0.6527 -1.0487
  413MOL0     O55667   4.516   6.145   7.487  0.0573 -0.0728  0.4801
  413MOL0     C55668   4.435   5.886   7.523 -0.1985 -0.4553 -0.2179
  413MOL0     C55669   4.426   5.761   7.577 -0.7732 -0.0596  0.7072
  413MOL0     N55670   4.786   5.781   8.121  0.6860  0.5327 -0.5233
  413MOL0     N55671   4.803   5.898   8.167  0.3504 -0.0904  0.7908
  413MOL0     C55672   5.036   6.838   7.668  0.4665 -0.3629 -0.1133
  413MOL0     C55673   4.976   6.933   7.584 -0.4794 -0.1365 -0.0528
  413MOL0     C55674   4.920   7.307   7.345 -0.0912  0.9169 -0.7706
  413MOL0     C55675   4.788   7.349   7.376  0.0084 -0.0538 -0.5566
  413MOL0     C55676   4.715   7.441   7.302  0.1105 -0.4125  0.2020
  413MOL0     C55677   4.769   7.486   7.178  0.2225 -0.4512  0.3022
  413MOL0     O55678   4.694   7.584   7.108  0.4875 -0.6487 -0.5500
  413MOL0     C55679   4.763   7.671   7.019 -0.1807 -0.1361 -0.7550
  413MOL0     C55680   4.678   7.798   7.002  0.0870 -0.3471 -0.3124
  413MOL0     C55681   4.674   7.899   7.129 -0.8733  0.1774  0.5149
  413MOL0     C55682   4.681   7.846   7.268  0.6415 -0.0962  0.3872
  413MOL0     C55683   4.614   7.946   7.357  0.4751 -0.6467 -0.1273
  413MOL0     C55684   4.566   8.035   7.430  0.5544 -0.6050 -0.2896
  413MOL0     C55685   4.902   7.443   7.145 -0.8418 -0.3648  1.0244
  413MOL0     C55686   4.978   7.362   7.230  0.9307  0.4524 -0.4227
  413MOL0     C55687   5.112   7.340   7.190  0.8123 -0.4360  0.3997
  413MOL0     H55688   4.931   7.194   7.780  0.1048 -0.6926  1.8118
  413MOL0     H55689   5.008   7.031   7.945  2.0529  2.8309 -1.4672
  413MOL0     H55690   5.198   6.914   8.029  3.4444 -0.7921 -2.6805
  413MOL0     H55691   5.056   6.813   8.076  1.8458 -0.2047  4.1856
  413MOL0     H55692   5.299   6.738   8.160 -0.3833  1.8406  0.1616
  413MOL0     H55693   5.315   6.712   7.978  1.8067 -0.0119  0.2099
  413MOL0     H55694   5.102   6.561   8.010 -0.1647  2.2468 -1.2490
  413MOL0     H55695   5.166   6.547   8.175  2.1425 -1.7534  1.0780
  413MOL0     H55696   5.339   6.493   7.931 -1.8802  2.3513  0.4414
  413MOL0     H55697   5.369   6.467   8.104 -0.4329 -1.8891  1.7707
  413MOL0     H55698   5.252   6.291   7.915 -0.1808 -3.7960  1.4400
  413MOL0     H55699   5.288   6.240   8.077 -1.1901  0.0062  2.8369
  413MOL0     H55700   5.088   6.327   8.159  4.6142  0.2790 -0.3401
  413MOL0     H55701   5.012   6.360   7.996 -1.2746  1.0226  2.7786
  413MOL0     H55702   5.103   6.073   8.128 -0.5473  1.6631  2.5107
  413MOL0     H55703   5.075   6.109   7.954 -3.4692 -0.4097 -0.9983
  413MOL0     H55704   4.874   6.174   8.165 -1.1518 -0.1751  0.2287
  413MOL0     H55705   4.846   6.171   8.004 -1.3867 -0.3384 -0.2463
  413MOL0     H55706   4.922   5.933   7.868 -2.0280 -2.3566 -0.7925
  413MOL0     H55707   4.862   5.674   7.814  0.0285 -2.1752  0.2505
  413MOL0     H55708   4.964   5.622   7.941  0.2519  0.4463  0.7445
  413MOL0     H55709   4.805   5.460   7.895  3.7469  1.6387  1.8950
  413MOL0     H55710   4.751   5.518   8.041  1.9388  0.3172  0.8257
  413MOL0     H55711   4.626   5.687   7.831 -2.8040 -0.5077 -0.6298
  413MOL0     H55712   4.540   5.586   7.926 -0.2396  2.6608 -2.0729
  413MOL0     H55713   4.569   5.387   7.767 -0.5522  0.0123 -1.5322
  413MOL0     H55714   4.683   5.483   7.672 -0.6361  0.6652 -0.0277
  413MOL0     H55715   4.749   5.657   7.562  0.2783 -0.0051  0.8437
  413MOL0     H55716   4.758   5.875   7.457  0.8528 -0.9529  2.1678
  413MOL0     H55717   4.880   6.225   7.360 -1.1650 -1.8063 -0.4093
  413MOL0     H55718   4.881   6.480   7.321 -0.5288  2.9333 -2.5117
  413MOL0     H55719   4.933   6.603   7.144  1.4060 -0.4510 -1.4540
  413MOL0     H55720   4.826   6.644   7.008 -2.4997  0.8099 -0.2392
  413MOL0     H55721   4.844   6.805   7.266  2.5275  2.1124  1.4496
  413MOL0     H55722   4.959   6.812   7.128 -0.2947 -1.8404  0.5739
  413MOL0     H55723   4.791   6.895   6.979  0.5337 -0.4244  0.3058
  413MOL0     H55724   4.664   6.852   7.088  0.9114 -2.0172  2.3586
  413MOL0     H55725   4.866   7.067   7.150 -1.0521  2.0798  0.5971
  413MOL0     H55726   4.709   7.028   7.237  2.3390 -2.2628  1.4517
  413MOL0     H55727   4.650   7.207   7.085  1.1882  0.7343 -0.2689
  413MOL0     H55728   4.587   7.062   6.996 -3.0058  3.0477 -0.3526
  413MOL0     H55729   4.819   7.251   6.949 -1.7568  1.4910 -0.4322
  413MOL0     H55730   4.825   7.094   6.881  1.6750  0.7434  1.3384
  413MOL0     H55731   4.601   7.308   6.855  2.3862  1.6623 -1.9325
  413MOL0     H55732   4.593   7.143   6.777 -0.0230  1.2114 -3.1202
  413MOL0     H55733   4.752   7.177   6.633  2.9737  1.0925  1.4969
  413MOL0     H55734   4.655   7.333   6.621 -0.0916  1.4676  1.1270
  413MOL0     H55735   4.500   6.473   7.133 -1.0730  2.2676  4.6723
  413MOL0     H55736   4.489   6.220   7.192 -0.7833  1.5503 -0.7384
  413MOL0     H55737   4.350   5.954   7.519 -0.0258 -0.1297  1.1875
  413MOL0     H55738   4.329   5.718   7.597 -1.5618  1.5063  0.4129
  413MOL0     H55739   5.065   6.735   7.652  1.3128  0.2560 -3.4396
  413MOL0     H55740   4.964   6.898   7.482  1.9134  1.2600 -0.9070
  413MOL0     H55741   4.726   7.325   7.462 -0.4538  0.1827 -0.8208
  413MOL0     H55742   4.622   7.488   7.332  1.5156  0.2407  4.0105
  413MOL0     H55743   4.765   7.607   6.930  2.5065 -0.0530 -0.8410
  413MOL0     H55744   4.863   7.687   7.061 -1.5240 -0.9758  3.1448
  413MOL0     H55745   4.580   7.761   6.971  0.7513 -0.9183 -1.8164
  413MOL0     H55746   4.712   7.850   6.912 -0.2792  0.6336  0.1027
  413MOL0     H55747   4.599   7.975   7.107 -0.0720  1.1068  0.8609
  413MOL0     H55748   4.760   7.967   7.126 -3.5154  3.7659 -2.5898
  413MOL0     H55749   4.623   7.753   7.274 -0.7369  0.5297 -2.1731
  413MOL0     H55750   4.786   7.823   7.285  1.0035 -0.7211 -2.3388
  413MOL0     H55751   4.546   8.124   7.486 -1.0974 -0.9728 -0.2391
  413MOL0     H55752   4.945   7.468   7.048 -1.8058  2.7979  1.2848
  413MOL0     H55753   5.171   7.375   7.275  1.8198 -0.4074 -0.2872
  413MOL0     H55754   5.127   7.232   7.178 -0.1449 -0.5622  0.3274
  413MOL0     H55755   5.139   7.383   7.093 -1.5276  0.0376 -0.0870
  414MOL0     O55756   1.171   2.502   3.749 -0.2179  0.1020 -0.2287
  414MOL0     C55757   1.053   2.524   3.729 -1.3607  0.2299  0.6409
  414MOL0     O55758   0.961   2.446   3.657 -0.1741  0.7019 -0.2312
  414MOL0     C55759   0.993   2.320   3.605  0.4126  0.2128 -0.2619
  414MOL0     C55760   1.121   2.278   3.586  0.1092  0.3362  0.1012
  414MOL0     C55761   1.146   2.138   3.565 -0.4424 -0.4727 -0.1225
  414MOL0     C55762   1.046   2.050   3.553  0.1210  0.0041  0.1754
  414MOL0     O55763   1.081   1.914   3.530 -0.2617  0.2667 -0.1146
  414MOL0     C55764   0.979   1.821   3.497 -0.1289  0.3579 -0.6474
  414MOL0     C55765   0.969   1.728   3.616  1.0098 -0.4680  0.3666
  414MOL0     C55766   0.861   1.622   3.590 -0.7683 -0.4778 -0.2760
  414MOL0     C55767   0.906   1.501   3.672 -0.1628 -0.4724  0.5499
  414MOL0     C55768   0.857   1.363   3.632 -0.1227  1.0666 -0.3226
  414MOL0     C55769   0.871   1.322   3.489  0.1424  0.7332 -0.3600
  414MOL0     C55770   0.829   1.176   3.471 -0.5661 -0.4010  0.3992
  414MOL0     C55771   0.680   1.163   3.491 -0.7243  0.2316 -0.9385
  414MOL0     N55772   0.626   1.081   3.386 -0.2106  0.6842  0.4767
  414MOL0     C55773   0.603   0.946   3.386  1.0900  1.1302  0.5105
  414MOL0     C55774   0.518   0.912   3.280 -0.4493 -0.6488 -0.0382
  414MOL0     C55775   0.453   0.787   3.243 -0.4940 -0.8546  0.2093
  414MOL0     C55776   0.532   0.654   3.238  1.1521 -0.3703 -0.3830
  414MOL0     C55777   0.670   0.654   3.183  0.4333  1.2523  0.3269
  414MOL0     C55778   0.688   0.689   3.033 -0.5371  0.7730  0.6417
  414MOL0     O55779   0.827   0.705   3.001  0.9252 -0.0462  0.3421
  414MOL0     C55780   0.892   0.823   3.044 -0.5658 -0.3967 -0.6057
  414MOL0     C55781   0.850   0.946   3.000 -0.2227 -0.0387 -0.8748
  414MOL0     C55782   0.924   1.065   3.041 -0.3679 -0.2315 -1.1606
  414MOL0     C55783   1.047   1.051   3.113 -0.3401 -0.3332 -0.1363
  414MOL0     C55784   1.121   1.179   3.141  0.1199  0.5841 -1.2968
  414MOL0     O55785   1.059   1.300   3.098 -1.0401  0.1663 -0.4344
  414MOL0     C55786   1.133   1.415   3.110  0.0084 -0.1650  0.0253
  414MOL0     C55787   1.271   1.443   3.107 -0.2659 -0.1857 -0.3407
  414MOL0     C55788   1.321   1.569   3.128 -0.9205  0.0871 -0.1720
  414MOL0     C55789   1.241   1.671   3.180 -0.2155  0.1870  0.1966
  414MOL0     O55790   1.286   1.802   3.228  0.1693 -0.2035  0.1922
  414MOL0     C55791   1.377   1.780   3.336  0.6672 -0.1438  1.6464
  414MOL0     C55792   1.523   1.782   3.272  0.6709  0.2686  0.7212
  414MOL0     C55793   1.565   1.923   3.223  0.9110 -0.4281  0.3809
  414MOL0     C55794   1.720   1.928   3.217 -0.0959 -0.6320  1.2362
  414MOL0     C55795   1.793   1.910   3.353  0.1956 -0.1411  0.2584
  414MOL0     C55796   1.936   1.968   3.347  0.1198  1.7056 -0.5642
  414MOL0     C55797   2.012   1.901   3.233  0.1266 -0.3050  0.4421
  414MOL0     C55798   2.160   1.924   3.236  0.4928  0.3831  0.7674
  414MOL0    Cl55799   2.242   1.901   3.392 -0.0347  0.1698 -0.4019
  414MOL0     C55800   1.104   1.654   3.183  0.3357  0.5524 -0.0149
  414MOL0     C55801   1.054   1.526   3.156  0.8654  0.5644 -0.2868
  414MOL0     O55802   1.229   1.180   3.202  0.6164  0.1300  0.4642
  414MOL0     C55803   1.088   0.933   3.155  0.0614 -0.2466  0.1703
  414MOL0     C55804   1.009   0.815   3.129  0.4308  0.4484 -0.5307
  414MOL0     N55805   0.510   1.028   3.211  0.2139  0.8444 -0.2089
  414MOL0     N55806   0.563   1.124   3.270  0.4179 -0.0110 -0.6798
  414MOL0     C55807   0.910   2.092   3.573 -0.3792  0.0054 -0.9643
  414MOL0     C55808   0.884   2.228   3.598 -0.4096  0.9117 -0.6706
  414MOL0     C55809   1.002   2.655   3.785  0.8690  0.1906  0.3289
  414MOL0     C55810   1.071   2.779   3.764  0.2781  1.3686  0.4552
  414MOL0     C55811   1.016   2.904   3.801  1.1168 -0.6179  0.0031
  414MOL0     C55812   0.894   2.927   3.829 -0.2330 -0.3902 -0.8597
  414MOL0     O55813   0.850   3.055   3.857 -0.6617  0.4486  0.1381
  414MOL0     C55814   0.892   3.104   3.991 -0.0300  0.7480  0.1803
  414MOL0     C55815   0.819   3.042   4.118  0.4074 -0.1611 -0.1812
  414MOL0     C55816   0.663   3.069   4.107  0.0961 -0.4832  0.5110
  414MOL0     C55817   0.616   3.190   4.179 -1.1257  0.4444 -0.7068
  414MOL0     C55818   0.607   3.162   4.323  0.8730  0.2651 -0.5790
  414MOL0     C55819   0.570   3.143   4.443 -0.1816 -0.1497 -0.1107
  414MOL0     C55820   0.818   2.808   3.849 -0.0508 -0.3962 -0.9164
  414MOL0     C55821   0.865   2.680   3.833  0.8325  0.0890  0.1955
  414MOL0     C55822   0.778   2.557   3.867 -0.3996  0.5699 -1.0860
  414MOL0     H55823   1.205   2.347   3.590  0.7893 -0.5138  0.9921
  414MOL0     H55824   1.239   2.083   3.564 -1.0546 -1.7003  2.5191
  414MOL0     H55825   0.887   1.859   3.451  0.9887  2.1389 -1.5577
  414MOL0     H55826   1.034   1.766   3.420 -0.5499 -2.0175  0.6779
  414MOL0     H55827   0.935   1.785   3.703 -3.0519  2.0620 -2.5509
  414MOL0     H55828   1.069   1.689   3.637  1.0523  0.2873  1.6667
  414MOL0     H55829   0.856   1.617   3.481 -0.1338  4.9135 -0.8440
  414MOL0     H55830   0.763   1.659   3.622 -0.8691  0.8094 -1.9174
  414MOL0     H55831   1.013   1.482   3.658  0.1568  2.3879 -1.8526
  414MOL0     H55832   0.890   1.508   3.780 -2.3775 -1.7446  0.3587
  414MOL0     H55833   0.892   1.286   3.701 -1.2169  2.2452  1.6514
  414MOL0     H55834   0.750   1.363   3.654  0.0910 -0.1977  0.8226
  414MOL0     H55835   0.810   1.381   3.420 -5.4450  0.1264  3.3746
  414MOL0     H55836   0.973   1.336   3.451 -0.1825 -1.2641 -2.1203
  414MOL0     H55837   0.889   1.114   3.538  0.9613 -0.4796 -0.9935
  414MOL0     H55838   0.858   1.143   3.371  5.8616 -0.8821  2.0250
  414MOL0     H55839   0.660   1.126   3.592 -0.9762 -0.8739 -1.3777
  414MOL0     H55840   0.625   1.257   3.488  0.1708  1.1723  3.9091
  414MOL0     H55841   0.618   0.870   3.462 -0.8334 -1.1662 -1.2531
  414MOL0     H55842   0.371   0.761   3.311  0.2354  0.3074  1.5553
  414MOL0     H55843   0.409   0.804   3.144  1.5902 -1.1614 -0.8160
  414MOL0     H55844   0.527   0.616   3.340 -0.4200 -0.9056 -0.6337
  414MOL0     H55845   0.472   0.576   3.189  0.2895  0.5261 -0.7737
  414MOL0     H55846   0.712   0.555   3.202  0.3094  1.0911 -0.2289
  414MOL0     H55847   0.735   0.720   3.241  0.7378  1.2727 -0.0283
  414MOL0     H55848   0.625   0.776   3.012 -3.9249 -1.5037  0.6346
  414MOL0     H55849   0.654   0.599   2.981  0.1778 -1.3782  3.6675
  414MOL0     H55850   0.760   0.969   2.944 -2.4259 -1.3262  1.8560
  414MOL0     H55851   0.881   1.162   3.018 -1.5424 -0.2276  0.8377
  414MOL0     H55852   1.329   1.356   3.078 -0.7543 -0.3162 -0.9591
  414MOL0     H55853   1.426   1.578   3.103 -0.8022 -3.3928 -1.3728
  414MOL0     H55854   1.339   1.867   3.391 -3.3644 -0.6681  0.0648
  414MOL0     H55855   1.364   1.683   3.385  3.4870 -2.8381 -2.2316
  414MOL0     H55856   1.579   1.756   3.362 -0.1051  1.8214  1.6785
  414MOL0     H55857   1.541   1.698   3.203 -0.0176 -1.7374  2.8363
  414MOL0     H55858   1.519   1.954   3.129  0.1785  1.4658  1.3157
  414MOL0     H55859   1.539   1.998   3.298  0.8899  1.9900 -1.9178
  414MOL0     H55860   1.749   2.023   3.171 -0.5898  0.3031  2.7905
  414MOL0     H55861   1.756   1.854   3.144 -0.2825 -0.0761  0.5641
  414MOL0     H55862   1.784   1.803   3.373 -0.6020 -0.2468 -0.5815
  414MOL0     H55863   1.744   1.961   3.436  3.1372  0.1930  1.9203
  414MOL0     H55864   1.933   2.077   3.340 -0.5446  1.9775  2.5518
  414MOL0     H55865   1.987   1.946   3.441  0.9089 -0.1551 -1.3525
  414MOL0     H55866   1.975   1.925   3.133 -0.0987 -1.4903  0.2280
  414MOL0     H55867   1.993   1.795   3.256 -1.1211 -0.2628 -0.3340
  414MOL0     H55868   2.201   1.852   3.165 -1.7208 -1.3992  1.1810
  414MOL0     H55869   2.170   2.029   3.206  1.3734 -0.0540 -0.5742
  414MOL0     H55870   1.041   1.733   3.220  0.0966  0.9556 -1.2415
  414MOL0     H55871   0.950   1.521   3.185  0.9598  0.6291  0.0722
  414MOL0     H55872   1.190   0.919   3.190  0.6427 -0.8568 -1.6675
  414MOL0     H55873   1.036   0.718   3.170  2.1073  1.8558  1.9602
  414MOL0     H55874   0.830   2.020   3.575 -2.0104  1.7577 -0.7815
  414MOL0     H55875   0.785   2.245   3.638 -0.3260  1.8396 -0.8314
  414MOL0     H55876   1.168   2.786   3.715 -0.1761  3.0760 -0.2819
  414MOL0     H55877   1.080   2.991   3.789 -0.0387  0.0894 -1.2436
  414MOL0     H55878   0.895   3.213   4.000 -1.9185  0.7029  1.9464
  414MOL0     H55879   0.994   3.068   4.007 -1.1158 -1.9421  1.7130
  414MOL0     H55880   0.859   3.099   4.203 -1.7103 -1.0255  1.4829
  414MOL0     H55881   0.835   2.934   4.125 -0.7492 -0.6178 -3.1296
  414MOL0     H55882   0.609   2.982   4.145 -1.1553 -0.2661 -0.7100
  414MOL0     H55883   0.642   3.081   4.001  1.3826 -0.1312  0.2817
  414MOL0     H55884   0.688   3.271   4.169 -3.6938  3.7023  3.6323
  414MOL0     H55885   0.522   3.229   4.141  0.1822  1.7995 -2.6850
  414MOL0     H55886   0.544   3.154   4.546 -0.8026  2.1231 -0.4509
  414MOL0     H55887   0.711   2.821   3.862  0.0985  1.5734 -1.4174
  414MOL0     H55888   0.696   2.554   3.795 -1.9681 -2.0078  0.6654
  414MOL0     H55889   0.828   2.461   3.856 -0.3373  0.6353 -1.3908
  414MOL0     H55890   0.726   2.563   3.963 -1.7104  0.9398 -1.7906
  415MOL0     O55891  10.096   3.919   1.171  0.3107 -0.0000  0.3846
  415MOL0     C55892  10.103   4.034   1.124 -0.3789 -0.4872  0.1555
  415MOL0     O55893  10.181   4.138   1.185 -0.4737  1.4972  0.1392
  415MOL0     C55894  10.235   4.131   1.305 -0.8972  0.4162 -0.2693
  415MOL0     C55895  10.373   4.129   1.327 -0.4924 -0.1950 -0.0335
  415MOL0     C55896  10.427   4.125   1.456 -0.9966 -0.6084 -0.7196
  415MOL0     C55897  10.346   4.144   1.570  0.6013 -0.6084  0.2428
  415MOL0     O55898  10.404   4.161   1.688  0.6714  0.8867  0.3783
  415MOL0     C55899  10.331   4.101   1.803 -0.4229  0.1377  0.2257
  415MOL0     C55900  10.427   4.029   1.905 -0.3880 -0.9948  0.4274
  415MOL0     C55901  10.354   3.949   2.013 -0.3593  0.4693 -0.0354
  415MOL0     C55902  10.257   4.035   2.094 -0.7785 -0.5700 -0.0773
  415MOL0     C55903  10.180   3.941   2.194 -0.2602 -0.4391 -0.8576
  415MOL0     C55904  10.254   3.884   2.311  0.9373  0.2638 -0.1483
  415MOL0     C55905  10.158   3.790   2.396 -0.3450  0.1206  0.0999
  415MOL0     C55906  10.209   3.738   2.529  0.6321 -0.9027  0.5045
  415MOL0     N55907  10.121   3.803   2.630  0.5506 -0.0497  0.7042
  415MOL0     C55908  10.159   3.913   2.712  1.7399  0.4203  1.0768
  415MOL0     C55909  10.043   3.919   2.792 -0.8348 -0.0575  0.2311
  415MOL0     C55910  10.009   4.032   2.878  0.4994 -0.0655 -0.0369
  415MOL0     C55911  10.100   4.071   3.001 -0.3281  0.6761  0.1703
  415MOL0     C55912  10.186   4.196   2.997 -0.5293 -0.0221  0.3990
  415MOL0     C55913  10.107   4.324   2.966 -0.5477 -0.8488 -0.1863
  415MOL0     O55914  10.208   4.430   2.960 -0.2531 -0.6303  0.7088
  415MOL0     C55915  10.169   4.555   2.914  0.5350  1.2103 -0.2873
  415MOL0     C55916  10.276   4.644   2.906 -0.4661 -0.2925 -0.1507
  415MOL0     C55917  10.252   4.770   2.857 -1.0241  1.4204  1.0217
  415MOL0     C55918  10.124   4.808   2.803 -0.7375 -0.1731 -0.2455
  415MOL0     C55919  10.096   4.943   2.751 -0.2988 -0.5157 -0.7671
  415MOL0     O55920   9.979   4.967   2.708  0.6231  0.0389  0.2658
  415MOL0     C55921   9.922   5.090   2.705  0.3025 -0.2665  0.1228
  415MOL0     C55922   9.915   5.163   2.824  0.1021  0.5565  0.3268
  415MOL0     C55923   9.861   5.287   2.843  0.3038 -0.6370  0.0391
  415MOL0     C55924   9.813   5.350   2.728 -0.7300 -0.6286 -0.1252
  415MOL0     O55925   9.757   5.474   2.720 -0.0053 -1.0960 -0.5075
  415MOL0     C55926   9.719   5.547   2.843  0.2997 -1.0772  0.0814
  415MOL0     C55927   9.673   5.689   2.797  0.1402 -0.1783 -0.0341
  415MOL0     C55928   9.550   5.688   2.707  0.4342 -1.0403  0.4391
  415MOL0     C55929   9.554   5.807   2.611  0.8104  0.4122 -0.2569
  415MOL0     C55930   9.427   5.818   2.533  0.1829 -0.5557  1.0092
  415MOL0     C55931   9.389   5.711   2.437  0.1610 -0.3104 -0.0121
  415MOL0     C55932   9.258   5.749   2.367 -0.1489 -0.0092  0.7888
  415MOL0     C55933   9.202   5.641   2.277  0.5507  0.0083  0.2978
  415MOL0    Cl55934   9.298   5.587   2.126 -0.0036 -0.0624  0.4512
  415MOL0     C55935   9.826   5.287   2.602  0.3507  0.2704 -0.9859
  415MOL0     C55936   9.888   5.158   2.585 -0.1127 -0.1145  0.3225
  415MOL0     O55937  10.183   5.021   2.761 -0.4187 -0.5395  0.0878
  415MOL0     C55938  10.023   4.710   2.798  0.4888 -0.5216 -0.2763
  415MOL0     C55939  10.050   4.588   2.850  1.4060  0.3283 -0.2869
  415MOL0     N55940   9.962   3.803   2.769 -0.5157 -0.0578 -0.5237
  415MOL0     N55941  10.011   3.736   2.669  0.3112  0.6483  1.1106
  415MOL0     C55942  10.211   4.151   1.551  0.2452  0.1821 -0.1094
  415MOL0     C55943  10.151   4.140   1.424 -0.8615 -0.1972  0.9265
  415MOL0     C55944  10.014   4.062   0.996 -0.6834  0.5283  0.5349
  415MOL0     C55945   9.952   3.950   0.930 -0.2349 -0.1045 -0.1979
  415MOL0     C55946   9.872   3.961   0.818  0.3060  0.2345  0.5048
  415MOL0     C55947   9.835   4.083   0.767 -0.2007  0.0625  1.3257
  415MOL0     O55948   9.756   4.068   0.659 -0.0449 -0.4224  0.4436
  415MOL0     C55949   9.719   4.189   0.589  0.2622 -0.0870 -0.6693
  415MOL0     C55950   9.590   4.146   0.507  1.2193 -0.2794  0.2040
  415MOL0     C55951   9.534   4.257   0.413  0.1615  0.2271 -0.4134
  415MOL0     C55952   9.471   4.371   0.499  0.2759  0.9048 -0.1435
  415MOL0     C55953   9.415   4.489   0.423  0.5635  0.0161  0.3496
  415MOL0     C55954   9.358   4.585   0.376 -0.5461  0.5103  1.0246
  415MOL0     C55955   9.884   4.193   0.832  0.7477 -0.5686 -0.2986
  415MOL0     C55956   9.967   4.187   0.946  0.6148 -0.2659 -0.9407
  415MOL0     C55957  10.001   4.309   1.017 -0.1826 -0.2323 -0.5473
  415MOL0     H55958  10.452   4.116   1.253  2.0568  4.2304  1.5023
  415MOL0     H55959  10.532   4.123   1.484 -0.7827  0.6247 -1.3382
  415MOL0     H55960  10.279   4.178   1.860 -2.1568 -0.1299 -0.9014
  415MOL0     H55961  10.261   4.025   1.765 -0.5490  0.0109  0.7131
  415MOL0     H55962  10.500   4.087   1.963  0.6499 -1.2762 -0.5506
  415MOL0     H55963  10.485   3.957   1.846 -2.8462 -1.7664 -1.1854
  415MOL0     H55964  10.429   3.894   2.070 -0.6940 -2.1380 -1.9056
  415MOL0     H55965  10.296   3.870   1.962  0.3641  1.0172 -1.8015
  415MOL0     H55966  10.306   4.114   2.152  1.0827 -1.9746  0.3790
  415MOL0     H55967  10.187   4.084   2.025 -0.1945  2.0409  1.0752
  415MOL0     H55968  10.092   4.001   2.219  0.6107  1.1205 -1.3539
  415MOL0     H55969  10.153   3.852   2.137 -3.4682 -0.3449  0.3246
  415MOL0     H55970  10.344   3.831   2.279 -0.4578 -1.1876 -1.8575
  415MOL0     H55971  10.301   3.949   2.386 -1.3967  0.7838  0.9451
  415MOL0     H55972  10.120   3.715   2.326 -2.8585  3.9342 -3.0956
  415MOL0     H55973  10.068   3.850   2.410 -1.1419 -0.5911 -1.6584
  415MOL0     H55974  10.201   3.630   2.538 -0.4554 -1.1826 -2.6941
  415MOL0     H55975  10.317   3.756   2.539  0.3774  1.9095 -0.8104
  415MOL0     H55976  10.249   3.973   2.712  1.1688  1.3006  0.4965
  415MOL0     H55977  10.000   4.117   2.808 -0.2698 -0.2597 -0.1865
  415MOL0     H55978   9.906   4.006   2.904  0.5122 -1.2706 -1.1290
  415MOL0     H55979  10.038   4.078   3.091 -1.7796 -1.5028 -0.5669
  415MOL0     H55980  10.169   3.990   3.029 -0.3311  0.9105  0.8661
  415MOL0     H55981  10.262   4.181   2.920  0.4563  2.2307  0.8557
  415MOL0     H55982  10.234   4.206   3.095 -0.1770  1.0568  0.1240
  415MOL0     H55983  10.031   4.346   3.040 -1.4672 -0.1389 -1.3083
  415MOL0     H55984  10.060   4.309   2.868 -0.7212  3.7842 -1.0668
  415MOL0     H55985  10.368   4.618   2.957 -1.1307 -0.1747  1.1623
  415MOL0     H55986  10.333   4.841   2.871  2.7103 -2.6426  2.8509
  415MOL0     H55987   9.961   5.115   2.909 -0.2241 -1.0605 -0.3544
  415MOL0     H55988   9.861   5.337   2.939  1.9814 -1.5147  0.5313
  415MOL0     H55989   9.630   5.504   2.888 -1.1427  1.0424 -0.5935
  415MOL0     H55990   9.790   5.566   2.924 -0.5638  1.7705  0.2581
  415MOL0     H55991   9.646   5.752   2.882 -0.9975 -1.0983  0.2985
  415MOL0     H55992   9.752   5.746   2.747 -1.7156  2.4790 -0.1364
  415MOL0     H55993   9.565   5.605   2.637  2.7045  0.9412 -1.6086
  415MOL0     H55994   9.451   5.703   2.752  0.5444 -0.5321  0.5067
  415MOL0     H55995   9.638   5.795   2.542  0.2819 -3.3216 -0.4794
  415MOL0     H55996   9.562   5.905   2.659 -0.1824  0.8496 -0.9378
  415MOL0     H55997   9.418   5.917   2.489 -1.9632  0.5665  3.7046
  415MOL0     H55998   9.348   5.825   2.609 -3.0030 -0.5518 -2.0713
  415MOL0     H55999   9.473   5.703   2.368  0.6691  1.6815  0.3417
  415MOL0     H56000   9.376   5.619   2.495 -1.4526  0.9249  1.7069
  415MOL0     H56001   9.289   5.829   2.299  1.7953 -1.2362  0.1526
  415MOL0     H56002   9.186   5.792   2.438 -1.7517  0.6126 -1.1347
  415MOL0     H56003   9.185   5.546   2.328 -0.9022 -0.6225 -1.2722
  415MOL0     H56004   9.103   5.667   2.238  0.6004 -1.9818 -1.2788
  415MOL0     H56005   9.793   5.353   2.523 -0.0311  2.4695  0.9071
  415MOL0     H56006   9.907   5.122   2.485  1.7236  1.0557  0.2015
  415MOL0     H56007   9.927   4.740   2.758  0.8924  0.6149 -0.4360
  415MOL0     H56008   9.963   4.523   2.855 -0.0894  2.1996 -0.8533
  415MOL0     H56009  10.155   4.175   1.641  2.6961  0.4433  1.4304
  415MOL0     H56010  10.043   4.144   1.415 -0.7241 -0.7078 -5.3267
  415MOL0     H56011   9.983   3.851   0.962 -0.8463 -0.8481 -1.8149
  415MOL0     H56012   9.814   3.879   0.776 -1.2120  2.0811 -1.2330
  415MOL0     H56013   9.792   4.224   0.516  1.3155 -1.7130 -0.4585
  415MOL0     H56014   9.692   4.266   0.662 -0.8405 -0.8025 -0.3016
  415MOL0     H56015   9.506   4.124   0.574 -0.0182  1.3966 -0.7243
  415MOL0     H56016   9.608   4.062   0.440  0.7482  3.1757 -4.8353
  415MOL0     H56017   9.460   4.220   0.341  0.9940  1.7340 -2.1373
  415MOL0     H56018   9.619   4.302   0.360  1.2648 -0.3632  0.8012
  415MOL0     H56019   9.400   4.321   0.566  2.7381 -1.5526  0.8375
  415MOL0     H56020   9.542   4.411   0.573  2.7587 -1.9862 -0.7433
  415MOL0     H56021   9.308   4.674   0.344  1.0874  0.3212 -2.5071
  415MOL0     H56022   9.859   4.293   0.798 -1.5740 -1.1385 -0.3715
  415MOL0     H56023  10.105   4.340   1.005 -0.2547  0.1778 -0.1612
  415MOL0     H56024   9.960   4.395   0.964  1.2458 -0.8306 -2.7291
  415MOL0     H56025   9.962   4.311   1.119  1.1626 -0.1026 -0.0124
  416MOL0     O56026   9.919   8.260   6.787  0.8343  0.4494  0.5933
  416MOL0     C56027   9.859   8.364   6.773 -2.0353 -0.6434  0.2698
  416MOL0     O56028   9.736   8.402   6.822  0.1603  0.4848 -0.8981
  416MOL0     C56029   9.677   8.328   6.918  0.3437 -0.1382 -0.5501
  416MOL0     C56030   9.750   8.266   7.031 -0.6544 -0.1136  0.2093
  416MOL0     C56031   9.677   8.198   7.143 -0.4039 -0.1109  0.9626
  416MOL0     C56032   9.542   8.200   7.144  0.6618 -0.4766  0.7686
  416MOL0     O56033   9.484   8.140   7.244 -0.2184  0.1165 -0.1107
  416MOL0     C56034   9.339   8.147   7.263 -0.1342 -0.0230  0.7624
  416MOL0     C56035   9.266   8.288   7.291  0.6462  1.1458 -0.3712
  416MOL0     C56036   9.320   8.342   7.417 -1.1438 -0.1789 -0.3159
  416MOL0     C56037   9.272   8.489   7.456 -0.4855  0.8396 -0.2377
  416MOL0     C56038   9.292   8.519   7.608 -0.9392 -0.3067  0.0997
  416MOL0     C56039   9.235   8.661   7.639  0.1951 -1.4426  0.2988
  416MOL0     C56040   9.196   8.692   7.779  0.7056  0.7414 -0.1579
  416MOL0     C56041   9.061   8.639   7.835  0.5526  0.9414  0.0976
  416MOL0     N56042   8.953   8.638   7.741  0.1829 -0.2402 -0.1319
  416MOL0     C56043   8.853   8.733   7.709 -0.7896 -0.4072 -0.5244
  416MOL0     C56044   8.762   8.667   7.643  0.2071 -0.2003  0.1872
  416MOL0     C56045   8.621   8.705   7.587  0.4031 -1.2675 -0.2901
  416MOL0     C56046   8.541   8.760   7.712 -0.6003 -0.8436 -0.2326
  416MOL0     C56047   8.469   8.656   7.796  0.1865 -0.6891  0.0564
  416MOL0     C56048   8.560   8.605   7.906  0.3597  1.0750  0.2844
  416MOL0     O56049   8.571   8.680   8.022  0.2695  0.1429 -0.4375
  416MOL0     C56050   8.471   8.692   8.118 -0.0428  0.0136 -0.4638
  416MOL0     C56051   8.351   8.624   8.125  0.2358  0.8382  1.1026
  416MOL0     C56052   8.262   8.631   8.228  0.0038 -0.5520 -0.5680
  416MOL0     C56053   8.278   8.724   8.332 -0.1158  0.8779  0.6631
  416MOL0     C56054   8.179   8.731   8.440 -0.3924  0.3515  0.5051
  416MOL0     O56055   8.097   8.622   8.453  0.4635 -0.1256  0.2170
  416MOL0     C56056   8.026   8.624   8.572  0.6902 -0.6931  0.4249
  416MOL0     C56057   7.910   8.713   8.583 -0.3801  0.7353  0.0584
  416MOL0     C56058   7.804   8.698   8.668 -1.6410  0.0123 -0.3768
  416MOL0     C56059   7.828   8.603   8.769  1.0457  0.0389 -0.4045
  416MOL0     O56060   7.744   8.599   8.874  0.3097  0.1102 -0.8801
  416MOL0     C56061   7.655   8.493   8.904 -0.7044  0.4884 -0.3595
  416MOL0     C56062   7.641   8.478   9.058  0.8078  0.0462  0.5488
  416MOL0     C56063   7.552   8.351   9.087  0.3237  0.1586 -0.4366
  416MOL0     C56064   7.467   8.351   9.222  0.5163  0.7914 -0.1748
  416MOL0     C56065   7.389   8.219   9.242  0.2610 -0.2289 -1.5652
  416MOL0     C56066   7.314   8.228   9.379  0.3092 -0.5156  0.2183
  416MOL0     C56067   7.213   8.117   9.395  0.1153  0.6433  0.6999
  416MOL0     C56068   7.095   8.150   9.493 -0.6122  0.3987  0.2103
  416MOL0    Cl56069   6.964   8.256   9.413 -0.3955  0.2909  0.0067
  416MOL0     C56070   7.938   8.520   8.775  0.3914 -0.3732 -0.6261
  416MOL0     C56071   8.032   8.528   8.674 -0.2255  0.9698 -0.7245
  416MOL0     O56072   8.179   8.835   8.511  0.3359  0.0908  0.4560
  416MOL0     C56073   8.402   8.788   8.339  0.4113  1.2633 -0.6207
  416MOL0     C56074   8.489   8.782   8.225 -0.9259  0.1891 -0.3022
  416MOL0     N56075   8.813   8.548   7.611 -0.5702  0.1017  0.7477
  416MOL0     N56076   8.924   8.521   7.671 -0.3443 -0.7431  0.3464
  416MOL0     C56077   9.471   8.258   7.038  0.3411 -0.6878  0.3002
  416MOL0     C56078   9.537   8.318   6.926  0.5664 -0.5084  0.3800
  416MOL0     C56079   9.928   8.472   6.685  0.1629  0.4438  1.0106
  416MOL0     C56080   9.855   8.579   6.643  0.3463  0.8883  0.0358
  416MOL0     C56081   9.912   8.684   6.576  0.3827 -0.0195  0.5798
  416MOL0     C56082  10.039   8.693   6.533 -0.0471  0.0485  0.2190
  416MOL0     O56083  10.087   8.789   6.450  0.4832  0.0436  0.8771
  416MOL0     C56084   9.998   8.897   6.407 -0.6705  0.5930  0.3577
  416MOL0     C56085   9.993   8.995   6.524 -0.3820 -0.0293 -0.0946
  416MOL0     C56086   9.872   9.087   6.496 -0.4565 -0.2869 -0.5096
  416MOL0     C56087   9.840   9.203   6.596  0.2847  0.6555  0.6014
  416MOL0     C56088   9.947   9.298   6.611 -0.6300 -0.6756  0.6148
  416MOL0     C56089  10.020   9.387   6.628 -0.9838  0.4589  0.8883
  416MOL0     C56090  10.116   8.581   6.553  0.7079  0.1537  0.3876
  416MOL0     C56091  10.061   8.475   6.642  0.0009  0.3805  0.3935
  416MOL0     C56092  10.174   8.392   6.693  0.0480 -0.5196  0.4535
  416MOL0     H56093   9.859   8.270   7.028 -0.6381  1.8789  1.4452
  416MOL0     H56094   9.728   8.137   7.217 -1.5037  0.9515  2.6637
  416MOL0     H56095   9.290   8.091   7.182  0.7828  1.5390 -0.9606
  416MOL0     H56096   9.311   8.102   7.358  0.2192  1.1924  1.4715
  416MOL0     H56097   9.157   8.278   7.297  0.7390  0.6408  0.6759
  416MOL0     H56098   9.290   8.355   7.208 -0.5572 -0.3480 -2.0013
  416MOL0     H56099   9.429   8.349   7.413 -1.0187  0.6777  2.3549
  416MOL0     H56100   9.301   8.279   7.505 -5.3155  2.0069  0.5899
  416MOL0     H56101   9.333   8.557   7.395  2.0817 -1.8819 -0.9803
  416MOL0     H56102   9.165   8.500   7.439 -0.6364  2.7956  1.6342
  416MOL0     H56103   9.243   8.444   7.671 -1.9021 -0.3503 -0.6651
  416MOL0     H56104   9.399   8.531   7.626 -0.4767 -2.1235 -1.1504
  416MOL0     H56105   9.312   8.738   7.625 -2.0761  1.5605  2.8103
  416MOL0     H56106   9.155   8.679   7.567  0.7037 -3.3709 -0.8206
  416MOL0     H56107   9.189   8.800   7.790  4.8786  1.1790 -0.3611
  416MOL0     H56108   9.266   8.653   7.854 -1.0733 -3.5523 -0.4108
  416MOL0     H56109   9.084   8.539   7.872  3.1108  1.9526  1.4369
  416MOL0     H56110   9.019   8.702   7.913  1.3776 -0.1906  1.5005
  416MOL0     H56111   8.844   8.836   7.741 -0.2312 -0.2611 -0.8335
  416MOL0     H56112   8.641   8.786   7.516  4.2898  0.9513  2.9139
  416MOL0     H56113   8.571   8.629   7.527  0.2858 -2.8169  1.6759
  416MOL0     H56114   8.603   8.823   7.777  2.1839  0.3755 -3.7562
  416MOL0     H56115   8.467   8.826   7.665  1.7486  0.8881 -1.6873
  416MOL0     H56116   8.440   8.579   7.725 -0.4797 -0.3101 -0.0926
  416MOL0     H56117   8.374   8.695   7.833 -1.5279 -1.2175 -3.3847
  416MOL0     H56118   8.662   8.595   7.866  1.6243 -0.3844  3.5014
  416MOL0     H56119   8.537   8.503   7.937  2.4391  0.0916 -1.1228
  416MOL0     H56120   8.332   8.558   8.041  0.9687  2.6478 -0.5771
  416MOL0     H56121   8.167   8.579   8.218 -0.1349 -0.1225 -1.5711
  416MOL0     H56122   7.899   8.801   8.520 -3.2946  3.8447  4.3477
  416MOL0     H56123   7.722   8.768   8.671 -2.1577 -0.4572 -2.1656
  416MOL0     H56124   7.561   8.519   8.855 -0.9782 -4.1613 -2.9710
  416MOL0     H56125   7.684   8.392   8.871  1.2001  0.4162  1.3311
  416MOL0     H56126   7.741   8.459   9.098  1.9122  1.3719 -1.4519
  416MOL0     H56127   7.592   8.571   9.088  0.0516 -0.0273 -0.4031
  416MOL0     H56128   7.488   8.341   8.999  2.0042 -0.7577 -1.6054
  416MOL0     H56129   7.617   8.263   9.093 -0.2642 -0.2324  0.3750
  416MOL0     H56130   7.394   8.431   9.210 -4.0073 -2.6841  1.4759
  416MOL0     H56131   7.533   8.365   9.308 -0.8732  1.1744  0.8633
  416MOL0     H56132   7.456   8.133   9.234 -0.8280 -1.0822 -1.7684
  416MOL0     H56133   7.325   8.200   9.155 -0.7533 -0.8909 -0.7074
  416MOL0     H56134   7.387   8.223   9.460  0.8691 -1.6715 -0.3295
  416MOL0     H56135   7.259   8.322   9.384 -0.1772 -0.7823 -0.0999
  416MOL0     H56136   7.254   8.017   9.416 -2.5106 -0.3687  1.4091
  416MOL0     H56137   7.161   8.113   9.299 -3.0789  4.1874  2.0392
  416MOL0     H56138   7.060   8.052   9.525 -0.1197 -0.2940 -1.2982
  416MOL0     H56139   7.130   8.210   9.578  0.9595  0.6936 -0.6000
  416MOL0     H56140   7.947   8.453   8.861  1.2732  0.3324 -0.1474
  416MOL0     H56141   8.099   8.443   8.671 -1.8269 -0.5266  2.0870
  416MOL0     H56142   8.424   8.858   8.420 -0.6672  0.2145  0.6133
  416MOL0     H56143   8.589   8.825   8.229 -0.3132 -1.0847 -1.2090
  416MOL0     H56144   9.363   8.248   7.035  0.3551 -0.6478 -0.4624
  416MOL0     H56145   9.481   8.356   6.841  0.3329  1.5701  1.4094
  416MOL0     H56146   9.752   8.582   6.676  1.2781 -0.1792  3.5263
  416MOL0     H56147   9.835   8.761   6.571  0.9083  0.5955  1.6714
  416MOL0     H56148   9.899   8.859   6.380  0.3668 -1.7584 -0.3117
  416MOL0     H56149  10.045   8.957   6.328 -0.5050  2.1409  1.5807
  416MOL0     H56150  10.082   9.059   6.530 -2.0770  2.5373 -0.6806
  416MOL0     H56151   9.979   8.950   6.622 -0.2347  0.3462  0.0997
  416MOL0     H56152   9.785   9.022   6.508 -0.6499 -0.0306 -0.4985
  416MOL0     H56153   9.860   9.120   6.392  3.7981  0.1641 -1.0441
  416MOL0     H56154   9.759   9.271   6.568 -0.5571 -0.2817  0.6920
  416MOL0     H56155   9.806   9.152   6.686 -1.1549  1.9142  0.8109
  416MOL0     H56156  10.093   9.462   6.653 -0.9771  0.2700  1.4369
  416MOL0     H56157  10.221   8.580   6.527  0.9330 -0.4380  1.2675
  416MOL0     H56158  10.176   8.401   6.802 -0.4480  0.7741  0.3669
  416MOL0     H56159  10.162   8.288   6.660 -2.5937 -0.7426  1.7813
  416MOL0     H56160  10.270   8.433   6.661 -1.5797  2.6396 -0.7751
  417MOL0     O56161   6.137   0.806   9.800  0.3849  0.3421  0.4679
  417MOL0     C56162   6.207   0.814   9.699  0.2120  0.2617 -1.1834
  417MOL0     O56163   6.171   0.887   9.588 -0.3422  0.3024 -0.0739
  417MOL0     C56164   6.048   0.945   9.582  0.8543 -0.5066 -0.6061
  417MOL0     C56165   6.019   1.063   9.639 -0.4756 -0.2421  0.4648
  417MOL0     C56166   5.892   1.127   9.622 -0.0728  0.1423 -0.4252
  417MOL0     C56167   5.792   1.062   9.544 -0.1648 -0.5086 -0.7802
  417MOL0     O56168   5.678   1.137   9.531 -0.2878  0.4893  0.3680
  417MOL0     C56169   5.566   1.056   9.507  0.3583 -0.3666 -0.1502
  417MOL0     C56170   5.454   1.155   9.506  0.4439  0.7155 -0.3208
  417MOL0     C56171   5.316   1.087   9.492 -0.0848 -0.1817  0.2504
  417MOL0     C56172   5.294   0.935   9.498  0.6164 -0.1764  0.4440
  417MOL0     C56173   5.291   0.904   9.649 -0.1859 -0.1541 -0.0020
  417MOL0     C56174   5.300   0.757   9.698  0.0902 -0.5432  0.1352
  417MOL0     C56175   5.391   0.662   9.612 -0.2272  0.9271 -0.6662
  417MOL0     C56176   5.454   0.537   9.679  0.4132  0.3463  0.7453
  417MOL0     N56177   5.367   0.458   9.772  0.0664 -0.9683 -0.3602
  417MOL0     C56178   5.243   0.413   9.751  0.5200 -0.0863  0.7147
  417MOL0     C56179   5.192   0.379   9.872  0.1500  0.5242 -0.5686
  417MOL0     C56180   5.049   0.336   9.912 -0.0237  0.4280 -0.7027
  417MOL0     C56181   4.951   0.456   9.932  0.9346  0.4718 -0.0345
  417MOL0     C56182   4.909   0.510   9.796 -0.3237  0.0643  0.2193
  417MOL0     C56183   4.848   0.655   9.803  0.0848 -0.2409  0.8017
  417MOL0     O56184   4.949   0.749   9.842 -0.0015  0.4052  0.1011
  417MOL0     C56185   4.907   0.878   9.833  0.4906  0.8167  0.9649
  417MOL0     C56186   4.781   0.919   9.785 -0.3200 -0.2205  0.5686
  417MOL0     C56187   4.739   1.055   9.784  0.9925  0.1430  0.0503
  417MOL0     C56188   4.813   1.150   9.849 -0.1220 -0.1106 -0.7762
  417MOL0     C56189   4.760   1.288   9.864 -0.5244  0.2846 -0.0084
  417MOL0     O56190   4.634   1.313   9.819  0.0151  0.1704  1.2161
  417MOL0     C56191   4.569   1.430   9.822  0.1814 -0.2181 -0.5850
  417MOL0     C56192   4.440   1.434   9.765  0.9633  1.0955  0.0259
  417MOL0     C56193   4.367   1.550   9.759 -0.5923  1.0381 -0.4453
  417MOL0     C56194   4.400   1.660   9.827  1.1602 -1.0168 -1.0764
  417MOL0     O56195   4.312   1.763   9.828  0.4994 -0.3085  0.4342
  417MOL0     C56196   4.308   1.842   9.955  0.3308 -0.9268 -0.7247
  417MOL0     C56197   4.190   1.937   9.941 -0.6900 -0.6499  0.8514
  417MOL0     C56198   4.157   2.004  10.079  0.8181  0.0645 -0.4931
  417MOL0     C56199   4.038   2.099  10.065  0.8950 -0.2192 -0.4856
  417MOL0     C56200   3.997   2.150  10.197  0.3062  0.1026 -0.6164
  417MOL0     C56201   3.867   2.222  10.198  0.0517 -0.3262  0.4652
  417MOL0     C56202   3.867   2.341  10.105 -0.1575  0.8958  0.3034
  417MOL0     C56203   3.850   2.473  10.173  0.2741 -1.1381 -0.2356
  417MOL0    Cl56204   4.003   2.548  10.189 -0.0085 -0.1070 -0.0082
  417MOL0     C56205   4.530   1.662   9.887 -0.0603  0.8661  0.0739
  417MOL0     C56206   4.611   1.548   9.882  0.8021  0.2328 -0.2504
  417MOL0     O56207   4.834   1.371   9.916 -0.5937 -0.0928  0.6844
  417MOL0     C56208   4.936   1.110   9.893 -0.4017  0.4075 -0.6874
  417MOL0     C56209   4.985   0.976   9.890  0.0628  1.0281  1.0020
  417MOL0     N56210   5.296   0.376   9.959 -1.5925 -0.7730  0.1827
  417MOL0     N56211   5.397   0.427   9.902  0.0525  0.2181  1.0415
  417MOL0     C56212   5.826   0.947   9.480  0.5795  0.5617 -0.0147
  417MOL0     C56213   5.947   0.887   9.505  0.9652 -0.0856 -0.8811
  417MOL0     C56214   6.346   0.754   9.717  0.2201  1.1785  0.1259
  417MOL0     C56215   6.375   0.646   9.801  0.6756  0.4793 -0.4555
  417MOL0     C56216   6.504   0.592   9.806 -0.2105 -0.0096 -1.2667
  417MOL0     C56217   6.609   0.646   9.735  0.5218 -0.2783  0.0616
  417MOL0     O56218   6.737   0.592   9.749  0.1066 -0.4513 -0.5041
  417MOL0     C56219   6.850   0.661   9.703 -0.5295  0.3518 -0.2214
  417MOL0     C56220   6.872   0.630   9.551 -0.2063 -0.0584 -0.4955
  417MOL0     C56221   6.965   0.497   9.543 -0.1075 -0.8943  0.5136
  417MOL0     C56222   6.932   0.421   9.413 -0.5989 -0.7382 -0.7005
  417MOL0     C56223   7.022   0.315   9.420 -1.0688  0.6114  0.4668
  417MOL0     C56224   7.100   0.218   9.424  0.4776 -0.7439 -0.3656
  417MOL0     C56225   6.587   0.764   9.673  0.3971  0.4436 -0.2788
  417MOL0     C56226   6.453   0.810   9.648 -0.3350  0.7094 -0.1659
  417MOL0     C56227   6.456   0.944   9.568 -0.7435  0.8760  0.1672
  417MOL0     H56228   6.105   1.113   9.682  1.6637  0.1079 -3.6776
  417MOL0     H56229   5.861   1.208   9.687 -1.0189 -0.6117  0.0868
  417MOL0     H56230   5.566   0.997   9.414  0.4412 -2.0196  0.8555
  417MOL0     H56231   5.557   0.989   9.593  0.6609 -0.8659 -0.4944
  417MOL0     H56232   5.471   1.230   9.429  1.9936  1.1171  0.3619
  417MOL0     H56233   5.442   1.211   9.600 -0.3155  0.3248 -0.1768
  417MOL0     H56234   5.285   1.121   9.393 -0.4937 -2.6144 -0.5293
  417MOL0     H56235   5.235   1.122   9.557 -2.8892 -1.3855 -2.3530
  417MOL0     H56236   5.206   0.897   9.445 -1.1326  2.4935  1.2090
  417MOL0     H56237   5.382   0.885   9.458 -0.6035 -1.6636 -0.4804
  417MOL0     H56238   5.361   0.961   9.710  0.3681  0.0041 -0.7734
  417MOL0     H56239   5.194   0.940   9.684 -1.3489 -3.1816  0.2148
  417MOL0     H56240   5.325   0.760   9.804  2.9093  3.2436 -0.4365
  417MOL0     H56241   5.198   0.717   9.691 -0.8370  1.7725 -0.6290
  417MOL0     H56242   5.468   0.731   9.577 -1.4309  4.4836  2.9368
  417MOL0     H56243   5.332   0.633   9.524 -1.6357 -1.0606  0.8250
  417MOL0     H56244   5.466   0.458   9.605  1.3407  1.6410 -0.5209
  417MOL0     H56245   5.555   0.557   9.717  0.2600  0.0347  1.3402
  417MOL0     H56246   5.183   0.435   9.663 -2.8440  0.2741  2.9116
  417MOL0     H56247   5.019   0.266   9.833  2.3628  0.3241 -1.5949
  417MOL0     H56248   5.054   0.287  10.010 -0.9907  0.7639 -0.4726
  417MOL0     H56249   4.875   0.426  10.005  1.3908 -0.6930 -0.0205
  417MOL0     H56250   5.009   0.525   9.994  0.2985 -0.4708  1.6797
  417MOL0     H56251   4.841   0.430   9.767  0.2994 -0.7216  0.8644
  417MOL0     H56252   4.996   0.502   9.729  0.5449 -4.5739  1.4854
  417MOL0     H56253   4.762   0.659   9.871 -0.1307  1.6813  0.4794
  417MOL0     H56254   4.814   0.684   9.703 -1.9062 -0.4161  1.3743
  417MOL0     H56255   4.706   0.853   9.743 -3.3057  1.7141  2.5252
  417MOL0     H56256   4.642   1.078   9.741  1.7634  3.6482 -0.0956
  417MOL0     H56257   4.412   1.345   9.710 -1.5561  2.8987 -1.8535
  417MOL0     H56258   4.269   1.543   9.714 -1.7168  1.9229  1.7466
  417MOL0     H56259   4.300   1.779  10.045  2.8314 -1.5504 -0.8573
  417MOL0     H56260   4.394   1.908   9.965 -2.4667  2.9079  0.1283
  417MOL0     H56261   4.213   2.009   9.862  1.4710 -0.5528  1.5012
  417MOL0     H56262   4.118   1.875   9.886  3.7628 -5.0473 -0.7821
  417MOL0     H56263   4.141   1.929  10.157 -2.3799  0.6641 -0.4239
  417MOL0     H56264   4.240   2.064  10.118  0.0848 -0.6088  2.2696
  417MOL0     H56265   3.949   2.049  10.026  1.3896  1.3502 -4.0837
  417MOL0     H56266   4.063   2.181   9.997  0.4892 -0.3270 -0.7680
  417MOL0     H56267   4.076   2.216  10.235  1.2512 -0.3554 -1.7472
  417MOL0     H56268   3.973   2.059  10.254  0.8575 -0.4442 -1.2466
  417MOL0     H56269   3.787   2.161  10.157 -1.9496  1.5292  1.4231
  417MOL0     H56270   3.851   2.244  10.304 -2.6202  2.0966 -0.3184
  417MOL0     H56271   3.793   2.312  10.031 -1.4010  0.3184  1.7217
  417MOL0     H56272   3.959   2.348  10.046  0.6861  1.3346  1.6022
  417MOL0     H56273   3.782   2.539  10.119  0.4933 -0.6137  0.1201
  417MOL0     H56274   3.797   2.470  10.269 -1.0540 -0.1331 -0.8927
  417MOL0     H56275   4.555   1.746   9.951 -0.5471  2.3416 -1.6051
  417MOL0     H56276   4.699   1.576   9.939  1.0499 -2.0780  0.6073
  417MOL0     H56277   4.992   1.178   9.956  0.2001  0.5037 -1.3107
  417MOL0     H56278   5.064   0.937   9.954  1.7201  1.5593 -0.6430
  417MOL0     H56279   5.757   0.907   9.406  0.0638  0.5175  0.4900
  417MOL0     H56280   5.959   0.795   9.449  0.1846 -0.8729  0.2012
  417MOL0     H56281   6.296   0.608   9.865  2.5564 -0.8343  1.2396
  417MOL0     H56282   6.519   0.504   9.868 -1.6105  0.1259 -0.7111
  417MOL0     H56283   6.945   0.629   9.748  1.9368 -0.4458 -5.3150
  417MOL0     H56284   6.846   0.767   9.730  0.2945  0.3591 -0.0934
  417MOL0     H56285   6.930   0.718   9.523 -1.0269  1.8377  3.1737
  417MOL0     H56286   6.779   0.625   9.494 -0.0838 -0.9415 -0.6351
  417MOL0     H56287   6.933   0.426   9.621  1.1454 -4.4547 -1.9585
  417MOL0     H56288   7.068   0.525   9.563 -0.4503  0.3715  0.5921
  417MOL0     H56289   6.830   0.381   9.424 -1.0361 -0.4415 -3.1586
  417MOL0     H56290   6.933   0.488   9.327 -3.2131 -1.0017 -1.0378
  417MOL0     H56291   7.165   0.140   9.391  1.4691  0.7248 -2.1182
  417MOL0     H56292   6.666   0.813   9.615 -0.1449  0.4241 -1.0481
  417MOL0     H56293   6.392   1.020   9.614 -0.6823  0.5634  0.7801
  417MOL0     H56294   6.556   0.989   9.568 -1.3353  2.4660  3.0443
  417MOL0     H56295   6.435   0.923   9.463  2.0651  0.7235 -0.4499
  418MOL0     O56296   1.634   0.755   8.142  0.2805 -0.1239 -0.6100
  418MOL0     C56297   1.621   0.877   8.148  0.4446  0.5127 -1.2132
  418MOL0     O56298   1.670   0.950   8.251 -0.8100 -0.2603  0.8115
  418MOL0     C56299   1.725   0.879   8.362 -0.7960 -0.6791  0.6028
  418MOL0     C56300   1.656   0.864   8.484 -0.6785 -0.1857  0.2984
  418MOL0     C56301   1.713   0.783   8.582 -0.0688  0.5454  0.1415
  418MOL0     C56302   1.841   0.718   8.568  0.0498  1.7879  0.2511
  418MOL0     O56303   1.899   0.624   8.659 -0.6576 -0.6395  0.0935
  418MOL0     C56304   1.860   0.643   8.796  0.7933  0.6294  0.0571
  418MOL0     C56305   1.950   0.585   8.901 -0.4194 -0.5130 -0.3317
  418MOL0     C56306   1.947   0.437   8.901 -0.4218  0.0369  0.2016
  418MOL0     C56307   2.033   0.391   9.019 -0.1337  0.1116  0.6823
  418MOL0     C56308   2.021   0.239   9.048  0.1787 -0.4736  0.7154
  418MOL0     C56309   2.115   0.201   9.162  0.0315 -0.8154  0.4322
  418MOL0     C56310   2.054   0.089   9.242  1.0360 -0.5356 -0.1054
  418MOL0     C56311   2.153   0.051   9.354 -0.6670 -0.6324 -0.8193
  418MOL0     N56312   2.094   0.015   9.476 -0.2942 -0.0295 -0.8195
  418MOL0     C56313   1.979  -0.063   9.482  0.0567  0.2370 -0.2229
  418MOL0     C56314   1.973  -0.093   9.609  0.3604  0.1744  0.0130
  418MOL0     C56315   1.877  -0.198   9.666  0.3201 -0.4507  0.4477
  418MOL0     C56316   1.741  -0.148   9.720  0.1205  0.3840 -0.9612
  418MOL0     C56317   1.741  -0.045   9.828  0.5324 -0.5788 -0.4773
  418MOL0     C56318   1.599  -0.023   9.870  1.0261  0.6600  1.4769
  418MOL0     O56319   1.567  -0.119   9.972  0.8696  0.1532  0.6625
  418MOL0     C56320   1.433  -0.124   9.986  0.4978  0.3208 -0.6066
  418MOL0     C56321   1.342  -0.027   9.959 -0.9875  0.0142 -0.1530
  418MOL0     C56322   1.208  -0.036   9.993 -0.4823 -0.0216  0.1695
  418MOL0     C56323   1.167  -0.149  10.074 -0.0939  0.0383  0.4428
  418MOL0     C56324   1.028  -0.151  10.122 -0.0933 -0.3197  0.1104
  418MOL0     O56325   1.000  -0.258  10.198 -0.0631 -0.1283  0.3481
  418MOL0     C56326   0.888  -0.259  10.274  0.0423 -1.1069 -1.2302
  418MOL0     C56327   0.890  -0.198  10.393  0.1394  0.8318  0.2994
  418MOL0     C56328   0.781  -0.197  10.478 -1.2453  0.7062  0.1567
  418MOL0     C56329   0.663  -0.258  10.445  0.1177 -0.0043 -0.8842
  418MOL0     O56330   0.555  -0.248  10.531 -0.2731  0.3198 -0.0381
  418MOL0     C56331   0.416  -0.270  10.497 -1.2785  0.6217 -0.5824
  418MOL0     C56332   0.367  -0.156  10.407 -0.0503  0.2446  0.5783
  418MOL0     C56333   0.209  -0.151  10.406 -0.7732  0.0926 -0.1768
  418MOL0     C56334   0.129  -0.277  10.349  0.2248 -0.4543  0.1201
  418MOL0     C56335  -0.018  -0.236  10.312  0.6706 -0.1134  0.2969
  418MOL0     C56336  -0.095  -0.351  10.249 -1.1998 -0.6896 -0.1351
  418MOL0     C56337  -0.220  -0.291  10.183  0.4267  0.5404  0.2003
  418MOL0     C56338  -0.292  -0.392  10.078 -0.1516 -0.8151 -0.4495
  418MOL0    Cl56339  -0.186  -0.405   9.930  0.5096 -0.0890  0.2208
  418MOL0     C56340   0.657  -0.324  10.317 -0.2312 -0.1179 -0.0891
  418MOL0     C56341   0.771  -0.332  10.237 -0.3286  0.0093  0.0176
  418MOL0     O56342   0.950  -0.063  10.093 -0.1213  0.0334 -0.3328
  418MOL0     C56343   1.262  -0.245  10.116  0.2916  0.3190 -0.3976
  418MOL0     C56344   1.391  -0.233  10.067 -1.2422 -0.3434 -0.5416
  418MOL0     N56345   2.077  -0.033   9.682 -0.7367 -0.6052  0.3754
  418MOL0     N56346   2.145   0.036   9.598 -0.4206 -0.2553 -0.0414
  418MOL0     C56347   1.905   0.741   8.448 -0.2346  0.0009  0.1949
  418MOL0     C56348   1.855   0.829   8.346 -0.3507 -0.0798 -0.5241
  418MOL0     C56349   1.545   0.936   8.033  0.3256 -0.4769 -0.4580
  418MOL0     C56350   1.528   0.858   7.913 -0.0355  0.9229  0.0340
  418MOL0     C56351   1.445   0.900   7.801 -1.2846  0.0290 -0.5518
  418MOL0     C56352   1.380   1.024   7.801 -0.1839  0.0726 -0.2951
  418MOL0     O56353   1.295   1.073   7.708  0.4191  0.2596  0.6081
  418MOL0     C56354   1.158   1.016   7.699 -0.1637  0.6347  0.5592
  418MOL0     C56355   1.075   1.013   7.826 -0.5160 -1.0254 -0.5353
  418MOL0     C56356   1.008   1.156   7.862  0.1917 -0.2503 -0.4603
  418MOL0     C56357   0.900   1.134   7.971 -0.0598  0.2725 -0.1486
  418MOL0     C56358   0.779   1.219   7.950 -0.1437  0.4371  0.2842
  418MOL0     C56359   0.679   1.278   7.921 -0.7830 -0.3967  1.1516
  418MOL0     C56360   1.411   1.106   7.909  0.3072  0.5550 -0.2625
  418MOL0     C56361   1.488   1.061   8.015  0.1834 -0.0043 -1.1805
  418MOL0     C56362   1.506   1.156   8.128  0.1189  0.3098 -0.3414
  418MOL0     H56363   1.568   0.926   8.501 -1.4265 -0.6779 -1.5718
  418MOL0     H56364   1.664   0.775   8.678  0.6505 -0.6877  0.4254
  418MOL0     H56365   1.856   0.749   8.822 -0.9434  1.2410 -2.3607
  418MOL0     H56366   1.754   0.616   8.806  0.9091  0.2074  0.1852
  418MOL0     H56367   1.907   0.623   8.994 -0.7961  0.7140 -0.9901
  418MOL0     H56368   2.049   0.630   8.893 -1.6149  2.3145 -0.4316
  418MOL0     H56369   1.982   0.402   8.803  0.6522  0.0407  0.5776
  418MOL0     H56370   1.843   0.409   8.923 -1.3442  1.7585 -1.6213
  418MOL0     H56371   2.141   0.400   9.006  0.1699 -1.0741  2.1721
  418MOL0     H56372   2.001   0.452   9.104  1.1432  1.8101  0.0105
  418MOL0     H56373   1.920   0.199   9.062 -1.5901  2.5696 -1.9670
  418MOL0     H56374   2.047   0.187   8.955 -3.9536 -0.3234 -0.7248
  418MOL0     H56375   2.210   0.187   9.111 -0.2764 -2.8902  0.3483
  418MOL0     H56376   2.135   0.280   9.236 -0.9677  2.4141 -2.4910
  418MOL0     H56377   2.038   0.005   9.174  1.3580  1.5669 -2.9552
  418MOL0     H56378   1.959   0.121   9.285  1.4197 -1.7473  1.7685
  418MOL0     H56379   2.209  -0.034   9.315  4.1735  2.6823 -1.9307
  418MOL0     H56380   2.222   0.133   9.376 -3.2549  1.6333 -0.6384
  418MOL0     H56381   1.914  -0.097   9.402  1.5440  1.3729 -1.9956
  418MOL0     H56382   1.845  -0.262   9.583  0.8592 -0.2673  0.0988
  418MOL0     H56383   1.921  -0.254   9.749  1.9904 -0.5434 -0.4692
  418MOL0     H56384   1.687  -0.101   9.637  0.1951 -0.6068 -1.5847
  418MOL0     H56385   1.696  -0.245   9.744 -0.0920  0.2750 -1.7500
  418MOL0     H56386   1.792   0.043   9.787  0.7258 -1.7698 -2.9503
  418MOL0     H56387   1.803  -0.076   9.913 -1.7955  0.1785  1.6051
  418MOL0     H56388   1.535  -0.053   9.787  0.9910  0.4296  1.5841
  418MOL0     H56389   1.582   0.080   9.901 -2.6667  0.6732 -0.1644
  418MOL0     H56390   1.365   0.067   9.908 -2.1552  0.1508 -0.4629
  418MOL0     H56391   1.146   0.050   9.971  3.3938  3.2004  0.6664
  418MOL0     H56392   0.979  -0.143  10.421 -0.0083  0.1625  2.2049
  418MOL0     H56393   0.794  -0.145  10.572 -0.2807 -0.1766  0.5194
  418MOL0     H56394   0.399  -0.367  10.449  1.7467 -2.4559  3.7807
  418MOL0     H56395   0.357  -0.276  10.589  0.3444  0.6454  0.4937
  418MOL0     H56396   0.423  -0.064  10.425  2.0570  0.0526 -3.7144
  418MOL0     H56397   0.393  -0.175  10.303 -0.9604  2.4416 -0.1288
  418MOL0     H56398   0.179  -0.139  10.510 -0.0976 -4.2946  0.7524
  418MOL0     H56399   0.183  -0.059  10.352  1.4022  1.8614  1.5876
  418MOL0     H56400   0.128  -0.360  10.420 -1.1728 -2.0317 -1.6350
  418MOL0     H56401   0.184  -0.312  10.261  1.7683  2.6713 -0.2962
  418MOL0     H56402  -0.014  -0.164  10.230  2.3717  2.6104  2.5764
  418MOL0     H56403  -0.066  -0.190  10.399  1.1209  1.8979 -0.4725
  418MOL0     H56404  -0.035  -0.402  10.173 -2.1611  0.1948 -1.5330
  418MOL0     H56405  -0.117  -0.430  10.321  1.2143 -1.3848 -0.0536
  418MOL0     H56406  -0.202  -0.198  10.128  0.9746  1.0319  1.1828
  418MOL0     H56407  -0.291  -0.264  10.262  0.0419 -4.2081  1.7558
  418MOL0     H56408  -0.301  -0.485  10.134 -0.8677  0.3502  1.4549
  418MOL0     H56409  -0.385  -0.347  10.044 -0.0432  0.7696  1.2353
  418MOL0     H56410   0.561  -0.369  10.292  0.3637 -1.0561 -0.7662
  418MOL0     H56411   0.777  -0.372  10.136  1.1895  2.3783 -0.9215
  418MOL0     H56412   1.234  -0.333  10.173  2.2547  2.2886  4.0842
  418MOL0     H56413   1.465  -0.309  10.092  0.1808  0.7961 -1.1582
  418MOL0     H56414   1.987   0.673   8.427 -0.9465 -0.4369 -1.2933
  418MOL0     H56415   1.903   0.835   8.249  1.2054 -1.6398  0.0917
  418MOL0     H56416   1.564   0.756   7.902 -2.7298 -0.0150 -1.0488
  418MOL0     H56417   1.440   0.850   7.705 -2.5089 -2.5707  0.7378
  418MOL0     H56418   1.172   0.918   7.653  2.1820  1.3858 -0.4698
  418MOL0     H56419   1.103   1.089   7.639 -0.7925  1.3953  1.9928
  418MOL0     H56420   1.135   0.971   7.908  1.0150  3.2298  0.7900
  418MOL0     H56421   1.001   0.941   7.790  0.8196 -0.1495 -5.7977
  418MOL0     H56422   0.953   1.197   7.777  1.2517  0.6578 -0.7392
  418MOL0     H56423   1.082   1.226   7.903  0.3263 -1.1091  0.8178
  418MOL0     H56424   0.888   1.025   7.979 -2.3247  0.4581 -0.3756
  418MOL0     H56425   0.944   1.159   8.068 -0.1202 -0.7756  0.1659
  418MOL0     H56426   0.590   1.330   7.892 -0.3251  0.6516  1.5544
  418MOL0     H56427   1.366   1.205   7.913  0.3544  0.5933 -0.6275
  418MOL0     H56428   1.608   1.193   8.142  0.4922 -0.6852 -0.3531
  418MOL0     H56429   1.439   1.239   8.104 -1.6663 -1.5908 -2.5310
  418MOL0     H56430   1.464   1.114   8.220  1.3445  2.3674  1.2558
  419MOL0     O56431   0.080   3.641   6.457  0.6843 -0.3660 -0.4864
  419MOL0     C56432   0.067   3.519   6.492  0.1740 -0.2458  0.4617
  419MOL0     O56433   0.163   3.422   6.502 -0.5632 -0.5411  0.2932
  419MOL0     C56434   0.292   3.441   6.462  0.2760 -0.7820 -0.0466
  419MOL0     C56435   0.314   3.492   6.332  0.7885 -0.3431  0.7591
  419MOL0     C56436   0.438   3.512   6.274 -0.6210 -0.4407 -0.1793
  419MOL0     C56437   0.551   3.475   6.336 -0.3406  0.3812  0.2366
  419MOL0     O56438   0.678   3.483   6.269 -0.2459 -0.1507  0.1200
  419MOL0     C56439   0.779   3.397   6.305  0.7843  0.8667  0.5644
  419MOL0     C56440   0.884   3.381   6.199  0.1848 -0.5051 -0.1528
  419MOL0     C56441   0.985   3.291   6.245 -1.1106  0.4110  0.4544
  419MOL0     C56442   1.079   3.248   6.130 -0.5460 -0.2990 -0.5221
  419MOL0     C56443   1.208   3.193   6.184  0.2427 -0.6447  0.8766
  419MOL0     C56444   1.222   3.036   6.146 -0.1896 -0.8532  0.2536
  419MOL0     C56445   1.326   2.970   6.226  0.6308 -0.8048 -0.4263
  419MOL0     C56446   1.479   2.995   6.184 -0.2147 -0.7178 -0.8281
  419MOL0     N56447   1.517   2.943   6.051 -0.2334 -0.0011  0.1037
  419MOL0     C56448   1.507   2.809   6.027  0.2997  0.1467  1.2098
  419MOL0     C56449   1.569   2.788   5.909 -0.1217  0.6367 -0.3425
  419MOL0     C56450   1.576   2.666   5.832 -0.5307 -1.1300 -0.0568
  419MOL0     C56451   1.487   2.663   5.711 -0.0412 -0.2702  0.7144
  419MOL0     C56452   1.336   2.663   5.743  0.0398 -0.3943 -0.0826
  419MOL0     C56453   1.295   2.550   5.842 -0.6567 -0.4660 -0.2909
  419MOL0     O56454   1.158   2.517   5.827 -0.5827  0.4279 -1.1509
  419MOL0     C56455   1.065   2.589   5.891  0.4623 -0.1907 -0.9895
  419MOL0     C56456   0.939   2.525   5.885 -0.3620  0.5211 -0.4637
  419MOL0     C56457   0.826   2.575   5.946  0.4332  0.2793  0.1565
  419MOL0     C56458   0.834   2.707   6.005 -1.3320 -0.5502  0.0100
  419MOL0     C56459   0.713   2.760   6.084  0.4852  0.1115 -0.6928
  419MOL0     O56460   0.721   2.891   6.140  0.9166 -0.1371 -0.2243
  419MOL0     C56461   0.637   2.917   6.251  0.2281  0.1016 -0.5687
  419MOL0     C56462   0.584   3.039   6.265  0.4068 -0.2456 -0.3160
  419MOL0     C56463   0.490   3.076   6.366 -0.5795 -0.4036 -0.4002
  419MOL0     C56464   0.459   2.980   6.470 -0.5454 -0.9564 -0.4205
  419MOL0     O56465   0.366   3.015   6.565  0.0531  0.7806 -0.8457
  419MOL0     C56466   0.408   2.989   6.697 -0.7118 -0.0058  0.2539
  419MOL0     C56467   0.297   3.015   6.801 -0.4299 -0.0142  0.3069
  419MOL0     C56468   0.225   3.144   6.788  0.4622 -0.1663 -0.0989
  419MOL0     C56469   0.104   3.158   6.885  0.3865 -0.1452 -0.2876
  419MOL0     C56470   0.022   3.289   6.874 -0.4896  0.2891 -0.5123
  419MOL0     C56471   0.113   3.418   6.869 -0.2706 -0.5102  0.7733
  419MOL0     C56472   0.226   3.429   6.985  0.5825 -0.0812 -0.4380
  419MOL0     C56473   0.169   3.438   7.125  0.1527 -0.3685 -0.2602
  419MOL0    Cl56474   0.078   3.587   7.145  0.2277 -0.1425 -0.1318
  419MOL0     C56475   0.537   2.856   6.469 -0.3488 -0.0349 -0.6134
  419MOL0     C56476   0.618   2.825   6.356  0.3429  0.3269  0.1489
  419MOL0     O56477   0.623   2.677   6.104  0.7166  0.0005 -0.6172
  419MOL0     C56478   0.956   2.772   6.012 -0.1248  0.9198 -0.1753
  419MOL0     C56479   1.077   2.722   5.953  0.0793 -0.4360  0.5714
  419MOL0     N56480   1.622   2.909   5.869  0.5337  0.3406  0.0493
  419MOL0     N56481   1.585   3.006   5.950 -1.2961  0.4331 -0.0746
  419MOL0     C56482   0.538   3.427   6.471 -0.7036 -0.8631 -0.4935
  419MOL0     C56483   0.411   3.397   6.537  0.4294  0.5784  0.4950
  419MOL0     C56484  -0.081   3.482   6.532 -0.2915  0.3367  0.9255
  419MOL0     C56485  -0.156   3.589   6.573  0.2863  0.7691 -0.0439
  419MOL0     C56486  -0.294   3.566   6.607  0.8991 -1.7238 -0.8230
  419MOL0     C56487  -0.358   3.450   6.595 -0.5638 -0.3489  0.0060
  419MOL0     O56488  -0.488   3.435   6.620 -1.0270 -0.3879 -0.7999
  419MOL0     C56489  -0.534   3.319   6.683 -1.0691  0.1030  1.1947
  419MOL0     C56490  -0.485   3.325   6.828  0.4043  1.1994 -0.6382
  419MOL0     C56491  -0.579   3.248   6.921 -0.6530 -0.1721  0.1680
  419MOL0     C56492  -0.550   3.266   7.076  0.0814  0.1080 -0.9067
  419MOL0     C56493  -0.625   3.182   7.179 -0.3404  0.2383  0.3889
  419MOL0     C56494  -0.686   3.119   7.265  0.3479 -0.0778 -0.7955
  419MOL0     C56495  -0.272   3.335   6.563 -0.7298 -1.4471 -0.2636
  419MOL0     C56496  -0.138   3.358   6.524  0.7055  0.3347 -0.2477
  419MOL0     C56497  -0.061   3.241   6.460  0.0028  0.6268 -1.0384
  419MOL0     H56498   0.227   3.506   6.268  0.0717 -2.1009  1.2612
  419MOL0     H56499   0.443   3.542   6.170  2.4616 -0.2718 -0.0876
  419MOL0     H56500   0.833   3.424   6.396  0.8830 -0.5711  0.9535
  419MOL0     H56501   0.731   3.299   6.316  2.0612  0.1112 -0.3385
  419MOL0     H56502   0.920   3.484   6.184 -0.8254  0.2150  2.0040
  419MOL0     H56503   0.845   3.361   6.098  1.0325  1.4625 -0.9405
  419MOL0     H56504   0.938   3.211   6.303 -1.1138 -0.0625 -0.1942
  419MOL0     H56505   1.048   3.336   6.323 -1.9849 -2.4741  3.0485
  419MOL0     H56506   1.035   3.187   6.050 -1.1332 -1.1644  0.4392
  419MOL0     H56507   1.103   3.345   6.085  1.5001 -0.0762  0.9149
  419MOL0     H56508   1.295   3.240   6.138  1.2659 -1.0785  2.3299
  419MOL0     H56509   1.205   3.224   6.289 -1.8356 -0.0955  0.7020
  419MOL0     H56510   1.124   2.997   6.173 -0.3219  0.9069  2.6596
  419MOL0     H56511   1.248   3.039   6.040 -0.5810  5.5768 -0.0565
  419MOL0     H56512   1.301   2.863   6.222 -1.3686 -0.3346 -1.7466
  419MOL0     H56513   1.312   3.007   6.328  0.1886  1.9520 -1.4194
  419MOL0     H56514   1.494   3.102   6.201 -0.3630 -0.7138 -0.7243
  419MOL0     H56515   1.545   2.940   6.253  1.3534 -1.0179 -2.4850
  419MOL0     H56516   1.465   2.726   6.083 -1.1789 -1.9176 -2.6125
  419MOL0     H56517   1.678   2.658   5.792 -0.8387  1.1380 -1.5056
  419MOL0     H56518   1.569   2.576   5.895 -2.1514 -0.1924  1.1576
  419MOL0     H56519   1.521   2.750   5.654 -0.7762 -0.7175 -0.4430
  419MOL0     H56520   1.503   2.574   5.649 -1.1826 -0.9643  1.3822
  419MOL0     H56521   1.287   2.637   5.648 -0.7362 -1.7659  0.6680
  419MOL0     H56522   1.300   2.765   5.765  2.1425 -0.0197  1.9838
  419MOL0     H56523   1.319   2.593   5.940  2.0818  2.1852 -1.9520
  419MOL0     H56524   1.365   2.468   5.824  0.0115  0.7583 -4.5235
  419MOL0     H56525   0.925   2.428   5.839  0.9711 -0.8244  1.7318
  419MOL0     H56526   0.736   2.517   5.963  2.1277 -1.6610  3.4804
  419MOL0     H56527   0.609   3.099   6.178 -1.8699  0.3469 -0.6040
  419MOL0     H56528   0.439   3.172   6.372  1.2339  0.5348  0.6370
  419MOL0     H56529   0.450   2.889   6.706 -0.8372 -0.5475 -3.4724
  419MOL0     H56530   0.502   3.041   6.717  0.4303 -1.3140 -1.4593
  419MOL0     H56531   0.225   2.933   6.790 -2.2933  1.6163 -0.1046
  419MOL0     H56532   0.344   3.006   6.899  0.2958 -0.1006 -0.0430
  419MOL0     H56533   0.303   3.212   6.824  0.1179 -0.7782  1.9150
  419MOL0     H56534   0.191   3.174   6.689 -1.0440 -0.8486  0.1794
  419MOL0     H56535   0.137   3.151   6.989  0.1525  1.8787 -0.0256
  419MOL0     H56536   0.032   3.076   6.879 -2.2424  2.0936 -1.2245
  419MOL0     H56537  -0.032   3.321   6.964  1.4179  2.1880  0.0479
  419MOL0     H56538  -0.064   3.270   6.809 -1.4441 -0.8735  1.0143
  419MOL0     H56539   0.161   3.413   6.771 -1.1691 -0.0713  0.2965
  419MOL0     H56540   0.041   3.500   6.875 -0.8601 -0.9518 -0.0559
  419MOL0     H56541   0.262   3.531   6.968 -1.4504  0.3047 -3.2035
  419MOL0     H56542   0.302   3.351   6.976  1.2275  0.5183 -0.3281
  419MOL0     H56543   0.114   3.347   7.149  0.3168  0.5347  4.8208
  419MOL0     H56544   0.250   3.427   7.198 -0.5280 -0.9061  0.4253
  419MOL0     H56545   0.508   2.780   6.541 -3.1588 -0.5962 -2.1915
  419MOL0     H56546   0.664   2.727   6.360  0.1460  0.2616  1.9757
  419MOL0     H56547   0.950   2.869   6.060 -5.1903 -0.2160  2.0672
  419MOL0     H56548   1.165   2.784   5.964  0.3474 -0.7721  0.3699
  419MOL0     H56549   0.638   3.417   6.511  1.5658  6.0497 -2.9345
  419MOL0     H56550   0.401   3.369   6.642 -0.3511  0.8405  0.4955
  419MOL0     H56551  -0.118   3.691   6.576  2.4349  0.1014 -1.9683
  419MOL0     H56552  -0.345   3.657   6.636  0.0829 -2.7246  1.0106
  419MOL0     H56553  -0.500   3.230   6.629 -1.5045  0.5120  0.2114
  419MOL0     H56554  -0.642   3.329   6.672 -0.9402  1.7623  1.2170
  419MOL0     H56555  -0.483   3.431   6.856 -0.5776  1.6544 -2.0932
  419MOL0     H56556  -0.385   3.283   6.836 -1.4581 -3.8219 -0.1952
  419MOL0     H56557  -0.575   3.144   6.888 -0.0105  1.4495 -6.1504
  419MOL0     H56558  -0.679   3.285   6.896 -0.2818  1.4631  0.9582
  419MOL0     H56559  -0.448   3.234   7.098  0.3732  1.6324  0.1850
  419MOL0     H56560  -0.567   3.370   7.104  2.5413  0.1631  0.6732
  419MOL0     H56561  -0.758   3.065   7.323  3.2681 -2.8785  0.5828
  419MOL0     H56562  -0.313   3.237   6.543  0.8612 -1.9115 -1.4023
  419MOL0     H56563  -0.137   3.182   6.408 -0.2572  2.0851 -2.3738
  419MOL0     H56564  -0.001   3.292   6.385  0.4944  1.4353 -0.1186
  419MOL0     H56565  -0.005   3.169   6.522 -0.9558 -0.7309 -1.6971
  420MOL0     O56566   4.376  10.466   6.929  0.6455  0.0355  0.4169
  420MOL0     C56567   4.492  10.501   6.957 -0.0109  0.1802  0.5271
  420MOL0     O56568   4.589  10.422   7.016  0.2574  0.0992 -0.1524
  420MOL0     C56569   4.568  10.281   7.020 -0.9041 -0.4377  0.6734
  420MOL0     C56570   4.544  10.196   6.903 -0.3269 -0.2726 -0.6696
  420MOL0     C56571   4.537  10.056   6.919 -0.0666  0.2423 -0.2658
  420MOL0     C56572   4.529  10.004   7.050  0.3019  0.9069  0.6175
  420MOL0     O56573   4.509   9.865   7.074  0.5951  0.2346  0.1286
  420MOL0     C56574   4.420   9.795   6.997  0.2722  0.4939  0.5351
  420MOL0     C56575   4.353   9.693   7.084 -0.0703 -0.0162  0.5347
  420MOL0     C56576   4.285   9.751   7.209  0.5775 -0.4815  0.2153
  420MOL0     C56577   4.258   9.649   7.334 -0.1955  0.5390  0.0511
  420MOL0     C56578   4.198   9.515   7.282  0.1678  0.3913  0.1211
  420MOL0     C56579   4.110   9.450   7.392  0.7270 -0.8847 -0.2861
  420MOL0     C56580   4.035   9.323   7.352 -0.5055  0.7883  0.5127
  420MOL0     C56581   3.898   9.350   7.290  0.6497  0.3991  0.6182
  420MOL0     N56582   3.890   9.382   7.143 -1.4501  0.6327  0.0894
  420MOL0     C56583   3.795   9.471   7.096 -0.6755  0.2326 -0.0558
  420MOL0     C56584   3.807   9.458   6.966 -0.0091  0.5691  1.4286
  420MOL0     C56585   3.715   9.540   6.870 -0.6233 -0.3654  0.1295
  420MOL0     C56586   3.729   9.695   6.887  0.6922 -0.0266  0.2230
  420MOL0     C56587   3.590   9.746   6.875  0.1243 -0.4028  0.5024
  420MOL0     C56588   3.518   9.725   6.734 -0.6212  0.3198  0.1967
  420MOL0     O56589   3.607   9.769   6.630 -0.4374  0.6945 -0.7261
  420MOL0     C56590   3.604   9.898   6.589  0.2813 -0.9748 -0.4216
  420MOL0     C56591   3.700   9.936   6.501  0.7748  0.8500 -0.1946
  420MOL0     C56592   3.719  10.059   6.442 -0.4718  0.3143 -0.1240
  420MOL0     C56593   3.640  10.168   6.467  1.1715  0.4026 -0.6648
  420MOL0     C56594   3.647  10.298   6.400  0.1172  0.6843 -1.8756
  420MOL0     O56595   3.549  10.380   6.452 -0.2448 -0.7710 -0.0561
  420MOL0     C56596   3.553  10.520   6.436 -0.4256  0.4008  0.0441
  420MOL0     C56597   3.487  10.601   6.529  0.1994 -1.2618 -0.2505
  420MOL0     C56598   3.495  10.744   6.517  0.4284  0.4027  1.2706
  420MOL0     C56599   3.556  10.803   6.408  0.4606  0.0878  0.3472
  420MOL0     O56600   3.584  10.939   6.387 -0.4707  0.6811  0.4855
  420MOL0     C56601   3.470  11.020   6.403  0.2815  0.2392 -0.0682
  420MOL0     C56602   3.484  11.158   6.338  0.4506 -0.5467  0.5157
  420MOL0     C56603   3.422  11.280   6.415  0.0238  0.6863 -0.5168
  420MOL0     C56604   3.336  11.356   6.308  0.9570 -0.3828  0.6624
  420MOL0     C56605   3.275  11.477   6.375 -0.1149  0.6436 -0.2692
  420MOL0     C56606   3.241  11.574   6.258 -0.1342 -0.4713 -0.3387
  420MOL0     C56607   3.148  11.681   6.313  0.1453  0.1854 -0.3609
  420MOL0     C56608   3.172  11.822   6.251 -0.3252 -0.9208 -0.1814
  420MOL0    Cl56609   3.066  11.931   6.341 -0.2755 -0.4227  0.6432
  420MOL0     C56610   3.611  10.729   6.299  1.3112  0.1243 -0.2749
  420MOL0     C56611   3.604  10.588   6.320  0.8007  0.6832  0.4892
  420MOL0     O56612   3.743  10.329   6.329 -0.3647  0.5486  0.1477
  420MOL0     C56613   3.535  10.139   6.564 -0.1383  0.2121  0.8254
  420MOL0     C56614   3.518  10.007   6.621 -1.0148 -0.8519  0.4040
  420MOL0     N56615   3.870   9.342   6.928  0.0363 -0.0691  0.7505
  420MOL0     N56616   3.918   9.289   7.033  0.1715 -1.1016 -0.0524
  420MOL0     C56617   4.545  10.090   7.160 -0.0028  0.4141 -0.6822
  420MOL0     C56618   4.582  10.222   7.147 -0.7022  1.1948  0.5469
  420MOL0     C56619   4.526  10.640   6.937  0.5335 -0.7725  0.5062
  420MOL0     C56620   4.618  10.702   7.031  0.3733  0.9828  0.1983
  420MOL0     C56621   4.676  10.819   7.007 -1.4965 -0.0280  0.9767
  420MOL0     C56622   4.634  10.896   6.896  0.0444 -0.1511  0.9856
  420MOL0     O56623   4.688  11.025   6.894  0.2202 -0.1757  0.1117
  420MOL0     C56624   4.832  11.012   6.863  0.6226 -1.0847 -0.8447
  420MOL0     C56625   4.873  11.151   6.793 -0.1221  0.0297 -0.0833
  420MOL0     C56626   5.019  11.163   6.781 -1.5896  1.5998  1.4242
  420MOL0     C56627   5.076  11.302   6.759 -0.0421 -0.9970 -0.6349
  420MOL0     C56628   5.041  11.392   6.871 -0.7388 -0.9733  0.1102
  420MOL0     C56629   5.014  11.465   6.963  0.8123 -0.4410  0.2394
  420MOL0     C56630   4.534  10.848   6.806 -0.2179  0.3578 -0.0760
  420MOL0     C56631   4.472  10.723   6.832  0.0424  0.4725 -0.4687
  420MOL0     C56632   4.363  10.677   6.749 -0.4176 -0.3511 -1.0598
  420MOL0     H56633   4.539  10.228   6.800 -1.2638 -2.4326 -1.3600
  420MOL0     H56634   4.511   9.988   6.839  0.8980 -0.4099 -0.0460
  420MOL0     H56635   4.344   9.863   6.957 -0.4998  0.2624  1.5676
  420MOL0     H56636   4.480   9.744   6.921  0.9389 -0.7074  1.8241
  420MOL0     H56637   4.433   9.626   7.119  1.1343  1.8996  1.6136
  420MOL0     H56638   4.283   9.642   7.017  2.3461 -0.7777 -1.6039
  420MOL0     H56639   4.184   9.785   7.181  1.3930  0.7465 -1.4205
  420MOL0     H56640   4.336   9.838   7.250  0.9209  0.3549 -1.8503
  420MOL0     H56641   4.349   9.631   7.392  0.0402  2.7291  0.4315
  420MOL0     H56642   4.190   9.701   7.401 -0.1084  0.7786 -0.0479
  420MOL0     H56643   4.133   9.517   7.194  0.0500 -1.6587  0.1130
  420MOL0     H56644   4.279   9.442   7.278 -0.6890 -0.6035  0.3084
  420MOL0     H56645   4.162   9.422   7.484 -1.5235  0.2799  1.4267
  420MOL0     H56646   4.034   9.525   7.414  1.6337 -0.1878  0.5861
  420MOL0     H56647   4.032   9.272   7.448  2.6139  3.2627  2.1324
  420MOL0     H56648   4.098   9.263   7.286  1.4054  2.9627  0.2150
  420MOL0     H56649   3.836   9.265   7.322  1.2448  0.3949  1.8246
  420MOL0     H56650   3.860   9.437   7.346 -0.8901  0.8474 -1.0420
  420MOL0     H56651   3.737   9.539   7.159  0.5104  1.7096 -0.4920
  420MOL0     H56652   3.758   9.503   6.776 -4.1651 -0.4469 -1.6287
  420MOL0     H56653   3.617   9.493   6.862 -0.4584 -0.4088 -3.9957
  420MOL0     H56654   3.774   9.719   6.984  1.6757  1.1175 -0.4970
  420MOL0     H56655   3.783   9.744   6.806 -0.7953  1.4137  0.0510
  420MOL0     H56656   3.591   9.853   6.898 -2.3786 -0.2828  0.3591
  420MOL0     H56657   3.519   9.707   6.949 -1.2386  1.8554  0.4495
  420MOL0     H56658   3.416   9.763   6.745 -1.8580 -3.2979  3.4042
  420MOL0     H56659   3.511   9.617   6.715  3.8311  0.1745 -2.0372
  420MOL0     H56660   3.771   9.860   6.470 -0.2099  0.6052 -1.9930
  420MOL0     H56661   3.805  10.055   6.375  0.5365 -0.0567  1.1514
  420MOL0     H56662   3.437  10.547   6.609  1.1954  0.2662  1.4830
  420MOL0     H56663   3.461  10.808   6.598  0.6184  1.4457  0.5505
  420MOL0     H56664   3.379  10.971   6.367  1.5437 -1.5370 -1.0417
  420MOL0     H56665   3.467  11.030   6.511  3.1019 -0.2803  0.1472
  420MOL0     H56666   3.584  11.169   6.295 -0.5434  0.7505 -1.6870
  420MOL0     H56667   3.421  11.147   6.249 -0.9846  1.2764  1.2352
  420MOL0     H56668   3.364  11.232   6.495 -2.3614  1.0430 -1.9159
  420MOL0     H56669   3.492  11.349   6.462  0.7166 -1.0710  1.1846
  420MOL0     H56670   3.270  11.287   6.255  2.7347 -1.5750 -0.1032
  420MOL0     H56671   3.407  11.387   6.230 -1.1987  1.7237 -0.5940
  420MOL0     H56672   3.340  11.510   6.457 -1.6556  0.1756  1.2085
  420MOL0     H56673   3.190  11.439   6.433 -2.6166  3.8152 -1.5812
  420MOL0     H56674   3.334  11.622   6.228  0.3570  1.6809  3.9102
  420MOL0     H56675   3.192  11.524   6.174  1.6831  0.2299 -1.8785
  420MOL0     H56676   3.154  11.691   6.422 -0.5902  3.3356 -0.5097
  420MOL0     H56677   3.045  11.647   6.303  0.4965 -0.8056 -0.6951
  420MOL0     H56678   3.276  11.849   6.271 -0.5587  0.7524 -1.0760
  420MOL0     H56679   3.139  11.828   6.147  0.1263  2.4686 -0.2280
  420MOL0     H56680   3.664  10.753   6.208  1.2146 -0.4394 -0.4878
  420MOL0     H56681   3.643  10.524   6.242  2.6578  2.0854  0.2165
  420MOL0     H56682   3.471  10.224   6.583 -2.3329 -0.6000 -2.2538
  420MOL0     H56683   3.444   9.986   6.697  0.3883 -1.2883  1.6896
  420MOL0     H56684   4.536  10.043   7.257 -2.4734  2.4797  0.1936
  420MOL0     H56685   4.589  10.273   7.242  0.7902  0.1004  1.0741
  420MOL0     H56686   4.654  10.648   7.118 -2.0174  1.9472  1.8967
  420MOL0     H56687   4.737  10.870   7.081  1.4463 -0.6908 -0.8445
  420MOL0     H56688   4.847  10.938   6.784  2.9511  0.0635 -1.5863
  420MOL0     H56689   4.894  10.988   6.950  0.3682 -0.8863 -0.6055
  420MOL0     H56690   4.835  11.223   6.865 -2.6570 -3.1817  2.1034
  420MOL0     H56691   4.823  11.163   6.696  1.9475 -0.4184 -1.2550
  420MOL0     H56692   5.066  11.101   6.704 -0.2791  0.2658  3.2298
  420MOL0     H56693   5.066  11.114   6.867  0.7416 -1.5691 -1.3772
  420MOL0     H56694   5.183  11.291   6.745  0.1195  0.0281 -0.2951
  420MOL0     H56695   5.029  11.342   6.668  2.1208 -0.0502 -1.3952
  420MOL0     H56696   4.972  11.518   7.046 -1.0912 -0.6984 -0.4884
  420MOL0     H56697   4.503  10.911   6.724 -1.0650  0.4412  0.3060
  420MOL0     H56698   4.410  10.609   6.676  3.0946  0.7903 -0.0644
  420MOL0     H56699   4.275  10.633   6.797 -0.1794  1.7971  1.5486
  420MOL0     H56700   4.336  10.759   6.682  1.4363  3.5863  2.5617
  421MOL0     O56701   9.062   9.149   2.459 -0.4503  0.4619 -0.5712
  421MOL0     C56702   9.044   9.095   2.575  0.5628  0.6518 -0.7398
  421MOL0     O56703   9.059   9.157   2.695 -0.1931  0.1541 -0.0802
  421MOL0     C56704   9.133   9.274   2.696  0.1821 -0.3545 -0.5809
  421MOL0     C56705   9.267   9.259   2.729 -0.2735  0.0866 -0.4091
  421MOL0     C56706   9.339   9.378   2.758 -0.3358 -0.8968  0.2519
  421MOL0     C56707   9.287   9.505   2.749 -0.5184  0.1540 -0.0323
  421MOL0     O56708   9.357   9.615   2.795 -0.0236 -0.4966 -0.0228
  421MOL0     C56709   9.323   9.746   2.736 -0.9890  0.4407  0.0752
  421MOL0     C56710   9.438   9.840   2.775 -0.5171  0.1558 -0.7648
  421MOL0     C56711   9.557   9.826   2.694  0.1832  0.8705  0.1248
  421MOL0     C56712   9.674   9.899   2.767 -0.4169  0.2325 -0.3983
  421MOL0     C56713   9.661  10.046   2.746  0.5835 -0.1001 -1.2720
  421MOL0     C56714   9.780  10.098   2.663  1.0010  0.0731 -0.5867
  421MOL0     C56715   9.795  10.245   2.650 -0.3203  0.2720 -1.1495
  421MOL0     C56716   9.807  10.326   2.782  0.5754 -0.3171  0.0068
  421MOL0     N56717   9.912  10.277   2.870 -0.4681 -1.1662  2.0051
  421MOL0     C56718   9.910  10.300   3.008 -0.5342 -0.3722 -0.0730
  421MOL0     C56719  10.034  10.306   3.053  0.2688  0.3746 -0.0919
  421MOL0     C56720  10.087  10.318   3.196  0.2014  0.4642 -0.4168
  421MOL0     C56721  10.137  10.458   3.245  0.4240 -0.6577  0.3064
  421MOL0     C56722  10.031  10.571   3.252  0.7399 -0.6676  0.2220
  421MOL0     C56723   9.904  10.517   3.337  0.2167  0.0463  0.1191
  421MOL0     O56724   9.790  10.614   3.333 -0.7389  0.1667  0.2107
  421MOL0     C56725   9.753  10.667   3.212 -0.2262  0.4097 -0.5915
  421MOL0     C56726   9.743  10.807   3.192 -0.9855  0.2375 -0.1230
  421MOL0     C56727   9.696  10.858   3.071  0.1074  0.2533 -0.2011
  421MOL0     C56728   9.650  10.775   2.965 -0.5064  0.7811  0.5505
  421MOL0     C56729   9.610  10.837   2.838 -0.2782  0.7970  0.4327
  421MOL0     O56730   9.562  10.964   2.839  0.1287 -0.9323 -1.2371
  421MOL0     C56731   9.563  11.018   2.714 -0.2985 -0.0785  0.4772
  421MOL0     C56732   9.448  11.005   2.632 -0.3126  0.7484 -0.3720
  421MOL0     C56733   9.434  11.065   2.507 -0.7163  0.8339 -0.1128
  421MOL0     C56734   9.548  11.141   2.465 -0.9003 -0.3941  0.2096
  421MOL0     O56735   9.549  11.217   2.350 -0.4860 -0.3440  0.2890
  421MOL0     C56736   9.482  11.179   2.229 -0.0197 -0.7897 -0.7999
  421MOL0     C56737   9.577  11.093   2.158 -0.3700  0.1359  0.0630
  421MOL0     C56738   9.521  11.090   2.014  0.7852  0.9769  1.4289
  421MOL0     C56739   9.596  10.988   1.938 -0.2890  0.3818  0.3232
  421MOL0     C56740   9.556  10.993   1.798  0.5320 -0.7039  0.0494
  421MOL0     C56741   9.410  10.932   1.765 -0.4600 -0.6602  0.2444
  421MOL0     C56742   9.404  10.919   1.617 -0.1791  1.0954 -0.1513
  421MOL0     C56743   9.262  10.888   1.569  0.1266  0.1376 -0.8060
  421MOL0    Cl56744   9.196  10.748   1.656 -0.0862 -0.1635 -0.2047
  421MOL0     C56745   9.652  11.172   2.546 -1.0030 -0.1232 -0.6897
  421MOL0     C56746   9.665  11.103   2.670  0.5362  0.4561  1.0493
  421MOL0     O56747   9.624  10.761   2.736  0.5073 -0.4738  0.2180
  421MOL0     C56748   9.669  10.638   2.985  0.3540 -1.1309  0.3410
  421MOL0     C56749   9.715  10.580   3.106  0.3979 -0.0087 -0.7941
  421MOL0     N56750  10.120  10.292   2.942 -0.2948  0.3023  0.5438
  421MOL0     N56751  10.045  10.283   2.832  0.2618 -0.7056 -0.3307
  421MOL0     C56752   9.157   9.515   2.697  0.0191  0.1429  0.1529
  421MOL0     C56753   9.077   9.403   2.674 -0.4380 -0.2197 -0.1873
  421MOL0     C56754   8.985   8.955   2.567  0.4182 -0.1563 -0.4714
  421MOL0     C56755   8.924   8.908   2.446  0.4258 -0.4493  0.0726
  421MOL0     C56756   8.876   8.782   2.429 -0.2407  0.7983  0.3331
  421MOL0     C56757   8.883   8.699   2.542 -0.6822  0.9473  0.2235
  421MOL0     O56758   8.846   8.563   2.536 -0.6954  0.2786  0.4072
  421MOL0     C56759   8.778   8.507   2.424  0.4964  0.7580 -0.0560
  421MOL0     C56760   8.750   8.361   2.449  0.5971  0.5152  0.5321
  421MOL0     C56761   8.701   8.279   2.327 -0.4601  0.0948 -0.5279
  421MOL0     C56762   8.568   8.341   2.268 -0.8099 -0.8158  0.4026
  421MOL0     C56763   8.467   8.332   2.378  0.1986 -0.4284 -0.3777
  421MOL0     C56764   8.375   8.323   2.460 -0.6442  1.0389  0.0798
  421MOL0     C56765   8.938   8.743   2.663 -0.0751 -0.1012  0.1102
  421MOL0     C56766   8.990   8.870   2.678 -1.1605 -0.1367 -1.0227
  421MOL0     C56767   9.043   8.901   2.824  0.3790  0.2748 -0.1022
  421MOL0     H56768   9.321   9.167   2.748  1.8571  0.8528 -2.2883
  421MOL0     H56769   9.437   9.368   2.804  0.1192  0.5556 -0.3565
  421MOL0     H56770   9.303   9.747   2.628  0.5422  0.1380 -0.2387
  421MOL0     H56771   9.234   9.781   2.789 -1.4051 -1.6188  0.8303
  421MOL0     H56772   9.456   9.815   2.880 -1.1764  1.3120 -0.3480
  421MOL0     H56773   9.408   9.945   2.762  1.8917  1.9511  4.9814
  421MOL0     H56774   9.535   9.869   2.596 -0.6161  0.1816 -0.0066
  421MOL0     H56775   9.579   9.720   2.682  3.3161  1.0163  2.9393
  421MOL0     H56776   9.661   9.900   2.876  1.5560  2.9479 -0.0773
  421MOL0     H56777   9.771   9.859   2.734  1.1850  2.1564  1.6089
  421MOL0     H56778   9.567  10.079   2.703  2.1138  3.9929 -1.8766
  421MOL0     H56779   9.678  10.100   2.839  4.3684 -2.1993 -0.5041
  421MOL0     H56780   9.864  10.059   2.721 -0.8537  1.1220  3.0864
  421MOL0     H56781   9.779  10.051   2.563  0.2186 -1.2931  0.0295
  421MOL0     H56782   9.704  10.287   2.605  0.2107  3.1479  0.2222
  421MOL0     H56783   9.886  10.276   2.598 -0.0506  2.3589  0.4444
  421MOL0     H56784   9.832  10.432   2.772 -0.9357  0.5800  3.8385
  421MOL0     H56785   9.717  10.326   2.843 -0.4147 -1.2288 -1.3918
  421MOL0     H56786   9.823  10.308   3.072  0.4798  4.2009  1.1065
  421MOL0     H56787  10.010  10.271   3.257  0.9943 -3.5972 -2.2109
  421MOL0     H56788  10.169  10.247   3.211  1.8363  2.5120  1.0013
  421MOL0     H56789  10.190  10.455   3.340 -0.7263  1.0314  1.0416
  421MOL0     H56790  10.215  10.482   3.172  0.8388 -3.1529 -0.1437
  421MOL0     H56791   9.985  10.608   3.160 -0.9922  0.0327  1.3294
  421MOL0     H56792  10.078  10.654   3.305  0.7418 -0.8622  0.5293
  421MOL0     H56793   9.938  10.520   3.441 -0.2057  2.1259  0.2528
  421MOL0     H56794   9.879  10.413   3.317 -1.2308 -0.3377  3.2550
  421MOL0     H56795   9.776  10.867   3.277  4.1008 -1.3396 -0.7041
  421MOL0     H56796   9.697  10.966   3.059  3.1585  0.7649  3.0929
  421MOL0     H56797   9.354  10.958   2.659  0.1708 -2.6516 -3.8643
  421MOL0     H56798   9.350  11.068   2.438 -2.1084  1.3660  1.5569
  421MOL0     H56799   9.379  11.144   2.241  0.4572 -1.2100  3.1355
  421MOL0     H56800   9.482  11.271   2.169 -2.1673 -0.9605 -1.1634
  421MOL0     H56801   9.673  11.145   2.167 -0.3328 -0.3524  4.6105
  421MOL0     H56802   9.582  10.993   2.203 -1.6388 -1.3151 -2.7586
  421MOL0     H56803   9.413  11.074   2.014  1.2294 -3.0038  1.6028
  421MOL0     H56804   9.548  11.190   1.979  2.0182  0.3648  0.5623
  421MOL0     H56805   9.582  10.887   1.978 -2.9880  0.6875  0.3425
  421MOL0     H56806   9.703  11.009   1.947 -0.3685  1.0906 -0.2532
  421MOL0     H56807   9.635  10.943   1.741  0.6519 -2.7730  1.9097
  421MOL0     H56808   9.561  11.096   1.761 -0.7452 -0.1108  1.4259
  421MOL0     H56809   9.394  10.839   1.820  0.9108 -2.5570 -2.3368
  421MOL0     H56810   9.339  11.006   1.805  2.7360  2.4713  0.5858
  421MOL0     H56811   9.476  10.847   1.580 -1.3999  0.5739 -1.5984
  421MOL0     H56812   9.426  11.017   1.574  4.1474  0.8995  1.1604
  421MOL0     H56813   9.187  10.966   1.585 -1.0224 -1.0558 -0.0656
  421MOL0     H56814   9.270  10.875   1.461 -3.7208 -1.7794 -1.0366
  421MOL0     H56815   9.711  11.257   2.515 -2.5929  1.2728 -0.0769
  421MOL0     H56816   9.759  11.115   2.723  2.7104 -2.9294 -1.6258
  421MOL0     H56817   9.649  10.572   2.902  2.6648 -1.7974  0.2491
  421MOL0     H56818   9.736  10.478   3.134 -0.0249  1.0709  4.4451
  421MOL0     H56819   9.108   9.612   2.694 -0.5195 -0.0324  2.0653
  421MOL0     H56820   8.971   9.408   2.653 -0.6360 -3.0177 -0.3421
  421MOL0     H56821   8.908   8.964   2.354  3.2001 -1.8614 -1.4007
  421MOL0     H56822   8.842   8.752   2.330  0.3346  2.1562 -0.3091
  421MOL0     H56823   8.840   8.500   2.334 -0.6844  2.2404 -1.0330
  421MOL0     H56824   8.680   8.556   2.416  0.3648  0.8901  1.9037
  421MOL0     H56825   8.676   8.357   2.530  0.2039  2.1356  0.2823
  421MOL0     H56826   8.846   8.322   2.485  2.4275  3.6982 -0.5545
  421MOL0     H56827   8.698   8.174   2.359  2.6516 -0.0410 -0.3225
  421MOL0     H56828   8.780   8.266   2.252 -2.0920  2.3330 -2.7837
  421MOL0     H56829   8.579   8.448   2.246  2.3422 -0.8457  1.2075
  421MOL0     H56830   8.543   8.286   2.177  0.9699 -0.6934 -0.2001
  421MOL0     H56831   8.294   8.306   2.528 -1.0109 -1.0700 -0.7930
  421MOL0     H56832   8.944   8.691   2.758 -0.8514 -0.1663  0.1231
  421MOL0     H56833   9.055   8.806   2.877 -3.2389  0.5054  1.4021
  421MOL0     H56834   9.144   8.942   2.819 -0.0647  1.7001  1.7946
  421MOL0     H56835   8.969   8.962   2.876 -2.9062 -0.0020 -3.9486
  422MOL0     O56836   0.116   9.049   4.616 -0.6276 -0.3490  0.5008
  422MOL0     C56837   0.077   8.971   4.525  0.3240 -0.2201  0.7380
  422MOL0     O56838   0.028   9.006   4.406  0.7705  0.1506  0.3089
  422MOL0     C56839   0.013   9.135   4.360 -0.5012  0.5689  0.0661
  422MOL0     C56840   0.090   9.249   4.395  0.1100 -0.8819  0.6096
  422MOL0     C56841   0.062   9.363   4.320  0.2381  0.0115  0.6408
  422MOL0     C56842  -0.039   9.368   4.224  0.1421  0.1289 -1.2767
  422MOL0     O56843  -0.068   9.488   4.171  0.1745 -0.4070  0.2752
  422MOL0     C56844  -0.114   9.499   4.040  0.2981  0.2345  0.2150
  422MOL0     C56845  -0.116   9.641   3.997 -0.4954  0.6455 -0.6080
  422MOL0     C56846   0.025   9.702   3.963 -0.3654  0.1787  0.7523
  422MOL0     C56847   0.106   9.764   4.076  0.8120  0.0796  0.4264
  422MOL0     C56848   0.133   9.910   4.054 -0.8848 -0.6655 -0.4655
  422MOL0     C56849   0.230   9.958   4.166  0.5311  0.8421 -0.3032
  422MOL0     C56850   0.244  10.111   4.146 -0.5250  0.7318 -0.7277
  422MOL0     C56851   0.326  10.180   4.261  0.4898 -0.4190  0.2926
  422MOL0     N56852   0.311  10.135   4.393 -0.1646  0.3020  0.0622
  422MOL0     C56853   0.237  10.200   4.486  0.6833 -1.5597 -0.3539
  422MOL0     C56854   0.285  10.149   4.596 -0.2534 -0.6199  0.0942
  422MOL0     C56855   0.262  10.201   4.741  0.2269  0.1803  0.0425
  422MOL0     C56856   0.164  10.107   4.820 -0.8598  0.5167 -0.0491
  422MOL0     C56857   0.168  10.139   4.966  0.1327 -0.3620 -0.2718
  422MOL0     C56858   0.026  10.173   5.019  0.2711  0.5471  1.0569
  422MOL0     O56859   0.052  10.222   5.152  0.0468  0.2721 -0.6857
  422MOL0     C56860  -0.041  10.175   5.253 -0.4010 -0.2341 -0.4969
  422MOL0     C56861  -0.000  10.224   5.383 -1.1026  0.6233 -0.3482
  422MOL0     C56862  -0.084  10.213   5.489  0.1614  1.0645  0.0605
  422MOL0     C56863  -0.219  10.159   5.474 -1.7320  0.2171  0.6191
  422MOL0     C56864  -0.313  10.177   5.584  0.2705  0.0637  1.2850
  422MOL0     O56865  -0.454  10.156   5.563  0.3437 -0.3826 -0.6653
  422MOL0     C56866  -0.533  10.165   5.678  0.4810  0.4772  0.6518
  422MOL0     C56867  -0.625  10.267   5.697 -0.3309  0.1852  1.0220
  422MOL0     C56868  -0.697  10.275   5.815  0.3205 -0.4170  0.5257
  422MOL0     C56869  -0.682  10.181   5.921  0.3868 -0.3828 -0.0854
  422MOL0     O56870  -0.737  10.218   6.042 -0.2508  0.1364 -0.2158
  422MOL0     C56871  -0.780  10.108   6.130 -1.4629 -0.5395  1.0182
  422MOL0     C56872  -0.927  10.105   6.158  0.1912 -0.1847  0.1393
  422MOL0     C56873  -0.992   9.987   6.229  0.0494  0.3649  0.7916
  422MOL0     C56874  -1.145   9.994   6.242 -0.6305  0.0242 -0.5448
  422MOL0     C56875  -1.210   9.889   6.328 -0.5264 -0.5161 -0.1215
  422MOL0     C56876  -1.359   9.900   6.338  0.3566 -0.4876 -0.5281
  422MOL0     C56877  -1.422   9.773   6.388  0.0965 -0.0123 -0.7625
  422MOL0     C56878  -1.576   9.785   6.384  0.7092  0.2412  0.7130
  422MOL0    Cl56879  -1.653   9.623   6.405 -0.2407 -0.0517 -0.2784
  422MOL0     C56880  -0.596  10.072   5.886  0.1910  0.0865  0.7609
  422MOL0     C56881  -0.522  10.068   5.766 -0.1191  0.7692 -0.6588
  422MOL0     O56882  -0.268  10.221   5.687  0.1862 -0.3552  0.6976
  422MOL0     C56883  -0.267  10.110   5.347 -0.8720 -0.4793  1.3904
  422MOL0     C56884  -0.180  10.127   5.236  0.1100  0.1627 -0.7250
  422MOL0     N56885   0.375  10.051   4.570 -0.6137 -1.5086 -0.3578
  422MOL0     N56886   0.398  10.048   4.447  0.0652 -1.3835  0.1293
  422MOL0     C56887  -0.121   9.251   4.202  0.1297 -0.4033 -0.8920
  422MOL0     C56888  -0.096   9.141   4.280 -0.4873 -1.4587 -0.5150
  422MOL0     C56889   0.078   8.824   4.537  1.4009  1.3862 -0.3872
  422MOL0     C56890   0.026   8.758   4.421 -0.5312 -0.9797  0.4775
  422MOL0     C56891   0.001   8.618   4.433 -1.1171  0.5462  0.2473
  422MOL0     C56892   0.044   8.545   4.545  0.7427  0.0724 -1.2243
  422MOL0     O56893   0.025   8.410   4.566  0.1264  0.2020 -0.0988
  422MOL0     C56894  -0.010   8.323   4.447 -0.2082 -0.2831 -0.5915
  422MOL0     C56895   0.117   8.301   4.352  0.1045  0.5503 -0.1564
  422MOL0     C56896   0.249   8.251   4.420 -0.0682 -0.5282 -0.3574
  422MOL0     C56897   0.228   8.099   4.466 -0.9817 -0.4985  1.6142
  422MOL0     C56898   0.297   8.000   4.370  0.3664  0.1863  0.3629
  422MOL0     C56899   0.359   7.923   4.301 -0.1197 -0.6421  0.8656
  422MOL0     C56900   0.107   8.616   4.649  0.1992 -0.1605 -0.2137
  422MOL0     C56901   0.112   8.754   4.657 -0.6944  0.0642  0.2746
  422MOL0     C56902   0.170   8.826   4.786  0.1181  0.6319 -0.3058
  422MOL0     H56903   0.172   9.250   4.465 -1.1824  1.2848  2.2069
  422MOL0     H56904   0.115   9.457   4.326  0.0373  0.2227 -0.6129
  422MOL0     H56905  -0.060   9.426   3.978 -2.1348 -1.9852  0.5444
  422MOL0     H56906  -0.218   9.468   4.034 -0.2890  1.7922  1.6020
  422MOL0     H56907  -0.162   9.710   4.068  0.3999  0.7062 -0.0684
  422MOL0     H56908  -0.178   9.639   3.908 -0.9527 -3.4094 -0.3881
  422MOL0     H56909   0.013   9.788   3.897  3.6441 -0.7360 -1.5372
  422MOL0     H56910   0.090   9.630   3.911  0.6214 -0.2270  2.4645
  422MOL0     H56911   0.064   9.761   4.177  1.8499 -0.2076  0.8658
  422MOL0     H56912   0.201   9.711   4.092  1.2624  0.8834  0.4707
  422MOL0     H56913   0.175   9.935   3.956 -1.6021 -0.0714 -0.6307
  422MOL0     H56914   0.042   9.970   4.063  0.9712  2.0782  1.9513
  422MOL0     H56915   0.176   9.943   4.260 -3.6848 -0.0260 -2.6042
  422MOL0     H56916   0.329   9.911   4.167  0.8128  1.2721  2.6966
  422MOL0     H56917   0.145  10.157   4.140 -0.1874  1.4593 -0.7128
  422MOL0     H56918   0.297  10.117   4.051  1.4465 -4.9302 -0.3437
  422MOL0     H56919   0.430  10.160   4.234  1.4504  0.6636  2.8873
  422MOL0     H56920   0.310  10.287   4.274 -0.6372 -0.0571 -3.0114
  422MOL0     H56921   0.179  10.290   4.469  0.6084 -1.1456  1.7978
  422MOL0     H56922   0.354  10.189   4.798  2.0520 -1.3368 -2.9438
  422MOL0     H56923   0.227  10.304   4.749 -0.8204  0.0606 -2.0980
  422MOL0     H56924   0.065  10.117   4.774 -0.2348 -0.8500 -1.7999
  422MOL0     H56925   0.198  10.003   4.808 -1.0055  0.2972  1.3069
  422MOL0     H56926   0.222  10.231   4.990 -0.7585  0.3228 -0.8242
  422MOL0     H56927   0.202  10.056   5.028  4.3268 -0.0290 -1.7864
  422MOL0     H56928  -0.044  10.090   5.007  1.2600 -0.1721  0.0774
  422MOL0     H56929  -0.011  10.256   4.958 -2.3034 -0.1189  1.5952
  422MOL0     H56930   0.099  10.260   5.408 -1.0846  0.2240  0.1773
  422MOL0     H56931  -0.045  10.259   5.579  2.7096 -0.8578  0.0679
  422MOL0     H56932  -0.611  10.349   5.627 -1.9062  1.2323  1.8793
  422MOL0     H56933  -0.758  10.365   5.825 -1.3098 -1.4820  0.5165
  422MOL0     H56934  -0.756  10.005   6.101 -1.7085 -0.3047 -0.0887
  422MOL0     H56935  -0.722  10.131   6.219  0.6313  3.0532 -1.0296
  422MOL0     H56936  -0.958  10.196   6.209  0.0560  0.1750 -0.5742
  422MOL0     H56937  -0.977  10.110   6.061  0.9246  1.0892 -0.1795
  422MOL0     H56938  -0.988   9.900   6.164 -1.8831  2.5665 -2.5513
  422MOL0     H56939  -0.949   9.963   6.327 -2.5195  3.2170  2.8088
  422MOL0     H56940  -1.189   9.986   6.142  0.5576 -1.5104 -0.9743
  422MOL0     H56941  -1.168  10.093   6.283  2.0299 -0.5054  2.6006
  422MOL0     H56942  -1.176   9.894   6.432 -2.9294 -2.8299  0.8728
  422MOL0     H56943  -1.194   9.784   6.303 -1.2904 -1.3102  2.4187
  422MOL0     H56944  -1.387   9.982   6.405  3.8307  2.1498 -1.9856
  422MOL0     H56945  -1.388   9.921   6.235  3.0620  0.1984 -1.2278
  422MOL0     H56946  -1.393   9.747   6.490 -0.1951 -4.8950 -1.6751
  422MOL0     H56947  -1.396   9.694   6.316  2.3670  1.2907 -1.4789
  422MOL0     H56948  -1.603   9.848   6.469 -1.1377  1.6394 -0.8184
  422MOL0     H56949  -1.613   9.832   6.292  1.1274  1.0242  0.9294
  422MOL0     H56950  -0.592   9.995   5.963 -4.7708 -1.5572 -0.2145
  422MOL0     H56951  -0.458   9.981   5.761 -3.1152 -1.8908  2.1511
  422MOL0     H56952  -0.367  10.074   5.329 -2.7288  3.4452  2.8329
  422MOL0     H56953  -0.207  10.106   5.133 -1.5757 -1.6048  0.0060
  422MOL0     H56954  -0.216   9.243   4.148  0.3300 -2.3620 -1.0282
  422MOL0     H56955  -0.175   9.068   4.290 -0.6318 -1.2145  0.2107
  422MOL0     H56956  -0.000   8.800   4.324 -2.1970  0.4484  1.5014
  422MOL0     H56957  -0.039   8.567   4.345 -0.8430 -1.2225  1.0984
  422MOL0     H56958  -0.100   8.363   4.398 -0.3377  1.4225  0.9436
  422MOL0     H56959  -0.026   8.219   4.476 -0.6740 -0.5565 -1.7652
  422MOL0     H56960   0.134   8.404   4.317  2.3304  1.3218  2.7921
  422MOL0     H56961   0.089   8.232   4.272  2.1851  0.1934 -0.6494
  422MOL0     H56962   0.273   8.326   4.496 -0.5042  1.7446 -2.3524
  422MOL0     H56963   0.336   8.251   4.353  2.4053  0.2957  2.6198
  422MOL0     H56964   0.281   8.083   4.560  0.7865 -1.0826  0.5564
  422MOL0     H56965   0.123   8.070   4.473 -0.7550 -1.4430  1.1918
  422MOL0     H56966   0.432   7.873   4.240  2.4802  0.3147  2.9704
  422MOL0     H56967   0.153   8.562   4.731 -1.5946  0.4517  1.2891
  422MOL0     H56968   0.110   8.910   4.820 -0.3974  0.2129 -0.1653
  422MOL0     H56969   0.191   8.763   4.873  0.2554  1.1179  0.0170
  422MOL0     H56970   0.263   8.868   4.747  0.6112 -1.1158 -1.1251
  423MOL0     O56971   6.715   1.539   3.729 -0.2195  0.0970  0.1173
  423MOL0     C56972   6.629   1.523   3.643 -0.0410 -0.0091  0.0894
  423MOL0     O56973   6.654   1.518   3.501 -0.3000 -0.1754 -0.5019
  423MOL0     C56974   6.784   1.544   3.456 -0.2816  0.7197  0.2641
  423MOL0     C56975   6.894   1.465   3.487  0.1757  0.6912  0.4938
  423MOL0     C56976   7.023   1.504   3.449  0.0952  0.4207 -0.0521
  423MOL0     C56977   7.047   1.623   3.378  0.0684 -0.0798 -0.2832
  423MOL0     O56978   7.165   1.667   3.328  0.1321  1.0485 -0.1813
  423MOL0     C56979   7.294   1.590   3.329  0.7448 -0.2484 -0.2096
  423MOL0     C56980   7.316   1.523   3.204 -0.2265  0.6292  0.1035
  423MOL0     C56981   7.426   1.413   3.198 -0.7122 -0.5573 -1.1641
  423MOL0     C56982   7.565   1.469   3.257  0.9703  0.0737 -0.6183
  423MOL0     C56983   7.626   1.569   3.153  1.0959 -0.6930  0.9631
  423MOL0     C56984   7.751   1.631   3.229 -0.3298 -0.2636  0.4019
  423MOL0     C56985   7.765   1.776   3.192  0.1343 -0.9794 -0.7066
  423MOL0     C56986   7.821   1.771   3.044  0.6837  0.9389  0.8373
  423MOL0     N56987   7.761   1.889   2.987  0.0553  0.3447  0.8546
  423MOL0     C56988   7.648   1.889   2.911 -0.1814  0.0510  0.8719
  423MOL0     C56989   7.623   2.024   2.885  0.4776  0.6604 -0.1492
  423MOL0     C56990   7.517   2.098   2.809 -0.2189 -0.1979  0.2832
  423MOL0     C56991   7.378   2.050   2.853 -0.3893  0.6271  0.0397
  423MOL0     C56992   7.282   2.140   2.779  0.4528 -0.0799  0.5293
  423MOL0     C56993   7.135   2.124   2.812  0.6419  0.2959  0.5363
  423MOL0     O56994   7.114   2.172   2.947  0.1524  0.1403  1.3123
  423MOL0     C56995   6.999   2.135   3.009  0.0095 -0.9087 -0.3486
  423MOL0     C56996   6.865   2.125   2.959 -0.0259  1.1670 -0.0592
  423MOL0     C56997   6.762   2.071   3.033  0.0923 -0.6384  0.6979
  423MOL0     C56998   6.782   2.042   3.171  0.2795  0.0003  0.0379
  423MOL0     C56999   6.666   2.013   3.263 -0.4764  0.2197  0.1043
  423MOL0     O57000   6.687   1.976   3.397 -0.1668 -0.1494  0.0553
  423MOL0     C57001   6.579   1.982   3.494  0.2690  0.2928 -0.9444
  423MOL0     C57002   6.490   2.082   3.511 -1.0537 -0.2034  0.4518
  423MOL0     C57003   6.375   2.068   3.588  1.0393 -0.1732 -0.5432
  423MOL0     C57004   6.368   1.961   3.683  0.5188  0.7756 -0.1338
  423MOL0     O57005   6.258   1.967   3.769 -0.2172 -0.2919 -0.2352
  423MOL0     C57006   6.191   1.843   3.776 -0.0110  0.4721 -0.9683
  423MOL0     C57007   6.064   1.863   3.857  0.3076  0.5046  0.7450
  423MOL0     C57008   5.992   1.730   3.856 -0.4465 -0.2864 -0.3445
  423MOL0     C57009   5.865   1.749   3.945 -0.8799  0.2689 -0.1105
  423MOL0     C57010   5.777   1.625   3.947  0.0055 -0.6072 -0.4743
  423MOL0     C57011   5.721   1.579   3.802 -0.1955  0.6141 -0.3110
  423MOL0     C57012   5.604   1.480   3.808  0.1445  0.4311  0.9301
  423MOL0     C57013   5.604   1.410   3.662 -0.4824  0.3873 -0.6984
  423MOL0    Cl57014   5.545   1.252   3.691 -0.0313  0.3758  0.1543
  423MOL0     C57015   6.465   1.862   3.680 -1.0294 -0.9658 -0.6210
  423MOL0     C57016   6.572   1.874   3.598 -0.2496 -0.6975  0.9783
  423MOL0     O57017   6.556   2.033   3.208  0.3350 -0.0847 -1.3059
  423MOL0     C57018   6.916   2.045   3.220  0.3711  0.6045 -0.1192
  423MOL0     C57019   7.023   2.089   3.135  0.6716  0.5957  0.0052
  423MOL0     N57020   7.725   2.105   2.949  0.2262 -0.1102  0.1533
  423MOL0     N57021   7.802   2.015   3.012  0.3365  0.2226  0.0996
  423MOL0     C57022   6.938   1.691   3.336  0.2602 -0.4183 -0.0070
  423MOL0     C57023   6.808   1.658   3.381 -0.3073 -0.1951  0.4346
  423MOL0     C57024   6.490   1.503   3.688  0.3070  0.4573  0.2345
  423MOL0     C57025   6.395   1.463   3.591 -0.0013 -0.0215  0.6796
  423MOL0     C57026   6.260   1.433   3.619  0.7552 -0.0549 -0.1105
  423MOL0     C57027   6.215   1.447   3.744 -0.0220  0.8376 -0.3952
  423MOL0     O57028   6.081   1.423   3.774 -0.3916  0.0587 -0.3211
  423MOL0     C57029   6.045   1.282   3.791 -0.6840 -0.1657 -0.4731
  423MOL0     C57030   5.949   1.272   3.904  0.4074  0.0430  0.3138
  423MOL0     C57031   6.009   1.324   4.036  0.5526 -0.1820 -0.3337
  423MOL0     C57032   5.903   1.294   4.146 -0.1088  0.8156  0.0331
  423MOL0     C57033   5.907   1.160   4.216  0.5087  0.2437  0.2960
  423MOL0     C57034   5.924   1.053   4.268 -0.5441 -0.1732 -0.1068
  423MOL0     C57035   6.299   1.480   3.850 -0.7176 -0.0774  0.4936
  423MOL0     C57036   6.442   1.501   3.821  0.4134  0.2174  0.7963
  423MOL0     C57037   6.526   1.528   3.938 -0.3164 -0.3535  0.8758
  423MOL0     H57038   6.873   1.380   3.551 -1.5400  0.7648  0.0843
  423MOL0     H57039   7.103   1.432   3.461 -0.0936 -0.1704 -1.9942
  423MOL0     H57040   7.375   1.660   3.352  1.3041  0.6848 -4.1945
  423MOL0     H57041   7.297   1.512   3.405  0.0546 -1.1461 -1.0769
  423MOL0     H57042   7.325   1.593   3.120  1.6526 -0.1404 -0.3841
  423MOL0     H57043   7.233   1.460   3.170 -1.8464  2.0566  1.2840
  423MOL0     H57044   7.430   1.375   3.096 -3.1527  0.0379 -1.5536
  423MOL0     H57045   7.405   1.329   3.264  0.9626  0.5623  0.9578
  423MOL0     H57046   7.553   1.513   3.356 -0.7038  0.5755 -1.0036
  423MOL0     H57047   7.640   1.389   3.260  0.3764 -0.5591 -1.8061
  423MOL0     H57048   7.647   1.525   3.055 -1.5041 -1.2550  0.6012
  423MOL0     H57049   7.556   1.650   3.130  0.5157 -1.0904  1.3144
  423MOL0     H57050   7.744   1.628   3.338 -0.7720  1.6391  0.4466
  423MOL0     H57051   7.842   1.575   3.205 -0.1121 -0.1700  1.0043
  423MOL0     H57052   7.829   1.840   3.252 -0.5324 -1.5965  0.6988
  423MOL0     H57053   7.676   1.839   3.200  0.4185 -0.7438  1.0150
  423MOL0     H57054   7.930   1.785   3.040  0.8649 -0.2140  1.4492
  423MOL0     H57055   7.805   1.680   2.986 -1.1088  2.0663 -0.5359
  423MOL0     H57056   7.599   1.793   2.897 -2.2679  0.8743  2.0870
  423MOL0     H57057   7.527   2.206   2.822 -0.2961 -0.0328 -0.9189
  423MOL0     H57058   7.515   2.069   2.703  0.7487 -0.4397  0.3219
  423MOL0     H57059   7.375   1.940   2.857  0.0039  0.5795 -0.7751
  423MOL0     H57060   7.375   2.099   2.951  2.0308  1.8650 -0.4324
  423MOL0     H57061   7.290   2.126   2.671 -2.7422  0.4421  0.1260
  423MOL0     H57062   7.306   2.245   2.797 -0.7116  0.2230  0.4111
  423MOL0     H57063   7.107   2.019   2.806 -0.1712  0.5887 -3.2058
  423MOL0     H57064   7.064   2.172   2.745  0.5512  0.7494  0.9513
  423MOL0     H57065   6.856   2.155   2.855 -0.1122 -0.8364 -0.6680
  423MOL0     H57066   6.663   2.064   2.988  0.5625  1.2184 -0.7264
  423MOL0     H57067   6.512   2.170   3.451  0.6373 -1.2490 -0.5705
  423MOL0     H57068   6.300   2.145   3.602  3.0986  1.7029  0.8942
  423MOL0     H57069   6.176   1.821   3.670  1.9814 -0.2578 -1.1482
  423MOL0     H57070   6.263   1.767   3.809  4.4630  2.8131 -4.1844
  423MOL0     H57071   6.090   1.896   3.958 -1.1524  1.0321  0.9708
  423MOL0     H57072   6.001   1.939   3.811  1.0095 -0.1450 -1.3927
  423MOL0     H57073   5.963   1.713   3.752 -0.8697  0.7178 -0.4063
  423MOL0     H57074   6.060   1.648   3.881  0.5782  1.4761  3.2818
  423MOL0     H57075   5.820   1.845   3.918  0.4400  0.9753  0.0852
  423MOL0     H57076   5.905   1.763   4.046 -2.1415  1.4706  0.2485
  423MOL0     H57077   5.695   1.645   4.016  1.3708 -2.7939  2.0078
  423MOL0     H57078   5.826   1.548   4.008  0.1886  0.2371  0.4584
  423MOL0     H57079   5.680   1.665   3.748 -1.3938  0.5361  0.4514
  423MOL0     H57080   5.806   1.527   3.757 -0.0220  1.3115 -0.8002
  423MOL0     H57081   5.509   1.524   3.837 -0.3889 -0.2118  0.2037
  423MOL0     H57082   5.621   1.403   3.884 -0.5629  0.9747  1.6499
  423MOL0     H57083   5.529   1.454   3.596 -1.2811 -1.5441 -1.1538
  423MOL0     H57084   5.702   1.402   3.615 -0.3464  0.1777 -0.3843
  423MOL0     H57085   6.474   1.773   3.743 -1.5350 -2.8560 -3.0650
  423MOL0     H57086   6.653   1.803   3.614 -1.5127 -1.8887  2.4722
  423MOL0     H57087   6.946   2.012   3.319 -1.4639  0.4194  0.4083
  423MOL0     H57088   7.118   2.076   3.187 -1.0036 -0.3474  3.0969
  423MOL0     H57089   6.943   1.785   3.282 -1.2485 -1.8822 -2.9257
  423MOL0     H57090   6.725   1.725   3.360 -0.1784  0.9847  3.1625
  423MOL0     H57091   6.423   1.449   3.487 -4.4699 -4.3123 -0.3224
  423MOL0     H57092   6.196   1.415   3.534  1.0170  1.1699 -0.5901
  423MOL0     H57093   6.137   1.227   3.813  0.8073  2.3404 -0.0336
  423MOL0     H57094   5.990   1.256   3.700 -2.2828 -2.5696  1.0528
  423MOL0     H57095   5.924   1.166   3.914 -0.4121 -0.4029 -4.3946
  423MOL0     H57096   5.864   1.331   3.869  1.9095  0.4593 -3.0063
  423MOL0     H57097   6.037   1.429   4.030  0.2314 -0.1139 -0.6356
  423MOL0     H57098   6.096   1.267   4.072  0.6649  1.6386  2.6347
  423MOL0     H57099   5.908   1.368   4.227 -1.3902  2.2166 -1.1095
  423MOL0     H57100   5.807   1.309   4.095  0.2293  1.4492 -0.4228
  423MOL0     H57101   5.952   0.952   4.288  0.8492  0.9563  4.7889
  423MOL0     H57102   6.256   1.487   3.949 -1.4473 -2.2542  0.3722
  423MOL0     H57103   6.603   1.451   3.940  0.7413  0.6799  1.1223
  423MOL0     H57104   6.580   1.622   3.922  6.3538 -3.4357  1.7363
  423MOL0     H57105   6.469   1.514   4.030 -0.9374 -0.0787  0.5382
  424MOL0     O57106   5.362   1.133   1.221 -0.0624 -0.5159 -0.0954
  424MOL0     C57107   5.420   1.170   1.116 -0.1383  0.2944 -0.8742
  424MOL0     O57108   5.407   1.296   1.067 -0.3049  0.7804 -0.0579
  424MOL0     C57109   5.344   1.395   1.131  0.0699  0.1512  1.3104
  424MOL0     C57110   5.268   1.391   1.256  0.2966 -1.3263  0.4377
  424MOL0     C57111   5.195   1.508   1.294 -0.7104  0.2221 -0.4662
  424MOL0     C57112   5.216   1.630   1.230 -0.1741 -0.4832 -0.2863
  424MOL0     O57113   5.128   1.730   1.272  0.0220  0.3211 -0.5409
  424MOL0     C57114   5.090   1.828   1.176 -0.1136 -1.0127 -0.0813
  424MOL0     C57115   4.992   1.909   1.241  0.4365 -1.1890 -0.3724
  424MOL0     C57116   4.924   1.987   1.135 -0.1657 -0.4882  0.1248
  424MOL0     C57117   4.808   2.071   1.206  0.4054 -0.0898  0.3744
  424MOL0     C57118   4.731   2.145   1.093 -0.1544 -0.4184  0.0572
  424MOL0     C57119   4.595   2.204   1.132 -0.1763  0.3110 -0.1134
  424MOL0     C57120   4.617   2.306   1.251  0.6242  0.2356 -0.7670
  424MOL0     C57121   4.554   2.434   1.206 -0.2582 -0.2597 -0.8983
  424MOL0     N57122   4.406   2.433   1.206  0.5480 -0.1854 -0.5081
  424MOL0     C57123   4.327   2.393   1.102 -0.5288  0.1929 -0.9082
  424MOL0     C57124   4.201   2.396   1.154 -0.2105 -0.0677 -0.0715
  424MOL0     C57125   4.084   2.358   1.067 -0.7979 -0.3042  0.8410
  424MOL0     C57126   4.025   2.483   0.993  0.2010 -0.1636  0.3792
  424MOL0     C57127   3.914   2.557   1.078 -0.4718 -0.4088  0.0009
  424MOL0     C57128   3.868   2.689   1.023  1.2112  0.2830  0.3552
  424MOL0     O57129   3.984   2.770   0.981 -0.2120  0.2607 -0.0730
  424MOL0     C57130   3.978   2.879   0.912  0.4036  0.1534  0.6610
  424MOL0     C57131   4.101   2.952   0.892  0.9533 -0.2283  0.3890
  424MOL0     C57132   4.086   3.081   0.838  0.4499 -0.1064  0.1025
  424MOL0     C57133   3.963   3.134   0.792  0.3981 -0.3214 -0.0122
  424MOL0     C57134   3.970   3.273   0.725  0.0156 -0.7040  0.2615
  424MOL0     O57135   3.863   3.303   0.656  0.3121  0.0100 -0.0917
  424MOL0     C57136   3.862   3.411   0.565 -0.7800  0.2891 -0.3261
  424MOL0     C57137   3.870   3.390   0.429 -0.3306  0.3105  0.0238
  424MOL0     C57138   3.863   3.490   0.337  0.6571 -0.1775  0.4394
  424MOL0     C57139   3.841   3.622   0.374  0.6137 -0.3055 -0.2282
  424MOL0     O57140   3.821   3.716   0.278 -0.6640 -1.0482 -0.0157
  424MOL0     C57141   3.722   3.817   0.315 -0.1359 -0.5172  0.1720
  424MOL0     C57142   3.599   3.782   0.230 -0.5585 -0.3661  0.6230
  424MOL0     C57143   3.524   3.653   0.283 -0.7215  0.1246 -0.1928
  424MOL0     C57144   3.397   3.611   0.207 -0.5429 -0.9289 -0.1869
  424MOL0     C57145   3.282   3.681   0.268  0.2729 -0.4456  0.2737
  424MOL0     C57146   3.159   3.646   0.190 -0.2417 -0.1589  0.3950
  424MOL0     C57147   3.030   3.735   0.215 -0.1302  0.2191  0.1897
  424MOL0     C57148   2.949   3.763   0.092 -1.0681  0.6010  0.6619
  424MOL0    Cl57149   2.881   3.604   0.031 -0.0181  0.6550 -0.0865
  424MOL0     C57150   3.848   3.654   0.511 -0.0973 -0.1994  0.4107
  424MOL0     C57151   3.850   3.549   0.608  0.4524  0.4243  0.9984
  424MOL0     O57152   4.071   3.338   0.722 -0.2025  0.2979  0.3656
  424MOL0     C57153   3.840   3.064   0.814  0.1229  0.5780  0.6763
  424MOL0     C57154   3.850   2.939   0.872  0.1121  0.4192  0.0818
  424MOL0     N57155   4.208   2.441   1.282 -0.6066  0.0664  0.5131
  424MOL0     N57156   4.330   2.464   1.317  0.2446  0.0539 -0.4411
  424MOL0     C57157   5.287   1.630   1.116  0.1437  0.4198 -0.0889
  424MOL0     C57158   5.348   1.517   1.064 -0.4591 -0.0086 -0.4237
  424MOL0     C57159   5.487   1.066   1.041  0.1940  0.1873  0.9925
  424MOL0     C57160   5.457   0.930   1.086 -0.2910 -0.0673 -0.3464
  424MOL0     C57161   5.524   0.815   1.026  0.0033 -0.6198 -0.5981
  424MOL0     C57162   5.612   0.836   0.919  0.9392  0.7491  0.2093
  424MOL0     O57163   5.670   0.743   0.839  0.3656  0.3451 -0.3874
  424MOL0     C57164   5.663   0.605   0.880 -1.1823 -0.3522  0.5489
  424MOL0     C57165   5.749   0.526   0.780  0.6945 -0.5026 -0.2035
  424MOL0     C57166   5.757   0.372   0.830  0.6133  0.0709 -0.1792
  424MOL0     C57167   5.613   0.305   0.819  0.4266  0.1826 -1.5215
  424MOL0     C57168   5.645   0.160   0.835  0.2710  0.2189 -0.0655
  424MOL0     C57169   5.692   0.049   0.876  1.2608 -1.0670 -0.1611
  424MOL0     C57170   5.637   0.966   0.880  0.0108 -0.4494  0.5146
  424MOL0     C57171   5.581   1.084   0.933 -0.3093  0.5289  0.3736
  424MOL0     C57172   5.623   1.209   0.872 -0.7500  0.1315  0.5731
  424MOL0     H57173   5.249   1.301   1.314  1.2893 -2.0330 -0.2924
  424MOL0     H57174   5.128   1.494   1.379  3.7270 -1.3643  3.1737
  424MOL0     H57175   5.179   1.880   1.141 -0.5210  0.7178  1.2859
  424MOL0     H57176   5.037   1.787   1.089 -1.1772  0.3664 -0.1107
  424MOL0     H57177   5.030   1.978   1.316 -1.9248  3.5683 -3.0552
  424MOL0     H57178   4.924   1.836   1.285  0.1935  0.0952  1.4717
  424MOL0     H57179   4.883   1.916   1.062 -1.2038 -0.7000  0.8961
  424MOL0     H57180   4.994   2.054   1.084  1.8044 -0.8364  2.2058
  424MOL0     H57181   4.743   1.989   1.238 -0.0205 -1.1849 -2.9672
  424MOL0     H57182   4.838   2.126   1.296  0.4285 -2.2596  1.7596
  424MOL0     H57183   4.784   2.240   1.080 -1.1899  0.4545  1.8796
  424MOL0     H57184   4.720   2.085   1.002 -0.7138 -2.0330  1.1399
  424MOL0     H57185   4.575   2.263   1.042  0.6057  1.6054  0.5275
  424MOL0     H57186   4.516   2.130   1.148  0.2148 -0.1862 -0.4736
  424MOL0     H57187   4.724   2.326   1.265  0.9192 -0.2285 -2.2527
  424MOL0     H57188   4.579   2.280   1.350  0.2849  0.7090 -0.7677
  424MOL0     H57189   4.592   2.515   1.270 -0.9588 -0.6252  0.0120
  424MOL0     H57190   4.592   2.459   1.107 -0.3309 -1.1923 -1.1665
  424MOL0     H57191   4.344   2.358   1.000 -0.8967  0.6060 -1.1140
  424MOL0     H57192   4.115   2.284   0.993  0.7527 -0.2151  1.3706
  424MOL0     H57193   4.007   2.312   1.130  1.4292 -2.7234  1.9892
  424MOL0     H57194   4.109   2.546   0.962  0.9202 -0.9426  0.6980
  424MOL0     H57195   3.978   2.454   0.899 -2.9662 -0.4003  1.9302
  424MOL0     H57196   3.952   2.577   1.179 -0.5942  4.1255 -0.6549
  424MOL0     H57197   3.832   2.488   1.101 -0.3243 -0.1016  1.5478
  424MOL0     H57198   3.811   2.746   1.097  0.1197  0.3438 -0.5029
  424MOL0     H57199   3.810   2.672   0.932  1.4660 -0.5725  0.3361
  424MOL0     H57200   4.204   2.935   0.922  0.7517 -1.5991  0.4030
  424MOL0     H57201   4.181   3.130   0.818 -1.0721  3.1425  0.2514
  424MOL0     H57202   3.870   3.284   0.409 -1.3401  0.1204  0.9408
  424MOL0     H57203   3.868   3.470   0.230 -0.8155 -1.0250  0.5082
  424MOL0     H57204   3.696   3.817   0.421  3.3032  0.6377  1.1423
  424MOL0     H57205   3.748   3.921   0.296 -1.3801 -0.0598  0.8650
  424MOL0     H57206   3.526   3.864   0.236 -1.3519 -1.1300  2.0938
  424MOL0     H57207   3.630   3.770   0.126  0.5499  0.2624  0.8659
  424MOL0     H57208   3.600   3.574   0.279  2.3163  2.7103  1.8160
  424MOL0     H57209   3.503   3.675   0.388 -0.6449  0.0048 -0.1528
  424MOL0     H57210   3.378   3.504   0.205 -1.6537 -0.7356 -1.7749
  424MOL0     H57211   3.402   3.645   0.103  2.2065  0.2156  0.2543
  424MOL0     H57212   3.291   3.790   0.257  1.9669 -0.5279  0.5222
  424MOL0     H57213   3.262   3.651   0.371 -1.2056  0.6269  0.3383
  424MOL0     H57214   3.187   3.649   0.084 -0.1415 -0.8672  0.3951
  424MOL0     H57215   3.133   3.544   0.218 -0.0908 -0.8245 -1.7290
  424MOL0     H57216   3.055   3.827   0.269  0.0566 -0.8076  1.9488
  424MOL0     H57217   2.966   3.677   0.282 -0.4033  0.3079  0.0092
  424MOL0     H57218   2.869   3.836   0.110 -1.3963  0.4261 -0.0514
  424MOL0     H57219   3.025   3.791   0.019 -0.3015 -1.8902  0.4016
  424MOL0     H57220   3.846   3.756   0.548 -1.7925 -0.8268  2.1519
  424MOL0     H57221   3.837   3.566   0.714 -5.3456  2.7713  0.2958
  424MOL0     H57222   3.752   3.119   0.780  1.0716  1.3191 -0.6692
  424MOL0     H57223   3.759   2.882   0.882  1.2737 -1.9882 -1.9813
  424MOL0     H57224   5.293   1.722   1.060 -4.3683  1.4704  0.7293
  424MOL0     H57225   5.393   1.515   0.965 -1.7622 -0.3017 -1.0367
  424MOL0     H57226   5.381   0.901   1.157  1.1208 -1.3822  0.7071
  424MOL0     H57227   5.497   0.711   1.044 -2.0903 -0.3793 -2.0254
  424MOL0     H57228   5.558   0.575   0.889 -1.5657  1.0399  0.9560
  424MOL0     H57229   5.706   0.595   0.981 -0.0741  1.1622  0.2647
  424MOL0     H57230   5.849   0.570   0.779 -0.4692  2.7100  3.1740
  424MOL0     H57231   5.694   0.535   0.686  1.1435 -3.8448 -0.9057
  424MOL0     H57232   5.799   0.384   0.930  2.0594  0.3864 -0.7972
  424MOL0     H57233   5.835   0.309   0.786  2.3492  0.8212  1.6900
  424MOL0     H57234   5.559   0.322   0.912  1.9896 -1.3058 -0.2801
  424MOL0     H57235   5.565   0.316   0.721  0.0649 -4.3092 -2.0469
  424MOL0     H57236   5.722  -0.053   0.888 -2.3593 -2.6178 -2.4484
  424MOL0     H57237   5.702   0.979   0.794 -1.0531  2.7417  0.0756
  424MOL0     H57238   5.729   1.203   0.849  0.1993  3.9199  3.0324
  424MOL0     H57239   5.564   1.235   0.783  1.0897 -1.0369 -1.0775
  424MOL0     H57240   5.601   1.293   0.938  0.5483 -3.0609  5.5637
  425MOL0     O57241   2.791   2.474   7.686  0.8577  0.0050 -0.3601
  425MOL0     C57242   2.855   2.393   7.623  0.5136  0.1427  0.5958
  425MOL0     O57243   2.889   2.270   7.662 -0.2644 -0.0258 -0.9300
  425MOL0     C57244   2.842   2.185   7.768  0.7078  0.1376  0.2448
  425MOL0     C57245   2.893   2.043   7.773  0.5865 -0.9409 -0.4677
  425MOL0     C57246   2.846   1.958   7.874  0.2683 -0.6713  0.0513
  425MOL0     C57247   2.761   2.010   7.973  0.2740 -0.0056  0.3905
  425MOL0     O57248   2.730   1.918   8.077 -0.1486  0.1093  0.5168
  425MOL0     C57249   2.845   1.928   8.178 -0.6188  0.6079  0.6801
  425MOL0     C57250   2.808   1.850   8.304 -0.5133 -0.6787 -0.4016
  425MOL0     C57251   2.794   1.700   8.273 -0.7247 -0.4810 -0.2428
  425MOL0     C57252   2.936   1.636   8.259  0.5113  0.1107  0.3727
  425MOL0     C57253   2.927   1.485   8.270 -0.3770  0.9570  0.1210
  425MOL0     C57254   3.070   1.419   8.253  0.5156 -0.2828 -0.4651
  425MOL0     C57255   3.066   1.269   8.218 -0.1803 -0.2060 -0.1128
  425MOL0     C57256   2.989   1.222   8.093  0.2019 -0.0552  0.0301
  425MOL0     N57257   3.052   1.101   8.038  0.4843  1.3285  0.4634
  425MOL0     C57258   3.083   0.979   8.095 -0.0548 -0.0025 -0.1567
  425MOL0     C57259   3.089   0.893   7.984  0.8041 -0.5207  0.0128
  425MOL0     C57260   3.098   0.747   7.982 -0.2167 -0.2533  1.1905
  425MOL0     C57261   2.963   0.697   7.930  0.4268  0.2611 -0.6879
  425MOL0     C57262   2.947   0.547   7.932  0.8374 -0.3932  0.3389
  425MOL0     C57263   2.802   0.512   7.927 -0.5440  0.0540 -0.1935
  425MOL0     O57264   2.741   0.580   7.827 -0.1010  0.0886  0.3533
  425MOL0     C57265   2.617   0.543   7.780  0.4709  0.1633  1.2330
  425MOL0     C57266   2.533   0.443   7.832 -0.8157  0.8807 -0.2054
  425MOL0     C57267   2.411   0.409   7.768  0.3777  0.2261  0.7591
  425MOL0     C57268   2.362   0.490   7.656 -0.0806  0.7690 -0.2405
  425MOL0     C57269   2.228   0.453   7.590  0.3578  0.2833  0.5135
  425MOL0     O57270   2.203   0.323   7.580 -0.6978  0.1519  0.4676
  425MOL0     C57271   2.079   0.278   7.541  1.0237  1.0680 -0.3864
  425MOL0     C57272   2.070   0.196   7.436  0.9093  0.8939  0.1614
  425MOL0     C57273   1.944   0.146   7.383 -0.5641 -0.4678 -0.3589
  425MOL0     C57274   1.826   0.196   7.437 -0.9575  0.4800  0.0476
  425MOL0     O57275   1.711   0.155   7.376 -0.5754 -0.6168 -0.3354
  425MOL0     C57276   1.652   0.048   7.448 -0.1217  0.8728 -0.8422
  425MOL0     C57277   1.511   0.090   7.480 -0.2107 -0.0770  0.7365
  425MOL0     C57278   1.416  -0.033   7.503 -0.3433 -0.4110 -0.5442
  425MOL0     C57279   1.266  -0.008   7.511  0.2731 -0.2325  0.3097
  425MOL0     C57280   1.211   0.096   7.606  0.2555  0.0597 -1.2729
  425MOL0     C57281   1.056   0.090   7.619  0.5134 -0.8737 -0.0719
  425MOL0     C57282   0.994   0.179   7.727  0.4129 -0.0902 -0.3455
  425MOL0     C57283   0.852   0.137   7.762  0.6045 -0.1051 -0.3188
  425MOL0    Cl57284   0.758   0.207   7.908 -0.0896  0.1413  0.6468
  425MOL0     C57285   1.829   0.300   7.536  0.0678  0.8815 -0.1339
  425MOL0     C57286   1.957   0.329   7.595  0.1437  0.1607 -0.0437
  425MOL0     O57287   2.162   0.546   7.535  0.0157 -0.4754  0.0821
  425MOL0     C57288   2.446   0.594   7.609 -0.0505  0.4285 -0.3718
  425MOL0     C57289   2.571   0.611   7.667 -0.3846 -0.0977  0.9540
  425MOL0     N57290   3.079   0.973   7.870  0.3302 -0.6513 -0.9408
  425MOL0     N57291   3.052   1.094   7.908  0.2866  1.2218 -0.1049
  425MOL0     C57292   2.704   2.141   7.968  0.8655  0.5965  0.0267
  425MOL0     C57293   2.747   2.232   7.864 -0.9493 -0.1194 -0.6239
  425MOL0     C57294   2.893   2.421   7.478  0.3529 -0.5926 -0.1665
  425MOL0     C57295   2.977   2.325   7.419  0.4839  0.1166  0.1569
  425MOL0     C57296   3.008   2.336   7.281  0.2745 -0.0611  0.2078
  425MOL0     C57297   2.955   2.442   7.208 -0.2781  0.2397  0.0111
  425MOL0     O57298   2.978   2.439   7.071  0.6770 -0.1135 -0.0831
  425MOL0     C57299   3.109   2.475   7.014 -0.7153  0.2435  0.3068
  425MOL0     C57300   3.085   2.590   6.916 -0.6713  1.1157  0.7611
  425MOL0     C57301   3.033   2.716   6.982 -0.0763  0.0250 -0.0148
  425MOL0     C57302   3.103   2.841   6.925 -0.2908 -0.4365 -0.2049
  425MOL0     C57303   3.087   2.849   6.778 -0.3295  0.1151 -1.1228
  425MOL0     C57304   3.090   2.842   6.663  0.2921  0.0990  0.1855
  425MOL0     C57305   2.877   2.543   7.268  0.0695 -0.0006  0.3000
  425MOL0     C57306   2.847   2.533   7.400 -0.2913  0.0566 -0.5976
  425MOL0     C57307   2.769   2.654   7.459 -0.1612 -0.8213  0.0779
  425MOL0     H57308   2.960   2.000   7.700  0.3769 -2.0183 -0.0537
  425MOL0     H57309   2.887   1.858   7.883  1.3474 -0.0894  2.7891
  425MOL0     H57310   2.940   1.889   8.142 -0.3747  1.2187  0.6525
  425MOL0     H57311   2.846   2.034   8.204  0.6179  1.7115 -3.1558
  425MOL0     H57312   2.721   1.897   8.350  0.6733 -0.5425  1.8784
  425MOL0     H57313   2.892   1.869   8.371  0.1771 -3.4820 -0.3473
  425MOL0     H57314   2.740   1.683   8.180 -0.2213 -1.0616 -0.4403
  425MOL0     H57315   2.737   1.651   8.353 -1.3062  0.4726 -0.0675
  425MOL0     H57316   2.979   1.668   8.163  0.1432  1.1187  0.5315
  425MOL0     H57317   3.008   1.677   8.330 -0.8663  0.4216  1.6244
  425MOL0     H57318   2.903   1.464   8.375  1.7256  2.3418  0.9459
  425MOL0     H57319   2.851   1.445   8.202  0.7699 -2.6079  0.7200
  425MOL0     H57320   3.127   1.477   8.180  1.2014  0.5264  0.6827
  425MOL0     H57321   3.131   1.428   8.343  1.6706 -0.8686 -1.1754
  425MOL0     H57322   3.026   1.210   8.301  1.6522  1.8612  2.3885
  425MOL0     H57323   3.173   1.245   8.218  0.0593  0.6381  2.2098
  425MOL0     H57324   2.883   1.220   8.118 -0.8102 -0.2612 -3.6677
  425MOL0     H57325   2.985   1.293   8.010 -2.7827  0.0771  0.2096
  425MOL0     H57326   3.078   0.956   8.201 -0.7583 -3.1237 -0.7637
  425MOL0     H57327   3.174   0.724   7.906 -3.4157  1.0045 -2.8172
  425MOL0     H57328   3.126   0.708   8.080 -0.2925  0.0010  1.3140
  425MOL0     H57329   2.882   0.752   7.980 -0.8420 -0.3314 -2.0038
  425MOL0     H57330   2.946   0.722   7.825  0.3689  0.8606 -0.5406
  425MOL0     H57331   2.977   0.497   8.024  0.0331 -3.2558 -0.8335
  425MOL0     H57332   3.001   0.495   7.852  0.7728 -1.0126  0.6954
  425MOL0     H57333   2.740   0.521   8.017 -2.0080  1.8210 -1.2880
  425MOL0     H57334   2.812   0.406   7.903 -0.9277  0.2567 -1.2947
  425MOL0     H57335   2.569   0.384   7.916  0.4050 -1.0813 -2.0094
  425MOL0     H57336   2.350   0.326   7.803 -2.2293  0.5697 -2.4715
  425MOL0     H57337   2.151   0.145   7.385 -1.4161 -1.4785 -1.4005
  425MOL0     H57338   1.946   0.065   7.311 -0.2754 -1.1858  0.4465
  425MOL0     H57339   1.645  -0.043   7.388  1.7595  2.0726 -3.0132
  425MOL0     H57340   1.702   0.037   7.545  3.0970  1.0275 -2.3642
  425MOL0     H57341   1.508   0.157   7.566 -1.4184 -3.6357  3.7494
  425MOL0     H57342   1.471   0.155   7.402 -2.3488 -1.0513  0.9551
  425MOL0     H57343   1.422  -0.099   7.417 -0.4100 -0.1916 -0.7188
  425MOL0     H57344   1.452  -0.094   7.586  2.4855  0.1361 -1.2589
  425MOL0     H57345   1.216  -0.104   7.529  0.7396 -0.5700 -0.1798
  425MOL0     H57346   1.224   0.016   7.413 -4.6189 -0.1485  2.1381
  425MOL0     H57347   1.253   0.192   7.576  2.6481  0.7061  3.1688
  425MOL0     H57348   1.246   0.085   7.709 -3.6661  1.9408  0.4684
  425MOL0     H57349   1.014   0.110   7.520 -1.0127 -3.8288 -0.1338
  425MOL0     H57350   1.031  -0.014   7.643  0.9872 -1.3029 -1.3277
  425MOL0     H57351   0.981   0.277   7.681  2.9078  0.2486 -0.4310
  425MOL0     H57352   1.072   0.174   7.804  3.1122  0.3285 -2.8921
  425MOL0     H57353   0.784   0.149   7.677  0.4105  0.9597 -0.0306
  425MOL0     H57354   0.851   0.028   7.777  1.1186 -0.1456 -0.5751
  425MOL0     H57355   1.732   0.334   7.571 -1.3915  1.8990 -4.5198
  425MOL0     H57356   1.963   0.396   7.681 -1.4445 -1.1292  1.1365
  425MOL0     H57357   2.415   0.650   7.521 -0.5034  1.0954  0.2086
  425MOL0     H57358   2.640   0.686   7.630  1.9131 -1.2627  2.7292
  425MOL0     H57359   2.642   2.162   8.055  2.5137 -2.8241  2.2395
  425MOL0     H57360   2.707   2.333   7.865  1.4726  0.8908 -0.4345
  425MOL0     H57361   3.006   2.240   7.479  0.4618  1.6650  2.4892
  425MOL0     H57362   3.075   2.271   7.226  1.8799  1.1858  0.6237
  425MOL0     H57363   3.149   2.388   6.961  1.7113  1.5626 -0.1265
  425MOL0     H57364   3.187   2.489   7.089  0.5671 -3.0155 -0.2267
  425MOL0     H57365   3.021   2.554   6.836 -0.1896  4.1696 -1.1625
  425MOL0     H57366   3.184   2.609   6.873  0.2569  0.8856  2.6548
  425MOL0     H57367   3.053   2.712   7.089  3.4374  0.2914 -0.5412
  425MOL0     H57368   2.925   2.710   6.971  0.0076 -0.3480 -0.7580
  425MOL0     H57369   3.049   2.928   6.963  2.1529  0.8344  0.6119
  425MOL0     H57370   3.205   2.853   6.964 -1.7123 -0.8638  4.0761
  425MOL0     H57371   3.080   2.838   6.556 -0.7090 -1.9731  0.3015
  425MOL0     H57372   2.853   2.629   7.206 -1.0168  0.0602  0.7634
  425MOL0     H57373   2.831   2.711   7.529  0.0509 -1.1505  0.1596
  425MOL0     H57374   2.718   2.713   7.383 -3.3162 -2.4075  0.7751
  425MOL0     H57375   2.685   2.618   7.521  2.9825 -0.1331  5.3925
  426MOL0     O57376  10.149   2.206   2.689  0.0494  0.1009  0.3839
  426MOL0     C57377  10.134   2.107   2.616 -0.7971  0.0972  0.0350
  426MOL0     O57378  10.238   2.025   2.578 -0.6747  0.4994 -0.3933
  426MOL0     C57379  10.361   2.058   2.615 -0.6783  0.3876  0.2476
  426MOL0     C57380  10.420   2.185   2.607 -0.6989  0.4975 -0.2427
  426MOL0     C57381  10.546   2.205   2.659  1.0777  0.3198  0.3712
  426MOL0     C57382  10.622   2.111   2.731 -0.7969 -0.3396  0.3661
  426MOL0     O57383  10.744   2.120   2.786 -0.0984  0.1066  0.0584
  426MOL0     C57384  10.792   2.247   2.833  0.4845 -0.1995 -0.4676
  426MOL0     C57385  10.927   2.239   2.913  0.1874 -0.3250 -0.3581
  426MOL0     C57386  10.916   2.219   3.057  0.6783 -0.4934  0.7096
  426MOL0     C57387  11.045   2.251   3.139 -0.2479  0.5273  0.7814
  426MOL0     C57388  11.091   2.399   3.142  0.3361  0.0286 -1.5225
  426MOL0     C57389  11.246   2.410   3.168 -0.7692  0.1363  0.7617
  426MOL0     C57390  11.285   2.363   3.316  0.6475 -0.1306 -0.2335
  426MOL0     C57391  11.413   2.418   3.365 -0.6883 -0.7720 -0.5279
  426MOL0     N57392  11.410   2.569   3.343 -0.1454 -0.1469 -0.0371
  426MOL0     C57393  11.500   2.629   3.267 -0.0062  0.4693 -0.7232
  426MOL0     C57394  11.479   2.767   3.284  0.5655  0.0624 -0.0417
  426MOL0     C57395  11.559   2.877   3.217  0.3341 -0.0443 -0.2964
  426MOL0     C57396  11.710   2.873   3.249 -1.4709 -0.8791  0.2860
  426MOL0     C57397  11.778   3.009   3.217 -0.4986  0.2585 -0.6741
  426MOL0     C57398  11.833   3.034   3.066  0.2826 -0.5564 -1.3132
  426MOL0     O57399  11.941   2.953   3.051 -0.2010  0.4125  0.1669
  426MOL0     C57400  12.012   2.944   2.932 -0.5650 -0.4448  1.4686
  426MOL0     C57401  11.953   2.929   2.807 -0.6910 -0.3844  0.2327
  426MOL0     C57402  12.027   2.934   2.686 -0.2907  0.2335  0.3447
  426MOL0     C57403  12.161   2.953   2.693  0.0101  0.7710 -0.0553
  426MOL0     C57404  12.242   2.951   2.568 -0.2852 -0.5366 -0.0025
  426MOL0     O57405  12.187   2.994   2.449  0.2369  1.1393 -0.3896
  426MOL0     C57406  12.266   3.000   2.336  0.4157 -0.3512  0.0528
  426MOL0     C57407  12.391   3.059   2.319 -0.1617  0.5946 -1.3585
  426MOL0     C57408  12.454   3.066   2.189 -0.2915 -0.2524  0.3699
  426MOL0     C57409  12.400   2.991   2.082 -0.0822  0.5875 -0.2046
  426MOL0     O57410  12.448   2.957   1.961 -0.2735  0.1246  0.0260
  426MOL0     C57411  12.590   2.980   1.947  0.3697  0.3373 -1.1116
  426MOL0     C57412  12.669   2.895   1.839 -0.0602  0.4337 -0.2983
  426MOL0     C57413  12.668   2.738   1.861 -0.6837  0.2596  0.0822
  426MOL0     C57414  12.731   2.661   1.741  0.4517  0.2193 -0.4396
  426MOL0     C57415  12.807   2.535   1.792  0.5238  0.6763  0.0391
  426MOL0     C57416  12.900   2.475   1.673  0.6275 -0.4499 -0.1021
  426MOL0     C57417  13.013   2.395   1.722  0.3591  0.4387 -0.4384
  426MOL0     C57418  13.148   2.420   1.665  0.1032  0.0057 -0.6943
  426MOL0    Cl57419  13.266   2.324   1.756  0.6189 -0.3641  0.7159
  426MOL0     C57420  12.278   2.934   2.105 -0.5255  0.6897 -0.6812
  426MOL0     C57421  12.217   2.942   2.228  0.2157  0.4184  0.8175
  426MOL0     O57422  12.359   2.951   2.584 -0.5823 -0.2980  0.0680
  426MOL0     C57423  12.228   2.962   2.824 -0.0803  0.2486  0.2162
  426MOL0     C57424  12.146   2.964   2.937  0.2322 -0.1706 -1.2712
  426MOL0     N57425  11.374   2.774   3.376  0.5974 -0.6948 -0.0307
  426MOL0     N57426  11.329   2.660   3.405 -0.9980  0.1849 -0.5347
  426MOL0     C57427  10.567   1.982   2.724  0.3530 -0.6354 -0.3923
  426MOL0     C57428  10.442   1.954   2.666  0.8120 -0.4185 -0.8753
  426MOL0     C57429   9.993   2.089   2.565 -0.0432  0.4035 -0.5636
  426MOL0     C57430   9.964   1.982   2.478 -0.6788  0.0419 -0.4234
  426MOL0     C57431   9.836   1.979   2.427  0.2847  0.4517 -0.7121
  426MOL0     C57432   9.726   2.058   2.458 -0.9734 -0.4042 -0.4174
  426MOL0     O57433   9.602   2.040   2.418  0.2286  0.2365  0.2577
  426MOL0     C57434   9.561   2.123   2.306  0.0247 -0.2633  0.2865
  426MOL0     C57435   9.414   2.157   2.324 -0.1285  0.0100  0.6142
  426MOL0     C57436   9.320   2.046   2.328 -0.3082 -0.8451 -0.5965
  426MOL0     C57437   9.187   2.088   2.379 -0.1519 -0.6704 -0.3843
  426MOL0     C57438   9.131   2.186   2.284  0.4789  0.9036  0.5321
  426MOL0     C57439   9.069   2.270   2.220 -0.4506  0.2756 -0.1651
  426MOL0     C57440   9.758   2.165   2.543  0.0622  1.3192  0.9300
  426MOL0     C57441   9.885   2.188   2.588  0.0251  0.3689 -0.6128
  426MOL0     C57442   9.901   2.318   2.668 -1.0513  0.8537 -0.1822
  426MOL0     H57443  10.361   2.267   2.567 -0.5524  0.4384 -0.5927
  426MOL0     H57444  10.588   2.304   2.646 -0.2545  0.6504 -1.9990
  426MOL0     H57445  10.806   2.320   2.752  4.3135  2.6776  2.4385
  426MOL0     H57446  10.716   2.305   2.888 -0.5270 -3.8962  2.4442
  426MOL0     H57447  10.981   2.332   2.892  1.3153 -0.3517  2.1354
  426MOL0     H57448  10.986   2.156   2.873  0.8074  1.0160 -2.3809
  426MOL0     H57449  10.873   2.119   3.071 -2.9929  1.0283  1.6143
  426MOL0     H57450  10.840   2.292   3.088 -1.1535 -1.6748 -0.7176
  426MOL0     H57451  11.033   2.214   3.241  0.6058  0.5467  0.8942
  426MOL0     H57452  11.125   2.186   3.104 -2.2382 -2.0119  0.6479
  426MOL0     H57453  11.056   2.455   3.055 -2.3614  1.3422  0.2703
  426MOL0     H57454  11.038   2.449   3.223 -0.2982  1.8530 -3.0161
  426MOL0     H57455  11.289   2.340   3.095 -2.1766  0.0444 -0.0009
  426MOL0     H57456  11.286   2.506   3.134 -3.3137  0.9775 -0.0154
  426MOL0     H57457  11.281   2.254   3.317  1.4331 -0.1737 -0.8957
  426MOL0     H57458  11.203   2.415   3.368  0.4670  0.7783 -1.3733
  426MOL0     H57459  11.416   2.398   3.472 -0.9261  1.7693  0.0241
  426MOL0     H57460  11.499   2.378   3.311  1.9594  2.3644  1.0038
  426MOL0     H57461  11.574   2.577   3.206  1.1289 -0.4363  1.3138
  426MOL0     H57462  11.540   2.870   3.110 -0.9370  3.7009 -0.4386
  426MOL0     H57463  11.519   2.975   3.244 -0.1937 -0.1873 -0.5471
  426MOL0     H57464  11.720   2.847   3.354  2.4857 -2.9302 -0.4080
  426MOL0     H57465  11.769   2.795   3.199 -2.5217 -1.7305  0.3265
  426MOL0     H57466  11.861   3.026   3.286 -0.0636 -1.6752 -0.6663
  426MOL0     H57467  11.713   3.095   3.238 -2.6585 -1.6267  0.7945
  426MOL0     H57468  11.866   3.138   3.059 -1.9900  0.3734  0.4603
  426MOL0     H57469  11.755   3.019   2.991 -0.7086  0.4457 -0.5197
  426MOL0     H57470  11.847   2.904   2.802 -0.3913 -1.6370 -0.3244
  426MOL0     H57471  11.969   2.917   2.595  1.1805  0.4869 -0.6716
  426MOL0     H57472  12.439   3.110   2.402  2.7087 -0.6485 -2.1188
  426MOL0     H57473  12.541   3.131   2.185 -0.9089  0.5905  0.4713
  426MOL0     H57474  12.610   3.086   1.927  0.4870  1.2120  2.7954
  426MOL0     H57475  12.633   2.959   2.046 -1.8824 -3.7829 -0.8128
  426MOL0     H57476  12.624   2.907   1.740 -1.3992  2.5159  0.4893
  426MOL0     H57477  12.770   2.938   1.837  0.3218 -0.3319  1.4989
  426MOL0     H57478  12.726   2.718   1.952  1.1071 -0.8322 -1.2527
  426MOL0     H57479  12.567   2.700   1.883 -0.9369  1.9297  2.1895
  426MOL0     H57480  12.791   2.734   1.687 -0.3559  0.7605 -0.6191
  426MOL0     H57481  12.656   2.619   1.674  0.3593  1.0290 -0.8540
  426MOL0     H57482  12.726   2.469   1.824  0.2824  0.3969 -1.1106
  426MOL0     H57483  12.869   2.564   1.878 -0.7661  2.4685  0.4231
  426MOL0     H57484  12.844   2.415   1.600 -2.4209  1.2508  0.6539
  426MOL0     H57485  12.954   2.561   1.632  4.2996 -1.3843  2.3585
  426MOL0     H57486  12.988   2.292   1.694  0.3662  0.2927  0.0837
  426MOL0     H57487  13.016   2.406   1.830 -0.5686 -2.7229  0.0137
  426MOL0     H57488  13.152   2.410   1.556 -3.3858 -1.1420 -0.8212
  426MOL0     H57489  13.172   2.522   1.698 -0.2296 -0.4175  0.9688
  426MOL0     H57490  12.227   2.889   2.020  0.3792 -0.7499 -0.4787
  426MOL0     H57491  12.119   2.897   2.240 -1.3529  3.5392  0.8038
  426MOL0     H57492  12.335   2.965   2.842 -0.0409 -1.4987  0.4716
  426MOL0     H57493  12.191   2.961   3.036  0.3627 -4.0765 -1.2627
  426MOL0     H57494  10.620   1.919   2.794  2.1245  0.9976 -0.1614
  426MOL0     H57495  10.396   1.860   2.695 -1.4176  0.5125 -1.2319
  426MOL0     H57496  10.050   1.924   2.444  3.0086  1.6815  4.7236
  426MOL0     H57497   9.813   1.895   2.363  1.0354 -0.7349  0.5046
  426MOL0     H57498   9.565   2.068   2.211  4.2775  0.3461 -0.0792
  426MOL0     H57499   9.617   2.214   2.288  1.1140 -1.3067 -2.0819
  426MOL0     H57500   9.394   2.229   2.244  0.4802 -1.4641 -0.9245
  426MOL0     H57501   9.388   2.204   2.419 -0.0266 -1.5764  1.4661
  426MOL0     H57502   9.357   1.975   2.403  0.0800  0.2607  0.2757
  426MOL0     H57503   9.324   1.994   2.232 -0.4100  0.3471 -1.2663
  426MOL0     H57504   9.124   1.999   2.391  1.1014 -1.5262  0.2043
  426MOL0     H57505   9.184   2.141   2.475 -0.8094 -1.1056 -0.1572
  426MOL0     H57506   9.025   2.354   2.171 -3.8949  0.7879  3.2995
  426MOL0     H57507   9.683   2.240   2.570 -1.5577  0.3145 -0.5843
  426MOL0     H57508   9.816   2.384   2.650 -2.9102 -1.5238 -0.6061
  426MOL0     H57509   9.907   2.289   2.773 -1.8823 -0.6515 -0.5154
  426MOL0     H57510   9.983   2.379   2.629 -2.8918  3.7834  0.2627
  427MOL0     O57511  10.440   5.710   2.985  0.3791 -1.4303 -0.3802
  427MOL0     C57512  10.484   5.693   3.096 -0.5566 -0.8784  0.5007
  427MOL0     O57513  10.419   5.719   3.214 -0.6852  0.3209 -0.4408
  427MOL0     C57514  10.299   5.781   3.218 -0.1013 -0.2365  0.0350
  427MOL0     C57515  10.280   5.904   3.274  0.0440 -0.3672 -0.3060
  427MOL0     C57516  10.156   5.962   3.296  0.2577  0.9372  0.4137
  427MOL0     C57517  10.038   5.898   3.257  0.3629 -0.1001 -0.6181
  427MOL0     O57518   9.916   5.957   3.285 -0.4934  0.1294 -0.4314
  427MOL0     C57519   9.911   6.079   3.365  0.5215  0.0146  1.1901
  427MOL0     C57520   9.764   6.124   3.363  0.0107 -0.7182  0.5006
  427MOL0     C57521   9.706   6.171   3.228 -0.8927 -0.6162  0.1992
  427MOL0     C57522   9.548   6.176   3.236  0.2768 -0.4953  0.3190
  427MOL0     C57523   9.501   6.275   3.135  0.9478 -2.1654 -0.1336
  427MOL0     C57524   9.428   6.392   3.195  0.4062 -1.0687 -0.3591
  427MOL0     C57525   9.536   6.482   3.268  0.4025 -1.0497  0.2086
  427MOL0     C57526   9.476   6.575   3.382  0.4418  0.0359  0.4957
  427MOL0     N57527   9.444   6.502   3.499  0.3415  0.3560 -0.4751
  427MOL0     C57528   9.535   6.475   3.595 -0.0940  0.1850  0.6792
  427MOL0     C57529   9.459   6.452   3.706 -0.6038  0.8115  0.4676
  427MOL0     C57530   9.503   6.424   3.840 -0.5885 -0.2927 -0.2125
  427MOL0     C57531   9.564   6.281   3.852  0.5717  0.7174 -0.1539
  427MOL0     C57532   9.615   6.257   3.998 -1.0660 -0.9133  0.3117
  427MOL0     C57533   9.500   6.228   4.089  0.1217 -0.9988  0.7391
  427MOL0     O57534   9.431   6.349   4.118  0.2768 -0.1631  0.0872
  427MOL0     C57535   9.306   6.349   4.176  0.0752 -0.6741 -0.8328
  427MOL0     C57536   9.249   6.231   4.207 -0.5578  0.1238 -0.1200
  427MOL0     C57537   9.116   6.243   4.257  0.7876 -0.6677 -0.9700
  427MOL0     C57538   9.060   6.370   4.299 -0.4960  0.5203 -0.6802
  427MOL0     C57539   8.932   6.380   4.378 -0.0984 -0.2794 -0.0850
  427MOL0     O57540   8.846   6.270   4.372 -0.0667 -0.3967 -0.1544
  427MOL0     C57541   8.739   6.273   4.455 -0.7142 -0.4156  0.3955
  427MOL0     C57542   8.610   6.271   4.393  0.2951 -0.1049 -0.0525
  427MOL0     C57543   8.495   6.276   4.463 -0.7425  0.3067 -0.2586
  427MOL0     C57544   8.503   6.267   4.604  0.3579 -0.8070 -0.2344
  427MOL0     O57545   8.393   6.282   4.685 -0.3743 -1.1841  0.5306
  427MOL0     C57546   8.335   6.160   4.728  1.0372  0.0981  0.3045
  427MOL0     C57547   8.218   6.180   4.837  0.4854  0.0813  0.4081
  427MOL0     C57548   8.284   6.249   4.954 -0.3075  0.8824 -0.7189
  427MOL0     C57549   8.328   6.133   5.038  0.0115 -0.7346 -0.0566
  427MOL0     C57550   8.405   6.180   5.162 -0.3343  0.3545 -0.3381
  427MOL0     C57551   8.405   6.076   5.272 -0.1077 -1.5134  0.1940
  427MOL0     C57552   8.491   6.123   5.401  0.1904 -1.0844 -0.1975
  427MOL0     C57553   8.448   6.258   5.466 -0.0409  0.8042  0.2631
  427MOL0    Cl57554   8.517   6.258   5.638  0.3366  0.3330 -0.1374
  427MOL0     C57555   8.629   6.273   4.659 -0.3300 -0.1969  0.2630
  427MOL0     C57556   8.748   6.280   4.585  0.0503 -0.1292  0.4750
  427MOL0     O57557   8.909   6.487   4.429 -0.2480  0.1109 -0.2319
  427MOL0     C57558   9.135   6.488   4.272  0.7560  0.4184 -0.7912
  427MOL0     C57559   9.253   6.472   4.217 -0.0946  0.6547 -0.5419
  427MOL0     N57560   9.328   6.455   3.675  0.4387 -0.5579  0.5438
  427MOL0     N57561   9.318   6.490   3.551 -0.0662 -0.8005  0.5105
  427MOL0     C57562  10.047   5.761   3.203 -0.3710  0.4589 -0.1681
  427MOL0     C57563  10.187   5.711   3.186 -0.0571 -0.9299  0.4812
  427MOL0     C57564  10.630   5.659   3.101  0.0172  0.4412  0.9050
  427MOL0     C57565  10.705   5.713   3.210  1.1686  0.6186  0.8071
  427MOL0     C57566  10.844   5.707   3.224 -0.7470  0.7436  0.6132
  427MOL0     C57567  10.923   5.636   3.125 -0.7160 -1.3445 -0.5536
  427MOL0     O57568  11.057   5.641   3.153  0.0913  0.2360 -0.9806
  427MOL0     C57569  11.126   5.538   3.091  0.1515  0.4754  0.4333
  427MOL0     C57570  11.273   5.521   3.130  0.5030  0.2712  0.3871
  427MOL0     C57571  11.357   5.621   3.056  0.0570  0.4940 -0.1561
  427MOL0     C57572  11.509   5.632   3.104 -0.2668  0.2960  0.2501
  427MOL0     C57573  11.589   5.515   3.068 -0.3377  1.2154  0.1082
  427MOL0     C57574  11.664   5.423   3.032  0.6003 -0.3119 -0.1265
  427MOL0     C57575  10.849   5.581   3.016  0.3715  0.9209  1.1729
  427MOL0     C57576  10.709   5.593   2.997 -0.0486  0.7579  0.1675
  427MOL0     C57577  10.653   5.521   2.885  0.0057  0.3453 -0.3143
  427MOL0     H57578  10.367   5.969   3.281 -3.0977  4.3251  0.6756
  427MOL0     H57579  10.157   6.064   3.333  1.3232  0.9432  0.4000
  427MOL0     H57580   9.958   6.060   3.462  1.9388  0.6659  0.6558
  427MOL0     H57581   9.969   6.154   3.311 -0.6537  0.2262  0.1790
  427MOL0     H57582   9.750   6.203   3.437 -0.0102  0.6356 -0.8970
  427MOL0     H57583   9.703   6.041   3.400 -0.6353  0.8174  3.1136
  427MOL0     H57584   9.731   6.091   3.157  0.8834  1.9041 -2.2276
  427MOL0     H57585   9.757   6.262   3.196  1.7414 -1.0408  2.7689
  427MOL0     H57586   9.501   6.082   3.204  1.2463 -0.4045 -1.4942
  427MOL0     H57587   9.516   6.196   3.339 -3.0955 -2.1199 -0.2659
  427MOL0     H57588   9.581   6.301   3.066 -0.8370 -0.4146 -1.6501
  427MOL0     H57589   9.428   6.244   3.060 -0.5636  1.5170 -0.4113
  427MOL0     H57590   9.370   6.442   3.116 -0.5345 -0.9032  0.4231
  427MOL0     H57591   9.353   6.363   3.268  2.1238 -0.8803  1.5616
  427MOL0     H57592   9.578   6.544   3.187  0.4312 -0.6017  0.5613
  427MOL0     H57593   9.615   6.420   3.311 -0.2071  0.0550  3.1448
  427MOL0     H57594   9.530   6.667   3.405 -2.2213  1.6252  0.9266
  427MOL0     H57595   9.388   6.630   3.345  1.7386  1.2952 -0.8556
  427MOL0     H57596   9.642   6.480   3.582 -0.0249  0.0813  1.1705
  427MOL0     H57597   9.588   6.488   3.868 -2.1629  1.6352  0.4165
  427MOL0     H57598   9.416   6.442   3.904 -0.7921  2.6355 -1.1536
  427MOL0     H57599   9.492   6.206   3.819  2.8773 -0.2873 -3.3384
  427MOL0     H57600   9.649   6.279   3.783 -1.6754 -2.3864 -3.1854
  427MOL0     H57601   9.665   6.346   4.036 -2.2157  0.1427 -0.5727
  427MOL0     H57602   9.683   6.171   4.005 -1.9536 -1.6638 -0.0776
  427MOL0     H57603   9.531   6.186   4.185 -2.7403  0.6988  2.5785
  427MOL0     H57604   9.439   6.152   4.039 -1.0755  1.9102 -2.6797
  427MOL0     H57605   9.283   6.129   4.191  3.0480  1.0652  0.6306
  427MOL0     H57606   9.057   6.157   4.289 -1.2813  0.1413 -2.4074
  427MOL0     H57607   8.602   6.286   4.286  4.0580 -1.2118 -0.6627
  427MOL0     H57608   8.395   6.291   4.424 -0.7596  0.6516 -0.0809
  427MOL0     H57609   8.301   6.094   4.648 -0.4961 -0.5789  1.4630
  427MOL0     H57610   8.420   6.105   4.770  3.5991  1.5332 -2.5960
  427MOL0     H57611   8.130   6.233   4.800  0.1546 -1.5468 -1.3632
  427MOL0     H57612   8.176   6.082   4.861 -1.2197  0.4162 -0.9598
  427MOL0     H57613   8.378   6.301   4.933  0.0539  0.9357  0.8662
  427MOL0     H57614   8.211   6.304   5.016 -1.1560 -3.5173  2.7217
  427MOL0     H57615   8.384   6.055   4.984  3.5329  1.4538  0.1193
  427MOL0     H57616   8.234   6.084   5.064 -1.3396  1.6889 -0.1109
  427MOL0     H57617   8.351   6.267   5.202 -0.3284  0.8036 -1.2955
  427MOL0     H57618   8.504   6.208   5.126 -0.2421  1.5943  0.7831
  427MOL0     H57619   8.306   6.035   5.295 -0.8160  0.0325  0.0918
  427MOL0     H57620   8.463   5.995   5.229  1.0157 -2.7363  3.6394
  427MOL0     H57621   8.596   6.122   5.371 -0.0991  2.2289 -1.7060
  427MOL0     H57622   8.483   6.047   5.480 -1.7396  0.5252  1.2718
  427MOL0     H57623   8.493   6.345   5.418  1.9275 -0.8098 -0.9711
  427MOL0     H57624   8.339   6.249   5.464  0.1178 -1.4917 -1.3721
  427MOL0     H57625   8.634   6.272   4.767 -1.8267  0.9033  0.3705
  427MOL0     H57626   8.835   6.298   4.649 -0.0482  1.2025  0.2788
  427MOL0     H57627   9.090   6.586   4.287 -0.6476 -0.3404  0.2087
  427MOL0     H57628   9.324   6.553   4.204  0.6766  0.1914  0.6530
  427MOL0     H57629   9.970   5.687   3.183  0.8367 -1.0482  0.4800
  427MOL0     H57630  10.207   5.608   3.160 -0.3155 -1.1336  1.0914
  427MOL0     H57631  10.656   5.768   3.289  2.6312  4.4596 -0.7392
  427MOL0     H57632  10.880   5.772   3.302 -0.0563  0.6308  0.3980
  427MOL0     H57633  11.119   5.559   2.984  0.3296  1.4823  0.6137
  427MOL0     H57634  11.079   5.441   3.109 -0.8135  1.1839  1.8603
  427MOL0     H57635  11.309   5.420   3.108 -0.4176 -0.7241  3.0256
  427MOL0     H57636  11.285   5.528   3.239  0.1206  2.0047  0.3552
  427MOL0     H57637  11.307   5.717   3.067  3.2941  2.0785  2.1434
  427MOL0     H57638  11.353   5.602   2.948  2.0381  1.7860 -0.5051
  427MOL0     H57639  11.546   5.733   3.082  0.6669 -0.4580 -1.9655
  427MOL0     H57640  11.502   5.621   3.212  0.3720 -3.9740  0.0343
  427MOL0     H57641  11.709   5.347   2.971  0.8903  0.1731 -0.5245
  427MOL0     H57642  10.903   5.533   2.936  3.2094  3.7253  1.2243
  427MOL0     H57643  10.594   5.592   2.827  0.5690 -0.8240 -2.4401
  427MOL0     H57644  10.732   5.488   2.818 -0.0657 -0.2748 -0.0992
  427MOL0     H57645  10.594   5.434   2.916 -1.1799  0.5623 -1.8638
  428MOL0     O57646   5.673  11.185  11.063  0.5029  0.2581  0.3710
  428MOL0     C57647   5.625  11.187  10.952  0.6501  0.2047 -0.2129
  428MOL0     O57648   5.654  11.098  10.845 -0.4590  0.6206 -0.0775
  428MOL0     C57649   5.750  10.999  10.851  0.5725  0.5842 -0.8024
  428MOL0     C57650   5.766  10.918  10.963  0.2350  0.0140 -0.2106
  428MOL0     C57651   5.858  10.812  10.961  0.0496  0.1853 -0.0309
  428MOL0     C57652   5.925  10.775  10.846  0.3992 -1.0582 -0.4095
  428MOL0     O57653   6.015  10.666  10.848  0.0773  0.4557 -0.6437
  428MOL0     C57654   6.129  10.667  10.761 -0.6320  1.5923 -0.3445
  428MOL0     C57655   6.223  10.554  10.796  0.3617 -0.3603 -0.4597
  428MOL0     C57656   6.158  10.412  10.809 -0.5213  0.0986  0.5044
  428MOL0     C57657   6.106  10.368  10.672 -1.2269 -0.8099 -0.7594
  428MOL0     C57658   6.052  10.227  10.670 -0.1234  0.0473 -0.1897
  428MOL0     C57659   5.952  10.198  10.786 -0.2242  0.8289 -0.2886
  428MOL0     C57660   5.846  10.079  10.760  0.2651 -0.2756  0.3494
  428MOL0     C57661   5.722  10.085  10.844 -0.1664  0.0258  0.8935
  428MOL0     N57662   5.758  10.041  10.982 -0.0363  0.1167 -0.3033
  428MOL0     C57663   5.829   9.925  11.019  0.3274  0.1920 -0.9109
  428MOL0     C57664   5.844   9.936  11.155 -0.1921  1.0379 -0.6897
  428MOL0     C57665   5.904   9.848  11.262 -0.2931 -0.6437 -0.1289
  428MOL0     C57666   6.053   9.884  11.294 -0.1912 -0.0982  0.3362
  428MOL0     C57667   6.059  10.008  11.386 -0.3151  0.6005 -0.1663
  428MOL0     C57668   6.212  10.036  11.431  0.2553  0.3459  0.1789
  428MOL0     O57669   6.295  10.057  11.325 -0.5467  0.1269 -0.3928
  428MOL0     C57670   6.413  10.113  11.356 -0.7119  0.3771 -0.4594
  428MOL0     C57671   6.531  10.047  11.310 -0.4548 -0.1029 -0.7736
  428MOL0     C57672   6.659  10.101  11.314 -0.1122 -0.1202 -0.4746
  428MOL0     C57673   6.671  10.232  11.368 -0.7691  0.3958 -0.8003
  428MOL0     C57674   6.803  10.300  11.359  0.7055  0.2999 -0.0287
  428MOL0     O57675   6.811  10.440  11.342  0.4689 -0.1068  0.2586
  428MOL0     C57676   6.932  10.505  11.322  0.0656 -1.1046  0.9196
  428MOL0     C57677   7.034  10.492  11.404  0.9733 -0.3063 -0.5593
  428MOL0     C57678   7.144  10.576  11.390 -0.6397  0.8095  0.3298
  428MOL0     C57679   7.148  10.666  11.277 -0.0616  0.4660 -0.1542
  428MOL0     O57680   7.254  10.744  11.260 -0.7734 -0.1565 -0.1227
  428MOL0     C57681   7.382  10.677  11.213  0.9962 -0.4508 -0.6210
  428MOL0     C57682   7.439  10.735  11.083  0.8732 -0.1036 -1.1183
  428MOL0     C57683   7.564  10.650  11.053 -0.2042 -0.4835 -0.7387
  428MOL0     C57684   7.608  10.687  10.911 -0.1894 -0.5045  0.0337
  428MOL0     C57685   7.719  10.590  10.870  0.2564  0.1528 -0.2183
  428MOL0     C57686   7.736  10.584  10.718  0.4012 -0.5068 -0.1300
  428MOL0     C57687   7.875  10.524  10.686  0.5995 -0.5394 -0.4498
  428MOL0     C57688   7.922  10.495  10.532 -0.0645 -0.1768  0.1221
  428MOL0    Cl57689   7.820  10.372  10.451 -0.5760 -0.0715  0.0006
  428MOL0     C57690   7.049  10.661  11.185  0.2973  0.3616 -0.5966
  428MOL0     C57691   6.934  10.592  11.214 -0.0675 -1.7311  0.5570
  428MOL0     O57692   6.894  10.222  11.366 -0.1345 -0.2863  0.0898
  428MOL0     C57693   6.558  10.303  11.415  0.1854  0.5900 -0.0198
  428MOL0     C57694   6.431  10.242  11.415  0.0151 -0.0105 -0.1451
  428MOL0     N57695   5.784  10.052  11.192  1.0019  0.4926  0.3371
  428MOL0     N57696   5.725  10.112  11.093  0.3582 -0.0981  0.5746
  428MOL0     C57697   5.899  10.848  10.729 -0.0216 -0.5313  0.3504
  428MOL0     C57698   5.813  10.959  10.730  0.2934  0.3435  0.1818
  428MOL0     C57699   5.529  11.297  10.921  0.2465 -1.1707  0.1988
  428MOL0     C57700   5.464  11.292  10.793  0.7160  0.0943 -0.7309
  428MOL0     C57701   5.366  11.386  10.754  0.1546  0.6616 -0.7322
  428MOL0     C57702   5.317  11.477  10.849  0.0656 -0.4495  0.7659
  428MOL0     O57703   5.213  11.574  10.830 -0.9623 -0.2633  0.1732
  428MOL0     C57704   5.177  11.609  10.697 -0.8505  0.5279  0.5154
  428MOL0     C57705   5.063  11.710  10.687  0.7250 -1.1354 -0.3059
  428MOL0     C57706   4.952  11.685  10.784  0.3939 -0.7224  0.5859
  428MOL0     C57707   4.865  11.810  10.802 -0.0906  0.3177  0.0128
  428MOL0     C57708   4.804  11.878  10.687 -0.6909 -0.1776  0.1454
  428MOL0     C57709   4.746  11.951  10.607 -0.1137 -0.0673 -0.0161
  428MOL0     C57710   5.391  11.488  10.968  0.1970 -0.2570  0.0735
  428MOL0     C57711   5.499  11.407  11.003 -0.3491  0.8480  0.5597
  428MOL0     C57712   5.567  11.430  11.132  0.2258 -0.8989  1.6103
  428MOL0     H57713   5.710  10.932  11.055 -1.4407 -1.3936 -0.9404
  428MOL0     H57714   5.874  10.770  11.059  1.4441 -0.1744 -0.3849
  428MOL0     H57715   6.106  10.662  10.654 -1.9596  0.7029 -0.0370
  428MOL0     H57716   6.182  10.759  10.789 -2.0754  1.9025  1.5701
  428MOL0     H57717   6.258  10.596  10.890 -0.3231 -0.9260  0.0572
  428MOL0     H57718   6.306  10.550  10.725 -0.4267 -0.1171 -1.4260
  428MOL0     H57719   6.071  10.417  10.876  0.5000 -0.7689  1.9450
  428MOL0     H57720   6.223  10.333  10.846 -1.0379 -0.7631 -0.3559
  428MOL0     H57721   6.025  10.437  10.647 -0.4840  1.7180  2.9644
  428MOL0     H57722   6.173  10.377  10.586 -1.6947 -2.8861 -1.4099
  428MOL0     H57723   6.008  10.211  10.571  2.8057 -4.2582 -1.0688
  428MOL0     H57724   6.126  10.147  10.671  0.7774  0.8564  0.5730
  428MOL0     H57725   6.008  10.182  10.878  0.1851  3.8481  0.0853
  428MOL0     H57726   5.896  10.289  10.810 -0.6926  0.3645  0.4361
  428MOL0     H57727   5.901   9.984  10.766 -2.2172 -1.7460  1.4750
  428MOL0     H57728   5.834  10.079  10.651  2.0407  2.4207  0.0621
  428MOL0     H57729   5.673  10.183  10.842 -0.3297 -0.0645  0.1870
  428MOL0     H57730   5.656  10.012  10.796 -2.3381  2.3370  0.1148
  428MOL0     H57731   5.853   9.835  10.963 -1.1392  0.3005 -1.7845
  428MOL0     H57732   5.848   9.851  11.355  1.4711 -0.3503  0.9809
  428MOL0     H57733   5.904   9.745  11.227 -0.7387 -0.8230  0.3915
  428MOL0     H57734   6.092   9.808  11.362  0.3499  0.0653  0.2148
  428MOL0     H57735   6.108   9.898  11.201 -0.2096 -1.7638  0.0470
  428MOL0     H57736   5.994   9.992  11.473 -2.1357  2.0604 -1.1862
  428MOL0     H57737   6.021  10.093  11.329  0.2703 -1.3254 -3.6831
  428MOL0     H57738   6.254   9.954  11.491  0.7482  0.3682 -0.1232
  428MOL0     H57739   6.208  10.125  11.494  0.6805  0.7103 -0.2930
  428MOL0     H57740   6.527   9.949  11.263  1.3763 -0.1374 -0.9363
  428MOL0     H57741   6.739  10.068  11.248 -0.2813  0.0867 -0.7843
  428MOL0     H57742   7.031  10.437  11.497  0.9324  1.0201  0.2520
  428MOL0     H57743   7.227  10.571  11.460  2.1394 -2.5957 -2.8138
  428MOL0     H57744   7.461  10.681  11.289 -1.4764  2.8537  2.0909
  428MOL0     H57745   7.365  10.571  11.192 -2.1570 -0.4957  1.4707
  428MOL0     H57746   7.357  10.721  11.012 -0.2873  0.4646  0.0661
  428MOL0     H57747   7.463  10.840  11.102 -2.8657  0.5247  1.2959
  428MOL0     H57748   7.648  10.669  11.121  0.7846  1.0722 -2.3244
  428MOL0     H57749   7.547  10.542  11.053  2.8893 -1.1753  2.5129
  428MOL0     H57750   7.631  10.793  10.897  2.3931 -1.0155 -0.2707
  428MOL0     H57751   7.526  10.680  10.840  2.9477 -0.7146 -3.9119
  428MOL0     H57752   7.693  10.493  10.914 -0.8188  0.7932  0.5841
  428MOL0     H57753   7.811  10.632  10.913 -0.3784  2.9061 -1.3477
  428MOL0     H57754   7.667  10.507  10.682 -1.3832  1.5093 -1.3082
  428MOL0     H57755   7.716  10.683  10.675  1.5251  0.9162  2.3761
  428MOL0     H57756   7.887  10.429  10.738 -2.8132 -1.2215 -0.6498
  428MOL0     H57757   7.951  10.597  10.714  0.4059  1.4457 -4.4237
  428MOL0     H57758   7.913  10.584  10.469  1.7619 -0.5258 -0.6942
  428MOL0     H57759   8.029  10.469  10.530 -0.5660 -2.4951 -2.4272
  428MOL0     H57760   7.049  10.722  11.095  0.1586  1.9109  0.4092
  428MOL0     H57761   6.841  10.615  11.162 -1.5707 -5.9965  0.9572
  428MOL0     H57762   6.574  10.405  11.448  0.0023  0.8216 -0.6221
  428MOL0     H57763   6.345  10.294  11.455 -1.7488 -2.5992 -0.2886
  428MOL0     H57764   5.947  10.840  10.631 -0.8330  2.0234 -0.3294
  428MOL0     H57765   5.788  11.023  10.646 -2.2127  1.3770  1.6038
  428MOL0     H57766   5.472  11.203  10.732  0.4368  1.2467 -2.5076
  428MOL0     H57767   5.314  11.385  10.658 -2.5766  2.0093  0.6366
  428MOL0     H57768   5.147  11.515  10.650  1.0582  0.2374 -0.2045
  428MOL0     H57769   5.265  11.652  10.649 -0.2632  3.4100  3.8240
  428MOL0     H57770   5.028  11.727  10.585 -4.9723 -0.8735  1.3839
  428MOL0     H57771   5.103  11.808  10.713 -1.5516 -0.5238  1.1352
  428MOL0     H57772   4.983  11.646  10.881  2.9640  0.4185  0.3151
  428MOL0     H57773   4.900  11.597  10.746  0.7308 -1.3083  1.4663
  428MOL0     H57774   4.780  11.782  10.866  0.2990  2.1500  1.4139
  428MOL0     H57775   4.918  11.886  10.859  0.2542 -0.6883  1.0803
  428MOL0     H57776   4.690  12.027  10.555 -1.6566  0.6164  2.4723
  428MOL0     H57777   5.370  11.567  11.040  0.4404  1.7999 -1.9787
  428MOL0     H57778   5.524  11.519  11.178 -3.3828 -1.1880 -0.7909
  428MOL0     H57779   5.542  11.352  11.205 -1.3329 -3.8064 -1.7450
  428MOL0     H57780   5.676  11.435  11.130  0.2767 -1.7808  1.7948
  429MOL0     O57781   6.675   6.408   2.710  0.0823  0.0118  0.8115
  429MOL0     C57782   6.777   6.343   2.687  0.0735  0.0544 -0.7021
  429MOL0     O57783   6.783   6.242   2.605 -0.4625 -0.1296 -0.2102
  429MOL0     C57784   6.668   6.183   2.568 -1.0255  0.4195  0.2774
  429MOL0     C57785   6.612   6.210   2.445 -0.6887 -0.4846  0.9678
  429MOL0     C57786   6.477   6.168   2.417 -0.1957 -0.8314  0.0102
  429MOL0     C57787   6.404   6.087   2.502 -0.4034  0.6192  0.6679
  429MOL0     O57788   6.274   6.049   2.478 -0.1621 -0.0892 -0.6897
  429MOL0     C57789   6.200   6.057   2.359 -0.0899  0.5540  0.5013
  429MOL0     C57790   6.232   5.937   2.259 -0.6853 -1.0449 -0.4199
  429MOL0     C57791   6.172   5.810   2.318  0.0726  0.2760 -0.1502
  429MOL0     C57792   6.017   5.797   2.294 -0.5061 -0.3865 -0.0324
  429MOL0     C57793   5.963   5.675   2.378 -0.3091 -1.3680  0.6279
  429MOL0     C57794   6.019   5.549   2.326 -0.7896 -0.5205  0.4900
  429MOL0     C57795   5.954   5.432   2.401 -0.3896  0.5284 -0.9963
  429MOL0     C57796   5.998   5.406   2.549  0.1919  0.5820  0.1735
  429MOL0     N57797   6.136   5.359   2.564 -0.5198 -0.0437  0.6954
  429MOL0     C57798   6.247   5.418   2.511 -0.5417  0.1081  1.0018
  429MOL0     C57799   6.344   5.324   2.515 -0.4889 -0.4526 -1.4699
  429MOL0     C57800   6.488   5.341   2.463  0.4742 -0.2807  0.2231
  429MOL0     C57801   6.537   5.246   2.358  0.2406  0.0461  0.5050
  429MOL0     C57802   6.446   5.236   2.243  0.1910  0.1520  0.3104
  429MOL0     C57803   6.423   5.378   2.174 -0.3604  0.5476  0.6329
  429MOL0     O57804   6.291   5.420   2.181  0.7494  0.2128  0.2592
  429MOL0     C57805   6.197   5.373   2.081 -0.1393 -0.3177 -0.5031
  429MOL0     C57806   6.173   5.242   2.038 -0.3216  1.1800  0.5946
  429MOL0     C57807   6.095   5.221   1.924 -0.5853 -0.8852 -0.5096
  429MOL0     C57808   6.030   5.330   1.852  0.0991  0.2816  0.0644
  429MOL0     C57809   5.952   5.298   1.741  1.0822  0.2095  1.0651
  429MOL0     O57810   5.893   5.174   1.732  0.0557  0.1914  0.2493
  429MOL0     C57811   5.817   5.140   1.623  1.3039 -0.3041 -0.6689
  429MOL0     C57812   5.840   5.176   1.490  0.0956 -0.0405 -0.7361
  429MOL0     C57813   5.758   5.143   1.386 -0.4648 -0.2146 -0.4500
  429MOL0     C57814   5.648   5.057   1.419  0.2672 -0.5032  0.6997
  429MOL0     O57815   5.560   5.004   1.327  0.1508 -0.3921 -0.3980
  429MOL0     C57816   5.599   4.989   1.193 -0.9599 -0.0282  0.5188
  429MOL0     C57817   5.519   4.888   1.115  0.2598 -0.5892 -0.4752
  429MOL0     C57818   5.386   4.942   1.070 -1.3308  0.0512  0.4720
  429MOL0     C57819   5.316   4.832   0.990  0.4445 -0.9951 -0.4825
  429MOL0     C57820   5.179   4.880   0.949  0.2314 -0.9680 -0.4398
  429MOL0     C57821   5.085   4.764   0.881 -0.2798 -1.7169 -0.0939
  429MOL0     C57822   4.942   4.826   0.860  0.0644 -0.3417 -0.4420
  429MOL0     C57823   4.871   4.752   0.748  0.0554  0.0373  0.5860
  429MOL0    Cl57824   4.844   4.574   0.763  0.1801 -0.0896 -0.4019
  429MOL0     C57825   5.621   5.016   1.552  0.0518  0.3188  1.9368
  429MOL0     C57826   5.698   5.061   1.656  0.2291  0.7355  1.0519
  429MOL0     O57827   5.922   5.397   1.671  0.3186  0.7871 -0.7263
  429MOL0     C57828   6.044   5.460   1.898 -0.2064  0.2836 -0.6551
  429MOL0     C57829   6.125   5.477   2.018 -0.0684  0.1132 -0.0051
  429MOL0     N57830   6.289   5.217   2.586 -0.3574 -0.1883  0.5902
  429MOL0     N57831   6.169   5.242   2.613  0.6437  0.7729 -0.3326
  429MOL0     C57832   6.461   6.052   2.618  0.2942  0.4671  0.3659
  429MOL0     C57833   6.590   6.098   2.656  1.6362 -0.6672  0.3317
  429MOL0     C57834   6.904   6.394   2.737 -0.4750 -0.0460 -1.0062
  429MOL0     C57835   6.903   6.444   2.867  0.4869 -0.1112 -0.4068
  429MOL0     C57836   7.026   6.481   2.929 -0.0319 -0.2044 -0.0759
  429MOL0     C57837   7.145   6.473   2.863 -0.4690 -1.1143  0.9689
  429MOL0     O57838   7.274   6.512   2.905  0.6663 -0.0361 -0.8564
  429MOL0     C57839   7.306   6.512   3.043 -0.5077 -0.2083 -1.1752
  429MOL0     C57840   7.344   6.371   3.098 -0.7279 -0.7100 -0.6996
  429MOL0     C57841   7.400   6.372   3.244  0.1676  0.1845  1.3126
  429MOL0     C57842   7.429   6.240   3.306  1.2492  0.3840 -0.8296
  429MOL0     C57843   7.498   6.156   3.210  0.6902  0.1061  0.7769
  429MOL0     C57844   7.531   6.053   3.146  0.9317 -0.1016  0.1903
  429MOL0     C57845   7.143   6.454   2.729 -0.0484  0.1197 -0.1473
  429MOL0     C57846   7.033   6.411   2.664  0.8195  0.6246  0.3895
  429MOL0     C57847   7.046   6.352   2.528 -0.0026  0.6358  0.7600
  429MOL0     H57848   6.653   6.286   2.378  1.5665 -0.4735  2.2567
  429MOL0     H57849   6.437   6.219   2.330 -0.1986  0.6606  0.8537
  429MOL0     H57850   6.092   6.067   2.373 -0.8243  0.9190 -3.8460
  429MOL0     H57851   6.236   6.151   2.318  5.4254 -1.8933 -1.2865
  429MOL0     H57852   6.341   5.927   2.254 -0.6439 -0.1187 -4.2649
  429MOL0     H57853   6.200   5.964   2.158 -0.3240  2.1484  0.2079
  429MOL0     H57854   6.189   5.814   2.425 -1.6110  2.8352  0.1286
  429MOL0     H57855   6.214   5.721   2.271  0.0264  0.7267 -1.0787
  429MOL0     H57856   5.962   5.886   2.327 -4.1702 -3.2985  2.6930
  429MOL0     H57857   5.989   5.783   2.189 -2.3648  0.2754  0.3353
  429MOL0     H57858   5.992   5.696   2.481  0.8170  1.6146 -0.1981
  429MOL0     H57859   5.855   5.676   2.362 -0.4585  2.1294  1.1179
  429MOL0     H57860   6.001   5.551   2.218  0.3355  0.5742  0.3021
  429MOL0     H57861   6.127   5.540   2.339 -1.0539 -2.3688  1.8265
  429MOL0     H57862   5.977   5.344   2.341  0.1918 -0.8728  1.1914
  429MOL0     H57863   5.845   5.445   2.404 -0.3240  1.6539 -2.3246
  429MOL0     H57864   5.978   5.501   2.599  2.8934  1.9534 -1.1411
  429MOL0     H57865   5.927   5.330   2.584 -0.2077  0.4397 -0.9084
  429MOL0     H57866   6.258   5.518   2.471 -0.5132 -0.7769 -1.3623
  429MOL0     H57867   6.498   5.437   2.413  1.6491  0.3730  1.6387
  429MOL0     H57868   6.557   5.332   2.547 -0.0073 -2.4359  0.4671
  429MOL0     H57869   6.641   5.251   2.323  0.6387  1.1085  1.7469
  429MOL0     H57870   6.533   5.148   2.406 -4.2550 -1.2437 -1.9281
  429MOL0     H57871   6.356   5.201   2.293  2.0726 -3.8987  1.2694
  429MOL0     H57872   6.480   5.153   2.180 -0.1961 -3.6363  4.5878
  429MOL0     H57873   6.441   5.381   2.066 -2.0795 -1.3497  0.2282
  429MOL0     H57874   6.497   5.450   2.208  0.7173  3.2238 -5.8229
  429MOL0     H57875   6.213   5.163   2.100 -2.4440 -1.1239 -0.7784
  429MOL0     H57876   6.083   5.127   1.870 -1.7067 -1.1627  0.1729
  429MOL0     H57877   5.925   5.241   1.471 -1.0440  1.9864  0.7818
  429MOL0     H57878   5.767   5.174   1.283 -2.0068 -0.0748 -0.5722
  429MOL0     H57879   5.590   5.086   1.143  2.0549 -1.3664 -3.0633
  429MOL0     H57880   5.705   4.962   1.198  0.2802  4.2901  2.3408
  429MOL0     H57881   5.588   4.855   1.037  1.5362  1.1567 -0.1529
  429MOL0     H57882   5.507   4.801   1.181 -2.1590 -2.1495 -2.7826
  429MOL0     H57883   5.327   4.983   1.152 -1.5638  0.7030 -0.0094
  429MOL0     H57884   5.395   5.022   0.996 -3.1019  2.3592  2.5944
  429MOL0     H57885   5.315   4.744   1.056 -3.6033 -0.2795  0.6498
  429MOL0     H57886   5.365   4.799   0.897 -3.6621 -0.9377 -2.8950
  429MOL0     H57887   5.187   4.964   0.879  2.5150 -0.1077  0.7647
  429MOL0     H57888   5.130   4.919   1.039 -0.4459 -2.6814 -0.0184
  429MOL0     H57889   5.127   4.741   0.783  1.2953  2.3840 -0.5565
  429MOL0     H57890   5.072   4.674   0.943 -2.0532 -1.9280 -0.7227
  429MOL0     H57891   4.960   4.928   0.823  2.6433 -0.5045  0.2119
  429MOL0     H57892   4.874   4.836   0.945 -0.4252 -0.1044 -0.8513
  429MOL0     H57893   4.775   4.798   0.725  0.2901 -1.7977 -5.7936
  429MOL0     H57894   4.933   4.766   0.660 -2.8758  0.3401 -1.5795
  429MOL0     H57895   5.550   4.936   1.574 -0.0510  0.8015  3.4553
  429MOL0     H57896   5.686   5.032   1.760  1.8584  1.5156  1.4993
  429MOL0     H57897   6.025   5.546   1.836  3.1233  0.6232 -1.4281
  429MOL0     H57898   6.137   5.573   2.067 -1.0797 -1.1065  2.8433
  429MOL0     H57899   6.397   6.006   2.692 -1.0504  0.8731 -0.4789
  429MOL0     H57900   6.629   6.086   2.756  1.2123  2.5301  0.9683
  429MOL0     H57901   6.807   6.434   2.916  0.4104  2.1501  0.0351
  429MOL0     H57902   7.044   6.501   3.034  3.8975  0.1916 -0.6552
  429MOL0     H57903   7.224   6.551   3.103 -0.7308  0.7389 -2.0761
  429MOL0     H57904   7.396   6.572   3.061 -0.7781 -0.9009  4.2114
  429MOL0     H57905   7.432   6.338   3.042  2.4011  0.6055  3.0325
  429MOL0     H57906   7.265   6.295   3.099 -0.4083 -1.0425 -0.4723
  429MOL0     H57907   7.334   6.423   3.315 -2.3662 -1.5434  0.3401
  429MOL0     H57908   7.496   6.425   3.243 -0.0941  0.6780  1.9396
  429MOL0     H57909   7.484   6.256   3.400 -0.8752 -0.4783  0.6304
  429MOL0     H57910   7.335   6.190   3.327  2.5743 -1.8581  0.1503
  429MOL0     H57911   7.536   5.968   3.081 -2.9765 -2.8150  2.9547
  429MOL0     H57912   7.234   6.469   2.673 -0.3686 -1.2698 -1.0999
  429MOL0     H57913   7.153   6.344   2.507 -0.3267  0.5768 -1.0305
  429MOL0     H57914   7.000   6.254   2.515 -0.1286  0.3386  2.9616
  429MOL0     H57915   6.997   6.404   2.445  0.8038 -2.8755 -2.1770
  430MOL0     O57916   5.317   1.853   5.177 -0.2631  0.3795 -0.3165
  430MOL0     C57917   5.213   1.907   5.218 -0.5666  0.6762 -0.0714
  430MOL0     O57918   5.096   1.835   5.255  0.2593  0.3504  0.0012
  430MOL0     C57919   5.104   1.705   5.248 -0.9755  0.2197  0.5506
  430MOL0     C57920   5.196   1.629   5.321 -1.3043  0.0391  0.0451
  430MOL0     C57921   5.195   1.491   5.306  0.4347 -0.0463 -0.2976
  430MOL0     C57922   5.105   1.419   5.223  0.1843 -0.6864 -0.7898
  430MOL0     O57923   5.086   1.283   5.226  0.1660  0.5908 -0.3442
  430MOL0     C57924   5.214   1.215   5.234 -0.5309  0.3640 -0.1290
  430MOL0     C57925   5.199   1.082   5.156  1.0062 -0.0832  0.4222
  430MOL0     C57926   5.130   0.983   5.250 -0.1241  0.4730  0.1797
  430MOL0     C57927   5.095   0.858   5.174 -0.7946  0.0522 -0.0915
  430MOL0     C57928   5.036   0.755   5.280 -0.4179 -0.1146  0.8421
  430MOL0     C57929   4.997   0.619   5.223 -0.4023  0.1446 -0.2234
  430MOL0     C57930   4.878   0.627   5.122  0.5250  0.0978  0.1456
  430MOL0     C57931   4.819   0.505   5.072  0.2188 -0.2634  0.2913
  430MOL0     N57932   4.777   0.423   5.184  0.2698 -0.6582 -0.1993
  430MOL0     C57933   4.682   0.448   5.282  0.2868  0.1633  0.1266
  430MOL0     C57934   4.720   0.381   5.389 -0.0459  0.9329  0.4811
  430MOL0     C57935   4.646   0.387   5.527 -0.7264 -0.2663 -0.7725
  430MOL0     C57936   4.527   0.292   5.525 -0.0910 -0.2725  0.2198
  430MOL0     C57937   4.559   0.163   5.597 -0.0568 -0.9604 -0.2055
  430MOL0     C57938   4.639   0.070   5.499  0.9598  0.4378  1.3341
  430MOL0     O57939   4.666  -0.057   5.563  0.2557 -0.2768 -0.3882
  430MOL0     C57940   4.748  -0.151   5.506 -0.2320 -0.2432 -1.0333
  430MOL0     C57941   4.847  -0.119   5.408  0.4541 -0.4324  0.4157
  430MOL0     C57942   4.920  -0.225   5.358  1.3378  1.3087  1.2470
  430MOL0     C57943   4.897  -0.357   5.398  0.9934  0.1352  0.5411
  430MOL0     C57944   4.969  -0.468   5.340  0.3260 -0.3797 -0.2724
  430MOL0     O57945   5.090  -0.432   5.298 -0.1806  0.2159  0.1617
  430MOL0     C57946   5.187  -0.533   5.271  0.2185 -0.4934  0.0407
  430MOL0     C57947   5.229  -0.550   5.136  0.3862  0.1528 -0.3091
  430MOL0     C57948   5.343  -0.635   5.117  0.3284  0.0366  0.2142
  430MOL0     C57949   5.397  -0.704   5.227 -0.5787  0.7315 -1.1015
  430MOL0     O57950   5.488  -0.814   5.216  0.2063 -0.8205  0.3592
  430MOL0     C57951   5.521  -0.863   5.090 -0.4864  0.5193 -0.0873
  430MOL0     C57952   5.595  -1.004   5.093  0.0585  0.0332 -0.4863
  430MOL0     C57953   5.753  -1.011   5.125 -0.1151 -0.0494 -0.7902
  430MOL0     C57954   5.830  -0.897   5.062  0.1825  0.7654  0.9878
  430MOL0     C57955   5.972  -0.963   5.020  0.8313 -0.5434  0.0758
  430MOL0     C57956   6.080  -0.867   4.980  0.3606  0.3592  0.4787
  430MOL0     C57957   6.213  -0.938   4.932  0.0395  0.3198 -0.1165
  430MOL0     C57958   6.299  -0.987   5.039 -0.6984 -1.2473 -0.6458
  430MOL0    Cl57959   6.337  -0.852   5.158 -0.0407 -0.1135 -0.1613
  430MOL0     C57960   5.353  -0.689   5.358  0.4122 -0.4952  0.6753
  430MOL0     C57961   5.256  -0.601   5.378  0.2206 -0.6623 -0.8218
  430MOL0     O57962   4.919  -0.577   5.324 -0.5353  0.6991  0.2468
  430MOL0     C57963   4.797  -0.388   5.479 -0.7422  0.5636 -0.1889
  430MOL0     C57964   4.733  -0.284   5.547  0.0149 -1.0399  0.7745
  430MOL0     N57965   4.833   0.315   5.356  0.0652 -0.3758 -0.0407
  430MOL0     N57966   4.871   0.341   5.235  0.9293  1.1005  1.0008
  430MOL0     C57967   5.016   1.506   5.153 -0.2157  0.2869  0.5608
  430MOL0     C57968   5.006   1.643   5.171  0.0416  0.0466 -0.2849
  430MOL0     C57969   5.222   2.052   5.237  0.5847  0.2399 -0.4525
  430MOL0     C57970   5.329   2.130   5.177 -0.1132  0.1476  0.0686
  430MOL0     C57971   5.345   2.268   5.193  0.8085  0.0180  0.7267
  430MOL0     C57972   5.238   2.338   5.258 -0.7878  1.0702 -0.3463
  430MOL0     O57973   5.232   2.468   5.277  0.7371 -0.3858 -0.0396
  430MOL0     C57974   5.240   2.544   5.158 -0.3397 -0.6434 -0.5475
  430MOL0     C57975   5.125   2.525   5.061  0.6487 -0.1390 -0.1893
  430MOL0     C57976   5.113   2.619   4.937  0.1300  0.8725 -0.3275
  430MOL0     C57977   4.958   2.654   4.920 -0.0773 -0.4230 -0.3601
  430MOL0     C57978   4.924   2.729   4.802 -0.2722  1.0264  0.3721
  430MOL0     C57979   4.882   2.794   4.708  0.0651 -0.1381 -0.0623
  430MOL0     C57980   5.136   2.266   5.324  0.3776 -0.3208 -0.4422
  430MOL0     C57981   5.125   2.127   5.320  0.7088 -0.2943 -0.0982
  430MOL0     C57982   5.019   2.073   5.401  0.2369 -0.3198 -0.4611
  430MOL0     H57983   5.265   1.678   5.390  0.0883 -1.9399  0.1440
  430MOL0     H57984   5.285   1.457   5.355  2.6353  2.3685 -2.3985
  430MOL0     H57985   5.294   1.278   5.193 -0.0486  0.8664  1.5143
  430MOL0     H57986   5.234   1.190   5.338  1.8607 -2.0059 -1.0394
  430MOL0     H57987   5.296   1.035   5.134  1.1383  0.0837  0.6543
  430MOL0     H57988   5.144   1.117   5.068  2.0267  5.3775  1.6353
  430MOL0     H57989   5.035   1.036   5.250 -0.2592  0.4183 -2.6012
  430MOL0     H57990   5.167   0.969   5.352  0.1767 -0.4713 -0.0488
  430MOL0     H57991   5.011   0.876   5.106 -1.4005 -1.3346  0.2527
  430MOL0     H57992   5.176   0.819   5.111 -0.1357 -0.5678  1.0992
  430MOL0     H57993   5.115   0.731   5.352 -2.2200 -2.9236  2.0327
  430MOL0     H57994   4.950   0.797   5.332 -0.6609 -1.3304  1.4510
  430MOL0     H57995   5.088   0.573   5.181 -1.1013 -0.2762 -1.3248
  430MOL0     H57996   4.975   0.557   5.310  2.1445 -1.4552 -0.5996
  430MOL0     H57997   4.917   0.684   5.038 -1.2597  1.6694  0.3171
  430MOL0     H57998   4.802   0.687   5.172 -0.6218  0.3857 -1.8461
  430MOL0     H57999   4.735   0.539   5.012 -0.2922 -0.0722  1.0945
  430MOL0     H58000   4.899   0.449   5.022  0.2077 -1.8227  1.8985
  430MOL0     H58001   4.601   0.519   5.273  0.4938  0.3329 -0.4878
  430MOL0     H58002   4.723   0.368   5.603  1.1541  1.7197 -2.0638
  430MOL0     H58003   4.603   0.488   5.532 -1.1196 -0.3471 -2.2130
  430MOL0     H58004   4.452   0.349   5.581 -0.3493  2.0409 -2.2701
  430MOL0     H58005   4.486   0.282   5.424 -1.0747  0.9726  0.4780
  430MOL0     H58006   4.468   0.113   5.631 -0.9384 -1.2656 -2.7674
  430MOL0     H58007   4.631   0.171   5.679  1.4335 -3.8914 -1.0826
  430MOL0     H58008   4.730   0.123   5.469 -0.2527  0.3982 -3.0557
  430MOL0     H58009   4.577   0.052   5.411  0.5009  0.2208  1.6939
  430MOL0     H58010   4.863  -0.020   5.367 -3.1639  0.8991  1.8016
  430MOL0     H58011   4.997  -0.198   5.287  0.4764  1.0389  0.1898
  430MOL0     H58012   5.163  -0.503   5.063 -2.9852  2.0404  3.5391
  430MOL0     H58013   5.379  -0.647   5.015 -1.0309 -1.6089 -0.1165
  430MOL0     H58014   5.435  -0.880   5.025  0.3764  0.0676 -1.1415
  430MOL0     H58015   5.588  -0.794   5.039 -0.8964  0.5151 -0.6368
  430MOL0     H58016   5.546  -1.079   5.157 -0.3884 -2.6543 -3.7234
  430MOL0     H58017   5.590  -1.043   4.991 -1.3220 -2.4984  0.4462
  430MOL0     H58018   5.750  -1.011   5.235  0.2344  0.7595 -0.7691
  430MOL0     H58019   5.793  -1.109   5.100 -0.3603 -0.8519  1.6954
  430MOL0     H58020   5.842  -0.811   5.128  3.8105  1.2312 -0.0486
  430MOL0     H58021   5.790  -0.862   4.967 -0.2002  3.6992  2.1261
  430MOL0     H58022   5.944  -1.024   4.933 -0.8043 -1.3517  1.1253
  430MOL0     H58023   6.011  -1.029   5.098  1.5739 -1.3504 -0.9546
  430MOL0     H58024   6.038  -0.807   4.898 -1.1373 -0.6584  0.4719
  430MOL0     H58025   6.104  -0.793   5.057  0.8243 -1.1362  1.8070
  430MOL0     H58026   6.273  -0.863   4.880 -0.1665  0.3139 -0.3624
  430MOL0     H58027   6.192  -1.022   4.865 -0.6799 -0.3889  0.9652
  430MOL0     H58028   6.246  -1.068   5.090 -3.7044  2.9086  3.7481
  430MOL0     H58029   6.397  -1.015   4.999  1.9864  5.5724 -0.2025
  430MOL0     H58030   5.401  -0.744   5.438 -0.1366 -1.1739  0.5437
  430MOL0     H58031   5.233  -0.591   5.484  1.7080 -2.6847 -0.2277
  430MOL0     H58032   4.796  -0.489   5.518  1.7175  1.1673  1.7497
  430MOL0     H58033   4.669  -0.298   5.633  1.4454  0.9014  2.2533
  430MOL0     H58034   4.942   1.455   5.092 -1.4528  0.3699  1.9324
  430MOL0     H58035   4.938   1.697   5.106  1.6291  0.6197 -1.5220
  430MOL0     H58036   5.409   2.078   5.126  2.2571  0.6755  2.9290
  430MOL0     H58037   5.432   2.323   5.159  1.8238 -0.0965  2.9848
  430MOL0     H58038   5.329   2.519   5.100 -0.4315 -2.1311 -0.0807
  430MOL0     H58039   5.247   2.645   5.200  1.2979 -1.5821  1.5638
  430MOL0     H58040   5.044   2.543   5.132 -0.4687  0.9731 -1.6912
  430MOL0     H58041   5.120   2.420   5.031  1.0697 -1.0849  2.7491
  430MOL0     H58042   5.160   2.568   4.852  1.4136  0.7389  0.4358
  430MOL0     H58043   5.173   2.710   4.943  1.1945  0.2254 -0.8761
  430MOL0     H58044   4.902   2.560   4.909 -1.2576  0.5125 -3.2319
  430MOL0     H58045   4.931   2.724   5.000  2.5107 -2.7193  2.8345
  430MOL0     H58046   4.845   2.872   4.645 -0.4764  1.9824  2.6683
  430MOL0     H58047   5.060   2.331   5.364 -0.5713 -0.5183 -1.8616
  430MOL0     H58048   4.954   2.029   5.325  0.2562 -0.0368 -0.6440
  430MOL0     H58049   5.045   1.989   5.466  0.3856 -1.1510 -1.5646
  430MOL0     H58050   4.956   2.132   5.468 -1.5040 -4.0472  1.4804
  431MOL0     O58051   8.209   9.331   5.022  0.3374 -1.0853  0.6437
  431MOL0     C58052   8.104   9.336   5.078 -0.3653 -0.2157 -0.1587
  431MOL0     O58053   8.060   9.445   5.142 -0.3045  0.2859  0.2036
  431MOL0     C58054   8.152   9.530   5.200 -0.4850 -0.8108 -0.4285
  431MOL0     C58055   8.127   9.668   5.186  0.0147 -0.3894 -0.0095
  431MOL0     C58056   8.204   9.775   5.230  0.3735 -0.4933 -0.7467
  431MOL0     C58057   8.307   9.743   5.312  0.4765 -1.3707 -0.7306
  431MOL0     O58058   8.400   9.833   5.368 -0.4147 -0.2988  0.2085
  431MOL0     C58059   8.438   9.944   5.286 -0.0830  0.2241 -0.4086
  431MOL0     C58060   8.578   9.997   5.353  0.5055 -0.5990 -0.0466
  431MOL0     C58061   8.625  10.128   5.287 -0.6866 -0.4619 -0.3974
  431MOL0     C58062   8.768  10.167   5.335 -0.7663  0.2785  0.2820
  431MOL0     C58063   8.887  10.100   5.267 -0.2856 -0.4414 -0.6046
  431MOL0     C58064   8.932   9.983   5.352  0.0334 -0.5052  0.0397
  431MOL0     C58065   9.068   9.937   5.290  0.3875 -0.5518  0.4011
  431MOL0     C58066   9.162   9.900   5.410 -0.1004  0.6977  0.0011
  431MOL0     N58067   9.178  10.014   5.488  0.0528  0.4547  0.3109
  431MOL0     C58068   9.235  10.135   5.455  0.9510  0.2735 -0.4002
  431MOL0     C58069   9.241  10.218   5.566  1.5525 -0.1993  0.4827
  431MOL0     C58070   9.280  10.354   5.574  0.3376  0.5778  0.2777
  431MOL0     C58071   9.183  10.439   5.493 -0.2696 -0.3862  0.0273
  431MOL0     C58072   9.037  10.433   5.522  0.8918  0.3917 -0.1286
  431MOL0     C58073   9.009  10.479   5.667 -0.2672  0.8540  0.9678
  431MOL0     O58074   9.064  10.613   5.675  0.2157 -1.0140  0.1860
  431MOL0     C58075   9.091  10.638   5.810  0.5795  0.1394 -0.5165
  431MOL0     C58076   9.037  10.579   5.928  0.1673 -1.0936  1.2624
  431MOL0     C58077   9.076  10.610   6.057  0.2430  0.4395 -0.2987
  431MOL0     C58078   9.167  10.710   6.079  0.7640 -0.0632 -0.2472
  431MOL0     C58079   9.206  10.761   6.217 -0.0018 -0.3634  0.6001
  431MOL0     O58080   9.278  10.876   6.214 -0.6914 -0.0191  0.7885
  431MOL0     C58081   9.300  10.955   6.321  0.1120  0.1440  0.7388
  431MOL0     C58082   9.282  10.929   6.465 -0.1398  0.2378  1.9385
  431MOL0     C58083   9.338  11.018   6.554  0.5421 -0.0045  0.9045
  431MOL0     C58084   9.418  11.121   6.525 -0.8476  0.1315 -0.4077
  431MOL0     O58085   9.484  11.200   6.618  0.5490 -0.2139  0.1962
  431MOL0     C58086   9.408  11.233   6.732 -0.9360  0.3273  0.5896
  431MOL0     C58087   9.302  11.342   6.690  0.5545 -1.1503 -0.3695
  431MOL0     C58088   9.243  11.420   6.805 -0.5913  0.1233  0.7577
  431MOL0     C58089   9.194  11.554   6.746 -0.8576 -0.3912  0.9075
  431MOL0     C58090   9.096  11.640   6.829  0.1365  0.0304 -0.1134
  431MOL0     C58091   9.082  11.767   6.749  0.2382  0.3105 -0.8456
  431MOL0     C58092   9.021  11.871   6.845 -0.1206 -0.5266  0.2733
  431MOL0     C58093   9.129  11.948   6.909  0.0647 -0.7971 -0.1966
  431MOL0    Cl58094   9.206  12.052   6.781  0.2201 -0.0969 -0.0562
  431MOL0     C58095   9.432  11.154   6.387  0.4388  0.0683  1.1799
  431MOL0     C58096   9.375  11.070   6.286  0.1059 -0.0286 -0.0784
  431MOL0     O58097   9.165  10.698   6.317 -0.2482  0.4752 -0.2998
  431MOL0     C58098   9.223  10.766   5.958  0.8000 -0.7858  0.8400
  431MOL0     C58099   9.188  10.738   5.826  0.1527  0.3107 -0.1298
  431MOL0     N58100   9.190  10.143   5.671 -0.1467  0.6648  0.8222
  431MOL0     N58101   9.163  10.021   5.623 -0.1494  0.1209 -0.1723
  431MOL0     C58102   8.332   9.599   5.339 -0.1847 -0.2344  1.0271
  431MOL0     C58103   8.260   9.495   5.277 -0.0143  0.2580  0.3902
  431MOL0     C58104   7.995   9.244   5.057  0.3566  0.2125 -0.2533
  431MOL0     C58105   7.927   9.201   5.170  0.4512  0.0803 -0.5846
  431MOL0     C58106   7.819   9.106   5.160  0.5538 -0.1709  0.2068
  431MOL0     C58107   7.806   9.033   5.046  1.0104  0.1657  0.8374
  431MOL0     O58108   7.712   8.944   5.027  0.2537  0.0787 -0.2725
  431MOL0     C58109   7.684   8.857   5.140  0.0691 -0.7606 -0.4262
  431MOL0     C58110   7.662   8.717   5.083  0.9748 -0.3235 -0.4091
  431MOL0     C58111   7.527   8.709   4.998 -0.3853 -0.8658 -0.1385
  431MOL0     C58112   7.409   8.715   5.099 -0.3064  0.1693  0.9662
  431MOL0     C58113   7.309   8.610   5.063 -0.2776  0.7068  0.0015
  431MOL0     C58114   7.221   8.529   5.038  0.2884 -0.7951  0.4113
  431MOL0     C58115   7.872   9.078   4.928  1.4854  0.1348  0.3571
  431MOL0     C58116   7.982   9.169   4.939  0.8880 -0.2689  0.3930
  431MOL0     C58117   8.065   9.187   4.821 -0.2290  0.0233  1.5045
  431MOL0     H58118   8.043   9.697   5.124 -3.9903 -4.0228  3.1099
  431MOL0     H58119   8.180   9.875   5.195 -2.3207  0.0639  2.1725
  431MOL0     H58120   8.454   9.924   5.180  3.0481  2.8390 -0.5925
  431MOL0     H58121   8.359  10.018   5.299 -1.2378 -1.0575  0.0608
  431MOL0     H58122   8.646   9.917   5.321  0.6830  0.0758 -1.4534
  431MOL0     H58123   8.572  10.007   5.461  0.3888  1.3068 -0.2031
  431MOL0     H58124   8.551  10.204   5.314 -0.0630  0.2179 -0.5367
  431MOL0     H58125   8.615  10.127   5.178 -1.5670  3.0611 -0.4764
  431MOL0     H58126   8.785  10.274   5.316  0.1870  0.3117  1.2407
  431MOL0     H58127   8.762  10.151   5.443 -1.5738  1.4188  0.4362
  431MOL0     H58128   8.861  10.062   5.168 -1.1883  0.3638 -0.6908
  431MOL0     H58129   8.955  10.184   5.250 -3.5353  2.5529  0.0387
  431MOL0     H58130   8.940  10.009   5.458 -2.2368 -3.7454  1.1684
  431MOL0     H58131   8.869   9.895   5.366  0.4289 -0.6099  1.2879
  431MOL0     H58132   9.116  10.024   5.245  1.3610 -1.6689 -0.7911
  431MOL0     H58133   9.059   9.863   5.211 -0.2997  0.9952 -1.0301
  431MOL0     H58134   9.122   9.825   5.479  0.8175  0.5421  0.3672
  431MOL0     H58135   9.259   9.859   5.380 -1.1552 -3.0208  1.0954
  431MOL0     H58136   9.257  10.161   5.352 -2.2988  1.7727 -0.8397
  431MOL0     H58137   9.282  10.375   5.682  2.9199 -2.9717  1.0881
  431MOL0     H58138   9.380  10.375   5.535 -0.1618 -0.1415 -1.4720
  431MOL0     H58139   9.227  10.537   5.516  0.9916 -0.4941 -1.7115
  431MOL0     H58140   9.198  10.431   5.385  2.1075  1.9192  0.0665
  431MOL0     H58141   9.005  10.332   5.495  3.3593 -0.4405 -0.2115
  431MOL0     H58142   8.983  10.503   5.458 -0.7800 -1.4970 -0.9251
  431MOL0     H58143   9.058  10.409   5.735 -0.4069  2.6169  3.0056
  431MOL0     H58144   8.903  10.469   5.692 -0.5506 -0.7403 -0.7343
  431MOL0     H58145   8.970  10.495   5.913 -2.7934  1.2746  0.0717
  431MOL0     H58146   9.025  10.560   6.138 -1.1823  1.7190 -0.3595
  431MOL0     H58147   9.225  10.841   6.490  3.1303 -2.6589  0.1480
  431MOL0     H58148   9.326  11.000   6.660  0.3761 -2.5095  0.5093
  431MOL0     H58149   9.375  11.146   6.789 -0.7662  0.0928  0.3330
  431MOL0     H58150   9.475  11.293   6.794  0.0417 -0.1960  0.0734
  431MOL0     H58151   9.344  11.408   6.614 -1.5677  0.5316 -0.1524
  431MOL0     H58152   9.225  11.281   6.641  1.0074 -2.2924  0.2826
  431MOL0     H58153   9.155  11.370   6.846 -1.3716  1.3065  0.5415
  431MOL0     H58154   9.298  11.431   6.899  2.8444 -1.5494 -0.8739
  431MOL0     H58155   9.153  11.548   6.644  4.6435  1.2764 -1.8185
  431MOL0     H58156   9.288  11.607   6.729 -1.7440  1.1550  0.5012
  431MOL0     H58157   9.136  11.654   6.930 -0.6881  0.7062  0.1340
  431MOL0     H58158   8.996  11.596   6.841 -0.6910  1.7894 -0.2464
  431MOL0     H58159   9.181  11.802   6.719  0.1168  0.1871 -1.4010
  431MOL0     H58160   9.012  11.749   6.666 -1.9510 -2.6635  1.4520
  431MOL0     H58161   8.954  11.836   6.924  0.6062  1.9842  2.1324
  431MOL0     H58162   8.971  11.951   6.790 -0.9186  0.7390  2.6840
  431MOL0     H58163   9.092  12.022   6.981 -3.7270 -1.0656 -1.6062
  431MOL0     H58164   9.199  11.884   6.964  1.0201 -1.4787 -2.1436
  431MOL0     H58165   9.497  11.234   6.352  0.9034  0.0281  1.9197
  431MOL0     H58166   9.385  11.087   6.179  3.8169 -1.9435 -0.1907
  431MOL0     H58167   9.298  10.844   5.955 -1.4370  1.4458  0.1560
  431MOL0     H58168   9.223  10.786   5.735 -0.4013 -0.0038 -0.5129
  431MOL0     H58169   8.404   9.557   5.409  0.8927  0.8498  0.6017
  431MOL0     H58170   8.268   9.388   5.295  0.1875 -0.3569 -2.7596
  431MOL0     H58171   7.938   9.253   5.264  0.3586  0.8733 -1.0091
  431MOL0     H58172   7.747   9.100   5.240  2.1306  2.1199  1.9424
  431MOL0     H58173   7.601   8.895   5.199  1.3537  0.2970  0.7941
  431MOL0     H58174   7.769   8.852   5.209  1.5765  2.3731 -1.8529
  431MOL0     H58175   7.645   8.654   5.171 -0.5322  0.8931  0.2283
  431MOL0     H58176   7.748   8.673   5.032  2.0641  0.9597  0.2541
  431MOL0     H58177   7.530   8.610   4.952 -0.6923  0.5009 -3.3630
  431MOL0     H58178   7.520   8.793   4.928 -1.2243 -3.1672 -2.9857
  431MOL0     H58179   7.447   8.686   5.197 -2.4646  2.2707  2.5212
  431MOL0     H58180   7.373   8.816   5.120  0.9487  0.7109  0.6077
  431MOL0     H58181   7.133   8.479   5.002  0.9213  0.4905 -3.3973
  431MOL0     H58182   7.864   9.018   4.838  0.8826 -0.4113  0.7674
  431MOL0     H58183   8.012   9.144   4.737  1.9278 -1.1096  0.6421
  431MOL0     H58184   8.094   9.285   4.781  0.2338 -1.0432 -0.9366
  431MOL0     H58185   8.159   9.132   4.830 -0.8252 -1.3122 -0.1357
  432MOL0     O58186   8.462   4.554   2.374 -0.3001 -0.6503  0.2482
  432MOL0     C58187   8.363   4.555   2.299 -0.2522  0.3721 -0.2116
  432MOL0     O58188   8.364   4.590   2.173  1.4674 -0.1128  0.0455
  432MOL0     C58189   8.464   4.657   2.118  1.0356  0.9531  0.7257
  432MOL0     C58190   8.433   4.779   2.062  0.2759  0.2398  0.4722
  432MOL0     C58191   8.521   4.872   2.000 -0.3570 -0.3648 -0.1638
  432MOL0     C58192   8.660   4.832   2.006 -0.5789  0.1676  0.9570
  432MOL0     O58193   8.771   4.907   1.954  0.2248  0.0022 -0.8152
  432MOL0     C58194   8.741   4.985   1.843  0.6773 -0.0456  0.0569
  432MOL0     C58195   8.866   5.031   1.787  0.5928 -0.4262  0.3098
  432MOL0     C58196   8.830   5.108   1.650 -0.0290  0.3842 -0.8976
  432MOL0     C58197   8.940   5.194   1.587 -0.2651 -0.0432 -0.3093
  432MOL0     C58198   9.045   5.116   1.504 -1.2154 -0.6719  0.7883
  432MOL0     C58199   9.134   5.214   1.439 -0.0934 -0.6033  0.0066
  432MOL0     C58200   9.263   5.161   1.372  0.1153  0.5887 -0.0327
  432MOL0     C58201   9.317   5.253   1.265  0.2620  0.3999 -0.0094
  432MOL0     N58202   9.244   5.235   1.131  0.7847  0.3605  0.1799
  432MOL0     C58203   9.313   5.212   1.015  0.0051 -1.1169 -0.0255
  432MOL0     C58204   9.215   5.199   0.917  0.7114  0.8099  0.0534
  432MOL0     C58205   9.238   5.194   0.771 -0.7533  1.3707  0.3099
  432MOL0     C58206   9.220   5.320   0.700  0.1478  0.3433  0.1075
  432MOL0     C58207   9.251   5.444   0.786 -0.0892 -0.2467  0.0206
  432MOL0     C58208   9.269   5.567   0.691 -0.4211  0.1845 -0.1089
  432MOL0     O58209   9.382   5.553   0.609  1.0215  0.3631  0.6238
  432MOL0     C58210   9.398   5.641   0.504  0.2147 -0.5220  0.2646
  432MOL0     C58211   9.480   5.609   0.402 -0.0180 -0.0086  0.4827
  432MOL0     C58212   9.483   5.687   0.284  0.6506 -0.4552  0.5514
  432MOL0     C58213   9.410   5.809   0.266  0.3138  0.1153 -0.0274
  432MOL0     C58214   9.416   5.887   0.137 -0.0302  0.0125  0.3070
  432MOL0     O58215   9.495   5.843   0.034  0.3733  0.1749 -0.1315
  432MOL0     C58216   9.496   5.907  -0.080 -0.1304  0.7818 -0.2913
  432MOL0     C58217   9.605   5.977  -0.134 -0.5373 -0.1267 -0.0845
  432MOL0     C58218   9.604   6.027  -0.260  0.9365  0.2646  0.0567
  432MOL0     C58219   9.505   6.009  -0.350 -0.2356 -0.1872  0.1004
  432MOL0     O58220   9.523   6.066  -0.473 -0.4344  0.3873 -0.2960
  432MOL0     C58221   9.498   5.988  -0.590 -0.7841 -0.2857 -0.5763
  432MOL0     C58222   9.540   6.060  -0.717  0.5188  0.0473 -0.1476
  432MOL0     C58223   9.693   6.089  -0.712  0.0249 -0.2668  0.4804
  432MOL0     C58224   9.748   6.081  -0.854  0.2658  0.6584  0.4123
  432MOL0     C58225   9.872   6.161  -0.886  0.4160  0.5114  0.9846
  432MOL0     C58226   9.856   6.304  -0.892  0.5921 -0.1527 -0.5238
  432MOL0     C58227   9.939   6.358  -1.005 -0.5803 -0.3458 -0.3049
  432MOL0     C58228   9.937   6.506  -0.999  0.5725 -0.6213 -0.5633
  432MOL0    Cl58229  10.072   6.548  -1.102 -0.0821 -0.4580 -0.4794
  432MOL0     C58230   9.402   5.919  -0.307  0.0978  0.1275  0.0792
  432MOL0     C58231   9.389   5.885  -0.168 -0.7791 -0.9733 -0.3922
  432MOL0     O58232   9.340   5.984   0.125 -0.0419  0.2278  0.2431
  432MOL0     C58233   9.331   5.842   0.377 -0.5137 -0.1046 -0.6839
  432MOL0     C58234   9.336   5.768   0.501  0.4752  0.0840  0.2053
  432MOL0     N58235   9.085   5.209   0.978  0.0441 -0.9604  0.6972
  432MOL0     N58236   9.106   5.231   1.104 -0.7692 -0.0522 -0.1816
  432MOL0     C58237   8.687   4.708   2.067  0.4800 -0.4383  0.8700
  432MOL0     C58238   8.594   4.613   2.106 -0.6033 -0.0309 -0.2345
  432MOL0     C58239   8.232   4.499   2.352 -0.1857  0.8126 -1.0264
  432MOL0     C58240   8.224   4.496   2.494  0.6910  0.1136 -0.0096
  432MOL0     C58241   8.108   4.444   2.555  0.3878 -0.7158  0.1711
  432MOL0     C58242   7.998   4.406   2.481  0.1719  0.3033 -0.1116
  432MOL0     O58243   7.898   4.347   2.548 -0.2877 -0.3910  0.8233
  432MOL0     C58244   7.788   4.423   2.602 -0.5007 -0.7506  0.5180
  432MOL0     C58245   7.704   4.509   2.498  0.1178  0.6626  0.5019
  432MOL0     C58246   7.570   4.570   2.558  0.1210  0.5555 -1.0709
  432MOL0     C58247   7.532   4.695   2.470 -0.0833  0.3387 -0.1704
  432MOL0     C58248   7.532   4.655   2.324 -0.3207 -0.8355 -0.3565
  432MOL0     C58249   7.554   4.636   2.208  0.4774 -0.5510  0.2808
  432MOL0     C58250   8.010   4.406   2.346 -0.2185  0.5892  0.4775
  432MOL0     C58251   8.122   4.441   2.272  0.6083  0.2732  0.1234
  432MOL0     C58252   8.118   4.431   2.116  0.1749  0.1996  0.1013
  432MOL0     H58253   8.332   4.816   2.047  0.2786  0.7995  1.7450
  432MOL0     H58254   8.504   4.974   1.966 -2.4350  0.2111  2.3047
  432MOL0     H58255   8.672   4.936   1.774 -0.5986  1.6169  0.0744
  432MOL0     H58256   8.682   5.068   1.882  1.6385  0.0322  1.3827
  432MOL0     H58257   8.916   4.939   1.755  1.6759  1.7311 -5.3392
  432MOL0     H58258   8.920   5.093   1.859  3.7423 -1.3049 -1.1138
  432MOL0     H58259   8.750   5.180   1.668  0.6310  0.7774  0.6405
  432MOL0     H58260   8.786   5.042   1.575 -0.0809  0.0398 -0.5648
  432MOL0     H58261   8.884   5.270   1.533  0.0197  1.3838  1.3068
  432MOL0     H58262   8.983   5.252   1.670 -0.6650  1.0105 -0.8192
  432MOL0     H58263   9.114   5.060   1.567  2.7460  2.4976 -0.2974
  432MOL0     H58264   8.996   5.054   1.428  0.8717  0.8907 -2.0427
  432MOL0     H58265   9.067   5.274   1.377 -3.0374 -1.6848  1.8876
  432MOL0     H58266   9.167   5.286   1.515  1.4043 -2.2003  0.9423
  432MOL0     H58267   9.234   5.073   1.314 -0.6443  2.3682 -2.5518
  432MOL0     H58268   9.342   5.132   1.442  0.3929  2.5148  0.5175
  432MOL0     H58269   9.299   5.353   1.306 -0.2982  0.0571  0.5990
  432MOL0     H58270   9.426   5.250   1.260  0.2664 -1.7995  0.3257
  432MOL0     H58271   9.419   5.216   0.992  0.5153 -0.9970  2.1827
  432MOL0     H58272   9.338   5.152   0.753 -2.0623 -0.6968 -3.0741
  432MOL0     H58273   9.166   5.123   0.730 -0.9208  1.1149  1.0318
  432MOL0     H58274   9.276   5.312   0.607  0.0037 -1.0755  0.1354
  432MOL0     H58275   9.113   5.326   0.678  0.0242 -0.7738  0.3793
  432MOL0     H58276   9.343   5.437   0.845 -0.2794  1.7242  0.6239
  432MOL0     H58277   9.167   5.479   0.847 -0.6503  2.0172 -1.9142
  432MOL0     H58278   9.274   5.659   0.749  0.0023  0.3816 -0.4555
  432MOL0     H58279   9.177   5.568   0.631 -0.9481 -1.9230  0.5665
  432MOL0     H58280   9.545   5.524   0.417  1.5712  1.1157  0.2221
  432MOL0     H58281   9.561   5.666   0.212 -0.4530  1.1832 -1.2350
  432MOL0     H58282   9.696   5.994  -0.077 -1.4610  4.0705  0.4113
  432MOL0     H58283   9.687   6.093  -0.281  0.5585  0.9269  0.6031
  432MOL0     H58284   9.563   5.900  -0.581  0.5691  0.8705  2.0890
  432MOL0     H58285   9.394   5.956  -0.594 -0.4330 -1.6175  0.2548
  432MOL0     H58286   9.521   5.994  -0.802 -2.3710 -0.5878  0.8796
  432MOL0     H58287   9.478   6.151  -0.721 -2.1463 -1.2084  4.7353
  432MOL0     H58288   9.713   6.186  -0.665  1.9171 -1.1545  1.5879
  432MOL0     H58289   9.755   6.020  -0.655  1.7808  0.0288 -0.9843
  432MOL0     H58290   9.663   6.112  -0.916 -1.8617  1.7364  3.6040
  432MOL0     H58291   9.774   5.977  -0.876 -0.4786  0.7781 -1.1866
  432MOL0     H58292   9.904   6.122  -0.983 -3.1014  0.7820 -0.4212
  432MOL0     H58293   9.956   6.134  -0.821  1.0787 -2.8806 -1.0105
  432MOL0     H58294   9.753   6.332  -0.914  2.1510  3.7300 -4.2118
  432MOL0     H58295   9.868   6.349  -0.793  1.1834  1.5441 -1.3373
  432MOL0     H58296   9.885   6.316  -1.091 -1.1097  0.3016 -0.2978
  432MOL0     H58297  10.039   6.319  -0.986 -0.3231  0.8974  1.0281
  432MOL0     H58298   9.848   6.550  -1.045 -0.2308 -2.5281 -0.8886
  432MOL0     H58299   9.950   6.538  -0.895  0.4065  0.3150 -0.8145
  432MOL0     H58300   9.327   5.896  -0.382  1.1486 -1.2251 -0.6002
  432MOL0     H58301   9.289   5.847  -0.149 -2.0848  1.8162 -1.1927
  432MOL0     H58302   9.274   5.933   0.362  0.8425  0.6528 -1.4401
  432MOL0     H58303   9.266   5.788   0.581 -0.9733 -1.6657 -0.5647
  432MOL0     H58304   8.785   4.663   2.060 -0.3246 -2.3388  1.2873
  432MOL0     H58305   8.629   4.513   2.133 -0.0634 -0.6543 -2.9495
  432MOL0     H58306   8.295   4.537   2.564  0.0773 -1.0306  1.3308
  432MOL0     H58307   8.093   4.446   2.663 -1.2423  0.4331 -0.0277
  432MOL0     H58308   7.831   4.505   2.661  2.6848  0.1039 -2.6437
  432MOL0     H58309   7.734   4.354   2.668 -2.3891 -1.0914 -1.2908
  432MOL0     H58310   7.689   4.441   2.414  0.6914  1.3718 -0.1886
  432MOL0     H58311   7.775   4.589   2.477 -0.6271  1.1042 -0.3828
  432MOL0     H58312   7.579   4.614   2.658  1.8962  0.7738 -1.2912
  432MOL0     H58313   7.491   4.495   2.563 -2.4930  3.1571 -0.8367
  432MOL0     H58314   7.426   4.711   2.488 -0.7247 -1.2685 -2.1548
  432MOL0     H58315   7.595   4.783   2.484 -1.7972  1.4816  0.7340
  432MOL0     H58316   7.584   4.636   2.105  0.1015  4.0908 -0.0130
  432MOL0     H58317   7.920   4.387   2.288  0.7665  2.2846 -1.7587
  432MOL0     H58318   8.107   4.329   2.079 -0.4618  1.0932 -2.4410
  432MOL0     H58319   8.025   4.477   2.082 -0.2292 -1.0492 -0.5326
  432MOL0     H58320   8.204   4.471   2.062  1.0778 -0.1104  1.2777
  433MOL0     O58321   6.384  11.200   0.530  0.3838  0.3390  0.0714
  433MOL0     C58322   6.419  11.140   0.626  1.3931  1.4642  0.3974
  433MOL0     O58323   6.341  11.084   0.722 -0.0832 -0.3559 -0.0575
  433MOL0     C58324   6.210  11.117   0.715  0.2047  0.5744 -1.1274
  433MOL0     C58325   6.158  11.239   0.772  0.0920  0.8088  0.8835
  433MOL0     C58326   6.020  11.266   0.766 -0.9404  0.1023  0.0348
  433MOL0     C58327   5.931  11.177   0.716  0.0694  0.4880 -0.0202
  433MOL0     O58328   5.800  11.228   0.729 -1.0229 -0.4069  0.1960
  433MOL0     C58329   5.700  11.139   0.682 -0.0606 -0.1074  0.6456
  433MOL0     C58330   5.561  11.212   0.707  0.2756  0.6402  0.6856
  433MOL0     C58331   5.522  11.320   0.601 -0.6562  0.1183  0.8148
  433MOL0     C58332   5.488  11.277   0.458  0.4505  0.2645  1.2825
  433MOL0     C58333   5.423  11.387   0.367  0.8204 -1.1099  0.2476
  433MOL0     C58334   5.322  11.337   0.264  0.1947 -0.3030  0.3526
  433MOL0     C58335   5.372  11.212   0.180  0.7867 -0.3836 -0.6846
  433MOL0     C58336   5.260  11.186   0.074  0.4030 -0.6659 -0.4556
  433MOL0     N58337   5.301  11.074  -0.005 -0.3592 -0.5134  0.1247
  433MOL0     C58338   5.408  11.074  -0.095 -0.2396 -0.4254 -0.6915
  433MOL0     C58339   5.407  10.944  -0.133  0.2336 -0.8674 -0.2147
  433MOL0     C58340   5.512  10.896  -0.225  0.1203  0.9322 -0.1720
  433MOL0     C58341   5.620  10.800  -0.162  0.3040 -0.1785  0.7168
  433MOL0     C58342   5.705  10.864  -0.056 -0.2668 -0.1884 -0.1302
  433MOL0     C58343   5.673  10.809   0.081 -0.1875 -0.8769 -0.2602
  433MOL0     O58344   5.742  10.885   0.189  0.4674  0.4319 -0.4898
  433MOL0     C58345   5.881  10.869   0.198 -0.1310  0.2522  0.4540
  433MOL0     C58346   5.951  10.748   0.160  0.7917  0.3176  0.9494
  433MOL0     C58347   6.085  10.733   0.203 -0.1581 -0.1207  0.5592
  433MOL0     C58348   6.158  10.836   0.261  0.5824 -0.0809  0.6155
  433MOL0     C58349   6.305  10.824   0.277  0.3161 -0.3695  0.4215
  433MOL0     O58350   6.331  10.808   0.417 -0.0578 -0.3832  0.9705
  433MOL0     C58351   6.448  10.749   0.466 -0.0546  0.0767  0.0664
  433MOL0     C58352   6.556  10.691   0.403  0.2612  0.1656  0.9461
  433MOL0     C58353   6.670  10.662   0.474 -0.6741  0.1083  0.8950
  433MOL0     C58354   6.692  10.693   0.613  0.6900 -0.3622  0.2340
  433MOL0     O58355   6.816  10.675   0.658  0.4365  0.0170 -0.4871
  433MOL0     C58356   6.843  10.748   0.777 -0.8279  0.2638  0.9327
  433MOL0     C58357   6.992  10.730   0.786 -0.4250 -0.0461 -0.3040
  433MOL0     C58358   7.022  10.584   0.809 -0.3479 -0.2499  0.3017
  433MOL0     C58359   7.153  10.562   0.885 -0.3100 -0.5870 -0.5235
  433MOL0     C58360   7.215  10.423   0.863  0.2425 -0.3479  0.0383
  433MOL0     C58361   7.324  10.387   0.960 -0.2927 -0.9351 -0.1677
  433MOL0     C58362   7.403  10.501   1.032 -0.7320  0.4111 -0.9564
  433MOL0     C58363   7.521  10.451   1.118 -0.4077  0.7453 -0.1567
  433MOL0    Cl58364   7.619  10.575   1.187 -0.3256  0.3170  0.0072
  433MOL0     C58365   6.577  10.747   0.680  1.1472 -0.8526  0.8905
  433MOL0     C58366   6.461  10.770   0.604 -0.2477  0.1794 -0.0842
  433MOL0     O58367   6.382  10.805   0.183 -0.2863  0.1407  0.2816
  433MOL0     C58368   6.090  10.953   0.298 -0.2714  0.2595  0.5042
  433MOL0     C58369   5.962  10.966   0.266 -0.7131 -0.8818  0.3582
  433MOL0     N58370   5.314  10.871  -0.071  0.7351  0.7650  0.5812
  433MOL0     N58371   5.243  10.956  -0.000  0.3031  0.1161 -0.2197
  433MOL0     C58372   5.984  11.056   0.663  0.2591 -0.1277  0.5805
  433MOL0     C58373   6.120  11.026   0.655 -0.2879  0.0726  0.3794
  433MOL0     C58374   6.561  11.146   0.677 -0.1659 -0.1377  0.7482
  433MOL0     C58375   6.577  11.147   0.816 -0.5051  0.1830  0.2510
  433MOL0     C58376   6.705  11.147   0.870  0.4735 -0.3942  0.1470
  433MOL0     C58377   6.813  11.147   0.792 -0.6724 -0.3165  0.3025
  433MOL0     O58378   6.927  11.150   0.864 -0.7173  0.2835  0.2336
  433MOL0     C58379   7.034  11.205   0.786  0.0152  1.2402 -0.0680
  433MOL0     C58380   7.162  11.216   0.872 -0.5653 -0.2578  0.1622
  433MOL0     C58381   7.277  11.283   0.787 -0.0124  0.8160  0.7047
  433MOL0     C58382   7.364  11.191   0.693 -0.0041  0.3466 -0.6359
  433MOL0     C58383   7.296  11.154   0.570  1.0087  1.2396  1.1341
  433MOL0     C58384   7.245  11.137   0.463 -0.1790 -0.3720  0.5820
  433MOL0     C58385   6.795  11.132   0.653 -0.2263 -0.2444  0.6594
  433MOL0     C58386   6.666  11.135   0.590  0.5377 -0.1225 -0.9368
  433MOL0     C58387   6.655  11.142   0.438  0.5245  0.7048  0.1693
  433MOL0     H58388   6.230  11.315   0.802  1.4943 -0.1671  0.1189
  433MOL0     H58389   5.984  11.361   0.805 -2.4704 -0.4411  0.0089
  433MOL0     H58390   5.712  11.118   0.576 -0.3787 -0.7983  0.7388
  433MOL0     H58391   5.706  11.053   0.749 -0.5423  0.8916  2.0293
  433MOL0     H58392   5.573  11.260   0.805 -2.1435  4.0892 -0.4881
  433MOL0     H58393   5.485  11.134   0.715 -2.0032  2.1929 -3.0010
  433MOL0     H58394   5.608  11.389   0.599 -2.7384  2.8684 -0.5495
  433MOL0     H58395   5.437  11.379   0.636  0.0247  0.9772  1.0597
  433MOL0     H58396   5.579  11.247   0.406  0.0547 -2.3477  1.9929
  433MOL0     H58397   5.427  11.186   0.460  1.7885 -0.7893 -1.2945
  433MOL0     H58398   5.369  11.447   0.440  1.3634 -2.1947  1.5736
  433MOL0     H58399   5.504  11.444   0.321 -0.0488  1.0750  1.3068
  433MOL0     H58400   5.227  11.312   0.312 -0.4946 -1.3660 -1.4683
  433MOL0     H58401   5.298  11.422   0.199  0.4534  2.2802  3.4123
  433MOL0     H58402   5.383  11.124   0.244  1.7390  0.8629  0.9567
  433MOL0     H58403   5.465  11.235   0.129  0.0045  1.0998 -1.5102
  433MOL0     H58404   5.161  11.171   0.118 -0.8398  0.5728 -2.6655
  433MOL0     H58405   5.264  11.277   0.013  2.8940 -0.8907 -0.7524
  433MOL0     H58406   5.463  11.165  -0.116  1.7933 -0.8655  2.0855
  433MOL0     H58407   5.472  10.844  -0.313  1.6085 -0.9271  0.1970
  433MOL0     H58408   5.563  10.982  -0.269  0.3643  1.0861  0.4051
  433MOL0     H58409   5.573  10.716  -0.110  1.2562 -0.3638  1.2997
  433MOL0     H58410   5.680  10.757  -0.243 -2.1220  0.1154 -1.3556
  433MOL0     H58411   5.685  10.970  -0.074  3.0824  0.9631  1.9467
  433MOL0     H58412   5.812  10.848  -0.077 -0.0157  1.2497 -0.0603
  433MOL0     H58413   5.699  10.703   0.092 -1.1363 -0.9578  1.6748
  433MOL0     H58414   5.567  10.824   0.100  0.4874  1.8033  1.9727
  433MOL0     H58415   5.905  10.662   0.112  1.4431  1.3997 -1.7800
  433MOL0     H58416   6.134  10.640   0.176  1.2470  0.4255  1.1880
  433MOL0     H58417   6.537  10.674   0.298 -2.6330 -3.1187  1.7774
  433MOL0     H58418   6.750  10.611   0.421 -0.5705 -0.1815  1.3237
  433MOL0     H58419   6.813  10.851   0.759 -1.2063 -0.2658 -2.1594
  433MOL0     H58420   6.778  10.705   0.855 -4.3117  0.9883 -1.3237
  433MOL0     H58421   7.037  10.770   0.695  0.9385 -3.6195 -1.3757
  433MOL0     H58422   7.019  10.799   0.867 -2.1146  1.7131 -1.1510
  433MOL0     H58423   6.951  10.548   0.883  0.5732 -2.5811  0.1472
  433MOL0     H58424   7.026  10.520   0.720  2.2110 -0.1986  0.3031
  433MOL0     H58425   7.134  10.582   0.991  1.5400  0.3937 -0.3320
  433MOL0     H58426   7.226  10.637   0.853 -2.2207  1.1623 -1.0268
  433MOL0     H58427   7.249  10.429   0.759 -3.0847  1.2619 -1.0980
  433MOL0     H58428   7.135  10.350   0.874 -0.0111 -0.0010  0.5118
  433MOL0     H58429   7.285  10.317   1.034  1.3063 -0.5696  1.0871
  433MOL0     H58430   7.395  10.333   0.895 -2.2730 -1.2230 -2.2096
  433MOL0     H58431   7.328  10.548   1.095 -0.7766 -0.0355 -0.6719
  433MOL0     H58432   7.440  10.571   0.956  0.5377  0.9229  0.0849
  433MOL0     H58433   7.483  10.375   1.187  0.4266  0.6767  0.2384
  433MOL0     H58434   7.579  10.394   1.045  0.6185 -0.0102  1.2074
  433MOL0     H58435   6.569  10.777   0.784 -1.1232  0.1428  0.4974
  433MOL0     H58436   6.377  10.818   0.652 -0.7737 -0.4188 -0.3838
  433MOL0     H58437   6.138  11.034   0.352  0.7846 -0.5958  0.8878
  433MOL0     H58438   5.901  11.053   0.286 -2.9420 -2.0817 -0.6869
  433MOL0     H58439   5.911  10.984   0.628 -1.0971  0.4197  2.1520
  433MOL0     H58440   6.151  10.927   0.620  1.0915  0.3918  0.6213
  433MOL0     H58441   6.491  11.161   0.881  0.6915 -2.0736  2.5173
  433MOL0     H58442   6.728  11.145   0.976  1.0322 -2.1330  0.0312
  433MOL0     H58443   7.014  11.304   0.745 -2.1978  0.6575 -0.5257
  433MOL0     H58444   7.068  11.141   0.704  0.0760 -2.2469  2.4506
  433MOL0     H58445   7.200  11.118   0.904 -4.3749 -2.1148 -0.4630
  433MOL0     H58446   7.144  11.281   0.959 -1.2498 -0.9307  0.5402
  433MOL0     H58447   7.344  11.329   0.860 -1.4797  0.3534  2.4087
  433MOL0     H58448   7.243  11.368   0.729  1.9317  2.4537  1.8180
  433MOL0     H58449   7.449  11.249   0.657 -0.0257  0.2268 -0.8788
  433MOL0     H58450   7.396  11.103   0.750 -2.6946 -0.2300  0.1047
  433MOL0     H58451   7.187  11.130   0.373 -0.6331 -0.9929  0.9161
  433MOL0     H58452   6.890  11.115   0.603  2.5149  2.4026  4.4185
  433MOL0     H58453   6.580  11.072   0.399 -1.1806  1.1219  2.4697
  433MOL0     H58454   6.636  11.243   0.402 -1.8608  0.6893  1.1709
  433MOL0     H58455   6.752  11.108   0.401  0.4897  2.3792 -1.5807
  434MOL0     O58456  10.162   0.852   0.385  0.3472 -0.1078 -0.1026
  434MOL0     C58457  10.064   0.876   0.315 -0.0664 -0.2310 -0.1426
  434MOL0     O58458  10.037   0.994   0.250 -0.0898 -0.4253 -0.0768
  434MOL0     C58459  10.102   1.115   0.282 -0.0595 -0.4389  0.0668
  434MOL0     C58460  10.113   1.145   0.421 -0.7396  0.2720 -0.9228
  434MOL0     C58461  10.167   1.269   0.460  0.6826 -0.2051 -0.0142
  434MOL0     C58462  10.217   1.360   0.365 -0.1217 -0.9099 -0.1745
  434MOL0     O58463  10.256   1.483   0.410  0.4455 -0.1390  0.1149
  434MOL0     C58464  10.251   1.595   0.312  1.1781 -0.5480 -0.7304
  434MOL0     C58465  10.278   1.725   0.389 -0.9837 -0.2634 -0.4703
  434MOL0     C58466  10.430   1.769   0.366  0.1003 -0.1093  0.2991
  434MOL0     C58467  10.460   1.895   0.447  0.2073 -0.0505  0.3649
  434MOL0     C58468  10.500   1.851   0.591  1.2224  0.0235  0.4999
  434MOL0     C58469  10.559   1.968   0.667 -0.1116  0.4364 -0.1450
  434MOL0     C58470  10.553   1.911   0.810  0.4176  0.3078  1.2741
  434MOL0     C58471  10.622   1.776   0.854 -0.1850 -0.6688 -0.8017
  434MOL0     N58472  10.610   1.745   0.995  0.1266  0.0589  0.2906
  434MOL0     C58473  10.653   1.816   1.104 -0.4723 -0.2706 -0.0083
  434MOL0     C58474  10.617   1.741   1.207  0.1327 -0.0329  0.2039
  434MOL0     C58475  10.642   1.757   1.347 -0.4353  0.4122  0.1094
  434MOL0     C58476  10.787   1.702   1.374 -0.1442 -0.1906  0.0132
  434MOL0     C58477  10.805   1.556   1.344  0.3130 -0.3404 -0.4715
  434MOL0     C58478  10.945   1.512   1.400 -0.0056  0.1740 -0.0097
  434MOL0     O58479  10.956   1.392   1.475  0.4947 -0.1048  0.0397
  434MOL0     C58480  10.929   1.397   1.611 -0.1889  0.8117  0.5482
  434MOL0     C58481  10.897   1.509   1.682  0.3319 -0.9899  0.9320
  434MOL0     C58482  10.882   1.492   1.818  0.2713 -0.1558  0.5515
  434MOL0     C58483  10.874   1.371   1.881  0.2246 -0.0367  0.1227
  434MOL0     C58484  10.847   1.364   2.026 -0.2540  1.0314 -0.8191
  434MOL0     O58485  10.872   1.255   2.089 -0.4495 -0.1022 -0.0360
  434MOL0     C58486  10.835   1.222   2.220 -0.7415 -0.5950 -1.6910
  434MOL0     C58487  10.765   1.103   2.243  0.0521 -0.0381 -0.2012
  434MOL0     C58488  10.739   1.059   2.376 -0.8286 -0.8371  0.7767
  434MOL0     C58489  10.789   1.126   2.483 -0.0263  0.1550  0.7270
  434MOL0     O58490  10.741   1.070   2.596  0.3931 -0.0750 -0.0856
  434MOL0     C58491  10.825   1.048   2.703 -1.1637 -0.5642  0.4367
  434MOL0     C58492  10.767   0.971   2.823  0.2276 -0.2643 -0.6358
  434MOL0     C58493  10.733   0.832   2.774  0.0872 -0.2443  0.2734
  434MOL0     C58494  10.692   0.743   2.890 -0.2982  0.7092 -0.0327
  434MOL0     C58495  10.727   0.592   2.861  0.9289  0.4874 -0.4041
  434MOL0     C58496  10.712   0.506   2.982 -0.2120  0.0755 -0.7244
  434MOL0     C58497  10.699   0.358   2.953  0.6037  0.0373 -0.7269
  434MOL0     C58498  10.634   0.287   3.082 -0.6624 -0.1347 -0.4277
  434MOL0    Cl58499  10.465   0.303   3.086  0.0237 -0.5585  0.4995
  434MOL0     C58500  10.863   1.238   2.467 -1.1807  0.3833  0.6649
  434MOL0     C58501  10.893   1.290   2.338 -0.4209  0.9390 -0.0039
  434MOL0     O58502  10.802   1.468   2.084  0.1462  0.7250 -0.4126
  434MOL0     C58503  10.893   1.262   1.802  0.4334  0.2780  0.2465
  434MOL0     C58504  10.929   1.269   1.667  0.6246 -0.0443 -0.3144
  434MOL0     N58505  10.554   1.626   1.166 -0.6943 -0.0222 -0.3456
  434MOL0     N58506  10.541   1.633   1.039 -0.0171 -0.1963 -0.4282
  434MOL0     C58507  10.207   1.326   0.230  0.3859  0.9926 -0.0355
  434MOL0     C58508  10.150   1.203   0.183 -0.1540  0.0609 -0.4229
  434MOL0     C58509   9.960   0.776   0.307  0.4274  0.2563 -0.0411
  434MOL0     C58510   9.959   0.701   0.191 -0.2887 -1.1023  0.2234
  434MOL0     C58511   9.872   0.602   0.168  0.2356 -0.4434  0.0018
  434MOL0     C58512   9.777   0.575   0.272 -0.2277 -0.3964 -0.4721
  434MOL0     O58513   9.677   0.478   0.264 -0.3548  0.1313  0.0855
  434MOL0     C58514   9.673   0.400   0.138  0.5017  0.4563  0.6983
  434MOL0     C58515   9.572   0.282   0.153  0.2849  0.1825  0.5434
  434MOL0     C58516   9.600   0.181   0.042 -0.1731  0.8365 -1.7780
  434MOL0     C58517   9.537   0.217  -0.096  0.3236  0.5470  0.0790
  434MOL0     C58518   9.595   0.131  -0.199 -0.1245 -0.6411  0.3901
  434MOL0     C58519   9.638   0.064  -0.292 -1.0294  0.7209  0.1979
  434MOL0     C58520   9.782   0.640   0.388  0.4533  0.1765  1.0380
  434MOL0     C58521   9.870   0.742   0.411 -0.1744 -0.9562  0.1964
  434MOL0     C58522   9.870   0.822   0.539 -0.7431 -0.8958  0.0834
  434MOL0     H58523  10.061   1.081   0.491 -2.5298  1.2599 -1.3048
  434MOL0     H58524  10.165   1.306   0.562  0.9286  1.7146 -0.6614
  434MOL0     H58525  10.307   1.577   0.221  2.9418  1.9955 -0.2673
  434MOL0     H58526  10.146   1.612   0.286  0.7734 -2.0945 -0.2238
  434MOL0     H58527  10.260   1.711   0.496 -0.7595 -1.3632 -0.5652
  434MOL0     H58528  10.209   1.800   0.350  0.8475  0.9360 -1.5520
  434MOL0     H58529  10.433   1.801   0.262  3.2191  0.2771  0.4154
  434MOL0     H58530  10.498   1.688   0.395  0.1102  0.0232  0.6542
  434MOL0     H58531  10.547   1.938   0.398  0.2863  0.7691  1.1938
  434MOL0     H58532  10.389   1.977   0.460 -0.5960 -0.5671 -0.5723
  434MOL0     H58533  10.408   1.818   0.640  1.2125 -2.5293 -1.0705
  434MOL0     H58534  10.572   1.769   0.595 -1.6847 -2.7023  3.2751
  434MOL0     H58535  10.665   1.971   0.642 -0.6910 -2.0700 -3.7730
  434MOL0     H58536  10.511   2.066   0.657 -0.8645  0.0825 -0.0634
  434MOL0     H58537  10.450   1.900   0.847  0.5436 -3.4273  0.9248
  434MOL0     H58538  10.601   1.992   0.866 -0.5207 -0.8260  3.8915
  434MOL0     H58539  10.589   1.689   0.798  2.4831 -0.9522 -2.0682
  434MOL0     H58540  10.730   1.778   0.836  0.0869  0.3811  0.7708
  434MOL0     H58541  10.709   1.908   1.104  2.1886 -1.5636  4.9097
  434MOL0     H58542  10.645   1.864   1.369 -2.8479  1.0452 -2.1459
  434MOL0     H58543  10.556   1.711   1.397 -2.0090  2.6410 -0.4017
  434MOL0     H58544  10.855   1.771   1.323 -2.0157  1.2380 -0.6520
  434MOL0     H58545  10.793   1.725   1.481 -0.6451  3.6269 -0.6176
  434MOL0     H58546  10.804   1.538   1.236 -1.6165  1.4462 -0.8190
  434MOL0     H58547  10.728   1.492   1.388 -1.3839  0.6889 -1.8118
  434MOL0     H58548  10.977   1.594   1.466 -2.4597  3.5647 -2.6473
  434MOL0     H58549  11.009   1.518   1.312  0.9329 -1.3147  0.5271
  434MOL0     H58550  10.872   1.606   1.640 -3.5245 -2.4705 -0.7010
  434MOL0     H58551  10.859   1.576   1.883 -2.9469 -1.4387  1.2688
  434MOL0     H58552  10.730   1.054   2.153  1.6839  0.4291 -1.1425
  434MOL0     H58553  10.661   0.986   2.394 -0.8367 -1.1289 -0.3466
  434MOL0     H58554  10.918   1.001   2.670  1.2339  1.6913  3.3987
  434MOL0     H58555  10.845   1.146   2.747 -1.0788 -1.1281  1.7189
  434MOL0     H58556  10.836   0.969   2.908  0.6322 -2.2195 -0.9561
  434MOL0     H58557  10.675   1.022   2.850  0.1582 -0.5730 -0.2833
  434MOL0     H58558  10.658   0.839   2.695 -0.0327 -1.8403  0.2214
  434MOL0     H58559  10.820   0.795   2.718  0.2130  4.2025 -3.0392
  434MOL0     H58560  10.584   0.751   2.904 -0.1662 -0.8638  2.8911
  434MOL0     H58561  10.739   0.773   2.985  1.6334  1.5373 -1.1929
  434MOL0     H58562  10.831   0.566   2.841  0.4622 -1.8990  0.0324
  434MOL0     H58563  10.662   0.565   2.777 -0.0308  4.5054 -1.1910
  434MOL0     H58564  10.801   0.512   3.045 -0.9732  1.3801  0.2977
  434MOL0     H58565  10.622   0.540   3.034 -1.1238 -0.4328 -1.9321
  434MOL0     H58566  10.790   0.303   2.929  1.7794  2.4358 -2.1095
  434MOL0     H58567  10.627   0.344   2.872 -0.2149 -0.1752  0.0265
  434MOL0     H58568  10.666   0.182   3.086 -2.5532 -0.8072 -1.4915
  434MOL0     H58569  10.690   0.328   3.166  0.3489 -0.5602 -0.8738
  434MOL0     H58570  10.910   1.282   2.555 -3.1591  1.8916  1.0356
  434MOL0     H58571  10.947   1.382   2.320  2.1044  0.1173  2.6097
  434MOL0     H58572  10.868   1.163   1.841  0.3968  0.5259  0.8665
  434MOL0     H58573  10.964   1.183   1.611 -1.0879  0.6568 -2.6093
  434MOL0     H58574  10.255   1.379   0.148  1.1390  3.0138  1.6265
  434MOL0     H58575  10.150   1.158   0.084 -0.7284  0.1218 -0.4530
  434MOL0     H58576  10.020   0.720   0.103  0.7260  0.7678  1.2668
  434MOL0     H58577   9.878   0.559   0.068  3.4618 -3.5275  1.3193
  434MOL0     H58578   9.771   0.360   0.111 -0.1307 -1.7982  1.5335
  434MOL0     H58579   9.636   0.460   0.054 -0.1505 -0.3088  0.4275
  434MOL0     H58580   9.472   0.324   0.143  0.6920  1.8318  2.4774
  434MOL0     H58581   9.587   0.225   0.245 -0.4708 -0.1869  0.4430
  434MOL0     H58582   9.566   0.086   0.084 -1.7036  2.2446  0.3527
  434MOL0     H58583   9.707   0.174   0.018 -0.3508 -0.6772 -2.2359
  434MOL0     H58584   9.429   0.198  -0.103  0.7525 -1.6519 -2.0431
  434MOL0     H58585   9.573   0.316  -0.126  4.0323 -1.1908 -1.8274
  434MOL0     H58586   9.655   0.010  -0.383 -2.8183  1.9119 -0.8884
  434MOL0     H58587   9.709   0.617   0.464  0.1533 -0.9073  0.4489
  434MOL0     H58588   9.894   0.924   0.507 -0.1749 -0.9668  0.2743
  434MOL0     H58589   9.780   0.806   0.599 -0.5765 -2.6925 -0.0892
  434MOL0     H58590   9.953   0.784   0.599  0.2942 -2.5477 -2.2680
  435MOL0     O58591   2.273   5.658  10.510  0.1031  0.0250 -0.8235
  435MOL0     C58592   2.318   5.723  10.609 -0.3266 -0.9816  0.4599
  435MOL0     O58593   2.456   5.769  10.616  0.4039 -1.0427  0.0051
  435MOL0     C58594   2.545   5.728  10.519  1.0456 -0.8261  0.7893
  435MOL0     C58595   2.667   5.674  10.572 -0.3280 -0.0934 -0.7275
  435MOL0     C58596   2.764   5.622  10.483  0.2930 -0.1686  0.0234
  435MOL0     C58597   2.741   5.622  10.348  0.1172  0.2671 -0.4009
  435MOL0     O58598   2.828   5.566  10.260  0.0480 -0.5695 -0.8507
  435MOL0     C58599   2.883   5.436  10.291  0.4214  0.1274  0.6151
  435MOL0     C58600   3.015   5.445  10.367 -0.1155 -0.2461  0.8724
  435MOL0     C58601   3.114   5.341  10.336 -0.4825  0.2157  0.6068
  435MOL0     C58602   3.237   5.333  10.420  0.0491  0.2408  1.2254
  435MOL0     C58603   3.332   5.210  10.393  0.2845  0.6603  0.5650
  435MOL0     C58604   3.466   5.228  10.455 -0.3570  0.0303 -0.4072
  435MOL0     C58605   3.530   5.088  10.445  0.4830 -0.5044  0.2295
  435MOL0     C58606   3.647   5.074  10.544  0.6881 -0.3115  0.3902
  435MOL0     N58607   3.764   5.165  10.518  0.8090 -1.5344  0.5005
  435MOL0     C58608   3.884   5.123  10.476  0.6757 -0.7518 -0.5270
  435MOL0     C58609   3.954   5.235  10.446 -0.7782  0.1572 -0.1200
  435MOL0     C58610   4.092   5.238  10.368  0.0109  0.4368  0.3095
  435MOL0     C58611   4.130   5.375  10.307  0.5911 -0.1420  0.0360
  435MOL0     C58612   4.029   5.413  10.202 -0.1326  0.3587 -0.2365
  435MOL0     C58613   4.040   5.558  10.162  0.5917 -0.6481  0.7209
  435MOL0     O58614   3.921   5.619  10.108  0.6013  0.5275  0.3089
  435MOL0     C58615   3.962   5.679   9.987 -1.2982 -0.5562 -0.5621
  435MOL0     C58616   3.941   5.639   9.855  0.6421 -1.3118  0.6009
  435MOL0     C58617   3.995   5.717   9.747  0.9425 -0.4655 -0.2272
  435MOL0     C58618   4.085   5.827   9.781 -0.5377  0.2393  0.0841
  435MOL0     C58619   4.162   5.895   9.674 -0.5638 -0.1147  0.2752
  435MOL0     O58620   4.183   5.824   9.551 -0.4239  1.0765  0.1455
  435MOL0     C58621   4.241   5.885   9.445  0.4972  0.3482 -0.6323
  435MOL0     C58622   4.177   5.979   9.367  0.7265 -0.1606  0.7507
  435MOL0     C58623   4.251   6.042   9.269  0.2685 -0.3815 -0.3589
  435MOL0     C58624   4.390   6.012   9.245 -0.3842  0.6513 -0.7596
  435MOL0     O58625   4.465   6.079   9.146 -0.2217  0.1078 -0.0576
  435MOL0     C58626   4.453   6.223   9.144  0.1555 -0.5790  0.3926
  435MOL0     C58627   4.511   6.277   9.017  0.3166  0.7160  0.0007
  435MOL0     C58628   4.529   6.433   9.031  0.1933  0.7611  0.3852
  435MOL0     C58629   4.649   6.469   9.119 -1.9137  0.5390 -0.1244
  435MOL0     C58630   4.685   6.618   9.116 -0.1112 -0.3784  0.7828
  435MOL0     C58631   4.813   6.659   9.182 -0.0038 -0.9093  0.1755
  435MOL0     C58632   4.847   6.812   9.157  0.2892  0.1246 -0.4523
  435MOL0     C58633   4.744   6.920   9.160 -0.7565 -0.0398  0.7453
  435MOL0    Cl58634   4.628   6.905   9.296  0.0104 -0.1784 -0.0037
  435MOL0     C58635   4.454   5.911   9.318  0.8968 -1.5442 -0.4376
  435MOL0     C58636   4.373   5.854   9.419  0.0428  0.7451 -1.2515
  435MOL0     O58637   4.208   6.009   9.700 -0.3303 -0.0048 -0.4243
  435MOL0     C58638   4.108   5.859   9.908  0.9250 -0.4390  0.7794
  435MOL0     C58639   4.033   5.800  10.008 -0.1052  0.4931  0.0102
  435MOL0     N58640   3.877   5.348  10.475 -0.7520  0.0706 -0.0723
  435MOL0     N58641   3.774   5.300  10.525 -0.2206 -0.9191  0.0078
  435MOL0     C58642   2.631   5.686  10.294 -0.3472 -0.4889 -0.3113
  435MOL0     C58643   2.523   5.741  10.377  0.1809 -0.1642 -1.0156
  435MOL0     C58644   2.224   5.748  10.717 -0.6523  1.5469  0.8729
  435MOL0     C58645   2.140   5.639  10.753  0.0775  1.1128  0.3388
  435MOL0     C58646   2.024   5.659  10.832 -0.5028 -1.5630 -0.4488
  435MOL0     C58647   2.004   5.787  10.879 -0.0899 -0.7300 -0.8788
  435MOL0     O58648   1.897   5.839  10.957  0.6737  1.0248  0.4570
  435MOL0     C58649   1.794   5.747  10.997 -0.5858  0.5495  0.4463
  435MOL0     C58650   1.675   5.837  11.046  0.6753  1.0922  0.1607
  435MOL0     C58651   1.540   5.779  11.080  0.3432 -0.2269 -0.1529
  435MOL0     C58652   1.543   5.712  11.215  0.8879  0.0324 -0.0076
  435MOL0     C58653   1.535   5.805  11.334  0.9561  0.0261  0.6092
  435MOL0     C58654   1.531   5.893  11.415  0.7301  0.6270  0.4123
  435MOL0     C58655   2.095   5.886  10.854  0.1681  0.1883 -0.2849
  435MOL0     C58656   2.200   5.872  10.767 -0.5544 -0.6599  0.6454
  435MOL0     C58657   2.281   5.990  10.733  0.8515  0.4555  0.1113
  435MOL0     H58658   2.693   5.673  10.677 -0.5121 -2.1710 -0.6756
  435MOL0     H58659   2.858   5.584  10.520  0.3442 -2.7393 -2.4025
  435MOL0     H58660   2.821   5.385  10.365 -0.0871  4.3699  3.5182
  435MOL0     H58661   2.898   5.383  10.197 -1.3022 -1.4278  1.1595
  435MOL0     H58662   2.991   5.428  10.473 -1.0183 -1.4953  0.4954
  435MOL0     H58663   3.067   5.540  10.356 -1.4760  0.6410  1.8126
  435MOL0     H58664   3.157   5.363  10.238 -0.4195  1.0672  0.8175
  435MOL0     H58665   3.064   5.244  10.339  0.7483 -0.5215  4.7346
  435MOL0     H58666   3.299   5.423  10.411  1.4855 -0.8624 -0.4926
  435MOL0     H58667   3.195   5.320  10.521 -2.9026 -1.5609 -0.1044
  435MOL0     H58668   3.285   5.121  10.437  0.8208  1.2366  2.3682
  435MOL0     H58669   3.343   5.202  10.285 -1.9351  2.9297  0.0904
  435MOL0     H58670   3.525   5.309  10.412 -1.0190  0.1724 -1.0579
  435MOL0     H58671   3.439   5.249  10.559 -3.2885  0.0013 -1.0781
  435MOL0     H58672   3.558   5.074  10.340 -0.9360 -0.0132 -0.2397
  435MOL0     H58673   3.461   5.006  10.463  0.1781 -0.0893  1.0155
  435MOL0     H58674   3.614   5.071  10.648  0.8882 -0.2922  0.4560
  435MOL0     H58675   3.689   4.975  10.523  0.7844 -0.3623  0.8146
  435MOL0     H58676   3.926   5.023  10.464  1.7877 -0.6407  1.9037
  435MOL0     H58677   4.174   5.210  10.436  0.6328 -0.6691 -0.8459
  435MOL0     H58678   4.083   5.167  10.286  3.9551  0.4980 -0.3849
  435MOL0     H58679   4.129   5.442  10.394  2.2133 -1.0717  0.8153
  435MOL0     H58680   4.227   5.362  10.258 -0.8807 -2.8828 -2.4551
  435MOL0     H58681   3.929   5.381  10.232  0.7056 -0.2495  2.1017
  435MOL0     H58682   4.053   5.372  10.103  2.4919  2.1045 -0.4420
  435MOL0     H58683   4.130   5.571  10.101  0.9051 -0.2418  1.2603
  435MOL0     H58684   4.065   5.612  10.254  0.6671 -2.8697  2.0509
  435MOL0     H58685   3.863   5.568   9.832 -1.1641  0.6499  0.3788
  435MOL0     H58686   3.972   5.703   9.642 -1.0983  1.1040 -0.0477
  435MOL0     H58687   4.075   6.007   9.389 -0.2210  1.0296 -4.0121
  435MOL0     H58688   4.194   6.111   9.208 -0.7451 -1.1357 -0.2905
  435MOL0     H58689   4.349   6.256   9.155 -0.3101 -1.4730 -1.0111
  435MOL0     H58690   4.512   6.257   9.230  1.3353  0.8089 -0.9023
  435MOL0     H58691   4.604   6.223   8.996  0.2626 -0.4609  2.4574
  435MOL0     H58692   4.429   6.254   8.949  0.5557  0.4657 -0.2053
  435MOL0     H58693   4.533   6.467   8.927 -1.5889  0.7433  0.2786
  435MOL0     H58694   4.430   6.461   9.069 -0.2794 -1.0224  0.5700
  435MOL0     H58695   4.730   6.419   9.064 -1.1707  1.2859  0.2632
  435MOL0     H58696   4.642   6.421   9.217  0.0436  2.3154  0.9597
  435MOL0     H58697   4.599   6.675   9.152 -1.8084  0.1250 -3.5438
  435MOL0     H58698   4.686   6.653   9.012  2.7098  1.4050  1.2905
  435MOL0     H58699   4.792   6.644   9.288 -1.5742  4.1010  0.8465
  435MOL0     H58700   4.902   6.604   9.150  0.9423  0.9922 -0.6716
  435MOL0     H58701   4.895   6.816   9.059 -0.0935 -0.8171 -0.6780
  435MOL0     H58702   4.926   6.839   9.229  0.1554 -1.9125  0.5336
  435MOL0     H58703   4.797   7.015   9.168 -0.4326 -0.0144 -1.0871
  435MOL0     H58704   4.684   6.918   9.068  0.1125 -0.2244  0.1759
  435MOL0     H58705   4.556   5.881   9.298  0.9222 -0.2897 -2.4052
  435MOL0     H58706   4.424   5.787   9.488 -0.1662 -1.4426 -3.1331
  435MOL0     H58707   4.164   5.950   9.932 -0.5916  0.0884  2.5469
  435MOL0     H58708   4.043   5.827  10.112  3.5598 -0.5755  0.0593
  435MOL0     H58709   2.622   5.679  10.186  1.1896 -1.4489 -0.4106
  435MOL0     H58710   2.432   5.797  10.357  1.1910  2.8076  1.8799
  435MOL0     H58711   2.154   5.537  10.717  2.4549  1.2247  0.7935
  435MOL0     H58712   1.959   5.584  10.876 -1.8665 -1.1450 -1.6567
  435MOL0     H58713   1.825   5.679  11.077 -0.3043 -1.8773 -1.6051
  435MOL0     H58714   1.759   5.695  10.907  2.4225 -0.5792 -0.2154
  435MOL0     H58715   1.653   5.925  10.984  0.6837  3.0738  2.7807
  435MOL0     H58716   1.704   5.877  11.144  0.0402 -1.5104  1.4907
  435MOL0     H58717   1.521   5.709  10.998  0.5464 -0.1415 -0.2737
  435MOL0     H58718   1.457   5.850  11.071 -0.8501 -1.6840 -1.0239
  435MOL0     H58719   1.448   5.659  11.228 -2.2116  5.2329  1.7132
  435MOL0     H58720   1.617   5.632  11.221 -0.0165 -0.9112 -0.9485
  435MOL0     H58721   1.523   5.970  11.490 -0.0665 -0.3780  1.4011
  435MOL0     H58722   2.052   5.981  10.888 -1.3622 -1.4278  2.7278
  435MOL0     H58723   2.306   5.994  10.627  3.3476 -2.0767  0.4912
  435MOL0     H58724   2.229   6.084  10.753  1.1696  0.5485  0.5190
  435MOL0     H58725   2.372   5.991  10.793 -0.7087  0.6065  2.6094
  436MOL0     O58726   8.673   8.875   0.484  0.0942 -0.2195  0.0625
  436MOL0     C58727   8.717   8.789   0.402 -0.6419  0.1102 -1.2092
  436MOL0     O58728   8.799   8.684   0.453 -0.5880 -0.0964 -0.3002
  436MOL0     C58729   8.820   8.670   0.582 -0.2806  0.1396 -1.1413
  436MOL0     C58730   8.745   8.574   0.657  0.2467  0.3976 -0.1821
  436MOL0     C58731   8.789   8.541   0.789 -0.6448 -0.0888  0.6754
  436MOL0     C58732   8.905   8.595   0.851  0.1331 -0.5555 -0.5839
  436MOL0     O58733   8.946   8.550   0.974 -0.2102 -0.2094 -0.3436
  436MOL0     C58734   9.060   8.472   0.982 -1.0819  0.6411  0.7373
  436MOL0     C58735   9.062   8.337   0.900  0.3531 -0.1294  0.4111
  436MOL0     C58736   9.200   8.315   0.824  0.3188  0.0789 -0.4089
  436MOL0     C58737   9.283   8.206   0.888 -0.2994 -0.2359  0.0592
  436MOL0     C58738   9.430   8.202   0.815 -0.0427 -0.6994  0.1128
  436MOL0     C58739   9.414   8.135   0.679  0.2106  0.2232 -0.4955
  436MOL0     C58740   9.549   8.127   0.600 -0.8878  0.4733  0.4948
  436MOL0     C58741   9.593   8.265   0.557 -1.1045  0.2092 -1.1601
  436MOL0     N58742   9.693   8.310   0.644  0.0727  0.3326  0.1109
  436MOL0     C58743   9.679   8.404   0.745 -0.2370 -0.2829 -0.2623
  436MOL0     C58744   9.806   8.422   0.798  1.2078  0.5295 -0.2073
  436MOL0     C58745   9.829   8.514   0.920  0.1631 -0.4904  0.2026
  436MOL0     C58746   9.766   8.663   0.907 -0.4999 -0.0324  0.4835
  436MOL0     C58747   9.839   8.742   0.795  0.7127 -0.3892 -0.1242
  436MOL0     C58748   9.806   8.886   0.820  0.6399 -0.8803  0.0104
  436MOL0     O58749   9.671   8.921   0.816 -0.4407  0.5914  0.4341
  436MOL0     C58750   9.606   8.888   0.696 -0.3912 -0.6621 -0.1772
  436MOL0     C58751   9.663   8.913   0.570 -0.4343 -1.1216 -0.0769
  436MOL0     C58752   9.585   8.909   0.454 -0.2120  1.3252 -0.8687
  436MOL0     C58753   9.450   8.873   0.463 -0.4689 -0.3477 -0.5327
  436MOL0     C58754   9.360   8.859   0.346 -0.0010 -0.5404  0.0269
  436MOL0     O58755   9.245   8.796   0.365  0.4103  0.0627  0.0721
  436MOL0     C58756   9.184   8.732   0.264  0.5063  1.0388 -0.3180
  436MOL0     C58757   9.100   8.623   0.316  0.1433  0.9179 -0.3179
  436MOL0     C58758   9.045   8.525   0.235 -1.2995  1.2080  0.3671
  436MOL0     C58759   9.062   8.525   0.097  0.1705  0.5927 -0.4861
  436MOL0     O58760   9.026   8.427   0.012  0.0366 -0.6189  0.3832
  436MOL0     C58761   9.020   8.294   0.057 -0.1132 -0.6182  0.6110
  436MOL0     C58762   8.886   8.234   0.043 -0.2116  0.0385  0.1926
  436MOL0     C58763   8.777   8.303   0.128  0.4662  0.1974  0.0833
  436MOL0     C58764   8.631   8.247   0.090 -0.0140 -0.4293  0.1041
  436MOL0     C58765   8.513   8.251   0.188  0.2387  0.0709 -0.4633
  436MOL0     C58766   8.405   8.149   0.145  0.6134  0.8498  0.4181
  436MOL0     C58767   8.273   8.160   0.223 -0.4483 -0.2054  0.8738
  436MOL0     C58768   8.143   8.094   0.153 -0.4473 -0.5073  0.2549
  436MOL0    Cl58769   8.154   7.915   0.204  0.6405  0.1173  0.1991
  436MOL0     C58770   9.143   8.624   0.046 -0.3536 -0.1888  0.5505
  436MOL0     C58771   9.203   8.728   0.124  0.3401  0.2625  0.9165
  436MOL0     O58772   9.396   8.912   0.244  0.1405 -0.5109  0.2203
  436MOL0     C58773   9.404   8.839   0.594 -0.0609  0.2675  0.9755
  436MOL0     C58774   9.477   8.845   0.707  0.5932 -0.3112  1.0366
  436MOL0     N58775   9.889   8.351   0.715  0.4206 -0.4438  0.1324
  436MOL0     N58776   9.822   8.282   0.625  0.1518  0.2450  0.6567
  436MOL0     C58777   8.971   8.702   0.778  0.8049 -0.1697  1.2019
  436MOL0     C58778   8.931   8.731   0.639  0.0994  0.3034 -0.5631
  436MOL0     C58779   8.674   8.796   0.262 -1.5021  1.4426  0.2246
  436MOL0     C58780   8.703   8.681   0.183  0.5493 -0.9367 -0.1186
  436MOL0     C58781   8.679   8.677   0.044  0.6780  0.2394 -0.2030
  436MOL0     C58782   8.614   8.783  -0.019  0.6240 -0.9979  0.2711
  436MOL0     O58783   8.599   8.803  -0.151 -0.6625 -0.5643 -0.6495
  436MOL0     C58784   8.471   8.754  -0.193 -0.4357 -1.3568 -0.9541
  436MOL0     C58785   8.511   8.645  -0.292  0.0795 -0.1261  0.6933
  436MOL0     C58786   8.535   8.715  -0.430  0.1703  0.6759  0.3521
  436MOL0     C58787   8.536   8.603  -0.545 -0.7350 -0.1616 -0.2016
  436MOL0     C58788   8.405   8.543  -0.571 -0.0710 -0.8083  0.1218
  436MOL0     C58789   8.302   8.487  -0.574 -0.1925 -0.9466 -0.8501
  436MOL0     C58790   8.590   8.896   0.060 -0.1099  1.0253  0.3048
  436MOL0     C58791   8.620   8.908   0.194 -0.2007  1.2254 -0.5171
  436MOL0     C58792   8.605   9.040   0.260 -0.0901 -0.3301  0.4097
  436MOL0     H58793   8.665   8.521   0.606 -0.8477  2.4877 -0.7372
  436MOL0     H58794   8.727   8.465   0.835 -1.3204 -2.9911 -4.3216
  436MOL0     H58795   9.136   8.540   0.940 -0.5698 -0.1774  0.3045
  436MOL0     H58796   9.089   8.450   1.085  2.7326 -1.5294 -0.5600
  436MOL0     H58797   8.974   8.328   0.837  1.8180 -1.7176 -1.5249
  436MOL0     H58798   9.060   8.253   0.970 -0.5671  0.4249  1.0691
  436MOL0     H58799   9.248   8.413   0.835  1.2027 -0.0706 -2.3398
  436MOL0     H58800   9.173   8.286   0.722 -1.9651 -0.2341  0.2560
  436MOL0     H58801   9.304   8.217   0.994 -1.4636  2.0063  0.1060
  436MOL0     H58802   9.225   8.114   0.875 -0.6200  0.0791 -0.8533
  436MOL0     H58803   9.454   8.307   0.796 -3.5680 -0.0301 -1.5613
  436MOL0     H58804   9.506   8.146   0.871  0.7532 -1.3529 -1.5341
  436MOL0     H58805   9.372   8.034   0.682  2.3583 -0.7233 -0.4981
  436MOL0     H58806   9.341   8.191   0.620  1.7368  1.2532 -1.5095
  436MOL0     H58807   9.518   8.063   0.517 -5.0007 -1.2932  3.0310
  436MOL0     H58808   9.634   8.079   0.649 -0.7437  1.2258  1.0055
  436MOL0     H58809   9.641   8.259   0.459  2.2895  0.2956  0.3711
  436MOL0     H58810   9.509   8.336   0.554 -2.0035 -0.5773  1.8038
  436MOL0     H58811   9.591   8.453   0.786 -0.6472  0.2581 -1.7331
  436MOL0     H58812   9.783   8.471   1.009  0.6508 -2.4337 -0.4310
  436MOL0     H58813   9.937   8.517   0.941 -0.0132  1.1770  1.0388
  436MOL0     H58814   9.667   8.647   0.865 -0.5050 -0.8589  0.8080
  436MOL0     H58815   9.759   8.714   1.003 -1.4728 -0.0615  0.4319
  436MOL0     H58816   9.804   8.713   0.696  4.6062  0.4921 -1.9416
  436MOL0     H58817   9.945   8.718   0.806  0.8111 -1.5984 -2.9522
  436MOL0     H58818   9.872   8.951   0.762 -0.4249  0.1342 -0.0889
  436MOL0     H58819   9.844   8.913   0.919  0.5621  2.4086 -0.7347
  436MOL0     H58820   9.765   8.949   0.561 -1.4168  1.7253 -0.8003
  436MOL0     H58821   9.633   8.924   0.358 -0.3146 -1.4894 -1.4530
  436MOL0     H58822   9.079   8.632   0.422 -0.4680 -0.6068 -0.2812
  436MOL0     H58823   8.978   8.466   0.295 -2.7983  0.7835 -1.6240
  436MOL0     H58824   9.099   8.239   0.005 -1.7979 -2.8480  0.2380
  436MOL0     H58825   9.046   8.281   0.163 -0.7951  0.0325  0.8676
  436MOL0     H58826   8.855   8.250  -0.060  1.8570  1.4257 -0.2946
  436MOL0     H58827   8.885   8.127   0.064  1.8856  0.1554  1.1479
  436MOL0     H58828   8.796   8.283   0.234 -2.6871  0.8944  0.8569
  436MOL0     H58829   8.774   8.412   0.121 -2.8034  0.5819  3.8365
  436MOL0     H58830   8.645   8.143   0.060 -1.1791 -0.3574 -0.7291
  436MOL0     H58831   8.607   8.315   0.008  2.0817 -0.0897 -0.2827
  436MOL0     H58832   8.463   8.347   0.202 -3.4169 -1.5850 -0.9115
  436MOL0     H58833   8.548   8.221   0.287 -3.3933 -3.2680  0.0861
  436MOL0     H58834   8.374   8.160   0.041 -2.1393  3.0355  1.3267
  436MOL0     H58835   8.445   8.051   0.172  0.7559  1.1746  1.4442
  436MOL0     H58836   8.254   8.266   0.239 -1.0024 -0.5341  2.5232
  436MOL0     H58837   8.286   8.117   0.322  0.2618 -1.9926  0.0538
  436MOL0     H58838   8.058   8.142   0.202  1.0937  0.9055  1.7013
  436MOL0     H58839   8.134   8.114   0.046 -3.1243 -2.5010  0.0136
  436MOL0     H58840   9.168   8.623  -0.059  0.9381  5.2909  0.4811
  436MOL0     H58841   9.247   8.810   0.069  3.5645 -0.6891  1.8864
  436MOL0     H58842   9.309   8.790   0.611  1.4804 -2.3174  2.9751
  436MOL0     H58843   9.439   8.827   0.807  0.4365 -1.2786  0.8178
  436MOL0     H58844   9.063   8.747   0.811  2.1000  1.7780 -4.0726
  436MOL0     H58845   8.993   8.795   0.577  0.2448  0.7425  0.0285
  436MOL0     H58846   8.738   8.594   0.237  0.4009  2.3356  6.2754
  436MOL0     H58847   8.704   8.595  -0.022 -0.0707  2.0046 -2.8630
  436MOL0     H58848   8.411   8.837  -0.233  0.6293 -2.8469 -6.6350
  436MOL0     H58849   8.420   8.704  -0.111 -0.1716 -1.9508 -1.1489
  436MOL0     H58850   8.438   8.565  -0.308  0.4423 -0.4977  0.8729
  436MOL0     H58851   8.603   8.594  -0.261  0.2246 -1.2012 -1.3062
  436MOL0     H58852   8.638   8.751  -0.419  0.4343  0.4176 -1.0694
  436MOL0     H58853   8.458   8.788  -0.457  1.1573  1.2612 -1.0143
  436MOL0     H58854   8.573   8.637  -0.641  2.2683 -2.4634  0.0210
  436MOL0     H58855   8.610   8.534  -0.504  0.5599  0.0240 -2.1573
  436MOL0     H58856   8.207   8.439  -0.588 -1.2270  0.9636 -0.7777
  436MOL0     H58857   8.533   8.978   0.017 -0.4798  1.4928  1.6268
  436MOL0     H58858   8.531   9.035   0.341  2.1998 -0.3955  2.6141
  436MOL0     H58859   8.704   9.068   0.296 -0.0660 -0.9456  0.8232
  436MOL0     H58860   8.575   9.124   0.196 -2.0320 -0.3617  1.1987
  437MOL0     O58861   5.096   4.467   7.943  0.7527  0.0219 -0.4705
  437MOL0     C58862   5.133   4.395   8.039  0.1234  0.0211  0.7031
  437MOL0     O58863   5.175   4.264   8.032  0.2385 -0.1516 -0.2569
  437MOL0     C58864   5.147   4.193   7.915 -0.3191 -0.4465  0.9170
  437MOL0     C58865   5.234   4.084   7.878  0.1393  0.4151 -0.7366
  437MOL0     C58866   5.200   4.012   7.764 -0.1645  0.5118 -0.6657
  437MOL0     C58867   5.089   4.042   7.681  0.5132  1.0113  0.0692
  437MOL0     O58868   5.045   3.964   7.581 -0.6410  0.2872  0.2602
  437MOL0     C58869   5.148   3.877   7.522  0.4178 -0.1830  0.4035
  437MOL0     C58870   5.088   3.783   7.418  0.7998  1.7024  0.5868
  437MOL0     C58871   5.193   3.717   7.332  0.9779 -0.0030  1.3548
  437MOL0     C58872   5.146   3.601   7.237 -0.1473  1.2599  0.0778
  437MOL0     C58873   5.121   3.637   7.088  0.7016 -0.4836  0.8510
  437MOL0     C58874   5.050   3.532   6.997  0.1107 -0.2566 -0.3323
  437MOL0     C58875   5.078   3.558   6.843  0.2709 -0.2280  0.3114
  437MOL0     C58876   4.961   3.519   6.752 -0.0143  0.4612 -0.3430
  437MOL0     N58877   4.881   3.630   6.701 -0.1598  0.4104 -0.3401
  437MOL0     C58878   4.914   3.712   6.595  0.5736  1.1989 -1.1461
  437MOL0     C58879   4.821   3.807   6.585  0.6138 -0.5259 -0.3079
  437MOL0     C58880   4.816   3.931   6.510  0.2403 -0.2792  0.8924
  437MOL0     C58881   4.946   4.007   6.533  0.4820  0.9270  0.5527
  437MOL0     C58882   4.940   4.154   6.492 -0.0414 -0.2194 -0.8160
  437MOL0     C58883   5.079   4.229   6.512  0.0522  0.4127  0.2169
  437MOL0     O58884   5.143   4.202   6.638 -0.2317 -0.0831  0.9119
  437MOL0     C58885   5.268   4.274   6.647  0.3015  0.1136 -1.0239
  437MOL0     C58886   5.351   4.222   6.736 -0.7710  0.3423  1.0492
  437MOL0     C58887   5.479   4.273   6.741 -0.0186 -0.9153  0.2557
  437MOL0     C58888   5.525   4.382   6.665 -0.3056  0.1624  0.9688
  437MOL0     C58889   5.658   4.440   6.672  0.7396  1.2390 -0.1346
  437MOL0     O58890   5.665   4.566   6.652 -0.3697  0.2206 -0.8999
  437MOL0     C58891   5.780   4.639   6.659 -1.0886  0.4576 -0.4478
  437MOL0     C58892   5.902   4.604   6.592 -1.4180 -0.6040 -0.7622
  437MOL0     C58893   6.019   4.686   6.588 -0.2814 -0.5536  0.2586
  437MOL0     C58894   6.026   4.795   6.669 -0.4216  0.4351 -0.6366
  437MOL0     O58895   6.151   4.856   6.672  0.1462  0.3973 -0.3742
  437MOL0     C58896   6.155   4.974   6.750 -0.7065  0.2936 -0.4505
  437MOL0     C58897   6.095   5.093   6.666 -0.1325 -0.2376 -0.5247
  437MOL0     C58898   6.040   5.199   6.762  0.0223  0.1399  0.2032
  437MOL0     C58899   6.147   5.246   6.854 -0.8182  0.4604 -0.1987
  437MOL0     C58900   6.124   5.387   6.929 -0.5708  1.0034 -0.2059
  437MOL0     C58901   5.995   5.375   7.006  0.5172  0.7727  0.3827
  437MOL0     C58902   5.970   5.509   7.090 -1.4667  0.4279  0.4241
  437MOL0     C58903   5.870   5.473   7.200 -0.0129 -0.1014  0.4963
  437MOL0    Cl58904   5.949   5.369   7.337 -0.3988  0.5111  0.1035
  437MOL0     C58905   5.914   4.823   6.747  0.0037  0.6148 -1.1126
  437MOL0     C58906   5.787   4.753   6.734 -0.9406  0.0753 -0.0765
  437MOL0     O58907   5.742   4.374   6.736 -1.0166  0.3453  0.8231
  437MOL0     C58908   5.435   4.444   6.578  1.0242 -0.9228 -0.7698
  437MOL0     C58909   5.299   4.394   6.571  0.5514  0.0782  0.5157
  437MOL0     N58910   4.726   3.771   6.684 -0.9556 -0.0176 -0.1735
  437MOL0     N58911   4.761   3.662   6.749  0.0145  0.1399 -0.3634
  437MOL0     C58912   5.012   4.158   7.716  0.2627  0.2616  0.3459
  437MOL0     C58913   5.033   4.224   7.835  0.3018  0.3911  0.8206
  437MOL0     C58914   5.121   4.443   8.181  0.4267 -0.7803 -0.2572
  437MOL0     C58915   5.033   4.558   8.206 -0.3800  0.6859  0.3158
  437MOL0     C58916   5.021   4.606   8.336  0.0223 -0.0961  0.3236
  437MOL0     C58917   5.081   4.544   8.445 -0.2916 -0.2892 -0.0334
  437MOL0     O58918   5.058   4.595   8.573 -0.0500  0.9799 -0.0420
  437MOL0     C58919   5.041   4.734   8.577  0.4734 -0.2597  0.6616
  437MOL0     C58920   5.170   4.819   8.533  1.1046 -0.0757  0.0466
  437MOL0     C58921   5.149   4.974   8.519  1.1538  0.4568 -0.9553
  437MOL0     C58922   5.097   5.041   8.647 -0.2894 -0.4446  0.2055
  437MOL0     C58923   4.956   5.070   8.644  1.0075  0.5798  0.3228
  437MOL0     C58924   4.834   5.093   8.648  0.5095  0.7630  0.2826
  437MOL0     C58925   5.150   4.436   8.416  0.3829  0.1836  0.4362
  437MOL0     C58926   5.188   4.386   8.286  0.4154 -0.3830  0.9165
  437MOL0     C58927   5.294   4.283   8.282 -0.0223  0.0220 -0.5161
  437MOL0     H58928   5.318   4.059   7.942 -1.1526 -0.8141  0.5508
  437MOL0     H58929   5.273   3.940   7.727  0.2168  0.5962 -0.1032
  437MOL0     H58930   5.226   3.943   7.484 -0.4889  0.9144  0.4118
  437MOL0     H58931   5.190   3.809   7.596  1.5675  0.3202  0.2327
  437MOL0     H58932   5.015   3.842   7.363 -0.2755  0.6607  0.8571
  437MOL0     H58933   5.037   3.699   7.465  0.8336  2.0526  1.2687
  437MOL0     H58934   5.273   3.677   7.395 -0.3022  0.5482  3.4434
  437MOL0     H58935   5.234   3.796   7.268  1.7400 -1.5238 -0.1154
  437MOL0     H58936   5.230   3.531   7.226 -1.9035 -1.0591  0.7814
  437MOL0     H58937   5.072   3.537   7.285  0.7639 -2.1755 -2.6825
  437MOL0     H58938   5.056   3.725   7.095  1.1199 -0.2767  2.6250
  437MOL0     H58939   5.216   3.680   7.054  1.0340  0.2277  2.5750
  437MOL0     H58940   5.085   3.430   7.015 -1.0733 -0.6147  0.0324
  437MOL0     H58941   4.944   3.532   7.024 -0.0398  2.0745 -0.6881
  437MOL0     H58942   5.163   3.495   6.816 -1.8662 -3.0407 -0.4311
  437MOL0     H58943   5.112   3.660   6.829  2.2817 -0.9026  0.0544
  437MOL0     H58944   5.013   3.470   6.670  0.0188 -2.0631  1.0825
  437MOL0     H58945   4.895   3.446   6.800 -0.8856  2.5486  1.8794
  437MOL0     H58946   5.012   3.709   6.548  1.3546 -0.9380  0.4456
  437MOL0     H58947   4.821   3.889   6.409  3.1528 -0.3313  0.9746
  437MOL0     H58948   4.719   3.980   6.525  0.5657  0.9727 -0.8049
  437MOL0     H58949   4.962   4.004   6.641  0.7749 -1.3103  0.4909
  437MOL0     H58950   5.027   3.951   6.487 -0.4061 -0.8035  1.0227
  437MOL0     H58951   4.860   4.201   6.550  1.2839 -0.7791  1.5923
  437MOL0     H58952   4.894   4.162   6.393 -1.1584  0.2225 -0.2809
  437MOL0     H58953   5.048   4.334   6.512  0.5108  0.5734  1.6135
  437MOL0     H58954   5.143   4.199   6.428  0.2062  0.4941  0.3030
  437MOL0     H58955   5.325   4.133   6.792 -1.8538  0.0272  0.0603
  437MOL0     H58956   5.548   4.209   6.794  1.3844 -0.3400 -0.7900
  437MOL0     H58957   5.904   4.523   6.520  0.3993  0.1602 -1.6149
  437MOL0     H58958   6.094   4.642   6.524 -1.7459 -0.0203 -1.9152
  437MOL0     H58959   6.101   4.968   6.845  0.6475  0.9016  0.3844
  437MOL0     H58960   6.257   4.993   6.782 -0.0553  1.1162 -2.7973
  437MOL0     H58961   6.163   5.151   6.603 -1.3850  2.3525  0.3908
  437MOL0     H58962   6.017   5.056   6.599 -0.4075  2.5958 -1.9341
  437MOL0     H58963   6.013   5.285   6.700 -3.9515 -2.1492 -1.6378
  437MOL0     H58964   5.945   5.180   6.812 -0.2506  5.4505  2.3339
  437MOL0     H58965   6.241   5.257   6.798 -0.2243 -0.6351  0.5504
  437MOL0     H58966   6.169   5.182   6.940  2.6018 -0.5405 -1.6251
  437MOL0     H58967   6.128   5.464   6.851  2.0269  0.1637 -1.0295
  437MOL0     H58968   6.215   5.402   6.988  0.4625  0.0211 -1.4673
  437MOL0     H58969   5.917   5.372   6.929  1.1952 -1.3824 -0.2805
  437MOL0     H58970   5.991   5.289   7.074  1.1220  0.5760  0.1754
  437MOL0     H58971   5.951   5.601   7.033  2.1314  2.6291  2.3794
  437MOL0     H58972   6.060   5.533   7.147 -1.1969  1.1734 -0.2913
  437MOL0     H58973   5.834   5.566   7.246  0.8936  1.8216 -2.4199
  437MOL0     H58974   5.778   5.432   7.160 -1.2656  3.1552 -0.2397
  437MOL0     H58975   5.899   4.907   6.814  1.9678 -1.2062  1.8362
  437MOL0     H58976   5.699   4.780   6.792 -1.9633  0.1626 -1.6147
  437MOL0     H58977   5.461   4.527   6.513  1.6788  2.0538  2.9551
  437MOL0     H58978   5.234   4.439   6.497  1.4138  0.7802  0.1546
  437MOL0     H58979   4.928   4.183   7.651  1.0522  1.3725 -0.2705
  437MOL0     H58980   4.959   4.300   7.857 -0.1065  0.4448 -0.6839
  437MOL0     H58981   4.997   4.608   8.117  2.4188 -0.9590 -1.9155
  437MOL0     H58982   4.965   4.699   8.331  2.7260  1.5713 -1.6918
  437MOL0     H58983   5.021   4.761   8.681  1.2266  2.8207  0.0925
  437MOL0     H58984   4.953   4.775   8.526 -1.9706 -4.0616  1.3857
  437MOL0     H58985   5.206   4.782   8.436 -0.3711 -0.2236 -0.4767
  437MOL0     H58986   5.250   4.810   8.607 -0.7724  1.3518  2.3816
  437MOL0     H58987   5.065   4.978   8.450  1.7160 -0.3975 -1.6977
  437MOL0     H58988   5.236   5.029   8.481  3.4418 -0.9209  1.8718
  437MOL0     H58989   5.132   4.979   8.730  0.2953 -2.2627 -1.3369
  437MOL0     H58990   5.147   5.138   8.641 -1.2097  0.0601  0.4700
  437MOL0     H58991   4.730   5.119   8.643  0.1800 -0.4608  0.4586
  437MOL0     H58992   5.194   4.383   8.500  2.5936  1.9950  0.5052
  437MOL0     H58993   5.338   4.273   8.382 -1.9810 -0.0913  0.3914
  437MOL0     H58994   5.257   4.188   8.243  0.9226  0.1771 -1.8641
  437MOL0     H58995   5.372   4.328   8.219 -1.6532  3.7210 -0.1657
  438MOL0     O58996   1.205   9.916   0.016 -0.1506  0.5512 -0.4701
  438MOL0     C58997   1.154   9.853  -0.069 -0.5178 -0.1254 -0.2539
  438MOL0     O58998   1.027   9.863  -0.111  0.5017 -0.2702  0.7670
  438MOL0     C58999   0.938   9.932  -0.030  0.3735  0.5382 -1.1543
  438MOL0     C59000   0.879   9.860   0.074  0.3726  0.2532 -0.4667
  438MOL0     C59001   0.786   9.924   0.159  0.1835  0.0496  0.9409
  438MOL0     C59002   0.751  10.058   0.143  0.4443  0.3606 -0.3002
  438MOL0     O59003   0.661  10.120   0.223  0.1398 -0.0950 -0.6921
  438MOL0     C59004   0.595  10.052   0.325 -0.4540 -0.3940  0.0627
  438MOL0     C59005   0.495  10.152   0.388  0.6190  0.0385 -0.8359
  438MOL0     C59006   0.571  10.236   0.496  1.2663 -0.3571  0.7807
  438MOL0     C59007   0.460  10.331   0.563 -0.4703 -0.3944  0.3979
  438MOL0     C59008   0.531  10.454   0.635  0.6657  0.8509  0.9420
  438MOL0     C59009   0.445  10.503   0.743 -0.5862 -0.2443 -0.0024
  438MOL0     C59010   0.335  10.585   0.691 -0.3902  1.3930  0.2143
  438MOL0     C59011   0.286  10.677   0.800  0.7894  0.2300 -0.3406
  438MOL0     N59012   0.201  10.615   0.904  0.6643 -0.1718 -0.0419
  438MOL0     C59013   0.150  10.487   0.916  0.7846  0.1334  1.3732
  438MOL0     C59014   0.087  10.478   1.028  0.1977  0.0834 -0.3425
  438MOL0     C59015   0.028  10.355   1.102 -0.1492  0.1197 -0.8139
  438MOL0     C59016   0.111  10.236   1.087  0.4632 -0.0924  0.1694
  438MOL0     C59017   0.228  10.225   1.180  0.4262  0.0646  1.7912
  438MOL0     C59018   0.188  10.189   1.327  0.5524  0.0213 -0.7828
  438MOL0     O59019   0.305  10.198   1.412 -0.8495 -0.6844  0.1662
  438MOL0     C59020   0.339  10.321   1.464 -0.4909  0.5208 -0.4042
  438MOL0     C59021   0.289  10.450   1.428 -1.0400 -0.6916  0.0862
  438MOL0     C59022   0.324  10.559   1.500  0.4887  0.0595 -0.8975
  438MOL0     C59023   0.415  10.552   1.611 -0.1284 -0.6776  0.9002
  438MOL0     C59024   0.465  10.674   1.685  0.0790  0.1190  0.2167
  438MOL0     O59025   0.576  10.661   1.759  0.2458  0.1575 -0.1994
  438MOL0     C59026   0.631  10.760   1.847  0.5396  0.3065  0.1332
  438MOL0     C59027   0.759  10.744   1.882 -0.1379  0.5858 -1.0640
  438MOL0     C59028   0.819  10.831   1.975 -0.3449  0.0255 -0.6242
  438MOL0     C59029   0.749  10.933   2.035 -0.5917  0.1143  0.5051
  438MOL0     O59030   0.802  11.005   2.136 -0.5523  0.1601 -0.3455
  438MOL0     C59031   0.737  11.125   2.177  0.6527  0.1530 -0.1054
  438MOL0     C59032   0.821  11.213   2.276  0.2733  0.7718 -0.5870
  438MOL0     C59033   0.920  11.125   2.367  0.0842 -0.4664  1.3006
  438MOL0     C59034   1.003  11.233   2.447  0.0929  0.7613 -0.7712
  438MOL0     C59035   1.072  11.161   2.566 -1.3527  0.5628  0.4659
  438MOL0     C59036   1.185  11.241   2.643  0.1414  0.3667  0.2154
  438MOL0     C59037   1.131  11.338   2.748 -0.2200  0.0082 -0.0654
  438MOL0     C59038   1.234  11.355   2.855  0.8814  0.0671  0.6990
  438MOL0    Cl59039   1.190  11.460   2.990  0.1798  0.0078 -0.6950
  438MOL0     C59040   0.613  10.940   2.008 -0.4348 -0.2512 -0.5932
  438MOL0     C59041   0.559  10.852   1.911  0.7154 -0.4706 -0.3814
  438MOL0     O59042   0.383  10.766   1.684 -0.4569  0.1680  0.3457
  438MOL0     C59043   0.467  10.431   1.639  0.0144  0.6986  0.0100
  438MOL0     C59044   0.421  10.307   1.578 -0.1335 -0.4290 -0.6618
  438MOL0     N59045   0.074  10.601   1.084 -0.0423  0.2459 -0.1493
  438MOL0     N59046   0.145  10.681   1.007 -0.5093 -0.1598 -0.0732
  438MOL0     C59047   0.828  10.128   0.047  1.0895 -0.3959  0.1074
  438MOL0     C59048   0.909  10.062  -0.048 -0.0199 -0.3650 -0.2586
  438MOL0     C59049   1.253   9.774  -0.148 -0.2983 -0.2085 -0.3975
  438MOL0     C59050   1.204   9.662  -0.219  0.2207 -2.0439  0.2153
  438MOL0     C59051   1.292   9.576  -0.286 -1.1144  0.8020  0.9035
  438MOL0     C59052   1.438   9.582  -0.274 -0.3858 -0.2359 -0.0048
  438MOL0     O59053   1.529   9.491  -0.328  0.6561 -0.5433  0.1395
  438MOL0     C59054   1.482   9.367  -0.383 -0.2163 -0.5581 -1.1469
  438MOL0     C59055   1.427   9.289  -0.269  0.5079  0.3180 -1.0342
  438MOL0     C59056   1.532   9.243  -0.157 -0.0510 -0.3765  0.1105
  438MOL0     C59057   1.476   9.164  -0.032  0.1608 -0.0263  0.3924
  438MOL0     C59058   1.573   9.068   0.014 -0.5120 -1.1899 -0.4183
  438MOL0     C59059   1.636   8.972   0.049 -0.8838 -0.3657  0.4531
  438MOL0     C59060   1.482   9.702  -0.202  0.6641 -0.0287  1.0428
  438MOL0     C59061   1.398   9.794  -0.144  0.5217  0.8262  0.2185
  438MOL0     C59062   1.470   9.921  -0.095 -0.3969 -0.6116 -0.5751
  438MOL0     H59063   0.894   9.754   0.090  0.1720  0.3619  0.4654
  438MOL0     H59064   0.734   9.863   0.232  0.0250 -1.0982 -0.1090
  438MOL0     H59065   0.535   9.975   0.276  0.6738 -1.6402  0.5690
  438MOL0     H59066   0.662  10.014   0.403  2.5241  1.6811 -1.2779
  438MOL0     H59067   0.418  10.100   0.445 -0.3009  0.4927 -1.6342
  438MOL0     H59068   0.453  10.216   0.310  1.3363 -0.5207 -1.7086
  438MOL0     H59069   0.634  10.313   0.451 -0.0053 -0.0506 -0.5746
  438MOL0     H59070   0.629  10.178   0.568  4.1382  0.5576 -0.6138
  438MOL0     H59071   0.394  10.364   0.482 -0.5797 -4.4742 -1.4200
  438MOL0     H59072   0.393  10.276   0.628 -3.0948 -0.2866 -2.0078
  438MOL0     H59073   0.616  10.407   0.687 -0.8708 -0.0321  2.7704
  438MOL0     H59074   0.572  10.539   0.580  6.6383 -1.3438  1.2683
  438MOL0     H59075   0.407  10.422   0.806 -0.0967 -0.5619 -0.1164
  438MOL0     H59076   0.517  10.562   0.799 -0.5234  0.3018 -0.6448
  438MOL0     H59077   0.254  10.526   0.648  0.7216 -0.0081 -0.0167
  438MOL0     H59078   0.366  10.634   0.599  3.3394 -2.9689 -1.2182
  438MOL0     H59079   0.367  10.709   0.867  1.1540 -2.8523  0.8548
  438MOL0     H59080   0.235  10.762   0.754  0.8066 -1.3272 -3.4674
  438MOL0     H59081   0.170  10.402   0.852  1.8204  0.7536  0.8533
  438MOL0     H59082   0.046  10.380   1.207  1.6153  1.6223 -1.4302
  438MOL0     H59083  -0.075  10.337   1.070 -0.3712  2.0783 -1.3246
  438MOL0     H59084   0.046  10.148   1.090 -1.1412  1.0384 -0.0377
  438MOL0     H59085   0.146  10.214   0.986 -0.1994 -2.1030  0.3365
  438MOL0     H59086   0.271  10.326   1.177  0.9634 -0.0696 -2.8989
  438MOL0     H59087   0.296  10.147   1.145 -0.1570  0.9128 -1.6234
  438MOL0     H59088   0.148  10.088   1.335  0.6010 -0.2260 -2.9780
  438MOL0     H59089   0.109  10.247   1.376  2.5397  0.3614  2.2991
  438MOL0     H59090   0.217  10.467   1.348 -0.6158  0.5325 -0.0530
  438MOL0     H59091   0.264  10.645   1.468  0.7531  0.0268 -1.4874
  438MOL0     H59092   0.806  10.650   1.855 -0.9574  0.3014 -1.5275
  438MOL0     H59093   0.921  10.824   2.013 -0.7343 -4.5987  0.1732
  438MOL0     H59094   0.722  11.196   2.095  2.0550  2.0257  1.1577
  438MOL0     H59095   0.640  11.098   2.221  1.8756 -0.6710  2.2732
  438MOL0     H59096   0.877  11.289   2.219 -0.6532  2.1238  0.2506
  438MOL0     H59097   0.747  11.265   2.337  2.1001  2.1428  0.5520
  438MOL0     H59098   0.851  11.070   2.433 -0.6227  0.6871  1.5484
  438MOL0     H59099   0.985  11.061   2.307 -0.7901 -1.8330  1.7564
  438MOL0     H59100   0.929  11.306   2.481 -0.6646 -0.8575  1.2216
  438MOL0     H59101   1.082  11.283   2.391 -0.1405 -1.5284 -3.3727
  438MOL0     H59102   1.107  11.072   2.515 -0.2083 -0.2145  2.5012
  438MOL0     H59103   1.001  11.122   2.640 -1.1168 -0.9166 -0.0677
  438MOL0     H59104   1.242  11.165   2.697 -0.4905 -1.1856 -1.1986
  438MOL0     H59105   1.252  11.290   2.571  1.2995 -1.6628 -0.1571
  438MOL0     H59106   1.041  11.295   2.793  0.5103 -1.4208  0.0872
  438MOL0     H59107   1.103  11.436   2.709 -0.3657  1.1737  2.6879
  438MOL0     H59108   1.270  11.262   2.899 -0.8751 -0.7203  0.5445
  438MOL0     H59109   1.325  11.406   2.820 -0.3326  1.1912 -0.9491
  438MOL0     H59110   0.547  11.019   2.042 -0.0996 -1.1138  2.3281
  438MOL0     H59111   0.452  10.862   1.894  0.7210  3.0037  0.6951
  438MOL0     H59112   0.549  10.408   1.707  0.6683 -0.5631 -1.1558
  438MOL0     H59113   0.462  10.212   1.608  4.0291  1.8538  1.8803
  438MOL0     H59114   0.804  10.233   0.032  0.3610 -0.6641 -0.6705
  438MOL0     H59115   0.938  10.119  -0.136 -0.8347 -2.7640 -2.2061
  438MOL0     H59116   1.096   9.653  -0.212  0.0722  0.0842  1.4806
  438MOL0     H59117   1.249   9.498  -0.348  1.7338  0.4006 -0.7198
  438MOL0     H59118   1.561   9.312  -0.435 -1.3741 -1.0658 -2.3983
  438MOL0     H59119   1.400   9.391  -0.451 -0.0194  1.0245 -0.8807
  438MOL0     H59120   1.384   9.196  -0.307 -1.6383 -0.5587  2.9792
  438MOL0     H59121   1.343   9.339  -0.220  0.3130  1.6340 -2.6221
  438MOL0     H59122   1.576   9.338  -0.123 -1.7190  0.3467  0.3633
  438MOL0     H59123   1.600   9.178  -0.212 -1.8545 -1.3805 -1.0356
  438MOL0     H59124   1.442   9.225   0.052 -0.7708 -0.7465  0.5554
  438MOL0     H59125   1.396   9.098  -0.067  0.4656 -1.6418  2.4900
  438MOL0     H59126   1.692   8.882   0.067  2.3238  0.8224 -2.4491
  438MOL0     H59127   1.589   9.721  -0.200  0.6394  1.0446 -2.1423
  438MOL0     H59128   1.483   9.910   0.013  0.0286 -2.1661 -0.7627
  438MOL0     H59129   1.568   9.933  -0.143  0.0855  0.5570  0.6266
  438MOL0     H59130   1.405  10.009  -0.105 -1.1073 -1.1129 -0.4292
  439MOL0     O59131   3.443  11.218   3.233  0.5883  0.8162  0.4545
  439MOL0     C59132   3.360  11.250   3.311  0.0824 -0.1102 -0.4010
  439MOL0     O59133   3.396  11.311   3.428  0.8109  0.6921 -0.7168
  439MOL0     C59134   3.524  11.301   3.479 -1.1365 -0.3537 -0.1642
  439MOL0     C59135   3.592  11.422   3.481  0.7359  0.6091 -0.1844
  439MOL0     C59136   3.704  11.432   3.563 -0.4949  0.5991  0.0158
  439MOL0     C59137   3.770  11.322   3.620 -1.3413 -0.3984 -0.4595
  439MOL0     O59138   3.878  11.338   3.696 -0.2677  0.1372  0.0970
  439MOL0     C59139   4.005  11.274   3.657  0.6684  0.2174 -0.0846
  439MOL0     C59140   4.074  11.341   3.546  0.0762  0.2278  0.0907
  439MOL0     C59141   4.221  11.311   3.486 -0.7989 -0.2200 -0.5209
  439MOL0     C59142   4.238  11.162   3.431 -0.7189  0.2961 -0.0325
  439MOL0     C59143   4.385  11.156   3.373  0.2649  0.0404  0.1863
  439MOL0     C59144   4.394  11.225   3.240  0.0691 -0.4194  0.7055
  439MOL0     C59145   4.526  11.199   3.166 -0.0474  0.8662 -0.7484
  439MOL0     C59146   4.584  11.309   3.074  0.3657 -1.1076 -0.8272
  439MOL0     N59147   4.624  11.421   3.167  0.3668  0.4115  0.1807
  439MOL0     C59148   4.547  11.529   3.207 -0.4349  0.4438  1.7468
  439MOL0     C59149   4.628  11.592   3.287 -0.1490  0.6833 -0.1065
  439MOL0     C59150   4.611  11.705   3.378  0.1903 -0.4006  1.1648
  439MOL0     C59151   4.521  11.646   3.495  0.0122 -0.0318  0.4350
  439MOL0     C59152   4.542  11.736   3.620 -0.6286  0.5499  0.3592
  439MOL0     C59153   4.484  11.689   3.749  0.2159 -0.1065  0.5922
  439MOL0     O59154   4.388  11.581   3.748  0.7488  0.0319  0.5849
  439MOL0     C59155   4.255  11.623   3.767  0.1401 -0.0434  0.7744
  439MOL0     C59156   4.197  11.735   3.713  0.5414 -0.0710 -0.0549
  439MOL0     C59157   4.056  11.775   3.729  0.0976  1.3100  1.0225
  439MOL0     C59158   3.970  11.693   3.806 -0.5643  0.0455 -0.0301
  439MOL0     C59159   3.818  11.724   3.811 -0.0869 -0.7080 -0.3738
  439MOL0     O59160   3.746  11.675   3.917 -0.5164 -0.4964  0.7577
  439MOL0     C59161   3.606  11.691   3.908 -0.4292  1.1838 -0.2878
  439MOL0     C59162   3.549  11.728   4.028  0.3312  0.2390  0.0028
  439MOL0     C59163   3.412  11.728   4.048  0.5124 -0.4456  1.4978
  439MOL0     C59164   3.328  11.703   3.941 -0.5804  0.7531  0.2702
  439MOL0     O59165   3.194  11.707   3.963  0.1489 -0.0381  0.1974
  439MOL0     C59166   3.107  11.746   3.847 -0.8664  0.0827  0.0575
  439MOL0     C59167   3.017  11.853   3.904 -0.0502 -0.0387  0.2782
  439MOL0     C59168   2.891  11.884   3.817 -0.4417  0.2078  0.1183
  439MOL0     C59169   2.775  11.939   3.898 -0.5125 -0.1113  0.8429
  439MOL0     C59170   2.667  11.986   3.803 -0.5390 -0.0420 -0.2921
  439MOL0     C59171   2.556  12.040   3.887  0.0598 -0.1865  0.1691
  439MOL0     C59172   2.498  11.956   3.992 -0.0419  0.0537 -0.1404
  439MOL0     C59173   2.372  12.031   4.047 -1.0873 -0.0246  0.3261
  439MOL0    Cl59174   2.412  12.186   4.121  0.2087  0.1439 -0.2541
  439MOL0     C59175   3.381  11.651   3.823 -0.1868  1.1139  0.7983
  439MOL0     C59176   3.521  11.649   3.799  1.4042 -0.3543 -0.2143
  439MOL0     O59177   3.771  11.793   3.718  0.2551  0.3876  0.1485
  439MOL0     C59178   4.031  11.572   3.866 -0.6134  0.0174  0.4974
  439MOL0     C59179   4.168  11.542   3.844  0.0214 -0.8050  0.5942
  439MOL0     N59180   4.757  11.539   3.288 -0.2055  0.8753 -0.2769
  439MOL0     N59181   4.751  11.437   3.211 -0.4762  0.3022 -0.4382
  439MOL0     C59182   3.722  11.198   3.593 -0.6479 -0.4163  0.3423
  439MOL0     C59183   3.591  11.190   3.534 -0.3719 -0.3006  0.6406
  439MOL0     C59184   3.205  11.229   3.296 -0.5802 -0.6861  0.6373
  439MOL0     C59185   3.113  11.298   3.377  0.4130  0.1694 -0.0567
  439MOL0     C59186   2.974  11.293   3.352 -0.9002 -0.4983  0.1845
  439MOL0     C59187   2.922  11.215   3.250 -0.4693 -1.1082  0.3422
  439MOL0     O59188   2.788  11.201   3.216 -0.5584 -0.1936  0.1149
  439MOL0     C59189   2.688  11.282   3.292 -0.0484  0.4159 -0.0690
  439MOL0     C59190   2.540  11.250   3.256  1.6611 -0.4594  1.1929
  439MOL0     C59191   2.518  11.273   3.108  0.3333  1.0027  0.6852
  439MOL0     C59192   2.371  11.250   3.070  0.8789  0.0214  0.6780
  439MOL0     C59193   2.318  11.110   3.087 -0.4116  0.4848  0.0460
  439MOL0     C59194   2.277  10.999   3.106 -0.2546  0.7389  0.0683
  439MOL0     C59195   3.008  11.128   3.185  0.0404 -0.5766  0.0840
  439MOL0     C59196   3.153  11.148   3.196 -0.0494  0.2137  1.1395
  439MOL0     C59197   3.228  11.053   3.102 -0.2527 -0.3647  0.8577
  439MOL0     H59198   3.561  11.515   3.434 -3.5528 -1.4037 -1.8378
  439MOL0     H59199   3.745  11.532   3.578 -0.6894  0.4786  1.5432
  439MOL0     H59200   4.072  11.267   3.743  1.0330 -1.2953 -0.4653
  439MOL0     H59201   3.984  11.168   3.635 -1.4172 -0.2672  3.5088
  439MOL0     H59202   4.070  11.447   3.573 -1.8466  0.0418  0.6964
  439MOL0     H59203   4.011  11.322   3.459  0.8276  0.7174 -0.5682
  439MOL0     H59204   4.294  11.333   3.564 -1.6650  1.0614 -0.0400
  439MOL0     H59205   4.256  11.387   3.417  0.0446 -0.6708 -0.6014
  439MOL0     H59206   4.204  11.089   3.505  0.6431 -0.2290  0.0897
  439MOL0     H59207   4.174  11.133   3.347 -4.0285 -3.5017  3.3972
  439MOL0     H59208   4.458  11.204   3.439  1.5949 -1.9524  0.2608
  439MOL0     H59209   4.416  11.056   3.343  2.9322  1.3477 -1.9518
  439MOL0     H59210   4.316  11.194   3.169  2.3238 -5.3175 -0.0561
  439MOL0     H59211   4.381  11.330   3.268 -2.0816 -0.5374  0.3475
  439MOL0     H59212   4.526  11.102   3.116 -2.0538  0.5371 -0.2075
  439MOL0     H59213   4.601  11.185   3.244 -1.5957  0.7323  0.7825
  439MOL0     H59214   4.666  11.275   3.010  1.1774  1.6576 -1.3760
  439MOL0     H59215   4.512  11.348   3.002 -0.5621  2.0668  1.5896
  439MOL0     H59216   4.442  11.552   3.193 -0.4166 -0.5848 -0.4295
  439MOL0     H59217   4.710  11.743   3.405 -0.9588  2.4373  1.7369
  439MOL0     H59218   4.559  11.791   3.334 -0.1014  0.2289  2.6820
  439MOL0     H59219   4.414  11.640   3.472  0.0602 -0.3525  0.2843
  439MOL0     H59220   4.546  11.542   3.518 -1.9464 -1.3684 -2.8944
  439MOL0     H59221   4.494  11.830   3.591  0.2709  0.9300  0.0470
  439MOL0     H59222   4.648  11.754   3.641 -0.2251  0.0790 -1.1065
  439MOL0     H59223   4.455  11.781   3.801  2.9340  1.1508  0.0374
  439MOL0     H59224   4.561  11.655   3.819 -0.2026  1.5613  1.9415
  439MOL0     H59225   4.262  11.795   3.650  1.4121  1.0638  1.8386
  439MOL0     H59226   4.024  11.863   3.673  0.8936 -0.7092 -3.0053
  439MOL0     H59227   3.613  11.749   4.113 -0.0259  0.0132  0.3302
  439MOL0     H59228   3.357  11.746   4.140  1.0573  0.8574  1.5789
  439MOL0     H59229   3.165  11.771   3.758 -0.3041 -1.1263  0.0625
  439MOL0     H59230   3.046  11.658   3.825  0.1081 -0.1409 -1.9581
  439MOL0     H59231   2.986  11.805   3.998  1.6413 -0.6906  0.5423
  439MOL0     H59232   3.075  11.945   3.911 -0.3706  0.1041  1.2385
  439MOL0     H59233   2.918  11.949   3.734 -1.1672 -0.7596 -0.9021
  439MOL0     H59234   2.852  11.797   3.764 -4.7470  0.5577  2.2942
  439MOL0     H59235   2.816  12.020   3.959  3.8384 -0.7030 -0.9307
  439MOL0     H59236   2.731  11.866   3.966 -3.7270  0.0137 -0.8826
  439MOL0     H59237   2.637  11.895   3.750 -1.0209 -0.8821  1.3561
  439MOL0     H59238   2.696  12.068   3.736 -2.3629  0.6137 -0.3275
  439MOL0     H59239   2.581  12.137   3.930 -3.9255  1.1665 -0.0816
  439MOL0     H59240   2.492  12.080   3.807  1.3459  1.6530 -0.0148
  439MOL0     H59241   2.572  11.932   4.069  0.6015 -0.6382 -0.9532
  439MOL0     H59242   2.467  11.857   3.956 -1.6097  0.7853 -0.9157
  439MOL0     H59243   2.295  12.045   3.970 -1.0959 -1.7354 -0.0291
  439MOL0     H59244   2.332  11.968   4.128 -1.3216  0.2240  0.4035
  439MOL0     H59245   3.318  11.610   3.744 -0.2332 -1.6778  2.1629
  439MOL0     H59246   3.563  11.615   3.705  1.5794 -0.0945 -0.2301
  439MOL0     H59247   3.968  11.504   3.922 -1.3558  0.2513 -0.0407
  439MOL0     H59248   4.203  11.454   3.898 -1.9770 -1.5019  0.8293
  439MOL0     H59249   3.773  11.115   3.640 -1.2716 -1.0072 -0.0034
  439MOL0     H59250   3.548  11.094   3.508  0.5158 -0.7329  0.7447
  439MOL0     H59251   3.157  11.358   3.456 -2.1281  2.6243 -0.3382
  439MOL0     H59252   2.909  11.356   3.412 -0.8313  0.0971 -0.3549
  439MOL0     H59253   2.703  11.390   3.286 -1.8984  0.8310  1.7185
  439MOL0     H59254   2.677  11.245   3.395 -0.6342 -0.8025 -0.5547
  439MOL0     H59255   2.464  11.303   3.314  0.4087 -0.0558 -0.7244
  439MOL0     H59256   2.519  11.143   3.270 -2.0586  0.1557  1.2381
  439MOL0     H59257   2.573  11.208   3.040  0.5499  2.0798 -0.1937
  439MOL0     H59258   2.550  11.375   3.085 -1.3707  1.1032 -1.6286
  439MOL0     H59259   2.315  11.323   3.129  0.5495  1.6074 -1.4575
  439MOL0     H59260   2.347  11.290   2.970  2.1411 -0.6243  0.0973
  439MOL0     H59261   2.236  10.901   3.120  2.5516 -0.6188 -0.5359
  439MOL0     H59262   2.972  11.054   3.114  1.4079 -0.2159 -1.0394
  439MOL0     H59263   3.306  11.092   3.037 -0.5072 -1.6160 -0.2384
  439MOL0     H59264   3.264  10.965   3.157 -1.9571 -1.4295  0.3503
  439MOL0     H59265   3.155  11.009   3.034 -0.2659  0.2282  0.4799
  440MOL0     O59266   3.641   6.701   1.135  0.1153 -0.0689  0.7732
  440MOL0     C59267   3.579   6.613   1.063 -0.4840 -0.5643 -0.2899
  440MOL0     O59268   3.454   6.575   1.084  0.1778  0.1893 -0.0177
  440MOL0     C59269   3.376   6.639   1.181  0.5538 -0.2002 -0.3335
  440MOL0     C59270   3.291   6.570   1.274 -0.6765 -0.0965 -0.4093
  440MOL0     C59271   3.205   6.636   1.366 -0.3970 -0.1064  0.6423
  440MOL0     C59272   3.202   6.774   1.378  0.3167  0.3485 -0.0067
  440MOL0     O59273   3.125   6.823   1.481  0.1533 -0.0873 -0.2139
  440MOL0     C59274   3.085   6.963   1.468  0.0707  0.3261  0.2010
  440MOL0     C59275   2.955   6.986   1.561  0.4123  0.2106  0.3470
  440MOL0     C59276   2.872   6.856   1.577  0.1846  0.6507 -0.7299
  440MOL0     C59277   2.740   6.875   1.656 -0.3680  0.7401  0.0627
  440MOL0     C59278   2.625   6.918   1.557  0.3652  0.7735 -0.5232
  440MOL0     C59279   2.494   6.948   1.624 -1.3168  0.2618 -0.1755
  440MOL0     C59280   2.470   7.096   1.676 -0.2341 -0.3381  0.4392
  440MOL0     C59281   2.411   7.087   1.813  0.2718 -0.9717  0.1324
  440MOL0     N59282   2.354   7.212   1.858  1.3986 -0.4101 -0.1646
  440MOL0     C59283   2.382   7.294   1.968  0.1302 -0.0065  0.3419
  440MOL0     C59284   2.301   7.402   1.964 -0.3441  0.3139 -0.7231
  440MOL0     C59285   2.311   7.520   2.063  0.2360 -0.1179 -0.4637
  440MOL0     C59286   2.350   7.649   1.980 -0.0056  0.3608 -0.4185
  440MOL0     C59287   2.318   7.764   2.081  0.2950 -0.5223 -0.3322
  440MOL0     C59288   2.161   7.799   2.072  0.7367 -0.0821  1.3384
  440MOL0     O59289   2.140   7.931   2.010 -0.5593 -0.0739 -0.0892
  440MOL0     C59290   2.062   8.012   2.085  0.7813  0.4624  0.5872
  440MOL0     C59291   1.931   7.969   2.102  0.6525  0.0152  0.1043
  440MOL0     C59292   1.851   8.052   2.184  0.4823  0.0649  0.2086
  440MOL0     C59293   1.901   8.177   2.228 -0.0868 -0.5711  0.0659
  440MOL0     C59294   1.809   8.278   2.278  0.2499  0.6752 -0.1404
  440MOL0     O59295   1.680   8.233   2.293  0.7316 -0.5255  0.4952
  440MOL0     C59296   1.581   8.328   2.325 -0.5686 -0.7915 -0.1753
  440MOL0     C59297   1.553   8.435   2.238 -1.3314  0.0312  0.0440
  440MOL0     C59298   1.488   8.546   2.292  1.1197  0.1365 -0.5771
  440MOL0     C59299   1.420   8.537   2.419 -0.7455  0.3900  0.0568
  440MOL0     O59300   1.342   8.639   2.456  1.5531 -0.3534 -0.0735
  440MOL0     C59301   1.214   8.658   2.401  0.4140 -0.0177  0.7126
  440MOL0     C59302   1.149   8.774   2.462  0.3082  0.3695 -1.4604
  440MOL0     C59303   1.021   8.819   2.394  0.2905  1.1026 -0.3078
  440MOL0     C59304   0.952   8.915   2.498 -0.7384 -0.6172 -0.7068
  440MOL0     C59305   0.838   8.996   2.439  0.8426  1.0230 -0.2805
  440MOL0     C59306   0.802   9.116   2.515  0.6539 -0.9352  0.5743
  440MOL0     C59307   0.682   9.100   2.613 -0.2415  0.1223 -0.7977
  440MOL0     C59308   0.715   9.021   2.740  0.2940 -0.4262  0.5549
  440MOL0    Cl59309   0.570   9.010   2.830 -0.0397 -0.1480  0.2065
  440MOL0     C59310   1.428   8.424   2.494 -0.3083 -0.2788  0.9611
  440MOL0     C59311   1.508   8.320   2.446 -0.3610 -0.1446  0.5062
  440MOL0     O59312   1.852   8.392   2.309  0.4084 -0.0587 -0.2426
  440MOL0     C59313   2.033   8.212   2.199  0.5633 -0.0348 -1.0365
  440MOL0     C59314   2.115   8.134   2.129 -0.6328 -0.4028  0.4547
  440MOL0     N59315   2.210   7.382   1.860 -0.3136 -0.5660 -0.7109
  440MOL0     N59316   2.240   7.270   1.801 -0.0974 -0.6116  0.3230
  440MOL0     C59317   3.281   6.841   1.288 -0.6625 -0.0508  0.2588
  440MOL0     C59318   3.359   6.775   1.187  0.6083  0.1445  0.2757
  440MOL0     C59319   3.647   6.549   0.960 -0.7613 -0.8309 -0.2742
  440MOL0     C59320   3.614   6.427   0.910 -0.1495  0.3974 -0.5039
  440MOL0     C59321   3.678   6.371   0.800  0.2619 -0.4728 -0.1850
  440MOL0     C59322   3.790   6.438   0.740 -0.0146  0.3242  0.2300
  440MOL0     O59323   3.842   6.380   0.628 -0.1880 -0.1376 -0.4103
  440MOL0     C59324   3.980   6.338   0.648  0.7483 -1.5789 -0.4566
  440MOL0     C59325   4.016   6.298   0.505 -0.0321 -0.1005  0.4862
  440MOL0     C59326   4.153   6.226   0.498  0.8312 -0.2368  0.0944
  440MOL0     C59327   4.184   6.171   0.356 -0.3452  0.1340  0.1436
  440MOL0     C59328   4.295   6.081   0.359 -1.2241 -0.0480 -0.1504
  440MOL0     C59329   4.381   5.993   0.341  0.2871  1.2307 -0.3349
  440MOL0     C59330   3.832   6.554   0.793  0.2317 -0.3114 -0.6275
  440MOL0     C59331   3.763   6.619   0.893  0.3352  0.7120 -0.2684
  440MOL0     C59332   3.812   6.764   0.915  0.7294 -0.6337 -0.4296
  440MOL0     H59333   3.287   6.463   1.263  0.6822 -0.1900 -0.2262
  440MOL0     H59334   3.138   6.577   1.428 -1.7163  1.8948  1.1924
  440MOL0     H59335   3.167   7.020   1.513 -0.7762  0.8988  1.0491
  440MOL0     H59336   3.065   7.009   1.371  0.9427  1.6251  0.6210
  440MOL0     H59337   2.890   7.069   1.533 -0.5876 -0.1857  1.4090
  440MOL0     H59338   2.989   7.015   1.660 -0.8217 -0.7182  1.0731
  440MOL0     H59339   2.918   6.786   1.647 -3.0156 -3.7238 -2.5402
  440MOL0     H59340   2.857   6.801   1.484 -1.8289  0.1369 -0.1439
  440MOL0     H59341   2.725   6.778   1.706  2.6211 -0.0572 -0.3711
  440MOL0     H59342   2.750   6.949   1.735  0.6255 -0.3548  1.0090
  440MOL0     H59343   2.661   7.001   1.496 -0.0644  0.5090 -1.1572
  440MOL0     H59344   2.608   6.832   1.491 -1.0136 -0.2552  1.0865
  440MOL0     H59345   2.413   6.919   1.555 -1.4773  1.2841 -0.4348
  440MOL0     H59346   2.488   6.874   1.704  0.7273  0.3241  0.0849
  440MOL0     H59347   2.407   7.154   1.609 -1.0847  0.0481  1.5557
  440MOL0     H59348   2.564   7.150   1.691 -0.5670  0.8879 -1.5654
  440MOL0     H59349   2.335   7.009   1.827 -1.2116  0.3813 -0.0546
  440MOL0     H59350   2.488   7.078   1.890  0.2332  0.1996  0.3147
  440MOL0     H59351   2.467   7.281   2.034 -0.3200  2.2991  1.4899
  440MOL0     H59352   2.224   7.531   2.129 -0.3330 -2.1512 -0.8188
  440MOL0     H59353   2.384   7.500   2.142 -1.2232 -4.8647 -0.0363
  440MOL0     H59354   2.452   7.645   1.941 -0.2422  1.6302 -1.2015
  440MOL0     H59355   2.274   7.651   1.901  0.3221  2.0322 -0.7147
  440MOL0     H59356   2.388   7.841   2.050  0.6020 -1.5590 -2.3633
  440MOL0     H59357   2.338   7.740   2.186 -2.6118 -1.3715  0.1459
  440MOL0     H59358   2.121   7.786   2.173 -0.0025 -2.5484  0.8070
  440MOL0     H59359   2.107   7.723   2.014  1.6479  0.5636 -0.4476
  440MOL0     H59360   1.880   7.884   2.057 -1.4163 -0.5318  3.1785
  440MOL0     H59361   1.749   8.016   2.199 -0.0310  0.2785 -2.2716
  440MOL0     H59362   1.606   8.458   2.146 -0.1677  1.1760  0.9662
  440MOL0     H59363   1.481   8.628   2.222  0.8310 -1.4295 -2.4712
  440MOL0     H59364   1.233   8.676   2.294  1.8470  0.4723  1.0287
  440MOL0     H59365   1.150   8.569   2.401 -0.2966  0.3682 -2.3027
  440MOL0     H59366   1.128   8.742   2.565  1.7560 -3.5249 -2.2247
  440MOL0     H59367   1.221   8.856   2.459  1.7094 -0.5987  1.4135
  440MOL0     H59368   1.060   8.877   2.310  1.6418  1.9591  0.8584
  440MOL0     H59369   0.957   8.744   2.347 -2.8458  2.3749  1.6094
  440MOL0     H59370   1.033   8.980   2.530 -0.3338 -1.3994 -0.1187
  440MOL0     H59371   0.917   8.856   2.583  1.6752 -2.6972 -1.0244
  440MOL0     H59372   0.744   8.939   2.444  0.3207  1.4970 -3.0382
  440MOL0     H59373   0.843   9.024   2.334 -0.4636 -1.9840 -1.2739
  440MOL0     H59374   0.894   9.145   2.568  1.1430 -0.7035 -0.3753
  440MOL0     H59375   0.766   9.196   2.450 -0.7622 -1.3962  0.7640
  440MOL0     H59376   0.592   9.067   2.561 -0.7752  1.1555 -0.5655
  440MOL0     H59377   0.656   9.203   2.638  0.2806  0.0132  0.2506
  440MOL0     H59378   0.745   8.922   2.704 -2.0375 -0.7957 -0.5288
  440MOL0     H59379   0.789   9.073   2.802 -2.9073  2.2877  2.4141
  440MOL0     H59380   1.373   8.423   2.588  0.3023  0.6460  1.3414
  440MOL0     H59381   1.536   8.226   2.493  2.4224 -0.8023 -2.1702
  440MOL0     H59382   2.067   8.305   2.243  4.0052 -1.4329 -0.3661
  440MOL0     H59383   2.217   8.161   2.104 -1.1704  3.5491  1.9060
  440MOL0     H59384   3.286   6.950   1.286 -0.6609 -0.0558  0.0067
  440MOL0     H59385   3.418   6.841   1.124  0.3501  1.0528  0.9494
  440MOL0     H59386   3.548   6.351   0.950  2.0535 -1.1334  0.4299
  440MOL0     H59387   3.646   6.277   0.757  2.0222 -2.3571  2.3103
  440MOL0     H59388   3.990   6.250   0.712  0.4801 -0.0425  1.8410
  440MOL0     H59389   4.037   6.424   0.684  1.5723 -0.4473 -4.1496
  440MOL0     H59390   4.013   6.387   0.442  1.8582 -1.3606 -1.5125
  440MOL0     H59391   3.939   6.237   0.456 -1.0615  2.7994 -1.7833
  440MOL0     H59392   4.174   6.145   0.569 -0.5586 -1.6863 -1.0594
  440MOL0     H59393   4.216   6.311   0.526 -0.0422  0.5091 -0.1844
  440MOL0     H59394   4.107   6.109   0.309  2.3254 -0.7632 -3.3994
  440MOL0     H59395   4.217   6.251   0.290  3.0553 -0.1847  1.2917
  440MOL0     H59396   4.465   5.932   0.316  1.2334  1.4519  2.0273
  440MOL0     H59397   3.914   6.597   0.735 -2.3142  1.7445 -2.9993
  440MOL0     H59398   3.837   6.781   1.020 -4.2657  1.4708  0.7304
  440MOL0     H59399   3.893   6.794   0.848  1.2191  0.6386  0.6692
  440MOL0     H59400   3.733   6.837   0.893  0.3332 -0.6712  0.8170
  441MOL0     O59401   2.304   1.711   5.182 -0.7892 -0.3752 -0.7555
  441MOL0     C59402   2.377   1.753   5.089  0.3258  0.5292  0.7156
  441MOL0     O59403   2.511   1.748   5.091  0.1029  0.7185  1.0595
  441MOL0     C59404   2.587   1.670   5.181 -0.0470  0.7137  0.6340
  441MOL0     C59405   2.574   1.533   5.217  0.2365 -0.1673 -0.0572
  441MOL0     C59406   2.659   1.477   5.312 -0.1961 -0.1728 -0.5916
  441MOL0     C59407   2.760   1.548   5.379  0.4142 -1.2688 -0.1309
  441MOL0     O59408   2.844   1.478   5.464 -0.5557 -0.4903  0.4318
  441MOL0     C59409   2.985   1.527   5.472 -0.1420  1.1900 -0.0152
  441MOL0     C59410   3.018   1.581   5.607  0.3638  0.1887 -0.5059
  441MOL0     C59411   3.172   1.570   5.638  0.1037  0.3683  0.2471
  441MOL0     C59412   3.241   1.665   5.547  0.0647  0.2303 -0.1892
  441MOL0     C59413   3.384   1.704   5.597 -0.1574  0.9438  0.4829
  441MOL0     C59414   3.440   1.794   5.488 -0.3772  0.4372  0.1128
  441MOL0     C59415   3.566   1.864   5.542 -1.1592 -0.3278 -0.0401
  441MOL0     C59416   3.682   1.774   5.580 -0.0767  0.4354  0.1955
  441MOL0     N59417   3.759   1.719   5.476  0.5410 -0.0421  0.5626
  441MOL0     C59418   3.882   1.768   5.447 -0.5554  0.1627 -0.7046
  441MOL0     C59419   3.930   1.686   5.357 -0.8904  1.1808 -0.8619
  441MOL0     C59420   4.082   1.692   5.330  0.4622 -0.1120  0.1505
  441MOL0     C59421   4.168   1.725   5.450  0.3379  0.4324  0.6148
  441MOL0     C59422   4.315   1.673   5.423  0.4924  0.6529  0.2715
  441MOL0     C59423   4.406   1.727   5.533  0.5071  0.3878  0.0768
  441MOL0     O59424   4.529   1.666   5.524  0.3153  0.0572  0.3768
  441MOL0     C59425   4.640   1.721   5.572  0.4594  1.1272  0.1673
  441MOL0     C59426   4.657   1.835   5.650  0.3369  0.3100 -0.1069
  441MOL0     C59427   4.785   1.864   5.708  0.7383 -0.0192  0.4378
  441MOL0     C59428   4.902   1.788   5.684 -0.4653 -0.0740  0.6572
  441MOL0     C59429   5.033   1.824   5.745  0.8700  0.0128 -0.6460
  441MOL0     O59430   5.146   1.780   5.684 -0.1687  0.0102  0.0733
  441MOL0     C59431   5.266   1.770   5.749  0.0278  0.1930 -0.0659
  441MOL0     C59432   5.318   1.862   5.837  0.1729  0.3458 -0.1634
  441MOL0     C59433   5.439   1.843   5.888 -0.2372  0.0683  0.7790
  441MOL0     C59434   5.518   1.728   5.864 -0.2113 -0.4719  1.1301
  441MOL0     O59435   5.650   1.708   5.918  0.6600 -0.2326  0.5645
  441MOL0     C59436   5.718   1.827   5.941  0.1233  0.5159 -0.2780
  441MOL0     C59437   5.864   1.785   5.932 -0.3309 -0.2673  0.1723
  441MOL0     C59438   5.911   1.797   5.785  0.5364  0.2193  0.1483
  441MOL0     C59439   6.056   1.756   5.763  0.3722 -0.2691  0.5651
  441MOL0     C59440   6.082   1.740   5.617 -0.4305  0.0907  0.4122
  441MOL0     C59441   6.195   1.648   5.570  0.0658 -0.2263  0.7439
  441MOL0     C59442   6.324   1.669   5.651  0.0858  0.0764  0.1816
  441MOL0     C59443   6.445   1.637   5.563  0.3507  0.4264 -0.2473
  441MOL0    Cl59444   6.474   1.741   5.423 -0.4314  0.2186 -0.1273
  441MOL0     C59445   5.470   1.633   5.781  0.4259  0.0577 -0.5524
  441MOL0     C59446   5.339   1.650   5.738 -0.3799  0.2502  0.9868
  441MOL0     O59447   5.032   1.877   5.856 -0.0498 -1.1768  0.7516
  441MOL0     C59448   4.888   1.681   5.594 -0.0730 -0.2183  0.1180
  441MOL0     C59449   4.756   1.649   5.547 -0.5520  0.1951 -0.0924
  441MOL0     N59450   3.831   1.597   5.322  0.1853  0.0320 -0.9087
  441MOL0     N59451   3.732   1.606   5.401  1.0969  0.7402  0.3378
  441MOL0     C59452   2.771   1.686   5.341  0.6320 -0.9109 -0.0485
  441MOL0     C59453   2.687   1.740   5.240 -1.4883 -0.6646  0.1931
  441MOL0     C59454   2.316   1.821   4.972  0.0171 -0.5467 -0.8420
  441MOL0     C59455   2.407   1.865   4.878 -0.7007  0.0505  0.3901
  441MOL0     C59456   2.361   1.921   4.758  0.5683  0.5827 -0.0877
  441MOL0     C59457   2.222   1.955   4.741 -0.4940 -1.0560 -0.1561
  441MOL0     O59458   2.181   2.014   4.620 -0.5853  0.4439  0.2753
  441MOL0     C59459   2.260   1.975   4.509  0.1091 -0.1602 -0.4319
  441MOL0     C59460   2.183   2.008   4.388 -0.5746 -0.0533  0.7194
  441MOL0     C59461   2.273   1.983   4.268  0.3233  0.3947 -0.2363
  441MOL0     C59462   2.311   2.113   4.196  0.5313 -0.1590  0.8824
  441MOL0     C59463   2.380   2.095   4.068 -0.4656 -0.0770  0.2325
  441MOL0     C59464   2.455   2.098   3.981 -0.6889 -0.2122  0.4240
  441MOL0     C59465   2.133   1.917   4.843  0.2583 -0.8311  0.0413
  441MOL0     C59466   2.176   1.844   4.953  0.4101 -0.5799 -0.3252
  441MOL0     C59467   2.062   1.793   5.043 -0.2245 -0.5442 -0.4142
  441MOL0     H59468   2.496   1.485   5.158  1.1114  0.0386 -1.4163
  441MOL0     H59469   2.640   1.379   5.354 -2.6182  0.1963 -0.7157
  441MOL0     H59470   3.042   1.433   5.467 -3.0258 -1.0105  3.6894
  441MOL0     H59471   3.037   1.593   5.402  1.2145  0.3201  0.1172
  441MOL0     H59472   2.959   1.532   5.685  2.6909  1.9260  2.5989
  441MOL0     H59473   2.985   1.684   5.623  1.8978  0.8035 -1.0965
  441MOL0     H59474   3.203   1.468   5.614 -0.0519  0.0945  1.1965
  441MOL0     H59475   3.190   1.587   5.744  0.6541 -1.7060  0.5297
  441MOL0     H59476   3.252   1.621   5.448  3.1430 -1.6805  0.8618
  441MOL0     H59477   3.180   1.756   5.547  0.2478  0.3974 -1.9813
  441MOL0     H59478   3.376   1.757   5.692 -2.8952  0.1395  0.8035
  441MOL0     H59479   3.433   1.607   5.610  0.5651  1.0960 -0.8951
  441MOL0     H59480   3.461   1.734   5.398 -2.9607  1.8539 -1.5608
  441MOL0     H59481   3.372   1.875   5.459  0.2179  0.3983 -1.5481
  441MOL0     H59482   3.540   1.910   5.638  1.6888  0.9981  0.1830
  441MOL0     H59483   3.603   1.947   5.481  2.3423 -0.3539  1.8567
  441MOL0     H59484   3.753   1.818   5.651 -2.0728  3.6840  0.3706
  441MOL0     H59485   3.632   1.694   5.634 -0.5673  0.7057  0.1456
  441MOL0     H59486   3.931   1.857   5.486  3.1424 -0.7617 -2.8379
  441MOL0     H59487   4.110   1.593   5.292 -1.6901 -0.3688 -0.8915
  441MOL0     H59488   4.093   1.759   5.244  1.1630 -1.2041 -0.6373
  441MOL0     H59489   4.165   1.831   5.478 -2.0882 -0.3085  3.6684
  441MOL0     H59490   4.127   1.671   5.536  2.0443 -0.2098  1.0538
  441MOL0     H59491   4.344   1.703   5.322 -1.5731  0.3749 -0.4589
  441MOL0     H59492   4.301   1.565   5.429 -4.8730  1.0629  0.1103
  441MOL0     H59493   4.353   1.715   5.628 -0.1562  2.1144 -0.0461
  441MOL0     H59494   4.424   1.833   5.516 -0.8421  0.4994 -0.8152
  441MOL0     H59495   4.576   1.899   5.684  0.7501  0.1149  1.2789
  441MOL0     H59496   4.792   1.950   5.773  1.9098 -0.4955  0.9739
  441MOL0     H59497   5.267   1.954   5.865  0.3018  0.4802 -0.3703
  441MOL0     H59498   5.470   1.914   5.965  1.4157 -0.5634  0.7482
  441MOL0     H59499   5.693   1.908   5.871  2.5442  2.1719  0.6155
  441MOL0     H59500   5.701   1.855   6.045  2.3805  3.5826 -0.5731
  441MOL0     H59501   5.936   1.841   5.993 -0.6931 -0.3828  0.7234
  441MOL0     H59502   5.880   1.680   5.961 -0.2041 -0.2924  0.0113
  441MOL0     H59503   5.855   1.720   5.731 -0.7488  0.4102  1.1454
  441MOL0     H59504   5.896   1.900   5.753  0.6968  0.6950  1.5350
  441MOL0     H59505   6.082   1.666   5.819  0.6038 -0.4142  0.2282
  441MOL0     H59506   6.106   1.844   5.804  1.7527 -1.0867  0.7101
  441MOL0     H59507   6.105   1.842   5.585  1.9945 -0.6111 -0.2806
  441MOL0     H59508   5.990   1.703   5.570 -0.6264 -0.0090  0.8655
  441MOL0     H59509   6.167   1.545   5.595 -0.9228 -0.6241 -1.6604
  441MOL0     H59510   6.216   1.657   5.463  4.5677 -4.5393  0.8738
  441MOL0     H59511   6.318   1.588   5.724  0.5618 -2.4357 -2.4167
  441MOL0     H59512   6.327   1.769   5.696  2.6956  1.1115 -1.9807
  441MOL0     H59513   6.526   1.640   5.636 -1.3855 -0.4374  1.7929
  441MOL0     H59514   6.433   1.543   5.509  2.2467 -0.6952  1.1667
  441MOL0     H59515   5.536   1.549   5.762  0.6227 -0.0187  0.4124
  441MOL0     H59516   5.312   1.587   5.654  1.1099 -0.6191  1.1282
  441MOL0     H59517   4.971   1.615   5.568 -0.8109 -1.3093  0.4382
  441MOL0     H59518   4.730   1.553   5.504 -3.2504 -0.1959  2.1247
  441MOL0     H59519   2.835   1.767   5.375  0.6943 -1.4116  1.0453
  441MOL0     H59520   2.697   1.836   5.189 -1.4742 -0.3205  0.8411
  441MOL0     H59521   2.511   1.836   4.868 -1.0922 -0.6347 -2.8105
  441MOL0     H59522   2.437   1.920   4.681  1.9953  1.3626  1.2388
  441MOL0     H59523   2.263   1.866   4.521  1.3213  0.0219  1.2041
  441MOL0     H59524   2.356   2.027   4.518 -0.8025  1.4396  0.2958
  441MOL0     H59525   2.160   2.115   4.386 -2.3806 -0.3906  1.7343
  441MOL0     H59526   2.089   1.954   4.376 -0.2189 -0.8263  1.2966
  441MOL0     H59527   2.231   1.915   4.193 -2.7389 -0.5768  2.1801
  441MOL0     H59528   2.366   1.945   4.310 -1.2197 -0.5269  2.5983
  441MOL0     H59529   2.218   2.163   4.168  2.8691  2.7312 -2.7872
  441MOL0     H59530   2.361   2.176   4.270 -1.9571  0.2021  2.3516
  441MOL0     H59531   2.526   2.106   3.900 -2.4659 -1.2824 -1.3428
  441MOL0     H59532   2.027   1.938   4.849  0.4816 -0.2007  2.7409
  441MOL0     H59533   2.081   1.685   5.044  2.3610 -0.1949 -1.7400
  441MOL0     H59534   2.075   1.836   5.142 -2.1678  2.9169 -1.4996
  441MOL0     H59535   1.957   1.803   5.015 -0.2961  2.4120  0.5885
  442MOL0     O59536   4.331   0.658  10.808  0.0298 -0.2133 -0.2826
  442MOL0     C59537   4.375   0.724  10.709  0.1122  1.2298 -1.0812
  442MOL0     O59538   4.369   0.676  10.576  0.0280 -0.8183  0.2499
  442MOL0     C59539   4.298   0.558  10.560 -0.3980  0.4699 -0.3342
  442MOL0     C59540   4.162   0.555  10.576 -0.1489 -0.3567 -0.5203
  442MOL0     C59541   4.073   0.465  10.516 -0.4124 -1.0019 -0.7302
  442MOL0     C59542   4.128   0.355  10.442  0.1431  0.6027  0.7484
  442MOL0     O59543   4.038   0.278  10.363 -1.1252 -0.9461 -0.1351
  442MOL0     C59544   4.096   0.184  10.268 -0.3747  1.4863  0.3292
  442MOL0     C59545   3.991   0.164  10.155  0.2710 -0.6268  0.3533
  442MOL0     C59546   4.057   0.087  10.039 -0.1407  0.4844 -0.4004
  442MOL0     C59547   3.955   0.068   9.927 -0.0312  0.0315 -1.0068
  442MOL0     C59548   3.990  -0.043   9.828  0.3184  0.7158 -0.3038
  442MOL0     C59549   3.997  -0.183   9.899 -0.7427 -0.5679  0.8429
  442MOL0     C59550   4.029  -0.291   9.795  0.6580  0.8463  1.4506
  442MOL0     C59551   4.032  -0.437   9.849  0.6113  0.1419  0.6602
  442MOL0     N59552   4.063  -0.525   9.730 -0.0396  0.4990  0.0137
  442MOL0     C59553   3.960  -0.562   9.647  0.8355  0.6054  1.7041
  442MOL0     C59554   4.031  -0.648   9.557 -0.7412 -0.1971 -0.8754
  442MOL0     C59555   3.952  -0.722   9.451  0.2904 -1.1535  0.4917
  442MOL0     C59556   4.004  -0.707   9.314  0.7143  0.5035  0.9645
  442MOL0     C59557   3.998  -0.838   9.229 -1.1952 -0.2637 -1.0141
  442MOL0     C59558   4.082  -0.844   9.098  0.1369  0.5250  0.6210
  442MOL0     O59559   4.231  -0.848   9.119 -0.3815  0.2456  0.1244
  442MOL0     C59560   4.310  -0.857   9.006 -0.0846 -0.9318 -1.1252
  442MOL0     C59561   4.283  -0.945   8.902  0.0145  0.6089  1.1720
  442MOL0     C59562   4.374  -0.972   8.794 -0.3019  0.4571  0.3807
  442MOL0     C59563   4.494  -0.897   8.794 -0.5354  0.0406 -0.5390
  442MOL0     C59564   4.602  -0.917   8.693 -0.2830  0.0599  0.7415
  442MOL0     O59565   4.588  -1.003   8.593 -1.1449  0.1723 -0.7993
  442MOL0     C59566   4.679  -1.029   8.493  0.2611  0.0688  1.0111
  442MOL0     C59567   4.647  -1.135   8.418  0.6417  0.4452  0.1012
  442MOL0     C59568   4.724  -1.169   8.301 -0.2819  1.1394  0.1207
  442MOL0     C59569   4.841  -1.105   8.277  0.5719  0.3243  0.3392
  442MOL0     O59570   4.914  -1.138   8.166  0.4191  0.6370 -0.0451
  442MOL0     C59571   4.880  -1.069   8.045 -0.0351 -0.1250 -0.2033
  442MOL0     C59572   4.994  -1.116   7.948 -0.1296  0.0655  0.5792
  442MOL0     C59573   4.968  -1.067   7.802 -0.6300 -1.0433 -0.8579
  442MOL0     C59574   5.097  -1.094   7.716 -0.0931 -0.0171 -0.7569
  442MOL0     C59575   5.069  -1.060   7.570  0.0465 -0.4597  0.0435
  442MOL0     C59576   5.204  -1.027   7.500  0.4922  0.2230 -1.0035
  442MOL0     C59577   5.178  -0.998   7.356 -0.5183 -0.5346  0.4608
  442MOL0     C59578   5.298  -0.963   7.269 -0.6361 -0.4305 -0.3578
  442MOL0    Cl59579   5.355  -0.806   7.323  0.3324  0.5172 -0.1414
  442MOL0     C59580   4.883  -1.001   8.358  0.6506 -0.3328  0.5863
  442MOL0     C59581   4.795  -0.961   8.469  0.0567 -0.4036  0.5678
  442MOL0     O59582   4.710  -0.859   8.720  0.2041  0.4231  0.3109
  442MOL0     C59583   4.527  -0.827   8.915 -0.2683 -0.1125 -0.1889
  442MOL0     C59584   4.439  -0.803   9.020 -0.1452  0.8697 -0.6739
  442MOL0     N59585   4.170  -0.636   9.581 -0.0563 -0.8948 -0.6113
  442MOL0     N59586   4.187  -0.553   9.685 -0.2448  0.2678 -0.2075
  442MOL0     C59587   4.267   0.353  10.425  1.4366  0.2063 -0.3339
  442MOL0     C59588   4.352   0.449  10.491 -0.0401 -0.5137 -1.2216
  442MOL0     C59589   4.421   0.868  10.715 -1.3121 -0.3728  0.5709
  442MOL0     C59590   4.413   0.950  10.593 -0.5494  0.3246  0.3013
  442MOL0     C59591   4.458   1.089  10.600  0.6747 -0.2086  0.4683
  442MOL0     C59592   4.505   1.141  10.714  0.5442 -0.0180 -0.4284
  442MOL0     O59593   4.529   1.276  10.713 -0.0953  0.0266 -0.4345
  442MOL0     C59594   4.599   1.333  10.829  1.0169  0.8364 -0.3022
  442MOL0     C59595   4.639   1.478  10.812  0.6535  0.4985  0.5561
  442MOL0     C59596   4.515   1.546  10.743  0.0186  0.9418  0.0595
  442MOL0     C59597   4.514   1.700  10.748  0.0601 -0.4263 -0.4141
  442MOL0     C59598   4.623   1.756  10.669  0.3704  0.4190  0.1325
  442MOL0     C59599   4.713   1.824  10.635 -1.4042  0.2943  0.0182
  442MOL0     C59600   4.520   1.057  10.821  0.6095  0.1636 -0.5612
  442MOL0     C59601   4.494   0.919  10.824  0.4321  0.5933 -1.0485
  442MOL0     C59602   4.528   0.839  10.941  0.5791  0.0564  0.0032
  442MOL0     H59603   4.111   0.627  10.640 -0.6069 -1.7458  0.7378
  442MOL0     H59604   3.966   0.479  10.519 -0.6350 -2.0866 -2.3019
  442MOL0     H59605   4.186   0.223  10.221  0.7109 -3.1555 -1.9994
  442MOL0     H59606   4.126   0.088  10.312 -1.6124 -0.2612 -2.3812
  442MOL0     H59607   3.949   0.256  10.114 -0.8420 -2.0259 -1.8131
  442MOL0     H59608   3.899   0.120  10.196  0.4269  0.6604  2.2337
  442MOL0     H59609   4.104  -0.006  10.072  2.7348  0.3715 -4.1659
  442MOL0     H59610   4.138   0.148   9.998  0.4005  1.9395  2.5502
  442MOL0     H59611   3.858   0.041   9.971  1.8645 -0.2197  3.5269
  442MOL0     H59612   3.933   0.165   9.883  3.1803  0.6397 -1.5019
  442MOL0     H59613   3.904  -0.049   9.760  0.0033  2.0491 -0.0420
  442MOL0     H59614   4.078  -0.018   9.768  1.0607  3.0483  1.6097
  442MOL0     H59615   4.083  -0.182   9.966  1.4259 -1.5693 -1.7446
  442MOL0     H59616   3.897  -0.203   9.938 -1.4074  3.6168  1.7684
  442MOL0     H59617   4.131  -0.269   9.765 -0.1231  0.4316 -1.9290
  442MOL0     H59618   3.968  -0.283   9.705 -0.5472  2.6864  2.3591
  442MOL0     H59619   4.113  -0.451   9.920  1.5711  1.2983 -0.1715
  442MOL0     H59620   3.936  -0.467   9.892 -1.3081  0.8234 -2.7238
  442MOL0     H59621   3.854  -0.537   9.643  0.1577 -1.9967 -2.2286
  442MOL0     H59622   3.938  -0.827   9.478  1.1713 -1.0583  1.3746
  442MOL0     H59623   3.849  -0.686   9.446  0.8808  0.5826 -0.2881
  442MOL0     H59624   3.944  -0.623   9.278  0.5532  1.2930  2.9935
  442MOL0     H59625   4.109  -0.677   9.313  0.9769 -0.2056 -1.6120
  442MOL0     H59626   3.894  -0.869   9.213 -0.6055 -3.2579  0.1133
  442MOL0     H59627   4.040  -0.926   9.279 -0.1210  0.9523  0.3144
  442MOL0     H59628   4.069  -0.747   9.050 -2.5233  3.4317  6.1735
  442MOL0     H59629   4.054  -0.933   9.042  0.8060  2.0989 -2.4053
  442MOL0     H59630   4.188  -0.998   8.899  0.5040 -0.3237 -1.6516
  442MOL0     H59631   4.344  -1.027   8.706  0.7032  1.3763 -0.5702
  442MOL0     H59632   4.552  -1.184   8.433  2.1644 -2.5773  0.7593
  442MOL0     H59633   4.686  -1.242   8.230  3.3812  0.5625 -1.4350
  442MOL0     H59634   4.782  -1.100   8.008 -0.5416 -0.2921  1.2299
  442MOL0     H59635   4.889  -0.961   8.058 -1.2837  0.2036 -1.7149
  442MOL0     H59636   5.076  -1.069   8.003  1.0047 -1.1870  0.0039
  442MOL0     H59637   5.010  -1.224   7.947 -0.0904  0.0740  0.1650
  442MOL0     H59638   4.890  -1.128   7.754 -2.1348 -2.0724  2.6079
  442MOL0     H59639   4.937  -0.962   7.803 -4.0834 -1.8656  2.7481
  442MOL0     H59640   5.127  -1.199   7.721 -1.8924 -0.5213  1.5356
  442MOL0     H59641   5.182  -1.036   7.753  0.0172  0.5287 -1.8223
  442MOL0     H59642   5.007  -0.970   7.566 -2.5032 -2.1609 -0.4649
  442MOL0     H59643   5.024  -1.148   7.524  1.1240 -1.3465  0.6534
  442MOL0     H59644   5.257  -0.947   7.553  0.8256 -2.5002  3.2824
  442MOL0     H59645   5.266  -1.115   7.519 -2.4799 -1.7073  0.7691
  442MOL0     H59646   5.113  -0.911   7.344  0.5403  0.5169  1.9752
  442MOL0     H59647   5.133  -1.082   7.302 -2.1006  2.3255 -3.1096
  442MOL0     H59648   5.377  -1.038   7.286 -1.1661 -0.4457  2.6412
  442MOL0     H59649   5.266  -0.941   7.167 -1.1943  1.8363  0.2620
  442MOL0     H59650   4.967  -0.940   8.327 -0.6655  0.8479 -0.8426
  442MOL0     H59651   4.833  -0.869   8.514  2.2983 -1.5488  1.1743
  442MOL0     H59652   4.615  -0.765   8.922  2.2339 -3.4236 -0.1415
  442MOL0     H59653   4.464  -0.741   9.105  1.1583  1.1220 -1.2180
  442MOL0     H59654   4.319   0.269  10.379 -1.8424 -1.7951 -0.7488
  442MOL0     H59655   4.460   0.456  10.481 -0.0499  0.1797 -0.8745
  442MOL0     H59656   4.367   0.906  10.506 -0.8336 -2.5993  1.8355
  442MOL0     H59657   4.440   1.160  10.521  0.7363 -2.5902 -1.8288
  442MOL0     H59658   4.683   1.268  10.857 -2.4898 -3.7691  0.7412
  442MOL0     H59659   4.529   1.318  10.911  0.2663  0.0338 -1.0748
  442MOL0     H59660   4.724   1.488  10.744  1.3648 -0.2683  1.3025
  442MOL0     H59661   4.670   1.507  10.913  0.3575 -2.6372  1.6539
  442MOL0     H59662   4.420   1.514  10.787  1.4932 -0.4186  2.4336
  442MOL0     H59663   4.521   1.510  10.640 -0.1638 -2.8945  1.2464
  442MOL0     H59664   4.414   1.734  10.717  0.0655  0.7743  0.8187
  442MOL0     H59665   4.516   1.742  10.848  2.0521  0.9615 -0.9820
  442MOL0     H59666   4.794   1.890  10.609 -1.9451  0.2075 -2.1179
  442MOL0     H59667   4.557   1.088  10.918 -1.3428 -1.5690  0.8016
  442MOL0     H59668   4.605   0.770  10.905  0.8019  1.7855 -3.2040
  442MOL0     H59669   4.575   0.904  11.016 -0.6902 -0.0980  0.9537
  442MOL0     H59670   4.446   0.785  10.988  1.5536 -2.3784 -0.9460
  443MOL0     O59671   7.856   7.462   6.186 -0.1978 -0.4055 -0.0615
  443MOL0     C59672   7.797   7.369   6.127  0.0209  0.0458 -0.2626
  443MOL0     O59673   7.835   7.316   6.011 -0.2017 -0.0197  0.4647
  443MOL0     C59674   7.935   7.376   5.935  0.3687 -0.7219  0.1841
  443MOL0     C59675   7.906   7.492   5.866 -0.1284  0.3007  0.1951
  443MOL0     C59676   8.003   7.542   5.776  0.5275 -0.8963  0.3556
  443MOL0     C59677   8.127   7.483   5.776 -0.2841  0.1440  0.1898
  443MOL0     O59678   8.225   7.563   5.723 -0.0615 -0.6000  0.2110
  443MOL0     C59679   8.277   7.515   5.602 -1.0511  0.9700 -0.5358
  443MOL0     C59680   8.428   7.479   5.606 -0.6808  0.6142 -0.4530
  443MOL0     C59681   8.522   7.600   5.615  0.6938 -0.4216  0.7347
  443MOL0     C59682   8.665   7.542   5.632 -0.8186 -0.0634  0.1359
  443MOL0     C59683   8.765   7.663   5.612 -0.0228  0.5983 -0.4629
  443MOL0     C59684   8.903   7.630   5.661 -0.2221  0.5759  0.1248
  443MOL0     C59685   8.988   7.557   5.555 -0.4011 -0.9640 -0.2904
  443MOL0     C59686   9.138   7.543   5.581 -0.0237  0.7054  0.0615
  443MOL0     N59687   9.210   7.664   5.573  0.7215  0.8642  0.7086
  443MOL0     C59688   9.232   7.724   5.447 -0.3430  0.7679 -0.4158
  443MOL0     C59689   9.298   7.837   5.473 -0.2646  0.7078 -1.1274
  443MOL0     C59690   9.377   7.932   5.381 -0.4173  0.8649 -0.7918
  443MOL0     C59691   9.340   8.070   5.410  0.6124 -0.4490  0.1778
  443MOL0     C59692   9.193   8.106   5.367  0.1447 -0.4701 -0.5970
  443MOL0     C59693   9.175   8.260   5.358 -0.0460 -0.5537 -0.0392
  443MOL0     O59694   9.119   8.289   5.491  0.3969 -0.2865 -0.4166
  443MOL0     C59695   9.100   8.423   5.533  0.0314 -0.4742  0.8815
  443MOL0     C59696   9.064   8.531   5.445 -0.2756  0.9969 -0.4649
  443MOL0     C59697   9.044   8.656   5.483 -0.7162  0.0588 -0.2296
  443MOL0     C59698   9.077   8.693   5.617 -0.3424  0.1353  0.2039
  443MOL0     C59699   9.052   8.834   5.665  0.0645 -0.5244 -0.6551
  443MOL0     O59700   9.109   8.859   5.791  0.5329  0.6047  0.5836
  443MOL0     C59701   9.090   8.972   5.864 -0.2759 -0.8429  0.3727
  443MOL0     C59702   9.069   8.965   6.000  0.1504  0.1720  0.8855
  443MOL0     C59703   9.052   9.077   6.075 -0.7040  0.1218 -0.1040
  443MOL0     C59704   9.064   9.205   6.016  0.0416 -0.2853 -0.3909
  443MOL0     O59705   9.071   9.330   6.083  0.0530  0.0049  0.6761
  443MOL0     C59706   9.067   9.348   6.224 -0.5265  0.0315 -0.6310
  443MOL0     C59707   9.088   9.498   6.262  0.6755  0.4524  0.0953
  443MOL0     C59708   9.080   9.529   6.414 -0.2567  0.7860  0.9050
  443MOL0     C59709   9.043   9.670   6.460 -0.9803  0.4527  0.0569
  443MOL0     C59710   9.162   9.777   6.439 -0.2025 -0.0621  0.7926
  443MOL0     C59711   9.284   9.760   6.541 -0.2262  0.3594 -0.0744
  443MOL0     C59712   9.393   9.864   6.535 -1.0704  0.1887  0.7509
  443MOL0     C59713   9.451   9.887   6.392  0.5016 -0.4451 -0.3894
  443MOL0    Cl59714   9.585  10.011   6.393  0.3576 -0.0563 -0.0795
  443MOL0     C59715   9.070   9.213   5.881  0.0579  0.5890  0.1802
  443MOL0     C59716   9.083   9.097   5.810 -0.5450  0.9396  0.8599
  443MOL0     O59717   9.003   8.913   5.586  0.2652  0.9615 -0.0215
  443MOL0     C59718   9.116   8.589   5.708 -0.7177  0.2710 -0.0317
  443MOL0     C59719   9.128   8.460   5.667  0.2349  0.0828 -0.6697
  443MOL0     N59720   9.313   7.845   5.616  0.1594 -0.0938  0.7868
  443MOL0     N59721   9.264   7.744   5.675 -0.3523  0.1302 -0.2018
  443MOL0     C59722   8.159   7.362   5.848 -0.0258 -1.0572 -0.5272
  443MOL0     C59723   8.055   7.305   5.916 -0.4742 -0.7174 -0.9802
  443MOL0     C59724   7.700   7.300   6.212  0.3624 -0.0374  0.2039
  443MOL0     C59725   7.583   7.249   6.147  0.2149 -0.5465  0.3121
  443MOL0     C59726   7.490   7.170   6.205  0.0618  0.2700 -0.2682
  443MOL0     C59727   7.507   7.128   6.332  1.2307 -0.6615  0.2362
  443MOL0     O59728   7.421   7.035   6.380  0.6508  0.0860  0.9856
  443MOL0     C59729   7.414   6.995   6.513 -0.8949  0.3645  0.1500
  443MOL0     C59730   7.285   6.916   6.545 -0.1952 -0.6937 -1.1952
  443MOL0     C59731   7.264   6.803   6.443  1.4693 -0.2090 -0.2306
  443MOL0     C59732   7.146   6.724   6.479 -0.6444  0.7406  0.1507
  443MOL0     C59733   7.137   6.594   6.413  0.8240  0.1162  0.0627
  443MOL0     C59734   7.118   6.512   6.330 -0.5205 -0.0921  1.0394
  443MOL0     C59735   7.619   7.171   6.405 -0.0955  0.0115  0.5719
  443MOL0     C59736   7.713   7.267   6.351 -0.0453 -0.7446  1.0698
  443MOL0     C59737   7.816   7.318   6.448  0.0867 -0.4021 -0.3568
  443MOL0     H59738   7.807   7.530   5.890 -0.0746  1.4045 -1.1716
  443MOL0     H59739   7.988   7.635   5.721 -1.1729 -2.4935 -2.1229
  443MOL0     H59740   8.225   7.424   5.571 -1.1201  1.4280 -1.8146
  443MOL0     H59741   8.268   7.595   5.528  1.1395  0.8562 -0.9870
  443MOL0     H59742   8.448   7.417   5.518 -2.4131  0.2205 -0.6071
  443MOL0     H59743   8.443   7.409   5.689  2.4153  0.1235 -1.3038
  443MOL0     H59744   8.501   7.671   5.695  0.5306 -2.3401  2.4967
  443MOL0     H59745   8.519   7.650   5.518 -1.4131 -1.6873  0.0890
  443MOL0     H59746   8.678   7.502   5.733 -0.4891 -1.3777 -0.4140
  443MOL0     H59747   8.687   7.464   5.559 -2.1064  0.0691 -0.4138
  443MOL0     H59748   8.762   7.688   5.506 -0.4976  0.5183 -0.4699
  443MOL0     H59749   8.726   7.746   5.671  1.2254  1.0459 -0.2365
  443MOL0     H59750   8.959   7.720   5.689  1.7945 -0.8667  0.9106
  443MOL0     H59751   8.897   7.561   5.746 -0.4811 -0.6802 -0.8940
  443MOL0     H59752   8.988   7.600   5.454 -1.2816 -0.3780 -0.0575
  443MOL0     H59753   8.950   7.456   5.538 -2.5366 -0.2909  0.1804
  443MOL0     H59754   9.151   7.483   5.671  0.4065  0.5907 -0.0755
  443MOL0     H59755   9.171   7.472   5.504 -1.7127  0.5495 -0.5767
  443MOL0     H59756   9.199   7.683   5.352 -0.5876 -0.1032  0.0401
  443MOL0     H59757   9.484   7.908   5.381 -0.8450 -1.3018 -0.9249
  443MOL0     H59758   9.356   7.910   5.276  3.5781 -3.3154 -1.0814
  443MOL0     H59759   9.353   8.097   5.516  2.1595  3.1868 -0.8136
  443MOL0     H59760   9.398   8.127   5.338 -1.3375  2.8172  0.9959
  443MOL0     H59761   9.112   8.062   5.427  0.2123  2.1727  1.6202
  443MOL0     H59762   9.188   8.059   5.268  0.8813 -2.8210  0.4237
  443MOL0     H59763   9.107   8.299   5.282  0.3694  2.0086  0.8227
  443MOL0     H59764   9.272   8.310   5.357 -1.9419  3.5832  1.1134
  443MOL0     H59765   9.064   8.513   5.338 -1.3908 -1.0850 -0.1513
  443MOL0     H59766   9.013   8.730   5.410 -2.7920 -1.0417 -0.5273
  443MOL0     H59767   9.071   8.864   6.038 -3.4853  0.1664  1.4222
  443MOL0     H59768   9.044   9.073   6.184  2.6868  0.3557  0.2577
  443MOL0     H59769   8.976   9.306   6.268 -0.1565 -0.5853 -0.4519
  443MOL0     H59770   9.153   9.289   6.255 -0.5986 -1.2008 -2.6232
  443MOL0     H59771   9.172   9.558   6.224  1.9185  0.2664  2.3851
  443MOL0     H59772   9.005   9.552   6.215 -2.2038 -1.3959  2.7096
  443MOL0     H59773   9.001   9.464   6.453 -1.4253  3.2531  2.9612
  443MOL0     H59774   9.172   9.491   6.460  1.0826  2.9648  0.2129
  443MOL0     H59775   9.022   9.656   6.567  0.5922 -1.9201  0.1503
  443MOL0     H59776   8.961   9.692   6.392 -1.1700 -4.1558 -1.5931
  443MOL0     H59777   9.124   9.878   6.459 -0.5352 -0.0839  0.2910
  443MOL0     H59778   9.213   9.777   6.343  1.9584 -1.7376  1.8496
  443MOL0     H59779   9.251   9.765   6.645 -0.1126  0.6236 -0.0497
  443MOL0     H59780   9.326   9.661   6.527  2.3327  1.3641 -0.0459
  443MOL0     H59781   9.477   9.823   6.591  0.0912 -2.7976 -2.8368
  443MOL0     H59782   9.359   9.963   6.566 -0.8681 -0.4599  3.2537
  443MOL0     H59783   9.475   9.789   6.349  1.1364 -0.5924  0.2990
  443MOL0     H59784   9.372   9.919   6.322 -0.6151 -0.1347  0.9760
  443MOL0     H59785   9.072   9.311   5.835  1.1193  0.6788  0.3870
  443MOL0     H59786   9.097   9.120   5.705 -1.8901  4.0644  1.2550
  443MOL0     H59787   9.125   8.602   5.816 -3.2010  0.0513  0.2637
  443MOL0     H59788   9.145   8.383   5.742 -1.8916  0.4225  0.2155
  443MOL0     H59789   8.257   7.314   5.845 -0.7969 -2.6690 -0.5523
  443MOL0     H59790   8.056   7.209   5.968  1.4954 -0.9399 -1.3702
  443MOL0     H59791   7.570   7.277   6.043 -0.6217  1.2055  0.8527
  443MOL0     H59792   7.405   7.136   6.148 -1.8905  1.9631  1.4576
  443MOL0     H59793   7.438   7.076   6.584  1.2297  0.0063 -0.0912
  443MOL0     H59794   7.491   6.918   6.518 -1.4432 -0.6841 -3.9274
  443MOL0     H59795   7.202   6.983   6.522  0.0887 -0.7848 -2.5364
  443MOL0     H59796   7.286   6.890   6.652  0.7505  1.4913 -0.6079
  443MOL0     H59797   7.352   6.738   6.447  0.5229 -1.4209  2.1655
  443MOL0     H59798   7.244   6.838   6.341 -1.6321 -2.7875 -0.6499
  443MOL0     H59799   7.150   6.686   6.582  3.0492  1.1925  0.3033
  443MOL0     H59800   7.061   6.790   6.459  0.5167  2.7003  1.3088
  443MOL0     H59801   7.110   6.445   6.247  3.3742 -0.9171  1.1422
  443MOL0     H59802   7.636   7.140   6.508  0.0655 -0.6231  0.3563
  443MOL0     H59803   7.817   7.258   6.539  2.8264  1.1647  0.7286
  443MOL0     H59804   7.916   7.307   6.406  0.6354 -1.1092  1.0943
  443MOL0     H59805   7.789   7.423   6.464 -0.1911 -0.5929  0.4665
  444MOL0     O59806   2.481   8.677   0.786  0.0495 -0.3181  0.4124
  444MOL0     C59807   2.554   8.719   0.878 -0.8322 -0.1449  0.4552
  444MOL0     O59808   2.654   8.814   0.853 -0.8114  0.0231 -0.1465
  444MOL0     C59809   2.727   8.799   0.740  0.0163  0.0942 -0.4389
  444MOL0     C59810   2.682   8.822   0.614 -0.2295  0.1678 -0.8013
  444MOL0     C59811   2.772   8.807   0.515 -0.7162  0.6871 -0.5327
  444MOL0     C59812   2.904   8.761   0.539  0.2167  0.5015 -0.1946
  444MOL0     O59813   3.007   8.743   0.442  0.0515 -0.1677  0.3402
  444MOL0     C59814   2.970   8.709   0.304  0.4731  0.4553 -0.5661
  444MOL0     C59815   3.080   8.634   0.236 -0.0732  0.5985  0.1921
  444MOL0     C59816   3.128   8.496   0.309 -0.1082 -0.5325  0.6149
  444MOL0     C59817   3.190   8.412   0.200 -0.8015 -1.2684 -0.0691
  444MOL0     C59818   3.217   8.267   0.252 -0.6786 -0.0334 -1.7728
  444MOL0     C59819   3.294   8.171   0.161  0.3766  1.2173 -0.5667
  444MOL0     C59820   3.399   8.230   0.071 -0.2870 -0.4013  1.1592
  444MOL0     C59821   3.481   8.117  -0.003  0.2604  0.2321  0.6767
  444MOL0     N59822   3.413   8.054  -0.111  0.3560  0.0542 -0.6167
  444MOL0     C59823   3.396   8.108  -0.237  0.4585 -0.4691  0.5568
  444MOL0     C59824   3.353   8.009  -0.308  0.1602 -0.4384 -0.1924
  444MOL0     C59825   3.322   8.006  -0.452 -0.3770  0.0130  0.2673
  444MOL0     C59826   3.422   7.933  -0.546  1.2120  0.3565  0.7490
  444MOL0     C59827   3.569   7.928  -0.493  0.1690  0.0371  0.3136
  444MOL0     C59828   3.673   7.886  -0.599  0.7749 -0.1681  0.2594
  444MOL0     O59829   3.707   7.982  -0.701 -0.2617  0.2942 -0.1273
  444MOL0     C59830   3.805   7.945  -0.782 -0.8514 -0.7774  0.2227
  444MOL0     C59831   3.840   8.050  -0.871 -0.0454  0.9980  0.8812
  444MOL0     C59832   3.948   8.034  -0.962  0.0689  0.0923 -0.2760
  444MOL0     C59833   4.024   7.915  -0.973  0.0814  0.7059  0.3071
  444MOL0     C59834   4.133   7.907  -1.070  0.1390  1.4959 -0.2058
  444MOL0     O59835   4.192   8.023  -1.088 -0.3561  0.6979 -0.2420
  444MOL0     C59836   4.298   8.044  -1.179  0.5808 -0.6598  0.1563
  444MOL0     C59837   4.334   7.979  -1.303 -0.0167 -0.2512 -0.6070
  444MOL0     C59838   4.447   8.012  -1.375  0.0361 -0.2121  1.0062
  444MOL0     C59839   4.532   8.112  -1.323  0.0636 -1.3985  0.6481
  444MOL0     O59840   4.640   8.140  -1.409  0.6759  0.4146 -1.1341
  444MOL0     C59841   4.715   8.262  -1.392  0.1844  0.3255  0.3472
  444MOL0     C59842   4.646   8.388  -1.434  0.3300 -0.2692  0.0594
  444MOL0     C59843   4.647   8.393  -1.588 -0.3495 -0.1397  0.4507
  444MOL0     C59844   4.550   8.510  -1.644 -0.2945  1.1636 -0.4998
  444MOL0     C59845   4.539   8.495  -1.792 -0.1692 -0.4873 -0.5544
  444MOL0     C59846   4.567   8.618  -1.880 -0.2563  0.2088 -0.0154
  444MOL0     C59847   4.549   8.587  -2.032 -0.6387  0.3133  0.6898
  444MOL0     C59848   4.667   8.527  -2.105  0.2603  0.7659  1.7124
  444MOL0    Cl59849   4.828   8.609  -2.072  0.3465 -0.5843 -0.2777
  444MOL0     C59850   4.505   8.181  -1.203 -0.7305 -0.1797  0.4136
  444MOL0     C59851   4.386   8.152  -1.139 -0.6014 -0.6308  0.7064
  444MOL0     O59852   4.166   7.803  -1.125  0.1746  1.0954  0.0352
  444MOL0     C59853   3.986   7.804  -0.885  0.2193 -0.7179  0.5907
  444MOL0     C59854   3.880   7.820  -0.790 -0.2168 -0.0664 -0.4258
  444MOL0     N59855   3.331   7.901  -0.227  0.3182  0.1220  0.1633
  444MOL0     N59856   3.366   7.931  -0.116  0.4990 -0.3809 -0.7435
  444MOL0     C59857   2.946   8.743   0.664  0.5846  1.1433 -0.7458
  444MOL0     C59858   2.861   8.762   0.768  1.2730 -0.0145  0.1824
  444MOL0     C59859   2.526   8.686   1.022 -0.3504  0.8493  0.4616
  444MOL0     C59860   2.639   8.675   1.116  0.2337 -1.0822  0.9519
  444MOL0     C59861   2.613   8.661   1.251 -0.1729 -0.5239 -0.3443
  444MOL0     C59862   2.486   8.643   1.295  0.2430  0.0194 -0.8742
  444MOL0     O59863   2.461   8.631   1.431 -0.6082  1.1115  0.0543
  444MOL0     C59864   2.434   8.490   1.465  0.4549 -0.0748  0.3828
  444MOL0     C59865   2.503   8.451   1.589 -0.1012  0.4823 -1.5294
  444MOL0     C59866   2.635   8.533   1.636  0.0965  0.3351  0.4101
  444MOL0     C59867   2.671   8.470   1.777 -0.6912 -0.1029  0.4296
  444MOL0     C59868   2.784   8.543   1.839 -0.6078 -0.5558  0.7507
  444MOL0     C59869   2.870   8.603   1.899  0.2665 -0.4611 -0.5291
  444MOL0     C59870   2.380   8.649   1.203 -0.5251  0.0773 -0.2710
  444MOL0     C59871   2.397   8.665   1.069 -0.2910 -0.3616 -0.8981
  444MOL0     C59872   2.271   8.668   0.988  1.4374 -0.1757  0.7265
  444MOL0     H59873   2.579   8.853   0.597  0.3771  1.7776 -1.7943
  444MOL0     H59874   2.750   8.824   0.410 -1.5650 -1.5813 -0.7807
  444MOL0     H59875   2.893   8.632   0.312 -1.1587  1.8190 -2.2879
  444MOL0     H59876   2.934   8.798   0.252  0.9446  1.2663  0.4448
  444MOL0     H59877   3.165   8.694   0.203  0.0599 -1.1592 -3.1016
  444MOL0     H59878   3.035   8.612   0.139  1.7106  1.2624 -0.8190
  444MOL0     H59879   3.054   8.440   0.368  0.8187 -2.2117  0.2607
  444MOL0     H59880   3.214   8.515   0.373 -0.3827 -0.6627  1.0268
  444MOL0     H59881   3.113   8.395   0.124 -1.9444 -0.9107  0.9717
  444MOL0     H59882   3.267   8.467   0.145  0.4799  1.3209  3.8709
  444MOL0     H59883   3.271   8.279   0.346 -1.5518  1.3593 -1.4316
  444MOL0     H59884   3.132   8.215   0.296 -0.2260  1.4201  1.0288
  444MOL0     H59885   3.340   8.088   0.215 -0.4588  0.1932 -1.3742
  444MOL0     H59886   3.218   8.114   0.105  0.5348 -2.1292  2.2876
  444MOL0     H59887   3.470   8.290   0.128  3.6191  0.1569 -3.6015
  444MOL0     H59888   3.352   8.307   0.009 -2.0893 -0.8283  1.9230
  444MOL0     H59889   3.576   8.154  -0.044  0.7421 -1.5251  0.1344
  444MOL0     H59890   3.513   8.046   0.073 -1.0559 -2.5989 -1.2546
  444MOL0     H59891   3.414   8.209  -0.271 -0.3902  0.7508  3.3808
  444MOL0     H59892   3.228   7.953  -0.467 -1.2589  0.7621  2.5877
  444MOL0     H59893   3.324   8.112  -0.480  1.9162 -0.0958 -0.2075
  444MOL0     H59894   3.390   7.829  -0.542 -0.6000  0.8525  0.2719
  444MOL0     H59895   3.402   7.978  -0.644 -1.5008  0.8599  1.4476
  444MOL0     H59896   3.567   7.860  -0.407  4.3112  0.0662  0.6398
  444MOL0     H59897   3.604   8.018  -0.442 -0.6141 -0.1642  1.2373
  444MOL0     H59898   3.637   7.800  -0.655  0.3304  0.1281  0.0829
  444MOL0     H59899   3.755   7.848  -0.538 -0.9640 -5.1567 -0.0696
  444MOL0     H59900   3.788   8.145  -0.870  0.5086  1.3875 -1.2598
  444MOL0     H59901   3.976   8.122  -1.019 -3.7728  0.7779 -1.3993
  444MOL0     H59902   4.277   7.890  -1.331 -1.8879  0.3424  1.1319
  444MOL0     H59903   4.467   7.966  -1.471 -1.1072  1.7225 -0.2216
  444MOL0     H59904   4.745   8.258  -1.287  2.8698 -1.2964 -0.3585
  444MOL0     H59905   4.808   8.260  -1.450 -0.4534  1.9911 -0.8208
  444MOL0     H59906   4.540   8.387  -1.404  0.3742  1.4374  0.4075
  444MOL0     H59907   4.702   8.474  -1.396  1.8488 -1.9166  1.7704
  444MOL0     H59908   4.743   8.421  -1.631 -1.3062  1.1514 -0.9568
  444MOL0     H59909   4.612   8.294  -1.620  1.8078 -1.0921  0.8708
  444MOL0     H59910   4.588   8.601  -1.597 -2.2755 -0.0127  3.9404
  444MOL0     H59911   4.454   8.487  -1.597 -0.2567 -0.5534 -1.1629
  444MOL0     H59912   4.441   8.455  -1.818 -1.0797  1.4505 -0.2162
  444MOL0     H59913   4.617   8.422  -1.816  1.1128  0.9245 -0.8736
  444MOL0     H59914   4.499   8.700  -1.853  4.0965  4.1332  0.4711
  444MOL0     H59915   4.672   8.650  -1.878 -0.1397 -0.1946  0.4568
  444MOL0     H59916   4.528   8.680  -2.086  0.3828  1.4855  2.2130
  444MOL0     H59917   4.465   8.517  -2.026 -1.1544  0.9275  0.7111
  444MOL0     H59918   4.683   8.420  -2.090  0.5616  0.7185  1.0886
  444MOL0     H59919   4.646   8.538  -2.212  4.1904 -1.3837  0.4991
  444MOL0     H59920   4.578   8.251  -1.166 -1.5352  1.6349 -1.2473
  444MOL0     H59921   4.353   8.200  -1.047 -2.3221 -1.6635  0.6706
  444MOL0     H59922   4.049   7.716  -0.874 -1.7671 -2.1284  1.4210
  444MOL0     H59923   3.863   7.745  -0.714 -0.2198  0.7823  0.4310
  444MOL0     H59924   3.040   8.689   0.676 -0.5154 -1.1458 -1.6913
  444MOL0     H59925   2.889   8.744   0.871  2.4837 -1.6472 -0.3998
  444MOL0     H59926   2.738   8.699   1.078 -0.3998  0.4830  0.1632
  444MOL0     H59927   2.688   8.674   1.329  0.6492  1.2836 -1.3745
  444MOL0     H59928   2.475   8.431   1.382 -0.9783  1.1301 -1.2590
  444MOL0     H59929   2.327   8.468   1.471  1.1141 -4.2081  0.4768
  444MOL0     H59930   2.524   8.344   1.592  0.7025  0.6486  0.3709
  444MOL0     H59931   2.439   8.472   1.675  0.9093  0.7822 -0.8253
  444MOL0     H59932   2.608   8.638   1.650 -3.8305 -0.5857  0.9971
  444MOL0     H59933   2.718   8.519   1.565  1.7735  2.0780  1.9143
  444MOL0     H59934   2.581   8.482   1.838 -1.7903  1.8294 -1.4252
  444MOL0     H59935   2.703   8.367   1.765  0.8743  0.6735 -3.5145
  444MOL0     H59936   2.952   8.657   1.941 -0.8153 -0.6821  2.0066
  444MOL0     H59937   2.284   8.635   1.253  0.9511  0.3034  2.8458
  444MOL0     H59938   2.193   8.651   1.062  1.4781 -1.0419  0.5823
  444MOL0     H59939   2.270   8.757   0.925 -0.8331 -0.2099  0.6439
  444MOL0     H59940   2.260   8.579   0.925  0.1018  1.8632 -2.1290
  445MOL0     O59941   8.929  10.767   2.716 -0.1578  0.1758  0.0528
  445MOL0     C59942   8.936  10.869   2.649  0.0131 -0.1867  0.1693
  445MOL0     O59943   8.845  10.967   2.636 -0.3240 -0.3648 -0.8880
  445MOL0     C59944   8.738  10.986   2.727 -0.3644 -0.0227  0.4870
  445MOL0     C59945   8.708  10.909   2.842  0.7174 -0.0679 -0.0357
  445MOL0     C59946   8.590  10.944   2.907  0.4387 -0.7204  1.0701
  445MOL0     C59947   8.506  11.048   2.868  0.1766 -0.3941 -0.5125
  445MOL0     O59948   8.387  11.064   2.934 -0.4330 -0.4471 -0.1760
  445MOL0     C59949   8.299  11.174   2.913  0.3468 -1.0094 -0.6189
  445MOL0     C59950   8.165  11.116   2.947 -0.1174 -1.2329 -0.7920
  445MOL0     C59951   8.057  11.221   2.939 -0.1603 -0.0512  0.0717
  445MOL0     C59952   7.925  11.179   2.981 -0.6996 -0.1478 -0.2136
  445MOL0     C59953   7.816  11.272   2.951 -0.6089  0.1631 -0.2358
  445MOL0     C59954   7.670  11.227   2.965 -0.2593  0.0366  0.5441
  445MOL0     C59955   7.605  11.269   3.097 -0.8372  0.2871  0.1035
  445MOL0     C59956   7.533  11.403   3.107  0.0016  1.6441 -0.3056
  445MOL0     N59957   7.610  11.511   3.055 -0.9954 -0.7439 -0.5472
  445MOL0     C59958   7.640  11.548   2.931 -0.0780  0.4327  0.3540
  445MOL0     C59959   7.729  11.651   2.944 -0.0858  0.3244 -0.0066
  445MOL0     C59960   7.770  11.726   2.827 -0.1390  0.5597 -0.1839
  445MOL0     C59961   7.916  11.680   2.788 -0.5153 -0.6754 -1.1903
  445MOL0     C59962   7.965  11.757   2.670  0.9889 -0.5907  0.8615
  445MOL0     C59963   8.115  11.731   2.638  0.3605 -0.1075 -0.0155
  445MOL0     O59964   8.158  11.794   2.520  0.3451 -0.9304 -0.7471
  445MOL0     C59965   8.255  11.890   2.523 -0.1342 -0.6905  0.9009
  445MOL0     C59966   8.338  11.894   2.410 -0.0321 -0.0817 -0.3037
  445MOL0     C59967   8.436  11.993   2.391  0.6100 -0.2750  0.5346
  445MOL0     C59968   8.454  12.089   2.492 -0.2504 -0.7575  0.0181
  445MOL0     C59969   8.555  12.199   2.469 -0.5896  0.5867 -0.2252
  445MOL0     O59970   8.635  12.205   2.360  0.0712  0.3714  0.3365
  445MOL0     C59971   8.739  12.304   2.356  0.9498 -0.1659  0.1099
  445MOL0     C59972   8.710  12.443   2.358  0.4349  0.4124 -0.5861
  445MOL0     C59973   8.815  12.538   2.341 -0.7645  0.2747  0.1931
  445MOL0     C59974   8.945  12.489   2.324  0.6885 -0.2471  0.0929
  445MOL0     O59975   9.054  12.569   2.282  0.2456  0.6961 -0.0440
  445MOL0     C59976   9.109  12.522   2.161 -0.1108 -0.9138  0.6508
  445MOL0     C59977   9.214  12.617   2.094 -0.7623 -0.0790 -0.0922
  445MOL0     C59978   9.283  12.538   1.971  0.1118  0.3427 -0.9484
  445MOL0     C59979   9.391  12.629   1.913 -0.2190 -0.7580  0.4654
  445MOL0     C59980   9.457  12.555   1.799 -1.2670 -0.3160  1.0724
  445MOL0     C59981   9.604  12.605   1.779  0.7683 -0.6955 -0.2427
  445MOL0     C59982   9.665  12.552   1.652  0.7033 -0.8661 -0.5436
  445MOL0     C59983   9.681  12.400   1.629  0.2409 -0.6695  0.5649
  445MOL0    Cl59984   9.769  12.334   1.757  0.2087  0.3200  0.0737
  445MOL0     C59985   8.969  12.361   2.348  0.9823  0.7449  0.4477
  445MOL0     C59986   8.870  12.264   2.358  0.4007  0.2146 -0.0671
  445MOL0     O59987   8.573  12.273   2.566 -0.0337 -0.0318  0.2737
  445MOL0     C59988   8.377  12.091   2.607  0.4399  0.3678  0.2712
  445MOL0     C59989   8.271  11.996   2.617 -0.1069 -0.4113  0.7159
  445MOL0     N59990   7.769  11.665   3.075  0.2263 -0.3327 -0.0652
  445MOL0     N59991   7.696  11.586   3.140  0.0007 -0.6916  0.8447
  445MOL0     C59992   8.543  11.122   2.763 -0.5124  0.1016  0.6024
  445MOL0     C59993   8.659  11.100   2.689  0.0369  1.2892 -0.4258
  445MOL0     C59994   9.044  10.875   2.542  0.6187  0.1895 -0.0907
  445MOL0     C59995   9.033  10.972   2.432 -0.0938 -1.1587 -0.0303
  445MOL0     C59996   9.123  10.969   2.328  0.0532 -0.8431 -0.1650
  445MOL0     C59997   9.231  10.881   2.332  0.1431 -0.4363  0.2048
  445MOL0     O59998   9.325  10.877   2.223  0.2889 -0.1210  0.0352
  445MOL0     C59999   9.342  10.749   2.163  0.3884 -0.6966  0.1646
  445MOL0     C60000   9.213  10.692   2.112  0.0374  0.0434  0.6124
  445MOL0     C60001   9.163  10.756   1.980 -0.5796  0.8164  0.4211
  445MOL0     C60002   9.023  10.727   1.931 -0.3679  0.0781 -0.1968
  445MOL0     C60003   8.931  10.790   2.025  0.1413  0.8625 -0.6762
  445MOL0     C60004   8.852  10.827   2.111  0.5093  0.7264 -0.6812
  445MOL0     C60005   9.244  10.799   2.436  0.7328  0.1905 -0.6430
  445MOL0     C60006   9.158  10.796   2.547  0.0178 -0.7203 -1.1395
  445MOL0     C60007   9.189  10.696   2.650  0.4074  0.5885  0.1240
  445MOL0     H60008   8.760  10.817   2.864  0.4416 -0.9484 -2.7135
  445MOL0     H60009   8.545  10.881   2.984 -1.1592  0.1315  0.8769
  445MOL0     H60010   8.331  11.255   2.980 -1.7517 -0.2586 -0.4539
  445MOL0     H60011   8.290  11.203   2.808 -1.2404 -0.7168 -0.4159
  445MOL0     H60012   8.164  11.069   3.046 -2.6169 -1.8641 -1.0285
  445MOL0     H60013   8.147  11.027   2.886 -1.3976 -1.8454  0.4089
  445MOL0     H60014   8.050  11.257   2.835 -0.8793  1.8517  0.7425
  445MOL0     H60015   8.091  11.310   2.993  1.4970 -0.1294 -0.7782
  445MOL0     H60016   7.904  11.086   2.928 -2.6955  0.0710  0.1235
  445MOL0     H60017   7.923  11.151   3.087  5.4643 -0.6539  0.1303
  445MOL0     H60018   7.828  11.356   3.019 -1.1065 -0.4742  0.6601
  445MOL0     H60019   7.834  11.311   2.850 -3.3792 -1.2275 -1.3829
  445MOL0     H60020   7.626  11.261   2.871 -0.7501  2.6920  1.6244
  445MOL0     H60021   7.680  11.120   2.982 -1.3640 -0.2432 -0.4554
  445MOL0     H60022   7.681  11.272   3.175  1.1227 -2.8301 -1.5028
  445MOL0     H60023   7.537  11.189   3.129 -2.3227  0.8473 -1.4433
  445MOL0     H60024   7.436  11.404   3.056 -0.4967  0.9656  0.6031
  445MOL0     H60025   7.504  11.413   3.212  0.2566 -2.1888  0.2709
  445MOL0     H60026   7.585  11.516   2.843  2.4650  1.5897 -1.7986
  445MOL0     H60027   7.686  11.706   2.759 -0.5914 -1.0466  0.7848
  445MOL0     H60028   7.770  11.833   2.849  0.9238  0.3376  0.9722
  445MOL0     H60029   7.974  11.706   2.878  0.4496 -1.4093 -1.5929
  445MOL0     H60030   7.931  11.572   2.788  3.3181 -0.3845  2.2134
  445MOL0     H60031   7.934  11.861   2.684  0.9415 -0.4466 -0.2235
  445MOL0     H60032   7.918  11.720   2.578  0.6691 -0.3881  0.9450
  445MOL0     H60033   8.139  11.626   2.624  0.2447 -0.0512 -0.6594
  445MOL0     H60034   8.173  11.768   2.724  0.6120  1.2279 -0.7238
  445MOL0     H60035   8.329  11.828   2.325  3.0581 -1.0367 -0.0339
  445MOL0     H60036   8.475  11.984   2.291 -2.6054 -3.0860 -0.6843
  445MOL0     H60037   8.604  12.467   2.359  0.8127  2.2241 -0.1084
  445MOL0     H60038   8.791  12.644   2.343  0.3098  0.5634 -1.1272
  445MOL0     H60039   9.173  12.436   2.183  1.1790 -2.1947 -5.8569
  445MOL0     H60040   9.038  12.489   2.085  0.1499  0.2607 -0.1274
  445MOL0     H60041   9.152  12.700   2.061 -0.4554  0.6960  1.2161
  445MOL0     H60042   9.296  12.647   2.160  0.0353  2.9552 -2.2426
  445MOL0     H60043   9.333  12.447   2.005 -0.2854  0.2431 -0.6302
  445MOL0     H60044   9.199  12.515   1.905 -0.3202 -0.0103 -0.2855
  445MOL0     H60045   9.460  12.659   1.993 -0.3216 -0.1280  0.3265
  445MOL0     H60046   9.354  12.719   1.862 -0.6158 -0.7243  0.8147
  445MOL0     H60047   9.401  12.573   1.706  1.4559  1.6146 -0.3187
  445MOL0     H60048   9.462  12.447   1.816 -1.6129 -0.2638  1.5037
  445MOL0     H60049   9.611  12.714   1.778  2.2421 -0.7603 -0.4473
  445MOL0     H60050   9.663  12.577   1.867 -0.2022  0.7612  0.9194
  445MOL0     H60051   9.761  12.603   1.638  0.4256 -0.1983 -0.0466
  445MOL0     H60052   9.596  12.585   1.574  2.5960  2.9328 -0.8591
  445MOL0     H60053   9.584  12.352   1.610 -0.8630  1.9911 -1.1052
  445MOL0     H60054   9.743  12.394   1.539  2.7232 -1.0403  2.2033
  445MOL0     H60055   9.061  12.305   2.339  0.0875 -0.4977 -1.5351
  445MOL0     H60056   8.882  12.156   2.361  0.7189  0.2262 -0.8025
  445MOL0     H60057   8.407  12.164   2.681  2.0851 -0.9243  0.9570
  445MOL0     H60058   8.202  12.004   2.700 -0.2178 -0.9501  0.6785
  445MOL0     H60059   8.483  11.208   2.734 -0.2212 -0.4208 -1.6852
  445MOL0     H60060   8.695  11.164   2.608  0.6299  1.0963 -0.3203
  445MOL0     H60061   8.950  11.041   2.433  1.8444  1.3255  1.8387
  445MOL0     H60062   9.106  11.040   2.248 -4.6563  0.9608  2.0842
  445MOL0     H60063   9.387  10.680   2.236 -1.3465 -1.6632  0.3636
  445MOL0     H60064   9.410  10.757   2.078 -0.4472  0.5011 -0.4186
  445MOL0     H60065   9.130  10.686   2.183  0.4295 -2.4979  0.9437
  445MOL0     H60066   9.232  10.585   2.098  3.2572  0.5935 -0.0949
  445MOL0     H60067   9.238  10.732   1.903 -1.1068 -1.5746  0.5750
  445MOL0     H60068   9.156  10.864   1.998 -1.6601  0.7479  0.4316
  445MOL0     H60069   9.002  10.777   1.836 -0.2919  4.0646  1.7042
  445MOL0     H60070   9.010  10.618   1.927  4.5044 -0.8121  1.4363
  445MOL0     H60071   8.774  10.880   2.161 -0.0628  0.1936 -0.9870
  445MOL0     H60072   9.332  10.737   2.427 -0.7526 -2.5314  1.7548
  445MOL0     H60073   9.190  10.753   2.743 -2.0457  2.4799 -0.8887
  445MOL0     H60074   9.119  10.613   2.660 -0.0296  0.6011 -2.1929
  445MOL0     H60075   9.281  10.646   2.619 -0.8691  0.0720 -3.2949
  446MOL0     O60076   6.974   1.905   6.615  0.4837  0.3969  0.8084
  446MOL0     C60077   6.974   1.927   6.489  0.1553 -0.3473 -0.8616
  446MOL0     O60078   7.006   2.049   6.425 -0.0730 -0.2373 -0.3830
  446MOL0     C60079   7.021   2.169   6.481  0.1079 -0.5355 -0.2210
  446MOL0     C60080   7.095   2.260   6.397  0.4250 -0.4072 -1.0554
  446MOL0     C60081   7.116   2.389   6.439  0.5618  0.4242  0.5103
  446MOL0     C60082   7.069   2.434   6.560 -0.3456 -0.2489 -1.2144
  446MOL0     O60083   7.108   2.556   6.606 -0.4190 -0.8084  0.3056
  446MOL0     C60084   7.060   2.602   6.731 -1.2293 -0.1352 -0.0814
  446MOL0     C60085   7.142   2.733   6.760 -0.4061  0.4301  0.6255
  446MOL0     C60086   7.076   2.851   6.689 -0.9756 -1.0393 -0.5926
  446MOL0     C60087   7.146   2.985   6.729 -0.0543 -0.4206  0.3097
  446MOL0     C60088   7.086   3.109   6.672 -0.8162 -0.0894  0.6410
  446MOL0     C60089   7.158   3.236   6.711 -0.7193  0.2085 -0.7744
  446MOL0     C60090   7.129   3.355   6.624  0.3178  0.2577  0.3890
  446MOL0     C60091   7.226   3.471   6.637 -0.2986 -0.0790 -0.0442
  446MOL0     N60092   7.186   3.546   6.762  0.4437  0.2447  0.0353
  446MOL0     C60093   7.135   3.675   6.782 -0.6997 -0.1858 -0.1833
  446MOL0     C60094   7.130   3.689   6.923 -0.2932 -0.3099  0.1106
  446MOL0     C60095   7.074   3.802   6.996  0.2285 -0.6013  0.4347
  446MOL0     C60096   6.987   3.757   7.111  0.2853 -0.4786 -0.4331
  446MOL0     C60097   6.870   3.673   7.068  0.7403  0.9769 -0.3725
  446MOL0     C60098   6.751   3.654   7.162 -0.0839  1.0866  0.4112
  446MOL0     O60099   6.695   3.780   7.205  0.9270  0.4888 -0.2959
  446MOL0     C60100   6.598   3.765   7.307 -0.9579 -0.2583 -0.0412
  446MOL0     C60101   6.561   3.887   7.365  0.2928  0.1071 -0.1721
  446MOL0     C60102   6.495   3.892   7.492 -1.0195 -1.3778  0.2772
  446MOL0     C60103   6.473   3.784   7.563  0.8640 -0.2426 -0.1822
  446MOL0     C60104   6.402   3.783   7.696 -0.1101 -0.9450 -0.0222
  446MOL0     O60105   6.387   3.664   7.752 -0.1772 -0.3055  0.3058
  446MOL0     C60106   6.398   3.644   7.884 -0.2103  0.1144 -0.1032
  446MOL0     C60107   6.351   3.513   7.928 -0.4699  0.1048  1.1015
  446MOL0     C60108   6.355   3.478   8.062  0.0987  0.4603  0.1714
  446MOL0     C60109   6.420   3.557   8.158  0.1401 -0.1993  0.6439
  446MOL0     O60110   6.439   3.524   8.285 -0.2607  0.2206  0.3835
  446MOL0     C60111   6.376   3.417   8.353 -0.3338  0.4924 -0.9857
  446MOL0     C60112   6.228   3.441   8.384  0.5254  0.4913 -0.1213
  446MOL0     C60113   6.163   3.311   8.443 -0.7588 -0.6330 -0.3228
  446MOL0     C60114   6.144   3.312   8.593  0.2637 -0.0508  0.2433
  446MOL0     C60115   6.132   3.160   8.642 -0.3765 -0.3922  0.7159
  446MOL0     C60116   6.057   3.155   8.773 -0.0317 -0.9445 -0.5610
  446MOL0     C60117   6.170   3.185   8.878 -0.1186 -0.7887 -0.3240
  446MOL0     C60118   6.106   3.204   9.013  0.4553 -0.1787 -0.5018
  446MOL0    Cl60119   5.990   3.350   9.021  0.2521  0.6094  0.7550
  446MOL0     C60120   6.475   3.684   8.122 -0.3303  0.8066  0.6235
  446MOL0     C60121   6.474   3.720   7.981  0.6178 -0.3446  0.0343
  446MOL0     O60122   6.390   3.890   7.749 -0.3815 -0.0999 -0.3708
  446MOL0     C60123   6.502   3.651   7.498  0.3962  0.2496  0.6022
  446MOL0     C60124   6.564   3.645   7.374  0.7507  0.4329 -0.2114
  446MOL0     N60125   7.192   3.575   6.978 -0.0849 -0.3471  0.1063
  446MOL0     N60126   7.232   3.508   6.882  0.6561 -0.5387 -0.4680
  446MOL0     C60127   6.996   2.347   6.644 -0.9014  0.2404 -0.7515
  446MOL0     C60128   6.972   2.209   6.616 -0.4038  0.3166  0.5883
  446MOL0     C60129   6.947   1.804   6.408 -0.6289 -0.8466 -0.5518
  446MOL0     C60130   7.037   1.702   6.423 -0.1417  0.2622 -0.1148
  446MOL0     C60131   7.007   1.580   6.355 -0.8364  0.1916 -0.2659
  446MOL0     C60132   6.890   1.553   6.290 -0.3101  0.3179  0.5499
  446MOL0     O60133   6.862   1.425   6.245 -0.0410 -0.3109  0.3538
  446MOL0     C60134   6.765   1.399   6.151  0.5121  0.4398 -0.6944
  446MOL0     C60135   6.762   1.252   6.106 -0.1130 -0.9776  0.6599
  446MOL0     C60136   6.892   1.232   6.016  0.1648  0.6835 -0.6238
  446MOL0     C60137   6.896   1.096   5.948  0.2021 -0.5879 -0.5662
  446MOL0     C60138   7.026   1.086   5.880 -0.5691 -1.0493  0.3954
  446MOL0     C60139   7.127   1.071   5.807  0.6396 -0.2911 -0.1964
  446MOL0     C60140   6.814   1.664   6.265 -1.0827 -0.0733  0.0690
  446MOL0     C60141   6.835   1.786   6.328  0.9103 -0.9342 -0.9930
  446MOL0     C60142   6.719   1.884   6.313 -0.7843  0.2417 -0.7005
  446MOL0     H60143   7.136   2.231   6.301 -1.4675  2.9135 -3.0756
  446MOL0     H60144   7.168   2.461   6.377  0.4778  1.3982  1.5400
  446MOL0     H60145   6.953   2.625   6.734 -0.9337  1.1381  2.5892
  446MOL0     H60146   7.092   2.531   6.808  0.0549  1.1675  0.6485
  446MOL0     H60147   7.250   2.726   6.742 -0.7215 -2.6421 -0.6131
  446MOL0     H60148   7.137   2.756   6.867 -0.0215  2.3849  0.2582
  446MOL0     H60149   6.970   2.853   6.716 -0.4807  0.2374  1.5738
  446MOL0     H60150   7.086   2.847   6.580 -2.0657 -1.5415 -0.6845
  446MOL0     H60151   7.150   2.991   6.838 -2.9381 -0.9891  0.5212
  446MOL0     H60152   7.249   2.980   6.692 -0.8292  0.4925 -2.1436
  446MOL0     H60153   7.075   3.096   6.564  0.5324 -1.0708  0.5952
  446MOL0     H60154   6.990   3.111   6.725 -1.5451 -4.0331 -0.2656
  446MOL0     H60155   7.156   3.261   6.817 -0.7475 -1.8473 -0.2523
  446MOL0     H60156   7.264   3.217   6.693  0.2219  2.6576  1.5903
  446MOL0     H60157   7.025   3.385   6.640 -1.1171 -3.4169 -0.9072
  446MOL0     H60158   7.138   3.328   6.518  3.2081  3.5509 -0.3441
  446MOL0     H60159   7.328   3.431   6.636 -0.4169 -0.5560  1.8289
  446MOL0     H60160   7.212   3.528   6.545  2.0131  0.0737 -0.3508
  446MOL0     H60161   7.084   3.735   6.707  1.2351  2.1837  0.2730
  446MOL0     H60162   7.163   3.849   7.039  1.2955 -0.6687 -1.5937
  446MOL0     H60163   7.017   3.868   6.930 -0.8443 -2.8191 -0.9934
  446MOL0     H60164   7.049   3.711   7.189  2.0198  2.6053  0.1418
  446MOL0     H60165   6.935   3.844   7.152  0.0491 -0.2495 -1.1969
  446MOL0     H60166   6.896   3.573   7.031 -1.1097 -0.0291  0.9069
  446MOL0     H60167   6.821   3.723   6.984 -1.5217  2.9638  1.9469
  446MOL0     H60168   6.779   3.595   7.249 -1.9310  1.6278  1.4168
  446MOL0     H60169   6.678   3.599   7.102  1.0449 -0.9051  0.7970
  446MOL0     H60170   6.586   3.979   7.313  1.6327 -0.5878 -0.8066
  446MOL0     H60171   6.481   3.987   7.543  2.9039  0.7530 -2.1099
  446MOL0     H60172   6.304   3.445   7.857 -0.8553  0.9531  0.5374
  446MOL0     H60173   6.299   3.385   8.063 -0.0847  0.5782  0.7311
  446MOL0     H60174   6.399   3.324   8.301  0.7882  0.2539 -0.1165
  446MOL0     H60175   6.421   3.397   8.450  0.2541  0.3015 -1.2931
  446MOL0     H60176   6.197   3.523   8.451  0.7140  0.1660  0.3687
  446MOL0     H60177   6.172   3.466   8.293 -1.4575  0.9371  1.1444
  446MOL0     H60178   6.067   3.298   8.392 -0.8492 -0.2729 -0.2394
  446MOL0     H60179   6.238   3.233   8.424 -1.7872 -1.1444 -2.7507
  446MOL0     H60180   6.064   3.377   8.631  0.4216  0.1381  0.2501
  446MOL0     H60181   6.235   3.351   8.639 -0.3374  0.0578  1.3693
  446MOL0     H60182   6.228   3.107   8.646 -0.9531 -1.4060  2.2338
  446MOL0     H60183   6.074   3.102   8.569 -1.5837  1.1420  0.4108
  446MOL0     H60184   5.964   3.213   8.769  1.0292  0.7409 -1.9654
  446MOL0     H60185   6.023   3.052   8.790 -0.7287 -0.5161  0.8281
  446MOL0     H60186   6.219   3.280   8.857 -1.4740  0.0492  0.1604
  446MOL0     H60187   6.241   3.102   8.889  1.5946  0.6393 -0.1248
  446MOL0     H60188   6.045   3.115   9.029  1.9245 -1.1017  0.2189
  446MOL0     H60189   6.181   3.209   9.092  1.8979  0.7723 -1.8712
  446MOL0     H60190   6.506   3.740   8.209 -0.0190 -1.2936  1.9326
  446MOL0     H60191   6.516   3.814   7.947 -2.3652  0.1855 -2.5634
  446MOL0     H60192   6.475   3.556   7.544 -1.3674 -0.2520 -1.3396
  446MOL0     H60193   6.586   3.549   7.327 -2.2888 -1.3196  1.6295
  446MOL0     H60194   6.961   2.380   6.742 -1.0515 -1.0405 -0.3610
  446MOL0     H60195   6.916   2.154   6.690  1.5977 -0.0623  1.9056
  446MOL0     H60196   7.130   1.719   6.476  1.2049 -2.2903 -1.4748
  446MOL0     H60197   7.073   1.495   6.368 -2.4629 -1.0262  0.5805
  446MOL0     H60198   6.796   1.461   6.066 -0.2844  1.7180 -0.0882
  446MOL0     H60199   6.666   1.431   6.185  0.3962  1.4622 -1.8789
  446MOL0     H60200   6.677   1.220   6.046 -0.4296  2.2672 -0.7956
  446MOL0     H60201   6.756   1.188   6.195 -1.6832 -3.0012 -0.8117
  446MOL0     H60202   6.976   1.249   6.084 -0.5159 -0.5944  0.6017
  446MOL0     H60203   6.896   1.312   5.941  1.3613 -0.4512 -1.7990
  446MOL0     H60204   6.899   1.019   6.025  1.4297 -0.6823 -0.6841
  446MOL0     H60205   6.813   1.096   5.876 -0.0074  0.3819 -0.3385
  446MOL0     H60206   7.215   1.075   5.746  1.4065  2.0135  0.9437
  446MOL0     H60207   6.731   1.668   6.195  0.0637  1.4577 -1.2974
  446MOL0     H60208   6.623   1.833   6.330  0.5646 -2.1671  0.1640
  446MOL0     H60209   6.722   1.964   6.388 -1.6203  1.1228 -1.5726
  446MOL0     H60210   6.717   1.941   6.220  1.3342  0.7942 -0.4437
  447MOL0     O60211   4.476   7.957   4.044 -0.3305 -0.1644 -0.1598
  447MOL0     C60212   4.398   7.969   3.958  0.2291 -0.3197 -0.4937
  447MOL0     O60213   4.277   7.924   3.962 -0.3109 -0.4229  0.5198
  447MOL0     C60214   4.240   7.857   4.079 -0.2721 -0.5883 -0.2036
  447MOL0     C60215   4.177   7.740   4.049  0.7345 -0.4012 -0.3516
  447MOL0     C60216   4.130   7.667   4.156 -0.2887 -0.3514 -0.2838
  447MOL0     C60217   4.154   7.702   4.285  0.1522 -0.7874 -0.5041
  447MOL0     O60218   4.114   7.626   4.392  0.1153 -0.0744  0.3455
  447MOL0     C60219   4.217   7.545   4.444  0.9247  0.1312 -0.6527
  447MOL0     C60220   4.190   7.544   4.595 -1.0144 -0.1986  0.0321
  447MOL0     C60221   4.193   7.399   4.653 -0.0323 -0.4162 -0.3954
  447MOL0     C60222   4.344   7.365   4.676  0.0421 -1.0971 -0.5038
  447MOL0     C60223   4.386   7.218   4.699 -0.8436 -0.5636  0.0774
  447MOL0     C60224   4.400   7.175   4.844  0.0265  0.3420  0.0995
  447MOL0     C60225   4.269   7.177   4.923  0.3718 -0.4918  0.4498
  447MOL0     C60226   4.279   7.116   5.063  0.5530  0.2813 -0.2893
  447MOL0     N60227   4.250   6.976   5.057  0.1896 -0.8385 -0.8223
  447MOL0     C60228   4.308   6.880   4.990 -0.2579  0.3545 -0.0426
  447MOL0     C60229   4.234   6.768   5.017 -1.1093  0.1249  0.6139
  447MOL0     C60230   4.269   6.625   4.972  0.5808  0.2173  0.1671
  447MOL0     C60231   4.247   6.512   5.078  0.3432  0.9723 -0.4279
  447MOL0     C60232   4.337   6.522   5.193  0.8788  0.0820  0.6519
  447MOL0     C60233   4.336   6.388   5.287 -0.1340 -0.3418  0.3673
  447MOL0     O60234   4.397   6.288   5.208  0.2323  0.9458  0.0740
  447MOL0     C60235   4.419   6.177   5.274 -0.1275  0.8350 -0.4438
  447MOL0     C60236   4.321   6.118   5.361  1.1757  0.7333 -0.6109
  447MOL0     C60237   4.350   5.994   5.426 -0.6869 -1.1200 -0.0782
  447MOL0     C60238   4.473   5.933   5.399 -0.7312  0.3623  0.4816
  447MOL0     C60239   4.505   5.800   5.460  1.2920  0.8193 -0.1794
  447MOL0     O60240   4.399   5.736   5.534 -0.3228 -0.0891 -0.8544
  447MOL0     C60241   4.437   5.610   5.591 -0.1751  0.1283 -0.0229
  447MOL0     C60242   4.480   5.503   5.509 -0.5869 -0.0929  0.5378
  447MOL0     C60243   4.545   5.390   5.572  2.2293  0.1414  0.4039
  447MOL0     C60244   4.533   5.374   5.713  0.0241 -1.6402  0.1033
  447MOL0     O60245   4.590   5.269   5.776 -0.0552 -0.2783 -0.0925
  447MOL0     C60246   4.565   5.134   5.725 -0.2885 -0.1813 -0.1964
  447MOL0     C60247   4.699   5.069   5.668  0.3345 -0.2504 -0.0619
  447MOL0     C60248   4.668   4.942   5.587 -0.0100  0.0825 -0.3018
  447MOL0     C60249   4.805   4.889   5.543 -0.3862 -0.3778  0.0209
  447MOL0     C60250   4.797   4.781   5.429  0.8870 -0.8175 -1.1085
  447MOL0     C60251   4.802   4.824   5.278  0.4154 -0.1566  0.4200
  447MOL0     C60252   4.782   4.697   5.202  0.3020  0.1450  0.7547
  447MOL0     C60253   4.905   4.612   5.194  0.3073 -0.2986  0.6261
  447MOL0    Cl60254   5.046   4.694   5.128 -0.3842  0.1705 -0.3492
  447MOL0     C60255   4.485   5.476   5.793  0.6026 -0.3202 -0.2417
  447MOL0     C60256   4.442   5.601   5.735 -0.1457  0.2487 -0.1691
  447MOL0     O60257   4.615   5.748   5.430 -0.1891  0.1681 -0.2682
  447MOL0     C60258   4.571   6.002   5.338 -0.5998 -0.2246  0.5747
  447MOL0     C60259   4.543   6.121   5.267 -0.7738 -0.0301  0.5111
  447MOL0     N60260   4.136   6.792   5.095 -0.1595 -1.2919 -0.1100
  447MOL0     N60261   4.134   6.921   5.110 -0.2053  0.0918 -0.3958
  447MOL0     C60262   4.217   7.826   4.311 -0.3862  0.1645  0.5390
  447MOL0     C60263   4.259   7.903   4.201 -0.1025 -0.9281  0.1489
  447MOL0     C60264   4.423   8.049   3.834  0.2081 -0.1893 -0.7378
  447MOL0     C60265   4.329   8.061   3.733  0.5579  0.1091 -0.2028
  447MOL0     C60266   4.348   8.128   3.616 -0.7749 -0.0920  0.2582
  447MOL0     C60267   4.460   8.196   3.594  0.2102  0.2674  0.0350
  447MOL0     O60268   4.483   8.275   3.485 -0.1852  0.0725  0.0062
  447MOL0     C60269   4.568   8.220   3.386 -0.8587  0.6199  0.4483
  447MOL0     C60270   4.578   8.331   3.279  0.0817 -0.1750  0.0249
  447MOL0     C60271   4.650   8.455   3.334 -0.7121 -0.3436  0.2355
  447MOL0     C60272   4.801   8.437   3.357 -0.0987 -0.3950  0.0887
  447MOL0     C60273   4.882   8.434   3.229  0.9364 -0.4340 -0.9510
  447MOL0     C60274   4.954   8.434   3.126  0.2084 -0.3762  0.7176
  447MOL0     C60275   4.565   8.192   3.693 -0.6548  0.0339 -0.4629
  447MOL0     C60276   4.547   8.113   3.809 -0.6052 -0.3404 -0.4233
  447MOL0     C60277   4.652   8.140   3.912  0.2332 -0.1573  0.5218
  447MOL0     H60278   4.159   7.712   3.945  0.4168  1.3704 -0.8025
  447MOL0     H60279   4.066   7.583   4.131  1.2088 -2.1223  1.4707
  447MOL0     H60280   4.208   7.445   4.402  2.6562  0.7330 -2.6037
  447MOL0     H60281   4.318   7.580   4.423  2.8879 -1.8528  4.0102
  447MOL0     H60282   4.093   7.584   4.624 -1.5410 -0.9013 -0.7238
  447MOL0     H60283   4.260   7.614   4.642 -0.4913 -0.1645 -0.7739
  447MOL0     H60284   4.157   7.328   4.577 -1.4318  1.7565 -1.8604
  447MOL0     H60285   4.141   7.390   4.750  1.6736 -2.6551  0.4108
  447MOL0     H60286   4.406   7.397   4.592 -0.6126  1.3539 -0.1157
  447MOL0     H60287   4.375   7.431   4.757 -2.3503 -0.3638 -0.0934
  447MOL0     H60288   4.314   7.154   4.647 -0.9316  0.0894 -0.6295
  447MOL0     H60289   4.486   7.199   4.659  0.2680 -1.6752  3.1179
  447MOL0     H60290   4.431   7.071   4.860  1.2487  0.4330 -1.4907
  447MOL0     H60291   4.472   7.237   4.898  0.0746  0.1759  0.2256
  447MOL0     H60292   4.176   7.141   4.878 -2.4228  1.0291  4.4360
  447MOL0     H60293   4.244   7.280   4.950 -3.7224 -1.1503 -0.2743
  447MOL0     H60294   4.381   7.122   5.101  0.5685 -2.5194  0.3215
  447MOL0     H60295   4.209   7.168   5.130 -0.3487  1.1800 -1.8835
  447MOL0     H60296   4.394   6.889   4.924 -0.4743 -1.3429 -0.6101
  447MOL0     H60297   4.210   6.608   4.882  0.0633  0.1750  0.5120
  447MOL0     H60298   4.376   6.627   4.948  0.4304  0.3047 -0.4927
  447MOL0     H60299   4.143   6.511   5.111 -0.3383 -1.9753 -2.2113
  447MOL0     H60300   4.263   6.418   5.023 -0.0448 -0.1310  1.2889
  447MOL0     H60301   4.320   6.604   5.262 -1.2876  0.0372  0.2572
  447MOL0     H60302   4.433   6.548   5.147 -0.7242  1.7393 -1.9746
  447MOL0     H60303   4.237   6.373   5.331  0.1907  0.5668  1.4519
  447MOL0     H60304   4.415   6.407   5.360  0.3712 -0.0675 -0.2418
  447MOL0     H60305   4.225   6.167   5.369  1.6001  1.3337  1.3227
  447MOL0     H60306   4.283   5.938   5.489 -0.4004 -0.4177  0.8744
  447MOL0     H60307   4.487   5.508   5.400  0.5078 -0.6579  0.5769
  447MOL0     H60308   4.592   5.310   5.516 -0.0943 -2.2530  1.6310
  447MOL0     H60309   4.537   5.067   5.807  1.0579 -1.5072 -0.7677
  447MOL0     H60310   4.490   5.140   5.646  0.6822  1.3980 -1.0506
  447MOL0     H60311   4.750   5.139   5.601 -2.0715  0.2818 -1.4731
  447MOL0     H60312   4.762   5.034   5.750 -1.7889  1.5123  2.4958
  447MOL0     H60313   4.622   4.863   5.647  3.0550 -3.2569 -1.9934
  447MOL0     H60314   4.598   4.964   5.506 -3.2674  0.2533  2.3225
  447MOL0     H60315   4.848   4.848   5.635 -2.1130  1.3327  1.6906
  447MOL0     H60316   4.853   4.982   5.510 -0.3732 -0.5129 -0.3455
  447MOL0     H60317   4.705   4.724   5.446  0.8042 -0.4400 -0.2589
  447MOL0     H60318   4.888   4.724   5.446  1.0874 -1.2190 -3.2038
  447MOL0     H60319   4.738   4.910   5.256  0.9941  0.1479 -0.1263
  447MOL0     H60320   4.894   4.879   5.253 -1.5564  3.5955  0.6251
  447MOL0     H60321   4.748   4.727   5.102 -2.9352 -1.4501  1.2429
  447MOL0     H60322   4.697   4.642   5.245 -0.9518  1.2648 -0.1904
  447MOL0     H60323   4.919   4.585   5.299 -2.5758  0.7669  1.3825
  447MOL0     H60324   4.881   4.530   5.126 -0.1043 -0.3960  0.8880
  447MOL0     H60325   4.481   5.469   5.901  1.0926 -0.4011 -0.2253
  447MOL0     H60326   4.420   5.679   5.807  0.3310 -0.2552  0.5371
  447MOL0     H60327   4.676   5.977   5.351 -0.7113  0.4959  3.7136
  447MOL0     H60328   4.607   6.177   5.199 -1.0313  1.0658  1.1395
  447MOL0     H60329   4.223   7.857   4.415  2.7710  3.4312 -0.4064
  447MOL0     H60330   4.295   8.002   4.226 -1.9309  0.0771 -0.9735
  447MOL0     H60331   4.231   8.016   3.740  0.9328 -0.8752 -1.0785
  447MOL0     H60332   4.265   8.126   3.546 -1.8269  2.2946  1.3107
  447MOL0     H60333   4.514   8.134   3.345  1.7932 -0.5425 -0.8774
  447MOL0     H60334   4.668   8.191   3.419 -1.0807 -0.2501  0.3867
  447MOL0     H60335   4.479   8.362   3.244  0.1167  0.5295  0.5261
  447MOL0     H60336   4.631   8.302   3.188 -1.7429  0.7789 -1.4152
  447MOL0     H60337   4.603   8.494   3.425 -0.7895 -0.6315  0.3181
  447MOL0     H60338   4.643   8.536   3.261  2.1629 -0.0003  0.2115
  447MOL0     H60339   4.845   8.520   3.413  0.8552  0.6289 -2.0566
  447MOL0     H60340   4.813   8.344   3.412 -1.9709 -0.0209  1.2169
  447MOL0     H60341   5.016   8.414   3.041 -0.1973  2.0933 -0.2237
  447MOL0     H60342   4.652   8.255   3.680 -0.1064  0.0768  2.7672
  447MOL0     H60343   4.610   8.199   3.994 -1.7611  1.0704 -1.2869
  447MOL0     H60344   4.689   8.050   3.964  1.6457  0.9726  1.5789
  447MOL0     H60345   4.730   8.196   3.860 -0.6708 -0.7794 -1.6037
  448MOL0     O60346   7.310   4.159   5.088 -0.1384  1.6971  0.3751
  448MOL0     C60347   7.189   4.126   5.107 -0.1072  0.2237 -0.0194
  448MOL0     O60348   7.090   4.213   5.125  1.0279 -1.3169  0.0836
  448MOL0     C60349   7.113   4.352   5.112 -0.0341  0.2325  0.7279
  448MOL0     C60350   7.100   4.416   4.983 -1.0028  0.7294 -0.5327
  448MOL0     C60351   7.141   4.549   4.958  0.3049  0.5453 -0.3624
  448MOL0     C60352   7.205   4.623   5.062 -0.4264 -0.7259  0.3989
  448MOL0     O60353   7.260   4.751   5.040 -0.5666 -0.2914  0.4506
  448MOL0     C60354   7.409   4.751   5.024 -0.0631  0.3305 -0.2941
  448MOL0     C60355   7.435   4.697   4.876 -0.5953  0.0160 -0.2473
  448MOL0     C60356   7.419   4.820   4.778  0.3649  0.7168  0.0820
  448MOL0     C60357   7.349   4.779   4.654  0.4181  0.5673 -0.1381
  448MOL0     C60358   7.322   4.898   4.562 -0.0923 -0.5982 -0.5732
  448MOL0     C60359   7.424   4.936   4.466  1.3122 -0.2014  0.1447
  448MOL0     C60360   7.358   5.022   4.365  0.1791 -0.2593  0.0913
  448MOL0     C60361   7.449   5.057   4.253  0.2816 -0.1112 -0.3276
  448MOL0     N60362   7.402   5.187   4.200  0.1915  0.1500 -0.1792
  448MOL0     C60363   7.440   5.218   4.071 -0.0216 -0.6028  0.5260
  448MOL0     C60364   7.393   5.345   4.046 -1.2742  0.6285 -0.4874
  448MOL0     C60365   7.434   5.414   3.918 -0.2455  0.8715  0.2681
  448MOL0     C60366   7.446   5.319   3.794 -0.2037  0.9577 -0.2996
  448MOL0     C60367   7.430   5.403   3.663 -0.6631  0.0350  0.2558
  448MOL0     C60368   7.381   5.325   3.544  0.2473  0.5507 -0.0884
  448MOL0     O60369   7.472   5.242   3.477 -0.3522  0.7185  0.0028
  448MOL0     C60370   7.468   5.237   3.339  0.3295 -0.5217  0.9233
  448MOL0     C60371   7.579   5.190   3.270  0.4653 -1.0394  0.6899
  448MOL0     C60372   7.574   5.176   3.126 -0.5188 -0.0104 -0.1218
  448MOL0     C60373   7.458   5.203   3.057 -0.0797  0.1410  0.5196
  448MOL0     C60374   7.449   5.178   2.915 -0.0036  0.3684  0.4112
  448MOL0     O60375   7.551   5.084   2.865  0.4153 -0.8008  0.0897
  448MOL0     C60376   7.553   5.097   2.733  0.5066  0.8905  0.0787
  448MOL0     C60377   7.463   5.014   2.657 -0.0923 -0.2820 -0.2567
  448MOL0     C60378   7.457   5.015   2.516  0.1843 -0.4215 -0.9217
  448MOL0     C60379   7.548   5.107   2.453 -0.5800  0.4206  0.8443
  448MOL0     O60380   7.568   5.110   2.311 -0.7146 -0.2832 -0.3225
  448MOL0     C60381   7.469   5.040   2.228  0.1777 -0.1003  0.1686
  448MOL0     C60382   7.488   5.048   2.075 -0.5656 -1.0862  0.5884
  448MOL0     C60383   7.593   4.942   2.028  0.0580 -0.0036 -0.5154
  448MOL0     C60384   7.649   4.970   1.887 -0.4497  0.7586 -0.3939
  448MOL0     C60385   7.524   4.971   1.785 -1.4350  0.1133 -0.2466
  448MOL0     C60386   7.564   5.001   1.636 -0.0110 -0.0184  0.2596
  448MOL0     C60387   7.644   5.136   1.627 -0.0669  1.4158 -0.7840
  448MOL0     C60388   7.605   5.210   1.505  0.1036 -0.4949  0.6555
  448MOL0    Cl60389   7.645   5.109   1.368 -0.1495  0.2889 -0.1906
  448MOL0     C60390   7.625   5.191   2.537  0.6679  0.6547  0.0338
  448MOL0     C60391   7.626   5.196   2.672 -0.5015 -0.2179  0.1488
  448MOL0     O60392   7.359   5.233   2.853  1.2041 -0.3122  0.2970
  448MOL0     C60393   7.350   5.250   3.130 -0.3472 -0.7419  0.0193
  448MOL0     C60394   7.350   5.267   3.265  1.1566 -0.5261 -1.0363
  448MOL0     N60395   7.320   5.387   4.156  0.3370 -0.4234  0.2800
  448MOL0     N60396   7.335   5.297   4.252 -0.4459 -0.1174  0.0552
  448MOL0     C60397   7.213   4.568   5.184  1.5390 -1.6663 -0.1867
  448MOL0     C60398   7.168   4.431   5.215 -0.5270 -0.2617  0.1748
  448MOL0     C60399   7.155   3.984   5.129 -0.4375 -0.1597 -0.6347
  448MOL0     C60400   7.226   3.870   5.078 -0.6054  0.1502 -0.2925
  448MOL0     C60401   7.189   3.738   5.098 -0.0678 -0.8661 -0.6353
  448MOL0     C60402   7.076   3.714   5.169  0.5438  0.2123  0.3251
  448MOL0     O60403   7.029   3.586   5.197 -0.1255  0.7203  0.0821
  448MOL0     C60404   7.038   3.485   5.095  0.7827 -0.4694 -0.2629
  448MOL0     C60405   6.919   3.513   4.994 -0.8140 -1.1903  0.6739
  448MOL0     C60406   6.889   3.396   4.899  0.3579  0.0805  0.0848
  448MOL0     C60407   6.769   3.421   4.813  0.6998 -0.6154  0.6754
  448MOL0     C60408   6.657   3.441   4.900  0.3996  1.0946 -0.7758
  448MOL0     C60409   6.563   3.462   4.972 -0.1374 -0.6037 -0.6840
  448MOL0     C60410   7.009   3.822   5.230  0.4152 -1.2917  1.3358
  448MOL0     C60411   7.050   3.955   5.220 -1.4228  0.0614  0.2313
  448MOL0     C60412   6.982   4.058   5.307 -0.3922  0.1453 -0.3856
  448MOL0     H60413   7.061   4.357   4.901 -0.6405  1.3827 -1.1792
  448MOL0     H60414   7.128   4.595   4.861 -1.3979  2.0795  0.5294
  448MOL0     H60415   7.444   4.855   5.022 -3.9155  1.7975 -0.2066
  448MOL0     H60416   7.460   4.690   5.099  0.6155  1.1585 -0.0590
  448MOL0     H60417   7.371   4.608   4.871  2.0827 -1.9987 -1.6567
  448MOL0     H60418   7.541   4.671   4.888 -1.1873 -1.5680  2.7965
  448MOL0     H60419   7.511   4.875   4.757  1.4391 -0.3044  1.7679
  448MOL0     H60420   7.355   4.891   4.832 -1.5229 -1.0713  0.3345
  448MOL0     H60421   7.402   4.707   4.592 -1.5271 -0.0710 -1.1349
  448MOL0     H60422   7.257   4.730   4.688 -0.8743  3.0808  0.2878
  448MOL0     H60423   7.247   4.866   4.488 -1.5320  0.9310  0.1454
  448MOL0     H60424   7.277   4.977   4.622 -0.4133 -0.1623 -1.3750
  448MOL0     H60425   7.509   4.989   4.510  3.1890 -1.1176 -2.1790
  448MOL0     H60426   7.452   4.850   4.405 -3.8561  0.2229 -3.5327
  448MOL0     H60427   7.314   5.107   4.418  1.0032 -1.2310  2.4521
  448MOL0     H60428   7.265   4.981   4.325  0.2654  1.4578 -2.0848
  448MOL0     H60429   7.555   5.067   4.279 -0.0846 -0.2565  1.3614
  448MOL0     H60430   7.432   4.983   4.174 -0.1189 -0.2397 -0.1284
  448MOL0     H60431   7.482   5.142   4.007 -1.1429  0.0344 -1.0213
  448MOL0     H60432   7.360   5.491   3.894 -0.7324  0.7159  1.2206
  448MOL0     H60433   7.531   5.460   3.938  0.4320 -0.6247  0.5544
  448MOL0     H60434   7.542   5.266   3.790 -0.8924 -0.2224 -2.3061
  448MOL0     H60435   7.364   5.249   3.806  0.1239  0.5654 -0.3141
  448MOL0     H60436   7.528   5.446   3.641 -2.3166  3.8104 -0.4036
  448MOL0     H60437   7.361   5.487   3.670 -1.8201 -0.8924  0.3564
  448MOL0     H60438   7.330   5.394   3.476  0.8063  1.7496  0.6808
  448MOL0     H60439   7.305   5.255   3.580 -0.2617  1.4872  0.6972
  448MOL0     H60440   7.669   5.161   3.323  1.3403 -0.0979 -0.2354
  448MOL0     H60441   7.668   5.147   3.079 -0.4982  2.6129 -1.8807
  448MOL0     H60442   7.402   4.952   2.721 -1.0284 -1.2094 -1.9627
  448MOL0     H60443   7.397   4.955   2.449 -0.7485  1.3278 -1.6998
  448MOL0     H60444   7.481   4.936   2.261 -1.1821 -0.9782 -1.8981
  448MOL0     H60445   7.365   5.057   2.255  0.4737  1.1639  0.5552
  448MOL0     H60446   7.394   5.028   2.022 -0.4180  0.8688 -0.5207
  448MOL0     H60447   7.520   5.144   2.034  0.8791 -1.4505  0.8308
  448MOL0     H60448   7.674   4.939   2.101 -0.9594 -0.0357  0.6441
  448MOL0     H60449   7.553   4.840   2.032  3.7453 -1.5768  2.2334
  448MOL0     H60450   7.725   4.898   1.856 -0.5944  0.9071 -1.1016
  448MOL0     H60451   7.701   5.066   1.883 -2.3057  1.7794 -3.4920
  448MOL0     H60452   7.460   5.053   1.819 -0.4055  0.6888  0.3576
  448MOL0     H60453   7.464   4.880   1.790 -0.5063 -0.7896 -3.5382
  448MOL0     H60454   7.628   4.921   1.599 -1.6255 -0.8138 -0.9326
  448MOL0     H60455   7.476   4.999   1.570 -0.1062 -0.7540  0.3955
  448MOL0     H60456   7.751   5.115   1.624 -0.3565 -0.1879 -1.1301
  448MOL0     H60457   7.625   5.211   1.704  1.3371  1.7446 -0.7267
  448MOL0     H60458   7.498   5.229   1.513 -0.2217 -1.9184 -0.0370
  448MOL0     H60459   7.656   5.306   1.486  0.8218 -0.7945  1.0137
  448MOL0     H60460   7.690   5.256   2.480  1.5056 -1.8311 -2.0719
  448MOL0     H60461   7.684   5.258   2.739 -2.1119  0.5481  0.9072
  448MOL0     H60462   7.259   5.258   3.072  1.0960 -2.7063 -2.7242
  448MOL0     H60463   7.259   5.282   3.323  2.9230 -0.9823  2.1356
  448MOL0     H60464   7.243   4.630   5.268 -2.5814 -0.0068  0.2805
  448MOL0     H60465   7.193   4.389   5.312  1.7879  0.8094  0.1197
  448MOL0     H60466   7.315   3.895   5.021 -1.4384  3.2959 -0.3874
  448MOL0     H60467   7.241   3.654   5.052 -1.4745 -2.3132  0.3031
  448MOL0     H60468   7.028   3.383   5.133 -0.4282 -1.3186 -2.6386
  448MOL0     H60469   7.133   3.485   5.041  0.7844  1.4315 -0.3308
  448MOL0     H60470   6.950   3.592   4.924  1.6516 -3.4988 -1.0523
  448MOL0     H60471   6.831   3.555   5.043  0.0662  1.2100  0.3597
  448MOL0     H60472   6.866   3.315   4.968  4.3248 -0.6036  0.8608
  448MOL0     H60473   6.982   3.366   4.849  1.1802 -0.5079  1.8905
  448MOL0     H60474   6.785   3.512   4.754  0.9691 -0.9040  0.2964
  448MOL0     H60475   6.751   3.341   4.740  0.2452 -0.2955  0.4257
  448MOL0     H60476   6.482   3.481   5.041 -0.3631  1.5892 -1.4661
  448MOL0     H60477   6.924   3.787   5.288  0.2223 -2.6562  0.2935
  448MOL0     H60478   6.928   4.012   5.390 -1.5571  1.0211 -0.6329
  448MOL0     H60479   7.056   4.128   5.346  0.0204  0.2325 -1.3007
  448MOL0     H60480   6.914   4.123   5.251 -0.7737 -2.0533 -2.6987
  449MOL0     O60481   3.336   1.851   6.686 -0.7484 -0.2457 -0.2121
  449MOL0     C60482   3.414   1.880   6.779 -0.6672 -0.3710  0.1466
  449MOL0     O60483   3.372   1.874   6.915  0.3682  0.4757  0.6780
  449MOL0     C60484   3.240   1.868   6.939  0.3635 -0.4549  0.4066
  449MOL0     C60485   3.180   1.996   6.927  0.1881 -0.8724 -0.1170
  449MOL0     C60486   3.039   2.010   6.941  0.5727  0.3892 -0.0311
  449MOL0     C60487   2.955   1.899   6.966  0.7251 -0.0665  0.6330
  449MOL0     O60488   2.818   1.905   6.970  0.2787  0.2927 -0.5281
  449MOL0     C60489   2.765   1.877   6.844 -1.0490  0.0418  0.2024
  449MOL0     C60490   2.702   1.738   6.840  0.4289  0.0765 -0.3606
  449MOL0     C60491   2.584   1.747   6.735 -0.8821 -0.5733 -0.5989
  449MOL0     C60492   2.472   1.654   6.781 -0.2494  0.3606  0.0379
  449MOL0     C60493   2.340   1.674   6.708  0.3388 -0.1512 -0.5470
  449MOL0     C60494   2.231   1.605   6.796 -0.1109 -0.4007  1.0904
  449MOL0     C60495   2.105   1.571   6.707  0.3847 -0.1793  0.5649
  449MOL0     C60496   2.019   1.461   6.787  0.0107  0.4341  0.0203
  449MOL0     N60497   1.873   1.447   6.760 -1.4744  0.0288  0.0642
  449MOL0     C60498   1.812   1.356   6.677 -0.0411 -0.4157 -0.0485
  449MOL0     C60499   1.683   1.378   6.715 -0.3700  0.4652  0.5538
  449MOL0     C60500   1.572   1.286   6.670  0.6061  0.6413  0.2942
  449MOL0     C60501   1.528   1.336   6.532 -0.9770  0.5804  0.5545
  449MOL0     C60502   1.444   1.223   6.463  0.2054 -1.0701 -0.3993
  449MOL0     C60503   1.427   1.277   6.329  0.6362  0.8849 -0.1319
  449MOL0     O60504   1.531   1.271   6.233 -0.5836 -0.8031  0.3529
  449MOL0     C60505   1.511   1.279   6.097  0.4123 -0.5218 -0.4434
  449MOL0     C60506   1.619   1.258   6.012 -0.2305 -1.2498 -0.0620
  449MOL0     C60507   1.609   1.259   5.877  0.3967  0.1544  0.5317
  449MOL0     C60508   1.478   1.279   5.814 -0.9104  0.6281  0.1487
  449MOL0     C60509   1.464   1.280   5.667 -0.4308  0.4617 -0.4067
  449MOL0     O60510   1.383   1.382   5.616  1.1701  0.2511  0.1667
  449MOL0     C60511   1.413   1.439   5.494  0.3224  0.4346 -0.4395
  449MOL0     C60512   1.526   1.407   5.414  0.8860  0.0884 -0.0018
  449MOL0     C60513   1.541   1.480   5.297  0.3479 -0.2941  0.5300
  449MOL0     C60514   1.464   1.591   5.266 -0.4734  0.2426 -0.0675
  449MOL0     O60515   1.471   1.660   5.147  0.3326 -0.2405 -0.3932
  449MOL0     C60516   1.602   1.687   5.091 -0.0404  0.5843  0.4696
  449MOL0     C60517   1.581   1.759   4.960  0.4936  1.0929  0.6243
  449MOL0     C60518   1.700   1.842   4.913 -0.4025  0.0325 -0.2725
  449MOL0     C60519   1.648   1.945   4.807 -0.3802 -0.0154  0.5007
  449MOL0     C60520   1.741   2.051   4.749 -0.5047  0.4453  0.6144
  449MOL0     C60521   1.796   2.147   4.856  0.2849 -0.3753  0.5612
  449MOL0     C60522   1.904   2.236   4.810 -0.5300 -0.0812 -0.4490
  449MOL0     C60523   1.943   2.344   4.907 -0.2029  0.3120 -0.2340
  449MOL0    Cl60524   2.093   2.434   4.832  0.0862  0.1859 -0.1041
  449MOL0     C60525   1.347   1.601   5.340  0.4525  0.4487  0.8291
  449MOL0     C60526   1.322   1.527   5.452  0.5575  0.2377  0.1492
  449MOL0     O60527   1.509   1.179   5.602  0.2745 -0.5917  0.1596
  449MOL0     C60528   1.379   1.322   5.896  0.2857  0.3820  0.0119
  449MOL0     C60529   1.393   1.321   6.034 -0.6300  1.2130  0.7521
  449MOL0     N60530   1.676   1.490   6.797  0.0489  1.2608  0.2209
  449MOL0     N60531   1.790   1.526   6.834 -0.4107  0.2783 -0.1827
  449MOL0     C60532   3.012   1.773   6.968  0.6546 -0.2334 -0.5671
  449MOL0     C60533   3.149   1.758   6.953 -0.5162 -0.4357  0.6881
  449MOL0     C60534   3.552   1.938   6.757  0.1011 -0.3299  0.5605
  449MOL0     C60535   3.647   1.935   6.860  0.8910  0.5995 -0.5368
  449MOL0     C60536   3.773   1.991   6.848  0.4028  0.2837 -2.0420
  449MOL0     C60537   3.813   2.059   6.739  0.2650 -0.5527 -0.1612
  449MOL0     O60538   3.937   2.116   6.734 -0.0522 -0.0819 -0.5526
  449MOL0     C60539   3.969   2.184   6.859 -1.0791  0.4181  0.1638
  449MOL0     C60540   4.029   2.321   6.829  0.4469  0.6527 -0.4007
  449MOL0     C60541   4.176   2.315   6.790  0.2375 -0.1870 -0.8729
  449MOL0     C60542   4.254   2.336   6.915 -0.1879 -0.2700 -0.8732
  449MOL0     C60543   4.381   2.268   6.917 -0.6089 -0.4351  0.1822
  449MOL0     C60544   4.490   2.207   6.903 -0.1467  0.5334  0.5089
  449MOL0     C60545   3.725   2.050   6.626  0.2297 -0.5552  0.2381
  449MOL0     C60546   3.599   1.990   6.637 -0.4700 -0.0818 -0.2265
  449MOL0     C60547   3.510   1.980   6.511 -0.1551 -0.8538 -0.6674
  449MOL0     H60548   3.229   2.092   6.913 -4.6648  1.6745 -2.4004
  449MOL0     H60549   2.997   2.106   6.915  1.0280 -0.1262 -2.9701
  449MOL0     H60550   2.701   1.966   6.844  0.3586  1.1291  2.3806
  449MOL0     H60551   2.842   1.888   6.768 -0.3636 -0.3826  0.8241
  449MOL0     H60552   2.664   1.712   6.940 -1.4085 -1.6318 -1.4328
  449MOL0     H60553   2.768   1.651   6.831 -3.5686 -3.1205 -1.4021
  449MOL0     H60554   2.631   1.715   6.641 -0.9602 -1.1669 -0.4406
  449MOL0     H60555   2.541   1.847   6.730 -5.2425 -1.9033  3.4147
  449MOL0     H60556   2.506   1.552   6.762 -0.5123 -0.4216  3.2096
  449MOL0     H60557   2.459   1.651   6.889  1.2360  0.2965  0.2256
  449MOL0     H60558   2.306   1.775   6.687 -0.8730 -0.6880 -1.2731
  449MOL0     H60559   2.350   1.617   6.615  0.7640 -1.4921  0.2914
  449MOL0     H60560   2.281   1.514   6.829  0.6048 -0.6241 -0.5313
  449MOL0     H60561   2.196   1.663   6.883  0.3555  0.7839  0.5060
  449MOL0     H60562   2.135   1.531   6.610 -2.1801 -0.7331 -0.0696
  449MOL0     H60563   2.044   1.661   6.691  0.6087 -0.3683 -1.6371
  449MOL0     H60564   2.064   1.362   6.768  2.2649  0.8872  2.4193
  449MOL0     H60565   2.023   1.469   6.896 -2.6804  3.4947  0.0190
  449MOL0     H60566   1.863   1.286   6.613  0.2703 -2.4388  2.2553
  449MOL0     H60567   1.609   1.183   6.663  1.0617  0.2851  4.8905
  449MOL0     H60568   1.490   1.286   6.743 -1.1403 -0.3102 -1.5701
  449MOL0     H60569   1.464   1.424   6.542  0.2544  1.6402 -0.5140
  449MOL0     H60570   1.614   1.353   6.466 -0.8278 -0.7205  0.3919
  449MOL0     H60571   1.350   1.214   6.518  0.3331 -4.0901 -0.5163
  449MOL0     H60572   1.502   1.130   6.459  2.5119  0.1681  1.5893
  449MOL0     H60573   1.382   1.377   6.328  2.4566  1.7448 -1.4393
  449MOL0     H60574   1.352   1.209   6.289  2.3229 -3.1382  2.8290
  449MOL0     H60575   1.718   1.249   6.057 -0.2859  2.8600  1.2722
  449MOL0     H60576   1.699   1.249   5.816  1.1060  2.0230  1.2029
  449MOL0     H60577   1.593   1.325   5.440 -0.8214 -1.8017 -1.2054
  449MOL0     H60578   1.629   1.455   5.239 -1.5874 -1.1956 -2.2338
  449MOL0     H60579   1.663   1.753   5.153 -1.1594  2.4456 -0.3165
  449MOL0     H60580   1.657   1.594   5.073 -0.2936  0.2119  1.5506
  449MOL0     H60581   1.557   1.693   4.876  1.5442  0.0519  1.1104
  449MOL0     H60582   1.502   1.834   4.971  0.6417  1.5166 -0.9471
  449MOL0     H60583   1.748   1.888   5.000  3.1986 -1.5120 -1.2609
  449MOL0     H60584   1.773   1.772   4.871 -2.7630 -2.2128 -0.8993
  449MOL0     H60585   1.577   2.016   4.851 -0.7968  0.3277 -0.6993
  449MOL0     H60586   1.596   1.893   4.726 -2.5693  0.4886  1.5129
  449MOL0     H60587   1.691   2.106   4.668  0.5896 -0.1572 -0.5121
  449MOL0     H60588   1.827   1.996   4.708  0.4395  0.7321  2.1199
  449MOL0     H60589   1.714   2.207   4.896  1.7719  2.9718 -1.0497
  449MOL0     H60590   1.835   2.093   4.943 -1.0522 -0.5545  1.0719
  449MOL0     H60591   1.877   2.287   4.717 -3.9693 -1.4330 -0.3424
  449MOL0     H60592   1.993   2.174   4.792 -1.3958 -1.7352  0.7101
  449MOL0     H60593   1.856   2.406   4.928 -0.6656 -0.1161 -0.8464
  449MOL0     H60594   1.981   2.300   5.000  2.8900  0.1354 -1.4425
  449MOL0     H60595   1.269   1.668   5.304 -0.1533  0.2723  1.7749
  449MOL0     H60596   1.230   1.525   5.509  0.9709  0.8103  0.8417
  449MOL0     H60597   1.279   1.347   5.863 -0.5278  1.1047  2.7464
  449MOL0     H60598   1.301   1.331   6.091 -0.5763 -0.9486  1.2939
  449MOL0     H60599   2.942   1.695   6.995 -2.3557  2.9744  1.8205
  449MOL0     H60600   3.184   1.656   6.942  1.1644  0.1122  0.7436
  449MOL0     H60601   3.619   1.897   6.958 -2.4618  1.4509 -1.0353
  449MOL0     H60602   3.840   1.986   6.932 -0.0856  0.7895 -1.6133
  449MOL0     H60603   4.041   2.129   6.919 -0.0511  1.1371 -0.3903
  449MOL0     H60604   3.880   2.216   6.914 -0.3901  2.3989  0.1930
  449MOL0     H60605   4.009   2.392   6.909 -2.3441  2.1239 -2.2292
  449MOL0     H60606   3.984   2.370   6.742 -1.3306 -3.0441 -1.7729
  449MOL0     H60607   4.201   2.400   6.725  2.3194 -0.1037 -0.0330
  449MOL0     H60608   4.205   2.216   6.753  0.7417 -0.3343 -0.0927
  449MOL0     H60609   4.282   2.442   6.920  0.0785 -0.2936 -1.6739
  449MOL0     H60610   4.199   2.309   7.006 -1.2967  2.3802 -0.6442
  449MOL0     H60611   4.576   2.151   6.872 -2.0878 -0.2394 -4.3763
  449MOL0     H60612   3.766   2.084   6.532  0.6530  4.3811  1.9352
  449MOL0     H60613   3.423   2.047   6.515 -0.4843 -1.1538 -2.1335
  449MOL0     H60614   3.553   2.026   6.422 -4.7709  1.8887 -1.8292
  449MOL0     H60615   3.482   1.875   6.500 -0.7175 -1.1720  2.5908
  450MOL0     O60616   3.908   3.321   4.060  0.3908 -0.0641 -0.3524
  450MOL0     C60617   3.902   3.205   4.012 -0.9808  1.1606 -0.4546
  450MOL0     O60618   3.986   3.110   4.034  0.0124 -0.4724  0.0710
  450MOL0     C60619   4.035   3.089   4.160  0.3958 -0.0669 -0.2531
  450MOL0     C60620   4.099   2.955   4.162 -0.4619 -0.2890  0.7698
  450MOL0     C60621   4.161   2.911   4.278  0.4059  0.0777 -0.8890
  450MOL0     C60622   4.148   2.979   4.398  0.2807 -0.6289 -0.1724
  450MOL0     O60623   4.202   2.922   4.517 -0.8567 -0.1324  0.9914
  450MOL0     C60624   4.170   2.985   4.650 -0.4590 -0.3959  0.7823
  450MOL0     C60625   4.190   2.874   4.752 -0.0813 -1.0599  0.2096
  450MOL0     C60626   4.079   2.775   4.746  0.3202  0.0289 -0.3314
  450MOL0     C60627   4.121   2.624   4.731  0.2450  0.8526 -0.3459
  450MOL0     C60628   4.004   2.527   4.740  0.1953  0.2780 -0.1248
  450MOL0     C60629   4.046   2.376   4.717 -0.2009  0.0995 -0.1161
  450MOL0     C60630   4.124   2.303   4.833 -0.1419 -0.6295  0.2757
  450MOL0     C60631   4.042   2.264   4.965 -0.3727 -0.7040  0.5775
  450MOL0     N60632   4.125   2.189   5.058 -0.2753  1.1175  0.1079
  450MOL0     C60633   4.263   2.169   5.050  0.3846  0.0431 -0.0331
  450MOL0     C60634   4.292   2.063   5.130 -0.0088 -0.3763  0.5167
  450MOL0     C60635   4.427   2.001   5.161  0.1631  0.5136 -0.4022
  450MOL0     C60636   4.484   2.095   5.273 -0.1276  0.7712 -0.6284
  450MOL0     C60637   4.611   2.052   5.342 -0.1896  0.8911  0.1632
  450MOL0     C60638   4.658   2.163   5.444 -0.5705  0.7110  0.6199
  450MOL0     O60639   4.701   2.264   5.353 -0.5394  0.5147  0.1394
  450MOL0     C60640   4.739   2.386   5.403 -1.6367 -1.4186  0.1356
  450MOL0     C60641   4.718   2.439   5.526  0.3549  0.3504  1.3859
  450MOL0     C60642   4.757   2.567   5.561  0.3044  0.6328 -0.6482
  450MOL0     C60643   4.837   2.643   5.480 -0.2204  0.0551 -0.6303
  450MOL0     C60644   4.888   2.770   5.529  0.0408 -0.7863  0.4572
  450MOL0     O60645   4.891   2.797   5.659 -0.1993  0.0066  0.4904
  450MOL0     C60646   4.936   2.913   5.709 -0.1797  0.0934  0.7056
  450MOL0     C60647   5.070   2.940   5.723  0.5233 -0.1313 -0.9404
  450MOL0     C60648   5.106   3.046   5.797 -0.5991  0.2021 -0.5063
  450MOL0     C60649   5.008   3.138   5.851 -0.5042  0.7156 -0.2384
  450MOL0     O60650   5.044   3.242   5.934  1.1935  0.3487 -0.4557
  450MOL0     C60651   5.162   3.224   6.014 -0.0953 -0.0971 -0.0766
  450MOL0     C60652   5.157   3.327   6.120  0.6846 -0.1508  0.1709
  450MOL0     C60653   5.172   3.478   6.086 -0.3675 -0.4705 -0.8240
  450MOL0     C60654   5.139   3.573   6.209 -0.2822  0.1443  1.1291
  450MOL0     C60655   5.191   3.718   6.169 -0.4561 -0.1601 -0.0066
  450MOL0     C60656   5.340   3.729   6.202  0.1277 -0.0497 -0.6513
  450MOL0     C60657   5.427   3.804   6.103  0.3645  0.0509  0.0567
  450MOL0     C60658   5.577   3.783   6.134 -0.1228 -0.7740 -0.5028
  450MOL0    Cl60659   5.641   3.795   6.296  0.3234 -0.5615  0.2677
  450MOL0     C60660   4.871   3.108   5.833 -0.5692  0.4548 -0.7976
  450MOL0     C60661   4.835   2.994   5.768  0.2387  0.5245  0.2079
  450MOL0     O60662   4.928   2.850   5.443  0.6940 -0.3029 -0.1936
  450MOL0     C60663   4.875   2.590   5.357  0.9104 -0.1922  0.0722
  450MOL0     C60664   4.826   2.462   5.321 -0.5849 -0.1351  0.3495
  450MOL0     N60665   4.170   2.028   5.198  0.3442  0.2098 -0.8768
  450MOL0     N60666   4.074   2.095   5.139 -0.7221  0.1193 -0.4425
  450MOL0     C60667   4.077   3.101   4.395 -0.6237  0.3707 -0.4966
  450MOL0     C60668   4.012   3.157   4.285 -0.2973  0.9124  0.2319
  450MOL0     C60669   3.798   3.181   3.910 -0.1824  0.0614  0.5169
  450MOL0     C60670   3.699   3.282   3.894  0.1563 -0.7127 -0.9605
  450MOL0     C60671   3.582   3.263   3.825 -0.9464 -0.5251  0.3752
  450MOL0     C60672   3.550   3.143   3.768 -0.1955 -0.7025  0.0825
  450MOL0     O60673   3.427   3.112   3.710  0.9128  0.0109  0.0881
  450MOL0     C60674   3.350   3.220   3.645 -0.6787  0.1483  0.5944
  450MOL0     C60675   3.326   3.166   3.499  0.1717 -1.0776  1.0079
  450MOL0     C60676   3.223   3.251   3.426  0.1340  0.3597 -0.1466
  450MOL0     C60677   3.158   3.188   3.290 -0.1641  0.3697 -0.8212
  450MOL0     C60678   3.050   3.278   3.245  0.4046 -0.1980  0.9257
  450MOL0     C60679   2.967   3.364   3.226 -0.4088  0.7877 -0.9054
  450MOL0     C60680   3.651   3.043   3.771 -0.8677  0.0120  0.0158
  450MOL0     C60681   3.771   3.054   3.837 -0.9240 -0.6922 -0.1426
  450MOL0     C60682   3.865   2.934   3.852 -0.1425  0.0472  0.1005
  450MOL0     H60683   4.102   2.883   4.081 -0.3080 -1.0357  1.4344
  450MOL0     H60684   4.198   2.809   4.283  0.1668 -0.0384 -1.4129
  450MOL0     H60685   4.250   3.058   4.666 -0.9281 -0.0829  1.7791
  450MOL0     H60686   4.067   3.018   4.668 -0.3854 -1.2925  3.2554
  450MOL0     H60687   4.181   2.934   4.844  2.6082  1.2552 -0.8572
  450MOL0     H60688   4.290   2.832   4.766  0.4518  0.8261  3.1995
  450MOL0     H60689   4.014   2.802   4.662  0.8637 -0.5284 -0.9423
  450MOL0     H60690   4.032   2.794   4.843 -0.5014  2.0084 -1.0798
  450MOL0     H60691   4.169   2.607   4.634 -0.7280  1.0655 -0.8800
  450MOL0     H60692   4.187   2.593   4.812 -0.5392  0.0988  0.0277
  450MOL0     H60693   3.952   2.535   4.836 -3.8388 -1.3899 -1.9020
  450MOL0     H60694   3.930   2.557   4.665  0.6909 -1.3731 -1.3327
  450MOL0     H60695   3.956   2.314   4.710 -1.2605  1.7310 -1.8840
  450MOL0     H60696   4.110   2.363   4.628 -0.5717 -1.2012 -0.2146
  450MOL0     H60697   4.203   2.374   4.857 -0.8764  0.6863 -1.0725
  450MOL0     H60698   4.181   2.216   4.798  0.9172 -1.1634  3.0457
  450MOL0     H60699   3.996   2.349   5.016  0.3567 -0.0951  0.2306
  450MOL0     H60700   3.955   2.208   4.930  0.0642  0.8857 -3.6044
  450MOL0     H60701   4.320   2.224   4.976 -1.3574  1.9096 -0.0795
  450MOL0     H60702   4.416   1.897   5.195  0.0328  1.0487  1.2722
  450MOL0     H60703   4.497   2.005   5.077 -0.3501  1.8123 -0.7979
  450MOL0     H60704   4.513   2.181   5.212  1.0359 -1.2232 -3.1212
  450MOL0     H60705   4.413   2.119   5.352 -0.9088 -1.8196 -0.4573
  450MOL0     H60706   4.692   2.036   5.272 -1.9476 -2.1244 -1.3587
  450MOL0     H60707   4.595   1.957   5.395  1.1544 -0.5490 -1.8938
  450MOL0     H60708   4.741   2.123   5.502  1.5891 -0.2207 -2.8193
  450MOL0     H60709   4.576   2.203   5.505 -1.1981 -3.1722  2.6614
  450MOL0     H60710   4.663   2.375   5.593  0.2141 -2.4274 -1.1861
  450MOL0     H60711   4.729   2.615   5.654  2.6923  1.7630 -0.4473
  450MOL0     H60712   5.149   2.876   5.684  1.1561 -2.0098  2.9640
  450MOL0     H60713   5.211   3.064   5.816 -0.1952 -1.9076 -0.4600
  450MOL0     H60714   5.179   3.120   6.045  3.3549  0.2531 -0.4562
  450MOL0     H60715   5.250   3.247   5.953 -1.1506  2.7342 -0.6705
  450MOL0     H60716   5.057   3.308   6.159  1.1553 -1.4887  0.7884
  450MOL0     H60717   5.216   3.302   6.209  1.3299 -2.0543 -0.7221
  450MOL0     H60718   5.275   3.501   6.058  0.2687 -2.5290 -0.2773
  450MOL0     H60719   5.102   3.500   6.004  3.2454 -3.0867 -5.0593
  450MOL0     H60720   5.175   3.530   6.303 -1.9093 -0.1909  1.6466
  450MOL0     H60721   5.030   3.574   6.221 -0.1192  1.5450  2.7895
  450MOL0     H60722   5.131   3.800   6.210  1.4554  1.5733 -0.5334
  450MOL0     H60723   5.176   3.721   6.061 -4.0468 -4.0857  0.1299
  450MOL0     H60724   5.338   3.790   6.293  0.9723 -1.6725  0.4967
  450MOL0     H60725   5.380   3.630   6.224 -3.0434 -1.4341 -0.6797
  450MOL0     H60726   5.413   3.912   6.114  3.7376  0.3366  3.9675
  450MOL0     H60727   5.405   3.780   5.999  0.2278 -0.0264  0.1025
  450MOL0     H60728   5.595   3.678   6.107  4.3769 -0.0803 -1.0095
  450MOL0     H60729   5.630   3.839   6.056 -1.1848 -1.4364 -1.7501
  450MOL0     H60730   4.798   3.161   5.893 -0.4987  1.3966 -1.5175
  450MOL0     H60731   4.729   2.969   5.775 -0.0944  2.0196  1.0074
  450MOL0     H60732   4.935   2.650   5.290  1.8441 -0.2769  0.8088
  450MOL0     H60733   4.851   2.418   5.225 -1.1718 -1.3678  0.7437
  450MOL0     H60734   4.089   3.165   4.482 -2.1222  3.2575 -2.2510
  450MOL0     H60735   3.968   3.256   4.291 -2.5117 -0.0793  2.0785
  450MOL0     H60736   3.717   3.380   3.938  1.5728 -1.2196 -0.3678
  450MOL0     H60737   3.511   3.345   3.830  0.1910  0.4835  0.4196
  450MOL0     H60738   3.405   3.314   3.639 -1.3956  0.5059 -1.1981
  450MOL0     H60739   3.252   3.231   3.691 -0.8326 -1.2457  0.6374
  450MOL0     H60740   3.292   3.062   3.495 -2.1777 -0.3480 -1.6927
  450MOL0     H60741   3.419   3.171   3.442 -1.5332  2.1157 -1.8644
  450MOL0     H60742   3.275   3.342   3.395  1.0911 -0.5722 -1.3768
  450MOL0     H60743   3.143   3.270   3.498  0.5716 -1.6444  0.9389
  450MOL0     H60744   3.221   3.155   3.208  0.8346  0.5650 -0.1509
  450MOL0     H60745   3.110   3.091   3.308 -1.3480  0.9222 -0.8600
  450MOL0     H60746   2.875   3.417   3.216 -1.5791 -0.9651 -0.0015
  450MOL0     H60747   3.617   2.951   3.726  1.2379 -0.4736 -0.7149
  450MOL0     H60748   3.835   2.877   3.940 -0.0978 -1.3373 -0.7537
  450MOL0     H60749   3.875   2.861   3.772  1.5094 -2.2650  2.2428
  450MOL0     H60750   3.972   2.957   3.865  0.2021 -0.7002 -1.2142
  451MOL0     O60751   8.507   0.265   1.324 -0.3294 -0.0387 -0.1308
  451MOL0     C60752   8.608   0.331   1.279 -0.1532 -1.1286  0.0754
  451MOL0     O60753   8.722   0.355   1.344 -0.4782 -0.0266 -0.2092
  451MOL0     C60754   8.744   0.272   1.451 -1.4039  0.4001 -0.1308
  451MOL0     C60755   8.859   0.187   1.436  0.4780  0.1328 -0.0710
  451MOL0     C60756   8.890   0.117   1.552 -0.9154  0.0446  0.1553
  451MOL0     C60757   8.815   0.131   1.674  0.4494 -0.5913 -1.6553
  451MOL0     O60758   8.851   0.095   1.799 -0.9980  0.0256  1.2331
  451MOL0     C60759   8.926  -0.018   1.813 -1.4040 -0.7249 -0.1471
  451MOL0     C60760   8.852  -0.150   1.771  0.0781  1.1555  0.1888
  451MOL0     C60761   8.729  -0.192   1.854  0.4687  0.0402  0.7666
  451MOL0     C60762   8.766  -0.247   1.990  0.0720  0.4856 -0.2014
  451MOL0     C60763   8.649  -0.325   2.047 -0.0341  0.1786 -0.7883
  451MOL0     C60764   8.549  -0.239   2.123  0.1981 -0.2439  0.1083
  451MOL0     C60765   8.434  -0.318   2.169 -0.2560  0.1730 -0.6642
  451MOL0     C60766   8.472  -0.403   2.294  0.3141 -0.0865 -0.7635
  451MOL0     N60767   8.352  -0.431   2.377  0.4546  0.2065 -0.0171
  451MOL0     C60768   8.251  -0.516   2.354 -0.9097 -1.0330 -0.3778
  451MOL0     C60769   8.163  -0.498   2.456 -0.4589 -0.3604 -0.3493
  451MOL0     C60770   8.049  -0.591   2.500  0.2166 -0.2671 -0.0966
  451MOL0     C60771   7.915  -0.526   2.469 -0.3746 -0.2522 -0.3381
  451MOL0     C60772   7.807  -0.604   2.534  0.0643 -0.3174 -0.9150
  451MOL0     C60773   7.757  -0.716   2.445  0.7447  0.2036  0.1615
  451MOL0     O60774   7.614  -0.728   2.439  0.1725 -0.2630  0.1803
  451MOL0     C60775   7.541  -0.811   2.521 -0.8508 -0.1352 -0.5365
  451MOL0     C60776   7.606  -0.878   2.627  0.1376 -0.1168 -0.4744
  451MOL0     C60777   7.540  -0.984   2.686 -0.3228 -0.5515 -0.3672
  451MOL0     C60778   7.412  -1.026   2.649  0.1896 -0.0670  0.2043
  451MOL0     C60779   7.337  -1.141   2.712 -0.5362  0.5543  0.5525
  451MOL0     O60780   7.407  -1.229   2.797 -0.0426  0.3024 -0.1186
  451MOL0     C60781   7.353  -1.347   2.834 -0.0575 -0.0439 -0.8407
  451MOL0     C60782   7.315  -1.366   2.965  0.1348  0.0903 -1.4855
  451MOL0     C60783   7.260  -1.495   3.004  0.8541 -0.4497 -0.3658
  451MOL0     C60784   7.241  -1.593   2.904 -0.6076  0.4190  0.1047
  451MOL0     O60785   7.187  -1.719   2.946  0.1214 -0.3341  0.5185
  451MOL0     C60786   7.148  -1.816   2.848 -0.4202 -0.1273 -0.1991
  451MOL0     C60787   7.055  -1.915   2.923 -0.1904  0.2228  0.0381
  451MOL0     C60788   6.979  -2.011   2.826 -0.2541  0.6068 -0.1149
  451MOL0     C60789   7.051  -2.052   2.701 -0.9205 -0.8809  0.5801
  451MOL0     C60790   7.013  -2.179   2.627 -0.2312 -0.6193  0.0971
  451MOL0     C60791   7.053  -2.163   2.474 -0.0467  0.3992 -0.3197
  451MOL0     C60792   7.019  -2.291   2.401  0.1553  0.1501  0.0850
  451MOL0     C60793   7.063  -2.273   2.251  0.4244  0.6475  0.1759
  451MOL0    Cl60794   7.241  -2.253   2.257 -0.0885  0.5169 -0.1443
  451MOL0     C60795   7.286  -1.562   2.768 -0.5120 -0.4063  0.1087
  451MOL0     C60796   7.340  -1.442   2.735 -0.4199 -1.0665  0.5369
  451MOL0     O60797   7.224  -1.162   2.668 -0.2823  0.1061 -0.6794
  451MOL0     C60798   7.340  -0.949   2.554 -0.0071  0.3443  0.8434
  451MOL0     C60799   7.411  -0.852   2.478 -0.1534  0.1035 -0.4991
  451MOL0     N60800   8.226  -0.406   2.544 -0.1161 -0.4270  0.0059
  451MOL0     N60801   8.331  -0.358   2.489 -0.0979  0.4790  0.2930
  451MOL0     C60802   8.701   0.215   1.672 -0.3102  0.8329  0.4166
  451MOL0     C60803   8.669   0.282   1.559  1.0557 -0.3750 -0.1655
  451MOL0     C60804   8.593   0.411   1.146  0.8443 -0.8379 -0.3359
  451MOL0     C60805   8.681   0.528   1.119 -0.5837  0.6834 -0.0353
  451MOL0     C60806   8.679   0.597   1.002  0.0605  0.2301  0.4611
  451MOL0     C60807   8.595   0.558   0.894 -0.7245 -0.2319 -0.8571
  451MOL0     O60808   8.604   0.629   0.775  0.6612  0.1696  0.1714
  451MOL0     C60809   8.650   0.554   0.665 -0.6397 -0.1652  0.1835
  451MOL0     C60810   8.608   0.608   0.525 -0.6859 -0.1561  0.0650
  451MOL0     C60811   8.672   0.743   0.499 -0.6950  0.3437 -0.8140
  451MOL0     C60812   8.796   0.734   0.410 -0.5992 -1.2546 -0.5060
  451MOL0     C60813   8.764   0.709   0.272  0.7101 -0.3960 -0.3216
  451MOL0     C60814   8.735   0.679   0.161  0.2578 -0.5674  0.7441
  451MOL0     C60815   8.501   0.456   0.925 -0.7245  1.2379  0.0309
  451MOL0     C60816   8.493   0.385   1.044  0.2612 -0.3718  0.3488
  451MOL0     C60817   8.381   0.273   1.075 -0.8615 -0.2962  0.7294
  451MOL0     H60818   8.928   0.166   1.355  0.7901 -1.8557  0.6470
  451MOL0     H60819   8.982   0.062   1.560 -0.0549  1.6865  3.2873
  451MOL0     H60820   9.013  -0.008   1.747 -0.4342 -1.5963  0.9495
  451MOL0     H60821   8.970  -0.022   1.914 -0.6941  1.0591 -0.3511
  451MOL0     H60822   8.922  -0.234   1.767  1.0024  1.9323 -0.2734
  451MOL0     H60823   8.810  -0.118   1.675 -0.0890  2.8413  0.7914
  451MOL0     H60824   8.676  -0.252   1.779 -0.2904  0.6793  0.7844
  451MOL0     H60825   8.667  -0.103   1.868  0.6307  0.3595 -0.4229
  451MOL0     H60826   8.850  -0.316   1.998  1.1829  1.8911  0.7655
  451MOL0     H60827   8.777  -0.160   2.056 -1.3005  0.3195  0.2762
  451MOL0     H60828   8.598  -0.391   1.977  1.5909 -3.7788  1.4680
  451MOL0     H60829   8.698  -0.388   2.122 -0.7982  0.6099  0.1014
  451MOL0     H60830   8.592  -0.189   2.210 -2.9487 -0.1152  1.7276
  451MOL0     H60831   8.519  -0.157   2.057  2.1586 -0.5493 -1.2679
  451MOL0     H60832   8.394  -0.387   2.093  4.8295 -1.3051 -2.3600
  451MOL0     H60833   8.354  -0.251   2.203 -0.3042 -0.3538  0.2901
  451MOL0     H60834   8.504  -0.497   2.248 -1.4397 -0.5392 -1.1274
  451MOL0     H60835   8.545  -0.366   2.367 -1.5237 -0.0150  1.1389
  451MOL0     H60836   8.239  -0.587   2.273 -2.7762 -2.1536  0.7710
  451MOL0     H60837   8.063  -0.685   2.445  2.1495 -0.8168  1.2571
  451MOL0     H60838   8.049  -0.601   2.608 -1.4935  3.5866  0.4421
  451MOL0     H60839   7.916  -0.428   2.518  2.0615 -0.2341 -0.2882
  451MOL0     H60840   7.899  -0.512   2.362  2.6915 -0.9891 -0.9892
  451MOL0     H60841   7.722  -0.536   2.543  0.5979  0.1499  1.2080
  451MOL0     H60842   7.838  -0.642   2.632  2.3809 -0.3531 -1.6023
  451MOL0     H60843   7.808  -0.805   2.483 -1.3962 -0.4721  1.6685
  451MOL0     H60844   7.790  -0.696   2.343  1.6348  2.0396  0.7787
  451MOL0     H60845   7.702  -0.847   2.669 -1.1215  3.9058 -0.1460
  451MOL0     H60846   7.598  -1.039   2.760  2.9114  0.3639 -2.0404
  451MOL0     H60847   7.330  -1.297   3.047  0.6455 -2.5953  0.8266
  451MOL0     H60848   7.240  -1.512   3.109  4.1269  0.9367  0.5961
  451MOL0     H60849   7.087  -1.771   2.770  1.4688 -3.6412 -4.1498
  451MOL0     H60850   7.232  -1.865   2.797  0.5183 -0.2760  1.4164
  451MOL0     H60851   7.120  -1.980   2.981  3.1506 -0.1121 -3.6581
  451MOL0     H60852   6.982  -1.867   2.990  0.0874  0.5314  0.1236
  451MOL0     H60853   6.939  -2.100   2.875  0.6564  0.1449 -0.1929
  451MOL0     H60854   6.891  -1.954   2.795 -1.1041 -1.2804 -1.3222
  451MOL0     H60855   7.158  -2.055   2.724 -0.4625 -1.4704 -1.4410
  451MOL0     H60856   7.034  -1.967   2.634 -1.5084 -0.7110  0.9351
  451MOL0     H60857   6.906  -2.201   2.635 -0.0592 -1.9727 -0.8504
  451MOL0     H60858   7.062  -2.268   2.669 -1.2534 -0.1533  2.4069
  451MOL0     H60859   6.993  -2.080   2.436 -0.2057 -0.8610 -3.0376
  451MOL0     H60860   7.160  -2.145   2.457 -0.1135  1.8794  0.5839
  451MOL0     H60861   6.915  -2.322   2.409  0.4349 -1.5068 -2.0874
  451MOL0     H60862   7.082  -2.365   2.452 -1.7578 -0.2576  1.9939
  451MOL0     H60863   7.047  -2.362   2.190 -2.2910  1.8273 -1.0360
  451MOL0     H60864   7.016  -2.191   2.195 -2.1965 -1.3454 -0.7866
  451MOL0     H60865   7.268  -1.633   2.687 -0.1606 -0.6460  0.2378
  451MOL0     H60866   7.369  -1.428   2.632  0.1649 -0.2410  0.8076
  451MOL0     H60867   7.248  -0.983   2.507 -0.5876  4.5018 -1.4347
  451MOL0     H60868   7.360  -0.794   2.402  0.3525 -1.0628 -1.7618
  451MOL0     H60869   8.641   0.227   1.761 -2.5923  0.6586 -1.0248
  451MOL0     H60870   8.578   0.339   1.571  0.8790 -0.1501 -2.1313
  451MOL0     H60871   8.746   0.552   1.203  0.4450  2.6201 -1.3020
  451MOL0     H60872   8.730   0.692   0.987  2.0770 -0.2851  3.2995
  451MOL0     H60873   8.607   0.454   0.665  2.3801 -1.5985 -1.2111
  451MOL0     H60874   8.759   0.539   0.666 -1.0519 -4.4767 -0.0303
  451MOL0     H60875   8.499   0.601   0.516 -0.5140 -0.2910 -2.6087
  451MOL0     H60876   8.643   0.535   0.452 -0.6662  1.2906 -1.4186
  451MOL0     H60877   8.715   0.784   0.591  2.5554  1.5179 -2.7071
  451MOL0     H60878   8.604   0.813   0.449 -0.6691  0.9202 -0.0575
  451MOL0     H60879   8.836   0.836   0.414 -0.3940 -1.2550 -1.9535
  451MOL0     H60880   8.883   0.676   0.443  2.0418  1.3536 -2.2773
  451MOL0     H60881   8.719   0.655   0.058  1.6865 -1.0200  0.6054
  451MOL0     H60882   8.440   0.435   0.837  1.3683  2.1704 -1.7413
  451MOL0     H60883   8.425   0.178   1.105  2.3795  0.9195  0.2408
  451MOL0     H60884   8.312   0.306   1.153 -0.3220  1.2583  0.5872
  451MOL0     H60885   8.315   0.254   0.989  0.6575 -2.1036 -0.1066
  452MOL0     O60886  10.118   5.581   2.584 -0.2401  0.0349 -0.3757
  452MOL0     C60887  10.171   5.535   2.488 -0.0459  0.2880  0.0702
  452MOL0     O60888  10.125   5.547   2.364 -0.1145 -0.3141 -0.5696
  452MOL0     C60889  10.015   5.613   2.334  0.2239  0.0408 -0.2333
  452MOL0     C60890  10.005   5.667   2.210  0.3020 -0.4705  1.0104
  452MOL0     C60891   9.884   5.714   2.152  0.5825 -0.0221  0.5877
  452MOL0     C60892   9.761   5.709   2.216  0.1349  0.6887 -0.5426
  452MOL0     O60893   9.646   5.759   2.157 -0.1822  0.2727  0.1748
  452MOL0     C60894   9.623   5.902   2.172  0.2777 -0.4868  0.1481
  452MOL0     C60895   9.502   5.947   2.104  0.0304 -0.0947 -0.0966
  452MOL0     C60896   9.525   6.006   1.973  0.1087  0.1983 -0.5104
  452MOL0     C60897   9.574   5.901   1.869  0.3426  0.1665  0.8772
  452MOL0     C60898   9.653   5.968   1.754  0.8406  0.3544  0.7306
  452MOL0     C60899   9.544   6.029   1.663  0.0337 -0.7054  0.8535
  452MOL0     C60900   9.614   6.118   1.556  0.1138  0.2004  0.0375
  452MOL0     C60901   9.724   6.056   1.469 -0.5021  0.3403  0.5456
  452MOL0     N60902   9.689   5.924   1.411  0.8481  1.2173 -0.5831
  452MOL0     C60903   9.708   5.889   1.282 -0.0077  0.5859  1.0123
  452MOL0     C60904   9.688   5.760   1.273  1.0177 -0.8888 -0.8540
  452MOL0     C60905   9.686   5.689   1.142 -0.4056  0.3213  0.2456
  452MOL0     C60906   9.544   5.704   1.099 -0.4236 -0.2044 -0.0248
  452MOL0     C60907   9.501   5.619   0.978  0.4181 -0.1556 -0.7170
  452MOL0     C60908   9.584   5.652   0.857 -0.3726 -0.0029  0.0377
  452MOL0     O60909   9.575   5.787   0.822 -0.8886  0.3809  0.0063
  452MOL0     C60910   9.627   5.827   0.701  0.7983 -0.4987 -0.2421
  452MOL0     C60911   9.554   5.918   0.630 -0.0139 -0.1618  0.8425
  452MOL0     C60912   9.597   5.967   0.502  0.4493  0.0559 -0.5121
  452MOL0     C60913   9.713   5.918   0.450 -0.5239 -0.6031  1.6799
  452MOL0     C60914   9.763   5.944   0.308 -0.0378 -0.1309  0.6153
  452MOL0     O60915   9.888   5.904   0.277 -0.2503 -0.7696  0.0600
  452MOL0     C60916   9.956   5.966   0.174 -0.0053 -0.5311 -0.1896
  452MOL0     C60917  10.027   6.084   0.199 -0.4583  0.5105  0.4977
  452MOL0     C60918  10.106   6.149   0.111  0.2588  0.4113  0.2355
  452MOL0     C60919  10.112   6.087  -0.009 -0.3547 -0.5646  0.1905
  452MOL0     O60920  10.187   6.149  -0.113  0.0103  0.2832 -0.1742
  452MOL0     C60921  10.254   6.271  -0.088 -0.2010  0.0980  0.5541
  452MOL0     C60922  10.319   6.334  -0.207  0.4693  0.0170 -0.6888
  452MOL0     C60923  10.428   6.240  -0.273 -0.2863 -0.9121 -0.5306
  452MOL0     C60924  10.468   6.295  -0.402  0.3212  0.3029 -0.1686
  452MOL0     C60925  10.555   6.208  -0.487 -0.5305 -0.2153 -1.0724
  452MOL0     C60926  10.626   6.275  -0.598 -0.0150 -0.0442 -0.6178
  452MOL0     C60927  10.738   6.186  -0.650  0.3300  0.5257 -0.5081
  452MOL0     C60928  10.818   6.259  -0.755  0.3126 -0.1623  0.3297
  452MOL0    Cl60929  10.920   6.380  -0.683 -0.3812 -0.2958  0.4956
  452MOL0     C60930  10.043   5.973  -0.042  1.1186  0.3590 -0.0909
  452MOL0     C60931   9.953   5.905   0.057 -0.4980  0.6152  0.4148
  452MOL0     O60932   9.695   6.023   0.242 -0.2780  0.1032 -0.3868
  452MOL0     C60933   9.789   5.820   0.517  0.4422  0.8322 -1.3015
  452MOL0     C60934   9.739   5.771   0.643 -0.4195 -0.2591 -0.4555
  452MOL0     N60935   9.660   5.712   1.401  0.8317  1.1271 -0.0402
  452MOL0     N60936   9.650   5.810   1.480 -1.1215  0.1561  0.0497
  452MOL0     C60937   9.773   5.651   2.351  0.8128 -0.2564 -0.3411
  452MOL0     C60938   9.889   5.604   2.408  0.0470 -0.4175  0.2801
  452MOL0     C60939  10.300   5.465   2.511 -0.6828 -0.7874  0.3717
  452MOL0     C60940  10.368   5.420   2.391 -0.7542 -0.6882  0.0568
  452MOL0     C60941  10.494   5.369   2.400 -0.4974 -0.1875 -0.4212
  452MOL0     C60942  10.559   5.336   2.527 -0.2891 -1.1782 -0.5260
  452MOL0     O60943  10.682   5.280   2.548 -0.1590  0.4402 -0.0798
  452MOL0     C60944  10.774   5.302   2.436 -0.5519 -0.4592 -0.3525
  452MOL0     C60945  10.917   5.287   2.462 -0.2704  0.5061  0.6138
  452MOL0     C60946  10.954   5.141   2.468 -0.0681 -0.0191 -0.3912
  452MOL0     C60947  11.025   5.067   2.348 -0.2694 -0.0660 -0.5772
  452MOL0     C60948  11.150   5.132   2.300  0.4919  0.4016 -0.6432
  452MOL0     C60949  11.227   5.179   2.225 -0.3897  0.4555  0.1484
  452MOL0     C60950  10.485   5.372   2.636  0.1578  0.3258 -0.8381
  452MOL0     C60951  10.362   5.440   2.638 -0.4883  0.5394  0.5089
  452MOL0     C60952  10.310   5.472   2.771 -1.0272 -0.3267 -1.0690
  452MOL0     H60953  10.087   5.681   2.140 -1.0254 -2.7193 -1.1624
  452MOL0     H60954   9.883   5.757   2.052 -0.8180 -2.1923 -0.4079
  452MOL0     H60955   9.610   5.925   2.278  0.3683  1.6039 -0.2393
  452MOL0     H60956   9.705   5.966   2.137  0.8185 -1.1287  0.2244
  452MOL0     H60957   9.462   6.019   2.175  0.8449 -2.1372  2.5776
  452MOL0     H60958   9.422   5.872   2.097  0.2039 -0.6088  2.6103
  452MOL0     H60959   9.592   6.091   1.988 -1.1875  0.8424  2.5762
  452MOL0     H60960   9.428   6.032   1.929 -0.5377  0.6072  1.0697
  452MOL0     H60961   9.633   5.823   1.918  1.2097 -1.2232 -2.0920
  452MOL0     H60962   9.487   5.856   1.820 -3.0140  2.9443  3.7532
  452MOL0     H60963   9.713   6.043   1.807  2.5516 -1.8591  2.1184
  452MOL0     H60964   9.722   5.896   1.708  0.0665 -0.4587  0.8168
  452MOL0     H60965   9.468   5.958   1.630 -1.4334 -0.1415  2.7829
  452MOL0     H60966   9.491   6.096   1.731 -1.0528 -0.3295 -0.3343
  452MOL0     H60967   9.664   6.206   1.597 -0.2934  0.6424 -0.4040
  452MOL0     H60968   9.535   6.157   1.492  0.5514 -1.3180 -1.4981
  452MOL0     H60969   9.762   6.121   1.389  2.3668  0.6059  2.0111
  452MOL0     H60970   9.812   6.033   1.529 -1.5699 -3.9196  0.8564
  452MOL0     H60971   9.744   5.948   1.198  3.1660 -1.8098  0.5054
  452MOL0     H60972   9.749   5.732   1.064 -2.7171 -3.3272 -4.1616
  452MOL0     H60973   9.721   5.587   1.161  0.8823  0.1842 -2.4054
  452MOL0     H60974   9.485   5.672   1.186  0.3438 -3.9991 -0.7584
  452MOL0     H60975   9.537   5.811   1.076  3.2152  0.3014  0.6362
  452MOL0     H60976   9.394   5.625   0.958  0.4184 -2.6069 -1.8404
  452MOL0     H60977   9.513   5.514   1.008 -3.3967 -1.8470 -4.1821
  452MOL0     H60978   9.561   5.584   0.774 -0.4044 -0.8874  0.7620
  452MOL0     H60979   9.689   5.630   0.878 -0.5586 -1.0733 -0.0955
  452MOL0     H60980   9.455   5.947   0.663 -0.9627 -2.4415  0.2179
  452MOL0     H60981   9.535   6.041   0.452 -0.5357 -1.1426 -1.1214
  452MOL0     H60982  10.002   6.131   0.294 -3.6188  1.2677 -0.5564
  452MOL0     H60983  10.164   6.234   0.144  0.5157  0.1489  0.4596
  452MOL0     H60984  10.179   6.345  -0.058 -0.8574 -0.3279  0.0021
  452MOL0     H60985  10.341   6.253  -0.023  1.3959  0.0245 -1.5014
  452MOL0     H60986  10.243   6.365  -0.280 -1.7986 -0.9890  1.1063
  452MOL0     H60987  10.374   6.423  -0.175  1.2262 -0.5050 -0.5276
  452MOL0     H60988  10.509   6.215  -0.204 -0.2503 -2.0430 -0.9649
  452MOL0     H60989  10.395   6.137  -0.290 -1.9046 -0.5685  0.2297
  452MOL0     H60990  10.525   6.381  -0.366  2.3923 -1.5717  1.3609
  452MOL0     H60991  10.380   6.322  -0.460 -0.1929  3.1659  1.7823
  452MOL0     H60992  10.492   6.124  -0.518 -0.8692 -0.2161 -0.3897
  452MOL0     H60993  10.633   6.162  -0.425 -0.7612  0.4196 -0.3051
  452MOL0     H60994  10.544   6.289  -0.669 -1.5505 -2.5042  0.5396
  452MOL0     H60995  10.662   6.376  -0.575 -1.5265  0.2124  0.7812
  452MOL0     H60996  10.704   6.085  -0.676 -0.9716  0.8684 -0.2074
  452MOL0     H60997  10.796   6.160  -0.561 -0.0170 -2.7979 -1.1351
  452MOL0     H60998  10.875   6.180  -0.806 -3.5811 -1.9226 -1.7256
  452MOL0     H60999  10.758   6.304  -0.835 -1.7821 -0.9970  1.3700
  452MOL0     H61000  10.048   5.931  -0.142  1.1105  0.7922 -0.2771
  452MOL0     H61001   9.884   5.823   0.035 -1.6773  1.5398  0.5553
  452MOL0     H61002   9.890   5.788   0.497  0.6603 -0.1124  0.9906
  452MOL0     H61003   9.801   5.696   0.690 -1.2233  0.5132  2.0179
  452MOL0     H61004   9.683   5.645   2.411  1.8231  1.8310  1.5097
  452MOL0     H61005   9.889   5.547   2.500  1.2478  0.7437  1.0309
  452MOL0     H61006  10.331   5.447   2.293  0.8494  1.0107 -0.1311
  452MOL0     H61007  10.541   5.350   2.304 -1.5970  0.3132 -1.0834
  452MOL0     H61008  10.758   5.404   2.400  0.9434  0.4134  1.2884
  452MOL0     H61009  10.737   5.233   2.360 -2.7588  1.1155 -0.8159
  452MOL0     H61010  10.949   5.342   2.550 -0.0682  1.0605  0.1972
  452MOL0     H61011  10.972   5.334   2.380 -3.2850  1.9540 -0.7140
  452MOL0     H61012  10.862   5.083   2.482 -0.8975  1.6445  1.6212
  452MOL0     H61013  11.016   5.122   2.556 -0.7068 -0.3700 -0.0138
  452MOL0     H61014  11.063   4.975   2.394  2.4522 -0.1932 -2.8096
  452MOL0     H61015  10.967   5.039   2.260 -0.7071 -2.0824  0.2924
  452MOL0     H61016  11.308   5.187   2.155  0.9606  1.0085  1.7185
  452MOL0     H61017  10.538   5.339   2.725  1.0073 -0.5516 -1.6458
  452MOL0     H61018  10.207   5.436   2.777 -1.1895 -0.2557 -3.0288
  452MOL0     H61019  10.368   5.418   2.847 -1.7535  0.6891  0.2677
  452MOL0     H61020  10.300   5.580   2.789  0.8198 -0.2870 -0.0203
  453MOL0     O61021   1.061   5.224   3.288 -0.2210  0.2381 -0.6266
  453MOL0     C61022   1.101   5.324   3.242 -0.2502 -1.0535 -0.0559
  453MOL0     O61023   1.208   5.405   3.285 -0.1391  0.5728  0.1358
  453MOL0     C61024   1.310   5.343   3.343 -0.6697  0.4529 -1.2003
  453MOL0     C61025   1.308   5.321   3.482  0.2488  0.2907  0.4278
  453MOL0     C61026   1.407   5.244   3.544 -0.3474  0.1970  0.3863
  453MOL0     C61027   1.527   5.196   3.473 -0.0436 -0.3368 -0.8781
  453MOL0     O61028   1.641   5.135   3.533  0.4882  1.2170  0.5834
  453MOL0     C61029   1.642   5.139   3.679 -0.3498  0.1436  0.2484
  453MOL0     C61030   1.779   5.100   3.725 -0.2146  0.6554  1.2479
  453MOL0     C61031   1.790   4.951   3.709  0.7306  0.8518 -0.7660
  453MOL0     C61032   1.917   4.906   3.778  0.5116 -1.1789 -0.7974
  453MOL0     C61033   1.907   4.861   3.923 -0.1163 -0.0540  0.3508
  453MOL0     C61034   2.037   4.860   3.985  0.7900  0.8338 -0.5149
  453MOL0     C61035   2.046   4.814   4.134  1.4292  0.3904  0.9335
  453MOL0     C61036   2.083   4.920   4.226  0.0919  0.4076 -0.0930
  453MOL0     N61037   2.000   5.037   4.243  0.6763 -0.7419  0.3659
  453MOL0     C61038   1.861   5.029   4.252  0.4208 -0.5850 -0.2030
  453MOL0     C61039   1.815   5.163   4.248 -0.2323  0.3021  0.6211
  453MOL0     C61040   1.667   5.203   4.253 -0.5713  0.3396  0.1193
  453MOL0     C61041   1.610   5.223   4.110 -0.3895 -0.9944  0.1404
  453MOL0     C61042   1.670   5.354   4.047 -1.0256  0.1065  0.3142
  453MOL0     C61043   1.575   5.428   3.953 -0.0293  0.0082  0.4127
  453MOL0     O61044   1.625   5.560   3.907  0.0860  0.9836  0.1814
  453MOL0     C61045   1.571   5.598   3.790 -0.3872 -0.6141  0.3400
  453MOL0     C61046   1.448   5.669   3.788  0.7155 -0.3071 -0.1870
  453MOL0     C61047   1.392   5.696   3.659  0.2046  0.6513  0.7218
  453MOL0     C61048   1.457   5.663   3.540 -0.9790  0.7056  0.0070
  453MOL0     C61049   1.399   5.691   3.405 -0.1047 -0.1467  0.8699
  453MOL0     O61050   1.482   5.651   3.301  0.3370 -0.3410 -0.2756
  453MOL0     C61051   1.457   5.690   3.176 -1.0848  0.3059 -0.8516
  453MOL0     C61052   1.469   5.582   3.081  0.9209  0.6181  0.9472
  453MOL0     C61053   1.447   5.599   2.945  0.2995  0.1608  0.4821
  453MOL0     C61054   1.415   5.727   2.903 -0.6664 -0.4762  0.4374
  453MOL0     O61055   1.394   5.711   2.766 -0.2832 -0.1985  0.8992
  453MOL0     C61056   1.337   5.825   2.703 -0.3265 -0.3636 -0.8500
  453MOL0     C61057   1.322   5.795   2.552 -0.1869  0.5667  0.5471
  453MOL0     C61058   1.454   5.835   2.484 -0.1763 -0.0178  0.2448
  453MOL0     C61059   1.466   5.793   2.340 -0.0555  0.3803 -0.1438
  453MOL0     C61060   1.353   5.860   2.243  0.2401  0.9176  0.2892
  453MOL0     C61061   1.362   5.816   2.098  0.4715 -0.1151  0.0200
  453MOL0     C61062   1.300   5.673   2.069 -0.0611  0.2777 -0.0294
  453MOL0     C61063   1.298   5.645   1.924  0.3595 -0.2584  1.0589
  453MOL0    Cl61064   1.186   5.742   1.825  0.3975  0.1789  0.1068
  453MOL0     C61065   1.405   5.844   2.993  0.3759  0.0067 -0.2555
  453MOL0     C61066   1.434   5.829   3.131 -0.1417 -0.3836 -0.2289
  453MOL0     O61067   1.298   5.761   3.395  0.2359  0.1252 -0.2394
  453MOL0     C61068   1.577   5.580   3.546 -0.2881  0.6439  0.7097
  453MOL0     C61069   1.622   5.550   3.670 -0.8596 -0.3509  1.0499
  453MOL0     N61070   1.925   5.242   4.228  0.2267 -0.7202  0.4017
  453MOL0     N61071   2.033   5.171   4.231 -0.3677  0.9455  0.3128
  453MOL0     C61072   1.523   5.231   3.334 -0.3374  0.7059  0.0353
  453MOL0     C61073   1.414   5.292   3.269 -0.7646 -0.6018 -0.6121
  453MOL0     C61074   1.020   5.394   3.132 -0.1493 -1.2238  0.1247
  453MOL0     C61075   1.035   5.536   3.121  0.1719  0.4185 -0.5069
  453MOL0     C61076   0.967   5.618   3.027 -0.5171 -0.4954  0.9063
  453MOL0     C61077   0.877   5.566   2.939 -0.6987 -0.1552 -0.4665
  453MOL0     O61078   0.813   5.641   2.841  0.7795 -0.5052  0.3190
  453MOL0     C61079   0.722   5.580   2.743  0.8098  0.3183  0.2138
  453MOL0     C61080   0.678   5.678   2.640 -0.1698 -0.7598 -0.3197
  453MOL0     C61081   0.591   5.790   2.704 -0.3404 -0.1051  0.8842
  453MOL0     C61082   0.546   5.897   2.610  0.2884  0.2695  0.5956
  453MOL0     C61083   0.488   5.821   2.496  0.0305 -0.2613  0.1051
  453MOL0     C61084   0.445   5.754   2.411  0.7780 -0.1000  0.1524
  453MOL0     C61085   0.851   5.433   2.944  0.1373  0.2945 -0.0859
  453MOL0     C61086   0.923   5.345   3.039  0.2136 -0.7045 -0.4962
  453MOL0     C61087   0.874   5.214   3.051  0.2301 -0.1062  1.1441
  453MOL0     H61088   1.217   5.352   3.533  1.5821  3.4001  1.1653
  453MOL0     H61089   1.404   5.230   3.651  2.0586  2.2739  0.8078
  453MOL0     H61090   1.626   5.244   3.707  0.4180 -0.2631  2.3818
  453MOL0     H61091   1.573   5.070   3.727  0.6807  1.4135  3.8329
  453MOL0     H61092   1.794   5.120   3.831  0.9780 -0.2692  1.2859
  453MOL0     H61093   1.852   5.151   3.661  0.9122  1.2944  2.9805
  453MOL0     H61094   1.797   4.934   3.601  2.0938  0.4912 -0.6454
  453MOL0     H61095   1.700   4.900   3.746  2.2552 -0.2161  1.7674
  453MOL0     H61096   1.963   4.817   3.733  2.4716  1.4550 -4.4505
  453MOL0     H61097   1.982   4.992   3.766 -0.2917 -0.3290  0.5813
  453MOL0     H61098   1.832   4.925   3.971 -1.0498  0.8404 -2.0940
  453MOL0     H61099   1.862   4.762   3.935 -0.3739  0.3555  3.7849
  453MOL0     H61100   2.093   4.787   3.924  2.0014  1.1530  0.1817
  453MOL0     H61101   2.091   4.953   3.965  0.5220  0.5229 -3.0168
  453MOL0     H61102   2.114   4.731   4.155  1.6073 -0.0860 -1.2381
  453MOL0     H61103   1.945   4.799   4.172 -0.0991  4.3069 -1.0092
  453MOL0     H61104   2.106   4.882   4.326  0.0675  0.0005 -0.2366
  453MOL0     H61105   2.180   4.952   4.186  0.3935 -0.5176 -0.1371
  453MOL0     H61106   1.811   4.933   4.254 -1.3277  0.2364 -1.9593
  453MOL0     H61107   1.605   5.128   4.302 -1.1049 -0.7341 -2.0716
  453MOL0     H61108   1.669   5.296   4.310  2.3703 -0.6943  1.9369
  453MOL0     H61109   1.624   5.149   4.031 -0.5303  2.4304 -3.3916
  453MOL0     H61110   1.508   5.250   4.140  0.0512 -2.7827  3.7951
  453MOL0     H61111   1.738   5.299   3.980 -1.2512 -0.2403  0.3624
  453MOL0     H61112   1.720   5.426   4.111 -0.9619 -0.3996  0.8463
  453MOL0     H61113   1.482   5.460   4.001 -0.3798 -3.1557  2.1277
  453MOL0     H61114   1.547   5.359   3.873  0.7780 -0.0881  0.1978
  453MOL0     H61115   1.395   5.692   3.880 -0.4207 -0.3106 -0.8195
  453MOL0     H61116   1.297   5.748   3.654  0.2476  0.8234  1.5622
  453MOL0     H61117   1.493   5.481   3.112 -3.2849 -1.9258 -2.8707
  453MOL0     H61118   1.465   5.516   2.878 -1.2001  2.1045 -2.5788
  453MOL0     H61119   1.238   5.852   2.740 -0.2871 -1.7424  0.3901
  453MOL0     H61120   1.399   5.914   2.715  0.1843 -0.2799 -3.5354
  453MOL0     H61121   1.303   5.689   2.531 -0.5721  0.0301  3.3091
  453MOL0     H61122   1.244   5.864   2.520  0.9402  1.3979 -0.5044
  453MOL0     H61123   1.461   5.944   2.488 -0.9149  0.1427 -1.7883
  453MOL0     H61124   1.537   5.801   2.547 -3.0567 -1.6921  3.4760
  453MOL0     H61125   1.458   5.684   2.328  1.3742  0.2526 -0.1763
  453MOL0     H61126   1.561   5.829   2.300 -0.5854  2.0134  0.0002
  453MOL0     H61127   1.378   5.967   2.243  1.0207  0.7401 -0.0069
  453MOL0     H61128   1.253   5.858   2.289 -0.3752  3.9038 -0.6470
  453MOL0     H61129   1.308   5.898   2.049  2.1452  1.7569  1.1464
  453MOL0     H61130   1.471   5.824   2.086  0.5284 -0.5423  0.2555
  453MOL0     H61131   1.202   5.662   2.115  0.9090 -1.4916  1.7793
  453MOL0     H61132   1.359   5.598   2.122 -0.7321  0.2462  0.6789
  453MOL0     H61133   1.398   5.637   1.880  0.2964  1.3092  0.5392
  453MOL0     H61134   1.261   5.543   1.920 -0.0085 -0.0825 -0.7119
  453MOL0     H61135   1.395   5.944   2.954  2.1955  0.3505  0.0657
  453MOL0     H61136   1.425   5.914   3.198  2.0875 -0.5744  0.3964
  453MOL0     H61137   1.640   5.538   3.468 -1.8636  0.3538 -0.4628
  453MOL0     H61138   1.711   5.488   3.685  0.0819  1.1416  1.8304
  453MOL0     H61139   1.609   5.190   3.282  0.5125 -0.0311  1.9331
  453MOL0     H61140   1.418   5.302   3.161 -2.9664 -2.0349 -0.8960
  453MOL0     H61141   1.105   5.584   3.189 -0.2433 -0.9925  0.9834
  453MOL0     H61142   0.984   5.725   3.021 -1.4083 -0.3828  0.1609
  453MOL0     H61143   0.635   5.533   2.789  0.3565  1.2195  0.2874
  453MOL0     H61144   0.779   5.506   2.686  1.4316  0.8414  0.1366
  453MOL0     H61145   0.640   5.626   2.551 -0.5858 -0.8452 -0.0959
  453MOL0     H61146   0.767   5.730   2.603  0.1529 -1.2097 -0.1789
  453MOL0     H61147   0.639   5.844   2.786 -0.6091  1.9607 -0.2440
  453MOL0     H61148   0.508   5.728   2.740 -0.1909  0.5208  2.3666
  453MOL0     H61149   0.467   5.949   2.664 -1.7078 -2.8478  0.9624
  453MOL0     H61150   0.622   5.968   2.576  0.0719  0.5400  0.6721
  453MOL0     H61151   0.396   5.706   2.329 -1.0686 -0.1766  1.2279
  453MOL0     H61152   0.788   5.382   2.871  2.2277  1.4572 -2.9074
  453MOL0     H61153   0.850   5.175   2.952  0.2755  0.6330  0.8435
  453MOL0     H61154   0.933   5.136   3.103  3.7222 -1.0407 -3.5276
  453MOL0     H61155   0.776   5.224   3.099 -0.1468 -1.0173  0.5998
  454MOL0     O61156   4.059   7.069   8.249  0.0157  0.0042  0.7123
  454MOL0     C61157   4.059   7.114   8.367 -0.9449 -0.6446 -0.6826
  454MOL0     O61158   4.140   7.070   8.472  0.4158 -0.0417  0.3611
  454MOL0     C61159   4.243   6.988   8.440  0.5139 -0.2879  0.0388
  454MOL0     C61160   4.252   6.876   8.517  0.0864 -0.5709  0.5870
  454MOL0     C61161   4.357   6.783   8.492 -0.4557  0.3513  1.2613
  454MOL0     C61162   4.451   6.815   8.392 -0.8343  0.7810 -0.1021
  454MOL0     O61163   4.558   6.724   8.385  0.3064  0.0748  0.1178
  454MOL0     C61164   4.673   6.750   8.291 -0.1220  1.2783  0.0461
  454MOL0     C61165   4.742   6.621   8.255 -0.4498 -0.5008 -1.1804
  454MOL0     C61166   4.841   6.555   8.356 -0.2911 -0.3066 -0.0193
  454MOL0     C61167   4.775   6.496   8.489 -0.6474 -0.3842  0.6820
  454MOL0     C61168   4.872   6.436   8.589  0.0095  0.2777 -0.3221
  454MOL0     C61169   4.942   6.314   8.527  0.0605  0.4950 -0.1289
  454MOL0     C61170   5.016   6.221   8.630  0.6049 -0.1823 -0.2322
  454MOL0     C61171   5.100   6.128   8.546 -0.4282  0.1365  0.1870
  454MOL0     N61172   5.232   6.187   8.495 -0.5016  0.1794 -1.3560
  454MOL0     C61173   5.269   6.286   8.412 -0.6017 -0.3660 -0.4120
  454MOL0     C61174   5.387   6.329   8.467 -0.7681  0.4904  0.4971
  454MOL0     C61175   5.469   6.452   8.427 -0.4761  0.3122  0.3602
  454MOL0     C61176   5.410   6.579   8.466 -0.0683  0.0830  0.2491
  454MOL0     C61177   5.479   6.703   8.389 -0.6802  0.1922  0.3856
  454MOL0     C61178   5.608   6.774   8.446 -0.1971 -0.6726 -0.0004
  454MOL0     O61179   5.571   6.823   8.573  0.1315  0.1489 -0.3486
  454MOL0     C61180   5.584   6.744   8.691 -0.6208 -0.3137  0.1199
  454MOL0     C61181   5.530   6.790   8.809 -0.7055 -0.4838 -0.4103
  454MOL0     C61182   5.548   6.741   8.933  0.2446  0.3284 -0.5243
  454MOL0     C61183   5.633   6.629   8.946 -0.7364  0.2055  0.6675
  454MOL0     C61184   5.659   6.566   9.082 -0.2214  0.3751 -0.9432
  454MOL0     O61185   5.763   6.467   9.096  0.1810 -0.1013  0.6837
  454MOL0     C61186   5.779   6.403   9.217  0.3244  0.4301  0.2613
  454MOL0     C61187   5.794   6.483   9.335  0.0049  0.5077  0.7511
  454MOL0     C61188   5.809   6.407   9.452 -0.5742 -0.3348  0.0547
  454MOL0     C61189   5.819   6.270   9.462  0.5709 -0.1933  0.7559
  454MOL0     O61190   5.831   6.209   9.584  0.7041  0.0037  0.0445
  454MOL0     C61191   5.941   6.252   9.664  0.7132  0.0054  0.3686
  454MOL0     C61192   5.957   6.154   9.787  0.5943 -0.9404  0.0641
  454MOL0     C61193   5.994   6.004   9.776  0.1955  0.3853  0.0536
  454MOL0     C61194   6.119   5.982   9.691 -0.2462 -0.5809  0.0182
  454MOL0     C61195   6.172   5.837   9.665  0.3733  0.8054  0.4782
  454MOL0     C61196   6.136   5.734   9.766  0.2149  0.3199  0.2882
  454MOL0     C61197   6.178   5.584   9.720 -0.2223  0.2985 -0.1738
  454MOL0     C61198   6.117   5.544   9.586  1.3887 -0.1110 -0.3362
  454MOL0    Cl61199   5.950   5.487   9.624  0.2435 -0.2258 -0.3367
  454MOL0     C61200   5.811   6.194   9.340  0.0868  0.0936  0.5404
  454MOL0     C61201   5.785   6.266   9.221 -0.4336  0.0680  0.6088
  454MOL0     O61202   5.598   6.615   9.179  0.7616 -0.8721 -0.0223
  454MOL0     C61203   5.692   6.575   8.829  0.0449  0.8155  0.1326
  454MOL0     C61204   5.664   6.632   8.709 -0.6610 -0.0944  0.4277
  454MOL0     N61205   5.430   6.234   8.549 -0.1468  0.2645 -0.5306
  454MOL0     N61206   5.333   6.157   8.578  1.1719  0.5426  0.4741
  454MOL0     C61207   4.450   6.941   8.330  0.0672 -0.1413  0.0467
  454MOL0     C61208   4.342   7.023   8.345  0.1149  0.1634 -0.5200
  454MOL0     C61209   3.958   7.222   8.391  0.1993 -0.9212  0.8832
  454MOL0     C61210   3.931   7.248   8.526  0.5319 -0.9826 -0.2591
  454MOL0     C61211   3.839   7.350   8.560 -1.0482  0.0991  0.0223
  454MOL0     C61212   3.778   7.424   8.466 -0.6336  0.1440  0.7291
  454MOL0     O61213   3.672   7.494   8.499  0.7792  0.3973 -0.1496
  454MOL0     C61214   3.689   7.615   8.590 -0.3245  0.6138 -0.0323
  454MOL0     C61215   3.793   7.720   8.537 -0.1137  0.0906  0.0132
  454MOL0     C61216   3.741   7.813   8.427 -0.2799 -0.4749 -0.0731
  454MOL0     C61217   3.857   7.884   8.348  0.4477 -0.3536 -0.0227
  454MOL0     C61218   3.809   8.003   8.273 -0.3961 -0.1532  0.6250
  454MOL0     C61219   3.764   8.096   8.212  0.9983 -0.5750  0.6911
  454MOL0     C61220   3.816   7.411   8.331  0.0135  0.3935 -0.2412
  454MOL0     C61221   3.911   7.317   8.292  0.0232 -0.1653  1.0359
  454MOL0     C61222   3.971   7.319   8.151  0.0894 -0.8741  0.2552
  454MOL0     H61223   4.173   6.850   8.586  0.9259 -2.0575  1.0322
  454MOL0     H61224   4.372   6.685   8.535 -0.5041 -1.2475 -2.1130
  454MOL0     H61225   4.635   6.798   8.201 -1.3224 -2.6225 -1.7329
  454MOL0     H61226   4.751   6.810   8.339  0.7463 -0.5871  1.0692
  454MOL0     H61227   4.813   6.641   8.175  0.3964  2.1893  0.1152
  454MOL0     H61228   4.672   6.538   8.238  1.1533 -2.0025 -0.6996
  454MOL0     H61229   4.920   6.629   8.370  1.2393 -1.6256 -1.3486
  454MOL0     H61230   4.889   6.471   8.305  1.0567 -0.1536  0.9408
  454MOL0     H61231   4.722   6.576   8.541 -0.6890 -0.7396  1.1993
  454MOL0     H61232   4.698   6.421   8.465 -2.0855  0.8791  1.1770
  454MOL0     H61233   4.940   6.518   8.616  1.2394 -0.7402 -0.2159
  454MOL0     H61234   4.824   6.396   8.679 -0.5477 -2.3141 -1.6944
  454MOL0     H61235   4.863   6.249   8.490 -0.0467  0.1440  0.7097
  454MOL0     H61236   5.001   6.337   8.437  0.7578  0.6908  0.3665
  454MOL0     H61237   4.942   6.156   8.679  0.2823  0.5117  0.2100
  454MOL0     H61238   5.079   6.273   8.702  0.9240  0.2347 -0.7974
  454MOL0     H61239   5.115   6.037   8.605  3.7196 -1.3625 -2.7715
  454MOL0     H61240   5.039   6.110   8.457 -0.3143 -1.2308  0.3692
  454MOL0     H61241   5.213   6.344   8.339  0.6678  3.0955  1.1638
  454MOL0     H61242   5.564   6.438   8.478  0.2323  3.6535  0.1937
  454MOL0     H61243   5.467   6.454   8.317 -3.8761  0.9587  0.3305
  454MOL0     H61244   5.305   6.585   8.434 -0.2699 -2.1338  0.3643
  454MOL0     H61245   5.406   6.583   8.575 -1.6670 -1.5993  0.3066
  454MOL0     H61246   5.404   6.779   8.367 -2.0444 -0.9795  0.8506
  454MOL0     H61247   5.488   6.667   8.286 -1.4878 -1.3935  0.8357
  454MOL0     H61248   5.618   6.862   8.382  0.4274  1.0050  2.2410
  454MOL0     H61249   5.696   6.708   8.450 -1.0296 -2.0220 -2.3689
  454MOL0     H61250   5.454   6.867   8.795 -0.6736 -0.8175 -2.7592
  454MOL0     H61251   5.496   6.781   9.020  1.9659  1.7043 -0.0772
  454MOL0     H61252   5.789   6.590   9.348 -0.5290  0.7499 -1.1663
  454MOL0     H61253   5.816   6.469   9.541 -0.5097  0.8464 -0.7434
  454MOL0     H61254   6.038   6.235   9.616  0.9002 -1.1099  1.1028
  454MOL0     H61255   5.932   6.358   9.687 -0.0784  0.0918 -0.3020
  454MOL0     H61256   6.029   6.208   9.849  0.2815 -0.4109 -0.0219
  454MOL0     H61257   5.860   6.164   9.836 -0.1556 -0.0299 -1.5165
  454MOL0     H61258   6.008   5.965   9.877  0.9905 -2.1172 -0.9221
  454MOL0     H61259   5.917   5.948   9.722  0.3921 -0.8727  1.0154
  454MOL0     H61260   6.195   6.035   9.750 -2.1621  0.6039  1.5350
  454MOL0     H61261   6.094   6.032   9.597 -4.4547  0.6123  1.5374
  454MOL0     H61262   6.280   5.848   9.660  0.2531  2.0581  0.2530
  454MOL0     H61263   6.131   5.821   9.565  1.0034  1.9801  0.0059
  454MOL0     H61264   6.190   5.768   9.855  1.0411  2.1393 -0.8369
  454MOL0     H61265   6.033   5.728   9.801 -0.3417  0.6723 -1.2073
  454MOL0     H61266   6.164   5.510   9.799 -1.8023  2.3651  1.5904
  454MOL0     H61267   6.285   5.593   9.700  0.0082 -2.1996 -0.3255
  454MOL0     H61268   6.111   5.612   9.500 -4.3481 -0.3417 -0.5056
  454MOL0     H61269   6.165   5.451   9.555 -1.1553 -1.0082 -1.7985
  454MOL0     H61270   5.816   6.085   9.338 -4.2405 -0.2439 -1.1206
  454MOL0     H61271   5.768   6.215   9.127  1.5880  1.0545 -0.3421
  454MOL0     H61272   5.759   6.490   8.830  0.4568  1.0998 -1.0485
  454MOL0     H61273   5.704   6.582   8.621  0.0058 -0.5883  1.0015
  454MOL0     H61274   4.522   6.973   8.255 -1.4857  1.7091 -0.7476
  454MOL0     H61275   4.319   7.114   8.291  1.9048  1.2429  0.4253
  454MOL0     H61276   3.970   7.182   8.602  2.3549  0.1046 -0.2006
  454MOL0     H61277   3.812   7.349   8.666  2.1795 -1.6427  0.9507
  454MOL0     H61278   3.728   7.591   8.689 -0.9894 -2.8502 -0.4539
  454MOL0     H61279   3.593   7.662   8.611 -0.7194  0.4131 -1.2955
  454MOL0     H61280   3.877   7.665   8.492 -1.1552  1.5142 -4.1549
  454MOL0     H61281   3.826   7.788   8.617 -1.4198  1.5576 -0.6476
  454MOL0     H61282   3.688   7.895   8.477  1.9800 -0.7325  2.9886
  454MOL0     H61283   3.676   7.754   8.361 -0.9470  0.2765 -0.1118
  454MOL0     H61284   3.944   7.913   8.406  2.1379 -2.1974 -1.5018
  454MOL0     H61285   3.899   7.826   8.265 -4.3827 -1.8658 -1.7844
  454MOL0     H61286   3.727   8.187   8.167 -1.1569 -1.6677  0.1117
  454MOL0     H61287   3.770   7.485   8.266 -2.3051  0.4903  1.4132
  454MOL0     H61288   3.939   7.403   8.089 -2.7518 -0.4900  2.0681
  454MOL0     H61289   4.079   7.313   8.165 -0.0887  2.0501  5.0210
  454MOL0     H61290   3.933   7.236   8.091  0.1076 -1.1304  0.5986
  455MOL0     O61291   3.184   7.132   2.949  1.0241  0.0980 -0.2862
  455MOL0     C61292   3.283   7.135   3.024 -0.4825 -0.3549 -0.0253
  455MOL0     O61293   3.282   7.189   3.155  0.1354 -0.2614  0.7962
  455MOL0     C61294   3.164   7.242   3.210 -1.1196 -0.2431 -0.0181
  455MOL0     C61295   3.154   7.223   3.345  0.3363  1.0908  0.1763
  455MOL0     C61296   3.036   7.259   3.408  0.5649 -0.4112 -0.7435
  455MOL0     C61297   2.922   7.313   3.347  0.0196 -0.2412  0.4373
  455MOL0     O61298   2.803   7.339   3.409  0.1048 -0.7983 -0.6830
  455MOL0     C61299   2.787   7.318   3.549  0.0349  0.8147  1.3876
  455MOL0     C61300   2.642   7.334   3.578  0.7464  0.6270  0.6016
  455MOL0     C61301   2.585   7.459   3.505 -0.5959 -0.2868  0.2800
  455MOL0     C61302   2.442   7.456   3.462  0.2875  0.2024 -0.3665
  455MOL0     C61303   2.386   7.593   3.423  0.3556 -0.2418  0.0609
  455MOL0     C61304   2.264   7.574   3.336 -0.0423 -0.0352  0.2425
  455MOL0     C61305   2.192   7.708   3.324 -0.8046 -0.0667 -0.4251
  455MOL0     C61306   2.116   7.737   3.452 -0.3621  0.2007  0.6629
  455MOL0     N61307   1.979   7.785   3.425  0.5857  0.4047  0.3146
  455MOL0     C61308   1.939   7.914   3.390 -0.2787  0.0798 -0.1145
  455MOL0     C61309   1.804   7.913   3.396  0.2539  0.7495  0.1735
  455MOL0     C61310   1.731   8.039   3.374  0.7109 -0.1880 -0.1315
  455MOL0     C61311   1.606   8.001   3.284  0.5046 -0.6599 -0.3566
  455MOL0     C61312   1.649   7.982   3.141  0.2963  0.3455  0.2128
  455MOL0     C61313   1.535   7.936   3.058 -0.1312 -0.5001  0.3203
  455MOL0     O61314   1.409   7.994   3.104 -0.4860  0.2938 -0.3876
  455MOL0     C61315   1.290   7.924   3.090  0.3769  0.0328  0.0413
  455MOL0     C61316   1.194   7.941   3.180 -0.2283  0.1758 -0.6676
  455MOL0     C61317   1.066   7.883   3.178  0.6356 -1.1319 -0.6661
  455MOL0     C61318   1.039   7.796   3.066  0.1730 -0.0557  0.5645
  455MOL0     C61319   0.906   7.731   3.056  0.7941  0.4616 -0.0714
  455MOL0     O61320   0.878   7.669   2.936  0.2492  0.1536  0.2827
  455MOL0     C61321   0.754   7.640   2.905 -0.0043  0.6245  1.0349
  455MOL0     C61322   0.723   7.496   2.912 -0.0379 -0.5532 -1.2402
  455MOL0     C61323   0.596   7.443   2.888 -0.2674 -0.6309  0.8033
  455MOL0     C61324   0.494   7.525   2.841  0.4172  0.4347  0.0165
  455MOL0     O61325   0.376   7.481   2.789  1.0996 -0.1303 -0.0935
  455MOL0     C61326   0.351   7.346   2.804 -0.1899 -0.1612 -0.4294
  455MOL0     C61327   0.207   7.307   2.759  0.1282 -0.1718 -0.2949
  455MOL0     C61328   0.150   7.170   2.812  0.4995 -0.9441  0.3158
  455MOL0     C61329   0.233   7.048   2.771  0.2278  0.3535 -0.0771
  455MOL0     C61330   0.156   6.917   2.790  0.7714 -0.0838 -0.2573
  455MOL0     C61331   0.173   6.850   2.930 -0.5463 -0.7232  1.0620
  455MOL0     C61332   0.093   6.722   2.947 -0.2006  0.5364 -0.4733
  455MOL0     C61333   0.122   6.645   3.080  0.5479  1.0416  1.2829
  455MOL0    Cl61334   0.061   6.749   3.214 -0.2792 -0.3709  0.0735
  455MOL0     C61335   0.532   7.661   2.824  0.7583  0.2126  0.1771
  455MOL0     C61336   0.659   7.719   2.835  0.6409  0.7417 -0.3817
  455MOL0     O61337   0.821   7.758   3.133  0.3600 -0.4131 -0.7359
  455MOL0     C61338   1.139   7.770   2.977  0.4093 -0.3103  0.1307
  455MOL0     C61339   1.262   7.832   2.985  0.4608 -0.2852 -0.4044
  455MOL0     N61340   1.755   7.785   3.428  0.5813  0.4510  0.6917
  455MOL0     N61341   1.868   7.709   3.438  0.2619  0.3217 -0.0446
  455MOL0     C61342   2.937   7.332   3.211 -0.6260 -0.7461 -0.9873
  455MOL0     C61343   3.060   7.311   3.139  0.1344  0.0217  0.0828
  455MOL0     C61344   3.413   7.066   2.988 -0.7986 -0.1206 -0.8166
  455MOL0     C61345   3.514   7.054   3.090 -0.5055  0.2413  0.0883
  455MOL0     C61346   3.628   6.974   3.064  0.1235  0.7422 -0.0329
  455MOL0     C61347   3.645   6.910   2.946 -0.1914  1.1062  0.8431
  455MOL0     O61348   3.751   6.819   2.958 -0.1429  0.0592  0.2631
  455MOL0     C61349   3.723   6.685   2.901  1.0526 -0.5275 -0.1640
  455MOL0     C61350   3.835   6.582   2.912  0.1980  0.1371  0.4591
  455MOL0     C61351   3.826   6.507   3.041  0.3824 -1.2604  0.4937
  455MOL0     C61352   3.739   6.387   3.027 -0.3155  0.0068 -0.7352
  455MOL0     C61353   3.720   6.307   3.155 -0.2191 -0.3614  0.5399
  455MOL0     C61354   3.705   6.258   3.267 -0.0057 -0.0834 -0.1350
  455MOL0     C61355   3.554   6.931   2.842 -0.5643  0.5332 -0.0426
  455MOL0     C61356   3.439   7.012   2.858  0.0414  0.2576 -0.0716
  455MOL0     C61357   3.352   7.018   2.737 -0.3020  0.0834 -0.1017
  455MOL0     H61358   3.238   7.187   3.403  1.3516 -1.8767 -2.8269
  455MOL0     H61359   3.026   7.250   3.516 -2.1630  1.2499 -0.7539
  455MOL0     H61360   2.821   7.217   3.571  0.5277  1.4113  3.6325
  455MOL0     H61361   2.840   7.384   3.618  1.5174  3.9140 -2.3832
  455MOL0     H61362   2.622   7.347   3.684  0.9230  0.3922  0.6664
  455MOL0     H61363   2.580   7.252   3.542 -1.0247  1.8195  0.8373
  455MOL0     H61364   2.640   7.494   3.417 -2.9535  1.2466 -0.6885
  455MOL0     H61365   2.593   7.542   3.575 -0.6303  1.4740 -1.6945
  455MOL0     H61366   2.436   7.384   3.380 -0.7742 -0.2433  0.0791
  455MOL0     H61367   2.381   7.416   3.543  2.5476  0.4270  1.5281
  455MOL0     H61368   2.370   7.651   3.514  1.7548  0.9745 -0.4398
  455MOL0     H61369   2.453   7.651   3.360 -1.1245  2.0302  0.4704
  455MOL0     H61370   2.305   7.533   3.243  0.1304 -0.4976  0.5207
  455MOL0     H61371   2.214   7.491   3.386 -1.9947 -0.2979 -2.0063
  455MOL0     H61372   2.121   7.710   3.241  0.5385  1.3076 -1.5868
  455MOL0     H61373   2.255   7.794   3.303 -1.3309 -0.2019 -2.8724
  455MOL0     H61374   2.100   7.644   3.506  0.0552 -1.3626 -1.7519
  455MOL0     H61375   2.177   7.808   3.509 -0.5088  3.1368 -2.4787
  455MOL0     H61376   2.006   7.997   3.368  0.1663  0.5156  2.4883
  455MOL0     H61377   1.686   8.083   3.464 -0.4922 -0.9042 -0.3608
  455MOL0     H61378   1.792   8.121   3.336  0.1621  0.8254  1.0843
  455MOL0     H61379   1.558   7.908   3.314  0.0591 -0.6522 -1.0297
  455MOL0     H61380   1.524   8.072   3.292 -0.4538 -1.8484  0.7256
  455MOL0     H61381   1.728   7.905   3.138  0.0674  0.1532 -1.2357
  455MOL0     H61382   1.682   8.079   3.104 -2.0494  0.6922 -1.1396
  455MOL0     H61383   1.537   7.827   3.049  1.2384 -0.3713 -1.7943
  455MOL0     H61384   1.545   7.972   2.955  1.1241  2.7007  1.4341
  455MOL0     H61385   1.226   8.010   3.258 -2.9045  3.0825 -1.9347
  455MOL0     H61386   0.989   7.915   3.247 -0.7073 -2.3240 -1.5788
  455MOL0     H61387   0.798   7.431   2.955 -1.1723 -1.7228 -0.9642
  455MOL0     H61388   0.590   7.335   2.891  1.0055 -0.7642 -0.3432
  455MOL0     H61389   0.427   7.293   2.746  1.1178  0.2371  0.8405
  455MOL0     H61390   0.347   7.323   2.911 -2.1431  1.0131 -0.2142
  455MOL0     H61391   0.143   7.388   2.795  0.7987 -0.0083  0.5801
  455MOL0     H61392   0.220   7.297   2.651  0.1395 -1.4405 -0.1906
  455MOL0     H61393   0.130   7.171   2.920 -1.3816 -0.6351 -0.0108
  455MOL0     H61394   0.052   7.159   2.766  0.6612 -2.1063  0.2019
  455MOL0     H61395   0.315   7.055   2.843  1.1435 -1.4465 -0.8928
  455MOL0     H61396   0.277   7.048   2.671 -1.9581 -2.0544 -1.1653
  455MOL0     H61397   0.188   6.857   2.705 -4.3345  1.1311 -3.5125
  455MOL0     H61398   0.050   6.934   2.766  0.4854 -1.2918  0.0789
  455MOL0     H61399   0.280   6.828   2.934 -0.1814  0.7848  0.2123
  455MOL0     H61400   0.156   6.922   3.010 -0.3280  0.7249 -0.1562
  455MOL0     H61401   0.122   6.656   2.864  2.5370  0.6459  0.2910
  455MOL0     H61402  -0.015   6.740   2.943 -0.0982  1.1221 -0.6521
  455MOL0     H61403   0.064   6.553   3.072 -1.1924  1.8178  3.9959
  455MOL0     H61404   0.229   6.620   3.078 -0.0278 -1.8700 -0.8646
  455MOL0     H61405   0.452   7.732   2.803  1.0580  1.1472  2.0192
  455MOL0     H61406   0.668   7.824   2.813 -2.1025  0.8430 -1.3240
  455MOL0     H61407   1.127   7.703   2.892  1.9673  1.3092 -1.4528
  455MOL0     H61408   1.325   7.820   2.897 -1.7320  0.3779 -2.1897
  455MOL0     H61409   2.849   7.371   3.161 -0.5262 -0.8265 -1.2289
  455MOL0     H61410   3.070   7.337   3.034 -0.2263  1.9800  0.4819
  455MOL0     H61411   3.502   7.088   3.193  0.1511  2.1979 -0.4468
  455MOL0     H61412   3.693   6.952   3.148 -1.4344 -0.7348  0.8365
  455MOL0     H61413   3.707   6.698   2.793 -0.5986 -1.1908 -0.0426
  455MOL0     H61414   3.620   6.654   2.925  1.3280 -1.6360 -0.3465
  455MOL0     H61415   3.933   6.629   2.902  2.1672 -3.8865 -1.4634
  455MOL0     H61416   3.822   6.518   2.825  0.1535  3.3388 -2.0646
  455MOL0     H61417   3.771   6.570   3.111 -1.3441 -2.8383  0.6350
  455MOL0     H61418   3.926   6.481   3.078  0.8299 -2.6090 -1.5196
  455MOL0     H61419   3.642   6.423   2.991 -0.7419  0.5901  0.8839
  455MOL0     H61420   3.781   6.320   2.952  0.8523 -2.0936  1.6235
  455MOL0     H61421   3.676   6.218   3.362 -0.5850 -1.7453 -0.9500
  455MOL0     H61422   3.572   6.883   2.747 -1.3794 -2.7323  1.3331
  455MOL0     H61423   3.299   7.112   2.722 -1.0513 -0.2818  0.2177
  455MOL0     H61424   3.411   6.989   2.650  1.0268  0.3432  0.6815
  455MOL0     H61425   3.282   6.936   2.755 -0.6540  0.5149  0.5303
  456MOL0     O61426   3.133   7.848   1.418 -1.0348 -1.0922  0.1246
  456MOL0     C61427   3.090   7.935   1.346 -0.1741 -0.2555 -0.1518
  456MOL0     O61428   3.152   8.041   1.294 -0.0919 -0.2810 -0.1406
  456MOL0     C61429   3.280   8.070   1.329  1.1001  0.5706 -1.2009
  456MOL0     C61430   3.340   8.032   1.458  0.4755 -0.1538 -0.1749
  456MOL0     C61431   3.479   8.053   1.478  0.4599 -0.4592 -0.4387
  456MOL0     C61432   3.553   8.112   1.370  0.4448  0.2608  0.2999
  456MOL0     O61433   3.682   8.128   1.388 -0.7460  0.3192  0.1181
  456MOL0     C61434   3.764   8.147   1.272 -0.4505  0.1607  0.5232
  456MOL0     C61435   3.903   8.115   1.306  0.2244 -0.1302  0.0192
  456MOL0     C61436   3.987   8.117   1.177 -0.4451  0.2974 -1.4683
  456MOL0     C61437   4.136   8.081   1.207 -0.1257 -0.5296 -0.0194
  456MOL0     C61438   4.227   8.077   1.082  0.1835  0.1242  0.0385
  456MOL0     C61439   4.246   8.214   1.002  0.1119  1.0486 -0.0052
  456MOL0     C61440   4.352   8.191   0.890  0.8727 -0.0200 -0.6831
  456MOL0     C61441   4.365   8.292   0.777  0.2173 -0.0396  0.3139
  456MOL0     N61442   4.496   8.280   0.724  0.5205  0.0392  0.1342
  456MOL0     C61443   4.614   8.265   0.784 -0.2277  0.3360  0.2918
  456MOL0     C61444   4.708   8.262   0.679 -0.3177  0.4590  0.5071
  456MOL0     C61445   4.856   8.238   0.680 -0.5480  0.3685 -0.1694
  456MOL0     C61446   4.925   8.361   0.731 -0.6161 -0.4142 -0.4069
  456MOL0     C61447   5.082   8.362   0.708  0.8113 -0.7579 -0.7105
  456MOL0     C61448   5.164   8.317   0.835  0.3380 -0.3918  1.2287
  456MOL0     O61449   5.222   8.435   0.893 -1.1988 -0.3373 -0.7025
  456MOL0     C61450   5.355   8.454   0.893 -0.2622 -0.1358 -1.1383
  456MOL0     C61451   5.407   8.532   0.784 -0.5694  0.1257  0.6319
  456MOL0     C61452   5.549   8.552   0.768  0.3141 -0.1688  0.8227
  456MOL0     C61453   5.638   8.509   0.861 -0.0235  0.1343 -0.2278
  456MOL0     C61454   5.776   8.553   0.857  0.4016  0.9530 -0.1139
  456MOL0     O61455   5.850   8.564   0.971  0.6951  0.1990 -0.2724
  456MOL0     C61456   5.986   8.589   0.950 -0.5957 -0.2807  0.9820
  456MOL0     C61457   6.064   8.516   0.848  0.2113 -0.0349  0.1886
  456MOL0     C61458   6.204   8.533   0.845  0.2581  0.2465  0.4201
  456MOL0     C61459   6.260   8.607   0.937  0.3372 -0.1164 -0.4128
  456MOL0     O61460   6.392   8.636   0.923 -0.7575 -0.4661  0.1295
  456MOL0     C61461   6.470   8.694   1.033  0.4047  0.2836 -0.1775
  456MOL0     C61462   6.612   8.654   1.018 -0.4283  0.4478  0.1722
  456MOL0     C61463   6.691   8.722   1.135 -0.5021  0.3269  0.2309
  456MOL0     C61464   6.844   8.721   1.126 -0.4271  0.4991 -0.2238
  456MOL0     C61465   6.917   8.772   1.249  0.1258  0.8651 -1.0578
  456MOL0     C61466   6.912   8.685   1.374  0.2253 -0.5767 -0.5962
  456MOL0     C61467   6.919   8.765   1.504  0.0872 -1.4281 -0.8105
  456MOL0     C61468   6.838   8.717   1.623  0.1432 -0.5786  0.1551
  456MOL0    Cl61469   6.678   8.666   1.561 -0.6950  0.0874 -0.0473
  456MOL0     C61470   6.185   8.681   1.029  0.1965  0.4512 -0.0088
  456MOL0     C61471   6.050   8.671   1.033  0.6902  0.1563 -0.8686
  456MOL0     O61472   5.813   8.592   0.746 -0.1752 -0.1668 -0.8381
  456MOL0     C61473   5.590   8.426   0.967  0.9965 -0.9878 -0.6392
  456MOL0     C61474   5.451   8.398   0.979  0.3919  0.0277 -0.0161
  456MOL0     N61475   4.640   8.276   0.561 -0.3461  0.4963  0.1480
  456MOL0     N61476   4.511   8.278   0.596  0.7590  0.0497  0.8913
  456MOL0     C61477   3.488   8.167   1.257  0.3030 -0.4645 -0.0733
  456MOL0     C61478   3.354   8.129   1.233  0.3286 -1.4444 -0.0012
  456MOL0     C61479   2.962   7.891   1.282 -0.7287 -0.5532 -0.7077
  456MOL0     C61480   2.969   7.892   1.141 -0.8099 -0.2855 -0.1698
  456MOL0     C61481   2.863   7.848   1.069 -0.8591 -0.3575  0.0473
  456MOL0     C61482   2.756   7.782   1.134  0.2788 -0.0186 -0.1046
  456MOL0     O61483   2.646   7.756   1.051  0.3067  0.6796  0.2792
  456MOL0     C61484   2.541   7.671   1.102 -0.3233  0.5937  0.2109
  456MOL0     C61485   2.452   7.644   0.981 -0.2613 -0.7826 -0.1723
  456MOL0     C61486   2.521   7.541   0.895 -0.1773 -0.7864 -0.2226
  456MOL0     C61487   2.425   7.471   0.797  1.2072  1.2260  0.2448
  456MOL0     C61488   2.350   7.582   0.728  0.6820  0.7716 -0.2372
  456MOL0     C61489   2.286   7.673   0.679 -0.5398 -0.1403 -0.8952
  456MOL0     C61490   2.746   7.770   1.278 -0.4292 -0.8287 -0.0107
  456MOL0     C61491   2.842   7.836   1.348  0.2448 -0.9797  0.5085
  456MOL0     C61492   2.832   7.836   1.494 -0.3087  0.5062  0.0054
  456MOL0     H61493   3.282   7.983   1.535  3.4531 -0.2411  2.1886
  456MOL0     H61494   3.533   8.035   1.570  0.4371  3.7084  0.5945
  456MOL0     H61495   3.729   8.093   1.184  0.5741  1.2576 -0.5876
  456MOL0     H61496   3.752   8.248   1.232 -0.7794 -1.1467 -3.0762
  456MOL0     H61497   3.909   8.012   1.343 -0.1193 -1.8827 -4.2622
  456MOL0     H61498   3.931   8.197   1.373 -1.7369 -0.6915  1.6538
  456MOL0     H61499   3.983   8.221   1.142  1.4401  0.1960 -2.0645
  456MOL0     H61500   3.941   8.044   1.109  0.1551 -0.2123 -1.3303
  456MOL0     H61501   4.184   8.131   1.291 -2.2974  3.0495 -0.6791
  456MOL0     H61502   4.136   7.978   1.242  0.8861 -0.2958  0.7103
  456MOL0     H61503   4.325   8.033   1.101 -1.1081 -2.5080  1.0244
  456MOL0     H61504   4.179   7.999   1.024  1.6523 -0.8422  0.0863
  456MOL0     H61505   4.152   8.252   0.960 -1.4953 -0.9731  1.5041
  456MOL0     H61506   4.275   8.286   1.078  1.3767 -0.4783  1.0115
  456MOL0     H61507   4.335   8.097   0.838 -1.0907 -0.0303 -0.1296
  456MOL0     H61508   4.443   8.177   0.949 -0.8833 -2.5272  1.6968
  456MOL0     H61509   4.283   8.277   0.706  0.2808 -5.1074  0.9723
  456MOL0     H61510   4.362   8.399   0.801 -0.2309  0.6088 -2.2875
  456MOL0     H61511   4.645   8.277   0.887  0.0642  3.0739 -0.0394
  456MOL0     H61512   4.877   8.167   0.760  1.4388  1.6322  0.5044
  456MOL0     H61513   4.891   8.211   0.580 -2.8170  1.5539 -1.3736
  456MOL0     H61514   4.886   8.456   0.694 -1.8730 -0.5373  0.5628
  456MOL0     H61515   4.916   8.368   0.839  1.5990  1.8741 -0.2634
  456MOL0     H61516   5.112   8.467   0.693 -1.6924  0.1097 -0.1218
  456MOL0     H61517   5.107   8.304   0.619 -1.1636 -4.7946  1.1235
  456MOL0     H61518   5.243   8.249   0.802  0.2254 -0.3703  0.9074
  456MOL0     H61519   5.100   8.264   0.906  1.3489  2.4843  4.5688
  456MOL0     H61520   5.336   8.574   0.713 -2.6316  2.4450  3.8233
  456MOL0     H61521   5.584   8.620   0.691  2.2081 -0.6534  1.2161
  456MOL0     H61522   6.007   8.455   0.779  0.5588  1.5104 -1.5412
  456MOL0     H61523   6.263   8.477   0.773  0.0273  0.5836 -0.0402
  456MOL0     H61524   6.464   8.803   1.024  2.6697  0.9144  3.6706
  456MOL0     H61525   6.440   8.669   1.135  0.5375  1.9643  0.3056
  456MOL0     H61526   6.613   8.544   1.019 -2.2050  0.3222 -2.3778
  456MOL0     H61527   6.651   8.688   0.922 -0.0563  2.0555  0.8537
  456MOL0     H61528   6.661   8.827   1.129  2.3742  1.2492  0.7908
  456MOL0     H61529   6.659   8.684   1.233  3.0907  2.3155  2.3781
  456MOL0     H61530   6.874   8.781   1.040 -0.1656  0.2372 -0.3183
  456MOL0     H61531   6.877   8.618   1.108  3.1824  1.4902  0.0228
  456MOL0     H61532   6.869   8.867   1.273  1.2222  1.2535 -0.3131
  456MOL0     H61533   7.021   8.795   1.224  0.4497  0.8209  0.1841
  456MOL0     H61534   6.817   8.632   1.382 -0.9274  1.7013  3.2401
  456MOL0     H61535   6.983   8.601   1.384  0.6800  0.0421  2.0352
  456MOL0     H61536   6.881   8.863   1.473  0.6307 -1.1137 -0.4932
  456MOL0     H61537   7.024   8.786   1.527 -0.1288  0.0743 -1.0907
  456MOL0     H61538   6.895   8.629   1.653  2.0185  0.5743  0.1729
  456MOL0     H61539   6.831   8.790   1.705  2.7679  2.6019 -2.1772
  456MOL0     H61540   6.227   8.752   1.098 -0.3137  1.0250 -0.2770
  456MOL0     H61541   5.992   8.729   1.104  0.0333 -0.7218 -0.6779
  456MOL0     H61542   5.661   8.381   1.037  1.8370  2.0241  0.6220
  456MOL0     H61543   5.402   8.343   1.058 -2.5427 -0.7133 -2.1834
  456MOL0     H61544   3.545   8.220   1.181  2.0294  0.4468  1.7481
  456MOL0     H61545   3.311   8.163   1.140 -1.6498 -2.3493  0.5233
  456MOL0     H61546   3.062   7.934   1.104  0.7421 -1.5851  2.0681
  456MOL0     H61547   2.861   7.873   0.963  2.6511  2.2284  0.3829
  456MOL0     H61548   2.475   7.725   1.170 -0.6884  3.4473 -2.2160
  456MOL0     H61549   2.567   7.575   1.148 -4.5965  0.6069  3.2114
  456MOL0     H61550   2.446   7.744   0.938  2.2765  0.9601  3.0827
  456MOL0     H61551   2.348   7.617   1.001 -0.3756  0.0921  0.4628
  456MOL0     H61552   2.556   7.462   0.961  0.6912  0.7272  1.2282
  456MOL0     H61553   2.601   7.579   0.831  0.0993 -0.3946  0.3419
  456MOL0     H61554   2.481   7.419   0.719 -0.1336  2.3207 -1.5456
  456MOL0     H61555   2.350   7.402   0.837  0.0269  2.7908  0.8670
  456MOL0     H61556   2.221   7.745   0.633 -1.5739  0.0530  0.8080
  456MOL0     H61557   2.660   7.720   1.321 -0.6974  0.7018  1.3170
  456MOL0     H61558   2.825   7.933   1.543  2.3283  0.1782  1.2137
  456MOL0     H61559   2.744   7.776   1.518 -0.6955  0.5851 -1.1749
  456MOL0     H61560   2.910   7.772   1.537 -1.6289 -1.5938 -0.6129
  457MOL0     O61561   0.522   9.232  11.278  0.0967  0.1991 -0.4271
  457MOL0     C61562   0.597   9.137  11.256 -0.7851 -0.3658 -1.0565
  457MOL0     O61563   0.655   9.100  11.141  0.7367  0.0861 -0.4074
  457MOL0     C61564   0.651   9.202  11.042 -0.0452  0.1473 -0.1288
  457MOL0     C61565   0.778   9.260  11.005 -0.1749  0.4122  0.0523
  457MOL0     C61566   0.783   9.326  10.882 -0.2588  0.5808 -0.5920
  457MOL0     C61567   0.665   9.358  10.807  0.4254  0.8872  1.0089
  457MOL0     O61568   0.675   9.433  10.689  0.3491  0.1466  0.4266
  457MOL0     C61569   0.736   9.565  10.695  0.4363  0.2839 -0.6773
  457MOL0     C61570   0.642   9.663  10.728  0.1771 -0.4794 -0.4517
  457MOL0     C61571   0.571   9.660  10.875 -0.4757 -0.6239 -0.2258
  457MOL0     C61572   0.441   9.742  10.891 -0.2766  0.7479  0.3302
  457MOL0     C61573   0.325   9.669  10.944  0.1820  0.7682 -0.4849
  457MOL0     C61574   0.337   9.651  11.100 -0.2930  0.4936  0.0782
  457MOL0     C61575   0.211   9.572  11.144 -0.0674  0.5725 -0.4910
  457MOL0     C61576   0.225   9.419  11.156  0.2710  0.3615 -0.2471
  457MOL0     N61577   0.110   9.357  11.222 -0.3324  0.2094 -0.3152
  457MOL0     C61578   0.011   9.287  11.147 -0.4114 -0.4371  0.1672
  457MOL0     C61579  -0.052   9.211  11.242  0.5170  0.3019  0.1846
  457MOL0     C61580  -0.166   9.114  11.234  1.4854 -0.6148  0.1305
  457MOL0     C61581  -0.292   9.198  11.277 -0.0481  0.7281  0.7142
  457MOL0     C61582  -0.336   9.303  11.176 -1.4722 -0.3940  0.0474
  457MOL0     C61583  -0.471   9.372  11.186  0.2179 -0.4829  0.4475
  457MOL0     O61584  -0.507   9.422  11.317 -0.1397 -0.1309  0.5423
  457MOL0     C61585  -0.629   9.481  11.342 -0.5808 -0.3102 -0.4100
  457MOL0     C61586  -0.655   9.529  11.470 -0.1575 -0.2289 -0.3426
  457MOL0     C61587  -0.775   9.587  11.508  0.4112 -0.1277  0.7504
  457MOL0     C61588  -0.878   9.593  11.419 -0.7302  0.0883  0.7313
  457MOL0     C61589  -1.008   9.652  11.448  0.2807  0.8773  0.5655
  457MOL0     O61590  -1.075   9.699  11.341 -0.3187 -0.1059  0.1877
  457MOL0     C61591  -1.174   9.797  11.341  0.5056 -0.8384  0.3710
  457MOL0     C61592  -1.263   9.796  11.231  0.0338 -0.2656  0.1580
  457MOL0     C61593  -1.357   9.895  11.217 -0.5168  0.2847 -0.0774
  457MOL0     C61594  -1.358  10.006  11.307  0.4110  0.1593 -0.0780
  457MOL0     O61595  -1.456  10.094  11.286  0.2167 -0.5132 -0.4535
  457MOL0     C61596  -1.464  10.227  11.341  1.3907 -0.2554 -0.3616
  457MOL0     C61597  -1.412  10.333  11.246 -0.2306 -1.1927  0.0347
  457MOL0     C61598  -1.386  10.454  11.334  0.7628  0.0465 -0.4543
  457MOL0     C61599  -1.359  10.561  11.230  0.4388  0.7974 -0.2190
  457MOL0     C61600  -1.327  10.691  11.299 -0.1246  0.2115 -0.3230
  457MOL0     C61601  -1.308  10.813  11.209  0.0261  0.5788  0.5629
  457MOL0     C61602  -1.246  10.933  11.272 -0.0147 -0.0570 -0.8527
  457MOL0     C61603  -1.205  11.026  11.163  0.5884 -0.0230 -0.1722
  457MOL0    Cl61604  -1.152  11.175  11.229 -0.1569  0.6501 -0.5030
  457MOL0     C61605  -1.268  10.005  11.410 -0.4102 -0.5466 -0.1040
  457MOL0     C61606  -1.176   9.906  11.428  1.1342  0.0816 -0.3359
  457MOL0     O61607  -1.045   9.656  11.566  0.4137 -0.2499  0.6352
  457MOL0     C61608  -0.851   9.550  11.289  1.1975 -0.3361  0.7004
  457MOL0     C61609  -0.729   9.498  11.249 -0.9151  0.5922 -0.5016
  457MOL0     N61610   0.021   9.224  11.354  0.0644  0.5779 -0.3656
  457MOL0     N61611   0.104   9.318  11.350 -0.1374 -0.1145 -0.0976
  457MOL0     C61612   0.547   9.295  10.847  0.4576  0.6107  0.3628
  457MOL0     C61613   0.538   9.219  10.966 -0.7611  0.8776  0.0375
  457MOL0     C61614   0.605   9.039  11.371  0.6985  0.2694 -0.0120
  457MOL0     C61615   0.647   8.909  11.339 -0.4526  0.9508  0.0152
  457MOL0     C61616   0.674   8.804  11.435  0.1076 -0.2773 -0.0683
  457MOL0     C61617   0.650   8.831  11.567  0.7420 -0.1774 -0.2473
  457MOL0     O61618   0.702   8.739  11.653  0.2897 -0.3724  0.2645
  457MOL0     C61619   0.688   8.757  11.792  0.2775 -0.4373 -0.0502
  457MOL0     C61620   0.694   8.617  11.857 -0.1135  1.0119 -0.2794
  457MOL0     C61621   0.597   8.512  11.800  0.5841  0.6335 -0.0044
  457MOL0     C61622   0.597   8.381  11.880  0.5125 -0.0290 -0.2753
  457MOL0     C61623   0.627   8.389  12.023  0.0670  0.4265 -0.6244
  457MOL0     C61624   0.643   8.378  12.144 -0.6032 -0.5708 -0.1704
  457MOL0     C61625   0.592   8.962  11.601 -0.0000  0.0599  0.4378
  457MOL0     C61626   0.569   9.061  11.506  0.1505  0.4700  0.3375
  457MOL0     C61627   0.485   9.179  11.554  1.1572  0.4464 -0.5365
  457MOL0     H61628   0.876   9.269  11.051 -0.5344  2.4512  0.5281
  457MOL0     H61629   0.881   9.358  10.846  0.5445 -3.8316 -3.0390
  457MOL0     H61630   0.833   9.559  10.745 -0.0702 -1.9492  0.1490
  457MOL0     H61631   0.763   9.585  10.590 -2.1440 -0.5988 -1.5877
  457MOL0     H61632   0.566   9.654  10.650  0.3023  0.9200 -0.7711
  457MOL0     H61633   0.681   9.763  10.707  3.5303 -1.7315 -0.8361
  457MOL0     H61634   0.634   9.706  10.951 -0.2091  0.7341 -1.2238
  457MOL0     H61635   0.562   9.563  10.924  1.2518  1.4325  4.7867
  457MOL0     H61636   0.466   9.829  10.953  2.4940 -0.9255  1.7641
  457MOL0     H61637   0.423   9.779  10.790  0.3301 -0.6927 -0.3208
  457MOL0     H61638   0.243   9.736  10.915 -1.3283 -1.7979 -2.5055
  457MOL0     H61639   0.307   9.573  10.895 -0.9710  1.9560 -2.5206
  457MOL0     H61640   0.425   9.593  11.128 -0.1611  0.9011  0.5188
  457MOL0     H61641   0.343   9.745  11.156 -0.5365 -0.6686  2.1652
  457MOL0     H61642   0.129   9.593  11.076 -0.5025  1.0902  0.1785
  457MOL0     H61643   0.169   9.619  11.234 -2.6128  0.3820 -1.4831
  457MOL0     H61644   0.239   9.391  11.051  3.0544  3.5588 -0.9170
  457MOL0     H61645   0.317   9.413  11.216  1.1181 -0.8356 -1.6070
  457MOL0     H61646  -0.008   9.293  11.040 -1.6055  0.0658  0.3862
  457MOL0     H61647  -0.182   9.071  11.134 -1.8800  1.1095 -0.2252
  457MOL0     H61648  -0.153   9.033  11.306  0.0856 -0.1811  0.9071
  457MOL0     H61649  -0.374   9.129  11.297  1.8394 -1.3618  1.6474
  457MOL0     H61650  -0.266   9.252  11.368  1.5335 -0.4704  1.0206
  457MOL0     H61651  -0.339   9.260  11.075 -1.3362  1.8360 -0.9505
  457MOL0     H61652  -0.260   9.381  11.175  0.3278 -2.0854  0.1659
  457MOL0     H61653  -0.547   9.302  11.151 -2.1026  0.7765  2.6489
  457MOL0     H61654  -0.477   9.460  11.121  2.2748 -0.4595  0.2393
  457MOL0     H61655  -0.580   9.514  11.547 -0.6922 -3.3072 -0.3019
  457MOL0     H61656  -0.782   9.627  11.609  2.1414  3.4735 -0.3790
  457MOL0     H61657  -1.264   9.728  11.147 -1.3588 -0.9227  0.6739
  457MOL0     H61658  -1.428   9.892  11.135 -0.6678  2.1904 -0.0486
  457MOL0     H61659  -1.569  10.252  11.356  0.2931 -3.1922 -2.2358
  457MOL0     H61660  -1.415  10.239  11.438 -0.0383 -0.8364  0.4569
  457MOL0     H61661  -1.328  10.309  11.181 -1.1186 -2.0760 -0.8234
  457MOL0     H61662  -1.493  10.345  11.174 -0.0275 -0.2887 -0.0580
  457MOL0     H61663  -1.474  10.486  11.390  0.0128 -1.6765 -0.6075
  457MOL0     H61664  -1.297  10.423  11.389 -0.3677 -2.9205 -0.1286
  457MOL0     H61665  -1.444  10.579  11.163  0.4117  2.0385  0.1144
  457MOL0     H61666  -1.281  10.531  11.159 -1.7467 -1.5117 -1.8064
  457MOL0     H61667  -1.230  10.678  11.348 -0.9190  1.3394  1.6345
  457MOL0     H61668  -1.413  10.712  11.363  0.0052 -3.0915  1.1450
  457MOL0     H61669  -1.243  10.789  11.124  0.1330 -0.3858  0.9080
  457MOL0     H61670  -1.410  10.837  11.177 -0.5551 -0.5864  1.4966
  457MOL0     H61671  -1.169  10.899  11.341 -0.3360  0.2585 -0.3348
  457MOL0     H61672  -1.321  10.979  11.337  1.1430 -0.5486  0.8822
  457MOL0     H61673  -1.133  10.976  11.097 -0.7185 -1.5203 -0.5462
  457MOL0     H61674  -1.300  11.029  11.109 -0.0756 -2.5787  0.7346
  457MOL0     H61675  -1.256  10.081  11.487  0.1927 -3.0144  2.3930
  457MOL0     H61676  -1.098   9.925  11.500  2.1970  2.7044 -2.0147
  457MOL0     H61677  -0.919   9.574  11.208 -0.0150  1.9300  2.2602
  457MOL0     H61678  -0.717   9.474  11.144 -2.0812  0.5230 -0.6271
  457MOL0     H61679   0.461   9.304  10.782 -0.9233 -0.9830  1.8925
  457MOL0     H61680   0.449   9.165  10.996 -1.8462  1.2893 -2.2484
  457MOL0     H61681   0.683   8.890  11.238  3.4439  0.8197  1.2479
  457MOL0     H61682   0.718   8.713  11.396 -0.5625 -0.3035 -0.7850
  457MOL0     H61683   0.600   8.803  11.837 -0.0633 -1.2002  0.0754
  457MOL0     H61684   0.766   8.831  11.812 -2.9785  2.9985  1.0940
  457MOL0     H61685   0.698   8.631  11.966  2.7876  1.7658 -0.4005
  457MOL0     H61686   0.799   8.587  11.850 -0.4052  0.2556 -1.6190
  457MOL0     H61687   0.597   8.500  11.691  0.7474 -2.5836  0.2617
  457MOL0     H61688   0.498   8.558  11.810  0.0941 -0.8763  3.5810
  457MOL0     H61689   0.494   8.345  11.883  0.9814 -1.4621  2.4578
  457MOL0     H61690   0.656   8.301  11.833  0.5387 -1.3843  1.9049
  457MOL0     H61691   0.638   8.352  12.248  0.4181 -1.5060 -0.3303
  457MOL0     H61692   0.562   8.975  11.705 -2.8770  1.0875 -0.4177
  457MOL0     H61693   0.462   9.165  11.660 -2.0273 -1.5777 -1.3392
  457MOL0     H61694   0.544   9.267  11.532  2.2435  0.2291  1.2610
  457MOL0     H61695   0.389   9.178  11.501 -0.1189 -3.9760  1.3287
  458MOL0     O61696   4.337   2.347   8.226 -0.8753  0.1040 -0.4804
  458MOL0     C61697   4.341   2.297   8.337  0.7918 -0.8369  0.1135
  458MOL0     O61698   4.237   2.250   8.408 -0.1463  0.8598  0.3982
  458MOL0     C61699   4.116   2.228   8.346 -0.6970 -0.0858  0.1913
  458MOL0     C61700   3.998   2.258   8.416  0.2751 -0.1133  0.2333
  458MOL0     C61701   3.874   2.242   8.360  0.5425 -0.1961 -0.1341
  458MOL0     C61702   3.847   2.185   8.234 -0.1934  0.4563  0.0245
  458MOL0     O61703   3.726   2.176   8.167  0.0904 -0.2278 -0.7148
  458MOL0     C61704   3.615   2.135   8.243  0.5611 -0.0288 -0.5801
  458MOL0     C61705   3.482   2.126   8.148 -0.0214  0.3911  0.3435
  458MOL0     C61706   3.447   2.238   8.050  0.2642  0.0852  0.2259
  458MOL0     C61707   3.294   2.233   8.023 -0.3557  1.0416  0.1427
  458MOL0     C61708   3.253   2.355   7.942  0.2447 -0.5679  0.2352
  458MOL0     C61709   3.336   2.391   7.819 -0.0764 -0.1086  0.8546
  458MOL0     C61710   3.264   2.522   7.767  0.0377  0.3026  0.0461
  458MOL0     C61711   3.151   2.501   7.669  0.5759  1.1695  0.9465
  458MOL0     N61712   3.206   2.503   7.528 -1.3888  0.9985 -0.1871
  458MOL0     C61713   3.208   2.620   7.468  0.5078 -0.5430 -0.2240
  458MOL0     C61714   3.270   2.607   7.349 -0.6983  0.4001 -1.0869
  458MOL0     C61715   3.281   2.706   7.232  0.4589 -0.0805  0.5695
  458MOL0     C61716   3.415   2.787   7.242  0.0186  0.1593 -0.7268
  458MOL0     C61717   3.422   2.896   7.137  0.9874  0.4532  0.1634
  458MOL0     C61718   3.556   2.961   7.129 -0.0420  0.9770  0.2389
  458MOL0     O61719   3.597   3.026   7.253 -0.7847 -0.3720 -0.1214
  458MOL0     C61720   3.709   3.103   7.258 -0.9496 -0.1531  0.1017
  458MOL0     C61721   3.809   3.125   7.166 -0.2845  0.6670 -0.6515
  458MOL0     C61722   3.936   3.175   7.190  0.0782 -0.3485 -1.0688
  458MOL0     C61723   3.951   3.240   7.310 -0.0602  0.3884  0.3742
  458MOL0     C61724   4.069   3.331   7.330 -0.5262 -0.1213  0.1232
  458MOL0     O61725   4.096   3.382   7.461 -0.5221  0.2107  0.3405
  458MOL0     C61726   4.213   3.465   7.470  0.5618 -0.4516 -1.0034
  458MOL0     C61727   4.348   3.411   7.450  0.6850 -0.2855  0.7119
  458MOL0     C61728   4.456   3.505   7.455  0.1027  0.4364 -0.3739
  458MOL0     C61729   4.433   3.641   7.467 -0.6868  0.4923 -0.1235
  458MOL0     O61730   4.543   3.726   7.451  0.7340 -0.0809 -0.1734
  458MOL0     C61731   4.528   3.870   7.410  0.2296  0.2411  0.3702
  458MOL0     C61732   4.652   3.912   7.333  0.4183  0.7285 -0.0409
  458MOL0     C61733   4.675   3.881   7.180 -0.8314 -0.0778 -0.5424
  458MOL0     C61734   4.702   3.729   7.156 -0.7878 -0.0579 -0.4953
  458MOL0     C61735   4.575   3.660   7.115 -0.4681  0.2630 -0.4969
  458MOL0     C61736   4.591   3.518   7.067 -0.5560  0.6243  0.1108
  458MOL0     C61737   4.464   3.447   7.017 -0.8204 -0.1130 -0.7266
  458MOL0     C61738   4.475   3.295   7.012 -0.6446 -0.1714 -1.1903
  458MOL0    Cl61739   4.353   3.214   6.908  0.1952  0.3525  0.0837
  458MOL0     C61740   4.304   3.687   7.490  0.1468 -0.6751 -0.4537
  458MOL0     C61741   4.195   3.603   7.492  0.0991  0.5053 -0.4367
  458MOL0     O61742   4.131   3.355   7.227  1.0011  0.0440 -0.7783
  458MOL0     C61743   3.851   3.235   7.412 -0.4274 -0.0907  0.0054
  458MOL0     C61744   3.733   3.169   7.383  0.7036 -1.0908  0.6577
  458MOL0     N61745   3.316   2.478   7.343  0.3944  0.8119  0.4728
  458MOL0     N61746   3.278   2.420   7.454  0.3525 -0.2076  0.4160
  458MOL0     C61747   3.973   2.159   8.161  0.7140 -0.6761 -0.2456
  458MOL0     C61748   4.095   2.175   8.216 -0.4049 -1.2142  0.0206
  458MOL0     C61749   4.457   2.319   8.419 -0.8980  0.0428 -0.8936
  458MOL0     C61750   4.457   2.387   8.544 -0.1256  0.7601  0.2628
  458MOL0     C61751   4.575   2.411   8.617  0.4814 -0.5031  0.7500
  458MOL0     C61752   4.694   2.375   8.564 -0.1102 -0.1119  0.7262
  458MOL0     O61753   4.797   2.383   8.655 -0.0426  0.3234 -0.3908
  458MOL0     C61754   4.923   2.333   8.621  0.1800 -0.4925 -0.1287
  458MOL0     C61755   5.046   2.348   8.723 -0.3366  0.3461  0.7890
  458MOL0     C61756   5.009   2.303   8.873  0.7545  0.2710  0.8881
  458MOL0     C61757   5.112   2.251   8.974 -0.0188 -0.2661  0.6799
  458MOL0     C61758   5.068   2.119   9.026  0.4322 -0.3502  1.2718
  458MOL0     C61759   5.046   2.008   9.057  0.1794 -0.8279 -1.2203
  458MOL0     C61760   4.701   2.318   8.438 -0.9827 -0.1924  0.1968
  458MOL0     C61761   4.588   2.290   8.362 -0.4058 -0.6524  0.3693
  458MOL0     C61762   4.610   2.229   8.217  0.2781 -0.2518 -0.9243
  458MOL0     H61763   4.004   2.301   8.515 -2.9020  2.9911 -0.6956
  458MOL0     H61764   3.798   2.282   8.427 -0.3727 -0.6157 -0.8992
  458MOL0     H61765   3.635   2.035   8.285  0.0388  0.4804  0.9626
  458MOL0     H61766   3.590   2.201   8.327 -0.1145 -0.1614 -0.6734
  458MOL0     H61767   3.409   2.117   8.229 -0.1786 -3.5124 -0.0642
  458MOL0     H61768   3.492   2.031   8.096 -2.1622 -0.3087  1.0975
  458MOL0     H61769   3.505   2.240   7.957  0.1399  1.1980  0.1534
  458MOL0     H61770   3.470   2.332   8.101  2.3971  1.2820 -2.6687
  458MOL0     H61771   3.285   2.135   7.976  2.4070 -0.0536  1.6782
  458MOL0     H61772   3.234   2.231   8.114  1.0028  0.5499  1.0536
  458MOL0     H61773   3.157   2.325   7.899  1.1125 -2.3980 -0.5181
  458MOL0     H61774   3.258   2.443   8.008  0.1755  0.3351 -0.9382
  458MOL0     H61775   3.439   2.409   7.851  1.3150 -3.0857 -1.4479
  458MOL0     H61776   3.348   2.314   7.743 -0.9756 -2.3718  2.8621
  458MOL0     H61777   3.335   2.593   7.724  3.0464  0.4114  4.4922
  458MOL0     H61778   3.226   2.576   7.854  3.8347  0.6640  1.6579
  458MOL0     H61779   3.109   2.402   7.692  0.4091  1.2171  0.8461
  458MOL0     H61780   3.079   2.582   7.676 -0.9662 -0.1674  1.2402
  458MOL0     H61781   3.149   2.704   7.503  2.1747  0.1354  1.0999
  458MOL0     H61782   3.263   2.664   7.133  3.7040  0.1967 -0.2623
  458MOL0     H61783   3.195   2.762   7.269  0.8630  0.8552  0.1462
  458MOL0     H61784   3.412   2.832   7.341  2.1464  1.9815 -1.4091
  458MOL0     H61785   3.509   2.732   7.236  0.0959  0.3996 -2.2317
  458MOL0     H61786   3.340   2.966   7.151  0.8305  0.7822 -2.0483
  458MOL0     H61787   3.409   2.851   7.038 -2.4135  1.0584  0.2196
  458MOL0     H61788   3.560   3.029   7.044  0.9285 -1.4745 -1.7966
  458MOL0     H61789   3.632   2.885   7.108 -1.6540 -1.0379  1.2538
  458MOL0     H61790   3.808   3.085   7.066  0.9527 -1.1509  0.0103
  458MOL0     H61791   4.005   3.167   7.106 -0.9988 -2.9586 -1.8092
  458MOL0     H61792   4.365   3.308   7.419  0.2056 -0.2731  0.4126
  458MOL0     H61793   4.555   3.463   7.444 -0.5423 -1.2497 -0.1703
  458MOL0     H61794   4.439   3.890   7.348  1.5034  2.0587 -0.9927
  458MOL0     H61795   4.513   3.934   7.497 -1.7086 -0.5636  0.6782
  458MOL0     H61796   4.663   4.019   7.351 -0.0106  0.4766  1.8642
  458MOL0     H61797   4.740   3.865   7.378  4.2215  2.4853 -4.7970
  458MOL0     H61798   4.583   3.906   7.126 -2.2526 -4.1255 -0.3570
  458MOL0     H61799   4.764   3.933   7.145 -0.7877 -0.6956 -1.3697
  458MOL0     H61800   4.758   3.687   7.241 -2.5861 -0.8600  0.3326
  458MOL0     H61801   4.770   3.720   7.071  2.2052  0.5741  1.6581
  458MOL0     H61802   4.551   3.718   7.025  2.9736  1.7215 -0.5983
  458MOL0     H61803   4.492   3.661   7.187 -0.9803 -1.1759 -1.0272
  458MOL0     H61804   4.663   3.501   6.988 -3.2286 -3.4977 -1.7981
  458MOL0     H61805   4.628   3.465   7.156 -1.6759 -2.9092 -1.3660
  458MOL0     H61806   4.452   3.495   6.920  4.4811 -0.1971 -1.6898
  458MOL0     H61807   4.375   3.469   7.078 -0.4940  1.8997 -0.8853
  458MOL0     H61808   4.570   3.256   6.976 -0.3879  1.4497 -2.4099
  458MOL0     H61809   4.455   3.259   7.113 -1.0494  1.6030 -0.5967
  458MOL0     H61810   4.294   3.794   7.505 -0.0905 -0.5065 -1.6658
  458MOL0     H61811   4.102   3.653   7.513 -0.3911 -0.7106  0.3647
  458MOL0     H61812   3.862   3.288   7.506 -0.6737 -1.1963  0.6695
  458MOL0     H61813   3.651   3.174   7.454  0.4598 -0.4993  0.3431
  458MOL0     H61814   3.972   2.122   8.059  0.1443  0.5905 -0.7245
  458MOL0     H61815   4.174   2.156   8.144  0.1628 -0.6141  0.4807
  458MOL0     H61816   4.365   2.407   8.599  1.0897 -0.1832  2.8083
  458MOL0     H61817   4.587   2.455   8.716 -0.7629 -1.5033  1.3671
  458MOL0     H61818   4.964   2.376   8.529  1.4383  3.2370  1.9463
  458MOL0     H61819   4.908   2.226   8.606 -1.4462 -0.3093 -0.0124
  458MOL0     H61820   5.084   2.450   8.724  1.0987 -0.1431 -0.0100
  458MOL0     H61821   5.133   2.296   8.681  0.0480  2.6574 -1.5029
  458MOL0     H61822   4.942   2.220   8.850  0.3549  1.1229 -1.2908
  458MOL0     H61823   4.950   2.383   8.920 -0.8960 -0.2015 -0.2765
  458MOL0     H61824   5.208   2.244   8.921 -1.4195 -0.9487 -1.9189
  458MOL0     H61825   5.108   2.322   9.058  1.8495  0.0158  0.5818
  458MOL0     H61826   5.028   1.907   9.087 -0.6551 -2.1411 -5.5036
  458MOL0     H61827   4.797   2.277   8.410 -1.5957 -1.7416  0.2501
  458MOL0     H61828   4.678   2.144   8.234 -0.5851 -0.3435  2.8816
  458MOL0     H61829   4.522   2.178   8.177 -2.4684  3.1509  0.2964
  458MOL0     H61830   4.656   2.302   8.151  2.8931 -1.7748 -0.9248
  459MOL0     O61831   9.940  10.890   4.548 -0.1489 -0.0751 -0.1676
  459MOL0     C61832   9.928  10.986   4.626  0.6385 -0.3263  0.2470
  459MOL0     O61833   9.811  11.058   4.643 -0.6115 -0.5431  0.1793
  459MOL0     C61834   9.706  11.047   4.555  0.4348 -0.0807 -0.2204
  459MOL0     C61835   9.645  11.172   4.511 -1.0833  0.2814 -0.1227
  459MOL0     C61836   9.537  11.164   4.424 -0.4236 -0.1112 -0.1401
  459MOL0     C61837   9.495  11.046   4.363  1.3176  0.4412 -0.0107
  459MOL0     O61838   9.396  11.046   4.264 -0.5952 -0.4453  0.1970
  459MOL0     C61839   9.407  10.961   4.149 -0.6540 -0.1767  0.2499
  459MOL0     C61840   9.287  10.970   4.063  0.3804  0.3583 -0.5500
  459MOL0     C61841   9.251  11.106   4.011 -0.2643 -0.5546  0.0137
  459MOL0     C61842   9.327  11.130   3.880  0.3070  1.0773 -0.4901
  459MOL0     C61843   9.299  11.285   3.843  0.0308 -0.9103 -0.8977
  459MOL0     C61844   9.375  11.320   3.714  0.5535 -0.1896 -0.8726
  459MOL0     C61845   9.337  11.466   3.673 -0.4262  0.7564 -0.5130
  459MOL0     C61846   9.404  11.506   3.543  0.5681  0.4057  0.2145
  459MOL0     N61847   9.353  11.629   3.488  0.6004 -1.3461  0.1164
  459MOL0     C61848   9.236  11.636   3.411 -0.0148 -0.2744  0.0923
  459MOL0     C61849   9.231  11.769   3.363 -0.8604 -0.2275 -0.0264
  459MOL0     C61850   9.117  11.814   3.271  0.0894 -0.5291  0.5009
  459MOL0     C61851   9.094  11.726   3.142  0.3409  0.5525 -0.3026
  459MOL0     C61852   9.220  11.725   3.053  0.2748  1.0221 -0.0719
  459MOL0     C61853   9.205  11.670   2.921  0.8143  0.3255 -0.1396
  459MOL0     O61854   9.126  11.774   2.854  0.0159  0.3801  0.1667
  459MOL0     C61855   9.118  11.784   2.711  0.2221 -0.1142 -0.2758
  459MOL0     C61856   9.160  11.687   2.629 -0.4600 -0.4231  0.2229
  459MOL0     C61857   9.149  11.706   2.489 -0.5728  1.3988  0.3095
  459MOL0     C61858   9.087  11.818   2.440 -0.2791 -0.4194  0.9383
  459MOL0     C61859   9.100  11.856   2.298  1.2799 -0.3148  0.7476
  459MOL0     O61860   9.033  11.969   2.254  0.0400  0.1682 -0.2829
  459MOL0     C61861   9.047  12.003   2.122 -0.0546 -1.0252  0.8322
  459MOL0     C61862   9.009  11.924   2.015  0.8181  0.1760  0.4258
  459MOL0     C61863   9.033  11.964   1.876  1.8007  0.9923  0.0826
  459MOL0     C61864   9.100  12.074   1.839  0.1668  0.1152 -0.2917
  459MOL0     O61865   9.137  12.117   1.716  0.0682 -0.7391 -0.5944
  459MOL0     C61866   9.062  12.050   1.612 -0.4517 -1.2856 -0.1692
  459MOL0     C61867   9.077  12.129   1.477  0.2465  0.4480 -0.4786
  459MOL0     C61868   9.002  12.265   1.479 -0.0642  0.0952  0.5499
  459MOL0     C61869   9.083  12.381   1.524 -0.2048  0.0341 -0.1142
  459MOL0     C61870   8.998  12.505   1.526  0.4071 -0.1059  0.6907
  459MOL0     C61871   9.077  12.622   1.579  0.7192 -0.9722 -0.7928
  459MOL0     C61872   9.009  12.750   1.546 -0.1009  0.4007  1.1320
  459MOL0     C61873   8.881  12.760   1.628  0.6210  0.2504 -0.0094
  459MOL0    Cl61874   8.809  12.921   1.589  0.0245 -0.0684 -0.1706
  459MOL0     C61875   9.142  12.156   1.944  0.3652 -0.6113  0.9423
  459MOL0     C61876   9.115  12.124   2.086 -0.1771  0.0344  0.1556
  459MOL0     O61877   9.149  11.774   2.229 -0.7669 -0.4809 -0.1218
  459MOL0     C61878   9.024  11.905   2.528  0.3953  0.8888 -0.0701
  459MOL0     C61879   9.050  11.899   2.667 -0.4904 -0.0256  0.4661
  459MOL0     N61880   9.337  11.839   3.417  0.8194 -0.2944 -0.3717
  459MOL0     N61881   9.405  11.757   3.499 -0.2216 -0.3442 -0.0392
  459MOL0     C61882   9.547  10.921   4.416  0.4866 -0.4234  0.2784
  459MOL0     C61883   9.642  10.926   4.519 -0.1216  0.1049  0.3581
  459MOL0     C61884  10.055  11.033   4.689 -0.3996 -0.4215 -0.1299
  459MOL0     C61885  10.045  11.168   4.736 -0.8585  0.0815  0.6167
  459MOL0     C61886  10.145  11.232   4.785 -0.0974 -0.4571  0.4973
  459MOL0     C61887  10.267  11.172   4.794 -0.6585  0.7717  0.8986
  459MOL0     O61888  10.355  11.250   4.854  0.0789 -0.8168  0.6912
  459MOL0     C61889  10.446  11.192   4.952  0.2805 -0.0876  0.0842
  459MOL0     C61890  10.527  11.305   5.011  0.0618 -0.0340 -0.6020
  459MOL0     C61891  10.615  11.373   4.907  0.2948 -0.0057  0.4743
  459MOL0     C61892  10.661  11.514   4.947 -1.3491  0.7398 -0.3492
  459MOL0     C61893  10.748  11.586   4.859 -0.4648  0.4223 -0.1878
  459MOL0     C61894  10.829  11.617   4.777 -0.9375  0.5778 -0.3508
  459MOL0     C61895  10.289  11.041   4.743 -0.0547 -1.0097 -0.6680
  459MOL0     C61896  10.178  10.972   4.693 -0.8531  0.1882 -0.3184
  459MOL0     C61897  10.205  10.831   4.642  0.3950 -0.3025  0.6181
  459MOL0     H61898   9.676  11.270   4.545 -2.9906  0.3247  1.7333
  459MOL0     H61899   9.492  11.255   4.388  1.7299  1.3239  0.6016
  459MOL0     H61900   9.491  11.002   4.091 -2.1431  0.6690 -1.3971
  459MOL0     H61901   9.431  10.858   4.176 -0.8841 -0.5925 -1.1017
  459MOL0     H61902   9.198  10.937   4.118 -0.2142 -0.5767 -1.9826
  459MOL0     H61903   9.296  10.906   3.974  3.8941 -0.9053  0.5444
  459MOL0     H61904   9.270  11.188   4.081  0.9572  1.8149 -2.8690
  459MOL0     H61905   9.143  11.105   3.994 -0.3438 -2.0670  0.4620
  459MOL0     H61906   9.434  11.108   3.879 -0.1646 -1.6303  0.2875
  459MOL0     H61907   9.283  11.068   3.802  0.6108  1.9513 -1.3704
  459MOL0     H61908   9.191  11.295   3.827  0.2414 -0.7879 -2.4020
  459MOL0     H61909   9.340  11.339   3.929 -0.9381  1.2382 -1.7092
  459MOL0     H61910   9.484  11.325   3.728  1.0741  0.0866 -4.2042
  459MOL0     H61911   9.353  11.245   3.638 -0.6835  0.0139 -0.7272
  459MOL0     H61912   9.370  11.522   3.761  1.5615  0.8149 -1.2408
  459MOL0     H61913   9.228  11.475   3.661 -0.9049 -0.6588  2.0592
  459MOL0     H61914   9.508  11.532   3.566  1.2433 -3.0035  1.5791
  459MOL0     H61915   9.392  11.427   3.469 -4.0280  0.6553  0.4357
  459MOL0     H61916   9.163  11.557   3.397 -0.4559 -0.0005  0.7672
  459MOL0     H61917   9.023  11.806   3.325 -0.7211  0.7126 -0.6589
  459MOL0     H61918   9.130  11.916   3.234 -0.1942 -1.0041 -0.9784
  459MOL0     H61919   9.082  11.623   3.176  0.6634  0.6207  0.0166
  459MOL0     H61920   9.001  11.766   3.101 -0.3916  0.4741  1.2145
  459MOL0     H61921   9.293  11.658   3.099 -1.8080 -0.4191  1.3394
  459MOL0     H61922   9.271  11.821   3.041 -0.3886  1.2305 -1.4141
  459MOL0     H61923   9.150  11.576   2.932  2.8995 -1.0016 -0.4247
  459MOL0     H61924   9.300  11.642   2.874 -0.1140  0.3106 -2.1014
  459MOL0     H61925   9.207  11.598   2.669  1.9453  1.4316  1.8879
  459MOL0     H61926   9.192  11.631   2.424  0.9190  1.3124  1.3389
  459MOL0     H61927   8.940  11.841   2.028 -3.8118  3.4838 -0.5259
  459MOL0     H61928   9.000  11.895   1.799  0.8903 -2.7495  3.4977
  459MOL0     H61929   9.111  11.953   1.594  0.9360 -0.4632 -1.0804
  459MOL0     H61930   8.955  12.043   1.631 -0.3792 -0.7510  0.4689
  459MOL0     H61931   9.181  12.135   1.443  0.4701 -3.3202 -0.9248
  459MOL0     H61932   9.030  12.061   1.405  2.8518 -0.1769 -1.7313
  459MOL0     H61933   8.962  12.279   1.378  0.2853  4.6582  0.8215
  459MOL0     H61934   8.908  12.255   1.535 -0.4111  0.0062 -0.0385
  459MOL0     H61935   9.171  12.396   1.461  1.0529  2.3584  2.0156
  459MOL0     H61936   9.129  12.370   1.623  1.2850 -2.5088 -0.9821
  459MOL0     H61937   8.912  12.483   1.590  1.2428 -2.9991  0.9667
  459MOL0     H61938   8.966  12.522   1.423  1.5414  2.1820  0.6497
  459MOL0     H61939   9.086  12.610   1.687  1.3929  0.2450 -0.7023
  459MOL0     H61940   9.182  12.628   1.548  0.2456 -1.5855 -2.7136
  459MOL0     H61941   8.995  12.766   1.438  0.6508 -2.5344  0.5104
  459MOL0     H61942   9.068  12.839   1.571 -0.0498  0.1084  2.0514
  459MOL0     H61943   8.813  12.684   1.587  0.5317 -0.8976  2.1239
  459MOL0     H61944   8.904  12.749   1.734  0.5828 -1.6546 -0.1599
  459MOL0     H61945   9.219  12.232   1.936  0.6781 -1.1303 -2.5612
  459MOL0     H61946   9.158  12.175   2.171 -0.0906 -0.0296  0.1517
  459MOL0     H61947   8.957  11.978   2.484 -0.6099  0.8351  1.3196
  459MOL0     H61948   9.013  11.970   2.740  0.8585 -0.8881  2.0619
  459MOL0     H61949   9.521  10.823   4.378 -0.7940 -0.1333  0.3484
  459MOL0     H61950   9.692  10.834   4.549 -0.5141  0.7547  3.2522
  459MOL0     H61951   9.960  11.233   4.718 -0.5333  0.0912 -1.0509
  459MOL0     H61952  10.125  11.331   4.825 -0.9742 -1.2918  2.2207
  459MOL0     H61953  10.508  11.112   4.911 -3.2373 -3.3046  0.4365
  459MOL0     H61954  10.383  11.156   5.035 -0.1618  0.2693 -0.0884
  459MOL0     H61955  10.590  11.268   5.093 -3.1308  0.3814  2.2300
  459MOL0     H61956  10.470  11.386   5.056 -1.5937 -1.2747 -0.3882
  459MOL0     H61957  10.547  11.394   4.823 -2.6621  1.0384  2.9229
  459MOL0     H61958  10.696  11.304   4.882 -1.0454 -0.4401 -3.3354
  459MOL0     H61959  10.576  11.583   4.951 -0.6026  1.6313  1.6440
  459MOL0     H61960  10.705  11.512   5.047 -0.7401  0.4904 -0.6169
  459MOL0     H61961  10.899  11.637   4.698 -0.6735 -3.8704 -1.5025
  459MOL0     H61962  10.390  11.002   4.756  0.2928 -0.5426 -1.8340
  459MOL0     H61963  10.309  10.799   4.659  1.1883  1.4709 -0.5402
  459MOL0     H61964  10.142  10.765   4.702 -0.9513  0.7359  0.3834
  459MOL0     H61965  10.207  10.811   4.534  1.7034  0.7228  0.4111
  460MOL0     O61966   4.915   8.923  10.759 -0.1453 -0.7422 -0.0396
  460MOL0     C61967   4.857   8.823  10.820 -0.2318 -0.0455  0.1308
  460MOL0     O61968   4.920   8.710  10.855  0.0453 -0.1192  0.5639
  460MOL0     C61969   5.044   8.690  10.798 -0.3367 -0.2226  0.5168
  460MOL0     C61970   5.061   8.643  10.674  0.8744  0.6883  0.8179
  460MOL0     C61971   5.183   8.606  10.626 -0.5170 -0.0445  0.1863
  460MOL0     C61972   5.295   8.629  10.697  0.2558  0.1392 -0.3120
  460MOL0     O61973   5.422   8.601  10.655  0.1173  0.5051  0.3285
  460MOL0     C61974   5.448   8.554  10.526 -0.1720  0.6781 -0.4934
  460MOL0     C61975   5.605   8.521  10.518 -0.1595  0.4924 -1.6048
  460MOL0     C61976   5.636   8.454  10.382 -0.3760  0.0591  1.5907
  460MOL0     C61977   5.678   8.308  10.387 -0.0027 -1.0025  0.1825
  460MOL0     C61978   5.702   8.240  10.254  0.2345 -1.6934  0.0738
  460MOL0     C61979   5.682   8.085  10.242  0.2040  0.1003  0.2759
  460MOL0     C61980   5.774   8.009  10.337  0.7783 -0.5821  0.9815
  460MOL0     C61981   5.751   7.855  10.328  0.6010 -0.1552  0.2339
  460MOL0     N61982   5.846   7.775  10.403 -0.3904 -1.0256 -0.4353
  460MOL0     C61983   5.894   7.648  10.370  0.7745 -0.9351 -0.2913
  460MOL0     C61984   5.982   7.618  10.463 -0.6277  0.2031  0.1314
  460MOL0     C61985   6.059   7.488  10.476  0.1731  0.9095  0.1498
  460MOL0     C61986   6.120   7.448  10.336  0.5427 -0.0153 -0.7932
  460MOL0     C61987   6.225   7.551  10.302 -0.5495 -0.2839 -0.1784
  460MOL0     C61988   6.288   7.513  10.170 -0.0621 -0.4089  0.1285
  460MOL0     O61989   6.207   7.543  10.053 -0.6182 -0.2154  0.1085
  460MOL0     C61990   6.170   7.675  10.026  0.3097 -0.0550 -0.5255
  460MOL0     C61991   6.268   7.776  10.040  0.6670  0.3555  0.1680
  460MOL0     C61992   6.225   7.914  10.037 -0.8094 -0.5655 -0.9090
  460MOL0     C61993   6.095   7.956  10.009  0.7576 -0.2044  0.9440
  460MOL0     C61994   6.060   8.098  10.011  0.0680  0.1327  1.4846
  460MOL0     O61995   6.119   8.160  10.118 -0.4203  0.4695 -0.1482
  460MOL0     C61996   6.085   8.282  10.168  1.3305 -0.5103  0.1625
  460MOL0     C61997   6.000   8.381  10.101  0.5804 -0.5827  0.3140
  460MOL0     C61998   5.972   8.507  10.153  0.9472 -0.6201 -0.0153
  460MOL0     C61999   6.037   8.550  10.268  0.3331  0.7749 -0.1488
  460MOL0     O62000   6.021   8.675  10.310 -0.4001 -0.9925  1.0865
  460MOL0     C62001   6.106   8.728  10.415  0.4476 -0.7926 -0.0434
  460MOL0     C62002   6.060   8.876  10.453  0.8180  1.0772  0.0088
  460MOL0     C62003   5.971   8.901  10.585  0.2372  0.2859 -0.1411
  460MOL0     C62004   6.059   8.856  10.704 -0.2864 -0.7071 -0.0174
  460MOL0     C62005   6.175   8.951  10.746  0.0185  0.1122  0.0099
  460MOL0     C62006   6.240   8.893  10.876  0.5026  0.0563 -0.5384
  460MOL0     C62007   6.166   8.923  11.007 -0.7683 -0.5965 -0.4760
  460MOL0     C62008   6.185   9.069  11.050 -0.5329  0.3494 -0.2462
  460MOL0    Cl62009   6.069   9.195  10.974 -0.5639  0.3484 -0.5235
  460MOL0     C62010   6.134   8.463  10.322  0.3151 -0.0533 -1.0889
  460MOL0     C62011   6.150   8.333  10.281 -0.6771 -1.4199 -0.1417
  460MOL0     O62012   5.981   8.146   9.929 -0.0540 -0.0493 -0.3106
  460MOL0     C62013   6.003   7.851   9.985 -0.1852 -0.4031 -0.1811
  460MOL0     C62014   6.033   7.712   9.999 -0.4325  0.3653  0.6029
  460MOL0     N62015   5.989   7.714  10.563 -0.5994  0.5816 -0.0641
  460MOL0     N62016   5.913   7.811  10.522 -0.6224  0.2187 -0.2486
  460MOL0     C62017   5.275   8.665  10.831  0.0089 -0.2334 -0.3336
  460MOL0     C62018   5.151   8.697  10.882 -0.7947  0.3138 -0.3482
  460MOL0     C62019   4.735   8.841  10.887  0.8771 -0.1457 -0.0583
  460MOL0     C62020   4.735   8.825  11.022 -0.1766 -0.9743  0.9416
  460MOL0     C62021   4.629   8.876  11.096  0.3852 -0.9254 -0.1223
  460MOL0     C62022   4.511   8.921  11.037  0.3842  0.2818 -0.5546
  460MOL0     O62023   4.415   8.975  11.117  0.1641  0.2408 -0.0052
  460MOL0     C62024   4.397   8.925  11.250 -0.2257 -0.4398  0.0287
  460MOL0     C62025   4.457   9.012  11.367  0.8849  0.3363  0.6197
  460MOL0     C62026   4.430   8.958  11.507 -0.7206 -0.5713  0.5117
  460MOL0     C62027   4.386   9.071  11.598  0.1595 -0.8952  0.0159
  460MOL0     C62028   4.411   9.050  11.741  0.3876 -0.8436 -1.4185
  460MOL0     C62029   4.422   9.039  11.862 -0.4757  0.4876 -0.1485
  460MOL0     C62030   4.511   8.929  10.892  0.0441  1.5049  0.1295
  460MOL0     C62031   4.623   8.887  10.816 -0.2377 -0.4000  0.5955
  460MOL0     C62032   4.620   8.908  10.658  0.9763 -0.3524 -1.1202
  460MOL0     H62033   4.968   8.649  10.619 -1.8684 -0.0434  4.9840
  460MOL0     H62034   5.196   8.547  10.536  4.5281  2.0115 -0.7685
  460MOL0     H62035   5.391   8.462  10.509  1.0097 -0.3637  0.9035
  460MOL0     H62036   5.422   8.627  10.449 -0.4385 -0.0904 -1.1519
  460MOL0     H62037   5.616   8.447  10.597  0.4302  1.3688 -0.8537
  460MOL0     H62038   5.673   8.602  10.547  0.3423 -0.7153  0.8193
  460MOL0     H62039   5.718   8.502  10.328 -0.8805 -1.1459 -0.3174
  460MOL0     H62040   5.551   8.460  10.315  1.3593 -2.1634 -1.0257
  460MOL0     H62041   5.762   8.289  10.454  0.0369 -2.2221 -0.1917
  460MOL0     H62042   5.592   8.259  10.433 -1.2691  1.0593  0.1756
  460MOL0     H62043   5.639   8.288  10.179  0.7666 -4.6736 -2.5195
  460MOL0     H62044   5.806   8.269  10.233  0.2010 -2.5559 -1.4460
  460MOL0     H62045   5.584   8.037  10.252  0.2233 -0.3034 -1.3221
  460MOL0     H62046   5.720   8.066  10.142  1.0675  1.9524  0.2119
  460MOL0     H62047   5.740   8.029  10.439  0.5895 -1.5822  1.1329
  460MOL0     H62048   5.877   8.034  10.310  0.3312  0.0571 -0.1856
  460MOL0     H62049   5.652   7.813  10.347  0.3081 -1.9123 -4.1950
  460MOL0     H62050   5.776   7.840  10.223  0.9306 -1.9515  0.5383
  460MOL0     H62051   5.874   7.593  10.278  0.7759  1.9108 -2.1510
  460MOL0     H62052   6.141   7.487  10.548 -1.6020  2.9883  2.3303
  460MOL0     H62053   5.990   7.414  10.517 -3.0413  2.3431 -2.2378
  460MOL0     H62054   6.157   7.345  10.338 -2.0457 -1.0810 -1.9222
  460MOL0     H62055   6.039   7.441  10.262 -1.4086 -4.0524  1.3501
  460MOL0     H62056   6.309   7.555  10.371  1.1259  1.8288 -2.2158
  460MOL0     H62057   6.174   7.647  10.296  0.3942  0.4629  2.6360
  460MOL0     H62058   6.323   7.410  10.176 -0.7276 -0.9272 -2.9793
  460MOL0     H62059   6.375   7.579  10.154 -2.4960  2.9118 -0.5314
  460MOL0     H62060   6.374   7.753  10.039  1.3975  3.3720 -0.4591
  460MOL0     H62061   6.301   7.989  10.053  0.8081 -2.2096 -0.5268
  460MOL0     H62062   5.961   8.358  10.003  0.1972  1.0274  0.0639
  460MOL0     H62063   5.895   8.559  10.097 -2.4911 -2.4490  2.6207
  460MOL0     H62064   6.088   8.665  10.503 -0.8127 -0.8759 -0.3366
  460MOL0     H62065   6.208   8.735  10.376 -0.2236  1.1495 -1.6985
  460MOL0     H62066   6.152   8.933  10.461  0.0026  2.1123  3.4822
  460MOL0     H62067   5.996   8.911  10.371 -0.5056 -1.7110 -0.2684
  460MOL0     H62068   5.946   9.007  10.596 -2.7689 -0.5704  3.0779
  460MOL0     H62069   5.886   8.834  10.572  1.6826 -1.5046 -0.9290
  460MOL0     H62070   6.102   8.761  10.670  2.2000  0.4637 -0.3348
  460MOL0     H62071   5.992   8.829  10.786 -0.6231 -1.4958 -0.5353
  460MOL0     H62072   6.136   9.048  10.778  0.7855  0.4977 -0.2022
  460MOL0     H62073   6.243   8.979  10.666 -1.7802  1.4564 -1.1525
  460MOL0     H62074   6.251   8.784  10.866 -3.9724 -0.6442  0.1108
  460MOL0     H62075   6.334   8.949  10.882 -1.4806  3.6768 -0.4866
  460MOL0     H62076   6.219   8.854  11.073  1.3453  0.1646 -1.3087
  460MOL0     H62077   6.059   8.901  11.012 -0.7561 -1.2256 -2.3830
  460MOL0     H62078   6.183   9.077  11.159  1.2625 -0.6015 -0.1042
  460MOL0     H62079   6.289   9.086  11.021 -0.3055 -1.2121 -0.4595
  460MOL0     H62080   6.187   8.489  10.413  1.3308 -4.5540 -0.1610
  460MOL0     H62081   6.223   8.271  10.331  0.5777  0.0858 -0.0091
  460MOL0     H62082   5.905   7.896   9.972 -0.2364 -0.4996 -0.1293
  460MOL0     H62083   5.952   7.640  10.012  1.0589 -1.5142 -0.0804
  460MOL0     H62084   5.364   8.685  10.890  1.1339 -2.8404 -0.9886
  460MOL0     H62085   5.139   8.733  10.983 -1.0960 -1.5331  0.3107
  460MOL0     H62086   4.813   8.772  11.075  1.0144 -0.5417 -0.3301
  460MOL0     H62087   4.629   8.864  11.204  1.4444 -0.1723 -0.0309
  460MOL0     H62088   4.431   8.821  11.252 -1.9852 -1.0672 -0.2271
  460MOL0     H62089   4.290   8.916  11.273 -0.2500 -2.1251 -0.6014
  460MOL0     H62090   4.414   9.111  11.348 -0.9885 -0.5317  0.2002
  460MOL0     H62091   4.565   9.024  11.349  0.8015  0.5788  0.2807
  460MOL0     H62092   4.510   8.895  11.549  1.5584  0.2989 -2.2042
  460MOL0     H62093   4.347   8.887  11.506 -0.5301 -0.8467  2.1255
  460MOL0     H62094   4.424   9.169  11.567 -2.2732 -0.4044 -1.6942
  460MOL0     H62095   4.278   9.084  11.587  0.3178  1.6171  0.8626
  460MOL0     H62096   4.432   9.026  11.968  2.5732  1.6539 -0.2025
  460MOL0     H62097   4.425   8.973  10.843  1.3040  0.5615 -3.2074
  460MOL0     H62098   4.517   8.887  10.625  0.3796 -1.4138  1.1737
  460MOL0     H62099   4.643   9.005  10.613 -1.7963 -0.1569 -2.3355
  460MOL0     H62100   4.670   8.823  10.611  0.0593 -0.9437 -1.0706
  461MOL0     O62101  10.419   9.989   6.848 -0.0929 -0.4265 -0.3438
  461MOL0     C62102  10.472   9.876   6.832  0.0927 -1.3505  0.3970
  461MOL0     O62103  10.601   9.856   6.785  0.3907 -0.6751  0.6070
  461MOL0     C62104  10.689   9.958   6.778  0.1528  0.2740  0.4467
  461MOL0     C62105  10.767  10.013   6.876 -0.2778  0.0025  0.0718
  461MOL0     C62106  10.851  10.126   6.859  0.0228  0.0207 -0.6044
  461MOL0     C62107  10.861  10.185   6.731  0.1966  0.8011  0.5328
  461MOL0     O62108  10.935  10.302   6.701 -0.5187  0.4764 -0.7238
  461MOL0     C62109  11.022  10.339   6.804 -0.2193 -0.2928 -0.2900
  461MOL0     C62110  11.106  10.467   6.770 -0.6848 -0.2077 -0.2981
  461MOL0     C62111  11.250  10.441   6.690 -0.2618 -0.5328 -0.0421
  461MOL0     C62112  11.320  10.572   6.662  1.1426 -0.2707  1.0216
  461MOL0     C62113  11.449  10.554   6.582 -0.4272  0.0847  0.1915
  461MOL0     C62114  11.537  10.684   6.594 -0.1079 -0.3974  0.1492
  461MOL0     C62115  11.680  10.657   6.545 -1.1022  0.9925 -1.2408
  461MOL0     C62116  11.764  10.780   6.530 -0.2007 -0.7414 -0.3674
  461MOL0     N62117  11.709  10.869   6.422 -1.0577  0.7602  0.4942
  461MOL0     C62118  11.680  11.001   6.450 -0.4361  1.4196  0.6102
  461MOL0     C62119  11.659  11.060   6.326 -0.5000  0.0599 -0.4892
  461MOL0     C62120  11.621  11.201   6.302 -0.7973  0.8359  0.1849
  461MOL0     C62121  11.509  11.232   6.202  0.0235  0.2526  0.3876
  461MOL0     C62122  11.494  11.383   6.177  0.3487  0.4478 -0.6603
  461MOL0     C62123  11.447  11.458   6.300  0.7384 -0.5673 -0.4268
  461MOL0     O62124  11.370  11.571   6.243  0.0728 -0.2238  0.0059
  461MOL0     C62125  11.358  11.692   6.317 -0.0329  0.0017 -0.3763
  461MOL0     C62126  11.343  11.698   6.458  0.4710  0.1642 -0.7213
  461MOL0     C62127  11.351  11.821   6.525  0.6004  0.2728  0.2538
  461MOL0     C62128  11.368  11.944   6.447  0.6292  0.0771 -0.2679
  461MOL0     C62129  11.391  12.064   6.514 -0.8653  0.0047  0.0289
  461MOL0     O62130  11.453  12.057   6.632 -0.0284 -0.3240  0.1470
  461MOL0     C62131  11.448  12.160   6.723 -0.0840 -1.2940 -0.1485
  461MOL0     C62132  11.544  12.143   6.817 -0.0752  0.0631  0.0454
  461MOL0     C62133  11.532  12.213   6.945  0.2331  0.1885 -0.3374
  461MOL0     C62134  11.441  12.308   6.959  0.2750 -0.5687 -0.2549
  461MOL0     O62135  11.437  12.371   7.082  0.0189 -0.2627 -0.2552
  461MOL0     C62136  11.442  12.515   7.063  0.4043 -0.1482 -0.4410
  461MOL0     C62137  11.439  12.575   7.208 -0.4931 -0.0494  0.4267
  461MOL0     C62138  11.543  12.690   7.212  0.1659 -0.9444  0.4728
  461MOL0     C62139  11.532  12.759   7.347 -0.0207 -0.3442  0.5715
  461MOL0     C62140  11.541  12.909   7.329  0.5079 -0.3465 -1.2807
  461MOL0     C62141  11.400  12.976   7.343  0.0185 -1.3152 -0.7169
  461MOL0     C62142  11.406  13.120   7.310 -0.0824  0.1592 -0.3783
  461MOL0     C62143  11.263  13.171   7.246  0.1203 -0.3390  0.3386
  461MOL0    Cl62144  11.277  13.169   7.069 -0.2031  0.2284 -0.3061
  461MOL0     C62145  11.355  12.333   6.848  0.9251 -1.0950  0.6892
  461MOL0     C62146  11.357  12.260   6.736 -0.5881  0.2588  0.5065
  461MOL0     O62147  11.365  12.166   6.442 -0.1963  0.1562 -0.0904
  461MOL0     C62148  11.375  11.939   6.302 -0.6381  0.1853 -0.2811
  461MOL0     C62149  11.371  11.811   6.246  0.4484 -0.3725 -0.3213
  461MOL0     N62150  11.681  10.959   6.230 -0.0946 -0.1941 -0.2777
  461MOL0     N62151  11.713  10.847   6.290 -0.5298 -0.3435  0.6411
  461MOL0     C62152  10.781  10.126   6.629 -0.1910 -0.0433 -0.3994
  461MOL0     C62153  10.702  10.014   6.657 -0.5234  0.0053  0.4467
  461MOL0     C62154  10.385   9.760   6.839  0.8069  0.0057  0.2343
  461MOL0     C62155  10.440   9.636   6.793 -0.5757 -1.2463  0.5253
  461MOL0     C62156  10.368   9.513   6.810 -0.4990 -0.1611 -0.2331
  461MOL0     C62157  10.244   9.516   6.875  0.2716 -1.2753 -0.1279
  461MOL0     O62158  10.165   9.401   6.900  0.3905  0.2406  0.1711
  461MOL0     C62159  10.183   9.330   7.022  0.6968  0.4648  0.2940
  461MOL0     C62160  10.168   9.178   7.004 -0.3667 -0.9098 -0.6342
  461MOL0     C62161  10.269   9.119   6.902 -0.4599  0.5091 -0.3188
  461MOL0     C62162  10.239   8.966   6.896  0.0451 -0.0208  0.2880
  461MOL0     C62163  10.289   8.912   6.774  0.1488 -0.2758  0.7986
  461MOL0     C62164  10.337   8.835   6.690  0.9903  0.3411 -0.2065
  461MOL0     C62165  10.191   9.640   6.911  0.5035  0.3718 -0.0215
  461MOL0     C62166  10.255   9.758   6.892  0.7354  0.2647  0.2548
  461MOL0     C62167  10.182   9.881   6.940 -0.2673  0.4121  0.5757
  461MOL0     H62168  10.755   9.962   6.971  4.2371  1.1051  1.4735
  461MOL0     H62169  10.913  10.162   6.941 -1.1867 -1.6444  1.1494
  461MOL0     H62170  10.968  10.364   6.896 -3.1458 -3.2875 -0.9979
  461MOL0     H62171  11.088  10.259   6.838 -0.0329 -2.3123 -4.6784
  461MOL0     H62172  11.137  10.511   6.865  2.3954 -0.8462 -0.9088
  461MOL0     H62173  11.053  10.536   6.704 -0.9727 -0.1188  0.0195
  461MOL0     H62174  11.220  10.404   6.592 -3.0543  2.3870 -0.4485
  461MOL0     H62175  11.306  10.369   6.751 -2.6043 -1.6551  0.9497
  461MOL0     H62176  11.252  10.636   6.606  0.0369 -1.3852  1.0359
  461MOL0     H62177  11.338  10.629   6.754  2.6391  4.5935 -1.9673
  461MOL0     H62178  11.500  10.463   6.614  0.9412  0.4737 -0.8075
  461MOL0     H62179  11.424  10.537   6.477  3.0569 -1.4374 -0.5126
  461MOL0     H62180  11.500  10.771   6.539  1.1163  0.5561  0.7741
  461MOL0     H62181  11.543  10.720   6.697  1.3100  3.6078 -1.1108
  461MOL0     H62182  11.685  10.594   6.455  1.1144 -0.0926 -0.4427
  461MOL0     H62183  11.738  10.604   6.622  1.0507  2.4317 -1.7886
  461MOL0     H62184  11.757  10.840   6.620  2.5907 -0.4027 -0.2885
  461MOL0     H62185  11.872  10.767   6.518 -0.1831 -0.8661 -0.0904
  461MOL0     H62186  11.681  11.048   6.547  1.2305  0.5402  1.0594
  461MOL0     H62187  11.606  11.259   6.394 -0.7531  0.1752  0.6138
  461MOL0     H62188  11.715  11.240   6.262  0.2896  1.1714  2.8554
  461MOL0     H62189  11.536  11.190   6.105  1.3919  1.4797  0.2001
  461MOL0     H62190  11.413  11.189   6.231  0.3480 -0.1697  0.8407
  461MOL0     H62191  11.411  11.398   6.108 -0.2873  2.3851  0.4538
  461MOL0     H62192  11.583  11.440   6.150 -0.5952  2.3462  0.0550
  461MOL0     H62193  11.520  11.499   6.371  0.1302  1.2180 -0.7901
  461MOL0     H62194  11.378  11.394   6.356 -0.2539  1.7147  1.0795
  461MOL0     H62195  11.343  11.609   6.521 -1.5019  1.5618  1.4271
  461MOL0     H62196  11.345  11.854   6.629 -3.0731  2.5330 -0.4794
  461MOL0     H62197  11.605  12.053   6.819  1.4768  0.9808  3.6555
  461MOL0     H62198  11.588  12.195   7.036  3.9350 -0.3779 -2.5180
  461MOL0     H62199  11.531  12.524   7.000 -1.9767 -0.4563 -4.1681
  461MOL0     H62200  11.359  12.564   7.011  0.5800  2.0991  1.2282
  461MOL0     H62201  11.337  12.607   7.232 -0.6596 -1.6473  2.0801
  461MOL0     H62202  11.466  12.495   7.277 -0.6131 -0.1595  0.3456
  461MOL0     H62203  11.647  12.662   7.194 -0.4862 -1.4167 -3.4253
  461MOL0     H62204  11.516  12.749   7.124  1.2858 -3.7628 -1.9328
  461MOL0     H62205  11.616  12.730   7.411  1.1738  1.1154 -0.2692
  461MOL0     H62206  11.439  12.723   7.392  0.3242 -3.1397 -0.7763
  461MOL0     H62207  11.573  12.947   7.231  1.7075 -0.8203 -1.0861
  461MOL0     H62208  11.606  12.941   7.410  1.0221 -0.6244 -1.5782
  461MOL0     H62209  11.337  12.932   7.265  0.6867 -1.2208 -1.3226
  461MOL0     H62210  11.350  12.962   7.440 -0.7965 -2.0169 -1.2193
  461MOL0     H62211  11.489  13.158   7.250  0.9285  0.3186  1.0785
  461MOL0     H62212  11.410  13.170   7.407 -3.3556  3.1145 -1.5508
  461MOL0     H62213  11.178  13.105   7.268 -0.1327  0.4065  1.6822
  461MOL0     H62214  11.252  13.272   7.286  5.0442  0.4963  0.1886
  461MOL0     H62215  11.273  12.403   6.840 -0.9675 -3.2744 -0.2883
  461MOL0     H62216  11.290  12.289   6.655 -2.0899  0.6930  1.8550
  461MOL0     H62217  11.381  12.027   6.239 -0.4424 -0.7936 -1.6909
  461MOL0     H62218  11.405  11.788   6.146  2.4246  0.8834  0.0053
  461MOL0     H62219  10.791  10.174   6.532 -1.4685  0.2276 -0.4018
  461MOL0     H62220  10.625   9.981   6.589  0.4426  2.4481 -1.9868
  461MOL0     H62221  10.535   9.640   6.739 -1.9063 -1.4753 -1.9939
  461MOL0     H62222  10.414   9.427   6.762  0.1116  1.7639 -3.3495
  461MOL0     H62223  10.107   9.365   7.092 -0.9432 -0.1473 -1.1257
  461MOL0     H62224  10.282   9.358   7.061  2.5577  1.7664 -4.6026
  461MOL0     H62225  10.065   9.154   6.978 -0.7981  0.9942 -0.8076
  461MOL0     H62226  10.174   9.140   7.106 -0.4969 -0.1292 -0.3312
  461MOL0     H62227  10.375   9.141   6.919 -0.2906  0.0603 -0.7524
  461MOL0     H62228  10.249   9.166   6.805  3.2315  2.4340 -0.3238
  461MOL0     H62229  10.300   8.924   6.977 -2.2089 -5.5775 -0.4508
  461MOL0     H62230  10.134   8.938   6.909  0.1363 -1.2342 -1.3059
  461MOL0     H62231  10.393   8.782   6.616  0.5868  0.9295 -0.9410
  461MOL0     H62232  10.098   9.624   6.964  0.2181  0.2780 -0.5396
  461MOL0     H62233  10.109   9.910   6.863  0.7545 -0.2231 -0.6618
  461MOL0     H62234  10.121   9.846   7.024 -0.7779 -0.8400 -0.2973
  461MOL0     H62235  10.237   9.971   6.969  1.1948 -0.5137  0.7544
  462MOL0     O62236   5.798   0.665  11.067 -1.0757  0.4478  1.0314
  462MOL0     C62237   5.725   0.659  11.169  0.3423  0.7332 -0.4322
  462MOL0     O62238   5.634   0.554  11.196  0.6201 -0.0870 -0.2636
  462MOL0     C62239   5.673   0.436  11.140 -0.5731 -0.2979 -0.0236
  462MOL0     C62240   5.605   0.404  11.024  1.2016 -0.6841 -0.0627
  462MOL0     C62241   5.635   0.281  10.959  0.2343  0.3102  0.3019
  462MOL0     C62242   5.731   0.195  11.017 -1.0575  0.3037 -0.3877
  462MOL0     O62243   5.769   0.073  10.966  0.3843 -0.9153 -0.0464
  462MOL0     C62244   5.764   0.046  10.822 -0.1655 -0.8947 -0.2397
  462MOL0     C62245   5.845  -0.076  10.803  0.0849 -0.4440 -0.5819
  462MOL0     C62246   5.853  -0.127  10.655  0.0979  0.0942  0.3335
  462MOL0     C62247   5.736  -0.215  10.609  0.2343 -0.7708 -0.0717
  462MOL0     C62248   5.719  -0.223  10.454  0.6115 -0.3295 -0.2821
  462MOL0     C62249   5.589  -0.294  10.413 -0.2305 -0.1846 -0.4557
  462MOL0     C62250   5.576  -0.314  10.264  0.3535 -1.2046 -0.2884
  462MOL0     C62251   5.451  -0.401  10.244  0.2729 -0.4822 -0.3239
  462MOL0     N62252   5.457  -0.459  10.111 -0.0074  0.4829 -0.5442
  462MOL0     C62253   5.461  -0.389   9.994  0.2523  0.5554 -0.1844
  462MOL0     C62254   5.466  -0.484   9.895 -1.6748  0.4168  0.4013
  462MOL0     C62255   5.496  -0.464   9.747 -0.3536  0.0688  0.2936
  462MOL0     C62256   5.378  -0.531   9.667  1.2246  0.0871 -0.6187
  462MOL0     C62257   5.378  -0.499   9.521 -0.9481  0.0082 -1.2537
  462MOL0     C62258   5.497  -0.567   9.453 -0.4739 -0.0045  0.0900
  462MOL0     O62259   5.602  -0.468   9.438  0.3703  0.1443  0.1770
  462MOL0     C62260   5.601  -0.372   9.335 -0.4934  0.3537 -1.2345
  462MOL0     C62261   5.712  -0.278   9.336 -0.2168  0.7471  1.4089
  462MOL0     C62262   5.727  -0.186   9.227 -0.5107 -0.5747  0.0721
  462MOL0     C62263   5.618  -0.177   9.136  0.0773 -0.7830 -0.2065
  462MOL0     C62264   5.620  -0.064   9.043  0.4449  0.1370  0.7974
  462MOL0     O62265   5.744  -0.003   9.006 -0.9257 -0.5656 -0.4579
  462MOL0     C62266   5.728   0.123   8.947  1.3002  0.3588  0.5669
  462MOL0     C62267   5.726   0.136   8.808  0.4718  0.5404  0.3208
  462MOL0     C62268   5.726   0.261   8.747 -1.2701 -0.2352 -1.1537
  462MOL0     C62269   5.707   0.373   8.831 -0.5930  0.1706  0.0968
  462MOL0     O62270   5.705   0.500   8.776  0.3383  0.3868  0.5240
  462MOL0     C62271   5.814   0.583   8.815 -0.4647  0.5940 -0.1236
  462MOL0     C62272   5.851   0.685   8.719 -0.6276  0.2531  0.1889
  462MOL0     C62273   5.979   0.758   8.762 -0.5709  0.3531 -0.0866
  462MOL0     C62274   6.101   0.674   8.704  0.0616 -0.2385 -0.2387
  462MOL0     C62275   6.240   0.708   8.753 -0.4300 -0.7712  0.1739
  462MOL0     C62276   6.363   0.636   8.682 -0.9806 -0.5109 -0.5565
  462MOL0     C62277   6.491   0.667   8.768 -0.0190 -0.8568  0.8577
  462MOL0     C62278   6.619   0.602   8.709 -1.0493 -0.1009  0.0140
  462MOL0    Cl62279   6.639   0.638   8.535  0.6356 -0.0422 -0.2772
  462MOL0     C62280   5.673   0.359   8.968 -0.0748  0.5482 -0.2526
  462MOL0     C62281   5.688   0.232   9.027 -0.1857 -1.0101  0.3004
  462MOL0     O62282   5.511  -0.037   8.990 -0.1515  0.6489  0.3367
  462MOL0     C62283   5.508  -0.261   9.146  0.2759  0.1777  0.6590
  462MOL0     C62284   5.493  -0.358   9.239  0.2903  0.0562 -0.6619
  462MOL0     N62285   5.481  -0.612   9.961  0.3267  0.3931  0.6649
  462MOL0     N62286   5.472  -0.593  10.090 -1.2783 -0.3557 -0.0995
  462MOL0     C62287   5.786   0.226  11.133  0.1671  0.2624 -0.8095
  462MOL0     C62288   5.762   0.352  11.203 -0.3315 -0.4591 -0.7780
  462MOL0     C62289   5.700   0.781  11.252  1.4749  0.2838 -0.3847
  462MOL0     C62290   5.686   0.761  11.389  0.6256 -0.4380 -0.0350
  462MOL0     C62291   5.657   0.875  11.475  0.0673  0.3818  0.5013
  462MOL0     C62292   5.648   0.998  11.421  0.2225 -0.4683 -0.9327
  462MOL0     O62293   5.638   1.112  11.491  0.1019 -0.1690  0.6008
  462MOL0     C62294   5.505   1.168  11.497 -0.4399  0.6166  0.0381
  462MOL0     C62295   5.441   1.114  11.625  0.3268 -0.7940  0.3504
  462MOL0     C62296   5.541   1.143  11.751 -0.6159  0.1087  0.5660
  462MOL0     C62297   5.464   1.166  11.887 -0.1862 -0.1035  1.1723
  462MOL0     C62298   5.388   1.041  11.905  0.8263  0.4664 -0.7117
  462MOL0     C62299   5.310   0.951  11.919  0.1663  0.0913  1.2758
  462MOL0     C62300   5.649   1.015  11.280 -0.4663 -0.1956  0.7587
  462MOL0     C62301   5.673   0.912  11.194 -1.0154 -0.6951 -0.2114
  462MOL0     C62302   5.674   0.937  11.045 -0.3269 -0.3658 -0.4059
  462MOL0     H62303   5.526   0.469  10.989 -2.0292 -4.1446  0.1012
  462MOL0     H62304   5.595   0.256  10.862 -5.2217  6.0375  0.4595
  462MOL0     H62305   5.662   0.027  10.787 -0.0370 -3.0905  0.4061
  462MOL0     H62306   5.782   0.128  10.753 -2.0884 -0.1154  0.1364
  462MOL0     H62307   5.800  -0.155  10.864  3.0238  0.4602  3.1870
  462MOL0     H62308   5.950  -0.071  10.833 -0.4360  0.2475  1.2490
  462MOL0     H62309   5.939  -0.186  10.622  0.3720  2.5894 -4.2672
  462MOL0     H62310   5.860  -0.046  10.583  1.6639  0.3189  0.7112
  462MOL0     H62311   5.762  -0.314  10.649 -0.3652 -1.0287 -0.3101
  462MOL0     H62312   5.647  -0.170  10.655 -0.6563  0.7733 -3.0282
  462MOL0     H62313   5.718  -0.120  10.417  0.5256 -0.7009 -1.3537
  462MOL0     H62314   5.807  -0.273  10.413 -0.5937 -0.0747 -3.5173
  462MOL0     H62315   5.586  -0.391  10.463 -2.6601  0.7536  1.4366
  462MOL0     H62316   5.504  -0.236  10.451 -1.0032 -0.9108 -1.0403
  462MOL0     H62317   5.672  -0.359  10.235  0.3623 -0.9451 -0.6703
  462MOL0     H62318   5.564  -0.221  10.208 -1.1741 -1.1956  0.0231
  462MOL0     H62319   5.457  -0.482  10.317  1.6553  1.0940  1.4282
  462MOL0     H62320   5.358  -0.345  10.256  0.8384  0.0915  1.7876
  462MOL0     H62321   5.458  -0.282   9.976 -1.8689  0.7664  1.0405
  462MOL0     H62322   5.490  -0.357   9.721  0.2858  0.1827  0.6072
  462MOL0     H62323   5.598  -0.497   9.727  0.2295  0.6633  2.0828
  462MOL0     H62324   5.375  -0.639   9.683  0.9238  0.1220 -0.4390
  462MOL0     H62325   5.287  -0.492   9.712  0.0589 -0.5990 -2.2668
  462MOL0     H62326   5.400  -0.392   9.516 -2.5838  0.7210  2.7297
  462MOL0     H62327   5.284  -0.524   9.470  0.2970 -2.0194 -2.6827
  462MOL0     H62328   5.467  -0.597   9.352  2.9831 -1.9146 -0.5027
  462MOL0     H62329   5.513  -0.658   9.511 -3.8204 -2.1111 -1.9541
  462MOL0     H62330   5.787  -0.287   9.414  3.1128 -0.5666 -1.6948
  462MOL0     H62331   5.815  -0.125   9.243 -1.2679  0.4170  0.6024
  462MOL0     H62332   5.727   0.052   8.740 -4.0348  0.2723  0.2525
  462MOL0     H62333   5.733   0.263   8.638  1.2253  2.2261 -1.0639
  462MOL0     H62334   5.788   0.639   8.905  0.0662  4.4573 -2.1784
  462MOL0     H62335   5.905   0.522   8.825  0.5965  2.0620 -0.4920
  462MOL0     H62336   5.870   0.637   8.623 -0.2303  1.8308 -0.5610
  462MOL0     H62337   5.765   0.753   8.716 -1.4563 -0.4909  3.4779
  462MOL0     H62338   5.995   0.855   8.715 -0.9813  1.7180  2.4378
  462MOL0     H62339   5.985   0.790   8.866  0.0339  0.2738 -0.0916
  462MOL0     H62340   6.092   0.701   8.598 -1.0248  2.0291  0.3557
  462MOL0     H62341   6.073   0.568   8.700 -1.6640  0.2021 -3.1380
  462MOL0     H62342   6.254   0.690   8.860 -1.4838 -2.2972  0.0909
  462MOL0     H62343   6.250   0.817   8.751 -0.6289 -0.7505  0.2581
  462MOL0     H62344   6.355   0.528   8.667 -3.1735 -0.3203 -1.1336
  462MOL0     H62345   6.381   0.685   8.586 -2.2484 -0.9897 -1.0604
  462MOL0     H62346   6.463   0.623   8.864 -0.0579  0.6039  1.5571
  462MOL0     H62347   6.518   0.773   8.776 -0.7112 -0.4271 -1.5762
  462MOL0     H62348   6.701   0.638   8.772 -1.8149  2.4240 -0.3023
  462MOL0     H62349   6.627   0.494   8.726 -0.6913  0.0047  0.5515
  462MOL0     H62350   5.639   0.446   9.023 -1.6015  0.0128 -0.2976
  462MOL0     H62351   5.661   0.196   9.126 -1.3758 -2.4971 -0.5237
  462MOL0     H62352   5.425  -0.236   9.080 -0.2960 -1.5783  0.6719
  462MOL0     H62353   5.409  -0.425   9.250  0.1258  0.4737  0.9189
  462MOL0     H62354   5.864   0.160  11.170  0.7745  2.9025  3.3217
  462MOL0     H62355   5.812   0.382  11.295 -0.9448  0.5330 -0.7590
  462MOL0     H62356   5.686   0.661  11.431 -2.7691 -0.8315 -0.6870
  462MOL0     H62357   5.652   0.853  11.581  0.6606  0.6947  0.5979
  462MOL0     H62358   5.441   1.131  11.416 -1.3056  1.4078  0.3399
  462MOL0     H62359   5.507   1.278  11.499 -3.1658  0.7523 -0.4472
  462MOL0     H62360   5.426   1.006  11.619  2.8288 -1.2261  0.9206
  462MOL0     H62361   5.342   1.158  11.639  0.1350 -2.0411  3.7227
  462MOL0     H62362   5.610   1.228  11.752  1.3738 -1.4463  1.7415
  462MOL0     H62363   5.604   1.054  11.751 -0.0984  0.4014  3.0525
  462MOL0     H62364   5.535   1.180  11.970  0.1482 -0.1128  0.8913
  462MOL0     H62365   5.403   1.256  11.894 -1.2854 -0.6646 -0.7270
  462MOL0     H62366   5.227   0.885  11.934  0.5769 -0.9360 -0.6629
  462MOL0     H62367   5.623   1.110  11.235  1.2919 -0.4979 -0.9927
  462MOL0     H62368   5.607   0.863  11.002  0.7260 -1.9332  0.5668
  462MOL0     H62369   5.625   1.034  11.030  0.0527  0.3701  2.3688
  462MOL0     H62370   5.770   0.933  10.994  0.4777  1.8313  0.7733
  463MOL0     O62371   4.876   1.844   9.314 -0.2164  0.9932  0.6143
  463MOL0     C62372   4.842   1.785   9.413  0.0496  0.4059  0.3005
  463MOL0     O62373   4.842   1.830   9.536 -0.1730  0.6528  0.7668
  463MOL0     C62374   4.890   1.955   9.563  0.1442 -0.4837  0.4253
  463MOL0     C62375   4.809   2.065   9.601 -0.5975 -0.9593 -0.9477
  463MOL0     C62376   4.872   2.180   9.653 -0.5659 -0.7278 -0.6928
  463MOL0     C62377   5.013   2.189   9.643  0.4250 -0.0407 -0.6461
  463MOL0     O62378   5.080   2.296   9.689  0.1078 -0.3438 -0.4596
  463MOL0     C62379   5.013   2.418   9.708  0.3069  0.6207 -1.1116
  463MOL0     C62380   5.131   2.517   9.728  0.2938 -0.1870 -1.0658
  463MOL0     C62381   5.218   2.523   9.856  0.3302  0.1980  0.5634
  463MOL0     C62382   5.286   2.662   9.873 -0.0415 -0.1848  0.6609
  463MOL0     C62383   5.370   2.677  10.007  0.1315 -0.5535  0.4353
  463MOL0     C62384   5.310   2.672  10.153 -0.3620 -0.2967  0.3821
  463MOL0     C62385   5.419   2.724  10.253 -1.0401 -0.3720 -0.3178
  463MOL0     C62386   5.415   2.876  10.276  0.5848  0.2511  0.9941
  463MOL0     N62387   5.509   2.928  10.382 -0.1337 -0.2217 -0.6227
  463MOL0     C62388   5.648   2.912  10.362 -0.2953 -0.1700 -0.1776
  463MOL0     C62389   5.699   3.011  10.447  0.1113  0.4527 -0.4493
  463MOL0     C62390   5.835   3.061  10.457 -0.0108  0.5329 -0.2357
  463MOL0     C62391   5.870   3.140  10.331  0.0253 -0.2987  0.0516
  463MOL0     C62392   5.807   3.290  10.345 -0.2993  0.3447  0.4553
  463MOL0     C62393   5.879   3.393  10.264 -0.6791 -0.6880  0.0753
  463MOL0     O62394   6.009   3.429  10.322  0.5950 -0.5456  0.3290
  463MOL0     C62395   6.006   3.506  10.429  0.1937 -1.2984  0.6142
  463MOL0     C62396   5.976   3.650  10.420  0.2826  1.1857  0.7112
  463MOL0     C62397   6.004   3.735  10.525 -1.1009  0.1875 -0.4449
  463MOL0     C62398   6.029   3.686  10.653  0.1471  0.6742 -0.0204
  463MOL0     C62399   6.054   3.775  10.763  0.3205 -0.0679  0.1159
  463MOL0     O62400   6.053   3.736  10.898  0.4469  0.8154 -0.1303
  463MOL0     C62401   6.122   3.816  10.994 -0.6094  0.1367 -0.0446
  463MOL0     C62402   6.073   3.817  11.119 -0.1655  0.4410 -0.6200
  463MOL0     C62403   6.139   3.878  11.219  0.1326 -0.6116 -0.5340
  463MOL0     C62404   6.262   3.951  11.197  0.0193  0.9206  0.3631
  463MOL0     O62405   6.341   4.002  11.297 -0.4163  0.2463 -0.1084
  463MOL0     C62406   6.290   4.078  11.407 -0.5537  0.2402  0.5810
  463MOL0     C62407   6.227   4.216  11.364  0.9386  0.0937  0.0790
  463MOL0     C62408   6.152   4.281  11.485 -0.3184 -0.1117 -0.5068
  463MOL0     C62409   6.086   4.414  11.434 -0.5069 -0.1740 -0.3493
  463MOL0     C62410   6.181   4.529  11.439  0.4990 -0.4925 -0.1412
  463MOL0     C62411   6.113   4.661  11.416  0.0177 -0.0604  0.7857
  463MOL0     C62412   6.056   4.722  11.541  0.7354 -0.5399  0.2764
  463MOL0     C62413   5.929   4.663  11.612 -0.0040  0.2739  0.6307
  463MOL0    Cl62414   5.862   4.787  11.717 -0.4124  0.3873 -0.0554
  463MOL0     C62415   6.312   3.957  11.060  1.0789  0.6211 -0.1598
  463MOL0     C62416   6.244   3.882  10.966 -0.0308  0.2829 -1.0257
  463MOL0     O62417   6.084   3.890  10.726 -0.3392 -0.7879 -0.5417
  463MOL0     C62418   6.054   3.546  10.665  0.3351 -0.4753  0.4492
  463MOL0     C62419   6.045   3.464  10.555  0.5345  0.3025 -0.0770
  463MOL0     N62420   5.601   3.070  10.519  0.4948  0.3994 -0.0258
  463MOL0     N62421   5.490   3.026  10.474 -0.9450 -0.1002  0.7231
  463MOL0     C62422   5.090   2.081   9.603 -0.2303 -0.4422 -0.2261
  463MOL0     C62423   5.032   1.969   9.549  1.0579  2.2233  0.6599
  463MOL0     C62424   4.795   1.651   9.389  0.0675 -0.0975 -0.8760
  463MOL0     C62425   4.794   1.561   9.500 -0.1108  0.4870  0.4131
  463MOL0     C62426   4.740   1.430   9.484 -0.0751 -0.6179  0.0071
  463MOL0     C62427   4.692   1.392   9.363  0.8022  0.8378  0.1779
  463MOL0     O62428   4.615   1.281   9.354 -0.1406  0.8704  0.0883
  463MOL0     C62429   4.607   1.194   9.464  0.6792  0.2550 -1.7526
  463MOL0     C62430   4.521   1.070   9.426  1.3982  0.0069 -0.0214
  463MOL0     C62431   4.372   1.098   9.423 -0.0808 -0.2797 -0.7799
  463MOL0     C62432   4.314   1.092   9.557 -0.1632 -0.2056  0.6501
  463MOL0     C62433   4.215   1.199   9.572  0.3935  0.4425 -0.2747
  463MOL0     C62434   4.122   1.276   9.580 -0.0980 -0.3877  0.5868
  463MOL0     C62435   4.707   1.472   9.248  0.1605 -0.6662 -1.3109
  463MOL0     C62436   4.757   1.610   9.260 -0.3077  0.8300  0.0619
  463MOL0     C62437   4.760   1.685   9.128 -0.6676 -0.3811 -1.3826
  463MOL0     H62438   4.700   2.071   9.608 -0.4705  2.5376  0.1838
  463MOL0     H62439   4.814   2.265   9.687  0.4778  0.4987 -1.8586
  463MOL0     H62440   4.959   2.445   9.617  0.7147 -0.1583 -1.5924
  463MOL0     H62441   4.952   2.401   9.797 -4.3563 -2.8586 -4.4981
  463MOL0     H62442   5.073   2.610   9.731  0.1690 -0.2635  1.9032
  463MOL0     H62443   5.194   2.511   9.639  0.5666 -2.9450 -0.7814
  463MOL0     H62444   5.301   2.452   9.855  1.5135  1.4329 -2.4912
  463MOL0     H62445   5.148   2.510   9.939 -2.1898 -1.0739 -1.6181
  463MOL0     H62446   5.356   2.679   9.791  1.6785 -0.3181  2.0479
  463MOL0     H62447   5.216   2.746   9.870  0.6053  0.4695  2.6084
  463MOL0     H62448   5.444   2.596   9.996 -1.9236 -2.3228 -1.4660
  463MOL0     H62449   5.418   2.773   9.986 -0.0384 -0.8803 -1.7549
  463MOL0     H62450   5.214   2.719  10.171 -0.8193  0.1013 -2.6133
  463MOL0     H62451   5.295   2.565  10.169  0.7745 -0.4179  0.7618
  463MOL0     H62452   5.517   2.709  10.207 -0.0750  2.1731  0.7466
  463MOL0     H62453   5.417   2.683  10.354  0.5299 -2.6604 -1.1445
  463MOL0     H62454   5.439   2.917  10.177 -3.1988 -0.9479 -0.6158
  463MOL0     H62455   5.317   2.924  10.272  0.5588  0.1994 -2.4447
  463MOL0     H62456   5.707   2.855  10.291  1.5395  2.0930 -0.5972
  463MOL0     H62457   5.840   3.123  10.547 -0.6321 -1.5084  1.2817
  463MOL0     H62458   5.887   2.966  10.474 -0.5240 -0.0296 -1.6931
  463MOL0     H62459   5.978   3.155  10.327 -0.1307  0.5733 -2.3892
  463MOL0     H62460   5.839   3.086  10.241 -0.3584  2.3876 -1.5153
  463MOL0     H62461   5.804   3.327  10.448 -1.1765  1.0196  0.2014
  463MOL0     H62462   5.704   3.293  10.309  0.2450  2.4474 -1.1729
  463MOL0     H62463   5.826   3.488  10.261  1.3634  0.6299  1.9426
  463MOL0     H62464   5.908   3.356  10.165 -2.3178 -0.5722 -0.4722
  463MOL0     H62465   5.952   3.670  10.316 -0.3938  0.1607  0.6568
  463MOL0     H62466   5.989   3.840  10.504  0.6126  0.8776  1.3968
  463MOL0     H62467   5.979   3.772  11.147  0.5403  0.4661  1.9586
  463MOL0     H62468   6.107   3.856  11.321  0.7312 -1.8327 -0.5980
  463MOL0     H62469   6.232   4.006  11.467  0.6122 -0.5507  0.7927
  463MOL0     H62470   6.374   4.107  11.471 -0.2393  0.4630  0.0722
  463MOL0     H62471   6.298   4.288  11.322 -0.9922  1.9436 -0.2371
  463MOL0     H62472   6.153   4.209  11.284  1.0731 -0.1260 -0.0254
  463MOL0     H62473   6.084   4.209  11.530 -0.8264  0.7204  0.0927
  463MOL0     H62474   6.236   4.302  11.553  2.2682  1.0333 -3.7468
  463MOL0     H62475   5.994   4.425  11.492  0.6116  1.3325  1.2390
  463MOL0     H62476   6.054   4.399  11.331 -1.5810  3.6474 -0.7075
  463MOL0     H62477   6.256   4.518  11.359 -0.4391 -1.1425 -0.9491
  463MOL0     H62478   6.234   4.529  11.535  0.8592 -1.5572 -0.3284
  463MOL0     H62479   6.193   4.732  11.390 -0.1892  0.7319  2.2305
  463MOL0     H62480   6.039   4.660  11.335  1.7242 -1.4407 -0.8729
  463MOL0     H62481   6.021   4.820  11.508 -0.3630  0.6861  4.4824
  463MOL0     H62482   6.141   4.732  11.609  1.1582 -1.7819 -0.0438
  463MOL0     H62483   5.850   4.658  11.536  2.3376  0.0492 -1.9298
  463MOL0     H62484   5.956   4.565  11.652  3.8229  0.7335 -0.5123
  463MOL0     H62485   6.399   4.017  11.040 -0.4151  2.6771 -0.7612
  463MOL0     H62486   6.285   3.895  10.867  0.2868  4.1481 -0.5760
  463MOL0     H62487   6.087   3.504  10.760 -2.9960 -0.0711  1.9483
  463MOL0     H62488   6.078   3.361  10.568  3.6556  0.9822 -1.6587
  463MOL0     H62489   5.198   2.092   9.607 -0.3232  0.6524 -0.4703
  463MOL0     H62490   5.090   1.888   9.506  0.9351  3.2469 -1.6335
  463MOL0     H62491   4.836   1.588   9.596 -1.1235  4.1149 -0.0014
  463MOL0     H62492   4.734   1.371   9.575 -0.8582 -1.1136 -0.3560
  463MOL0     H62493   4.547   1.238   9.544 -1.1734 -2.2096 -1.6797
  463MOL0     H62494   4.707   1.158   9.491  0.6411  0.3409 -1.4864
  463MOL0     H62495   4.528   0.996   9.506 -0.4006 -1.3219 -1.0278
  463MOL0     H62496   4.559   1.016   9.339  4.5801  1.8815  0.0560
  463MOL0     H62497   4.320   1.022   9.363 -0.2459  0.7381 -1.9630
  463MOL0     H62498   4.349   1.189   9.366  2.4829  0.7987 -0.2157
  463MOL0     H62499   4.269   0.993   9.567  0.6270 -1.0946 -3.1590
  463MOL0     H62500   4.388   1.108   9.636  0.5621 -2.7147  0.5513
  463MOL0     H62501   4.046   1.348   9.605 -1.7779 -0.8693 -2.5814
  463MOL0     H62502   4.662   1.442   9.154 -1.9761  1.1018 -0.9280
  463MOL0     H62503   4.713   1.784   9.132 -1.6875 -0.8532 -1.4047
  463MOL0     H62504   4.866   1.700   9.106 -0.8239  1.3190 -1.1707
  463MOL0     H62505   4.703   1.641   9.046 -0.3545 -0.9723 -1.2905
  464MOL0     O62506   5.800   5.881   6.904  0.4188  0.7036 -0.2744
  464MOL0     C62507   5.737   5.938   6.816  0.4739  1.5373 -0.0786
  464MOL0     O62508   5.703   5.878   6.690 -0.8928  0.3548 -0.3669
  464MOL0     C62509   5.701   5.744   6.672 -0.1048 -0.0235 -0.1692
  464MOL0     C62510   5.595   5.681   6.599  0.7207  0.4406  0.1869
  464MOL0     C62511   5.588   5.541   6.572 -1.2808  0.0411  0.9063
  464MOL0     C62512   5.699   5.463   6.606  1.0889 -0.0643  0.5608
  464MOL0     O62513   5.700   5.329   6.572 -0.2187 -0.3659  0.4062
  464MOL0     C62514   5.665   5.237   6.680  0.2125 -0.1613 -0.0299
  464MOL0     C62515   5.669   5.090   6.638 -0.1099 -1.0157  0.5713
  464MOL0     C62516   5.575   5.075   6.513  0.0907 -0.3074 -0.9774
  464MOL0     C62517   5.577   4.932   6.467 -0.9206  0.5061  0.5853
  464MOL0     C62518   5.512   4.924   6.326  0.3354  0.3774  0.1256
  464MOL0     C62519   5.491   4.768   6.302 -0.8652  0.1723  0.2404
  464MOL0     C62520   5.466   4.732   6.153 -1.3717 -0.0360  0.0214
  464MOL0     C62521   5.387   4.603   6.126 -0.1149  0.6812 -0.4587
  464MOL0     N62522   5.262   4.597   6.198  0.1782  0.3945  0.2024
  464MOL0     C62523   5.145   4.672   6.195 -0.3347 -0.0652 -0.6509
  464MOL0     C62524   5.045   4.598   6.256 -0.2926 -0.4622  0.0458
  464MOL0     C62525   4.904   4.630   6.281 -0.4606 -1.0453  0.1325
  464MOL0     C62526   4.853   4.644   6.432 -0.5402  0.6284 -0.2191
  464MOL0     C62527   4.932   4.765   6.499  0.8642  0.4694 -0.0801
  464MOL0     C62528   5.016   4.711   6.603  0.0086  1.2239  0.3522
  464MOL0     O62529   5.107   4.802   6.668 -0.5173  0.3265  0.1189
  464MOL0     C62530   5.198   4.757   6.763  0.8921  0.4880 -0.2435
  464MOL0     C62531   5.274   4.845   6.825 -1.4480 -1.0692  1.1237
  464MOL0     C62532   5.381   4.804   6.919  0.4523 -0.4042 -0.1862
  464MOL0     C62533   5.400   4.670   6.955 -0.1198  0.2635  0.0352
  464MOL0     C62534   5.502   4.620   7.057  0.4469 -0.3495  0.1220
  464MOL0     O62535   5.532   4.491   7.058  0.6866  0.2315 -0.0990
  464MOL0     C62536   5.613   4.429   7.149  0.5982  0.2251 -0.5109
  464MOL0     C62537   5.666   4.304   7.110 -0.1521  0.4526 -0.4529
  464MOL0     C62538   5.761   4.255   7.191  0.5302 -0.3513 -0.0645
  464MOL0     C62539   5.793   4.307   7.318 -0.4799 -0.0414 -1.5235
  464MOL0     O62540   5.904   4.273   7.398  0.7518  0.5731  0.4444
  464MOL0     C62541   5.992   4.165   7.341  1.4451  0.3229  0.6617
  464MOL0     C62542   6.135   4.171   7.406  0.3192  0.9237 -0.2755
  464MOL0     C62543   6.129   4.140   7.560 -0.0831  0.3312  0.9407
  464MOL0     C62544   6.249   4.204   7.624  0.3348  0.5531  0.6697
  464MOL0     C62545   6.251   4.179   7.779 -0.6284  0.1399 -0.6838
  464MOL0     C62546   6.393   4.220   7.834  0.0176  0.8890 -0.6226
  464MOL0     C62547   6.406   4.191   7.983  0.3928  0.5758 -0.0642
  464MOL0     C62548   6.553   4.196   8.026 -0.2647 -0.4251  0.6525
  464MOL0    Cl62549   6.610   4.047   8.111  0.6502  0.3873  0.2974
  464MOL0     C62550   5.730   4.417   7.365 -0.0832  0.1848 -0.0830
  464MOL0     C62551   5.636   4.484   7.283 -1.5957  1.1428 -0.6303
  464MOL0     O62552   5.533   4.697   7.146  0.2434 -0.3546  0.1591
  464MOL0     C62553   5.319   4.576   6.883  0.5756  0.4341  0.4254
  464MOL0     C62554   5.226   4.616   6.787 -0.0283  0.1083 -0.0816
  464MOL0     N62555   5.098   4.482   6.300 -0.0666  0.0335 -0.0542
  464MOL0     N62556   5.230   4.468   6.262  0.2680 -0.0233  0.4279
  464MOL0     C62557   5.807   5.523   6.674 -0.3853 -1.4336 -0.2458
  464MOL0     C62558   5.809   5.664   6.708 -0.1298  0.7502  0.5488
  464MOL0     C62559   5.711   6.088   6.820  0.7913  0.0548 -0.4634
  464MOL0     C62560   5.786   6.169   6.902  0.5624 -0.2988 -1.0524
  464MOL0     C62561   5.744   6.306   6.933  0.6201  1.2105 -0.6429
  464MOL0     C62562   5.649   6.369   6.851 -0.5402  0.3809 -0.1774
  464MOL0     O62563   5.627   6.508   6.853 -0.1939 -0.0692  0.3402
  464MOL0     C62564   5.714   6.605   6.910  0.8768  0.2400 -0.3840
  464MOL0     C62565   5.693   6.746   6.863 -0.3192 -0.3555  0.8827
  464MOL0     C62566   5.712   6.768   6.710  0.6381  0.0222 -0.8379
  464MOL0     C62567   5.854   6.736   6.671 -0.5637 -0.1692  0.7238
  464MOL0     C62568   5.961   6.786   6.748 -0.3416  0.3030 -0.1396
  464MOL0     C62569   6.053   6.837   6.807 -0.8240 -0.5775  0.0327
  464MOL0     C62570   5.575   6.287   6.766 -0.0319 -1.0724 -0.1505
  464MOL0     C62571   5.599   6.149   6.752  0.5440  0.1862 -0.1025
  464MOL0     C62572   5.506   6.081   6.650 -0.3090 -0.0029 -0.3724
  464MOL0     H62573   5.505   5.737   6.579 -2.2715 -3.9562 -0.1887
  464MOL0     H62574   5.493   5.500   6.541 -0.6346  0.4001 -1.7521
  464MOL0     H62575   5.735   5.254   6.762  3.2780  1.0062 -2.6915
  464MOL0     H62576   5.567   5.266   6.720  0.4044  0.3004  0.1209
  464MOL0     H62577   5.644   5.025   6.723  0.0817 -0.3409  1.1488
  464MOL0     H62578   5.772   5.060   6.613  0.5219  0.5031  1.2042
  464MOL0     H62579   5.601   5.146   6.434  1.8181 -1.3276 -1.3797
  464MOL0     H62580   5.472   5.088   6.548  0.1779 -1.5132 -0.2188
  464MOL0     H62581   5.681   4.900   6.451 -1.2226 -0.0826 -0.2226
  464MOL0     H62582   5.544   4.859   6.541 -2.7715  1.7727  1.0616
  464MOL0     H62583   5.421   4.983   6.316  0.2692 -0.1452 -4.5525
  464MOL0     H62584   5.590   4.957   6.257 -1.4481  2.3118 -1.0659
  464MOL0     H62585   5.579   4.711   6.335 -0.9153  0.2561  0.5211
  464MOL0     H62586   5.406   4.738   6.363 -0.9652  0.3328  0.1812
  464MOL0     H62587   5.564   4.740   6.107 -0.9906  3.1114  1.1480
  464MOL0     H62588   5.409   4.814   6.106  2.3032  1.9476 -1.3463
  464MOL0     H62589   5.365   4.594   6.019  1.2006  2.0963 -0.8743
  464MOL0     H62590   5.453   4.520   6.153  0.2574  0.4123 -2.1124
  464MOL0     H62591   5.126   4.768   6.147  0.6120  0.5529  0.1625
  464MOL0     H62592   4.893   4.735   6.253 -1.8953 -0.0745  3.7256
  464MOL0     H62593   4.832   4.578   6.216 -0.8073  0.5480 -0.8082
  464MOL0     H62594   4.745   4.660   6.437 -0.1339  3.4861  2.7324
  464MOL0     H62595   4.876   4.555   6.491 -2.8452 -1.5568 -2.4293
  464MOL0     H62596   4.856   4.819   6.555 -1.6473 -3.0689  0.2700
  464MOL0     H62597   4.986   4.828   6.428  0.4250  2.0506  0.9451
  464MOL0     H62598   5.079   4.630   6.565  2.1584  2.8685  0.2116
  464MOL0     H62599   4.956   4.673   6.687 -1.2912 -0.4991 -1.2682
  464MOL0     H62600   5.259   4.952   6.822  2.1742 -0.4548  0.4772
  464MOL0     H62601   5.442   4.881   6.965  1.0603  0.6571 -2.5855
  464MOL0     H62602   5.624   4.253   7.024 -1.2947  1.0246 -0.2466
  464MOL0     H62603   5.817   4.172   7.149  0.4965 -0.3746 -0.0638
  464MOL0     H62604   5.946   4.069   7.367 -1.2672  1.5705  0.8390
  464MOL0     H62605   6.012   4.183   7.235 -0.9580  5.6959  0.8040
  464MOL0     H62606   6.209   4.111   7.352  2.7826  1.3732  2.3769
  464MOL0     H62607   6.185   4.267   7.396  4.3358 -1.0434 -1.2285
  464MOL0     H62608   6.033   4.182   7.593  0.2468  3.9529 -2.0424
  464MOL0     H62609   6.125   4.032   7.579  2.8313  0.1515  0.8687
  464MOL0     H62610   6.267   4.312   7.618 -0.6929  0.7634  1.1521
  464MOL0     H62611   6.335   4.155   7.578 -1.2726 -0.1896 -1.7290
  464MOL0     H62612   6.243   4.071   7.793  0.0819  0.5353  5.1086
  464MOL0     H62613   6.168   4.226   7.831 -0.0211  0.5215 -0.0485
  464MOL0     H62614   6.469   4.154   7.791 -0.6648 -1.4421  1.5163
  464MOL0     H62615   6.416   4.326   7.818 -0.8003  1.2229  0.3139
  464MOL0     H62616   6.378   4.087   8.001 -1.8172  1.6832  4.0148
  464MOL0     H62617   6.342   4.249   8.050 -0.1805 -1.5460  1.3102
  464MOL0     H62618   6.627   4.228   7.952  0.8415 -0.7306  1.5960
  464MOL0     H62619   6.556   4.279   8.097  3.3902 -0.6087  0.8523
  464MOL0     H62620   5.740   4.460   7.464  1.4256  0.2356 -0.2383
  464MOL0     H62621   5.585   4.564   7.335  1.3690  1.9315  1.2482
  464MOL0     H62622   5.327   4.468   6.890  0.1754  0.4214  0.7501
  464MOL0     H62623   5.167   4.542   6.734 -0.1063  0.1314 -0.0271
  464MOL0     H62624   5.895   5.463   6.697  0.8374  0.3080 -0.1404
  464MOL0     H62625   5.901   5.702   6.751  0.2415  0.3308  0.1524
  464MOL0     H62626   5.857   6.140   6.979 -0.7358  4.8292  2.6209
  464MOL0     H62627   5.807   6.363   7.001 -1.0890  5.0170 -2.0018
  464MOL0     H62628   5.816   6.582   6.878  1.1522  3.7657 -2.4899
  464MOL0     H62629   5.697   6.607   7.018 -1.8798  1.6866 -0.7692
  464MOL0     H62630   5.765   6.816   6.907  0.7920 -0.9480  0.0589
  464MOL0     H62631   5.592   6.784   6.883  0.4482  7.5316 -5.1799
  464MOL0     H62632   5.695   6.876   6.704  1.3012  0.0928 -1.5336
  464MOL0     H62633   5.627   6.724   6.657 -1.3265  1.9664  0.5312
  464MOL0     H62634   5.851   6.627   6.664  0.1208 -0.1898  0.6648
  464MOL0     H62635   5.862   6.777   6.570 -0.4283  1.3172  1.3088
  464MOL0     H62636   6.145   6.887   6.833 -2.9535  4.0569 -0.4217
  464MOL0     H62637   5.483   6.319   6.717 -0.7658 -2.0747  0.5141
  464MOL0     H62638   5.529   6.125   6.552  2.6076 -0.5378 -0.0148
  464MOL0     H62639   5.514   5.973   6.635  1.8419 -0.3472  2.5655
  464MOL0     H62640   5.401   6.087   6.678 -1.2240 -0.3600 -3.3133
  465MOL0     O62641   6.798   3.952   6.284  0.8951 -0.1236 -0.3138
  465MOL0     C62642   6.877   4.038   6.338  0.7885 -0.4475 -1.0645
  465MOL0     O62643   6.901   4.057   6.475  0.5506 -0.1439  0.1652
  465MOL0     C62644   6.803   4.043   6.566  0.1889  0.3596  0.7606
  465MOL0     C62645   6.837   4.037   6.695 -0.4144 -0.5703 -0.2279
  465MOL0     C62646   6.734   4.039   6.797 -0.0987 -0.0316 -0.3056
  465MOL0     C62647   6.596   4.041   6.755 -0.7681  0.2638 -0.3032
  465MOL0     O62648   6.491   4.020   6.844 -0.0821 -0.0692 -0.2502
  465MOL0     C62649   6.513   3.956   6.972 -0.2397 -0.3882 -0.0038
  465MOL0     C62650   6.392   3.970   7.069  0.3008 -0.9109 -0.1943
  465MOL0     C62651   6.378   4.119   7.099  0.6373 -0.6520 -1.0599
  465MOL0     C62652   6.255   4.182   7.018  0.2178 -0.1206  0.1777
  465MOL0     C62653   6.208   4.319   7.056 -0.7382 -0.3871  1.0458
  465MOL0     C62654   6.099   4.366   6.955  1.4407 -0.5159  0.5909
  465MOL0     C62655   6.045   4.510   6.966  0.5188  0.3681  0.0014
  465MOL0     C62656   6.063   4.574   7.096 -0.1667 -0.5823  0.9005
  465MOL0     N62657   6.012   4.709   7.092  0.4521 -0.0869 -0.0096
  465MOL0     C62658   5.890   4.750   7.146  0.1620 -0.0218 -0.5054
  465MOL0     C62659   5.891   4.888   7.130  0.1324  0.0297 -0.7057
  465MOL0     C62660   5.777   4.973   7.184 -0.6857  0.4298 -0.0041
  465MOL0     C62661   5.693   5.057   7.085  0.3287 -0.6821  0.4243
  465MOL0     C62662   5.555   5.101   7.138 -0.4663  0.1277 -0.0937
  465MOL0     C62663   5.468   5.160   7.030 -0.4450  0.6523 -0.9210
  465MOL0     O62664   5.525   5.283   6.989 -0.5341 -0.0654  0.2724
  465MOL0     C62665   5.500   5.399   7.048 -0.1744 -0.6031  0.6752
  465MOL0     C62666   5.547   5.511   6.966  0.7402  0.0997  0.1427
  465MOL0     C62667   5.506   5.640   6.996  0.1785  0.9805  0.0321
  465MOL0     C62668   5.433   5.660   7.109 -0.3674  0.6785 -0.0566
  465MOL0     C62669   5.377   5.795   7.135  0.1868 -1.3168 -0.6744
  465MOL0     O62670   5.454   5.896   7.078 -0.7341  0.2831  0.2056
  465MOL0     C62671   5.410   6.024   7.097  0.4289  0.8677  0.0080
  465MOL0     C62672   5.282   6.074   7.058  0.1255 -0.1620 -0.2250
  465MOL0     C62673   5.250   6.207   7.092  0.5842  0.3284  0.4614
  465MOL0     C62674   5.329   6.291   7.168 -0.0576 -0.2563 -0.7898
  465MOL0     O62675   5.266   6.408   7.198 -0.1238 -0.2781 -0.5017
  465MOL0     C62676   5.339   6.526   7.146  0.3085  0.6429  0.6646
  465MOL0     C62677   5.218   6.630   7.144 -0.1368 -0.7529 -0.2653
  465MOL0     C62678   5.259   6.768   7.082 -0.0486  0.3600 -0.2766
  465MOL0     C62679   5.329   6.862   7.174  0.1092  0.3079 -0.9033
  465MOL0     C62680   5.401   6.981   7.113 -0.6314 -0.1616  0.1501
  465MOL0     C62681   5.319   7.028   6.988 -0.0538  0.1651 -0.8981
  465MOL0     C62682   5.400   7.140   6.924  0.1877  0.4406 -1.3355
  465MOL0     C62683   5.517   7.083   6.854  0.0851  0.1828 -0.0670
  465MOL0    Cl62684   5.568   7.234   6.759  0.3310  0.3690  0.3123
  465MOL0     C62685   5.459   6.245   7.206 -0.3398  0.6664 -1.2470
  465MOL0     C62686   5.500   6.110   7.171 -0.7129  0.0926  0.1753
  465MOL0     O62687   5.277   5.819   7.196  0.1874  0.9456 -0.7993
  465MOL0     C62688   5.400   5.552   7.194  0.4621 -0.1408  0.4621
  465MOL0     C62689   5.429   5.424   7.163  0.3644  0.1376  0.3560
  465MOL0     N62690   6.000   4.927   7.062  0.2806  0.0329 -0.9640
  465MOL0     N62691   6.072   4.818   7.038 -0.8839 -1.3266 -0.0072
  465MOL0     C62692   6.562   4.075   6.624  0.0591  0.2266 -0.4494
  465MOL0     C62693   6.667   4.066   6.528 -0.9635 -0.1843  0.0509
  465MOL0     C62694   6.974   4.094   6.256  0.4216 -0.7448  1.9998
  465MOL0     C62695   7.074   4.017   6.194  0.0997 -1.0541 -0.0782
  465MOL0     C62696   7.185   4.077   6.135 -0.6746 -0.4065  0.9172
  465MOL0     C62697   7.179   4.218   6.110  0.3218 -0.6230  0.1600
  465MOL0     O62698   7.265   4.293   6.038 -0.0281 -0.3400 -0.5435
  465MOL0     C62699   7.340   4.227   5.927 -0.0352 -0.5237  0.9713
  465MOL0     C62700   7.375   4.322   5.811  0.0555 -0.1994  0.0393
  465MOL0     C62701   7.244   4.380   5.738  0.9994  0.3017 -0.3371
  465MOL0     C62702   7.159   4.266   5.672  0.7325 -0.1146  0.4456
  465MOL0     C62703   7.218   4.182   5.568 -0.5376  0.2493 -0.0456
  465MOL0     C62704   7.263   4.105   5.486 -0.7119  0.4932  0.0432
  465MOL0     C62705   7.076   4.287   6.165 -0.0270  0.3832  0.9165
  465MOL0     C62706   6.969   4.230   6.233  0.9513 -0.0597 -0.3347
  465MOL0     C62707   6.857   4.317   6.302 -0.3900  0.3952  0.2963
  465MOL0     H62708   6.943   4.025   6.718 -1.3522 -2.2103  4.5955
  465MOL0     H62709   6.760   4.038   6.902  3.3706 -0.6620 -1.0496
  465MOL0     H62710   6.530   3.849   6.962  2.2014  0.0613 -1.3766
  465MOL0     H62711   6.601   3.992   7.026  1.7684 -2.7981 -1.4955
  465MOL0     H62712   6.412   3.914   7.160  0.0126 -0.8459 -0.0891
  465MOL0     H62713   6.298   3.928   7.032 -1.4494  0.4508  2.3899
  465MOL0     H62714   6.470   4.175   7.082  0.1128  0.3453 -0.7190
  465MOL0     H62715   6.361   4.127   7.207  1.3158  1.3838 -1.0667
  465MOL0     H62716   6.287   4.182   6.913 -0.2446  2.9038 -0.0334
  465MOL0     H62717   6.175   4.107   7.027  0.4510 -0.9715 -3.3177
  465MOL0     H62718   6.164   4.308   7.156 -1.7251  3.4114  1.1910
  465MOL0     H62719   6.289   4.393   7.055 -1.7381  0.7370  1.0016
  465MOL0     H62720   6.130   4.345   6.853 -0.1437 -0.6852  0.1315
  465MOL0     H62721   6.008   4.311   6.980 -1.0603  2.6974 -0.7998
  465MOL0     H62722   5.936   4.509   6.956  0.4955  2.3772 -0.4102
  465MOL0     H62723   6.086   4.582   6.894 -1.0069 -0.8906 -2.2403
  465MOL0     H62724   6.007   4.522   7.175 -0.9665  1.7299  1.9377
  465MOL0     H62725   6.169   4.575   7.123  0.8153 -0.3282 -2.4545
  465MOL0     H62726   5.828   4.669   7.182  1.6894 -2.4491 -2.9607
  465MOL0     H62727   5.712   4.903   7.239  1.1200 -0.7535  0.7111
  465MOL0     H62728   5.813   5.052   7.251  0.0956  1.7587 -1.9136
  465MOL0     H62729   5.740   5.145   7.040 -4.3817  1.6043 -0.6110
  465MOL0     H62730   5.665   4.980   7.013 -2.1522  1.4541 -1.0814
  465MOL0     H62731   5.566   5.186   7.205  1.4615  2.2850 -2.9503
  465MOL0     H62732   5.496   5.021   7.185 -2.4677 -0.4060 -3.2457
  465MOL0     H62733   5.365   5.176   7.063 -0.4364 -1.9447  0.5479
  465MOL0     H62734   5.460   5.100   6.940 -2.3293 -1.6472  0.6771
  465MOL0     H62735   5.624   5.497   6.891  0.2558  2.7977 -0.9737
  465MOL0     H62736   5.537   5.727   6.939  3.1374 -1.2650 -2.1373
  465MOL0     H62737   5.219   6.005   7.003 -1.6978  0.8649  0.4767
  465MOL0     H62738   5.152   6.244   7.064  1.7209  1.1619 -2.7992
  465MOL0     H62739   5.420   6.556   7.213  1.4337  0.1295 -0.4277
  465MOL0     H62740   5.372   6.510   7.043 -2.1602 -0.7130 -0.0081
  465MOL0     H62741   5.153   6.580   7.072  3.5191 -0.8697 -3.8679
  465MOL0     H62742   5.171   6.643   7.242 -0.3951 -5.2766  0.4355
  465MOL0     H62743   5.330   6.752   7.000 -1.1015  2.7669 -1.7785
  465MOL0     H62744   5.172   6.820   7.040 -1.6118  0.2008  2.5093
  465MOL0     H62745   5.401   6.796   7.224  0.9116 -0.7217 -3.2566
  465MOL0     H62746   5.245   6.883   7.240 -0.7649 -5.3844  0.3815
  465MOL0     H62747   5.499   6.947   7.079 -0.9656  0.3439 -1.4135
  465MOL0     H62748   5.408   7.059   7.189  1.3133  0.4857 -0.6224
  465MOL0     H62749   5.310   6.941   6.922 -2.1642 -1.2606  1.1271
  465MOL0     H62750   5.222   7.056   7.030  0.2525 -1.6209  1.2094
  465MOL0     H62751   5.441   7.208   6.999  0.1868  1.8676 -2.5799
  465MOL0     H62752   5.330   7.191   6.857 -1.1783  1.3477  0.6929
  465MOL0     H62753   5.579   7.031   6.927 -1.7606 -1.8710  0.1556
  465MOL0     H62754   5.481   7.016   6.775 -0.6453 -2.4244  2.3013
  465MOL0     H62755   5.518   6.306   7.274 -1.3350  1.1600 -0.8027
  465MOL0     H62756   5.592   6.074   7.215 -1.4865 -0.8836  1.0350
  465MOL0     H62757   5.332   5.576   7.275  0.0144  0.3772 -0.0590
  465MOL0     H62758   5.383   5.335   7.205 -0.0331  1.2304  2.3734
  465MOL0     H62759   6.463   4.093   6.584  0.6820 -0.5084 -2.4445
  465MOL0     H62760   6.643   4.084   6.424  3.0091  3.6819 -0.4679
  465MOL0     H62761   7.076   3.909   6.187  0.8042 -1.2627  2.2558
  465MOL0     H62762   7.245   4.004   6.083 -0.2671  0.9594 -0.6210
  465MOL0     H62763   7.273   4.149   5.889  0.7380 -1.1666  0.9136
  465MOL0     H62764   7.429   4.174   5.962  1.4430  1.0387 -0.2797
  465MOL0     H62765   7.438   4.277   5.734  0.1536  1.1918 -0.7206
  465MOL0     H62766   7.433   4.404   5.854 -2.0753 -0.0184  2.8934
  465MOL0     H62767   7.272   4.451   5.661 -0.4433  0.4860 -0.7121
  465MOL0     H62768   7.183   4.437   5.809  0.0377 -0.0257 -0.8814
  465MOL0     H62769   7.131   4.193   5.749  0.3324  0.2613  0.6603
  465MOL0     H62770   7.066   4.314   5.639 -0.0110 -2.2019 -0.7136
  465MOL0     H62771   7.299   4.051   5.400 -0.6814  1.5069 -0.5898
  465MOL0     H62772   7.058   4.392   6.144 -0.7867 -0.2701 -2.2675
  465MOL0     H62773   6.846   4.421   6.269 -1.1544 -0.1832 -1.4281
  465MOL0     H62774   6.763   4.265   6.281 -0.5392  0.0529  1.6891
  465MOL0     H62775   6.880   4.322   6.409  3.8269  1.3026 -0.4701
  466MOL0     O62776   3.340   9.224   1.346 -0.3244 -0.2938 -0.0117
  466MOL0     C62777   3.311   9.144   1.433  0.9780 -1.1840 -0.6144
  466MOL0     O62778   3.229   9.164   1.547 -0.6726  0.0264  0.6653
  466MOL0     C62779   3.124   9.249   1.538  0.7514  0.5547 -1.1040
  466MOL0     C62780   3.058   9.311   1.428  0.0910 -0.1905  0.0681
  466MOL0     C62781   2.957   9.407   1.453 -0.1456  0.3374 -0.4092
  466MOL0     C62782   2.913   9.446   1.576 -0.4072 -0.6727 -0.2255
  466MOL0     O62783   2.816   9.534   1.593 -0.7498 -0.9234  0.2976
  466MOL0     C62784   2.778   9.622   1.490 -0.0578  0.5462 -0.1247
  466MOL0     C62785   2.683   9.732   1.537  0.1530 -0.0340  0.7835
  466MOL0     C62786   2.696   9.785   1.683  0.0549 -0.6873 -0.5012
  466MOL0     C62787   2.837   9.830   1.732  0.2177  0.9010 -0.2263
  466MOL0     C62788   2.822   9.902   1.864 -0.3817  0.4336  0.6463
  466MOL0     C62789   2.842   9.801   1.975 -0.2376 -0.3944  0.5972
  466MOL0     C62790   2.868   9.874   2.110  0.1505  0.1603  0.4819
  466MOL0     C62791   2.851   9.782   2.222 -0.8833  0.5942 -1.3287
  466MOL0     N62792   2.943   9.672   2.232 -0.6750  0.1414  0.8104
  466MOL0     C62793   3.080   9.670   2.223 -0.4270  0.1326 -0.8032
  466MOL0     C62794   3.112   9.550   2.260 -0.1100 -0.3478 -0.3415
  466MOL0     C62795   3.258   9.494   2.258  0.8721 -0.0430 -0.5029
  466MOL0     C62796   3.306   9.392   2.150 -0.4567 -0.5403  0.8159
  466MOL0     C62797   3.235   9.259   2.131 -0.0678 -0.5457 -1.2881
  466MOL0     C62798   3.251   9.172   2.248 -0.7466  0.6653  0.1450
  466MOL0     O62799   3.153   9.069   2.245 -0.2526 -0.5266 -0.0289
  466MOL0     C62800   3.190   8.940   2.258  0.7027 -0.7162 -0.9591
  466MOL0     C62801   3.121   8.862   2.351 -1.2023 -0.3756 -0.7770
  466MOL0     C62802   3.162   8.730   2.378  0.3263 -0.7145 -0.6373
  466MOL0     C62803   3.263   8.669   2.305 -0.6148 -0.2843  0.5846
  466MOL0     C62804   3.316   8.536   2.327  0.4816 -0.3563  0.3482
  466MOL0     O62805   3.259   8.465   2.432  1.0148 -0.5647  0.1391
  466MOL0     C62806   3.285   8.342   2.472  0.2268  1.0232  0.1822
  466MOL0     C62807   3.374   8.245   2.416  0.1895 -0.7046  0.3657
  466MOL0     C62808   3.396   8.120   2.472 -0.7548 -1.2426 -0.6452
  466MOL0     C62809   3.342   8.087   2.593 -0.1072 -0.2913  0.1921
  466MOL0     O62810   3.368   7.973   2.653 -0.0581  0.3289  0.6227
  466MOL0     C62811   3.397   7.858   2.576  0.3639  0.2764  0.4423
  466MOL0     C62812   3.317   7.735   2.635  0.2409 -0.5073 -1.0541
  466MOL0     C62813   3.295   7.749   2.795 -0.6394  0.8652 -0.8096
  466MOL0     C62814   3.228   7.623   2.845  0.7254  0.0380  0.7765
  466MOL0     C62815   3.277   7.568   2.985  0.0366  0.2725  1.1870
  466MOL0     C62816   3.368   7.446   2.947  0.3270  0.4137 -0.8651
  466MOL0     C62817   3.504   7.481   2.884 -0.3232 -0.3605  0.0300
  466MOL0     C62818   3.584   7.368   2.827  0.2447  0.1026 -1.0027
  466MOL0    Cl62819   3.528   7.342   2.663  0.1307 -0.8424  0.3546
  466MOL0     C62820   3.247   8.178   2.649  0.6415  0.2045  0.3727
  466MOL0     C62821   3.222   8.301   2.589  0.5845  0.2112  0.3697
  466MOL0     O62822   3.400   8.494   2.250 -0.6393 -0.6340  0.3049
  466MOL0     C62823   3.327   8.748   2.212  0.1696 -0.1693  0.1716
  466MOL0     C62824   3.284   8.878   2.185 -0.0571  0.0486  1.1921
  466MOL0     N62825   2.999   9.482   2.302  0.2750 -0.3033 -0.4179
  466MOL0     N62826   2.897   9.557   2.278 -0.2761  0.3534  0.1493
  466MOL0     C62827   2.979   9.396   1.690 -0.0359 -0.2952  0.3300
  466MOL0     C62828   3.086   9.307   1.662 -0.3710  0.1043  0.3262
  466MOL0     C62829   3.364   9.010   1.407  0.1606  0.2493 -0.0705
  466MOL0     C62830   3.384   8.965   1.273  0.1369 -0.0528  0.1549
  466MOL0     C62831   3.441   8.843   1.244 -0.2828  0.3649  0.3437
  466MOL0     C62832   3.474   8.751   1.343  0.7772 -0.5656  0.4781
  466MOL0     O62833   3.514   8.626   1.307 -0.5559  0.4325  0.5367
  466MOL0     C62834   3.421   8.514   1.318 -1.3249  0.6302 -0.6529
  466MOL0     C62835   3.415   8.456   1.459 -0.2312 -0.2290 -0.0034
  466MOL0     C62836   3.550   8.430   1.516  0.2843  0.0700  0.6060
  466MOL0     C62837   3.554   8.390   1.665  0.3127  0.0897  0.7421
  466MOL0     C62838   3.505   8.496   1.756  1.0528 -0.6680  0.5130
  466MOL0     C62839   3.456   8.577   1.832  0.1809 -0.2684  0.1792
  466MOL0     C62840   3.460   8.793   1.474  0.9475 -0.2607 -0.3449
  466MOL0     C62841   3.410   8.920   1.510  0.1650  0.3878  0.2243
  466MOL0     C62842   3.416   8.953   1.657 -0.0674  0.2791  0.6089
  466MOL0     H62843   3.080   9.269   1.330  1.1498 -0.2226  0.3096
  466MOL0     H62844   2.897   9.435   1.367  0.1580  0.7222 -0.4963
  466MOL0     H62845   2.868   9.678   1.460 -1.0967  2.3339 -0.0583
  466MOL0     H62846   2.721   9.569   1.414 -1.0437  1.5503 -0.1241
  466MOL0     H62847   2.582   9.695   1.518  1.7503 -2.8127 -3.6666
  466MOL0     H62848   2.692   9.820   1.473 -0.8527  0.4133  1.2436
  466MOL0     H62849   2.671   9.711   1.759  1.4713  0.7677  1.4654
  466MOL0     H62850   2.616   9.859   1.694 -1.4148 -2.1969 -0.6021
  466MOL0     H62851   2.898   9.741   1.749  0.8071  1.3533  0.0497
  466MOL0     H62852   2.879   9.899   1.657 -0.6367  1.9988  0.2667
  466MOL0     H62853   2.895   9.984   1.868 -0.8783  1.0368 -1.4121
  466MOL0     H62854   2.723   9.947   1.874 -0.9298 -1.0839  2.6812
  466MOL0     H62855   2.754   9.738   1.988  0.4933 -1.4729  0.5292
  466MOL0     H62856   2.927   9.739   1.944 -2.9619 -2.7376 -3.1040
  466MOL0     H62857   2.798   9.958   2.119 -2.4330 -1.7305 -0.6120
  466MOL0     H62858   2.971   9.909   2.118 -0.0205  0.6614  0.5574
  466MOL0     H62859   2.857   9.845   2.311  3.6882 -2.1200  0.6194
  466MOL0     H62860   2.755   9.729   2.217 -0.8811  0.3663  0.5806
  466MOL0     H62861   3.142   9.753   2.189 -0.7906  0.9882  0.5586
  466MOL0     H62862   3.330   9.576   2.251 -0.5913  1.5235  1.3133
  466MOL0     H62863   3.277   9.445   2.354  1.6735  1.5966  0.2114
  466MOL0     H62864   3.310   9.439   2.051  1.1938 -1.6517  0.3153
  466MOL0     H62865   3.408   9.365   2.178  0.3432  0.8745 -0.5610
  466MOL0     H62866   3.276   9.205   2.045 -1.2956  2.2228 -3.7730
  466MOL0     H62867   3.128   9.273   2.114  0.1546  1.2214 -1.4106
  466MOL0     H62868   3.248   9.225   2.343  3.1425  2.6881 -0.6584
  466MOL0     H62869   3.342   9.110   2.249 -2.3898 -1.9139 -0.7835
  466MOL0     H62870   3.044   8.908   2.412 -0.9975  0.3402 -1.0541
  466MOL0     H62871   3.113   8.667   2.452  2.9242  1.3826  3.2032
  466MOL0     H62872   3.431   8.261   2.324  1.9818 -2.0924  1.1705
  466MOL0     H62873   3.451   8.053   2.406 -2.2656 -3.3387  0.1397
  466MOL0     H62874   3.364   7.862   2.472 -3.9325  3.2022  1.6437
  466MOL0     H62875   3.503   7.833   2.582  0.2621 -0.0603  0.8857
  466MOL0     H62876   3.218   7.728   2.591 -0.7208 -3.4010  1.2156
  466MOL0     H62877   3.350   7.634   2.608 -1.8534 -2.3380  2.5261
  466MOL0     H62878   3.395   7.758   2.839  0.0255 -0.0162 -2.0871
  466MOL0     H62879   3.238   7.840   2.816 -0.4604  0.8884 -0.4172
  466MOL0     H62880   3.224   7.551   2.763 -0.8851  0.2234  0.6682
  466MOL0     H62881   3.124   7.656   2.850  1.0691  1.3650 -0.2839
  466MOL0     H62882   3.183   7.546   3.036  0.1871 -0.2758  1.2355
  466MOL0     H62883   3.333   7.644   3.041  2.0189 -1.9969  2.4832
  466MOL0     H62884   3.367   7.397   3.045 -1.4093  2.0155 -0.0104
  466MOL0     H62885   3.312   7.385   2.876  0.0504 -0.9734  0.5053
  466MOL0     H62886   3.570   7.526   2.958  2.7274 -1.4542 -1.8306
  466MOL0     H62887   3.491   7.559   2.809 -1.1796 -0.0613  0.4714
  466MOL0     H62888   3.687   7.405   2.825  0.9982 -1.4665  2.0357
  466MOL0     H62889   3.583   7.288   2.901 -1.4843  2.8413  2.2302
  466MOL0     H62890   3.209   8.150   2.747  0.2835 -0.7105 -0.0104
  466MOL0     H62891   3.157   8.380   2.625  1.5875  1.7695 -1.0234
  466MOL0     H62892   3.402   8.706   2.145 -2.0734 -0.3287 -2.3791
  466MOL0     H62893   3.332   8.943   2.113  1.0225 -1.7462  0.2031
  466MOL0     H62894   2.939   9.421   1.788  1.0994  0.1648  0.6828
  466MOL0     H62895   3.148   9.273   1.745 -1.0560  1.9674  1.6679
  466MOL0     H62896   3.356   9.044   1.205  0.7669 -0.1310 -0.2052
  466MOL0     H62897   3.453   8.798   1.146 -1.0713 -1.2150  0.9405
  466MOL0     H62898   3.476   8.446   1.253  0.0634  0.2042  0.9049
  466MOL0     H62899   3.318   8.536   1.288 -2.3536 -1.7978  0.7952
  466MOL0     H62900   3.368   8.359   1.444  5.2487 -3.0085 -1.7974
  466MOL0     H62901   3.350   8.520   1.519  1.4742  1.7527 -0.1212
  466MOL0     H62902   3.629   8.504   1.498  3.5075 -2.4996  2.9665
  466MOL0     H62903   3.591   8.344   1.462 -0.7322  0.5524 -1.0435
  466MOL0     H62904   3.500   8.295   1.668  3.2066 -1.6650  1.8207
  466MOL0     H62905   3.661   8.377   1.683  0.2702 -1.0466  0.2186
  466MOL0     H62906   3.400   8.649   1.888  2.3369  1.9302 -0.3061
  466MOL0     H62907   3.463   8.719   1.554  0.3916 -0.3877 -0.4340
  466MOL0     H62908   3.326   9.010   1.683 -0.8640  0.4978 -2.2652
  466MOL0     H62909   3.405   8.865   1.722 -2.1243 -0.9113 -1.2237
  466MOL0     H62910   3.507   9.010   1.678  0.9883 -0.6800 -1.1701
  467MOL0     O62911   0.719   1.707   1.124  0.4409  0.3425 -0.5917
  467MOL0     C62912   0.747   1.824   1.162 -0.7332  1.0141  0.4783
  467MOL0     O62913   0.719   1.932   1.093 -0.2353  0.1309 -0.4133
  467MOL0     C62914   0.642   1.918   0.986 -0.1217 -0.6547 -1.0854
  467MOL0     C62915   0.683   1.903   0.853 -0.3376  0.7205 -0.5893
  467MOL0     C62916   0.593   1.884   0.746 -0.5964  0.4774  0.2621
  467MOL0     C62917   0.451   1.890   0.762 -0.6523 -0.2367  0.0755
  467MOL0     O62918   0.360   1.871   0.673 -0.6684  0.7143  0.4192
  467MOL0     C62919   0.402   1.869   0.538  0.1091 -0.3632 -0.5909
  467MOL0     C62920   0.278   1.827   0.476 -0.2843  0.4701  1.0422
  467MOL0     C62921   0.252   1.674   0.488 -0.9506  0.4344  0.0508
  467MOL0     C62922   0.135   1.637   0.410 -0.2294  0.2507  0.4655
  467MOL0     C62923   0.084   1.493   0.410  0.3497  0.1907 -0.1289
  467MOL0     C62924   0.189   1.380   0.420 -0.0302 -0.4176  0.7889
  467MOL0     C62925   0.118   1.244   0.390 -0.2213 -0.0379  0.3532
  467MOL0     C62926   0.241   1.153   0.347  0.1995 -0.2664 -0.3136
  467MOL0     N62927   0.224   1.019   0.402  0.5261  0.6080  0.0903
  467MOL0     C62928   0.290   0.960   0.515  0.5266 -0.0142  1.3416
  467MOL0     C62929   0.248   0.831   0.512  0.6394  0.2039  0.0285
  467MOL0     C62930   0.277   0.723   0.610  1.1454  0.6924  0.3182
  467MOL0     C62931   0.142   0.651   0.653  0.1485  0.0025 -0.3327
  467MOL0     C62932   0.189   0.565   0.765  0.0502  0.2578 -0.5827
  467MOL0     C62933   0.163   0.621   0.899  0.3175  0.0681 -1.0433
  467MOL0     O62934   0.215   0.760   0.918 -0.3239  0.7536  0.2932
  467MOL0     C62935   0.223   0.824   1.033  0.4816 -0.5615  0.1875
  467MOL0     C62936   0.281   0.955   1.032  0.1071  0.6937 -0.5122
  467MOL0     C62937   0.288   1.034   1.146 -0.8679 -1.2860 -0.5122
  467MOL0     C62938   0.240   0.980   1.272 -0.0581 -0.5967  0.8921
  467MOL0     C62939   0.250   1.058   1.403  0.4355 -0.3660 -0.0514
  467MOL0     O62940   0.307   1.178   1.405  0.2639  0.6758  0.2171
  467MOL0     C62941   0.310   1.248   1.522 -0.5556 -0.4724 -0.6830
  467MOL0     C62942   0.207   1.336   1.552  0.1883  0.5006 -0.0594
  467MOL0     C62943   0.200   1.402   1.671 -0.1141 -0.2047 -0.2794
  467MOL0     C62944   0.295   1.379   1.766 -0.7160 -0.8556 -0.8782
  467MOL0     O62945   0.274   1.443   1.887  0.1334 -0.1000  0.5610
  467MOL0     C62946   0.326   1.394   2.016 -0.0856  0.3133  0.9167
  467MOL0     C62947   0.252   1.445   2.137 -0.4596  0.7688 -0.1609
  467MOL0     C62948   0.340   1.550   2.205 -0.0584 -0.4260  0.0912
  467MOL0     C62949   0.263   1.641   2.304  0.6546 -0.2017  0.1687
  467MOL0     C62950   0.245   1.559   2.437 -1.0926 -0.0071  0.1986
  467MOL0     C62951   0.174   1.634   2.555  0.1404 -0.1030  0.3424
  467MOL0     C62952   0.162   1.574   2.696  0.4321  0.5579 -0.3354
  467MOL0     C62953   0.303   1.560   2.758 -0.1079 -0.9650 -0.7934
  467MOL0    Cl62954   0.293   1.478   2.910  0.3721  0.8773  0.2736
  467MOL0     C62955   0.402   1.288   1.743 -0.3433  0.8623  0.0040
  467MOL0     C62956   0.412   1.222   1.621 -0.9474 -0.0534 -0.0749
  467MOL0     O62957   0.211   0.995   1.504  0.7058 -0.2405 -0.9484
  467MOL0     C62958   0.186   0.848   1.277 -0.6694 -0.5673 -0.6961
  467MOL0     C62959   0.167   0.778   1.156 -0.8122 -0.4069 -0.4484
  467MOL0     N62960   0.149   0.825   0.419  0.3823  0.2203  0.3168
  467MOL0     N62961   0.138   0.928   0.345  0.9961 -0.5230 -0.5681
  467MOL0     C62962   0.414   1.903   0.897 -0.3866 -0.1126  0.6015
  467MOL0     C62963   0.502   1.922   1.002  0.5124 -0.6525  0.0022
  467MOL0     C62964   0.830   1.837   1.285 -0.3473  0.4668 -0.7855
  467MOL0     C62965   0.804   1.958   1.360  1.1311 -0.0960  0.3384
  467MOL0     C62966   0.842   1.967   1.494 -0.6554  0.1274 -0.3752
  467MOL0     C62967   0.917   1.859   1.557 -0.1449 -0.3007  1.6640
  467MOL0     O62968   0.931   1.872   1.692  0.2812 -0.0513 -0.3702
  467MOL0     C62969   0.989   1.769   1.776  0.3234  0.6153  0.1181
  467MOL0     C62970   1.147   1.773   1.773  0.3036 -0.1248  0.8245
  467MOL0     C62971   1.207   1.630   1.792 -0.5264 -0.5729 -0.1889
  467MOL0     C62972   1.364   1.623   1.799 -0.6719 -0.2555  0.0314
  467MOL0     C62973   1.414   1.687   1.912  0.0562 -0.1749 -0.4146
  467MOL0     C62974   1.464   1.747   2.006 -0.1814 -0.9479 -0.3407
  467MOL0     C62975   0.952   1.745   1.487  0.6151 -0.9134 -0.4367
  467MOL0     C62976   0.900   1.731   1.352 -0.1543  1.2514  0.2611
  467MOL0     C62977   0.949   1.610   1.271  0.2608  0.4370 -0.0184
  467MOL0     H62978   0.788   1.896   0.830 -0.1848  1.2398 -0.0796
  467MOL0     H62979   0.632   1.858   0.648 -2.5693 -1.3549 -0.1029
  467MOL0     H62980   0.436   1.970   0.515  2.7615 -0.7668  1.0545
  467MOL0     H62981   0.478   1.790   0.528  0.2364 -0.3205 -0.0123
  467MOL0     H62982   0.292   1.852   0.370 -3.3217 -2.6864 -0.3322
  467MOL0     H62983   0.195   1.888   0.514 -1.3733 -0.3314  0.0210
  467MOL0     H62984   0.228   1.640   0.589 -2.5205  1.9417  0.2121
  467MOL0     H62985   0.333   1.610   0.451 -1.0306  0.6983 -0.5877
  467MOL0     H62986   0.050   1.694   0.449 -1.4070 -1.7409  0.9907
  467MOL0     H62987   0.140   1.677   0.309 -1.3814  1.7251  0.9456
  467MOL0     H62988   0.020   1.485   0.499  1.7626 -0.3986  0.8727
  467MOL0     H62989   0.032   1.483   0.314  1.3935 -1.0135 -0.6043
  467MOL0     H62990   0.275   1.405   0.357  0.8501 -2.1537  1.2322
  467MOL0     H62991   0.221   1.370   0.524 -2.3926 -2.8384  1.3819
  467MOL0     H62992   0.045   1.256   0.309  4.8015  1.6733 -4.6408
  467MOL0     H62993   0.086   1.200   0.485  1.6309 -1.3999  0.4176
  467MOL0     H62994   0.255   1.156   0.239 -0.2243 -2.1966 -0.4535
  467MOL0     H62995   0.332   1.205   0.379 -1.1890  1.9867  0.2157
  467MOL0     H62996   0.366   1.004   0.578  2.5976  2.7989 -2.6808
  467MOL0     H62997   0.356   0.661   0.567 -0.3854  0.7658 -2.8763
  467MOL0     H62998   0.310   0.772   0.701  0.0622  2.7673 -0.3447
  467MOL0     H62999   0.058   0.716   0.683  0.2385  0.4512 -1.0252
  467MOL0     H63000   0.112   0.587   0.569 -2.2304  1.2351 -0.5175
  467MOL0     H63001   0.297   0.549   0.752  0.3434  2.6012 -1.7224
  467MOL0     H63002   0.140   0.468   0.754  0.0195  0.1578  0.3151
  467MOL0     H63003   0.192   0.552   0.980  0.3745  0.9507 -0.2957
  467MOL0     H63004   0.054   0.619   0.908  0.3004 -0.5973 -1.3145
  467MOL0     H63005   0.322   0.999   0.942  1.5895 -0.5619 -0.4982
  467MOL0     H63006   0.335   1.131   1.141 -0.5722 -1.4706 -1.4439
  467MOL0     H63007   0.136   1.355   1.472 -0.3638  1.7911  0.7176
  467MOL0     H63008   0.121   1.471   1.698  2.1782  2.1779  0.8590
  467MOL0     H63009   0.322   1.285   2.022 -1.0959  0.2492 -0.4392
  467MOL0     H63010   0.432   1.422   2.020 -0.4659  1.8992  0.6721
  467MOL0     H63011   0.158   1.487   2.100 -1.6889 -1.6802  0.0310
  467MOL0     H63012   0.230   1.363   2.205  2.2668 -2.5577 -2.8889
  467MOL0     H63013   0.420   1.495   2.255  2.9513  0.5400 -3.2419
  467MOL0     H63014   0.379   1.625   2.135 -0.9447  0.7987  0.8729
  467MOL0     H63015   0.164   1.665   2.263  0.7773  1.6825  0.8708
  467MOL0     H63016   0.310   1.739   2.313 -0.6798  0.8998 -3.2392
  467MOL0     H63017   0.347   1.548   2.476 -0.2464  0.7195 -1.6722
  467MOL0     H63018   0.205   1.458   2.426 -1.0147 -0.1730  1.3585
  467MOL0     H63019   0.225   1.729   2.573 -0.7357  0.0302  2.4431
  467MOL0     H63020   0.076   1.668   2.522  0.1401  1.5660  1.8809
  467MOL0     H63021   0.099   1.485   2.700 -1.1283  1.6568  0.8046
  467MOL0     H63022   0.104   1.651   2.748 -1.7573  0.2593 -2.1815
  467MOL0     H63023   0.369   1.497   2.697  0.5032 -1.2489  0.1398
  467MOL0     H63024   0.363   1.648   2.783 -0.3231 -1.5328  2.0589
  467MOL0     H63025   0.474   1.265   1.820  0.8040  1.2084 -0.9464
  467MOL0     H63026   0.487   1.146   1.602  2.1695  2.4406  1.2942
  467MOL0     H63027   0.166   0.799   1.371  0.3730 -1.0557 -0.7199
  467MOL0     H63028   0.109   0.686   1.148 -0.7873 -0.5126  0.4040
  467MOL0     H63029   0.306   1.887   0.900 -0.7567  2.1587  0.9175
  467MOL0     H63030   0.464   1.929   1.103 -3.8917  3.4316 -1.5725
  467MOL0     H63031   0.751   2.037   1.308  2.5731 -0.6765 -2.1248
  467MOL0     H63032   0.802   2.048   1.554  1.2183  1.4856 -0.8654
  467MOL0     H63033   0.950   1.671   1.749  1.2446  0.3262 -0.1901
  467MOL0     H63034   0.957   1.800   1.876  2.9356 -0.0148  1.2447
  467MOL0     H63035   1.173   1.848   1.849  0.4676  0.0478  0.5989
  467MOL0     H63036   1.185   1.820   1.682 -2.5850  3.0480  1.0122
  467MOL0     H63037   1.188   1.561   1.709  0.2109 -0.1501 -0.7225
  467MOL0     H63038   1.179   1.590   1.890  3.2130  0.2921  1.4016
  467MOL0     H63039   1.394   1.519   1.812 -0.6686 -0.4005 -1.0369
  467MOL0     H63040   1.402   1.666   1.706 -1.6471  0.5516 -0.0092
  467MOL0     H63041   1.524   1.805   2.074  1.8553 -3.2726  0.0051
  467MOL0     H63042   1.014   1.675   1.542  2.3011  1.5848  1.0473
  467MOL0     H63043   0.867   1.537   1.270  2.4928 -2.3491 -3.6055
  467MOL0     H63044   0.965   1.631   1.165 -1.6372  1.3847 -0.1681
  467MOL0     H63045   1.037   1.570   1.321 -0.3806 -2.3637 -0.9592
  468MOL0     O63046   8.973   4.629   1.683 -0.8029 -0.5489 -0.3445
  468MOL0     C63047   8.964   4.502   1.692 -0.1308 -0.4831  0.9112
  468MOL0     O63048   8.964   4.428   1.800  0.1306 -0.5657  0.0223
  468MOL0     C63049   8.982   4.481   1.929  0.8490  0.5505 -0.1607
  468MOL0     C63050   8.913   4.420   2.034  0.5374  0.0507  0.5319
  468MOL0     C63051   8.922   4.461   2.164  0.9931 -0.2975  0.5765
  468MOL0     C63052   9.001   4.576   2.198  1.0751 -0.1157 -1.4930
  468MOL0     O63053   9.018   4.625   2.326  0.0997 -0.0601  0.1474
  468MOL0     C63054   8.952   4.556   2.438  0.2924 -0.0851 -0.2493
  468MOL0     C63055   9.019   4.592   2.567  0.7970  0.0257  0.1082
  468MOL0     C63056   8.944   4.537   2.696  0.6051 -0.4435 -0.8931
  468MOL0     C63057   8.790   4.569   2.700 -0.1144  0.0291  0.2654
  468MOL0     C63058   8.739   4.537   2.844  0.7619 -0.0252  0.0620
  468MOL0     C63059   8.587   4.543   2.856  0.8616  0.9422  0.0157
  468MOL0     C63060   8.558   4.488   3.000  0.9556 -0.0352 -0.0069
  468MOL0     C63061   8.432   4.568   3.077  0.0523 -0.3353  0.9688
  468MOL0     N63062   8.404   4.515   3.214  0.1335 -0.0828 -0.0688
  468MOL0     C63063   8.282   4.515   3.270 -0.0276 -0.4041  0.0705
  468MOL0     C63064   8.290   4.422   3.367  1.3544 -0.6384 -0.2976
  468MOL0     C63065   8.169   4.377   3.458  0.4258  0.3339 -1.0549
  468MOL0     C63066   8.086   4.281   3.380 -0.8432 -0.1212  0.4757
  468MOL0     C63067   7.977   4.233   3.473 -0.7219  0.2641 -0.0716
  468MOL0     C63068   7.854   4.180   3.416  0.8353 -0.1382  0.1506
  468MOL0     O63069   7.873   4.060   3.334  0.8705 -0.1401 -0.0951
  468MOL0     C63070   7.891   3.938   3.397  0.1309 -0.2499 -0.8969
  468MOL0     C63071   7.928   3.838   3.304  1.3515 -0.9700 -0.5599
  468MOL0     C63072   7.953   3.714   3.366  0.0919  0.2143  0.4738
  468MOL0     C63073   7.938   3.689   3.509  0.7645  0.2983  1.2261
  468MOL0     C63074   7.972   3.553   3.559 -0.1883  0.5433  0.0572
  468MOL0     O63075   8.013   3.457   3.466 -0.2833 -0.2295  0.2506
  468MOL0     C63076   8.039   3.323   3.501 -0.7622 -0.8905  0.3237
  468MOL0     C63077   8.161   3.287   3.548  0.9908 -0.0485 -0.3360
  468MOL0     C63078   8.183   3.159   3.576  0.1027 -0.8584  0.0901
  468MOL0     C63079   8.086   3.054   3.555 -0.2462 -0.5286 -0.0015
  468MOL0     O63080   8.117   2.934   3.604 -1.0634 -0.6390  0.4028
  468MOL0     C63081   8.068   2.811   3.553  0.0710  0.1851 -0.5515
  468MOL0     C63082   8.113   2.695   3.642  0.0764 -0.4309  0.8303
  468MOL0     C63083   8.007   2.653   3.730 -0.0906 -0.6417 -0.5662
  468MOL0     C63084   8.035   2.529   3.822 -0.2707  0.4211 -0.2107
  468MOL0     C63085   7.914   2.484   3.906 -0.5084  0.2246  0.1332
  468MOL0     C63086   7.882   2.589   4.015  0.2525 -0.7567  0.1023
  468MOL0     C63087   7.764   2.546   4.106 -0.8413 -0.2583 -0.0791
  468MOL0     C63088   7.744   2.662   4.203  0.2988  0.1090  0.1160
  468MOL0    Cl63089   7.882   2.674   4.321 -0.3362  0.2549  0.1501
  468MOL0     C63090   7.969   3.086   3.485 -0.1202  0.0772 -0.6535
  468MOL0     C63091   7.946   3.222   3.455 -0.8176 -0.0349  0.5659
  468MOL0     O63092   7.956   3.526   3.676 -0.8654 -0.3299  0.0052
  468MOL0     C63093   7.917   3.793   3.596 -0.0030 -0.0746  0.7314
  468MOL0     C63094   7.896   3.917   3.540  0.7467 -0.1411 -1.6865
  468MOL0     N63095   8.426   4.385   3.380  0.0933  0.6762  0.5063
  468MOL0     N63096   8.492   4.432   3.284  0.1168 -0.2883 -0.3287
  468MOL0     C63097   9.078   4.619   2.096  0.1023 -0.2591 -1.2721
  468MOL0     C63098   9.067   4.579   1.968 -0.0423  0.0780  0.0680
  468MOL0     C63099   8.940   4.435   1.563 -0.4460 -0.1645  0.3589
  468MOL0     C63100   8.997   4.501   1.448  0.5116 -1.1631 -0.1584
  468MOL0     C63101   8.978   4.456   1.319 -0.4591 -0.0993  0.1929
  468MOL0     C63102   8.899   4.348   1.299 -0.4970 -0.2289  0.5193
  468MOL0     O63103   8.860   4.315   1.169  0.5565 -0.0361  0.1037
  468MOL0     C63104   8.822   4.411   1.066  0.4679 -0.0162  0.0763
  468MOL0     C63105   8.703   4.509   1.106 -0.5512 -0.2303 -0.2478
  468MOL0     C63106   8.658   4.597   0.991 -0.2398  0.5046 -0.1005
  468MOL0     C63107   8.755   4.713   0.975 -0.2724 -0.9206  0.3010
  468MOL0     C63108   8.695   4.806   0.879 -0.1672 -0.3416  0.4712
  468MOL0     C63109   8.635   4.879   0.802  0.1336 -0.9076  0.5814
  468MOL0     C63110   8.854   4.276   1.402  0.8898  0.2629 -0.1935
  468MOL0     C63111   8.874   4.306   1.534 -0.6365 -0.3584  0.1379
  468MOL0     C63112   8.815   4.220   1.640 -0.6146 -0.1553  0.9938
  468MOL0     H63113   8.860   4.334   1.997 -0.3195  1.1378 -0.8367
  468MOL0     H63114   8.859   4.408   2.235 -0.2051 -1.9740 -1.6214
  468MOL0     H63115   8.845   4.578   2.443 -0.0421 -1.6997  0.3125
  468MOL0     H63116   8.966   4.452   2.408  3.6601  0.4172 -0.8065
  468MOL0     H63117   9.033   4.700   2.561 -3.3474  0.6802 -0.7458
  468MOL0     H63118   9.115   4.539   2.567 -0.3535 -2.1865 -0.0965
  468MOL0     H63119   8.994   4.577   2.784 -3.2464 -0.6600  1.6132
  468MOL0     H63120   8.953   4.429   2.700  1.3978 -0.3712 -0.6397
  468MOL0     H63121   8.778   4.676   2.682  0.9957  0.4383  1.6986
  468MOL0     H63122   8.732   4.511   2.628 -2.0087  0.3526  1.4511
  468MOL0     H63123   8.763   4.432   2.863 -0.7036 -0.5150 -0.6191
  468MOL0     H63124   8.791   4.594   2.922 -0.0049 -2.2637  2.3676
  468MOL0     H63125   8.542   4.641   2.840  2.3958  1.9592  1.6463
  468MOL0     H63126   8.535   4.478   2.784 -0.2179  1.9561 -0.1389
  468MOL0     H63127   8.638   4.508   3.072  0.5900 -0.0796  0.4254
  468MOL0     H63128   8.528   4.383   3.001 -0.0380  0.2343  0.0227
  468MOL0     H63129   8.459   4.674   3.085 -2.7726  0.3726  2.0951
  468MOL0     H63130   8.339   4.563   3.021 -0.1151 -3.8500  1.3839
  468MOL0     H63131   8.191   4.567   3.244  0.5139 -0.4464 -2.0808
  468MOL0     H63132   8.207   4.310   3.536 -3.2932 -2.3913 -1.3065
  468MOL0     H63133   8.101   4.456   3.493 -0.5786  0.8192 -3.8509
  468MOL0     H63134   8.037   4.338   3.300 -0.1266  3.4422  2.3783
  468MOL0     H63135   8.144   4.196   3.343 -0.3198  0.5667 -0.3219
  468MOL0     H63136   7.947   4.306   3.549 -1.3621  0.0037 -0.0665
  468MOL0     H63137   8.021   4.149   3.527  0.8816  0.4537 -1.0177
  468MOL0     H63138   7.805   4.258   3.356 -1.4897 -1.4266  0.2827
  468MOL0     H63139   7.778   4.152   3.489  0.8930  1.2753  0.7859
  468MOL0     H63140   7.935   3.865   3.199 -0.9972  0.8052 -0.3575
  468MOL0     H63141   7.978   3.626   3.307  0.7487  1.4436 -1.1858
  468MOL0     H63142   8.235   3.358   3.583  1.3150 -0.2444 -0.6227
  468MOL0     H63143   8.277   3.132   3.623  1.2610  1.4861 -0.7222
  468MOL0     H63144   7.961   2.804   3.534  0.1243  0.6832 -1.0318
  468MOL0     H63145   8.107   2.780   3.456 -1.2521  2.2800 -1.8172
  468MOL0     H63146   8.138   2.613   3.574 -2.2001  2.1276 -3.5345
  468MOL0     H63147   8.199   2.717   3.705  1.8390 -3.7408 -0.1746
  468MOL0     H63148   7.967   2.737   3.787  0.3591 -0.2885 -0.7632
  468MOL0     H63149   7.926   2.621   3.663  0.5425 -3.1045 -0.2453
  468MOL0     H63150   8.102   2.558   3.904  0.5346  1.3633 -1.1682
  468MOL0     H63151   8.068   2.440   3.768 -2.5159  0.0019 -1.0047
  468MOL0     H63152   7.939   2.389   3.954  3.6432  0.2372 -1.6384
  468MOL0     H63153   7.831   2.475   3.834 -0.1660  0.8158 -0.3492
  468MOL0     H63154   7.968   2.608   4.079 -1.7560 -2.9064  3.8113
  468MOL0     H63155   7.852   2.684   3.970  0.1167 -0.6479  0.4192
  468MOL0     H63156   7.777   2.455   4.166  1.0340  0.9684  1.5416
  468MOL0     H63157   7.678   2.538   4.039 -0.1495 -1.4869 -0.8570
  468MOL0     H63158   7.742   2.754   4.143  2.2888 -1.2143 -2.1632
  468MOL0     H63159   7.645   2.649   4.248 -0.5531  2.2681 -0.9502
  468MOL0     H63160   7.896   3.006   3.474  0.2366 -0.7185  2.0635
  468MOL0     H63161   7.854   3.258   3.411 -0.9808 -0.2179  0.7581
  468MOL0     H63162   7.914   3.760   3.699 -1.4401 -3.7935 -0.3333
  468MOL0     H63163   7.898   3.999   3.611  0.0135 -1.7060  0.2305
  468MOL0     H63164   9.143   4.706   2.105  1.1973 -0.9654 -2.1819
  468MOL0     H63165   9.126   4.610   1.883  0.6594 -0.2791  0.4110
  468MOL0     H63166   9.053   4.593   1.465 -0.1230 -0.7333 -0.3710
  468MOL0     H63167   9.012   4.516   1.234  0.5352 -1.2186 -0.2355
  468MOL0     H63168   8.791   4.349   0.981  0.3218  1.6450 -1.1371
  468MOL0     H63169   8.905   4.476   1.037  1.3051 -1.9806 -2.2954
  468MOL0     H63170   8.725   4.554   1.203  0.2247 -0.9761 -0.0671
  468MOL0     H63171   8.616   4.444   1.123  0.3313 -1.2316  0.5349
  468MOL0     H63172   8.556   4.634   1.006  0.3645  2.0183  0.3904
  468MOL0     H63173   8.664   4.533   0.902 -1.4785 -1.2661  1.0203
  468MOL0     H63174   8.776   4.758   1.073  0.0164  0.0175 -0.1813
  468MOL0     H63175   8.844   4.671   0.926 -0.4639 -2.0799  0.8943
  468MOL0     H63176   8.597   4.954   0.736  1.3910 -1.3682 -0.7325
  468MOL0     H63177   8.802   4.188   1.365 -0.9610  1.5329 -0.7635
  468MOL0     H63178   8.742   4.160   1.584 -2.7494  2.9169  0.2103
  468MOL0     H63179   8.892   4.156   1.683 -0.8868 -0.8270  0.4971
  468MOL0     H63180   8.763   4.278   1.717 -0.9949  1.7101 -0.5665
  469MOL0     O63181   4.118   4.672   6.537  0.3165  0.3362 -0.4315
  469MOL0     C63182   4.109   4.617   6.427 -0.1679 -0.1383  0.6721
  469MOL0     O63183   4.196   4.648   6.321 -0.1113 -0.6584  0.1262
  469MOL0     C63184   4.294   4.747   6.330 -0.2289 -0.0374 -0.4210
  469MOL0     C63185   4.304   4.825   6.208  0.0247  0.4081 -0.6923
  469MOL0     C63186   4.413   4.922   6.201  0.1561 -0.2228 -0.0919
  469MOL0     C63187   4.495   4.927   6.313  0.5918 -0.6203 -0.5184
  469MOL0     O63188   4.608   5.000   6.317  0.7008 -0.2470  0.2153
  469MOL0     C63189   4.652   5.082   6.202 -0.9957  0.7100  0.4641
  469MOL0     C63190   4.781   5.164   6.217  0.0836 -0.3098 -0.4328
  469MOL0     C63191   4.751   5.311   6.229  0.6693  0.3200  0.6442
  469MOL0     C63192   4.874   5.388   6.235  0.5343  0.6917  0.6847
  469MOL0     C63193   4.852   5.534   6.244 -0.9170  0.1864 -0.6141
  469MOL0     C63194   4.978   5.611   6.271 -0.0915  0.2377 -0.1900
  469MOL0     C63195   4.937   5.754   6.306 -0.3761 -0.2645  0.2989
  469MOL0     C63196   5.057   5.829   6.364  0.3636  0.1842  0.1485
  469MOL0     N63197   5.122   5.780   6.488  0.7270  0.3395 -0.0233
  469MOL0     C63198   5.068   5.789   6.614 -0.0623 -0.0111  0.7811
  469MOL0     C63199   5.151   5.700   6.683 -0.5497  0.2289  0.6231
  469MOL0     C63200   5.141   5.693   6.839  0.0092 -0.1230  0.9465
  469MOL0     C63201   5.194   5.554   6.874 -0.7019  0.1431  0.7335
  469MOL0     C63202   5.107   5.434   6.820 -0.0080  0.1032 -1.1174
  469MOL0     C63203   5.173   5.302   6.836  0.3881  0.4444  0.7563
  469MOL0     O63204   5.121   5.209   6.736 -0.8110  0.6209  0.6733
  469MOL0     C63205   5.171   5.210   6.604 -0.1674 -0.4963  0.1560
  469MOL0     C63206   5.114   5.118   6.518  0.1431 -0.1636  0.4827
  469MOL0     C63207   5.125   5.121   6.379 -0.0085  0.6930 -0.6788
  469MOL0     C63208   5.209   5.217   6.318 -0.4892  0.0688  1.3867
  469MOL0     C63209   5.233   5.218   6.171 -0.2419 -0.7993 -1.3544
  469MOL0     O63210   5.156   5.136   6.100  0.7073 -0.1694  0.0822
  469MOL0     C63211   5.175   5.105   5.967 -0.7436  0.7403 -0.1440
  469MOL0     C63212   5.061   5.089   5.881  0.2365  0.5812  0.8921
  469MOL0     C63213   5.071   5.044   5.742 -0.2966  1.1007 -0.6470
  469MOL0     C63214   5.204   5.029   5.693 -0.4859  0.0779 -1.0246
  469MOL0     O63215   5.212   4.999   5.563  0.5588  0.1669  0.8038
  469MOL0     C63216   5.335   4.932   5.527 -0.2771 -0.5718 -0.5156
  469MOL0     C63217   5.332   4.883   5.384  0.5462 -0.0199  1.7114
  469MOL0     C63218   5.453   4.816   5.342  0.1010 -0.5266  0.1383
  469MOL0     C63219   5.465   4.751   5.200 -0.0507  0.5722  0.5096
  469MOL0     C63220   5.401   4.835   5.089  1.0107 -0.1388  1.4795
  469MOL0     C63221   5.438   4.787   4.954 -0.3654  0.1614  0.3086
  469MOL0     C63222   5.367   4.664   4.900 -0.5768 -0.2970 -0.0344
  469MOL0     C63223   5.408   4.619   4.756  1.1644 -0.5513  0.9052
  469MOL0    Cl63224   5.563   4.653   4.707  0.3689 -0.0558  0.0963
  469MOL0     C63225   5.313   5.050   5.777  0.1500  0.4725  0.8678
  469MOL0     C63226   5.302   5.082   5.909  0.6837 -0.0816  0.8661
  469MOL0     O63227   5.317   5.304   6.127  0.0801 -0.3013 -0.2907
  469MOL0     C63228   5.278   5.316   6.407  0.0729 -0.3061  0.5753
  469MOL0     C63229   5.253   5.314   6.540 -1.5206  0.3428  0.2296
  469MOL0     N63230   5.255   5.649   6.605 -0.2219 -0.1833  0.4099
  469MOL0     N63231   5.234   5.707   6.489 -0.1051 -0.0507 -0.5586
  469MOL0     C63232   4.479   4.855   6.437  0.7816  0.2232  0.5484
  469MOL0     C63233   4.372   4.769   6.445  0.7954  0.3177 -0.8534
  469MOL0     C63234   3.991   4.525   6.401 -0.3873  1.2067 -0.7067
  469MOL0     C63235   3.941   4.521   6.270  0.2384  0.6554 -0.7965
  469MOL0     C63236   3.837   4.437   6.230  0.5639  0.2887 -0.3603
  469MOL0     C63237   3.795   4.333   6.322 -0.1868  0.2978 -0.2660
  469MOL0     O63238   3.711   4.242   6.272 -0.4195  0.0058  0.2601
  469MOL0     C63239   3.681   4.132   6.353  0.8629  0.2947 -0.6605
  469MOL0     C63240   3.578   4.038   6.295 -0.2396  0.3672  0.4270
  469MOL0     C63241   3.621   3.961   6.172 -0.0112 -0.2822 -0.6278
  469MOL0     C63242   3.577   3.805   6.151  0.3463 -0.1936 -0.0655
  469MOL0     C63243   3.654   3.714   6.248 -1.2652  0.9006  1.1256
  469MOL0     C63244   3.719   3.639   6.323  0.7539 -0.2133 -0.9116
  469MOL0     C63245   3.856   4.331   6.454  0.8989  0.4866  0.1685
  469MOL0     C63246   3.938   4.430   6.495 -1.3296 -0.0641  0.3547
  469MOL0     C63247   4.008   4.412   6.629  0.3936  0.4900  0.1350
  469MOL0     H63248   4.237   4.802   6.125 -1.4744  2.9521 -0.3080
  469MOL0     H63249   4.435   4.977   6.110  0.3075 -2.8585 -1.7600
  469MOL0     H63250   4.659   5.019   6.113 -1.7655 -0.2248  1.0412
  469MOL0     H63251   4.560   5.137   6.180 -0.7523  0.7557 -0.4715
  469MOL0     H63252   4.850   5.147   6.134  2.6409 -0.1755  1.5172
  469MOL0     H63253   4.831   5.126   6.307 -1.7633 -2.0099 -0.0601
  469MOL0     H63254   4.683   5.328   6.313 -1.9858 -1.7073 -0.9340
  469MOL0     H63255   4.696   5.343   6.140  1.1808 -3.9179 -1.4046
  469MOL0     H63256   4.938   5.361   6.320  0.8563  0.3004  0.3190
  469MOL0     H63257   4.947   5.368   6.157  3.7163 -1.1576  3.8349
  469MOL0     H63258   4.800   5.563   6.153 -2.8298 -1.7693 -0.2406
  469MOL0     H63259   4.778   5.542   6.325 -1.9997  2.4093 -1.7539
  469MOL0     H63260   5.033   5.566   6.354 -1.7494 -0.5166  0.5557
  469MOL0     H63261   5.036   5.616   6.178  1.5555 -1.2583  0.6975
  469MOL0     H63262   4.864   5.753   6.388  1.6941 -1.1808  2.2816
  469MOL0     H63263   4.887   5.809   6.226 -2.6788  0.4225  2.1049
  469MOL0     H63264   5.133   5.843   6.286 -1.1379  5.4374 -0.7996
  469MOL0     H63265   5.015   5.928   6.385  3.9966  2.3772 -1.8135
  469MOL0     H63266   4.981   5.852   6.630 -1.7883 -2.1751  0.4692
  469MOL0     H63267   5.196   5.772   6.891 -0.1286 -0.8730  2.2624
  469MOL0     H63268   5.035   5.700   6.865  0.0461 -0.4101  1.1709
  469MOL0     H63269   5.298   5.548   6.841 -1.6233 -2.4520 -2.2173
  469MOL0     H63270   5.194   5.539   6.982 -0.3085  2.1739  1.0458
  469MOL0     H63271   5.094   5.456   6.714  5.0319 -0.1332 -2.0698
  469MOL0     H63272   5.010   5.437   6.870  1.3883  0.4928  1.8069
  469MOL0     H63273   5.144   5.267   6.935 -3.9456  0.0919 -0.4474
  469MOL0     H63274   5.282   5.310   6.825  0.2523  2.0699  0.3599
  469MOL0     H63275   5.056   5.039   6.565  1.8844 -0.3359  2.5226
  469MOL0     H63276   5.065   5.055   6.318 -1.8366  0.2282  1.4934
  469MOL0     H63277   4.964   5.087   5.930 -0.3600  1.2219 -0.2071
  469MOL0     H63278   4.987   5.005   5.686  0.2215 -3.2308  1.2228
  469MOL0     H63279   5.413   5.007   5.534 -1.9884  1.1838  0.8791
  469MOL0     H63280   5.347   4.846   5.593  0.2321  0.6175  1.0001
  469MOL0     H63281   5.235   4.834   5.373 -0.0445  1.4071  0.0079
  469MOL0     H63282   5.318   4.973   5.323  0.7763 -1.3572 -0.4114
  469MOL0     H63283   5.533   4.890   5.340 -0.3750  0.0338  1.1564
  469MOL0     H63284   5.482   4.746   5.422 -0.1731 -2.2166 -1.1716
  469MOL0     H63285   5.420   4.652   5.211 -1.0696  0.9482 -0.1487
  469MOL0     H63286   5.566   4.719   5.171 -0.8737  0.3090 -2.3964
  469MOL0     H63287   5.431   4.939   5.101 -0.2338  0.2854  1.1340
  469MOL0     H63288   5.293   4.817   5.099  0.6858 -0.5486 -1.7632
  469MOL0     H63289   5.406   4.875   4.895  0.0636  0.6644  0.8198
  469MOL0     H63290   5.545   4.768   4.942 -1.0097 -3.9199 -0.4780
  469MOL0     H63291   5.258   4.665   4.913 -0.5671 -1.7575  0.3609
  469MOL0     H63292   5.409   4.588   4.965  0.7296  2.7234  2.9114
  469MOL0     H63293   5.409   4.509   4.753 -0.5245 -0.5776  0.0390
  469MOL0     H63294   5.347   4.657   4.674  0.7562 -1.7405  0.6374
  469MOL0     H63295   5.420   5.043   5.759 -0.0746 -1.5465  0.1432
  469MOL0     H63296   5.388   5.099   5.974 -1.0391  1.0440  2.9682
  469MOL0     H63297   5.343   5.384   6.354  0.5170 -1.2979 -0.2047
  469MOL0     H63298   5.312   5.390   6.590 -0.2839 -0.0773 -0.5544
  469MOL0     H63299   4.551   4.871   6.517 -0.1059 -1.0840  1.6501
  469MOL0     H63300   4.352   4.714   6.536  3.5978 -1.0385 -0.9637
  469MOL0     H63301   3.988   4.587   6.198 -1.0663 -0.2542 -2.5814
  469MOL0     H63302   3.791   4.440   6.132  1.0041 -2.3968 -0.7156
  469MOL0     H63303   3.644   4.159   6.453 -0.3438 -1.4274 -0.5969
  469MOL0     H63304   3.770   4.071   6.370  1.7018  1.6361 -0.0170
  469MOL0     H63305   3.497   4.102   6.258  0.1775  0.3232 -0.5741
  469MOL0     H63306   3.553   3.970   6.377  4.5579  0.2107  2.0719
  469MOL0     H63307   3.730   3.956   6.166  0.0340 -2.8445  1.1039
  469MOL0     H63308   3.586   4.014   6.082 -0.9137 -1.1050 -0.7767
  469MOL0     H63309   3.471   3.810   6.175  0.3601  0.6864 -0.1791
  469MOL0     H63310   3.579   3.745   6.060 -2.0188  0.7499 -0.8125
  469MOL0     H63311   3.771   3.555   6.363 -0.4608 -0.2567  0.6875
  469MOL0     H63312   3.833   4.247   6.519 -2.8086  0.8080 -0.4961
  469MOL0     H63313   4.006   4.306   6.655  1.4709 -0.0822 -1.9152
  469MOL0     H63314   4.115   4.427   6.614  0.4790 -1.6653 -1.7813
  469MOL0     H63315   3.963   4.476   6.706 -0.0235 -2.2419  2.3406
  470MOL0     O63316   4.196   7.127   8.966  0.6339  0.6025 -0.5256
  470MOL0     C63317   4.310   7.104   8.924 -0.1715 -1.0335 -0.4595
  470MOL0     O63318   4.410   7.052   9.008 -0.5953  0.3461 -0.3524
  470MOL0     C63319   4.370   6.974   9.116  0.2410  0.2065  0.2265
  470MOL0     C63320   4.318   7.029   9.234 -0.4709 -0.4873 -0.1492
  470MOL0     C63321   4.291   6.944   9.342  1.2926  0.1788 -0.3095
  470MOL0     C63322   4.282   6.810   9.331  0.3649 -0.0381  0.8947
  470MOL0     O63323   4.255   6.729   9.438  0.5543 -0.3709  0.1688
  470MOL0     C63324   4.126   6.658   9.433  0.3061  0.4058 -0.0832
  470MOL0     C63325   4.082   6.576   9.554  0.8170  0.7896  0.0726
  470MOL0     C63326   4.080   6.644   9.694  0.4407  0.3722 -0.8556
  470MOL0     C63327   3.979   6.575   9.784 -0.3810  0.1766 -1.1904
  470MOL0     C63328   4.000   6.424   9.814  0.2718 -0.0585  0.4631
  470MOL0     C63329   3.886   6.368   9.898  0.2170  0.5262  0.3937
  470MOL0     C63330   3.905   6.220   9.930 -1.1148 -0.0636  0.1267
  470MOL0     C63331   4.020   6.181  10.036  0.4493 -0.1656 -0.2595
  470MOL0     N63332   4.016   6.274  10.152 -0.1887  0.4936 -0.4846
  470MOL0     C63333   4.057   6.404  10.163 -0.0638  0.0922 -0.7863
  470MOL0     C63334   4.024   6.441  10.285  0.2441 -0.2370 -0.1180
  470MOL0     C63335   4.042   6.573  10.340 -0.1621 -0.1970  0.0418
  470MOL0     C63336   3.903   6.619  10.382 -0.0653 -0.1098 -0.9819
  470MOL0     C63337   3.907   6.772  10.436  0.8650 -0.4142 -0.1146
  470MOL0     C63338   3.790   6.854  10.387  0.0133  0.1428 -0.9784
  470MOL0     O63339   3.678   6.765  10.368 -0.1248  0.6529  0.1391
  470MOL0     C63340   3.564   6.824  10.324  0.0267  0.8857  0.9265
  470MOL0     C63341   3.551   6.952  10.278  0.4743  0.9719  0.0782
  470MOL0     C63342   3.420   7.004  10.244 -0.1591 -0.1023 -0.5074
  470MOL0     C63343   3.306   6.933  10.280  0.1575 -0.1664  0.3500
  470MOL0     C63344   3.183   6.993  10.236 -0.2733 -0.0966  0.0055
  470MOL0     O63345   3.186   7.118  10.170 -0.9336  0.5744  0.8132
  470MOL0     C63346   3.061   7.185  10.162  0.1035  0.1843 -0.4473
  470MOL0     C63347   2.950   7.120  10.099 -0.6283 -0.5596  0.1875
  470MOL0     C63348   2.826   7.183  10.099  0.6149 -0.0714  0.3839
  470MOL0     C63349   2.814   7.311  10.149  0.1859 -0.0982  1.1012
  470MOL0     O63350   2.702   7.386  10.119 -0.1821 -0.0701  0.2602
  470MOL0     C63351   2.586   7.358  10.208  0.2389  0.1108  0.5346
  470MOL0     C63352   2.488   7.464  10.172  0.0677  0.2352  0.1032
  470MOL0     C63353   2.350   7.422  10.254  0.0008  0.0854  0.0044
  470MOL0     C63354   2.246   7.534  10.235  0.3884 -0.2248 -0.3734
  470MOL0     C63355   2.193   7.542  10.090  0.3313  0.8017  0.6092
  470MOL0     C63356   2.066   7.632  10.076  0.6894 -0.6114  0.1166
  470MOL0     C63357   2.011   7.619   9.930 -0.7305 -0.3704 -0.4714
  470MOL0     C63358   1.962   7.470   9.904  0.0345 -0.7605  1.1914
  470MOL0    Cl63359   1.790   7.464   9.952  0.4013  0.1407 -0.2546
  470MOL0     C63360   2.924   7.384  10.201  0.1060 -0.4092  0.8267
  470MOL0     C63361   3.046   7.318  10.210  0.1352 -0.0003  0.4238
  470MOL0     O63362   3.085   6.934  10.270  0.5803 -0.6086  0.3776
  470MOL0     C63363   3.326   6.798  10.312  0.1002  0.3856 -0.6930
  470MOL0     C63364   3.456   6.741  10.336 -0.4095 -0.5291  0.0825
  470MOL0     N63365   3.971   6.332  10.346 -0.4037 -0.5600 -0.3479
  470MOL0     N63366   3.979   6.228  10.266  0.0663 -0.1799 -0.0418
  470MOL0     C63367   4.316   6.753   9.201 -0.5612  0.8764 -0.5361
  470MOL0     C63368   4.365   6.837   9.095 -0.1318  0.2717  1.1271
  470MOL0     C63369   4.353   7.155   8.792  0.2390 -0.4311 -0.1409
  470MOL0     C63370   4.262   7.240   8.727  1.1354 -0.5047  0.4095
  470MOL0     C63371   4.297   7.310   8.605  0.5727 -0.2148 -0.0041
  470MOL0     C63372   4.410   7.275   8.535 -0.9487 -0.6750 -0.0811
  470MOL0     O63373   4.456   7.338   8.419 -0.0168  0.2030  0.6554
  470MOL0     C63374   4.373   7.442   8.352  0.1188  0.4374 -0.2446
  470MOL0     C63375   4.410   7.466   8.211 -0.3056  0.2208 -0.2089
  470MOL0     C63376   4.361   7.604   8.167  0.1536  0.2053  0.8405
  470MOL0     C63377   4.215   7.608   8.161  0.6342  0.8039  0.1854
  470MOL0     C63378   4.161   7.741   8.118  0.3010  1.0408  0.3571
  470MOL0     C63379   4.109   7.837   8.075  0.4169 -0.0605  0.4914
  470MOL0     C63380   4.496   7.185   8.597 -0.8289  0.3793 -0.2784
  470MOL0     C63381   4.473   7.124   8.722  0.2380  0.2675 -0.3653
  470MOL0     C63382   4.579   7.037   8.776 -0.6972 -0.0969  0.4769
  470MOL0     H63383   4.306   7.136   9.250 -1.4451 -0.8243  1.5891
  470MOL0     H63384   4.267   6.976   9.443 -1.4092 -3.3677  0.3840
  470MOL0     H63385   4.041   6.725   9.416  1.0705  1.1454 -1.0648
  470MOL0     H63386   4.128   6.576   9.360 -0.9679 -2.8130  3.1662
  470MOL0     H63387   4.131   6.478   9.558 -0.1946  0.2814  0.3006
  470MOL0     H63388   3.979   6.545   9.533  0.5342 -0.0311  2.3403
  470MOL0     H63389   4.058   6.750   9.682  0.6668  0.5403  0.1376
  470MOL0     H63390   4.175   6.645   9.749 -0.3985 -3.4816  1.0155
  470MOL0     H63391   3.968   6.623   9.882 -0.0749 -1.5187 -0.2780
  470MOL0     H63392   3.885   6.595   9.731  0.3301  2.9216 -1.5929
  470MOL0     H63393   4.011   6.380   9.714  1.9170  0.0964  0.5344
  470MOL0     H63394   4.093   6.407   9.869  0.2771 -0.8687  0.2217
  470MOL0     H63395   3.880   6.431   9.987  0.5946  2.3841 -0.8399
  470MOL0     H63396   3.788   6.378   9.851 -1.4538  0.2303  3.5397
  470MOL0     H63397   3.922   6.163   9.838  0.3611  0.6947 -0.1045
  470MOL0     H63398   3.808   6.190   9.970 -1.2766 -0.2761 -0.4048
  470MOL0     H63399   4.007   6.078  10.068 -0.6107 -0.2362 -0.8729
  470MOL0     H63400   4.118   6.187   9.987  0.6581 -5.4063 -1.0678
  470MOL0     H63401   4.095   6.464  10.081  1.4542 -2.5444 -2.1535
  470MOL0     H63402   4.115   6.573  10.422 -4.8033  0.0518  4.6677
  470MOL0     H63403   4.084   6.638  10.263  0.0242 -0.6367 -0.2309
  470MOL0     H63404   3.833   6.606  10.299 -0.5226 -1.6708 -0.3775
  470MOL0     H63405   3.866   6.549  10.457 -0.9960 -2.5229 -3.5221
  470MOL0     H63406   4.001   6.821  10.408 -0.3254  3.3477  1.8109
  470MOL0     H63407   3.910   6.757  10.544  0.5665  0.4418  0.0160
  470MOL0     H63408   3.814   6.904  10.293  2.7104  1.5389  0.3351
  470MOL0     H63409   3.785   6.937  10.458  4.7058 -1.3522  1.4785
  470MOL0     H63410   3.636   7.011  10.244 -0.2844  2.3884  0.5381
  470MOL0     H63411   3.413   7.100  10.194  1.2300  0.7947  0.9298
  470MOL0     H63412   2.965   7.021  10.058  0.6270  0.8329 -2.9501
  470MOL0     H63413   2.735   7.143  10.055 -0.2977 -0.9631  2.8784
  470MOL0     H63414   2.529   7.267  10.187 -1.6616  1.8533 -2.7478
  470MOL0     H63415   2.601   7.358  10.316 -1.3040 -1.7961  0.8020
  470MOL0     H63416   2.528   7.563  10.197  0.7983  0.9533 -3.3829
  470MOL0     H63417   2.466   7.469  10.065  0.1223  1.4505  0.1383
  470MOL0     H63418   2.298   7.332  10.219 -0.2701 -0.3263  1.4005
  470MOL0     H63419   2.379   7.414  10.359 -1.0814 -0.4287  0.2845
  470MOL0     H63420   2.291   7.626  10.273 -0.9176  0.8969 -1.4612
  470MOL0     H63421   2.163   7.500  10.298  0.7267 -2.3751 -0.9973
  470MOL0     H63422   2.158   7.444  10.056 -0.3129  1.6542 -1.3285
  470MOL0     H63423   2.267   7.582  10.020  0.9395 -1.8429 -0.3441
  470MOL0     H63424   1.977   7.612  10.137  0.7766  2.1528  1.2858
  470MOL0     H63425   2.092   7.737  10.089  1.0699 -0.7865  0.8150
  470MOL0     H63426   2.079   7.655   9.852  2.0305  2.9846  3.0827
  470MOL0     H63427   1.920   7.680   9.929  0.3828  1.3547 -0.1366
  470MOL0     H63428   1.966   7.443   9.798  1.0055  1.5979  0.5733
  470MOL0     H63429   2.011   7.386   9.955  2.9342 -0.3512 -0.6724
  470MOL0     H63430   2.914   7.490  10.222  1.5821  0.3453 -1.7515
  470MOL0     H63431   3.134   7.361  10.256 -0.9104  2.6705  0.0932
  470MOL0     H63432   3.234   6.742  10.301 -2.0803  2.6309  3.6738
  470MOL0     H63433   3.471   6.638  10.366  0.2143 -1.6524 -3.5808
  470MOL0     H63434   4.320   6.646   9.182  0.0362  0.6994  0.5310
  470MOL0     H63435   4.392   6.804   8.996 -1.8182  1.3460  0.2599
  470MOL0     H63436   4.163   7.262   8.765  1.0695 -0.8747  0.4517
  470MOL0     H63437   4.224   7.367   8.548  0.8899  0.3982  0.1981
  470MOL0     H63438   4.387   7.522   8.425  2.5026 -1.5565  1.6669
  470MOL0     H63439   4.268   7.413   8.339 -0.0894  1.6031 -1.3502
  470MOL0     H63440   4.362   7.393   8.146 -1.7772  0.4253  0.6144
  470MOL0     H63441   4.519   7.462   8.201 -0.2735  2.3358 -1.5073
  470MOL0     H63442   4.417   7.628   8.076  0.8886  0.6047  1.3897
  470MOL0     H63443   4.388   7.687   8.232  0.0031  0.8148  0.1418
  470MOL0     H63444   4.160   7.551   8.086  0.1142  3.1519 -1.3187
  470MOL0     H63445   4.169   7.586   8.258 -0.3874 -0.8581 -0.6213
  470MOL0     H63446   4.073   7.930   8.036  2.3245 -0.0418 -1.4861
  470MOL0     H63447   4.585   7.162   8.540 -1.3889 -1.2553 -0.5426
  470MOL0     H63448   4.539   6.935   8.774 -0.1498 -0.3078  0.1321
  470MOL0     H63449   4.670   7.036   8.717 -0.6342 -3.2244  0.4314
  470MOL0     H63450   4.615   7.072   8.873  1.2275 -1.0932  0.1675
  471MOL0     O63451   5.226   6.183   1.311 -1.1478 -0.8792 -0.6055
  471MOL0     C63452   5.145   6.157   1.225  0.1565 -0.0543  0.4925
  471MOL0     O63453   5.173   6.144   1.086  0.3389  0.1013  0.9663
  471MOL0     C63454   5.290   6.187   1.026 -0.4232 -0.0838 -0.5190
  471MOL0     C63455   5.368   6.298   1.061 -0.9014  0.7687  0.1363
  471MOL0     C63456   5.480   6.326   0.975  0.6496 -0.3646  0.1823
  471MOL0     C63457   5.528   6.229   0.893 -0.1569  0.1056 -0.3078
  471MOL0     O63458   5.641   6.236   0.823 -0.1276 -0.0203 -0.3894
  471MOL0     C63459   5.748   6.322   0.868 -0.3781  0.3623  1.3519
  471MOL0     C63460   5.876   6.296   0.797 -0.8616  0.2469 -0.4640
  471MOL0     C63461   5.859   6.272   0.647 -0.6497  0.7066 -0.8474
  471MOL0     C63462   5.986   6.243   0.574  0.2805 -0.4266 -0.4284
  471MOL0     C63463   5.975   6.249   0.421 -0.6929 -0.1730 -0.2530
  471MOL0     C63464   5.874   6.146   0.363 -0.7491 -0.0275 -1.1559
  471MOL0     C63465   5.870   6.138   0.215  0.9687 -0.8906  0.3175
  471MOL0     C63466   5.967   6.039   0.175 -0.8448 -0.4910 -0.0946
  471MOL0     N63467   5.957   5.990   0.035  0.7630  0.8368 -1.3470
  471MOL0     C63468   5.901   5.869   0.014 -1.1395 -0.3185  0.0929
  471MOL0     C63469   5.899   5.858  -0.119 -0.4077 -0.6458  0.1991
  471MOL0     C63470   5.847   5.737  -0.201 -0.2876 -0.5848 -0.2047
  471MOL0     C63471   5.960   5.665  -0.262 -0.8259 -0.6544  0.3967
  471MOL0     C63472   6.073   5.624  -0.172 -1.4641  0.3648  0.5962
  471MOL0     C63473   6.169   5.526  -0.241 -1.0523 -0.5427  1.1986
  471MOL0     O63474   6.094   5.404  -0.264 -0.0495  0.2072 -0.2404
  471MOL0     C63475   6.172   5.293  -0.257  0.2526  0.2678  0.3914
  471MOL0     C63476   6.271   5.264  -0.343 -1.0819  0.0192 -0.5106
  471MOL0     C63477   6.357   5.160  -0.318  0.0486 -0.9359 -0.5478
  471MOL0     C63478   6.351   5.092  -0.190  0.0112 -0.5635  0.1344
  471MOL0     C63479   6.467   5.009  -0.156 -0.7067  0.1335  0.8581
  471MOL0     O63480   6.504   4.997  -0.027  0.6494 -0.5463 -0.1564
  471MOL0     C63481   6.615   4.919   0.006 -0.1428 -0.0321  0.2031
  471MOL0     C63482   6.718   4.979   0.084 -0.0801  0.3884  0.2992
  471MOL0     C63483   6.819   4.902   0.130  0.2736  0.4312 -0.8575
  471MOL0     C63484   6.845   4.778   0.072 -0.0377 -0.9896  0.0500
  471MOL0     O63485   6.964   4.719   0.098 -0.1711 -0.8282 -0.0969
  471MOL0     C63486   7.062   4.729  -0.004 -0.2073  0.0827 -0.5176
  471MOL0     C63487   7.125   4.602  -0.022 -0.3397  0.8455  0.2079
  471MOL0     C63488   7.231   4.588  -0.135  0.8202 -0.3365 -0.4484
  471MOL0     C63489   7.174   4.640  -0.266  0.4402 -0.4541  0.9660
  471MOL0     C63490   7.277   4.608  -0.375  1.0427  0.1796  0.3730
  471MOL0     C63491   7.423   4.661  -0.348  0.0809  0.4866 -0.6417
  471MOL0     C63492   7.502   4.658  -0.483  0.1688  0.6736  0.2208
  471MOL0     C63493   7.602   4.540  -0.486 -0.0747 -0.8659 -0.5969
  471MOL0    Cl63494   7.546   4.362  -0.485  0.5611  0.3419  0.0595
  471MOL0     C63495   6.744   4.721  -0.006 -0.6588  0.1972  0.8867
  471MOL0     C63496   6.629   4.789  -0.041  1.0493  0.2025  0.4191
  471MOL0     O63497   6.527   4.950  -0.245  0.2960 -0.1811  0.5053
  471MOL0     C63498   6.254   5.126  -0.102 -0.1224 -0.3597 -0.5664
  471MOL0     C63499   6.159   5.225  -0.136 -0.0791  0.1794  0.2952
  471MOL0     N63500   5.955   5.969  -0.181 -0.2667 -0.5584  0.4900
  471MOL0     N63501   5.980   6.051  -0.079 -0.0697 -0.3278  0.1649
  471MOL0     C63502   5.459   6.112   0.876 -0.2951 -0.4332  0.4261
  471MOL0     C63503   5.337   6.094   0.935  0.1000 -0.3250  0.1358
  471MOL0     C63504   5.010   6.147   1.257  0.1680  0.1407 -0.7312
  471MOL0     C63505   4.912   6.184   1.164  0.7371 -0.1523 -0.8494
  471MOL0     C63506   4.782   6.190   1.209  0.6743 -0.2944  0.9592
  471MOL0     C63507   4.736   6.160   1.341  0.6448  0.1298  0.0246
  471MOL0     O63508   4.608   6.175   1.379  0.0907  0.1819  0.5693
  471MOL0     C63509   4.532   6.272   1.306  0.0257  0.0029  0.0809
  471MOL0     C63510   4.422   6.323   1.398  0.5137  0.9764 -0.2288
  471MOL0     C63511   4.469   6.387   1.531  0.4316 -0.9863  0.5052
  471MOL0     C63512   4.418   6.306   1.650 -1.2415 -0.2299 -0.1015
  471MOL0     C63513   4.482   6.369   1.764  0.4602 -0.1869  0.4363
  471MOL0     C63514   4.536   6.391   1.867 -1.0979 -0.0545 -0.4101
  471MOL0     C63515   4.828   6.108   1.429 -0.3208  0.1781  0.5351
  471MOL0     C63516   4.966   6.106   1.397  0.0419  0.1098  0.2293
  471MOL0     C63517   5.059   6.058   1.503 -0.8810 -0.5298 -0.0341
  471MOL0     H63518   5.323   6.367   1.132 -0.1532 -0.6242  2.0685
  471MOL0     H63519   5.529   6.420   0.996  1.7464 -0.9918  0.4620
  471MOL0     H63520   5.704   6.422   0.859 -0.6060  0.2712  1.4527
  471MOL0     H63521   5.780   6.325   0.973  2.3516 -0.1557  0.6263
  471MOL0     H63522   5.926   6.206   0.835 -1.6246  0.5313  1.2961
  471MOL0     H63523   5.952   6.373   0.814  1.7691 -1.9709 -1.4321
  471MOL0     H63524   5.817   6.364   0.606  0.3256  1.3663 -0.4269
  471MOL0     H63525   5.782   6.197   0.629  0.6476 -0.3964 -2.1046
  471MOL0     H63526   6.067   6.314   0.594 -0.1287 -0.2315  0.6270
  471MOL0     H63527   6.033   6.146   0.589 -0.8284 -1.0127 -0.6325
  471MOL0     H63528   5.958   6.355   0.397  0.5865  0.1525  0.1930
  471MOL0     H63529   6.075   6.219   0.391 -1.4131 -3.2906  0.1370
  471MOL0     H63530   5.894   6.046   0.403 -0.5761  0.3937 -0.1782
  471MOL0     H63531   5.773   6.168   0.397 -0.4622 -0.0039 -0.2822
  471MOL0     H63532   5.875   6.233   0.162  2.3026 -0.8594  0.4724
  471MOL0     H63533   5.769   6.104   0.189  0.5865  0.7839 -0.5075
  471MOL0     H63534   6.066   6.084   0.186 -0.3741 -1.1568 -1.3775
  471MOL0     H63535   5.958   5.954   0.243 -2.8355 -1.4717 -1.4937
  471MOL0     H63536   5.876   5.784   0.077  2.0787 -1.9713 -0.6075
  471MOL0     H63537   5.782   5.666  -0.149 -4.8638  3.7534  0.7008
  471MOL0     H63538   5.787   5.783  -0.280 -0.4914  1.4576  1.0746
  471MOL0     H63539   5.923   5.572  -0.307 -0.7345 -0.2392 -0.5581
  471MOL0     H63540   5.988   5.732  -0.343  0.4192 -1.1014  0.4264
  471MOL0     H63541   6.031   5.591  -0.077 -4.4067  2.2453  0.0805
  471MOL0     H63542   6.142   5.704  -0.142  1.3632 -1.6414 -0.1562
  471MOL0     H63543   6.264   5.517  -0.189 -1.0597 -1.8108  1.0292
  471MOL0     H63544   6.200   5.564  -0.339 -1.6183 -1.1981  0.7558
  471MOL0     H63545   6.295   5.338  -0.419 -0.1068 -0.1602 -0.3962
  471MOL0     H63546   6.432   5.150  -0.395  0.1107  1.7745 -0.9353
  471MOL0     H63547   6.697   5.085   0.100 -0.8428  0.0247  1.9309
  471MOL0     H63548   6.898   4.936   0.197  0.3220 -1.0090 -0.1362
  471MOL0     H63549   7.012   4.765  -0.094  1.4258  0.8759 -1.1437
  471MOL0     H63550   7.134   4.808   0.020 -0.5037 -0.2740  1.7416
  471MOL0     H63551   7.174   4.600   0.076 -1.5765  2.2360  0.8952
  471MOL0     H63552   7.055   4.519  -0.027  0.2729  0.4033 -2.7345
  471MOL0     H63553   7.322   4.645  -0.114  1.9793 -1.1809 -2.8573
  471MOL0     H63554   7.262   4.483  -0.128  2.2956  0.1219  0.5390
  471MOL0     H63555   7.150   4.747  -0.260 -1.5337 -0.6811 -1.4077
  471MOL0     H63556   7.087   4.583  -0.298  0.5331  1.1927 -2.7876
  471MOL0     H63557   7.247   4.655  -0.469 -0.9783  0.5000  1.1318
  471MOL0     H63558   7.295   4.501  -0.378 -0.4895 -0.0835 -0.5395
  471MOL0     H63559   7.430   4.769  -0.336 -1.8861  0.5210  0.4941
  471MOL0     H63560   7.470   4.596  -0.274 -2.0548 -3.1410 -2.1914
  471MOL0     H63561   7.562   4.749  -0.483 -1.3501  1.7157 -0.6605
  471MOL0     H63562   7.434   4.651  -0.568  2.9454 -0.6208 -2.0570
  471MOL0     H63563   7.667   4.560  -0.572 -0.2524  1.2520 -0.2887
  471MOL0     H63564   7.662   4.552  -0.395  0.3880  1.4902 -1.1719
  471MOL0     H63565   6.755   4.624  -0.053 -0.9987  1.8641 -3.1090
  471MOL0     H63566   6.548   4.749  -0.100  1.8965 -1.2811  0.2103
  471MOL0     H63567   6.241   5.075  -0.007  1.7594 -2.9203 -1.5708
  471MOL0     H63568   6.092   5.246  -0.053 -1.7125 -1.2388 -0.5910
  471MOL0     H63569   5.495   6.050   0.794 -5.5495  0.2529 -2.8234
  471MOL0     H63570   5.280   6.005   0.909  1.2219 -0.0046 -4.1316
  471MOL0     H63571   4.925   6.222   1.063 -0.5897  4.2799  0.4392
  471MOL0     H63572   4.726   6.235   1.128  4.9456 -0.3156 -2.3337
  471MOL0     H63573   4.483   6.224   1.221  1.5703 -0.9852 -0.2868
  471MOL0     H63574   4.587   6.364   1.281 -2.3441  1.3182 -0.6503
  471MOL0     H63575   4.351   6.245   1.427 -0.9818  1.8418 -1.4334
  471MOL0     H63576   4.360   6.390   1.338  0.7167 -0.2457 -1.8678
  471MOL0     H63577   4.432   6.489   1.550  1.1827 -1.1243  3.0847
  471MOL0     H63578   4.577   6.377   1.533  0.2564 -3.0377  1.3928
  471MOL0     H63579   4.310   6.322   1.663 -1.0326 -0.7223  3.0089
  471MOL0     H63580   4.439   6.199   1.645 -1.4005 -0.2909  0.4507
  471MOL0     H63581   4.596   6.407   1.955  1.2958 -1.8407 -1.5956
  471MOL0     H63582   4.789   6.069   1.523  3.7655  1.1155  2.8764
  471MOL0     H63583   5.019   5.984   1.573 -0.8274 -0.8796 -0.3702
  471MOL0     H63584   5.137   5.995   1.459 -1.7605 -3.3403  2.0960
  471MOL0     H63585   5.100   6.140   1.563 -0.9208  0.8029 -1.7610
  472MOL0     O63586   4.844   5.642  10.442  0.4776  0.6148 -0.8641
  472MOL0     C63587   4.831   5.757  10.479 -0.6033 -0.4165  0.6430
  472MOL0     O63588   4.908   5.865  10.431  0.4691 -0.4616  0.3337
  472MOL0     C63589   5.033   5.845  10.367 -0.2789  0.0859  0.4921
  472MOL0     C63590   5.112   5.967  10.366  0.3811 -0.8080 -0.5688
  472MOL0     C63591   5.257   5.958  10.337  0.5252  0.1225 -0.0550
  472MOL0     C63592   5.312   5.835  10.308 -0.0104  0.5873  0.5470
  472MOL0     O63593   5.449   5.806  10.285 -0.3674 -0.1934 -0.0406
  472MOL0     C63594   5.542   5.902  10.356  1.0395  0.8746  0.7439
  472MOL0     C63595   5.611   6.007  10.257  0.3233  0.8642  0.5608
  472MOL0     C63596   5.734   6.097  10.309 -1.3198 -0.2236  0.3338
  472MOL0     C63597   5.763   6.214  10.210 -0.3320  0.0393  0.3151
  472MOL0     C63598   5.882   6.298  10.252 -1.3691 -0.9206  0.3198
  472MOL0     C63599   6.013   6.239  10.206 -0.1258 -0.4579  0.5953
  472MOL0     C63600   6.138   6.278  10.286 -1.0126 -0.1308  0.5722
  472MOL0     C63601   6.260   6.182  10.250  0.3181 -0.4909 -1.3633
  472MOL0     N63602   6.304   6.203  10.115  0.7800  0.0126  0.2189
  472MOL0     C63603   6.369   6.121  10.022  0.6686  0.4431 -0.8848
  472MOL0     C63604   6.377   6.183   9.905 -0.0548  0.5646 -0.5617
  472MOL0     C63605   6.455   6.146   9.791  0.2686  0.3193 -0.1010
  472MOL0     C63606   6.603   6.125   9.825 -0.2436 -0.1709 -0.0822
  472MOL0     C63607   6.669   6.256   9.887  0.1843  0.0701  0.7677
  472MOL0     C63608   6.666   6.372   9.776  0.7139  0.3350  0.2225
  472MOL0     O63609   6.553   6.455   9.787  1.0303  0.3880 -0.2555
  472MOL0     C63610   6.571   6.555   9.877  0.1328 -1.0520  0.9146
  472MOL0     C63611   6.471   6.654   9.877  0.8374  0.4549  1.3310
  472MOL0     C63612   6.481   6.758   9.970  0.2744  0.6907  0.9260
  472MOL0     C63613   6.585   6.767  10.062  0.2086 -0.2414 -0.3858
  472MOL0     C63614   6.588   6.881  10.151  0.7935  0.3425 -1.0210
  472MOL0     O63615   6.487   6.965  10.144  0.3429 -0.6079  0.3426
  472MOL0     C63616   6.497   7.092  10.197 -0.1610 -0.3289 -0.1055
  472MOL0     C63617   6.419   7.133  10.303 -0.0771 -0.2216  0.1656
  472MOL0     C63618   6.441   7.257  10.362  0.4252  0.0910 -0.8743
  472MOL0     C63619   6.545   7.344  10.321 -0.1398  0.1641 -0.4577
  472MOL0     O63620   6.557   7.462  10.385 -0.3858  0.1760 -0.4807
  472MOL0     C63621   6.666   7.548  10.359 -0.3449 -0.6890 -0.2948
  472MOL0     C63622   6.650   7.678  10.436 -0.0466 -0.1109  0.7749
  472MOL0     C63623   6.549   7.779  10.372 -0.0610  0.6724  0.5428
  472MOL0     C63624   6.532   7.903  10.462 -0.0602 -0.2368 -0.9178
  472MOL0     C63625   6.434   8.014  10.418 -0.0628 -0.0322  0.3506
  472MOL0     C63626   6.290   7.963  10.457 -0.4812  0.3703 -0.2049
  472MOL0     C63627   6.253   7.973  10.603 -0.5810 -0.1776 -1.1852
  472MOL0     C63628   6.260   8.119  10.655  0.2330 -0.3846 -0.2367
  472MOL0    Cl63629   6.130   8.227  10.603  0.3718  0.2711  0.2791
  472MOL0     C63630   6.622   7.305  10.207 -0.0456 -0.4006  0.6395
  472MOL0     C63631   6.601   7.170  10.152  0.3307 -0.9284 -0.4579
  472MOL0     O63632   6.676   6.883  10.242 -0.3712  0.5776 -0.1597
  472MOL0     C63633   6.685   6.668  10.070 -0.6774  0.2006  0.2850
  472MOL0     C63634   6.676   6.566   9.969  0.1063 -0.1503  0.2366
  472MOL0     N63635   6.315   6.309   9.926 -0.0153 -0.0858 -0.2890
  472MOL0     N63636   6.269   6.324  10.050 -0.3924  0.8005  0.3318
  472MOL0     C63637   5.229   5.723  10.297  0.0947 -0.6349 -0.2161
  472MOL0     C63638   5.096   5.719  10.338 -0.1434  0.4990 -0.2390
  472MOL0     C63639   4.724   5.804  10.570  0.1540  0.3471 -0.3992
  472MOL0     C63640   4.639   5.894  10.501  0.6628  0.4034 -0.2886
  472MOL0     C63641   4.525   5.942  10.550  0.0606 -0.1888  0.1043
  472MOL0     C63642   4.497   5.906  10.679  0.1163  0.5640  0.3090
  472MOL0     O63643   4.379   5.969  10.737  0.0885 -0.4994 -0.2668
  472MOL0     C63644   4.397   6.073  10.839 -0.1123 -0.2647 -0.3237
  472MOL0     C63645   4.387   6.214  10.776 -0.6382 -0.5414 -0.1105
  472MOL0     C63646   4.363   6.321  10.881  0.1378  0.0289 -0.8255
  472MOL0     C63647   4.351   6.462  10.837 -0.3203  0.4978  0.2558
  472MOL0     C63648   4.481   6.516  10.803 -0.1729 -0.3634  0.0492
  472MOL0     C63649   4.586   6.578  10.791  0.6054 -0.4279  0.9344
  472MOL0     C63650   4.579   5.824  10.758  0.0411  0.2842  0.3769
  472MOL0     C63651   4.699   5.770  10.705 -1.2179 -0.6908 -0.7080
  472MOL0     C63652   4.784   5.668  10.789  0.3927 -0.1440  0.5843
  472MOL0     H63653   5.072   6.059  10.408  5.1110  0.5977  1.6241
  472MOL0     H63654   5.324   6.043  10.339  2.0460 -0.9628 -1.8145
  472MOL0     H63655   5.498   5.948  10.445  0.5349 -0.4248  1.1947
  472MOL0     H63656   5.622   5.838  10.395  0.2749 -0.7394 -0.2250
  472MOL0     H63657   5.532   6.078  10.231  1.5840  1.9779 -0.3956
  472MOL0     H63658   5.623   5.960  10.159 -0.3314  0.6616  0.5718
  472MOL0     H63659   5.828   6.042  10.318 -0.6330  0.8963  0.2803
  472MOL0     H63660   5.725   6.145  10.407  1.8795  2.3579 -0.4572
  472MOL0     H63661   5.761   6.184  10.105 -0.3561  1.0347  0.0149
  472MOL0     H63662   5.677   6.281  10.217 -0.6458 -0.2041 -0.8884
  472MOL0     H63663   5.876   6.399  10.212  4.4178  0.0394  1.0661
  472MOL0     H63664   5.896   6.293  10.360  5.5564 -1.5728 -0.1865
  472MOL0     H63665   6.007   6.132  10.230 -0.4768 -0.3665  0.9333
  472MOL0     H63666   6.029   6.253  10.099 -1.8544 -0.1532  0.3389
  472MOL0     H63667   6.107   6.259  10.388 -1.5761  0.2853  0.4837
  472MOL0     H63668   6.163   6.385  10.275 -0.3013 -0.4098 -0.7777
  472MOL0     H63669   6.337   6.211  10.322 -2.0466 -0.4413  1.3447
  472MOL0     H63670   6.235   6.076  10.251  0.4853 -0.5283 -0.2515
  472MOL0     H63671   6.409   6.022  10.040 -0.4236  0.0228 -0.7236
  472MOL0     H63672   6.421   6.050   9.751 -1.6322  0.3981  1.2141
  472MOL0     H63673   6.439   6.229   9.721  0.2358  0.2549 -0.1709
  472MOL0     H63674   6.614   6.047   9.900  1.6842  0.4514  0.3452
  472MOL0     H63675   6.655   6.100   9.732 -2.9572 -2.4059 -1.1270
  472MOL0     H63676   6.772   6.234   9.917 -0.1389 -0.4808  1.4898
  472MOL0     H63677   6.622   6.283   9.981 -0.4652 -3.5374  1.6027
  472MOL0     H63678   6.673   6.335   9.673  1.7383  3.5165 -0.9546
  472MOL0     H63679   6.759   6.429   9.773  0.2648  1.0674 -2.4955
  472MOL0     H63680   6.387   6.656   9.808  0.5205  0.3112  1.7096
  472MOL0     H63681   6.403   6.827   9.941 -0.6095 -1.6239 -2.9032
  472MOL0     H63682   6.338   7.068  10.336  0.4985 -2.0137 -1.7286
  472MOL0     H63683   6.387   7.284  10.452  2.8029  1.3351  0.2614
  472MOL0     H63684   6.750   7.490  10.397  0.0058 -0.1963 -0.3052
  472MOL0     H63685   6.691   7.570  10.254  0.2125 -1.8910 -0.4295
  472MOL0     H63686   6.624   7.666  10.542  2.2207  0.7131  1.4765
  472MOL0     H63687   6.749   7.724  10.431 -0.6059  1.6387  3.6219
  472MOL0     H63688   6.588   7.816  10.277  1.9376  1.6615  1.6938
  472MOL0     H63689   6.456   7.724  10.356  0.0614  1.0840 -1.8899
  472MOL0     H63690   6.632   7.943  10.481 -0.3437 -0.1131  0.4551
  472MOL0     H63691   6.497   7.871  10.561 -1.2982  1.0563 -0.9149
  472MOL0     H63692   6.443   8.018  10.309  0.2353 -4.9081  0.0061
  472MOL0     H63693   6.455   8.114  10.458  2.0195  0.3190 -1.4479
  472MOL0     H63694   6.219   8.007  10.386  0.2051  3.3865  0.8243
  472MOL0     H63695   6.290   7.857  10.429 -0.9474  0.6456 -1.2936
  472MOL0     H63696   6.320   7.914  10.666 -1.3502  1.0667  0.9005
  472MOL0     H63697   6.147   7.949  10.615 -0.8139  0.8700 -1.0916
  472MOL0     H63698   6.254   8.117  10.765  1.6309 -2.3710 -0.1494
  472MOL0     H63699   6.357   8.169  10.643  0.3985  0.2731  2.7980
  472MOL0     H63700   6.706   7.363  10.169 -0.6138  0.1002  0.1297
  472MOL0     H63701   6.675   7.135  10.081  1.9576 -0.6791  1.0290
  472MOL0     H63702   6.765   6.661  10.143  2.2517 -0.6743 -2.7398
  472MOL0     H63703   6.766   6.507   9.957  1.0910  1.3530 -0.1792
  472MOL0     H63704   5.271   5.635  10.247  1.2140 -1.4222  1.9945
  472MOL0     H63705   5.051   5.620  10.338  1.5629 -0.3163 -0.4537
  472MOL0     H63706   4.674   5.925  10.403  2.7070 -0.2388  0.1847
  472MOL0     H63707   4.462   6.006  10.490 -1.0819 -1.4823 -0.1252
  472MOL0     H63708   4.487   6.052  10.898  0.4785 -0.5589 -1.3011
  472MOL0     H63709   4.318   6.075  10.914 -0.9667  2.0272 -1.1931
  472MOL0     H63710   4.305   6.230  10.706 -0.7035  3.0965  0.6275
  472MOL0     H63711   4.481   6.239  10.726  0.3921 -0.7640  1.6483
  472MOL0     H63712   4.447   6.302  10.948  0.4542 -0.5209 -1.3595
  472MOL0     H63713   4.273   6.293  10.936 -0.2629 -0.8953 -1.9092
  472MOL0     H63714   4.294   6.470  10.744  0.9775 -0.8639 -0.7062
  472MOL0     H63715   4.303   6.505  10.925  0.2719 -2.2186  1.9928
  472MOL0     H63716   4.670   6.637  10.761 -0.8543 -0.1470 -3.2675
  472MOL0     H63717   4.551   5.819  10.863  0.5605 -1.0472  0.4679
  472MOL0     H63718   4.856   5.721  10.852 -0.4235  3.1139 -1.0097
  472MOL0     H63719   4.720   5.603  10.850  2.1784 -1.6807  0.9144
  472MOL0     H63720   4.836   5.594  10.727  1.3598  1.9982 -1.3065
  473MOL0     O63721   1.016   7.822   7.463  0.1449  0.2175 -0.6309
  473MOL0     C63722   1.034   7.732   7.546 -0.6084 -1.0793  0.1269
  473MOL0     O63723   1.109   7.618   7.524 -0.0680  0.0517 -0.4610
  473MOL0     C63724   1.173   7.603   7.401 -0.7101 -0.2695  0.0469
  473MOL0     C63725   1.121   7.512   7.312  0.4245 -0.0793 -0.5712
  473MOL0     C63726   1.184   7.469   7.193 -0.0595 -0.1605 -0.1528
  473MOL0     C63727   1.303   7.526   7.165 -0.2744  0.2060 -0.1137
  473MOL0     O63728   1.362   7.484   7.050 -0.1918  0.0041 -0.3617
  473MOL0     C63729   1.478   7.558   7.000 -1.0147 -0.1074  1.4551
  473MOL0     C63730   1.524   7.503   6.855  0.2553  0.5123  0.4094
  473MOL0     C63731   1.455   7.560   6.730  0.0013  0.1113  0.2686
  473MOL0     C63732   1.315   7.525   6.721  0.2000 -0.0618 -0.6961
  473MOL0     C63733   1.256   7.561   6.581 -0.9125 -0.8688 -0.2511
  473MOL0     C63734   1.110   7.530   6.559 -0.4158  0.1265 -0.5902
  473MOL0     C63735   1.052   7.589   6.430 -0.8062 -0.9267  0.9986
  473MOL0     C63736   1.111   7.514   6.308 -0.8415 -0.3692 -1.0234
  473MOL0     N63737   1.047   7.569   6.179 -0.6135 -0.0966 -1.2596
  473MOL0     C63738   0.943   7.507   6.109 -0.0637 -0.8058  0.1657
  473MOL0     C63739   0.936   7.589   5.989 -0.8231  0.2378 -0.6569
  473MOL0     C63740   0.853   7.548   5.868  0.3153 -1.0133  0.3155
  473MOL0     C63741   0.936   7.496   5.759  0.4594  1.5136  0.8460
  473MOL0     C63742   1.012   7.376   5.793 -0.0554 -0.8222 -0.4915
  473MOL0     C63743   1.101   7.329   5.676  0.6141 -0.2040 -0.1748
  473MOL0     O63744   1.169   7.440   5.611 -0.0128  0.5261 -0.3308
  473MOL0     C63745   1.297   7.466   5.647 -0.5634 -0.5776  0.0143
  473MOL0     C63746   1.321   7.548   5.759  0.4655  1.2135 -0.3782
  473MOL0     C63747   1.446   7.570   5.817  0.4094 -0.2409  0.8149
  473MOL0     C63748   1.558   7.515   5.751  0.1597  1.1447  0.8310
  473MOL0     C63749   1.692   7.553   5.785 -1.6034 -0.3355 -0.1859
  473MOL0     O63750   1.795   7.467   5.761 -0.2537 -0.1125 -0.5024
  473MOL0     C63751   1.922   7.491   5.807  0.0008 -0.0994 -0.5304
  473MOL0     C63752   1.951   7.516   5.951  0.2150 -0.2501  0.5610
  473MOL0     C63753   2.082   7.530   5.985 -1.2841  0.0713 -0.5703
  473MOL0     C63754   2.189   7.513   5.895  0.0989 -0.0867 -0.1827
  473MOL0     O63755   2.317   7.516   5.946 -0.0546 -0.6297  0.4961
  473MOL0     C63756   2.406   7.605   5.872 -0.4889  0.3014  0.9536
  473MOL0     C63757   2.528   7.646   5.962 -0.2617 -0.2113  0.9074
  473MOL0     C63758   2.564   7.785   5.924  0.5061 -0.0796  0.1987
  473MOL0     C63759   2.706   7.819   5.976  0.1669  1.3302  0.6392
  473MOL0     C63760   2.736   7.963   5.928 -0.5227 -1.4350 -0.5993
  473MOL0     C63761   2.686   8.064   6.041 -0.0760  0.0015 -0.4979
  473MOL0     C63762   2.709   8.212   6.007 -0.4396  0.1291  0.4876
  473MOL0     C63763   2.671   8.247   5.864 -0.1498 -0.2563  0.2892
  473MOL0    Cl63764   2.514   8.180   5.824 -0.2477  0.4219 -0.3959
  473MOL0     C63765   2.160   7.493   5.758 -0.2127 -0.1767  0.2766
  473MOL0     C63766   2.028   7.480   5.718 -0.1155 -0.3658 -0.4231
  473MOL0     O63767   1.704   7.672   5.820  0.0662 -0.1756 -0.5313
  473MOL0     C63768   1.540   7.435   5.640 -0.0750 -0.4602  0.8583
  473MOL0     C63769   1.409   7.409   5.594  0.7151 -0.4529  0.0378
  473MOL0     N63770   1.035   7.687   6.000 -0.3714  1.0680  1.0147
  473MOL0     N63771   1.095   7.680   6.109  0.0400 -0.6943  0.6955
  473MOL0     C63772   1.360   7.622   7.256  0.4623  0.3714  0.0224
  473MOL0     C63773   1.298   7.662   7.372  0.3346  0.3681  0.9704
  473MOL0     C63774   0.975   7.733   7.682 -0.3817 -0.2367  0.0512
  473MOL0     C63775   1.000   7.619   7.764 -0.6711 -0.7549  0.7484
  473MOL0     C63776   0.937   7.596   7.882  0.7558  0.5753  0.2430
  473MOL0     C63777   0.854   7.695   7.940 -0.3567  0.3726  0.0335
  473MOL0     O63778   0.812   7.693   8.071 -0.1440 -0.1841  0.0221
  473MOL0     C63779   0.727   7.591   8.117 -0.3168 -0.1884  0.6242
  473MOL0     C63780   0.582   7.605   8.064 -0.5359 -0.5237 -0.8206
  473MOL0     C63781   0.516   7.731   8.123  0.0879 -0.6125  0.2954
  473MOL0     C63782   0.375   7.759   8.063  1.0368 -0.0350  0.1999
  473MOL0     C63783   0.279   7.684   8.143 -0.2606  0.3582  0.4101
  473MOL0     C63784   0.214   7.612   8.213  0.1863 -0.3600 -0.6321
  473MOL0     C63785   0.852   7.817   7.873  0.3340 -0.0517 -0.3864
  473MOL0     C63786   0.904   7.840   7.743 -0.4642  0.5454 -0.6626
  473MOL0     C63787   0.877   7.983   7.693  0.5178  0.4599  0.6365
  473MOL0     H63788   1.031   7.459   7.340  1.5912 -1.9058 -0.0868
  473MOL0     H63789   1.137   7.392   7.134 -0.2470 -1.1298  1.2148
  473MOL0     H63790   1.459   7.665   6.989  0.2524 -0.0291 -0.3593
  473MOL0     H63791   1.554   7.553   7.078  0.2240  0.9784  0.3717
  473MOL0     H63792   1.532   7.394   6.845 -0.5557  0.6308 -2.1178
  473MOL0     H63793   1.622   7.521   6.809 -0.2680 -3.5118 -2.9168
  473MOL0     H63794   1.511   7.523   6.644 -0.1202 -0.0150  0.2420
  473MOL0     H63795   1.459   7.668   6.744  1.1682 -0.0880  1.6936
  473MOL0     H63796   1.322   7.417   6.733 -1.2577 -0.3903 -2.3502
  473MOL0     H63797   1.261   7.575   6.801  0.3355  0.2077 -0.7714
  473MOL0     H63798   1.277   7.663   6.547 -0.0168 -0.2758  1.9282
  473MOL0     H63799   1.306   7.499   6.506  1.9736 -0.7991  1.4788
  473MOL0     H63800   1.085   7.424   6.563 -2.2330  0.5227 -0.2444
  473MOL0     H63801   1.057   7.591   6.633 -0.0027  2.0054 -1.7797
  473MOL0     H63802   1.086   7.692   6.420  1.2973 -1.7338 -1.1191
  473MOL0     H63803   0.943   7.586   6.420 -0.5802 -0.7939 -3.2228
  473MOL0     H63804   1.218   7.532   6.301 -0.8287  1.3870  1.8600
  473MOL0     H63805   1.086   7.408   6.296 -0.1962 -0.4293 -1.9411
  473MOL0     H63806   0.882   7.426   6.146 -3.3592  1.6447  0.5611
  473MOL0     H63807   0.769   7.485   5.898  1.1373 -1.7080  1.2114
  473MOL0     H63808   0.806   7.642   5.838 -1.8748 -1.8133  1.1062
  473MOL0     H63809   0.879   7.472   5.669  0.2932 -1.2667  1.5945
  473MOL0     H63810   1.006   7.576   5.734  1.8033  0.3080  0.6188
  473MOL0     H63811   0.948   7.288   5.808 -2.0327  0.2023 -2.4155
  473MOL0     H63812   1.074   7.395   5.881 -2.7380  1.8446  0.9951
  473MOL0     H63813   1.043   7.270   5.604  1.0560  0.5705 -1.1874
  473MOL0     H63814   1.176   7.264   5.723  1.5399  1.0299  0.1090
  473MOL0     H63815   1.233   7.599   5.794  0.2139  0.8889 -0.5302
  473MOL0     H63816   1.465   7.642   5.896  1.1785  1.0601 -0.4939
  473MOL0     H63817   1.873   7.513   6.027 -2.3514 -0.3031 -1.9436
  473MOL0     H63818   2.103   7.547   6.090 -1.2035  1.1893 -0.7604
  473MOL0     H63819   2.445   7.550   5.786 -0.5463 -0.3202  1.3260
  473MOL0     H63820   2.357   7.697   5.839 -1.1626  0.0741  1.3062
  473MOL0     H63821   2.501   7.643   6.068 -0.6494  1.1847  0.8670
  473MOL0     H63822   2.621   7.590   5.946  2.6109  4.5127 -1.1819
  473MOL0     H63823   2.562   7.798   5.816 -2.1891  0.2054  0.2335
  473MOL0     H63824   2.486   7.849   5.967  0.0371  1.1993 -2.3832
  473MOL0     H63825   2.784   7.753   5.936  1.3589  0.6068  3.8903
  473MOL0     H63826   2.696   7.820   6.084 -0.6327 -0.0979  0.6081
  473MOL0     H63827   2.692   7.991   5.832  1.5366 -1.0353 -1.4739
  473MOL0     H63828   2.845   7.972   5.923 -0.5941  1.1376  0.6350
  473MOL0     H63829   2.580   8.053   6.066 -0.4156  0.5735 -1.5983
  473MOL0     H63830   2.757   8.053   6.124 -0.0509  1.6876 -0.2557
  473MOL0     H63831   2.814   8.241   6.021  0.5050 -0.7678 -3.4650
  473MOL0     H63832   2.645   8.273   6.072 -1.7411  0.2845 -0.8764
  473MOL0     H63833   2.673   8.355   5.844  2.0572 -0.0391  1.4361
  473MOL0     H63834   2.741   8.205   5.792 -1.2082  3.5778 -3.4265
  473MOL0     H63835   2.242   7.473   5.690 -0.3979 -0.7271  0.2158
  473MOL0     H63836   1.994   7.449   5.620  0.0863 -1.1250 -0.2609
  473MOL0     H63837   1.619   7.382   5.588 -0.2004  1.6654 -1.7032
  473MOL0     H63838   1.393   7.331   5.519 -2.1386 -2.5689  2.6161
  473MOL0     H63839   1.449   7.674   7.224  0.3587 -1.4269 -3.7425
  473MOL0     H63840   1.335   7.721   7.455  0.9554 -1.6344  2.1954
  473MOL0     H63841   1.067   7.538   7.738 -0.5843 -0.4264 -0.0858
  473MOL0     H63842   0.946   7.504   7.939 -1.8127 -1.3869 -2.2496
  473MOL0     H63843   0.729   7.584   8.227  2.8068  1.5674  0.8246
  473MOL0     H63844   0.771   7.496   8.084  3.8305  1.7374 -0.0470
  473MOL0     H63845   0.540   7.511   8.101 -1.7560  1.3164  2.9354
  473MOL0     H63846   0.583   7.609   7.954  3.0579 -0.7689 -0.8921
  473MOL0     H63847   0.573   7.814   8.080 -0.0795 -1.9478 -2.7949
  473MOL0     H63848   0.507   7.719   8.231  0.4031  1.7434  0.6226
  473MOL0     H63849   0.338   7.861   8.079 -1.8618 -1.0907  0.8798
  473MOL0     H63850   0.371   7.730   7.958 -3.1326  0.4164  0.0423
  473MOL0     H63851   0.164   7.549   8.285 -0.2085  1.3701  0.6955
  473MOL0     H63852   0.814   7.903   7.926 -1.6765  1.0411 -3.3369
  473MOL0     H63853   0.769   7.976   7.677  0.4063 -1.8169  1.8918
  473MOL0     H63854   0.897   8.053   7.774 -1.1983  1.0609  0.5651
  473MOL0     H63855   0.933   8.001   7.601 -1.6273 -0.9140 -1.0311
  474MOL0     O63856   3.108  10.991   0.670 -0.6769  0.8846 -0.1696
  474MOL0     C63857   3.107  11.087   0.589  0.7130  1.0299  0.6590
  474MOL0     O63858   2.993  11.159   0.554 -0.2712 -0.0189  0.3581
  474MOL0     C63859   2.868  11.143   0.615 -0.2714 -0.6503 -0.5504
  474MOL0     C63860   2.833  11.081   0.738  0.9579 -0.2546 -0.1518
  474MOL0     C63861   2.709  11.076   0.808 -0.5302 -0.5651 -0.2300
  474MOL0     C63862   2.608  11.143   0.736  0.7511 -0.2364 -0.7083
  474MOL0     O63863   2.480  11.162   0.784 -0.1603 -0.4608  0.0236
  474MOL0     C63864   2.423  11.043   0.844  1.2145 -1.0259  0.1071
  474MOL0     C63865   2.304  11.085   0.933 -0.1478  1.3261 -0.8469
  474MOL0     C63866   2.342  11.177   1.044  0.0883 -0.9276 -0.8531
  474MOL0     C63867   2.235  11.201   1.156  0.2510  0.6973 -0.3742
  474MOL0     C63868   2.301  11.249   1.296  0.4678  0.9651  0.3827
  474MOL0     C63869   2.363  11.393   1.296  0.6502  0.4677 -0.7690
  474MOL0     C63870   2.248  11.485   1.331  0.2271 -0.0696  0.5322
  474MOL0     C63871   2.253  11.610   1.241 -0.9722 -0.5437 -0.0806
  474MOL0     N63872   2.222  11.583   1.101 -0.2067  0.1772 -0.0026
  474MOL0     C63873   2.291  11.611   0.989 -0.0841  0.0367 -0.5027
  474MOL0     C63874   2.219  11.564   0.887 -0.3394  0.5632  0.1669
  474MOL0     C63875   2.247  11.570   0.743 -0.0410  0.8467 -0.1690
  474MOL0     C63876   2.246  11.437   0.676  0.3677  0.7498 -0.0804
  474MOL0     C63877   2.289  11.450   0.535 -0.7113  0.4774  1.1739
  474MOL0     C63878   2.274  11.308   0.456  0.6556 -0.2493 -0.0721
  474MOL0     O63879   2.275  11.319   0.313 -0.5139 -0.3036  0.9389
  474MOL0     C63880   2.153  11.320   0.256 -0.0695  0.1512  0.4597
  474MOL0     C63881   2.164  11.280   0.128 -0.6396  0.0075 -1.2891
  474MOL0     C63882   2.050  11.269   0.052  1.0274  1.7285 -0.5630
  474MOL0     C63883   1.926  11.312   0.095  0.1827 -0.7488  0.2845
  474MOL0     C63884   1.794  11.323   0.016  0.3098  0.6637  0.1899
  474MOL0     O63885   1.724  11.437   0.031  0.5969 -0.3611  0.4668
  474MOL0     C63886   1.605  11.429  -0.050 -0.5370  0.0207 -0.4132
  474MOL0     C63887   1.606  11.492  -0.169 -0.1885  0.1935  0.1786
  474MOL0     C63888   1.488  11.497  -0.247  0.3999  0.9656 -0.4239
  474MOL0     C63889   1.364  11.437  -0.198 -0.3533 -0.3711  0.5346
  474MOL0     O63890   1.242  11.428  -0.264  0.3463 -0.3760 -0.0358
  474MOL0     C63891   1.208  11.508  -0.380 -0.7189 -0.6498 -0.8527
  474MOL0     C63892   1.195  11.414  -0.506 -0.9623 -0.3390  0.0024
  474MOL0     C63893   1.317  11.346  -0.568 -1.5023 -0.7338 -1.4458
  474MOL0     C63894   1.263  11.229  -0.647 -0.1513  0.5957  0.1428
  474MOL0     C63895   1.358  11.180  -0.758  0.1104 -0.0147 -0.0284
  474MOL0     C63896   1.500  11.157  -0.707  0.4792 -0.3098 -0.7760
  474MOL0     C63897   1.594  11.101  -0.818 -0.7470  0.1677 -0.0441
  474MOL0     C63898   1.709  11.013  -0.769 -0.1038  0.1806  0.2819
  474MOL0    Cl63899   1.854  11.109  -0.735 -0.2917  0.7852  0.0562
  474MOL0     C63900   1.368  11.383  -0.066 -0.4446 -0.2447 -0.5788
  474MOL0     C63901   1.489  11.370  -0.002 -0.5672 -0.3641  0.3062
  474MOL0     O63902   1.756  11.223  -0.047  0.0509 -0.5146 -0.4702
  474MOL0     C63903   1.915  11.359   0.228 -0.1208  0.5552  0.5082
  474MOL0     C63904   2.030  11.353   0.306  0.1883  0.3155 -0.7452
  474MOL0     N63905   2.099  11.518   0.938  0.4382  0.4624 -0.6715
  474MOL0     N63906   2.102  11.532   1.065  0.3871  0.0597  0.0936
  474MOL0     C63907   2.636  11.204   0.613  0.4613 -0.0416  0.4064
  474MOL0     C63908   2.761  11.202   0.546 -0.4634  1.1094 -0.2636
  474MOL0     C63909   3.244  11.119   0.516 -1.1315 -0.2735  0.3068
  474MOL0     C63910   3.242  11.237   0.433 -0.9821  0.6534 -0.0604
  474MOL0     C63911   3.352  11.292   0.374 -0.9659 -0.1930  0.1379
  474MOL0     C63912   3.476  11.224   0.377 -0.4026  0.8205 -0.0678
  474MOL0     O63913   3.577  11.286   0.306  0.4372 -0.1886  0.3281
  474MOL0     C63914   3.709  11.230   0.289  0.7337 -0.3944 -0.8165
  474MOL0     C63915   3.767  11.249   0.157 -0.3777 -0.1311 -0.5194
  474MOL0     C63916   3.706  11.173   0.043  0.6265  0.7237  0.8756
  474MOL0     C63917   3.732  11.240  -0.087 -0.8904  0.0254  1.1836
  474MOL0     C63918   3.864  11.210  -0.131 -0.2782  0.1074 -0.7978
  474MOL0     C63919   3.979  11.186  -0.164  0.5144 -0.2634  0.1091
  474MOL0     C63920   3.482  11.105   0.460  0.0111  0.8737  0.1451
  474MOL0     C63921   3.369  11.048   0.527  0.4710 -0.2565 -0.1623
  474MOL0     C63922   3.381  10.924   0.609 -0.2726 -0.5737 -0.2282
  474MOL0     H63923   2.913  11.036   0.796  1.3491  0.9182  0.2501
  474MOL0     H63924   2.708  11.043   0.911 -3.0434 -1.6987 -0.5483
  474MOL0     H63925   2.394  10.974   0.764  1.3371 -2.7872  1.5094
  474MOL0     H63926   2.490  10.980   0.904  1.0220 -2.7939 -1.4509
  474MOL0     H63927   2.269  10.989   0.972 -0.1066 -0.6093 -5.0293
  474MOL0     H63928   2.223  11.124   0.871 -1.3807  2.7246  1.5222
  474MOL0     H63929   2.386  11.276   1.030  1.8920 -1.8022 -1.6326
  474MOL0     H63930   2.422  11.132   1.103 -2.4783 -2.4816  1.7368
  474MOL0     H63931   2.157  11.270   1.123 -1.9914  0.3209  3.5272
  474MOL0     H63932   2.174  11.111   1.174  0.3255  0.7347  0.0860
  474MOL0     H63933   2.227  11.232   1.374  0.4245 -2.2717 -0.2443
  474MOL0     H63934   2.383  11.179   1.313 -2.0452 -2.2943 -0.1028
  474MOL0     H63935   2.446  11.389   1.367 -0.0878  1.0692  0.1572
  474MOL0     H63936   2.413  11.419   1.202  1.1060 -0.5699 -0.8268
  474MOL0     H63937   2.273  11.519   1.432  3.1944 -1.3589  0.3311
  474MOL0     H63938   2.157  11.425   1.330  0.7855 -0.9303  0.7957
  474MOL0     H63939   2.181  11.676   1.289  0.3488 -0.2046  1.5483
  474MOL0     H63940   2.355  11.646   1.262  0.1775 -3.5072 -0.0563
  474MOL0     H63941   2.383  11.665   0.968 -1.6382  1.9006 -3.4444
  474MOL0     H63942   2.180  11.647   0.705 -0.6751 -0.3825 -1.6530
  474MOL0     H63943   2.350  11.603   0.727  1.2566 -0.4255  4.1415
  474MOL0     H63944   2.318  11.363   0.714  0.5443  0.1524 -1.4786
  474MOL0     H63945   2.149  11.386   0.679  0.5124  0.4638 -0.1659
  474MOL0     H63946   2.389  11.487   0.514 -1.3543  1.5833 -0.0985
  474MOL0     H63947   2.218  11.518   0.486  0.2897  0.5080 -0.3081
  474MOL0     H63948   2.183  11.259   0.493  0.7262  1.2015  2.2114
  474MOL0     H63949   2.351  11.236   0.484  1.1016 -1.2513 -3.3404
  474MOL0     H63950   2.260  11.242   0.095  0.3459 -0.3453  1.7193
  474MOL0     H63951   2.072  11.217  -0.041  0.9057 -2.3723  1.4834
  474MOL0     H63952   1.701  11.523  -0.211  0.3436 -2.0554 -0.4206
  474MOL0     H63953   1.485  11.529  -0.351  0.7025 -2.8970 -1.7887
  474MOL0     H63954   1.120  11.569  -0.357  2.0658  2.4011  3.0395
  474MOL0     H63955   1.279  11.591  -0.393 -1.7819  0.7668  1.7124
  474MOL0     H63956   1.121  11.336  -0.483 -1.0575 -1.7166 -4.1287
  474MOL0     H63957   1.143  11.473  -0.582 -2.1839 -2.0699 -0.5615
  474MOL0     H63958   1.373  11.416  -0.631 -1.9664  0.2897 -0.7574
  474MOL0     H63959   1.380  11.302  -0.489  0.5786  0.8467 -2.1463
  474MOL0     H63960   1.176  11.247  -0.711 -0.6186 -4.0576 -0.9178
  474MOL0     H63961   1.246  11.141  -0.584 -0.7095 -1.7675 -3.0463
  474MOL0     H63962   1.356  11.252  -0.840  1.4133  0.2967  0.1973
  474MOL0     H63963   1.330  11.079  -0.787 -0.5126 -1.2813  4.3394
  474MOL0     H63964   1.541  11.252  -0.670 -0.5928 -0.0222 -0.2990
  474MOL0     H63965   1.504  11.097  -0.617 -2.9171  2.4596  1.4841
  474MOL0     H63966   1.626  11.182  -0.883  2.1568 -0.3122  0.6481
  474MOL0     H63967   1.531  11.035  -0.878  0.8751  1.6709 -3.7046
  474MOL0     H63968   1.689  10.957  -0.677  2.0658 -0.9134  0.1628
  474MOL0     H63969   1.746  10.947  -0.849 -3.7498  0.8445 -2.1633
  474MOL0     H63970   1.281  11.355  -0.007  1.1744  0.2084  2.1862
  474MOL0     H63971   1.480  11.336   0.100 -0.3242 -2.4938 -0.3263
  474MOL0     H63972   1.821  11.394   0.269  0.4048  2.7270  0.0021
  474MOL0     H63973   2.011  11.375   0.411 -0.0840 -2.2026 -0.2000
  474MOL0     H63974   2.549  11.246   0.564  3.2057  3.8420 -1.6895
  474MOL0     H63975   2.783  11.233   0.444 -2.1025 -1.4220 -1.4930
  474MOL0     H63976   3.154  11.298   0.419 -0.2787  1.9072  0.7878
  474MOL0     H63977   3.338  11.382   0.316 -0.7996  1.8614  3.0481
  474MOL0     H63978   3.706  11.121   0.299 -2.5709 -0.4351 -1.3231
  474MOL0     H63979   3.776  11.262   0.370  0.1373 -2.0966  0.4121
  474MOL0     H63980   3.875  11.229   0.154 -0.0797  0.9945  1.1298
  474MOL0     H63981   3.758  11.357   0.138  1.2045 -0.1470 -1.6102
  474MOL0     H63982   3.596  11.166   0.044  0.6776 -1.0015 -0.0934
  474MOL0     H63983   3.746  11.071   0.044 -0.2819  0.3599  1.0965
  474MOL0     H63984   3.661  11.203  -0.162 -1.9113  0.2475  2.0029
  474MOL0     H63985   3.721  11.349  -0.086  2.1134  0.4054  0.2762
  474MOL0     H63986   4.080  11.182  -0.199  0.9901  2.8284  0.8335
  474MOL0     H63987   3.573  11.046   0.462 -0.2162  0.0983 -3.6559
  474MOL0     H63988   3.486  10.902   0.633  0.1274  0.8852 -0.5767
  474MOL0     H63989   3.341  10.947   0.708  0.4825  0.9106 -0.2368
  474MOL0     H63990   3.328  10.839   0.564 -0.7895  0.2069 -1.1171
  475MOL0     O63991   5.223   2.631   6.642 -0.3568 -0.2771  1.0054
  475MOL0     C63992   5.130   2.713   6.628 -0.2693 -0.0598 -0.1008
  475MOL0     O63993   5.148   2.851   6.645  0.0356  0.5797  0.0662
  475MOL0     C63994   5.274   2.899   6.684 -1.1272  0.4365  0.0087
  475MOL0     C63995   5.362   2.949   6.587  0.0765 -0.2018  0.0069
  475MOL0     C63996   5.480   3.012   6.632 -0.0516 -1.1876  0.6307
  475MOL0     C63997   5.515   3.032   6.762  0.4730 -0.5607 -0.8934
  475MOL0     O63998   5.632   3.082   6.812 -0.4768  0.3658 -0.4713
  475MOL0     C63999   5.738   3.087   6.719  1.0575 -0.2933  0.1448
  475MOL0     C64000   5.856   3.154   6.796  0.3580 -0.9541  1.0476
  475MOL0     C64001   5.993   3.182   6.733  0.1150  0.0586 -0.7934
  475MOL0     C64002   6.049   3.320   6.779  0.5794  0.6461  0.9913
  475MOL0     C64003   6.199   3.342   6.739  0.9553 -0.4902  0.0345
  475MOL0     C64004   6.264   3.476   6.779 -1.0239 -0.0604 -0.6828
  475MOL0     C64005   6.416   3.487   6.740 -0.5582  0.5500  0.0841
  475MOL0     C64006   6.503   3.599   6.804 -0.8685  0.1630  0.9003
  475MOL0     N64007   6.635   3.590   6.728  0.6122  0.4226 -0.0167
  475MOL0     C64008   6.653   3.671   6.614 -0.6881  0.3749 -0.0002
  475MOL0     C64009   6.779   3.652   6.584  0.5009  0.4984 -0.0617
  475MOL0     C64010   6.843   3.699   6.454 -0.4695  0.6685 -0.2849
  475MOL0     C64011   6.908   3.583   6.374  0.3327  0.5362 -0.4090
  475MOL0     C64012   6.896   3.603   6.228 -0.0582 -0.7912 -0.4295
  475MOL0     C64013   7.010   3.534   6.153  0.2428  0.5887  0.6261
  475MOL0     O64014   6.985   3.393   6.157  0.1996 -0.7624  0.7770
  475MOL0     C64015   7.054   3.304   6.075 -0.2111 -0.5666  0.0817
  475MOL0     C64016   7.179   3.337   6.018 -0.3893 -0.0307 -0.2670
  475MOL0     C64017   7.252   3.244   5.939  0.6906 -0.1402  0.4269
  475MOL0     C64018   7.202   3.118   5.910  0.5491 -0.0211 -0.5025
  475MOL0     C64019   7.271   3.026   5.820  0.7329 -0.0341  0.0520
  475MOL0     O64020   7.232   2.896   5.840  0.1485  0.0050 -0.0627
  475MOL0     C64021   7.305   2.800   5.765 -0.0345 -0.4629 -0.5836
  475MOL0     C64022   7.242   2.741   5.654  0.5782 -0.3039  0.0536
  475MOL0     C64023   7.316   2.665   5.568  0.0284 -0.1255  0.0825
  475MOL0     C64024   7.453   2.644   5.598 -0.3491  1.0115  0.7868
  475MOL0     O64025   7.518   2.557   5.523  1.1125  0.1141  0.1076
  475MOL0     C64026   7.555   2.595   5.388  0.9468 -0.1290 -0.1736
  475MOL0     C64027   7.649   2.496   5.324  1.4974  0.1974  1.1062
  475MOL0     C64028   7.760   2.455   5.415  0.5145  0.0671 -0.4795
  475MOL0     C64029   7.852   2.578   5.443 -0.3555 -0.8131 -0.1265
  475MOL0     C64030   7.965   2.533   5.539 -0.1908 -0.0992  0.3069
  475MOL0     C64031   8.044   2.656   5.579 -0.0830  0.0431  0.7202
  475MOL0     C64032   8.154   2.627   5.682 -0.2745 -0.3432 -0.2140
  475MOL0     C64033   8.236   2.749   5.727  0.2901 -0.5971  0.6500
  475MOL0    Cl64034   8.330   2.816   5.586 -0.0812  0.1624 -0.2219
  475MOL0     C64035   7.524   2.713   5.694  0.4395  0.6980 -0.2729
  475MOL0     C64036   7.442   2.790   5.776 -0.2348 -0.5880  0.8789
  475MOL0     O64037   7.342   3.069   5.730  0.4195 -0.4058  0.1023
  475MOL0     C64038   7.079   3.087   5.970  0.2668  0.9126 -0.3116
  475MOL0     C64039   7.004   3.180   6.043 -0.0794  0.2288 -0.4393
  475MOL0     N64040   6.827   3.559   6.670 -0.2366 -0.0393  0.4710
  475MOL0     N64041   6.752   3.535   6.761 -0.2110 -0.3400 -0.1202
  475MOL0     C64042   5.438   2.968   6.864 -0.5239 -0.3160 -0.5315
  475MOL0     C64043   5.311   2.907   6.826 -1.2743 -0.9895 -0.5348
  475MOL0     C64044   4.988   2.671   6.617  0.3224  0.0161 -0.2544
  475MOL0     C64045   4.887   2.763   6.667  0.3015  0.0608 -0.1458
  475MOL0     C64046   4.748   2.734   6.653 -0.0998 -0.0729  1.0761
  475MOL0     C64047   4.709   2.615   6.593 -0.3111  0.7773  0.1969
  475MOL0     O64048   4.581   2.571   6.592 -0.7893 -0.5021 -0.4120
  475MOL0     C64049   4.469   2.657   6.574  0.3621  0.1395  0.5750
  475MOL0     C64050   4.354   2.584   6.495 -0.1681 -0.6223  0.2408
  475MOL0     C64051   4.357   2.558   6.343  0.5776 -0.1802 -0.1429
  475MOL0     C64052   4.354   2.691   6.272 -1.0182  0.0571 -0.3983
  475MOL0     C64053   4.335   2.667   6.130 -0.8251 -0.0499 -0.2421
  475MOL0     C64054   4.307   2.618   6.020  0.0245 -0.0094  0.3863
  475MOL0     C64055   4.804   2.532   6.545 -0.3868 -0.2414 -0.2837
  475MOL0     C64056   4.940   2.560   6.541  0.8349  0.5872 -0.4356
  475MOL0     C64057   5.028   2.451   6.473  0.0192 -0.5193 -0.7124
  475MOL0     H64058   5.332   2.956   6.483 -0.9966 -1.0615  0.2445
  475MOL0     H64059   5.557   3.052   6.566  1.9606 -1.6919  2.5735
  475MOL0     H64060   5.758   2.984   6.690  1.3230 -0.7117  1.7153
  475MOL0     H64061   5.726   3.154   6.634 -2.2388  2.5679  2.5579
  475MOL0     H64062   5.881   3.081   6.874 -0.9099  0.3974  2.8168
  475MOL0     H64063   5.818   3.246   6.842  4.1643  1.2701  0.2368
  475MOL0     H64064   5.984   3.184   6.625 -0.7489 -0.5232 -0.7350
  475MOL0     H64065   6.057   3.099   6.764  0.4977 -0.2564 -2.3790
  475MOL0     H64066   5.983   3.393   6.731  1.7961  2.4674  1.9863
  475MOL0     H64067   6.046   3.315   6.888 -0.0567  1.5339  1.0196
  475MOL0     H64068   6.252   3.260   6.787  0.7876 -0.5213  0.1638
  475MOL0     H64069   6.206   3.329   6.630 -0.5597  4.7366 -0.9854
  475MOL0     H64070   6.205   3.559   6.739  1.8222  1.3543 -2.2795
  475MOL0     H64071   6.257   3.485   6.888 -1.2664 -0.2699 -0.6815
  475MOL0     H64072   6.414   3.496   6.631 -3.2462  3.0618  0.2151
  475MOL0     H64073   6.468   3.398   6.774 -0.4910  0.5685  0.0301
  475MOL0     H64074   6.459   3.698   6.789 -0.4696  0.3713  1.1020
  475MOL0     H64075   6.517   3.590   6.912 -0.3066  2.0065  1.0191
  475MOL0     H64076   6.570   3.725   6.570 -0.7464  0.8540  0.6792
  475MOL0     H64077   6.763   3.751   6.402 -0.3141  2.0544  0.7901
  475MOL0     H64078   6.926   3.767   6.475  0.3502 -0.2155 -0.5913
  475MOL0     H64079   7.016   3.588   6.395  0.0757  0.9366  0.9079
  475MOL0     H64080   6.870   3.484   6.401 -2.6915  1.8118  0.3877
  475MOL0     H64081   6.910   3.707   6.197  1.8890  0.1668  3.0559
  475MOL0     H64082   6.801   3.557   6.201 -2.2291  4.2448 -2.7447
  475MOL0     H64083   7.102   3.567   6.201  1.5838 -1.8713 -0.0728
  475MOL0     H64084   7.004   3.569   6.050 -4.5514 -1.0513  0.0586
  475MOL0     H64085   7.222   3.436   6.026 -0.0454  0.1700 -3.2420
  475MOL0     H64086   7.345   3.275   5.892  2.1867 -1.9027  2.0869
  475MOL0     H64087   7.140   2.777   5.647  0.8799  0.4598 -0.4890
  475MOL0     H64088   7.270   2.613   5.484 -2.0433  2.0829 -0.2596
  475MOL0     H64089   7.463   2.600   5.330 -0.5830 -2.5722  1.8513
  475MOL0     H64090   7.600   2.694   5.398  2.6689 -0.5689 -2.7314
  475MOL0     H64091   7.587   2.407   5.312 -2.7066  2.8165  1.2544
  475MOL0     H64092   7.674   2.536   5.225  0.3404 -1.2480  0.1912
  475MOL0     H64093   7.719   2.400   5.500 -1.5642  2.0427 -0.1160
  475MOL0     H64094   7.819   2.378   5.365 -0.8018 -0.9356 -0.5368
  475MOL0     H64095   7.805   2.666   5.488  2.1084  0.4184  0.2207
  475MOL0     H64096   7.893   2.622   5.352 -1.5720 -2.5483 -1.5917
  475MOL0     H64097   8.032   2.463   5.488 -1.1660 -0.9994  0.2379
  475MOL0     H64098   7.925   2.481   5.627 -0.7558 -0.4758 -0.1688
  475MOL0     H64099   8.085   2.699   5.487 -0.9235  1.5050  0.9999
  475MOL0     H64100   7.970   2.718   5.630 -0.9249 -0.2380 -0.1471
  475MOL0     H64101   8.223   2.553   5.643 -0.4422 -0.1021 -0.9802
  475MOL0     H64102   8.097   2.584   5.765 -1.5213 -0.6039 -1.1639
  475MOL0     H64103   8.164   2.822   5.765 -0.1704 -1.0084  0.5783
  475MOL0     H64104   8.311   2.726   5.804  1.6696  0.4929 -0.3231
  475MOL0     H64105   7.629   2.704   5.722  0.3926 -2.2850 -0.7369
  475MOL0     H64106   7.496   2.857   5.842 -1.1436  0.5051  0.5467
  475MOL0     H64107   7.049   2.983   5.965  0.9445  0.4351  3.0648
  475MOL0     H64108   6.901   3.164   6.071  0.0546  2.5166  1.5806
  475MOL0     H64109   5.461   2.972   6.970  1.1896  0.2660 -0.8948
  475MOL0     H64110   5.244   2.864   6.900  1.9687 -1.3025  2.5029
  475MOL0     H64111   4.907   2.853   6.723 -1.5313  0.6008 -0.3278
  475MOL0     H64112   4.663   2.798   6.674 -4.0109 -2.3274 -5.0580
  475MOL0     H64113   4.495   2.742   6.510 -0.0451 -1.4955 -1.8908
  475MOL0     H64114   4.440   2.675   6.678 -1.8445 -2.6781  0.5786
  475MOL0     H64115   4.265   2.647   6.503 -0.0236 -0.5069  1.0249
  475MOL0     H64116   4.333   2.487   6.543 -2.0882  0.2552  1.2912
  475MOL0     H64117   4.272   2.498   6.312  0.5646  0.5309 -1.5424
  475MOL0     H64118   4.450   2.504   6.324  1.0149  0.8149 -0.9166
  475MOL0     H64119   4.272   2.756   6.305 -1.0035 -0.5162  0.8093
  475MOL0     H64120   4.448   2.745   6.286 -1.8141  1.3499  0.1577
  475MOL0     H64121   4.262   2.575   5.933  0.2951 -0.9608  0.7052
  475MOL0     H64122   4.760   2.441   6.505 -2.1961  0.9306 -1.0766
  475MOL0     H64123   5.105   2.506   6.419  1.2551 -1.8090 -0.3116
  475MOL0     H64124   5.073   2.400   6.558 -3.2761 -2.0064  0.2968
  475MOL0     H64125   4.969   2.383   6.411 -0.4055 -0.0781 -0.7982
  476MOL0     O64126   7.163   9.521   4.710 -0.5076 -0.3862  0.2979
  476MOL0     C64127   7.108   9.631   4.717 -0.1141 -0.1828 -0.3264
  476MOL0     O64128   6.996   9.658   4.648 -0.1762  0.0141  0.6682
  476MOL0     C64129   6.942   9.564   4.565  0.2345  0.2427  0.5858
  476MOL0     C64130   6.855   9.460   4.613  0.8489 -0.6379 -0.9634
  476MOL0     C64131   6.783   9.379   4.528 -0.1281  0.1594  0.6608
  476MOL0     C64132   6.798   9.403   4.393  0.8163 -0.7859 -0.0270
  476MOL0     O64133   6.700   9.328   4.315  0.7334  0.3724  0.0749
  476MOL0     C64134   6.689   9.351   4.174  1.2896  0.7561  0.6961
  476MOL0     C64135   6.595   9.235   4.123  0.0503 -0.2680  0.6674
  476MOL0     C64136   6.566   9.249   3.979  0.5190  0.5203  0.1058
  476MOL0     C64137   6.420   9.207   3.939 -0.1690  0.0261 -0.0947
  476MOL0     C64138   6.379   9.241   3.796 -0.4031  0.3922 -0.0573
  476MOL0     C64139   6.382   9.392   3.747  0.1618 -0.3951 -0.6097
  476MOL0     C64140   6.249   9.450   3.702 -0.3376 -0.3761 -0.3747
  476MOL0     C64141   6.141   9.479   3.811  0.2568  0.2696 -0.9139
  476MOL0     N64142   6.016   9.531   3.760  0.2482  0.0569 -1.0160
  476MOL0     C64143   5.927   9.614   3.830 -0.3022 -0.2527 -0.1873
  476MOL0     C64144   5.834   9.657   3.736  1.1424 -0.0362 -1.2692
  476MOL0     C64145   5.707   9.735   3.764  0.3312 -0.3104  0.4899
  476MOL0     C64146   5.596   9.653   3.824  0.6673 -0.1270  0.3429
  476MOL0     C64147   5.557   9.541   3.737 -0.0194  0.0207  0.1537
  476MOL0     C64148   5.427   9.486   3.795  0.2672  0.5070  1.0418
  476MOL0     O64149   5.462   9.374   3.880  0.4030 -0.6401 -0.2495
  476MOL0     C64150   5.348   9.321   3.940  0.6176 -0.0540 -0.2583
  476MOL0     C64151   5.279   9.213   3.880 -0.4603  0.5529  0.6039
  476MOL0     C64152   5.175   9.141   3.949 -0.5526 -0.1795 -0.0661
  476MOL0     C64153   5.134   9.193   4.071  0.1057  0.8425 -0.4424
  476MOL0     C64154   5.013   9.131   4.131  0.9359 -0.2379  0.3669
  476MOL0     O64155   4.955   9.020   4.069  0.5426 -0.2067  0.0025
  476MOL0     C64156   4.840   8.980   4.118 -0.1334 -0.4508 -0.4479
  476MOL0     C64157   4.724   9.061   4.115 -0.8119  0.4313  1.2706
  476MOL0     C64158   4.594   9.007   4.135  0.6867  0.0126 -0.8560
  476MOL0     C64159   4.567   8.869   4.166 -0.1835  0.2061  1.2682
  476MOL0     O64160   4.444   8.820   4.205 -0.3398 -0.2667 -0.3024
  476MOL0     C64161   4.413   8.681   4.216  0.6251  0.0550 -1.2606
  476MOL0     C64162   4.418   8.640   4.366 -0.0258 -0.0893 -0.5150
  476MOL0     C64163   4.354   8.505   4.398 -0.3771  0.0679  0.1023
  476MOL0     C64164   4.325   8.483   4.549 -0.3392  1.1139  0.3211
  476MOL0     C64165   4.257   8.342   4.567  0.0254  0.2387 -1.0640
  476MOL0     C64166   4.121   8.322   4.506 -0.1035 -1.0943  0.0312
  476MOL0     C64167   4.002   8.421   4.548 -0.6221 -0.8844  0.1518
  476MOL0     C64168   3.895   8.430   4.427  0.5136 -0.6315  0.1907
  476MOL0    Cl64169   3.781   8.296   4.450 -0.4837  0.1548  0.6413
  476MOL0     C64170   4.689   8.789   4.162  0.1730  0.6774 -0.4219
  476MOL0     C64171   4.823   8.844   4.142  1.1538  0.4222 -0.7680
  476MOL0     O64172   4.984   9.174   4.241  0.2089  0.5258  0.4997
  476MOL0     C64173   5.199   9.306   4.122  0.1578 -0.3451  0.0715
  476MOL0     C64174   5.309   9.366   4.065 -1.1963  0.2581  0.4142
  476MOL0     N64175   5.862   9.607   3.618  1.1897  0.2736  0.2515
  476MOL0     N64176   5.970   9.542   3.624 -0.9494 -0.0478 -0.1676
  476MOL0     C64177   6.883   9.497   4.338  0.0381 -0.7954 -0.4986
  476MOL0     C64178   6.952   9.580   4.428 -0.0411 -0.5828 -0.0204
  476MOL0     C64179   7.163   9.737   4.797 -0.2203 -0.0592  1.2277
  476MOL0     C64180   7.131   9.874   4.775 -0.1386  0.1986 -0.5448
  476MOL0     C64181   7.190   9.982   4.840  0.8902 -0.7485 -0.1842
  476MOL0     C64182   7.293   9.954   4.929  0.0793 -0.1578 -1.2058
  476MOL0     O64183   7.376  10.048   4.980  0.0504 -0.5184 -0.9231
  476MOL0     C64184   7.383  10.183   4.924 -0.6550 -0.9159  0.0358
  476MOL0     C64185   7.484  10.262   5.014 -0.1519  0.5848 -0.0936
  476MOL0     C64186   7.513  10.409   4.982  0.1829  0.2655  0.2867
  476MOL0     C64187   7.570  10.426   4.842 -0.4824 -0.4750 -0.0128
  476MOL0     C64188   7.641  10.557   4.830  0.2548 -0.1247  1.2463
  476MOL0     C64189   7.694  10.665   4.816  1.4301  0.6504 -0.0433
  476MOL0     C64190   7.309   9.823   4.976  0.0585 -0.4189  0.2271
  476MOL0     C64191   7.247   9.712   4.917  0.7005  0.6082  1.2187
  476MOL0     C64192   7.254   9.584   4.988 -0.5323  0.0650  0.2462
  476MOL0     H64193   6.850   9.446   4.721  3.7160 -0.1794 -0.6846
  476MOL0     H64194   6.706   9.315   4.568  0.5125  0.5093  2.5591
  476MOL0     H64195   6.638   9.444   4.147 -0.1083 -0.2515 -0.2310
  476MOL0     H64196   6.789   9.344   4.129  0.5786 -0.9717 -0.7213
  476MOL0     H64197   6.513   9.239   4.195  1.7440 -2.1050  2.8369
  476MOL0     H64198   6.641   9.137   4.137 -1.4133 -1.5905 -2.6795
  476MOL0     H64199   6.629   9.185   3.917  1.5910  1.4217  0.2307
  476MOL0     H64200   6.582   9.350   3.939 -1.2711 -0.1598 -2.5710
  476MOL0     H64201   6.417   9.099   3.955 -2.9508  0.0329 -0.0206
  476MOL0     H64202   6.358   9.258   4.013  2.0156 -1.1337  2.6873
  476MOL0     H64203   6.442   9.179   3.731 -0.1938  1.9252 -1.3942
  476MOL0     H64204   6.281   9.196   3.776  0.1359 -0.1297 -1.7358
  476MOL0     H64205   6.423   9.439   3.837  2.9092 -2.1343 -0.8105
  476MOL0     H64206   6.469   9.417   3.685  1.4036 -0.8141  0.8850
  476MOL0     H64207   6.203   9.380   3.632 -2.8686  0.3490  0.4712
  476MOL0     H64208   6.266   9.546   3.653 -2.0026  0.4656  0.6079
  476MOL0     H64209   6.116   9.388   3.866 -0.3102 -0.0228 -1.6301
  476MOL0     H64210   6.174   9.540   3.895  0.9600 -1.8857  0.4677
  476MOL0     H64211   5.925   9.631   3.937  1.2011  0.9751 -0.3146
  476MOL0     H64212   5.728   9.817   3.834  2.9228 -0.8291  0.3944
  476MOL0     H64213   5.686   9.776   3.665  2.9010 -0.0705 -0.0145
  476MOL0     H64214   5.624   9.607   3.920 -2.5130 -1.1282  0.9167
  476MOL0     H64215   5.509   9.719   3.836  0.4622  0.0216 -1.6696
  476MOL0     H64216   5.629   9.458   3.742  1.5462  1.3577  0.6900
  476MOL0     H64217   5.545   9.564   3.631 -0.1053 -1.2817 -0.1473
  476MOL0     H64218   5.369   9.454   3.708  2.1017 -1.7318  0.5195
  476MOL0     H64219   5.366   9.562   3.844  2.7198  3.4113 -0.1192
  476MOL0     H64220   5.318   9.191   3.781  1.0361  1.0123  1.0608
  476MOL0     H64221   5.124   9.061   3.897 -2.7922  1.1582 -0.0437
  476MOL0     H64222   4.740   9.164   4.086  3.3771 -0.7796 -1.6672
  476MOL0     H64223   4.513   9.079   4.142  1.8707  1.2280  2.1191
  476MOL0     H64224   4.307   8.657   4.204 -0.1336  1.6986  1.3381
  476MOL0     H64225   4.469   8.621   4.144 -0.3885 -0.8158 -1.3465
  476MOL0     H64226   4.521   8.627   4.399 -1.2852  2.8612  6.0992
  476MOL0     H64227   4.384   8.717   4.435  3.2924  0.4765  0.6578
  476MOL0     H64228   4.256   8.502   4.349  0.5202 -2.2411 -1.7529
  476MOL0     H64229   4.418   8.425   4.358 -2.3496 -2.1043  1.0139
  476MOL0     H64230   4.261   8.565   4.583 -2.0043 -0.9958  2.7214
  476MOL0     H64231   4.419   8.488   4.606 -0.7225 -1.3815  1.3120
  476MOL0     H64232   4.235   8.306   4.668 -3.2794 -0.5104 -1.9362
  476MOL0     H64233   4.330   8.272   4.526  0.4297  0.3404 -0.5332
  476MOL0     H64234   4.121   8.306   4.398 -0.6749  0.6745 -0.2640
  476MOL0     H64235   4.082   8.227   4.544 -0.7952 -1.4947 -1.5679
  476MOL0     H64236   4.041   8.523   4.555 -0.0278 -0.9766 -1.4280
  476MOL0     H64237   3.951   8.384   4.637 -1.7401  1.7433  0.6845
  476MOL0     H64238   3.839   8.522   4.442  1.4549  0.3637 -2.0188
  476MOL0     H64239   3.937   8.438   4.326  0.9939  0.1688  0.4477
  476MOL0     H64240   4.687   8.682   4.184 -0.1090  1.0058  1.3004
  476MOL0     H64241   4.907   8.776   4.140 -0.1821 -1.3336 -3.6473
  476MOL0     H64242   5.152   9.354   4.207  0.3727  3.0768 -1.5757
  476MOL0     H64243   5.378   9.437   4.112 -0.7770  2.0994 -2.6905
  476MOL0     H64244   6.890   9.517   4.231  1.5498 -0.6803 -0.4044
  476MOL0     H64245   7.035   9.645   4.401 -0.9967  1.3141  1.3638
  476MOL0     H64246   7.056   9.896   4.700 -1.9670  0.3621  1.2365
  476MOL0     H64247   7.183  10.084   4.805  2.7314  0.4641  2.5874
  476MOL0     H64248   7.287  10.234   4.914  1.6591  3.6429 -1.9394
  476MOL0     H64249   7.412  10.185   4.819  0.0117 -0.5777  0.2175
  476MOL0     H64250   7.571  10.195   5.018 -2.0198 -1.9629  0.2517
  476MOL0     H64251   7.437  10.254   5.112  0.2276 -2.4372 -0.0474
  476MOL0     H64252   7.590  10.444   5.052  2.1762  1.9578 -2.5031
  476MOL0     H64253   7.429  10.479   4.982 -1.5195 -1.5184  3.8859
  476MOL0     H64254   7.640  10.344   4.825 -0.2791 -0.1756 -0.6397
  476MOL0     H64255   7.489  10.424   4.768  0.6177  0.5658 -1.2968
  476MOL0     H64256   7.741  10.759   4.796 -1.8847  2.0861 -1.7516
  476MOL0     H64257   7.376   9.798   5.058  1.2815 -2.3912 -1.2846
  476MOL0     H64258   7.158   9.536   4.968 -0.5776  0.2676 -0.0280
  476MOL0     H64259   7.347   9.531   4.964  2.4120  3.5543  2.7855
  476MOL0     H64260   7.255   9.597   5.096  0.3660  0.5353  0.1945
  477MOL0     O64261   7.296   0.078   5.065 -0.2730 -0.8785  0.5678
  477MOL0     C64262   7.319   0.011   4.960  0.8900 -0.5215 -0.2424
  477MOL0     O64263   7.432  -0.015   4.912 -0.6967  0.1467  0.1700
  477MOL0     C64264   7.538   0.067   4.956  0.3547 -0.5082 -0.0994
  477MOL0     C64265   7.552   0.198   4.895  0.0790  0.4860  0.2369
  477MOL0     C64266   7.655   0.282   4.934 -0.0242 -0.3721  0.1741
  477MOL0     C64267   7.727   0.259   5.058 -0.4978 -1.1786  0.0670
  477MOL0     O64268   7.824   0.348   5.088 -0.0017 -0.4767  0.2141
  477MOL0     C64269   7.913   0.322   5.204 -0.1256 -0.3886  0.1311
  477MOL0     C64270   8.022   0.424   5.212 -0.3028  0.6723 -1.5961
  477MOL0     C64271   8.105   0.394   5.336 -0.5842  0.2130  0.1959
  477MOL0     C64272   8.212   0.501   5.358 -0.1981  0.9412 -0.1768
  477MOL0     C64273   8.278   0.492   5.497 -0.2583  0.7788  0.0612
  477MOL0     C64274   8.396   0.567   5.495 -0.3987  0.3544 -0.4107
  477MOL0     C64275   8.441   0.628   5.627 -0.3371  0.0727  0.1383
  477MOL0     C64276   8.370   0.745   5.689  0.2072 -0.8858 -1.5525
  477MOL0     N64277   8.388   0.873   5.630  0.7406  0.2754  0.5536
  477MOL0     C64278   8.512   0.917   5.587 -0.3155 -1.0090  0.5676
  477MOL0     C64279   8.482   1.028   5.519  0.0869 -0.8265 -0.3900
  477MOL0     C64280   8.583   1.121   5.446  0.4283  1.1220  0.1138
  477MOL0     C64281   8.726   1.146   5.493  0.5467  0.4811  0.6012
  477MOL0     C64282   8.766   1.291   5.494 -0.4303 -0.6724  0.1082
  477MOL0     C64283   8.921   1.298   5.544  0.1453 -0.8205 -0.4258
  477MOL0     O64284   9.013   1.280   5.440  0.0863  0.1694  0.5317
  477MOL0     C64285   9.062   1.395   5.375 -0.3053 -0.4261 -0.2893
  477MOL0     C64286   9.188   1.375   5.320  0.4330  0.4265  0.1889
  477MOL0     C64287   9.262   1.486   5.277  0.3330  0.4764  0.5145
  477MOL0     C64288   9.220   1.618   5.293  0.3992 -0.5113 -1.1052
  477MOL0     C64289   9.299   1.732   5.251  0.1250  0.6882 -1.1727
  477MOL0     O64290   9.243   1.854   5.255  0.2269  0.1072  0.4438
  477MOL0     C64291   9.303   1.967   5.205  1.1729  0.0947 -0.3935
  477MOL0     C64292   9.415   2.007   5.283 -0.8287 -0.2157 -0.3953
  477MOL0     C64293   9.478   2.128   5.239  0.1267 -0.0138  0.3652
  477MOL0     C64294   9.446   2.191   5.121 -0.4132 -1.0358  1.2077
  477MOL0     O64295   9.528   2.307   5.083  1.0584 -0.2506  0.1894
  477MOL0     C64296   9.659   2.278   5.028  0.3798 -0.5911 -0.2066
  477MOL0     C64297   9.770   2.340   5.119  0.4413 -0.0778  0.1377
  477MOL0     C64298   9.912   2.318   5.060 -0.3022 -0.1346  0.1146
  477MOL0     C64299  10.003   2.438   5.089 -0.1100  0.0529  0.3432
  477MOL0     C64300  10.143   2.427   5.020  0.5676  0.3203  0.1735
  477MOL0     C64301  10.218   2.562   5.046 -0.4912  0.1451 -1.2357
  477MOL0     C64302  10.233   2.611   5.186 -0.7398 -0.1774  0.1580
  477MOL0     C64303  10.145   2.741   5.208 -0.0990 -0.1842  0.2037
  477MOL0    Cl64304  10.174   2.811   5.369 -0.4403 -0.1970 -0.1444
  477MOL0     C64305   9.346   2.142   5.037  0.3346  0.7401  0.2680
  477MOL0     C64306   9.266   2.032   5.084  0.0517 -0.9753 -0.2594
  477MOL0     O64307   9.416   1.707   5.226 -0.9274 -0.0226  0.5339
  477MOL0     C64308   9.087   1.633   5.340  0.5902  0.9372  0.2733
  477MOL0     C64309   9.016   1.522   5.385  0.8092  0.1134  0.0195
  477MOL0     N64310   8.344   1.057   5.536 -0.4251 -0.2980  0.4711
  477MOL0     N64311   8.282   0.950   5.596  0.3619  0.0277 -0.5890
  477MOL0     C64312   7.724   0.127   5.104 -0.0031  0.8063 -0.6433
  477MOL0     C64313   7.624   0.034   5.064 -0.6632 -0.0916  0.3810
  477MOL0     C64314   7.196  -0.037   4.892 -0.0540  0.7552  0.1035
  477MOL0     C64315   7.214  -0.153   4.811  0.0575  0.4802 -2.0817
  477MOL0     C64316   7.107  -0.209   4.741  0.9574  0.6801  0.8046
  477MOL0     C64317   6.978  -0.158   4.749  0.5410 -1.0453  0.9559
  477MOL0     O64318   6.886  -0.222   4.665 -0.5453  0.1495 -0.8949
  477MOL0     C64319   6.750  -0.198   4.674 -0.2057 -0.0254 -0.9356
  477MOL0     C64320   6.719  -0.077   4.582 -0.2197  0.6968  0.5038
  477MOL0     C64321   6.591  -0.001   4.606  0.1475  0.5865  0.9071
  477MOL0     C64322   6.599   0.083   4.738 -0.5762 -0.1972 -1.3480
  477MOL0     C64323   6.700   0.196   4.750 -0.3865 -0.3703 -0.5378
  477MOL0     C64324   6.776   0.288   4.768 -1.5486 -0.4536  1.2476
  477MOL0     C64325   6.953  -0.063   4.843 -0.1372  0.0693  1.9973
  477MOL0     C64326   7.065   0.003   4.912 -0.1999 -0.3799  0.0350
  477MOL0     C64327   7.018   0.089   5.035 -0.0346  0.9293  0.2459
  477MOL0     H64328   7.479   0.237   4.825 -1.7309  1.9848  2.7470
  477MOL0     H64329   7.654   0.378   4.884  3.6831  1.1874  2.6143
  477MOL0     H64330   7.844   0.318   5.289 -1.7369  1.5746 -0.9885
  477MOL0     H64331   7.956   0.225   5.179 -0.1876 -0.2262 -0.6227
  477MOL0     H64332   7.986   0.526   5.231 -0.5962  0.4451 -0.9125
  477MOL0     H64333   8.085   0.420   5.123  4.0520 -1.8768  1.2251
  477MOL0     H64334   8.158   0.302   5.309  0.6488  1.3210 -1.3422
  477MOL0     H64335   8.036   0.391   5.421 -1.6247  1.4167 -0.5658
  477MOL0     H64336   8.282   0.477   5.277 -0.7820  4.0965 -1.7820
  477MOL0     H64337   8.163   0.597   5.342 -2.2509 -0.2363 -1.5071
  477MOL0     H64338   8.207   0.514   5.577 -1.5298 -1.8039 -0.2439
  477MOL0     H64339   8.312   0.389   5.514 -0.8815  0.4365 -0.6863
  477MOL0     H64340   8.478   0.499   5.469 -0.3917 -0.2846  1.2090
  477MOL0     H64341   8.394   0.638   5.411  0.4534  2.6144  1.3750
  477MOL0     H64342   8.547   0.653   5.633  0.2143 -1.5681 -1.6484
  477MOL0     H64343   8.430   0.540   5.690  0.6840 -1.0615 -1.2060
  477MOL0     H64344   8.265   0.717   5.691 -0.4109  1.2446  0.2417
  477MOL0     H64345   8.390   0.756   5.796 -2.0632  2.8444 -1.3291
  477MOL0     H64346   8.611   0.872   5.593 -0.6352 -2.0288 -0.9132
  477MOL0     H64347   8.585   1.083   5.343 -1.4795 -2.5104  1.2502
  477MOL0     H64348   8.545   1.224   5.440  2.6015  1.9006 -3.6468
  477MOL0     H64349   8.734   1.106   5.594  0.2835  0.5893  0.6660
  477MOL0     H64350   8.802   1.090   5.439  0.2493 -0.0420  0.7220
  477MOL0     H64351   8.693   1.342   5.557 -2.1830 -3.9170  0.9407
  477MOL0     H64352   8.752   1.337   5.396  0.0912  0.6529  0.6430
  477MOL0     H64353   8.946   1.224   5.620  1.1003 -2.9689 -2.6826
  477MOL0     H64354   8.927   1.393   5.598 -2.0630 -1.1379  0.4795
  477MOL0     H64355   9.220   1.274   5.294  1.4495  0.3827  1.5140
  477MOL0     H64356   9.359   1.471   5.232  0.7298  0.8161  1.2412
  477MOL0     H64357   9.448   1.966   5.378 -0.0234  0.0305 -0.5674
  477MOL0     H64358   9.556   2.169   5.302 -1.4747  3.3727  0.4010
  477MOL0     H64359   9.671   2.171   5.007 -0.4858 -0.4297 -1.6380
  477MOL0     H64360   9.674   2.328   4.932 -1.0664  2.2837  0.9614
  477MOL0     H64361   9.749   2.447   5.123  0.5369  0.2170 -3.6878
  477MOL0     H64362   9.772   2.293   5.218  0.2992  0.2678  0.3067
  477MOL0     H64363   9.959   2.228   5.099 -3.0158 -0.7651  2.2663
  477MOL0     H64364   9.912   2.317   4.951  1.8216  1.6038  0.0223
  477MOL0     H64365  10.011   2.446   5.198 -0.3554 -1.8439  0.5281
  477MOL0     H64366   9.951   2.520   5.040 -0.5290 -1.4081 -1.7603
  477MOL0     H64367  10.139   2.410   4.912 -0.1005  3.8260 -0.4696
  477MOL0     H64368  10.191   2.339   5.063 -1.6007 -0.3114  1.4832
  477MOL0     H64369  10.321   2.553   5.010  0.0528  2.0938 -0.3058
  477MOL0     H64370  10.166   2.643   4.994 -1.5191 -0.1236 -0.6706
  477MOL0     H64371  10.337   2.644   5.198 -0.7846  0.1307 -0.2871
  477MOL0     H64372  10.215   2.527   5.255  0.4029 -1.4851 -1.0750
  477MOL0     H64373  10.178   2.811   5.132  3.2108 -1.5131  0.2834
  477MOL0     H64374  10.039   2.720   5.187  0.5780 -0.6785 -3.3321
  477MOL0     H64375   9.337   2.181   4.937  1.5565 -0.9540 -0.5635
  477MOL0     H64376   9.184   1.998   5.022 -0.0724  1.0542 -1.3073
  477MOL0     H64377   9.038   1.730   5.332 -1.9995 -0.0714  2.3274
  477MOL0     H64378   8.918   1.526   5.433 -0.8869  0.9541 -3.2375
  477MOL0     H64379   7.785   0.081   5.181 -0.3052 -0.7740 -1.3058
  477MOL0     H64380   7.624  -0.064   5.111  0.0937 -0.0430  0.4884
  477MOL0     H64381   7.313  -0.196   4.796  0.9229  2.0425 -1.1412
  477MOL0     H64382   7.113  -0.301   4.684 -0.2562 -1.1050  3.3315
  477MOL0     H64383   6.721  -0.162   4.773  1.7251  1.1156 -0.7238
  477MOL0     H64384   6.701  -0.292   4.645  1.9880 -1.0576 -1.4837
  477MOL0     H64385   6.729  -0.120   4.482 -1.5203  2.4258 -0.4316
  477MOL0     H64386   6.794   0.002   4.593 -0.9799  2.0087 -2.7044
  477MOL0     H64387   6.504  -0.065   4.625 -1.1419  2.6411  2.3842
  477MOL0     H64388   6.564   0.067   4.525  0.5285 -1.6552 -1.2064
  477MOL0     H64389   6.502   0.130   4.759 -0.2133 -0.2806  0.6998
  477MOL0     H64390   6.612   0.014   4.822 -2.0190 -0.2887 -1.1719
  477MOL0     H64391   6.845   0.367   4.789 -0.3831 -0.7631 -1.0043
  477MOL0     H64392   6.847  -0.047   4.861 -0.7518 -4.3535  3.4721
  477MOL0     H64393   7.026   0.197   5.019  0.7923  1.2119  2.2729
  477MOL0     H64394   6.911   0.071   5.048 -0.1881  0.0339 -1.7489
  477MOL0     H64395   7.068   0.061   5.127 -0.1742  2.3826  0.7885
  478MOL0     O64396   2.121   5.582   6.140  0.4042 -0.4878  0.8278
  478MOL0     C64397   2.003   5.573   6.177 -0.5815 -0.2888 -0.0762
  478MOL0     O64398   1.895   5.611   6.115  0.0847 -0.4768 -0.4512
  478MOL0     C64399   1.895   5.620   5.968  0.0428 -0.0478  0.1998
  478MOL0     C64400   1.827   5.727   5.909 -0.2450 -1.0092 -0.4201
  478MOL0     C64401   1.821   5.742   5.773  0.0036 -0.8490  0.4179
  478MOL0     C64402   1.873   5.643   5.692  0.2179  0.0444 -0.4435
  478MOL0     O64403   1.867   5.660   5.551 -0.0504 -0.7699 -0.3987
  478MOL0     C64404   1.911   5.562   5.450 -0.3547 -1.0110 -0.4009
  478MOL0     C64405   2.064   5.550   5.450 -0.4265  0.2041 -0.0970
  478MOL0     C64406   2.135   5.641   5.345  0.2754 -0.1936  0.4892
  478MOL0     C64407   2.172   5.784   5.398  0.2642  0.6643 -0.4885
  478MOL0     C64408   2.252   5.857   5.297 -0.3094  0.0555  0.6263
  478MOL0     C64409   2.286   6.002   5.342 -0.7106  0.2749 -0.5400
  478MOL0     C64410   2.394   6.064   5.253  0.5466 -0.2980 -0.2671
  478MOL0     C64411   2.390   6.066   5.091 -0.2403 -0.0536 -0.0398
  478MOL0     N64412   2.311   6.179   5.035 -0.4632  1.2330 -0.8995
  478MOL0     C64413   2.338   6.314   5.027 -0.8325  0.4096  0.9922
  478MOL0     C64414   2.237   6.369   4.956  0.1733 -0.4550  0.3265
  478MOL0     C64415   2.223   6.509   4.910 -0.4457  0.0357  0.5103
  478MOL0     C64416   2.316   6.612   4.970 -0.1138 -0.2590 -0.8900
  478MOL0     C64417   2.294   6.759   4.921  0.4401 -0.5565 -0.8296
  478MOL0     C64418   2.429   6.833   4.913  0.5720 -0.0582 -0.6717
  478MOL0     O64419   2.417   6.957   4.836 -0.0388 -0.9775 -0.0605
  478MOL0     C64420   2.495   7.063   4.882 -1.2326  0.1026  0.1016
  478MOL0     C64421   2.625   7.066   4.834  0.1758 -0.2389 -0.2883
  478MOL0     C64422   2.711   7.165   4.885 -0.3698 -0.1215  0.1021
  478MOL0     C64423   2.669   7.261   4.979  0.6900  0.5990  0.5338
  478MOL0     C64424   2.756   7.358   5.054  0.4924  0.1222  0.4752
  478MOL0     O64425   2.711   7.466   5.116  0.0572 -0.0367 -0.3725
  478MOL0     C64426   2.805   7.554   5.176  0.1909 -0.1552  0.1469
  478MOL0     C64427   2.817   7.688   5.125 -1.0351  0.4362  2.0875
  478MOL0     C64428   2.921   7.768   5.169  0.7171 -0.0933 -0.3976
  478MOL0     C64429   3.020   7.718   5.252  0.1863  0.2642  0.1413
  478MOL0     O64430   3.133   7.793   5.275  0.2842  0.5897  0.2000
  478MOL0     C64431   3.200   7.862   5.173  0.6708  0.5832  0.5195
  478MOL0     C64432   3.329   7.928   5.219  0.2563 -0.4020  0.3712
  478MOL0     C64433   3.349   8.067   5.163 -0.6376  0.3923  0.3316
  478MOL0     C64434   3.493   8.131   5.212  0.9436 -0.1123  1.7918
  478MOL0     C64435   3.526   8.274   5.176 -0.8298  1.2002  0.0914
  478MOL0     C64436   3.473   8.295   5.030 -0.7370 -0.2657  0.8228
  478MOL0     C64437   3.499   8.447   4.987 -1.2483 -0.0335 -0.0942
  478MOL0     C64438   3.624   8.471   4.897 -1.2855  0.7867  0.3392
  478MOL0    Cl64439   3.774   8.428   4.986 -0.0862 -0.0364 -0.1500
  478MOL0     C64440   3.006   7.591   5.312 -1.1280 -0.6245  0.8182
  478MOL0     C64441   2.891   7.511   5.278 -0.1059 -0.6112  0.4258
  478MOL0     O64442   2.871   7.318   5.061  0.0839 -0.3702  0.1310
  478MOL0     C64443   2.532   7.259   5.006 -0.8446 -1.1583 -0.4384
  478MOL0     C64444   2.447   7.166   4.964 -0.5686  0.3015  0.5740
  478MOL0     N64445   2.159   6.263   4.915 -0.1122 -0.1668  0.4457
  478MOL0     N64446   2.197   6.147   4.965 -0.7685  0.7906 -0.0769
  478MOL0     C64447   1.933   5.530   5.748 -0.6822 -0.5805  0.4477
  478MOL0     C64448   1.943   5.521   5.885 -0.4676 -0.9108 -0.1128
  478MOL0     C64449   1.992   5.532   6.315  0.5023 -1.2449 -1.2239
  478MOL0     C64450   1.897   5.605   6.392  0.0723  1.1916 -0.1384
  478MOL0     C64451   1.890   5.581   6.528  0.7132 -0.5477 -0.4900
  478MOL0     C64452   1.973   5.492   6.596  0.3094 -0.6407  0.2854
  478MOL0     O64453   1.954   5.460   6.733  0.0645 -1.0027 -0.3182
  478MOL0     C64454   1.823   5.409   6.749  0.2420  0.3516 -0.6547
  478MOL0     C64455   1.808   5.346   6.895  1.0664 -0.1121 -0.7789
  478MOL0     C64456   1.676   5.268   6.896 -0.1202 -0.2913  0.8034
  478MOL0     C64457   1.641   5.193   7.028 -0.2404  0.0456  0.0197
  478MOL0     C64458   1.643   5.287   7.141 -0.0313  0.3454 -0.6666
  478MOL0     C64459   1.637   5.380   7.223  0.5983  0.2144  0.5026
  478MOL0     C64460   2.080   5.437   6.525 -0.4237 -0.5610  0.1934
  478MOL0     C64461   2.085   5.446   6.378 -0.5169 -1.0806 -0.1825
  478MOL0     C64462   2.170   5.353   6.305 -0.6262  0.7785  0.5426
  478MOL0     H64463   1.777   5.791   5.980 -1.3926 -1.8732 -0.4264
  478MOL0     H64464   1.760   5.816   5.723  0.2155 -1.5617 -0.9407
  478MOL0     H64465   1.859   5.468   5.468 -3.0211  0.7113  1.7414
  478MOL0     H64466   1.878   5.602   5.353  1.5107  1.4998 -0.0893
  478MOL0     H64467   2.094   5.446   5.430 -2.0045 -0.2836 -0.0595
  478MOL0     H64468   2.103   5.593   5.542  0.9715  1.7168 -1.3295
  478MOL0     H64469   2.070   5.645   5.257 -4.6847 -1.7136  3.6908
  478MOL0     H64470   2.233   5.596   5.325  0.7471 -0.1895  2.5394
  478MOL0     H64471   2.076   5.832   5.421  0.8898  0.8748  2.0511
  478MOL0     H64472   2.224   5.791   5.494 -1.2369  2.8718  0.2476
  478MOL0     H64473   2.346   5.805   5.276 -1.6901 -1.2166 -3.4803
  478MOL0     H64474   2.200   5.878   5.202  2.7368 -1.4516 -1.5441
  478MOL0     H64475   2.193   6.059   5.329 -0.4938  0.7275 -0.1337
  478MOL0     H64476   2.322   5.985   5.443 -1.6465  2.7417  0.2891
  478MOL0     H64477   2.490   6.026   5.287  0.9035 -1.1106 -2.0883
  478MOL0     H64478   2.387   6.170   5.279 -0.0626  0.0663 -1.8314
  478MOL0     H64479   2.490   6.071   5.046 -1.6243  3.1637 -3.2228
  478MOL0     H64480   2.359   5.966   5.058  1.8368 -1.0975  0.9426
  478MOL0     H64481   2.429   6.361   5.061 -1.3165  3.2082 -1.2174
  478MOL0     H64482   2.207   6.512   4.802 -1.7671  0.6132  0.6977
  478MOL0     H64483   2.125   6.536   4.951 -1.7686 -1.6947 -1.3060
  478MOL0     H64484   2.306   6.603   5.078 -2.9872  0.5630 -1.0170
  478MOL0     H64485   2.419   6.587   4.943  1.6811  1.4797  3.5343
  478MOL0     H64486   2.214   6.799   4.984  0.4210 -3.4026  1.1226
  478MOL0     H64487   2.256   6.763   4.818  1.4373  0.9465 -1.1804
  478MOL0     H64488   2.497   6.775   4.850  1.9576 -0.3070  0.9836
  478MOL0     H64489   2.463   6.854   5.015 -3.3747  0.7077  0.6553
  478MOL0     H64490   2.646   6.984   4.766  0.2129 -1.0373  0.6603
  478MOL0     H64491   2.813   7.174   4.848 -0.2627  3.9943  0.8502
  478MOL0     H64492   2.758   7.730   5.045  3.2484  2.9332 -0.1339
  478MOL0     H64493   2.922   7.871   5.136 -2.2840  1.2699  3.0618
  478MOL0     H64494   3.210   7.788   5.094 -3.7494 -1.2065  1.2997
  478MOL0     H64495   3.135   7.943   5.138  1.6376  1.2052  0.1150
  478MOL0     H64496   3.335   7.923   5.329 -0.1616 -1.1204  0.3679
  478MOL0     H64497   3.411   7.866   5.183 -0.3151 -1.8208  1.4239
  478MOL0     H64498   3.337   8.057   5.054 -0.7177 -3.8725  0.5827
  478MOL0     H64499   3.267   8.131   5.199 -0.0607  1.8644 -0.8441
  478MOL0     H64500   3.576   8.070   5.175 -0.6879 -1.1121 -0.5108
  478MOL0     H64501   3.491   8.121   5.321  0.4764  1.0204  1.9012
  478MOL0     H64502   3.635   8.284   5.176 -0.9154  2.2836 -1.3016
  478MOL0     H64503   3.494   8.334   5.262  1.0586  1.3477  0.7467
  478MOL0     H64504   3.516   8.220   4.962  1.8970  0.4943  1.5365
  478MOL0     H64505   3.364   8.292   5.037 -0.9350  2.3752  0.0131
  478MOL0     H64506   3.494   8.518   5.070 -0.3190 -0.6922  0.5408
  478MOL0     H64507   3.422   8.489   4.921 -2.7670  1.5324  2.4848
  478MOL0     H64508   3.614   8.396   4.818  2.9984  0.0722  0.2309
  478MOL0     H64509   3.626   8.567   4.845 -2.2437  0.3105 -0.6198
  478MOL0     H64510   3.074   7.563   5.392  0.4203 -1.4618 -0.7194
  478MOL0     H64511   2.883   7.416   5.329 -0.6202 -0.6691  0.2467
  478MOL0     H64512   2.471   7.327   5.064 -1.5427 -0.6188 -1.7603
  478MOL0     H64513   2.343   7.168   4.997 -0.6423  2.2557  0.3252
  478MOL0     H64514   1.986   5.456   5.688 -0.0938  1.0767 -1.1936
  478MOL0     H64515   2.001   5.440   5.927 -0.4816 -1.8134 -1.7673
  478MOL0     H64516   1.825   5.679   6.357 -1.4730 -2.1575 -4.9706
  478MOL0     H64517   1.812   5.632   6.584  0.6848  0.8677 -1.7476
  478MOL0     H64518   1.792   5.341   6.669 -0.6554  0.2292 -0.2206
  478MOL0     H64519   1.749   5.489   6.734  1.0200  1.1869 -0.1296
  478MOL0     H64520   1.823   5.419   6.975  1.6930  2.6159 -3.1859
  478MOL0     H64521   1.885   5.270   6.909  0.1272 -0.7995  0.8067
  478MOL0     H64522   1.665   5.193   6.817 -0.0836  3.1249 -2.7499
  478MOL0     H64523   1.593   5.335   6.873 -0.7528 -0.5657  2.1622
  478MOL0     H64524   1.547   5.138   7.021 -0.7178  1.0730 -2.6591
  478MOL0     H64525   1.714   5.112   7.037 -0.4545 -0.2805 -1.1034
  478MOL0     H64526   1.650   5.468   7.283 -0.7201  0.1353  0.9357
  478MOL0     H64527   2.153   5.375   6.576 -1.2009 -1.3309  0.4042
  478MOL0     H64528   2.156   5.347   6.197 -0.6246 -1.4536  0.6307
  478MOL0     H64529   2.274   5.376   6.328  0.6318 -0.6032 -3.1204
  478MOL0     H64530   2.154   5.255   6.351 -4.6947  0.7415 -0.5523
  479MOL0     O64531   6.205   5.333   1.317 -0.1408  0.7830  0.7775
  479MOL0     C64532   6.317   5.285   1.337  0.2966  0.4838  0.2444
  479MOL0     O64533   6.358   5.166   1.281 -0.1713 -0.6397 -0.1894
  479MOL0     C64534   6.291   5.117   1.178 -0.8321  0.3726  1.2841
  479MOL0     C64535   6.344   5.111   1.041  1.1332 -0.6271  0.5283
  479MOL0     C64536   6.262   5.051   0.944 -0.5900  0.7832 -0.9868
  479MOL0     C64537   6.137   5.011   0.974 -0.4911 -0.1036 -0.3268
  479MOL0     O64538   6.056   4.980   0.874 -0.1346  1.1271  0.1437
  479MOL0     C64539   5.976   4.864   0.879 -0.0088  0.1990 -0.2029
  479MOL0     C64540   5.906   4.846   0.741 -0.5900  0.0253  0.3195
  479MOL0     C64541   6.009   4.789   0.635 -1.1237 -0.0170 -0.6031
  479MOL0     C64542   6.099   4.896   0.568 -0.6933 -1.2707 -0.6090
  479MOL0     C64543   6.026   4.962   0.452 -1.4118 -1.0984  0.5633
  479MOL0     C64544   6.118   5.052   0.371  0.2209  0.7025  0.3575
  479MOL0     C64545   6.038   5.101   0.251  0.1742  0.1378  0.1425
  479MOL0     C64546   5.928   5.203   0.287  1.4477  0.3591 -0.2652
  479MOL0     N64547   5.885   5.257   0.157  0.0512  0.1841 -0.1074
  479MOL0     C64548   5.808   5.185   0.067 -0.3721  0.8454 -0.2491
  479MOL0     C64549   5.769   5.277  -0.018 -1.0403 -0.1599 -0.1510
  479MOL0     C64550   5.685   5.264  -0.141  0.3595  0.1796 -0.5818
  479MOL0     C64551   5.762   5.230  -0.271  0.2024 -0.9803 -0.5911
  479MOL0     C64552   5.817   5.085  -0.271 -0.2847  0.0632 -0.0693
  479MOL0     C64553   5.726   4.971  -0.230 -0.0189  0.5704 -0.5093
  479MOL0     O64554   5.778   4.845  -0.270 -0.1777  0.0011  0.0210
  479MOL0     C64555   5.746   4.797  -0.398  1.2995 -0.4198 -0.9143
  479MOL0     C64556   5.682   4.860  -0.505  0.1779 -0.1351  0.5556
  479MOL0     C64557   5.641   4.797  -0.622 -1.3208  0.5252  0.0415
  479MOL0     C64558   5.668   4.659  -0.628 -1.1852 -0.0348 -1.2234
  479MOL0     C64559   5.652   4.580  -0.746  0.0164 -1.0670  0.3592
  479MOL0     O64560   5.657   4.654  -0.865 -0.6864  0.4485 -0.9084
  479MOL0     C64561   5.659   4.581  -0.979 -1.4613 -0.5204 -0.2508
  479MOL0     C64562   5.781   4.505  -1.022 -0.5734 -0.5160 -0.6571
  479MOL0     C64563   5.774   4.434  -1.138  0.7760  0.0086 -0.1403
  479MOL0     C64564   5.652   4.429  -1.213  0.5458 -0.2624  0.9999
  479MOL0     O64565   5.639   4.341  -1.321  0.2554  0.3034  0.0450
  479MOL0     C64566   5.595   4.408  -1.444  0.3764  0.2899  0.2146
  479MOL0     C64567   5.561   4.309  -1.556  0.5055  0.0199 -0.5936
  479MOL0     C64568   5.675   4.218  -1.585  0.3238  0.8850  1.1301
  479MOL0     C64569   5.771   4.286  -1.689  0.0225  0.0939 -0.0405
  479MOL0     C64570   5.890   4.196  -1.697 -0.0307 -0.6499  0.1865
  479MOL0     C64571   5.953   4.223  -1.835  0.0787 -0.5417 -0.5344
  479MOL0     C64572   6.091   4.152  -1.842 -0.3801  0.5059  0.0238
  479MOL0     C64573   6.160   4.179  -1.979  0.4755  0.0722  0.8753
  479MOL0    Cl64574   6.332   4.125  -1.970 -0.1301  0.3376 -0.3349
  479MOL0     C64575   5.539   4.498  -1.174 -0.9547 -0.3791 -0.8680
  479MOL0     C64576   5.547   4.570  -1.060  0.5568  0.8925 -0.0438
  479MOL0     O64577   5.601   4.471  -0.743  0.0465  0.1145 -0.2700
  479MOL0     C64578   5.717   4.589  -0.513  0.3734 -0.1298  0.6602
  479MOL0     C64579   5.749   4.661  -0.397 -0.8984  0.2434  0.3253
  479MOL0     N64580   5.830   5.396   0.017 -0.3357 -0.0185 -0.9113
  479MOL0     N64581   5.892   5.382   0.124 -0.1177 -1.2637 -1.0126
  479MOL0     C64582   6.087   5.012   1.110  0.3090 -0.8430 -0.0395
  479MOL0     C64583   6.168   5.062   1.209  0.7940 -0.7308 -0.2473
  479MOL0     C64584   6.436   5.363   1.402 -0.0201 -0.0911 -0.6972
  479MOL0     C64585   6.566   5.326   1.367 -0.2415 -0.0131 -0.0682
  479MOL0     C64586   6.677   5.390   1.418  0.5494  0.4995  2.1895
  479MOL0     C64587   6.664   5.500   1.501 -0.6107  0.5652 -0.0165
  479MOL0     O64588   6.784   5.555   1.538  0.1910 -0.3328 -0.8673
  479MOL0     C64589   6.797   5.602   1.669  1.0000 -0.8532 -0.2383
  479MOL0     C64590   6.906   5.531   1.746  0.4856  0.2048  0.8923
  479MOL0     C64591   6.917   5.563   1.886 -0.2746  0.0546 -0.4249
  479MOL0     C64592   6.977   5.696   1.922  0.3083  0.1762 -0.1803
  479MOL0     C64593   7.117   5.726   1.882  0.3125 -0.6228  0.5221
  479MOL0     C64594   7.235   5.744   1.868 -0.7628  0.2192  0.2684
  479MOL0     C64595   6.534   5.542   1.537  0.9139  0.0222  0.1360
  479MOL0     C64596   6.424   5.468   1.498  0.2366 -0.6860 -0.2973
  479MOL0     C64597   6.293   5.503   1.571  0.1706 -0.8883  0.4830
  479MOL0     H64598   6.440   5.160   1.029  0.2950  1.2891  1.2767
  479MOL0     H64599   6.291   5.056   0.840 -0.6394  2.1636 -0.9501
  479MOL0     H64600   6.041   4.778   0.897 -0.2371 -0.2920 -1.6159
  479MOL0     H64601   5.897   4.882   0.953 -0.6354 -0.7264 -0.6327
  479MOL0     H64602   5.855   4.941   0.719  1.2217  1.6408  2.5959
  479MOL0     H64603   5.828   4.771   0.752 -2.3662  1.9326  1.5539
  479MOL0     H64604   5.958   4.743   0.551 -2.1688  0.7551 -0.4086
  479MOL0     H64605   6.075   4.714   0.680  0.9796  2.1164  0.1331
  479MOL0     H64606   6.140   4.974   0.633  3.2024 -3.5239 -0.0241
  479MOL0     H64607   6.189   4.846   0.530 -0.5254 -0.2269 -1.6286
  479MOL0     H64608   6.012   4.874   0.389  2.6727  0.1533 -2.5501
  479MOL0     H64609   5.940   5.014   0.493 -0.8690  0.6087 -0.3728
  479MOL0     H64610   6.148   5.140   0.430 -2.5119  1.0752  1.3323
  479MOL0     H64611   6.199   4.987   0.337 -0.6940 -0.1140 -0.2982
  479MOL0     H64612   6.017   5.008   0.198 -0.3707  0.0090  0.5768
  479MOL0     H64613   6.108   5.156   0.188  1.9613  0.4880  2.2969
  479MOL0     H64614   5.843   5.154   0.336  0.2219  1.0555 -1.6162
  479MOL0     H64615   5.971   5.284   0.345  2.5820  0.9357 -1.8586
  479MOL0     H64616   5.800   5.077   0.058  3.0271  0.5448 -1.1010
  479MOL0     H64617   5.591   5.209  -0.138 -0.8357  2.0973 -0.7284
  479MOL0     H64618   5.651   5.368  -0.152 -0.3123 -0.1577 -1.9507
  479MOL0     H64619   5.683   5.244  -0.345 -0.7360 -0.8779  0.4066
  479MOL0     H64620   5.840   5.304  -0.288 -1.1914  1.5142  2.7172
  479MOL0     H64621   5.894   5.082  -0.194 -2.2103  1.1552  2.0139
  479MOL0     H64622   5.851   5.045  -0.367 -0.4739 -4.0850  1.3682
  479MOL0     H64623   5.625   4.996  -0.266  0.2212  0.2739 -1.4202
  479MOL0     H64624   5.715   4.968  -0.122 -1.7303  0.9620 -0.6377
  479MOL0     H64625   5.661   4.966  -0.497  2.2005  0.7507 -3.2054
  479MOL0     H64626   5.598   4.850  -0.706 -1.0187  1.5135  0.4970
  479MOL0     H64627   5.875   4.511  -0.969  0.0718 -0.1182 -1.7980
  479MOL0     H64628   5.862   4.376  -1.167  1.5158  0.9931  0.0592
  479MOL0     H64629   5.509   4.472  -1.421  0.3325  0.9397 -1.5804
  479MOL0     H64630   5.678   4.475  -1.470  2.5612 -1.5256  2.0973
  479MOL0     H64631   5.467   4.257  -1.538 -0.9755  1.9810 -2.2208
  479MOL0     H64632   5.541   4.374  -1.642 -0.8623  3.8800  2.3172
  479MOL0     H64633   5.724   4.181  -1.494  1.2438  1.1494  0.7536
  479MOL0     H64634   5.633   4.128  -1.629  3.3327 -0.2413  0.2817
  479MOL0     H64635   5.803   4.385  -1.654  0.4640 -0.3054  0.7189
  479MOL0     H64636   5.716   4.299  -1.782  0.3839 -0.1897 -0.2976
  479MOL0     H64637   5.849   4.095  -1.701 -4.0008  0.8453 -1.0406
  479MOL0     H64638   5.955   4.218  -1.611 -2.6575  1.7220  1.7332
  479MOL0     H64639   5.888   4.191  -1.918  0.4013  0.6920 -1.2882
  479MOL0     H64640   5.959   4.331  -1.850  0.5887 -0.1775  1.9768
  479MOL0     H64641   6.068   4.046  -1.831  2.3555 -0.5570 -2.8681
  479MOL0     H64642   6.164   4.188  -1.769 -1.1183  1.4255  0.3346
  479MOL0     H64643   6.107   4.124  -2.057 -1.0914 -3.0501  3.8843
  479MOL0     H64644   6.162   4.282  -2.014  3.7378 -0.3904 -0.7411
  479MOL0     H64645   5.435   4.494  -1.205 -1.2795  1.5931 -0.1633
  479MOL0     H64646   5.454   4.620  -1.035  0.5081  1.9688 -2.1899
  479MOL0     H64647   5.733   4.482  -0.509 -1.6478 -0.5090 -0.1957
  479MOL0     H64648   5.781   4.617  -0.303  3.3715  3.5363  0.7180
  479MOL0     H64649   5.994   4.959   1.128 -0.6488  1.8585  4.4276
  479MOL0     H64650   6.142   5.063   1.314  0.8922  2.2803 -0.1908
  479MOL0     H64651   6.585   5.256   1.286  0.7642  0.8286 -0.5919
  479MOL0     H64652   6.774   5.359   1.381 -0.7679 -1.1952 -0.2117
  479MOL0     H64653   6.706   5.604   1.730  0.7905 -0.8421 -0.5485
  479MOL0     H64654   6.833   5.705   1.659  0.7454 -0.4805  2.2247
  479MOL0     H64655   6.998   5.559   1.693 -1.4223  3.2287 -1.0926
  479MOL0     H64656   6.889   5.425   1.725 -0.7587 -0.4377  4.4306
  479MOL0     H64657   6.990   5.497   1.934  1.2211  0.6524 -1.7937
  479MOL0     H64658   6.815   5.555   1.927 -0.9968  1.5280 -1.8218
  479MOL0     H64659   6.907   5.761   1.869  0.6245  0.4397 -0.2789
  479MOL0     H64660   6.953   5.710   2.028 -1.3010  0.8615 -0.5980
  479MOL0     H64661   7.332   5.758   1.824  0.0719 -1.1765  1.5720
  479MOL0     H64662   6.517   5.629   1.600 -1.6426 -1.4256  1.6226
  479MOL0     H64663   6.199   5.459   1.535 -1.2014  2.6664 -0.7503
  479MOL0     H64664   6.305   5.479   1.677  1.1527  3.0922  1.4153
  479MOL0     H64665   6.285   5.612   1.569  1.5487 -0.6371  3.6436
  480MOL0     O64666  10.019   5.155   2.199 -0.3904  0.2598  0.4986
  480MOL0     C64667  10.102   5.166   2.104  0.0092 -0.8371 -0.4648
  480MOL0     O64668  10.235   5.121   2.101  0.8017 -1.2223 -1.4762
  480MOL0     C64669  10.313   5.099   2.210  0.1103 -0.5285  0.2140
  480MOL0     C64670  10.264   5.092   2.346  0.0566 -1.1200 -0.5623
  480MOL0     C64671  10.350   5.050   2.451 -0.2613 -0.0600  0.5703
  480MOL0     C64672  10.482   5.005   2.427  0.6851  0.3278 -0.0209
  480MOL0     O64673  10.567   4.977   2.527  0.5491  0.3462  0.8931
  480MOL0     C64674  10.542   4.983   2.667  0.2812 -0.1722 -0.0206
  480MOL0     C64675  10.669   4.962   2.739  0.1195  0.9987  0.1241
  480MOL0     C64676  10.643   4.995   2.883  0.4766 -0.2281 -0.5840
  480MOL0     C64677  10.759   4.986   2.977 -0.1577  0.4296  0.0290
  480MOL0     C64678  10.725   4.997   3.126  0.7608  0.8321  0.2045
  480MOL0     C64679  10.722   4.859   3.207  0.9132  1.4813  0.0345
  480MOL0     C64680  10.858   4.789   3.208  1.3709  0.8821  0.9810
  480MOL0     C64681  10.855   4.680   3.311  0.4698 -0.2098 -0.1372
  480MOL0     N64682  10.899   4.747   3.436 -0.1588  0.1045  0.1934
  480MOL0     C64683  11.021   4.745   3.496  1.0213  0.5543 -0.6226
  480MOL0     C64684  11.003   4.794   3.618  1.0492 -0.3044 -1.5891
  480MOL0     C64685  11.098   4.793   3.736 -0.5851  0.2364 -0.1491
  480MOL0     C64686  11.073   4.664   3.818 -0.7558  0.7484 -0.6741
  480MOL0     C64687  11.185   4.618   3.911 -0.0488  0.2843 -0.0354
  480MOL0     C64688  11.217   4.734   4.004  0.8508  0.8098  0.4852
  480MOL0     O64689  11.332   4.715   4.085 -0.8681  0.9186  0.2036
  480MOL0     C64690  11.369   4.816   4.170 -0.0726  0.7591 -0.2577
  480MOL0     C64691  11.492   4.801   4.215  1.1696  0.4291  0.2466
  480MOL0     C64692  11.553   4.903   4.295  0.1699 -0.5318  0.1318
  480MOL0     C64693  11.495   5.030   4.313  0.6682 -0.4108  0.1617
  480MOL0     C64694  11.550   5.133   4.406  1.0244  0.4369 -0.9156
  480MOL0     O64695  11.457   5.207   4.478  0.2994  0.5035  0.6221
  480MOL0     C64696  11.515   5.299   4.564  0.6888  0.2749  0.0341
  480MOL0     C64697  11.617   5.387   4.531 -0.6081 -0.1057 -0.0678
  480MOL0     C64698  11.667   5.471   4.634 -0.9187 -0.1112 -0.5762
  480MOL0     C64699  11.635   5.461   4.770  0.4452 -0.1923  0.0712
  480MOL0     O64700  11.688   5.531   4.871 -0.1573  0.7183 -0.6154
  480MOL0     C64701  11.804   5.607   4.837  0.7765  0.0416  0.2070
  480MOL0     C64702  11.888   5.609   4.968 -0.3359  0.3017  0.7852
  480MOL0     C64703  12.016   5.678   4.925  0.3899  0.7613  0.2931
  480MOL0     C64704  12.100   5.719   5.032 -0.7086 -0.3985 -0.3728
  480MOL0     C64705  12.145   5.603   5.131  0.1450 -0.9578  0.1264
  480MOL0     C64706  12.235   5.663   5.225  0.4929 -0.3843 -0.8890
  480MOL0     C64707  12.363   5.716   5.191 -1.5048  0.2747  0.2274
  480MOL0     C64708  12.455   5.632   5.098  1.0444  0.1919  0.5535
  480MOL0    Cl64709  12.513   5.480   5.183 -0.1146  0.3582  0.1563
  480MOL0     C64710  11.532   5.366   4.793  0.0748 -0.8207  0.4865
  480MOL0     C64711  11.477   5.289   4.699  0.0674 -0.6602 -0.3200
  480MOL0     O64712  11.676   5.126   4.413 -0.1850 -0.2133  0.1922
  480MOL0     C64713  11.368   5.048   4.254  1.2144  0.4632 -0.1431
  480MOL0     C64714  11.301   4.938   4.180  0.5084 -0.1470 -0.7010
  480MOL0     N64715  10.869   4.836   3.627  0.0682 -1.0742 -0.8076
  480MOL0     N64716  10.807   4.792   3.522  0.1349 -0.2827  0.0566
  480MOL0     C64717  10.526   5.016   2.292  0.6554 -0.3222 -0.2515
  480MOL0     C64718  10.441   5.055   2.186 -0.3039  0.2049 -0.2631
  480MOL0     C64719  10.067   5.245   1.985  0.6199  0.1806  0.8755
  480MOL0     C64720   9.983   5.359   1.997  0.1717  0.0952 -0.0525
  480MOL0     C64721   9.975   5.456   1.889  0.1967  0.6630  0.3738
  480MOL0     C64722  10.019   5.417   1.765 -0.1438  0.2138  0.1413
  480MOL0     O64723   9.982   5.493   1.655  0.0840 -0.1098 -0.0353
  480MOL0     C64724   9.847   5.483   1.601 -0.5672 -0.6850 -0.2529
  480MOL0     C64725   9.839   5.379   1.492 -0.5223 -0.9323  0.4885
  480MOL0     C64726   9.899   5.432   1.356 -0.5756  0.0593 -0.1165
  480MOL0     C64727   9.886   5.328   1.244  0.2135  0.0529  0.3990
  480MOL0     C64728   9.905   5.399   1.113  0.1474  0.4594  0.3547
  480MOL0     C64729   9.932   5.454   1.002 -0.8912  0.6435  0.2383
  480MOL0     C64730  10.097   5.300   1.747 -0.8833  0.7805 -0.1161
  480MOL0     C64731  10.129   5.207   1.858 -0.7607 -0.9379  0.2055
  480MOL0     C64732  10.184   5.073   1.832 -0.2851 -0.2875  0.2370
  480MOL0     H64733  10.165   5.125   2.374  0.4439  1.1290 -1.5861
  480MOL0     H64734  10.335   5.093   2.549  2.4817  0.5756  0.7786
  480MOL0     H64735  10.512   5.085   2.695  0.3915 -0.2668  0.4405
  480MOL0     H64736  10.461   4.918   2.699 -0.2473  0.5352  0.1068
  480MOL0     H64737  10.745   5.031   2.701 -0.6612  1.1028 -1.2996
  480MOL0     H64738  10.697   4.858   2.721  2.2352  1.6040 -0.3587
  480MOL0     H64739  10.563   4.926   2.912 -4.3747  3.2370 -4.1865
  480MOL0     H64740  10.590   5.090   2.889  0.0966 -0.1881 -3.4818
  480MOL0     H64741  10.813   4.893   2.957 -1.4436 -0.2382 -0.4690
  480MOL0     H64742  10.826   5.069   2.956  0.0311  0.2069 -0.2511
  480MOL0     H64743  10.802   5.066   3.162 -0.1960  2.5928 -0.9946
  480MOL0     H64744  10.630   5.048   3.143  1.2383  1.3366  1.4919
  480MOL0     H64745  10.679   4.887   3.303 -1.5945 -2.0977  0.1122
  480MOL0     H64746  10.647   4.791   3.166  0.1706  2.4392 -0.2660
  480MOL0     H64747  10.939   4.857   3.235  0.8455  1.7499  0.4346
  480MOL0     H64748  10.876   4.753   3.106 -1.0250 -0.2859  0.9025
  480MOL0     H64749  10.757   4.634   3.331  0.7494  0.8989  4.9554
  480MOL0     H64750  10.920   4.601   3.274 -1.6117 -1.4173 -1.4619
  480MOL0     H64751  11.103   4.680   3.467 -1.0215 -2.5486  0.0200
  480MOL0     H64752  11.203   4.808   3.711 -0.1243  1.8956  2.3851
  480MOL0     H64753  11.081   4.875   3.806 -2.0394 -3.5382  4.5214
  480MOL0     H64754  10.982   4.676   3.877  1.1723  3.4390  2.0808
  480MOL0     H64755  11.059   4.575   3.756  1.0453 -1.0867  1.4113
  480MOL0     H64756  11.272   4.587   3.853 -0.0944  1.1315 -0.5549
  480MOL0     H64757  11.149   4.532   3.970 -1.2028  1.1683  0.5941
  480MOL0     H64758  11.135   4.752   4.074 -0.9791  0.2390 -1.4364
  480MOL0     H64759  11.232   4.827   3.949  1.2165  0.2957 -0.2991
  480MOL0     H64760  11.539   4.706   4.191 -2.5484 -1.4754 -0.1937
  480MOL0     H64761  11.645   4.865   4.338  0.3698 -0.5045 -0.2749
  480MOL0     H64762  11.654   5.402   4.430 -0.1923  1.9006  0.3500
  480MOL0     H64763  11.736   5.548   4.599 -2.3690  1.2518 -0.5925
  480MOL0     H64764  11.869   5.554   4.767  0.2949 -0.6860  0.2975
  480MOL0     H64765  11.780   5.707   4.799  0.2891  0.9258  2.5973
  480MOL0     H64766  11.832   5.667   5.042  1.1024 -0.6786  2.7584
  480MOL0     H64767  11.904   5.505   4.999 -2.6619 -0.9615 -1.9162
  480MOL0     H64768  12.073   5.618   4.853 -0.4567  0.2637  0.0304
  480MOL0     H64769  11.987   5.763   4.862 -1.0102 -0.7950 -1.2895
  480MOL0     H64770  12.057   5.798   5.094 -0.6945 -0.4171 -0.3389
  480MOL0     H64771  12.185   5.769   4.984  1.3874 -1.8399  1.5826
  480MOL0     H64772  12.184   5.511   5.086 -0.7927 -2.7108  2.6772
  480MOL0     H64773  12.055   5.563   5.178  0.3272 -0.1627  1.1707
  480MOL0     H64774  12.184   5.744   5.278  0.7618 -2.0236  2.0586
  480MOL0     H64775  12.248   5.584   5.299 -0.8687 -2.1345 -2.4296
  480MOL0     H64776  12.406   5.712   5.291 -2.7857 -1.8326  0.7792
  480MOL0     H64777  12.359   5.820   5.158  1.4323  0.5310  0.4732
  480MOL0     H64778  12.402   5.601   5.007 -2.3689  2.2120  1.6670
  480MOL0     H64779  12.536   5.702   5.077 -0.1112  0.9427 -1.7556
  480MOL0     H64780  11.518   5.358   4.901  1.8952 -0.7566  0.7593
  480MOL0     H64781  11.398   5.227   4.740 -0.1143 -0.8133 -0.8823
  480MOL0     H64782  11.325   5.148   4.247  1.1610  0.3466 -2.0331
  480MOL0     H64783  11.203   4.942   4.134  0.7293 -1.4899 -1.3284
  480MOL0     H64784  10.629   4.988   2.276  0.4123 -0.0419 -2.6192
  480MOL0     H64785  10.475   5.032   2.086  1.6630  2.6531 -0.2588
  480MOL0     H64786   9.937   5.361   2.096  0.7174 -0.5077  0.2200
  480MOL0     H64787   9.914   5.546   1.898 -0.8138  0.0515 -0.2438
  480MOL0     H64788   9.809   5.579   1.565 -1.4888  0.1178  2.5480
  480MOL0     H64789   9.793   5.448   1.690  0.4760 -0.7250  0.3870
  480MOL0     H64790   9.733   5.357   1.476 -0.3059 -1.6185 -0.0627
  480MOL0     H64791   9.905   5.297   1.523  3.0777  1.7781  0.6818
  480MOL0     H64792   9.999   5.472   1.373 -0.3699 -1.0956  1.6991
  480MOL0     H64793   9.847   5.523   1.327 -0.1002  1.0284  1.9153
  480MOL0     H64794   9.964   5.251   1.248  3.6184  3.1425 -0.7446
  480MOL0     H64795   9.787   5.284   1.237 -0.3548  1.5605 -2.8538
  480MOL0     H64796   9.935   5.508   0.910 -1.4933 -3.6045 -2.5664
  480MOL0     H64797  10.109   5.267   1.645 -1.6309  0.3784 -0.0829
  480MOL0     H64798  10.173   5.053   1.725  1.6044 -2.2210  0.3437
  480MOL0     H64799  10.291   5.069   1.852 -0.2297  0.8733  0.2067
  480MOL0     H64800  10.133   5.001   1.897 -1.0823  2.4434  2.8641
  481MOL0     O64801   2.450   1.241   8.389 -1.0090 -0.0641  0.1349
  481MOL0     C64802   2.390   1.318   8.459 -0.2990  0.6290  0.1359
  481MOL0     O64803   2.354   1.285   8.589  0.6451 -0.6945 -0.2988
  481MOL0     C64804   2.390   1.187   8.673  0.4187 -0.3554  0.5986
  481MOL0     C64805   2.500   1.107   8.644 -0.4337  0.1847  0.4766
  481MOL0     C64806   2.541   1.004   8.727 -0.7000 -0.2072 -0.0230
  481MOL0     C64807   2.459   0.964   8.836  0.1809 -0.8808 -0.1931
  481MOL0     O64808   2.507   0.869   8.915 -0.3985  0.0033 -0.0500
  481MOL0     C64809   2.461   0.858   9.049  0.0123  0.7052 -0.6326
  481MOL0     C64810   2.532   0.748   9.129  0.1557 -0.4608  0.6128
  481MOL0     C64811   2.487   0.608   9.074 -0.0911  0.0779 -0.2352
  481MOL0     C64812   2.518   0.492   9.167 -0.4202 -0.0591 -0.0090
  481MOL0     C64813   2.467   0.353   9.111  0.0545  0.6488 -0.3428
  481MOL0     C64814   2.533   0.312   8.982  0.7425 -0.9931  0.5868
  481MOL0     C64815   2.538   0.157   8.971 -0.1834 -0.1685  0.1206
  481MOL0     C64816   2.618   0.113   8.843 -0.7285 -0.0597  0.0164
  481MOL0     N64817   2.752   0.163   8.839  0.1063 -0.4603 -0.6609
  481MOL0     C64818   2.814   0.230   8.734  0.0773 -0.5485  0.4434
  481MOL0     C64819   2.946   0.229   8.761  0.0116 -0.6064  0.6908
  481MOL0     C64820   3.071   0.271   8.681 -0.3786  0.2221  0.2992
  481MOL0     C64821   3.102   0.181   8.559  0.4356 -0.4381 -0.1123
  481MOL0     C64822   3.136   0.030   8.585 -0.2669 -0.1941 -0.5653
  481MOL0     C64823   3.179  -0.040   8.460 -0.0207 -0.1760  0.2893
  481MOL0     O64824   3.317   0.005   8.432  0.3036  0.3291  0.0453
  481MOL0     C64825   3.388  -0.024   8.316 -0.0258  0.9420 -0.3681
  481MOL0     C64826   3.336  -0.085   8.198  0.0905  0.0465  0.1765
  481MOL0     C64827   3.420  -0.134   8.098  0.0560  0.9607 -0.8798
  481MOL0     C64828   3.561  -0.112   8.103  0.3032 -0.0055  0.6037
  481MOL0     C64829   3.640  -0.174   7.994  0.6038  0.0405  0.6154
  481MOL0     O64830   3.778  -0.191   8.005  0.3090  0.0325  0.2919
  481MOL0     C64831   3.861  -0.238   7.906  0.6145 -0.1008 -0.7207
  481MOL0     C64832   3.984  -0.278   7.958 -0.1149  1.0031  0.1094
  481MOL0     C64833   4.079  -0.342   7.865  0.0118 -0.0138 -0.5059
  481MOL0     C64834   4.046  -0.360   7.729  0.6756 -0.8942 -0.8089
  481MOL0     O64835   4.139  -0.414   7.649  0.1175  1.3398  0.3148
  481MOL0     C64836   4.119  -0.558   7.654  0.2843  0.4517 -0.9508
  481MOL0     C64837   4.240  -0.625   7.584  0.0191 -0.3111 -0.7820
  481MOL0     C64838   4.213  -0.638   7.431 -0.6911  0.8009 -0.2862
  481MOL0     C64839   4.339  -0.674   7.340  1.1777  0.5227 -0.0852
  481MOL0     C64840   4.398  -0.815   7.359  0.5363 -0.5689  0.4359
  481MOL0     C64841   4.311  -0.935   7.292  0.1000 -0.0359  0.3982
  481MOL0     C64842   4.364  -1.061   7.337  0.9322 -0.3240 -0.8661
  481MOL0     C64843   4.275  -1.174   7.285 -0.1685  0.0823  0.2879
  481MOL0    Cl64844   4.323  -1.315   7.380  0.3777  0.3719  0.7454
  481MOL0     C64845   3.929  -0.305   7.685  0.0954 -0.6563  0.1459
  481MOL0     C64846   3.835  -0.240   7.769  0.0431  0.5971  0.3883
  481MOL0     O64847   3.570  -0.205   7.897  0.6034  0.2075 -0.1470
  481MOL0     C64848   3.611  -0.053   8.214 -0.5668  0.3345 -0.4806
  481MOL0     C64849   3.529  -0.019   8.320 -0.6941 -1.2354  0.2636
  481MOL0     N64850   2.951   0.177   8.887  0.9799 -0.1923  0.9055
  481MOL0     N64851   2.840   0.155   8.942  0.2244 -0.3288  1.1224
  481MOL0     C64852   2.351   1.042   8.866 -0.1930 -0.1401 -0.3673
  481MOL0     C64853   2.308   1.144   8.780  1.0329  0.9575 -0.0954
  481MOL0     C64854   2.375   1.460   8.418  1.2308 -0.4042 -0.7922
  481MOL0     C64855   2.364   1.561   8.515 -0.3489  0.4141  0.4602
  481MOL0     C64856   2.384   1.686   8.470  0.3706  0.3457 -0.5869
  481MOL0     C64857   2.405   1.725   8.341 -0.8891  0.2455 -0.4761
  481MOL0     O64858   2.398   1.859   8.322  0.6037 -0.3467 -0.3588
  481MOL0     C64859   2.370   1.912   8.182 -1.0892  0.5369 -0.9931
  481MOL0     C64860   2.330   2.065   8.185  0.1073 -0.1326  0.4032
  481MOL0     C64861   2.426   2.141   8.279  0.5745 -0.3852  0.4748
  481MOL0     C64862   2.394   2.299   8.290 -0.7754  0.0407  0.4361
  481MOL0     C64863   2.395   2.371   8.167 -0.2037 -0.0447 -0.3733
  481MOL0     C64864   2.388   2.420   8.063  0.6397 -0.7380  0.3240
  481MOL0     C64865   2.391   1.630   8.248  0.4540 -0.4481  0.6452
  481MOL0     C64866   2.371   1.495   8.283  0.4483 -0.9579  1.3944
  481MOL0     C64867   2.338   1.397   8.160 -0.6032 -0.5120 -1.2599
  481MOL0     H64868   2.556   1.110   8.551 -0.1396  2.3190  0.6761
  481MOL0     H64869   2.623   0.937   8.704  0.3635  1.3501 -0.9638
  481MOL0     H64870   2.466   0.947   9.111 -1.3980  0.2626  0.1403
  481MOL0     H64871   2.356   0.827   9.046  0.9015 -3.2641  1.7773
  481MOL0     H64872   2.504   0.752   9.235 -0.6549  0.2706  0.3837
  481MOL0     H64873   2.638   0.776   9.133 -0.1396  1.8728 -2.9839
  481MOL0     H64874   2.545   0.598   8.982  0.3089  1.8174 -0.2011
  481MOL0     H64875   2.382   0.598   9.043 -0.1864  1.7987 -0.5835
  481MOL0     H64876   2.626   0.490   9.187 -0.4657 -5.6855  1.4768
  481MOL0     H64877   2.464   0.513   9.260 -0.9531  2.4822 -0.8200
  481MOL0     H64878   2.500   0.279   9.185 -2.1887  0.6154  0.6982
  481MOL0     H64879   2.362   0.349   9.080  0.8141 -0.5351 -3.1023
  481MOL0     H64880   2.477   0.352   8.897 -1.7376 -0.0631  2.5186
  481MOL0     H64881   2.635   0.349   8.983  1.5372 -2.9208  3.2478
  481MOL0     H64882   2.443   0.108   8.946  0.7980 -0.0696 -4.7095
  481MOL0     H64883   2.579   0.112   9.063 -0.2035 -1.3392 -0.4212
  481MOL0     H64884   2.626   0.005   8.828  3.3898 -0.2079  1.8454
  481MOL0     H64885   2.574   0.147   8.749 -1.2808 -2.0888 -0.5039
  481MOL0     H64886   2.765   0.270   8.646  1.2776  0.6814  0.3090
  481MOL0     H64887   3.067   0.377   8.652 -4.0674  1.1080  3.2968
  481MOL0     H64888   3.156   0.272   8.750 -0.9066  0.4139  0.9590
  481MOL0     H64889   3.015   0.186   8.493  0.5483 -0.9875 -0.3118
  481MOL0     H64890   3.189   0.221   8.505  0.0937  0.8493  0.2643
  481MOL0     H64891   3.045  -0.012   8.628  0.0993 -1.6223 -1.1243
  481MOL0     H64892   3.225   0.013   8.646  1.1019  0.8875 -2.1642
  481MOL0     H64893   3.111  -0.012   8.379  1.6794  1.3968 -0.7009
  481MOL0     H64894   3.161  -0.146   8.475 -3.8085  0.3715  0.4455
  481MOL0     H64895   3.229  -0.098   8.190  0.1327 -2.7160  2.5244
  481MOL0     H64896   3.371  -0.194   8.021 -0.1150  1.3422 -1.0736
  481MOL0     H64897   4.009  -0.275   8.063 -2.9593 -0.8896  0.9564
  481MOL0     H64898   4.174  -0.387   7.892  0.0957 -0.7516 -1.9712
  481MOL0     H64899   4.114  -0.593   7.758  0.1577  4.2265  0.4998
  481MOL0     H64900   4.030  -0.582   7.596 -2.1807  1.7544  1.9776
  481MOL0     H64901   4.318  -0.553   7.606 -1.9564  1.1008  2.2065
  481MOL0     H64902   4.275  -0.716   7.633  0.9691 -2.0511 -4.3255
  481MOL0     H64903   4.144  -0.720   7.411  0.0819  0.2563 -0.7803
  481MOL0     H64904   4.172  -0.545   7.389  0.1209  1.2772 -0.0583
  481MOL0     H64905   4.413  -0.594   7.332  0.5125  1.2113  0.5964
  481MOL0     H64906   4.311  -0.675   7.234  1.1412  2.0279 -0.1093
  481MOL0     H64907   4.412  -0.839   7.465  2.0904  0.4052  0.4686
  481MOL0     H64908   4.494  -0.811   7.307  0.5056  3.7767  0.3374
  481MOL0     H64909   4.208  -0.924   7.328  0.1749  0.1872  0.5457
  481MOL0     H64910   4.304  -0.933   7.183  1.6244 -3.0059  0.1524
  481MOL0     H64911   4.349  -1.059   7.445 -2.0975  1.0413 -1.1912
  481MOL0     H64912   4.471  -1.071   7.320  0.9689  0.5371 -1.1431
  481MOL0     H64913   4.175  -1.138   7.312  0.3937  1.0076  1.2580
  481MOL0     H64914   4.298  -1.185   7.179  1.0081  2.9581  0.1493
  481MOL0     H64915   3.906  -0.305   7.579 -1.9595 -2.6870  0.5276
  481MOL0     H64916   3.742  -0.200   7.730 -0.0157 -2.1393 -2.7263
  481MOL0     H64917   3.719  -0.039   8.213 -0.8402  2.9624 -1.9717
  481MOL0     H64918   3.567   0.029   8.409 -0.5912  1.7531 -1.2875
  481MOL0     H64919   2.286   1.027   8.951  0.8328  0.5438  0.5651
  481MOL0     H64920   2.212   1.190   8.800 -1.8436 -3.5446 -1.8572
  481MOL0     H64921   2.345   1.545   8.620 -0.3782 -0.1845  0.3663
  481MOL0     H64922   2.413   1.763   8.540  0.2934  1.4499 -1.7321
  481MOL0     H64923   2.285   1.856   8.143 -0.1922 -1.1282 -0.6803
  481MOL0     H64924   2.462   1.903   8.124 -1.0224  0.9683 -0.9569
  481MOL0     H64925   2.222   2.074   8.201 -0.3600 -4.9123  1.7396
  481MOL0     H64926   2.347   2.111   8.087  0.1571  0.9022  0.8872
  481MOL0     H64927   2.528   2.127   8.242  0.5100 -0.2175  0.2304
  481MOL0     H64928   2.424   2.112   8.385  2.4257 -0.5599  0.4985
  481MOL0     H64929   2.317   2.329   8.361 -0.2540  0.3490  0.8765
  481MOL0     H64930   2.484   2.342   8.335 -1.1248  2.7187 -1.1856
  481MOL0     H64931   2.389   2.479   7.973  0.1290 -1.3310 -0.0818
  481MOL0     H64932   2.397   1.660   8.144 -3.7806  3.5379  1.2583
  481MOL0     H64933   2.269   1.321   8.198 -0.0931  0.4098  1.7294
  481MOL0     H64934   2.286   1.459   8.087 -0.8411  1.6097  0.6046
  481MOL0     H64935   2.434   1.359   8.122  0.8697 -1.0291  2.5347
  482MOL0     O64936   1.362   3.534   5.645 -0.7077 -0.6222  0.1487
  482MOL0     C64937   1.459   3.563   5.574  0.6670  0.1805  0.2970
  482MOL0     O64938   1.463   3.677   5.499 -0.0608 -0.2870  0.0825
  482MOL0     C64939   1.360   3.764   5.484 -0.2066  0.1189 -0.8289
  482MOL0     C64940   1.400   3.897   5.435  0.0553  0.0285  0.2318
  482MOL0     C64941   1.308   4.000   5.411  0.1396  0.9578 -0.2098
  482MOL0     C64942   1.173   3.967   5.414 -0.2224 -0.4399  0.2983
  482MOL0     O64943   1.075   4.058   5.369  0.1527 -0.2815 -0.6567
  482MOL0     C64944   0.936   4.040   5.398 -0.4950 -0.1592 -0.0895
  482MOL0     C64945   0.857   4.167   5.336 -0.5120  0.6164 -0.2852
  482MOL0     C64946   0.912   4.189   5.192  0.1271 -1.4352  0.2345
  482MOL0     C64947   0.797   4.252   5.110 -0.4471 -0.1294 -0.2469
  482MOL0     C64948   0.853   4.311   4.983 -0.4105  0.0593  0.5514
  482MOL0     C64949   0.764   4.395   4.891  0.2995 -0.6862  0.3648
  482MOL0     C64950   0.664   4.305   4.814  0.7513  0.1081  0.8286
  482MOL0     C64951   0.625   4.381   4.686 -0.1937  0.6006  0.4770
  482MOL0     N64952   0.552   4.304   4.587  0.2928 -0.2039  0.2789
  482MOL0     C64953   0.431   4.320   4.524 -0.8471 -0.0344  0.8316
  482MOL0     C64954   0.435   4.227   4.429  0.1315 -0.0885 -0.4799
  482MOL0     C64955   0.317   4.203   4.318  0.3851 -0.0852 -0.4552
  482MOL0     C64956   0.258   4.060   4.337  0.4871 -0.4463  0.1354
  482MOL0     C64957   0.335   3.943   4.265  0.4284  0.3030 -0.2451
  482MOL0     C64958   0.393   3.975   4.135  1.2240 -0.4276  1.1764
  482MOL0     O64959   0.295   4.047   4.057  0.3011  0.0572  0.1925
  482MOL0     C64960   0.345   4.111   3.949  0.1353 -0.0764  0.5687
  482MOL0     C64961   0.304   4.238   3.921 -0.4173  0.1479  0.5458
  482MOL0     C64962   0.345   4.292   3.796 -0.3777 -0.0651 -0.8495
  482MOL0     C64963   0.408   4.221   3.700  0.3120  0.7110  0.6359
  482MOL0     C64964   0.433   4.272   3.562  0.6745 -0.1747  0.0127
  482MOL0     O64965   0.544   4.223   3.491  1.1507 -0.2543 -0.1237
  482MOL0     C64966   0.522   4.234   3.357 -0.3227 -0.8154 -0.2174
  482MOL0     C64967   0.570   4.343   3.290 -0.8892 -0.1128  0.2837
  482MOL0     C64968   0.570   4.362   3.154 -0.0096  0.5183 -1.1406
  482MOL0     C64969   0.510   4.259   3.077 -0.8956  0.4673  0.2460
  482MOL0     O64970   0.477   4.280   2.938  0.3083 -0.3001 -1.1263
  482MOL0     C64971   0.549   4.387   2.873  0.6265  0.4328  0.2428
  482MOL0     C64972   0.516   4.372   2.720 -0.1242  0.7413 -0.5584
  482MOL0     C64973   0.646   4.383   2.632  0.4433 -0.3511 -0.0974
  482MOL0     C64974   0.617   4.426   2.492  0.6610 -0.3550 -0.3360
  482MOL0     C64975   0.741   4.454   2.407  0.8790 -0.0604  0.2679
  482MOL0     C64976   0.839   4.549   2.478 -0.5940 -0.9686  0.5139
  482MOL0     C64977   0.915   4.641   2.375  0.7838  0.1955 -0.0989
  482MOL0     C64978   0.958   4.773   2.433 -0.2492 -0.7870  0.2909
  482MOL0    Cl64979   1.037   4.880   2.305 -0.5802 -0.0744 -0.2852
  482MOL0     C64980   0.462   4.147   3.146  0.1419  0.2329  0.3971
  482MOL0     C64981   0.462   4.127   3.288 -0.4653  0.2336 -0.1263
  482MOL0     O64982   0.354   4.348   3.525  0.0200  0.5592  0.2468
  482MOL0     C64983   0.457   4.097   3.735 -0.0248 -0.0396  0.3927
  482MOL0     C64984   0.423   4.040   3.862 -0.2279 -0.9255 -0.1026
  482MOL0     N64985   0.547   4.153   4.437  0.0916 -0.6510  0.1236
  482MOL0     N64986   0.613   4.196   4.533  0.3318 -0.0890 -0.0016
  482MOL0     C64987   1.130   3.833   5.447 -0.7660 -0.6014  0.0656
  482MOL0     C64988   1.220   3.731   5.485 -0.3880 -0.4991  0.9033
  482MOL0     C64989   1.588   3.490   5.615  0.4312  0.2963 -0.9763
  482MOL0     C64990   1.572   3.379   5.694  0.0454 -0.3631 -0.6551
  482MOL0     C64991   1.671   3.300   5.743 -0.6356  0.0728 -0.4412
  482MOL0     C64992   1.802   3.318   5.693  0.3330 -0.2243 -0.2847
  482MOL0     O64993   1.903   3.223   5.700 -1.0819 -0.5420 -0.0065
  482MOL0     C64994   1.857   3.089   5.733  0.6151  0.4985  0.7229
  482MOL0     C64995   1.957   2.979   5.714  0.4229  0.0873 -0.0705
  482MOL0     C64996   2.078   2.991   5.806 -0.2806 -0.2590 -0.0745
  482MOL0     C64997   2.055   2.960   5.950 -0.2386 -0.4955 -0.1772
  482MOL0     C64998   2.105   3.061   6.044  0.4962  0.4367 -0.1601
  482MOL0     C64999   2.147   3.136   6.129  0.1123 -0.1069  0.7413
  482MOL0     C65000   1.823   3.437   5.619  0.1756  0.3206 -0.3085
  482MOL0     C65001   1.718   3.522   5.584 -0.2742 -0.5388  0.4544
  482MOL0     C65002   1.746   3.639   5.496 -1.0805 -0.6092 -0.2273
  482MOL0     H65003   1.506   3.915   5.420  0.1108 -1.0288 -0.7429
  482MOL0     H65004   1.336   4.104   5.394  1.6107  0.7733  0.8500
  482MOL0     H65005   0.907   3.945   5.352  1.6510 -0.5509 -0.7710
  482MOL0     H65006   0.928   4.032   5.506  3.5912  0.8471  0.4377
  482MOL0     H65007   0.903   4.247   5.395 -0.3144 -0.7851  1.5724
  482MOL0     H65008   0.748   4.155   5.337 -0.3341 -1.3338  0.9097
  482MOL0     H65009   0.939   4.090   5.151  3.2521  0.2842 -2.4263
  482MOL0     H65010   1.001   4.250   5.209 -1.1473  0.8432 -0.7763
  482MOL0     H65011   0.721   4.176   5.087 -1.8649 -0.5048  4.5226
  482MOL0     H65012   0.744   4.323   5.174 -0.9135  0.2991 -1.0949
  482MOL0     H65013   0.935   4.371   5.025 -0.8665 -1.7606  4.4416
  482MOL0     H65014   0.906   4.239   4.919 -0.7365  0.4815 -0.2167
  482MOL0     H65015   0.702   4.465   4.949 -0.9358 -0.6481 -0.9442
  482MOL0     H65016   0.822   4.446   4.815 -2.1800  0.3647 -0.9356
  482MOL0     H65017   0.582   4.284   4.883  1.6316 -2.1367  1.2807
  482MOL0     H65018   0.700   4.204   4.791  3.2171  1.0436  0.1704
  482MOL0     H65019   0.577   4.476   4.708  1.7096  1.8349 -0.4911
  482MOL0     H65020   0.718   4.415   4.640 -1.2146  1.2500 -1.2186
  482MOL0     H65021   0.361   4.402   4.535  0.8312  2.2043 -2.9486
  482MOL0     H65022   0.249   4.286   4.340  3.0668  1.4984  2.7045
  482MOL0     H65023   0.368   4.207   4.222 -2.1649 -0.2020 -1.9192
  482MOL0     H65024   0.243   4.041   4.444  1.4915 -4.3495 -0.2369
  482MOL0     H65025   0.158   4.055   4.294 -0.1040 -0.4964  1.4508
  482MOL0     H65026   0.276   3.851   4.258 -3.1740  2.4233 -0.4451
  482MOL0     H65027   0.407   3.912   4.340  0.3521  3.4800  1.3035
  482MOL0     H65028   0.414   3.884   4.077 -0.3658  1.4360 -2.7544
  482MOL0     H65029   0.483   4.034   4.151  0.3761  1.5809 -0.7619
  482MOL0     H65030   0.238   4.298   3.983 -0.4450 -0.3261  0.9892
  482MOL0     H65031   0.327   4.398   3.779 -5.0559 -0.6367 -0.6820
  482MOL0     H65032   0.616   4.421   3.349  2.2004  0.3458 -2.4255
  482MOL0     H65033   0.623   4.448   3.116  1.8962 -0.0987 -0.0246
  482MOL0     H65034   0.512   4.484   2.909  2.9239  1.2745  0.4994
  482MOL0     H65035   0.653   4.394   2.906  0.7402  3.3875 -0.4027
  482MOL0     H65036   0.468   4.275   2.704  3.2895 -0.8239 -2.6251
  482MOL0     H65037   0.435   4.442   2.699  1.3061  2.3258 -1.0161
  482MOL0     H65038   0.715   4.450   2.685 -0.0444 -0.6567  0.9384
  482MOL0     H65039   0.691   4.285   2.616  0.7560 -0.3876  0.9267
  482MOL0     H65040   0.570   4.522   2.515  2.0694 -0.3011  2.8145
  482MOL0     H65041   0.542   4.365   2.440 -0.8342  0.5645  0.6585
  482MOL0     H65042   0.704   4.507   2.318 -0.6267 -1.0522  0.2454
  482MOL0     H65043   0.792   4.370   2.358 -1.1025  0.2989 -2.7308
  482MOL0     H65044   0.802   4.620   2.552  2.0394  2.5895 -1.2694
  482MOL0     H65045   0.921   4.493   2.524 -0.4094  0.5025  2.1138
  482MOL0     H65046   0.865   4.641   2.278  2.1215 -4.2021 -1.0048
  482MOL0     H65047   1.006   4.591   2.340  2.1678  2.1704  0.5447
  482MOL0     H65048   0.868   4.830   2.459 -0.6294 -0.5633 -1.4509
  482MOL0     H65049   1.032   4.746   2.509  2.7009 -0.0479 -2.1226
  482MOL0     H65050   0.416   4.066   3.089  2.1057 -2.3951  2.2977
  482MOL0     H65051   0.429   4.037   3.340  2.6728 -2.7119 -2.6904
  482MOL0     H65052   0.534   4.052   3.674  1.8319  0.9444  1.9039
  482MOL0     H65053   0.459   3.944   3.898  0.2698  0.3853  3.2368
  482MOL0     H65054   1.028   3.797   5.442 -0.9155 -0.0713 -1.1676
  482MOL0     H65055   1.193   3.626   5.484  0.9774 -0.8721 -0.0609
  482MOL0     H65056   1.474   3.353   5.733  0.8057 -0.5148  1.2635
  482MOL0     H65057   1.635   3.212   5.795 -3.0754  0.8462 -0.6789
  482MOL0     H65058   1.768   3.068   5.672  2.8370 -0.5544 -2.3952
  482MOL0     H65059   1.823   3.099   5.837  0.0843 -0.7324  0.6822
  482MOL0     H65060   1.995   2.986   5.612  3.1786 -1.4388  0.7617
  482MOL0     H65061   1.908   2.882   5.724 -0.2542  0.3006 -1.2012
  482MOL0     H65062   2.114   3.086   5.766 -1.0641 -0.5812 -1.6293
  482MOL0     H65063   2.152   2.919   5.770 -1.0807 -2.7638  2.8118
  482MOL0     H65064   1.951   2.939   5.979  0.4507  0.3390  3.4872
  482MOL0     H65065   2.115   2.873   5.978 -0.0787 -0.0214  1.0353
  482MOL0     H65066   2.188   3.186   6.214  0.4563  1.4997 -0.3344
  482MOL0     H65067   1.918   3.449   5.568  1.1713 -2.0345  0.8655
  482MOL0     H65068   1.698   3.648   5.398 -1.5142  0.6091  0.0800
  482MOL0     H65069   1.711   3.721   5.560  0.6995  0.2688 -0.2889
  482MOL0     H65070   1.854   3.651   5.479 -0.8541  0.0623  1.4893
  483MOL0     O65071   5.378   6.452   1.914  0.8891  0.6030  0.7328
  483MOL0     C65072   5.430   6.393   1.820  0.3661  0.4963 -0.1597
  483MOL0     O65073   5.523   6.441   1.736  0.0375  0.0520  0.1959
  483MOL0     C65074   5.558   6.568   1.756  0.2038 -0.8688  0.4190
  483MOL0     C65075   5.666   6.605   1.836 -0.3560  0.1868  0.0841
  483MOL0     C65076   5.697   6.735   1.870 -0.4651 -0.9323  0.0504
  483MOL0     C65077   5.627   6.843   1.830  0.1132  0.3648 -0.3730
  483MOL0     O65078   5.681   6.966   1.861 -0.2425  0.1547  0.1870
  483MOL0     C65079   5.623   7.091   1.821  0.1239  0.8690  0.3665
  483MOL0     C65080   5.686   7.204   1.902 -0.1525  0.0168  0.8852
  483MOL0     C65081   5.610   7.337   1.887 -0.1865 -0.7839  0.2649
  483MOL0     C65082   5.487   7.325   1.979 -0.2337  0.8403 -0.5176
  483MOL0     C65083   5.386   7.439   1.995 -0.6946 -0.2618  0.2886
  483MOL0     C65084   5.454   7.564   2.063 -0.1135 -0.6507 -0.9181
  483MOL0     C65085   5.358   7.658   2.139  0.0126 -0.9428 -0.5043
  483MOL0     C65086   5.239   7.705   2.060  0.7103 -0.5754  0.0600
  483MOL0     N65087   5.163   7.807   2.141 -0.1078  0.5444  0.2400
  483MOL0     C65088   5.107   7.782   2.264  0.7598 -0.0006  0.6278
  483MOL0     C65089   5.044   7.901   2.298  0.6956 -0.4593  1.0363
  483MOL0     C65090   4.968   7.951   2.414 -0.3604 -1.1423 -0.2978
  483MOL0     C65091   4.834   7.882   2.457  0.2055 -0.6423  0.8364
  483MOL0     C65092   4.810   7.886   2.604  0.1090 -1.3001  0.5244
  483MOL0     C65093   4.813   8.024   2.680 -0.4020 -0.0179  0.9456
  483MOL0     O65094   4.718   8.114   2.607  0.7360 -0.0378 -0.3212
  483MOL0     C65095   4.674   8.222   2.676 -0.3616 -0.1975  0.4347
  483MOL0     C65096   4.760   8.307   2.739  0.2359  0.8424 -0.6796
  483MOL0     C65097   4.719   8.408   2.832 -0.4084  0.0267 -0.2954
  483MOL0     C65098   4.580   8.433   2.842  0.4450 -0.1375 -0.2557
  483MOL0     C65099   4.521   8.535   2.931  0.8412  0.6578 -0.2377
  483MOL0     O65100   4.601   8.633   2.977 -0.6076 -0.3760  0.6942
  483MOL0     C65101   4.629   8.728   2.880 -0.9321 -0.2808 -0.4674
  483MOL0     C65102   4.558   8.751   2.756 -0.3710 -0.1319 -0.8916
  483MOL0     C65103   4.618   8.844   2.665  0.4742 -0.0632 -0.1920
  483MOL0     C65104   4.730   8.920   2.701  0.0215 -0.0029  0.4492
  483MOL0     O65105   4.781   9.017   2.613 -0.3428  0.2888 -0.8234
  483MOL0     C65106   4.723   9.052   2.492  0.1931 -0.4421 -0.2112
  483MOL0     C65107   4.807   9.139   2.396  0.2627  0.1770  0.2288
  483MOL0     C65108   4.948   9.083   2.365 -0.7236 -0.1979 -0.2511
  483MOL0     C65109   4.941   8.952   2.276  0.6637 -0.6553  0.2384
  483MOL0     C65110   5.073   8.905   2.206  1.4035  0.0498  0.2663
  483MOL0     C65111   5.183   8.889   2.309  0.2134 -0.0046 -0.9054
  483MOL0     C65112   5.161   8.765   2.408  0.5818  0.2497 -1.2504
  483MOL0     C65113   5.288   8.713   2.481 -0.9509 -0.0872 -0.2044
  483MOL0    Cl65114   5.361   8.852   2.582  0.2069 -0.4558  0.4820
  483MOL0     C65115   4.788   8.897   2.825 -0.3510  1.1545 -1.6829
  483MOL0     C65116   4.745   8.794   2.908 -0.0632  0.1664  0.4886
  483MOL0     O65117   4.399   8.523   2.950 -0.5488  0.3875  0.2497
  483MOL0     C65118   4.501   8.344   2.773 -0.5046 -0.2856  0.0180
  483MOL0     C65119   4.542   8.252   2.679 -0.8798  0.6240 -0.7462
  483MOL0     N65120   5.065   7.989   2.198 -0.3629  0.0931  0.6446
  483MOL0     N65121   5.146   7.935   2.110  0.2498 -1.2011 -0.1024
  483MOL0     C65122   5.511   6.821   1.747 -0.2365  0.4356 -0.9963
  483MOL0     C65123   5.474   6.682   1.718 -0.8126 -0.1149 -0.4803
  483MOL0     C65124   5.400   6.249   1.807  0.5267  0.0738 -0.4316
  483MOL0     C65125   5.365   6.192   1.685  0.4340 -0.6330  0.0017
  483MOL0     C65126   5.375   6.055   1.658  0.4716  0.2878 -0.0765
  483MOL0     C65127   5.399   5.965   1.769  0.2663 -0.0021  0.2057
  483MOL0     O65128   5.417   5.835   1.765 -0.4707  0.0944 -0.2515
  483MOL0     C65129   5.298   5.774   1.724 -0.1350  0.2846  0.5817
  483MOL0     C65130   5.222   5.718   1.841 -0.3268  0.3624 -0.6733
  483MOL0     C65131   5.311   5.636   1.931  0.4202  0.2595 -0.5924
  483MOL0     C65132   5.226   5.531   2.015 -0.2683 -0.5359 -0.0290
  483MOL0     C65133   5.315   5.444   2.100  0.2917 -0.2550 -0.3436
  483MOL0     C65134   5.377   5.362   2.169 -0.6652  0.1641 -0.1858
  483MOL0     C65135   5.424   6.025   1.887  0.3800  0.0692 -0.6184
  483MOL0     C65136   5.430   6.159   1.908 -0.1471  0.1308  0.3888
  483MOL0     C65137   5.472   6.204   2.047  0.1558 -0.3654  0.3407
  483MOL0     H65138   5.727   6.523   1.872 -1.6220 -0.4097  0.9516
  483MOL0     H65139   5.779   6.746   1.941 -3.3321 -0.1188  3.5656
  483MOL0     H65140   5.643   7.101   1.714  3.4384 -3.5058  0.3084
  483MOL0     H65141   5.520   7.078   1.855  1.0144 -1.3127  2.4477
  483MOL0     H65142   5.786   7.227   1.864 -0.0123  0.7701  1.6808
  483MOL0     H65143   5.700   7.165   2.003 -0.5193  0.1124  0.9762
  483MOL0     H65144   5.589   7.345   1.779  0.0021  1.3509  0.3364
  483MOL0     H65145   5.671   7.424   1.912  0.2021 -1.0275  0.1827
  483MOL0     H65146   5.420   7.251   1.935  0.0068  0.2431  0.1113
  483MOL0     H65147   5.522   7.287   2.075  1.2290 -1.8590 -2.0024
  483MOL0     H65148   5.350   7.459   1.894 -1.4480 -2.5382  0.0597
  483MOL0     H65149   5.297   7.408   2.051 -1.9559  1.5848 -0.6271
  483MOL0     H65150   5.517   7.530   2.146 -1.3977  0.1310  0.4272
  483MOL0     H65151   5.510   7.622   1.990  0.8074 -3.7975 -2.9234
  483MOL0     H65152   5.406   7.750   2.172 -1.5661  0.3573 -1.6652
  483MOL0     H65153   5.314   7.593   2.216 -0.6595  0.3956  0.2622
  483MOL0     H65154   5.281   7.755   1.972  1.7111 -0.3666  0.6389
  483MOL0     H65155   5.174   7.623   2.026 -3.1266  2.0640  0.4768
  483MOL0     H65156   5.113   7.694   2.327  2.7055  1.2339  2.2462
  483MOL0     H65157   5.044   7.953   2.492  0.2972  3.8526 -0.7662
  483MOL0     H65158   4.950   8.059   2.417 -1.3283 -1.2847 -0.3232
  483MOL0     H65159   4.758   7.927   2.392  2.3175  1.3213 -0.4290
  483MOL0     H65160   4.854   7.782   2.417 -0.8385  0.4886 -2.9501
  483MOL0     H65161   4.887   7.826   2.653  1.6563 -0.1298 -0.3771
  483MOL0     H65162   4.714   7.836   2.620 -0.5459 -0.7421 -1.4088
  483MOL0     H65163   4.914   8.063   2.666 -0.9453  0.9914 -0.4728
  483MOL0     H65164   4.783   8.009   2.784 -4.3156 -3.3324 -0.3970
  483MOL0     H65165   4.864   8.284   2.721  0.4781  3.0672 -2.6029
  483MOL0     H65166   4.783   8.459   2.903 -1.2019 -2.4303  2.3726
  483MOL0     H65167   4.470   8.689   2.742  0.1946 -0.7908 -1.6560
  483MOL0     H65168   4.562   8.870   2.576 -1.3061  2.5319  1.5567
  483MOL0     H65169   4.679   8.962   2.448 -1.9603 -2.1101  4.6294
  483MOL0     H65170   4.640   9.119   2.517  1.8135  2.2627 -1.5898
  483MOL0     H65171   4.753   9.147   2.302  1.6543  1.9220 -0.4640
  483MOL0     H65172   4.826   9.241   2.431 -1.1584  2.1993 -4.2041
  483MOL0     H65173   5.009   9.159   2.314 -2.0146 -0.4665 -2.2966
  483MOL0     H65174   5.014   9.069   2.452  0.0667 -0.5000 -0.8808
  483MOL0     H65175   4.866   8.969   2.198  1.9703 -2.8929 -1.6582
  483MOL0     H65176   4.899   8.877   2.344 -0.6141  0.5005  0.7736
  483MOL0     H65177   5.100   8.982   2.133  0.4435  1.8179  1.6702
  483MOL0     H65178   5.057   8.805   2.166 -1.1268  0.0872  0.9507
  483MOL0     H65179   5.271   8.874   2.246 -1.1282  0.2781 -2.9453
  483MOL0     H65180   5.191   8.977   2.374 -3.4408 -0.1189 -0.0826
  483MOL0     H65181   5.113   8.686   2.349 -1.1456  1.1340 -1.0986
  483MOL0     H65182   5.093   8.786   2.491  2.3700  1.5230 -0.0254
  483MOL0     H65183   5.259   8.647   2.564 -2.6530  2.6911  1.5898
  483MOL0     H65184   5.366   8.665   2.422 -0.5166 -2.5467  2.1528
  483MOL0     H65185   4.878   8.957   2.841 -0.4154  0.5998  1.3275
  483MOL0     H65186   4.796   8.769   3.000  0.6188  0.6989  0.2544
  483MOL0     H65187   4.396   8.370   2.781 -0.3905 -0.4192  2.5728
  483MOL0     H65188   4.468   8.186   2.635 -2.1748  0.3620  1.6562
  483MOL0     H65189   5.448   6.904   1.714  0.8090  1.5231 -0.3499
  483MOL0     H65190   5.388   6.652   1.659 -0.3412  1.9718 -2.3747
  483MOL0     H65191   5.330   6.243   1.595 -1.4200 -3.4657 -0.9977
  483MOL0     H65192   5.366   6.013   1.558 -4.8166  4.8769 -2.0693
  483MOL0     H65193   5.325   5.693   1.656 -1.1237  0.2360  0.2310
  483MOL0     H65194   5.226   5.836   1.668  0.9023  1.1895  0.2182
  483MOL0     H65195   5.143   5.649   1.810 -1.2111  3.1421 -5.5788
  483MOL0     H65196   5.173   5.791   1.906 -1.8129 -1.5150  0.4291
  483MOL0     H65197   5.349   5.698   2.013 -0.9577  1.1283 -0.5789
  483MOL0     H65198   5.384   5.578   1.873  1.7051  0.2653  0.9357
  483MOL0     H65199   5.160   5.588   2.081  0.2157 -1.2222  1.0924
  483MOL0     H65200   5.169   5.464   1.949  0.1910 -1.4730  0.5109
  483MOL0     H65201   5.408   5.274   2.221  2.1851  1.5324  0.6455
  483MOL0     H65202   5.450   5.964   1.973 -0.1282  0.8626  0.1146
  483MOL0     H65203   5.542   6.288   2.042 -1.0644  0.6381 -0.3291
  483MOL0     H65204   5.387   6.215   2.115  0.7723 -2.1501  1.4872
  483MOL0     H65205   5.528   6.129   2.105 -1.5542 -0.9779  1.2766
  484MOL0     O65206   8.404   2.414   2.228 -1.2626  0.0646  0.5198
  484MOL0     C65207   8.368   2.295   2.203  0.0930 -0.5563  0.7823
  484MOL0     O65208   8.245   2.265   2.146  0.4770 -0.2466  0.5526
  484MOL0     C65209   8.142   2.365   2.127 -0.5832 -0.2579 -0.0788
  484MOL0     C65210   8.046   2.331   2.035  0.8376  0.3553 -0.4841
  484MOL0     C65211   7.947   2.417   1.991 -0.5842  0.1835 -0.1312
  484MOL0     C65212   7.949   2.547   2.027 -0.4666 -0.7986  0.1127
  484MOL0     O65213   7.868   2.646   1.969 -0.1514  0.5481  0.0566
  484MOL0     C65214   7.765   2.603   1.868  0.0449  0.5904  0.0249
  484MOL0     C65215   7.673   2.718   1.834 -0.2446 -0.7060  0.4334
  484MOL0     C65216   7.557   2.673   1.750 -0.1709 -0.6999 -0.4010
  484MOL0     C65217   7.596   2.584   1.634  0.2054  0.0295  0.1619
  484MOL0     C65218   7.480   2.572   1.528 -0.4314  0.0815 -0.2450
  484MOL0     C65219   7.489   2.435   1.452 -0.3646 -0.1377  0.0225
  484MOL0     C65220   7.580   2.417   1.332 -0.0678  0.5184  0.3652
  484MOL0     C65221   7.725   2.393   1.376  0.5655 -0.4068 -0.6017
  484MOL0     N65222   7.823   2.324   1.296  0.1502  0.4792 -0.5839
  484MOL0     C65223   7.802   2.200   1.236  0.6111  0.0485  0.2260
  484MOL0     C65224   7.916   2.168   1.168  0.3308  0.7134 -0.2161
  484MOL0     C65225   7.947   2.048   1.071  0.0352  0.1627 -0.0986
  484MOL0     C65226   7.811   1.990   1.034  0.8219 -0.6061  0.6375
  484MOL0     C65227   7.832   1.886   0.920 -1.3693  1.0740  1.1490
  484MOL0     C65228   7.910   1.756   0.951  0.0924  0.0287  0.9252
  484MOL0     O65229   8.024   1.754   0.867 -0.4455 -0.4901 -0.4585
  484MOL0     C65230   8.037   1.660   0.768  0.6850 -0.2431 -1.1576
  484MOL0     C65231   8.166   1.624   0.722 -0.7808  0.1831  0.0529
  484MOL0     C65232   8.186   1.533   0.617  0.2598 -0.4844  0.3434
  484MOL0     C65233   8.066   1.469   0.561  1.0511 -0.4303 -0.6244
  484MOL0     C65234   8.076   1.365   0.464  0.2051 -0.2172  0.3943
  484MOL0     O65235   8.199   1.312   0.432 -0.3310  0.1688  0.2140
  484MOL0     C65236   8.218   1.188   0.373 -0.1304  0.2043 -0.3866
  484MOL0     C65237   8.158   1.147   0.252 -0.0922 -0.4182  0.5350
  484MOL0     C65238   8.209   1.038   0.181  0.2599  0.6450  0.0155
  484MOL0     C65239   8.314   0.963   0.241  0.5250  0.5489  0.0794
  484MOL0     O65240   8.376   0.855   0.171  0.5166 -0.1189  0.1290
  484MOL0     C65241   8.293   0.785   0.079  0.1913  0.1335 -0.6940
  484MOL0     C65242   8.381   0.663   0.046  0.4524 -0.7945 -0.5324
  484MOL0     C65243   8.290   0.559  -0.021  0.1715  0.3054 -0.5613
  484MOL0     C65244   8.260   0.597  -0.167  0.0990 -0.8014  1.0108
  484MOL0     C65245   8.182   0.475  -0.223 -0.7167  0.8818  0.0911
  484MOL0     C65246   8.147   0.477  -0.377 -0.9426  0.1265 -0.8031
  484MOL0     C65247   8.259   0.426  -0.470  0.7237 -0.1411 -0.6255
  484MOL0     C65248   8.203   0.429  -0.606  0.0328 -0.0716  0.6140
  484MOL0    Cl65249   8.088   0.279  -0.636 -0.0653 -0.4004  0.2369
  484MOL0     C65250   8.368   0.991   0.366  0.9333 -0.0794 -0.6375
  484MOL0     C65251   8.327   1.113   0.423 -0.0935  0.1377  0.4396
  484MOL0     O65252   7.975   1.314   0.430  0.8321  0.2457  0.8837
  484MOL0     C65253   7.937   1.516   0.593  0.1384  0.0460 -0.2856
  484MOL0     C65254   7.928   1.610   0.702 -0.0992  1.0943 -0.6819
  484MOL0     N65255   8.007   2.269   1.203  1.0290 -1.0216 -0.0096
  484MOL0     N65256   7.951   2.357   1.284 -0.5175  0.3898 -0.7885
  484MOL0     C65257   8.040   2.592   2.123  0.2856  0.9389  0.2319
  484MOL0     C65258   8.137   2.503   2.166 -0.8947 -0.6327  0.2588
  484MOL0     C65259   8.453   2.187   2.250 -0.0905 -0.3186 -0.2906
  484MOL0     C65260   8.576   2.237   2.296  0.9765 -0.1700 -1.0282
  484MOL0     C65261   8.667   2.140   2.342 -0.0944 -0.8287  0.2962
  484MOL0     C65262   8.636   2.010   2.345 -0.1527  0.4308 -0.7104
  484MOL0     O65263   8.743   1.939   2.393  1.0873 -0.0745 -0.2289
  484MOL0     C65264   8.722   1.803   2.434  0.2330 -0.6860  0.0748
  484MOL0     C65265   8.851   1.753   2.512  0.2201  0.2148  0.0561
  484MOL0     C65266   8.844   1.821   2.652  0.3582  0.4290 -0.0781
  484MOL0     C65267   8.837   1.721   2.772  0.3452 -0.8345 -0.1203
  484MOL0     C65268   8.961   1.650   2.798 -0.3325  0.5572 -1.2334
  484MOL0     C65269   9.046   1.572   2.834 -0.5700  0.6192 -1.1326
  484MOL0     C65270   8.503   1.965   2.321 -0.3068  0.0849  0.1894
  484MOL0     C65271   8.423   2.050   2.256  0.3668 -0.4721  0.0500
  484MOL0     C65272   8.303   1.979   2.200  0.1183  0.5571  0.1834
  484MOL0     H65273   8.038   2.226   2.007 -2.2698 -0.5856  3.1002
  484MOL0     H65274   7.869   2.383   1.923 -2.7525  2.9632  0.7781
  484MOL0     H65275   7.810   2.583   1.770 -0.7699  0.5836 -0.3561
  484MOL0     H65276   7.720   2.517   1.919  4.0370 -2.2811 -0.7412
  484MOL0     H65277   7.733   2.793   1.781 -1.6522  0.5562  0.5586
  484MOL0     H65278   7.644   2.751   1.934  0.2691  0.2906  0.2644
  484MOL0     H65279   7.504   2.757   1.703  0.3991 -1.3784 -2.3528
  484MOL0     H65280   7.483   2.615   1.805 -1.7717 -1.8092 -3.4510
  484MOL0     H65281   7.683   2.625   1.583  0.2239  0.5223  0.5807
  484MOL0     H65282   7.630   2.491   1.681  2.2318  1.3163  1.3734
  484MOL0     H65283   7.394   2.562   1.594  0.9166 -0.9219  1.4790
  484MOL0     H65284   7.481   2.658   1.461 -4.4941  1.3072  0.9712
  484MOL0     H65285   7.507   2.354   1.524 -0.3564 -1.5089 -1.4833
  484MOL0     H65286   7.389   2.424   1.408 -0.7649  0.0570  0.8534
  484MOL0     H65287   7.567   2.504   1.267 -1.5668  1.0722  1.3726
  484MOL0     H65288   7.551   2.330   1.272  1.0220  1.0275 -0.9597
  484MOL0     H65289   7.768   2.491   1.396  0.8454 -0.9788  1.9421
  484MOL0     H65290   7.722   2.347   1.476  1.0190  3.5986  1.4617
  484MOL0     H65291   7.703   2.156   1.226  1.4283 -1.3432 -3.3386
  484MOL0     H65292   7.988   2.090   0.979 -0.1406 -1.7244 -1.0940
  484MOL0     H65293   8.022   1.983   1.118  0.8241  2.4402  2.0019
  484MOL0     H65294   7.772   1.943   1.125 -1.1487 -2.2838 -0.9855
  484MOL0     H65295   7.734   2.059   1.000 -0.4602 -0.7773  2.9655
  484MOL0     H65296   7.884   1.931   0.835  0.4418 -1.2999  0.9056
  484MOL0     H65297   7.739   1.849   0.875  0.4633 -0.3011 -1.8444
  484MOL0     H65298   7.844   1.672   0.926 -1.2091  1.3963 -0.4641
  484MOL0     H65299   7.957   1.748   1.049  5.6461 -1.1116 -1.4487
  484MOL0     H65300   8.259   1.666   0.761  0.2330 -1.2087 -0.7556
  484MOL0     H65301   8.280   1.500   0.575  0.5403  2.4531 -1.6561
  484MOL0     H65302   8.078   1.203   0.206  1.0900  0.4871 -0.5096
  484MOL0     H65303   8.173   1.027   0.079  0.4394 -0.3629  0.0508
  484MOL0     H65304   8.197   0.749   0.115  0.1529 -1.4591 -2.2718
  484MOL0     H65305   8.279   0.838  -0.016  2.1527 -3.5915 -3.3190
  484MOL0     H65306   8.463   0.696  -0.017  0.9664 -1.0922 -0.0303
  484MOL0     H65307   8.436   0.623   0.132  3.0227 -2.2631 -2.6936
  484MOL0     H65308   8.350   0.468  -0.014  2.4242  1.6659 -1.2486
  484MOL0     H65309   8.197   0.547   0.036  0.7097  0.0898  0.2964
  484MOL0     H65310   8.349   0.618  -0.227 -2.0677  2.4754 -1.3894
  484MOL0     H65311   8.193   0.683  -0.169  0.4456 -0.5383  0.7289
  484MOL0     H65312   8.082   0.490  -0.183 -2.0921 -0.7072 -2.4826
  484MOL0     H65313   8.226   0.379  -0.194 -5.4164 -1.8347 -0.7876
  484MOL0     H65314   8.056   0.418  -0.391 -0.1424 -1.3326 -0.0353
  484MOL0     H65315   8.135   0.584  -0.398 -1.7330  0.1339 -0.3688
  484MOL0     H65316   8.286   0.324  -0.443  0.3413 -0.2694 -0.7238
  484MOL0     H65317   8.344   0.495  -0.475 -1.5577  2.8136 -1.4811
  484MOL0     H65318   8.161   0.526  -0.634  1.9070 -0.0889 -2.7993
  484MOL0     H65319   8.289   0.402  -0.669 -1.5253 -2.7343 -0.5843
  484MOL0     H65320   8.448   0.938   0.417 -0.7148  0.4417  2.7875
  484MOL0     H65321   8.380   1.135   0.515  0.2464  0.7271  0.1069
  484MOL0     H65322   7.848   1.480   0.542  1.9874  0.6838 -4.3544
  484MOL0     H65323   7.829   1.630   0.743  0.0561 -3.0748  2.4189
  484MOL0     H65324   8.037   2.696   2.152 -2.0314  1.4195 -1.4545
  484MOL0     H65325   8.208   2.539   2.240 -1.1915 -0.6765  0.5650
  484MOL0     H65326   8.603   2.341   2.312  0.3109  0.0564 -1.3295
  484MOL0     H65327   8.766   2.175   2.371 -0.3910  1.0494 -0.7679
  484MOL0     H65328   8.689   1.752   2.343 -1.7110  0.1114  0.2647
  484MOL0     H65329   8.638   1.793   2.504  0.0397 -1.4694 -0.2566
  484MOL0     H65330   8.945   1.767   2.457 -0.6979  2.8862 -1.0037
  484MOL0     H65331   8.829   1.646   2.523 -3.2527  0.7057 -0.8313
  484MOL0     H65332   8.751   1.880   2.656  1.5932  2.4300  3.8765
  484MOL0     H65333   8.931   1.882   2.676  0.3650 -0.2739  1.8172
  484MOL0     H65334   8.805   1.785   2.855  0.4475  2.1333 -2.1946
  484MOL0     H65335   8.753   1.656   2.747  0.2566 -0.5900 -0.4757
  484MOL0     H65336   9.121   1.506   2.874 -0.5452  1.6427  0.5647
  484MOL0     H65337   8.471   1.863   2.339 -2.8422  0.4431 -1.7546
  484MOL0     H65338   8.298   2.004   2.094 -3.0748 -1.3935 -0.2660
  484MOL0     H65339   8.300   1.870   2.200 -2.1278  0.5302  1.8977
  484MOL0     H65340   8.215   2.004   2.261 -0.8120 -2.1431  0.0555
  485MOL0     O65341   7.780   1.948   9.711  0.6620  0.2613 -0.5457
  485MOL0     C65342   7.878   1.956   9.778 -0.1586  0.1458  0.9234
  485MOL0     O65343   8.004   1.925   9.725  0.5774 -0.7863  0.4457
  485MOL0     C65344   8.003   1.896   9.590 -0.2426  1.2502 -0.7354
  485MOL0     C65345   8.018   1.984   9.482  0.5390 -0.1103 -0.7442
  485MOL0     C65346   8.046   1.960   9.348 -0.4294  0.3780 -0.2625
  485MOL0     C65347   8.041   1.820   9.318  0.1693 -0.3712 -0.1094
  485MOL0     O65348   8.074   1.798   9.188 -0.2434  0.4449  0.3753
  485MOL0     C65349   8.132   1.671   9.153 -0.1470 -0.5644  0.7551
  485MOL0     C65350   8.136   1.663   8.996 -0.9626 -0.7629  0.2094
  485MOL0     C65351   8.251   1.561   8.962 -0.0807  0.5836  0.1448
  485MOL0     C65352   8.260   1.553   8.808  0.3706 -0.1191  0.7658
  485MOL0     C65353   8.352   1.447   8.754  0.1435 -0.5728 -0.8598
  485MOL0     C65354   8.262   1.328   8.734  0.3479  0.1735 -0.1422
  485MOL0     C65355   8.335   1.194   8.736 -0.7597  1.4385  0.2794
  485MOL0     C65356   8.333   1.128   8.869  0.1458 -0.0352 -0.1690
  485MOL0     N65357   8.425   1.016   8.852  0.0308  0.9520  0.7785
  485MOL0     C65358   8.561   1.007   8.827 -0.7034 -0.0314  0.9238
  485MOL0     C65359   8.582   0.874   8.807  0.2626  0.1784 -0.5506
  485MOL0     C65360   8.711   0.812   8.752  0.2762  0.1000 -0.2783
  485MOL0     C65361   8.678   0.795   8.603  0.1814 -0.2749  0.7279
  485MOL0     C65362   8.809   0.811   8.526  0.7230 -1.0008  0.3349
  485MOL0     C65363   8.844   0.947   8.462 -0.5740 -0.0019  0.6151
  485MOL0     O65364   8.810   1.050   8.552 -0.0997 -0.7143  0.3530
  485MOL0     C65365   8.902   1.121   8.628 -0.8642  0.4523 -0.2702
  485MOL0     C65366   9.024   1.059   8.677  0.9103 -0.4315  0.1557
  485MOL0     C65367   9.117   1.135   8.746  0.8605 -0.1207 -0.1117
  485MOL0     C65368   9.075   1.261   8.800  0.0165 -0.4895  0.2439
  485MOL0     C65369   9.161   1.337   8.895  0.6214  0.4232 -0.2021
  485MOL0     O65370   9.163   1.476   8.876 -0.2628 -0.2602 -1.5506
  485MOL0     C65371   9.251   1.567   8.938  0.1320  0.0261  0.1251
  485MOL0     C65372   9.331   1.538   9.051 -0.7607 -0.3284  0.9517
  485MOL0     C65373   9.431   1.630   9.095  0.3382  0.4521 -0.1378
  485MOL0     C65374   9.445   1.749   9.031  0.0156  0.5571  0.1525
  485MOL0     O65375   9.541   1.834   9.083  0.1371 -0.0067 -0.0936
  485MOL0     C65376   9.621   1.910   8.988 -0.2236  0.1980 -1.2985
  485MOL0     C65377   9.695   2.031   9.069 -0.0123  0.7679 -0.6603
  485MOL0     C65378   9.833   2.000   9.130 -0.3182 -0.5432  0.2040
  485MOL0     C65379   9.828   1.919   9.257  1.2922  0.2720 -0.3601
  485MOL0     C65380   9.966   1.887   9.327  0.5990 -0.0121 -0.9540
  485MOL0     C65381  10.028   1.769   9.251 -0.6526 -0.6393  0.7805
  485MOL0     C65382   9.952   1.638   9.303 -0.1759  1.0329  1.0422
  485MOL0     C65383  10.017   1.512   9.249  0.1516 -0.1427  0.9908
  485MOL0    Cl65384  10.182   1.495   9.341  0.2146  0.2789  0.0728
  485MOL0     C65385   9.369   1.782   8.921  0.4482  0.7194 -0.9525
  485MOL0     C65386   9.268   1.688   8.870  0.0354  0.0644  0.4494
  485MOL0     O65387   9.229   1.278   8.977  0.0710  0.0529  0.7046
  485MOL0     C65388   8.952   1.317   8.752 -0.2605 -0.9141 -0.9083
  485MOL0     C65389   8.861   1.250   8.666  0.2448  0.5159  0.2699
  485MOL0     N65390   8.469   0.810   8.833 -0.1444  0.4337  0.5502
  485MOL0     N65391   8.372   0.888   8.848  0.1106 -0.6121 -0.9129
  485MOL0     C65392   8.022   1.726   9.420  0.8028 -0.2814  0.5914
  485MOL0     C65393   8.006   1.763   9.555  0.3515  0.0228 -0.5855
  485MOL0     C65394   7.877   1.970   9.925  0.4620  0.2337 -0.4674
  485MOL0     C65395   7.997   1.956   9.997  1.0362  0.5589 -0.3080
  485MOL0     C65396   8.006   1.962  10.135 -0.2842 -0.2500 -0.1820
  485MOL0     C65397   7.902   2.002  10.218  0.3581  0.3888  0.5218
  485MOL0     O65398   7.919   2.011  10.357 -0.3744  0.0618 -0.3853
  485MOL0     C65399   7.868   1.921  10.454  0.4301 -0.5043 -0.0557
  485MOL0     C65400   7.959   1.792  10.455 -0.0206 -0.1184  0.2846
  485MOL0     C65401   8.110   1.818  10.486  0.2395 -0.5308  0.2019
  485MOL0     C65402   8.174   1.689  10.544  0.7517  0.1776  0.1944
  485MOL0     C65403   8.134   1.672  10.683 -0.4327 -0.6743  0.2969
  485MOL0     C65404   8.106   1.644  10.796  0.2231 -0.0307 -0.3562
  485MOL0     C65405   7.781   2.021  10.154  0.4628  0.2659  0.1273
  485MOL0     C65406   7.763   2.011  10.009 -0.1805  0.0452 -0.2851
  485MOL0     C65407   7.619   2.032   9.958  0.5847  0.0981  0.4881
  485MOL0     H65408   8.018   2.089   9.509  2.6323 -0.4252  0.7305
  485MOL0     H65409   8.058   2.043   9.278  0.5796 -1.4951 -2.4392
  485MOL0     H65410   8.236   1.669   9.189  0.6637 -1.3808 -1.4874
  485MOL0     H65411   8.072   1.588   9.190 -0.4831 -0.9029 -0.5214
  485MOL0     H65412   8.178   1.758   8.962 -0.6681 -1.1492 -0.5242
  485MOL0     H65413   8.041   1.633   8.952 -2.0394  3.7209 -1.0546
  485MOL0     H65414   8.228   1.465   9.010 -1.7814  2.5421  3.6717
  485MOL0     H65415   8.352   1.578   9.003  0.7187  0.3613 -1.6474
  485MOL0     H65416   8.160   1.554   8.763 -0.2917  3.6904  1.9492
  485MOL0     H65417   8.300   1.654   8.790 -0.4284 -0.0890 -1.0948
  485MOL0     H65418   8.410   1.471   8.664 -0.7692 -0.8183 -1.5392
  485MOL0     H65419   8.418   1.428   8.839 -3.0358 -1.8685  1.5275
  485MOL0     H65420   8.184   1.320   8.810 -0.6634 -0.3685 -1.2077
  485MOL0     H65421   8.202   1.334   8.643  0.5161  1.8781 -0.1727
  485MOL0     H65422   8.436   1.209   8.696 -0.3219  0.7158  1.0838
  485MOL0     H65423   8.288   1.129   8.662  2.9228 -2.1035  0.7324
  485MOL0     H65424   8.354   1.191   8.956  0.2302 -2.0295  1.3483
  485MOL0     H65425   8.232   1.090   8.888  0.6456 -1.8216 -0.8490
  485MOL0     H65426   8.616   1.098   8.808 -0.6808 -0.3741 -0.8528
  485MOL0     H65427   8.792   0.885   8.758 -1.4619  2.1380 -0.0960
  485MOL0     H65428   8.730   0.715   8.797 -0.4554  0.0010 -0.1696
  485MOL0     H65429   8.642   0.694   8.578  1.4397  0.0108 -2.8643
  485MOL0     H65430   8.611   0.869   8.559  1.9110  1.1714  0.4430
  485MOL0     H65431   8.803   0.729   8.453 -1.9395 -2.7792  2.3508
  485MOL0     H65432   8.900   0.790   8.583 -0.2995 -4.1162  1.0582
  485MOL0     H65433   8.788   0.955   8.368 -0.0626 -1.7377  0.1274
  485MOL0     H65434   8.947   0.960   8.429 -0.4809 -2.0688 -0.0528
  485MOL0     H65435   9.043   0.960   8.638 -2.5000 -0.6556 -1.2785
  485MOL0     H65436   9.213   1.094   8.774  0.1429  0.0706  2.9289
  485MOL0     H65437   9.334   1.451   9.116  1.6778 -1.7398 -0.8432
  485MOL0     H65438   9.493   1.608   9.181 -0.7661 -0.5130  0.4340
  485MOL0     H65439   9.705   1.854   8.945  0.8828  0.4200  0.4576
  485MOL0     H65440   9.563   1.956   8.907 -1.2212  1.4991  0.1124
  485MOL0     H65441   9.719   2.112   8.999 -1.0517  0.5938 -1.2364
  485MOL0     H65442   9.626   2.058   9.150  1.2360  1.6778  0.1336
  485MOL0     H65443   9.897   1.950   9.057  0.7562 -0.7814  1.2782
  485MOL0     H65444   9.870   2.101   9.154 -0.7395  0.3044 -2.3721
  485MOL0     H65445   9.768   1.833   9.227  0.2569  1.7622 -2.8266
  485MOL0     H65446   9.770   1.965   9.339  1.1711  0.4852 -0.5637
  485MOL0     H65447   9.956   1.859   9.433 -0.9210 -2.6987 -1.7027
  485MOL0     H65448  10.024   1.979   9.316 -1.5592  1.2498 -2.4929
  485MOL0     H65449  10.029   1.779   9.142  2.1659 -1.7454  0.6297
  485MOL0     H65450  10.133   1.754   9.275 -0.4609  0.7468  0.8900
  485MOL0     H65451   9.854   1.637   9.256  0.3569 -0.1247 -0.1091
  485MOL0     H65452   9.944   1.616   9.410 -3.6158 -1.6349  0.4225
  485MOL0     H65453   9.950   1.427   9.266  0.2648 -0.4131  0.1538
  485MOL0     H65454  10.024   1.536   9.143 -1.1014 -2.8350  0.2145
  485MOL0     H65455   9.384   1.879   8.876  1.4349  0.4891 -1.1394
  485MOL0     H65456   9.205   1.692   8.782 -1.4309  1.6513  1.5105
  485MOL0     H65457   8.933   1.421   8.775  0.8477 -0.8075 -0.4058
  485MOL0     H65458   8.764   1.283   8.631 -0.4861  0.6875  2.3374
  485MOL0     H65459   8.036   1.619   9.403 -2.9617 -1.0290  1.2853
  485MOL0     H65460   8.007   1.681   9.627 -1.6902 -1.4955 -2.1469
  485MOL0     H65461   8.090   1.938   9.942  0.5357  2.0775 -1.7510
  485MOL0     H65462   8.101   1.942  10.183 -0.4678 -1.3192 -0.2393
  485MOL0     H65463   7.765   1.899  10.424 -0.4827  2.4734  0.5025
  485MOL0     H65464   7.865   1.968  10.553 -0.1624  0.0767 -0.3436
  485MOL0     H65465   7.946   1.747  10.356 -1.8405 -3.1000  1.7180
  485MOL0     H65466   7.921   1.723  10.532  0.5052  1.0800  1.6671
  485MOL0     H65467   8.110   1.897  10.562  0.7947  0.1783 -0.5152
  485MOL0     H65468   8.167   1.871  10.408 -2.7466 -1.4655 -2.8591
  485MOL0     H65469   8.137   1.601  10.490 -0.7293  0.5353  0.5843
  485MOL0     H65470   8.283   1.680  10.547  0.8108  1.0860  2.1401
  485MOL0     H65471   8.093   1.631  10.901  3.0647  1.1051  0.2092
  485MOL0     H65472   7.694   2.056  10.208 -0.8474  1.5448 -2.6187
  485MOL0     H65473   7.612   2.137   9.929  1.4615 -0.0845 -0.4414
  485MOL0     H65474   7.605   1.966   9.872 -1.7694  0.8596  0.2057
  485MOL0     H65475   7.533   2.008  10.022 -2.2431  3.3586 -1.7257
  486MOL0     O65476   1.243   7.684   0.345 -0.4184  0.1476  0.0479
  486MOL0     C65477   1.130   7.653   0.308 -0.5362  0.3166  0.2841
  486MOL0     O65478   1.062   7.704   0.202 -0.0962  0.7767 -0.2606
  486MOL0     C65479   1.123   7.792   0.116  0.3231  0.4745 -0.3493
  486MOL0     C65480   1.246   7.757   0.057 -1.1788 -1.1793 -0.2385
  486MOL0     C65481   1.302   7.824  -0.048  0.6346 -0.5206 -0.6847
  486MOL0     C65482   1.236   7.935  -0.102  0.1245  0.1829 -0.1093
  486MOL0     O65483   1.297   7.981  -0.216  0.1702  0.4421  0.1526
  486MOL0     C65484   1.219   8.076  -0.288 -0.3195 -0.5181  0.1510
  486MOL0     C65485   1.278   8.083  -0.421 -0.5210  0.7788  0.9481
  486MOL0     C65486   1.402   8.169  -0.440  0.8004  0.3782  0.7721
  486MOL0     C65487   1.540   8.121  -0.432  1.0940 -0.7454 -0.7373
  486MOL0     C65488   1.580   8.022  -0.546 -0.9420 -0.2960 -0.2353
  486MOL0     C65489   1.597   8.090  -0.686  0.5740  0.0497 -0.0190
  486MOL0     C65490   1.585   7.979  -0.792 -0.0313  0.6060 -0.3000
  486MOL0     C65491   1.579   8.035  -0.938 -0.6535  0.0548  0.9043
  486MOL0     N65492   1.697   8.071  -1.008 -0.9716  0.0973 -0.0711
  486MOL0     C65493   1.782   7.983  -1.062  0.1433 -0.4113  0.4819
  486MOL0     C65494   1.866   8.064  -1.130 -0.1525  1.0995  0.5692
  486MOL0     C65495   1.994   8.008  -1.202  0.3664 -0.3359 -0.3627
  486MOL0     C65496   2.100   7.966  -1.102 -0.0221 -0.5430 -0.9132
  486MOL0     C65497   2.222   7.892  -1.178  0.5988 -0.3054  0.2065
  486MOL0     C65498   2.336   7.878  -1.081  0.1294  0.3778  0.4087
  486MOL0     O65499   2.454   7.836  -1.158  0.0322  0.2705  0.4989
  486MOL0     C65500   2.552   7.763  -1.101  0.1959  0.1285 -0.8131
  486MOL0     C65501   2.687   7.767  -1.155  0.6234 -0.9134  0.8405
  486MOL0     C65502   2.795   7.689  -1.106  0.4230 -0.0775 -0.0575
  486MOL0     C65503   2.776   7.595  -1.007  0.3595 -0.4625  0.1945
  486MOL0     C65504   2.886   7.505  -0.955  0.8097 -0.4994  0.6465
  486MOL0     O65505   3.001   7.496  -1.032 -0.3550  0.6803 -0.1437
  486MOL0     C65506   3.081   7.392  -1.005  0.0649  0.3715  0.1534
  486MOL0     C65507   3.212   7.424  -0.969 -0.4750  0.5077 -0.3436
  486MOL0     C65508   3.294   7.329  -0.923 -0.1769  0.3684 -0.4865
  486MOL0     C65509   3.246   7.193  -0.925 -0.2031 -0.6431 -0.0638
  486MOL0     O65510   3.333   7.095  -0.890 -0.3284  0.2964  0.5912
  486MOL0     C65511   3.297   6.963  -0.884  0.8353  0.6032  0.0482
  486MOL0     C65512   3.416   6.874  -0.854  0.0986 -1.1549 -0.8114
  486MOL0     C65513   3.383   6.743  -0.777  0.5579 -0.4871  1.0149
  486MOL0     C65514   3.510   6.663  -0.783 -0.4857  0.5960  0.7452
  486MOL0     C65515   3.608   6.696  -0.677 -0.9606  0.2077 -0.5211
  486MOL0     C65516   3.710   6.589  -0.675 -0.5489 -0.2143  0.4626
  486MOL0     C65517   3.802   6.606  -0.554  0.2515  0.5012  0.1891
  486MOL0     C65518   3.942   6.563  -0.593  0.1903 -0.3061 -0.4617
  486MOL0    Cl65519   3.946   6.388  -0.641  0.5711  0.1864  0.0820
  486MOL0     C65520   3.117   7.158  -0.966 -0.0649 -0.2939 -0.4020
  486MOL0     C65521   3.033   7.258  -1.006 -0.0478  0.6645  0.5703
  486MOL0     O65522   2.851   7.435  -0.862  0.6081  0.1088 -0.3503
  486MOL0     C65523   2.638   7.578  -0.966 -0.1438  0.1970 -0.5952
  486MOL0     C65524   2.537   7.664  -1.014  0.2204  0.4335  0.5842
  486MOL0     N65525   1.821   8.195  -1.134  0.3551  0.4980  0.0836
  486MOL0     N65526   1.718   8.192  -1.060 -0.3873  0.4999  0.6176
  486MOL0     C65527   1.120   7.984  -0.032  0.7138  0.7047 -0.1559
  486MOL0     C65528   1.063   7.913   0.077 -0.0749 -0.4882  0.0714
  486MOL0     C65529   1.064   7.543   0.373 -0.1503 -0.2289  0.3905
  486MOL0     C65530   0.924   7.543   0.372  0.2876 -0.6943  1.4383
  486MOL0     C65531   0.843   7.449   0.441 -0.2549 -0.2090 -0.4483
  486MOL0     C65532   0.903   7.367   0.531  0.8547 -0.7317  0.0327
  486MOL0     O65533   0.847   7.279   0.607  0.5895 -0.0255 -0.1768
  486MOL0     C65534   0.702   7.280   0.632  0.1946 -0.5912 -0.6670
  486MOL0     C65535   0.646   7.173   0.723  0.5608 -0.2084  0.0195
  486MOL0     C65536   0.680   7.039   0.669  0.5867  0.1847  0.2929
  486MOL0     C65537   0.642   6.922   0.758 -0.3584  0.7636 -0.5354
  486MOL0     C65538   0.501   6.898   0.764 -0.5127  0.4073  0.2243
  486MOL0     C65539   0.380   6.869   0.783  0.0830 -0.3892 -0.2627
  486MOL0     C65540   1.039   7.369   0.536  0.3740  0.3018 -0.4856
  486MOL0     C65541   1.122   7.445   0.456  0.6117  0.1685  1.9368
  486MOL0     C65542   1.273   7.420   0.451 -0.0672 -0.3777  0.1645
  486MOL0     H65543   1.303   7.668   0.083  2.0575  1.1835  1.5426
  486MOL0     H65544   1.394   7.796  -0.098  0.5706 -1.6815 -0.1751
  486MOL0     H65545   1.112   8.052  -0.290 -0.2265 -1.0156  0.9223
  486MOL0     H65546   1.228   8.174  -0.240 -0.9330 -0.7782  0.8063
  486MOL0     H65547   1.199   8.107  -0.492 -2.3273 -0.3244  2.4940
  486MOL0     H65548   1.291   7.980  -0.455  0.1662  0.5642  1.8116
  486MOL0     H65549   1.403   8.243  -0.359  0.9162 -0.7101  1.8042
  486MOL0     H65550   1.393   8.220  -0.536  0.5881  2.9373  2.0691
  486MOL0     H65551   1.609   8.206  -0.429 -0.1785  0.3043  0.1468
  486MOL0     H65552   1.564   8.077  -0.335  4.0167 -0.8070 -1.3951
  486MOL0     H65553   1.682   7.991  -0.522 -0.1173  1.5895 -1.1097
  486MOL0     H65554   1.520   7.931  -0.555 -2.1622  0.2525  1.6953
  486MOL0     H65555   1.522   8.170  -0.688 -1.8191 -1.9215  2.5577
  486MOL0     H65556   1.691   8.146  -0.691  0.1785  0.7751  0.4176
  486MOL0     H65557   1.484   7.939  -0.780  0.4816 -0.5252  0.4211
  486MOL0     H65558   1.664   7.906  -0.776  1.3239  1.8447 -1.0919
  486MOL0     H65559   1.537   7.951  -0.993 -0.5309  0.1878  0.6051
  486MOL0     H65560   1.516   8.123  -0.951  1.2748  1.3565 -0.1335
  486MOL0     H65561   1.805   7.880  -1.036  1.1718 -0.4720 -0.5552
  486MOL0     H65562   1.975   7.926  -1.272  0.0966  0.2230 -0.9579
  486MOL0     H65563   2.044   8.080  -1.267  2.3701 -2.7666 -1.6994
  486MOL0     H65564   2.145   8.052  -1.053  2.0096 -0.8800 -2.0511
  486MOL0     H65565   2.063   7.896  -1.027 -1.9966  0.3513 -0.9974
  486MOL0     H65566   2.259   7.952  -1.262  0.7213  1.8962  1.7258
  486MOL0     H65567   2.194   7.792  -1.211 -0.2703  0.9599 -3.4331
  486MOL0     H65568   2.308   7.810  -1.000  1.9562 -0.4494  0.3952
  486MOL0     H65569   2.346   7.973  -1.027 -0.6366  0.6813  0.0426
  486MOL0     H65570   2.703   7.827  -1.244  3.9002 -0.3063  1.7011
  486MOL0     H65571   2.893   7.705  -1.149  1.1030 -0.7184  1.2189
  486MOL0     H65572   3.229   7.530  -0.956 -3.0383  1.0495 -0.9690
  486MOL0     H65573   3.391   7.354  -0.882  0.5713 -3.4469  0.4208
  486MOL0     H65574   3.225   6.950  -0.803  1.8011 -2.3519  0.5565
  486MOL0     H65575   3.254   6.919  -0.975  3.5273 -1.8573 -0.1524
  486MOL0     H65576   3.473   6.856  -0.945 -2.2224 -4.6529 -1.7783
  486MOL0     H65577   3.480   6.937  -0.791  0.7477 -2.7799  0.2225
  486MOL0     H65578   3.355   6.764  -0.673  2.4045  0.9722  1.2637
  486MOL0     H65579   3.292   6.718  -0.833  1.2212  0.7733 -0.7173
  486MOL0     H65580   3.558   6.665  -0.881 -0.8800  2.2220  0.5679
  486MOL0     H65581   3.473   6.560  -0.772 -4.6342  1.7587 -0.4301
  486MOL0     H65582   3.559   6.706  -0.580  2.9511 -0.1271  1.7098
  486MOL0     H65583   3.651   6.794  -0.701 -1.8832  0.2300 -2.2781
  486MOL0     H65584   3.679   6.484  -0.666  1.5297 -1.1542 -1.9469
  486MOL0     H65585   3.765   6.592  -0.770  0.1190 -0.1885  0.8371
  486MOL0     H65586   3.774   6.544  -0.468 -1.0365  1.0048  0.1585
  486MOL0     H65587   3.807   6.711  -0.524 -2.7563  0.4987  1.1069
  486MOL0     H65588   3.966   6.633  -0.674 -3.6022  0.1974 -1.3665
  486MOL0     H65589   4.010   6.573  -0.508 -0.2067  3.9933 -0.4324
  486MOL0     H65590   3.063   7.064  -0.963 -1.0859  0.3099  1.2712
  486MOL0     H65591   2.935   7.221  -1.036 -0.1878 -1.7644  3.4523
  486MOL0     H65592   2.603   7.508  -0.889 -1.6485  1.6104  0.0740
  486MOL0     H65593   2.434   7.640  -0.991  0.0844  1.2568  0.8691
  486MOL0     H65594   1.068   8.077  -0.055  0.2996  0.5480  0.1343
  486MOL0     H65595   0.971   7.942   0.127 -0.0963  0.4329 -0.4906
  486MOL0     H65596   0.866   7.626   0.334  1.7763 -0.9865 -1.8301
  486MOL0     H65597   0.734   7.455   0.436 -0.2735 -0.3049 -0.2031
  486MOL0     H65598   0.642   7.266   0.542  1.2119 -2.9140 -1.0314
  486MOL0     H65599   0.678   7.373   0.686  3.4766 -0.7376  1.2945
  486MOL0     H65600   0.538   7.184   0.725  0.4477 -0.4553 -2.0538
  486MOL0     H65601   0.694   7.187   0.820 -3.1803  2.3660  1.7264
  486MOL0     H65602   0.788   7.037   0.652  0.3832 -0.5769 -1.1388
  486MOL0     H65603   0.627   7.044   0.573 -0.8785  2.4380  1.1424
  486MOL0     H65604   0.682   6.824   0.731 -0.2272 -0.7886  4.3262
  486MOL0     H65605   0.664   6.941   0.864 -0.3292  1.1118 -0.6021
  486MOL0     H65606   0.274   6.851   0.791  0.4967 -2.3177  1.4950
  486MOL0     H65607   1.089   7.298   0.600 -2.1255  1.6857  3.3409
  486MOL0     H65608   1.319   7.459   0.360 -0.7126  1.5137  0.5904
  486MOL0     H65609   1.331   7.466   0.532  1.4236  0.2079 -1.2031
  486MOL0     H65610   1.280   7.311   0.446 -3.1647 -0.6250 -0.9572
  487MOL0     O65611   7.056   6.773   2.227 -0.6714  0.4537  0.1450
  487MOL0     C65612   7.067   6.821   2.116 -1.0261  0.3542  0.9493
  487MOL0     O65613   7.101   6.753   1.996 -0.1092  0.2511 -0.1155
  487MOL0     C65614   7.123   6.619   2.003  0.4688 -0.0666 -0.3332
  487MOL0     C65615   7.043   6.534   1.923  0.5603 -0.5314 -0.7323
  487MOL0     C65616   7.059   6.393   1.927  0.1338 -0.3717  0.5005
  487MOL0     C65617   7.155   6.337   2.005 -0.6466 -0.4594 -0.3920
  487MOL0     O65618   7.146   6.197   1.997 -0.0327  0.1189 -0.5144
  487MOL0     C65619   7.217   6.117   2.093 -0.3387  0.2858  0.0163
  487MOL0     C65620   7.163   6.135   2.233  1.3812  0.1572  0.8440
  487MOL0     C65621   7.022   6.096   2.249  0.0223  1.0964 -1.2788
  487MOL0     C65622   7.006   5.942   2.251 -0.4726  0.2758  0.0622
  487MOL0     C65623   6.863   5.898   2.238  0.0689  0.0598  0.1545
  487MOL0     C65624   6.808   5.889   2.374  0.4723 -0.2806 -0.0633
  487MOL0     C65625   6.660   5.838   2.365  1.0629 -0.3086  0.0586
  487MOL0     C65626   6.629   5.695   2.324 -0.5394  0.4295  0.3521
  487MOL0     N65627   6.717   5.597   2.390 -0.0501 -0.1824  0.0612
  487MOL0     C65628   6.717   5.577   2.524  0.8269  0.3209 -0.4537
  487MOL0     C65629   6.827   5.501   2.556  0.1212 -0.2880 -0.7687
  487MOL0     C65630   6.892   5.466   2.691  0.4446  1.1607 -0.1560
  487MOL0     C65631   6.899   5.308   2.709  0.3383 -0.7246  0.2099
  487MOL0     C65632   6.973   5.287   2.838 -0.6381 -0.0201 -0.2013
  487MOL0     C65633   7.013   5.136   2.839  0.0347  0.3764  0.9747
  487MOL0     O65634   6.892   5.059   2.804 -0.6069 -0.4844  0.0735
  487MOL0     C65635   6.909   4.922   2.785  0.7711  0.6431  0.9522
  487MOL0     C65636   6.960   4.835   2.874 -0.4281  0.1554 -0.9430
  487MOL0     C65637   6.970   4.699   2.849 -0.7366  1.0295  0.2687
  487MOL0     C65638   6.926   4.645   2.730  0.7721  0.0560 -0.1621
  487MOL0     C65639   6.928   4.497   2.705 -0.0179 -0.7344 -0.3141
  487MOL0     O65640   6.889   4.431   2.815  0.9707  0.2767 -0.4765
  487MOL0     C65641   6.891   4.299   2.824 -0.4244  1.0120  0.1181
  487MOL0     C65642   6.784   4.232   2.763  0.2613 -0.2783 -0.1838
  487MOL0     C65643   6.776   4.092   2.779  0.5107 -0.2094  0.6072
  487MOL0     C65644   6.871   4.027   2.855  0.5852 -0.4593 -0.9158
  487MOL0     O65645   6.852   3.898   2.877  0.2328 -0.4476 -0.1905
  487MOL0     C65646   6.971   3.813   2.897  0.6778 -1.2062 -0.0196
  487MOL0     C65647   6.944   3.661   2.888  1.3633 -0.1335 -0.6247
  487MOL0     C65648   6.827   3.613   2.980  1.1822  0.0784  0.6815
  487MOL0     C65649   6.683   3.625   2.927  0.3774 -0.0904 -0.1188
  487MOL0     C65650   6.650   3.530   2.823  0.2225 -0.6030  0.4124
  487MOL0     C65651   6.504   3.519   2.770  0.6540  0.6999  0.4728
  487MOL0     C65652   6.468   3.647   2.698  0.2103 -0.7884  0.1209
  487MOL0     C65653   6.315   3.674   2.698 -0.2571  0.0728  0.7188
  487MOL0    Cl65654   6.309   3.821   2.592  0.2255  0.2844 -0.4522
  487MOL0     C65655   6.979   4.099   2.910  0.1149 -0.1145 -0.0644
  487MOL0     C65656   6.985   4.238   2.890 -1.0420  0.6125 -0.0994
  487MOL0     O65657   6.966   4.449   2.598 -0.0283  0.3122  0.7288
  487MOL0     C65658   6.888   4.731   2.630  0.2530  0.0408 -0.1315
  487MOL0     C65659   6.873   4.871   2.661 -0.7366  0.3680 -0.5157
  487MOL0     N65660   6.883   5.461   2.441 -0.7376 -0.5109 -0.1888
  487MOL0     N65661   6.823   5.528   2.348 -0.2521  1.5519 -0.2137
  487MOL0     C65662   7.226   6.420   2.090 -1.7018  0.0225 -0.1119
  487MOL0     C65663   7.215   6.563   2.088  0.3480  0.4543 -0.6422
  487MOL0     C65664   7.051   6.967   2.105  0.4092  0.4519  0.2437
  487MOL0     C65665   7.090   7.021   1.981  0.2076  0.1106  0.4803
  487MOL0     C65666   7.076   7.155   1.954  0.2977 -0.5066  0.4034
  487MOL0     C65667   7.035   7.242   2.047  0.0477 -0.4472  0.5323
  487MOL0     O65668   7.045   7.370   2.013  0.7724 -1.0447  0.3385
  487MOL0     C65669   6.944   7.458   2.053  0.0842 -0.4159 -0.4994
  487MOL0     C65670   6.916   7.583   1.959 -0.3068 -0.9545 -0.3652
  487MOL0     C65671   6.778   7.640   1.967  0.3313  0.2683 -0.2982
  487MOL0     C65672   6.766   7.719   2.096 -0.7635  0.3706  0.6330
  487MOL0     C65673   6.752   7.641   2.220  0.1233  0.1676  0.4597
  487MOL0     C65674   6.739   7.558   2.304  0.7097 -0.4048  0.4810
  487MOL0     C65675   6.985   7.198   2.170  0.1988 -0.1368  0.1405
  487MOL0     C65676   6.985   7.059   2.197  0.6139 -0.4775  0.2104
  487MOL0     C65677   6.913   7.017   2.318 -0.0989  0.7019 -0.3138
  487MOL0     H65678   6.962   6.566   1.858  2.1067  0.2606 -2.3490
  487MOL0     H65679   7.002   6.325   1.864 -0.8165 -0.1221  1.0688
  487MOL0     H65680   7.213   6.016   2.051 -1.7869 -0.6228  2.0875
  487MOL0     H65681   7.323   6.134   2.077 -0.0033 -0.5590  1.2010
  487MOL0     H65682   7.164   6.238   2.272  2.2530  0.4796  0.0129
  487MOL0     H65683   7.237   6.079   2.291  2.0498 -0.1492 -0.2695
  487MOL0     H65684   6.954   6.145   2.179 -1.6281 -0.6090 -0.9557
  487MOL0     H65685   6.995   6.136   2.347  2.3429  1.9461 -0.9340
  487MOL0     H65686   7.051   5.897   2.162 -0.6714  1.1971 -0.5160
  487MOL0     H65687   7.061   5.896   2.334 -1.4242  0.4554  0.8109
  487MOL0     H65688   6.808   5.965   2.171  0.6294 -0.8957 -1.3167
  487MOL0     H65689   6.846   5.799   2.195 -1.8153  0.5862 -0.3878
  487MOL0     H65690   6.856   5.824   2.447 -1.2341 -1.2570  0.2351
  487MOL0     H65691   6.807   5.991   2.415  0.5133 -0.4208  0.2894
  487MOL0     H65692   6.596   5.905   2.307 -0.5996 -2.3993 -0.6553
  487MOL0     H65693   6.613   5.857   2.462  1.0515 -1.8675  0.3891
  487MOL0     H65694   6.529   5.665   2.354 -0.1320 -4.8243 -2.4998
  487MOL0     H65695   6.648   5.683   2.217  0.6361  2.1924  0.3180
  487MOL0     H65696   6.656   5.634   2.593 -1.0362  1.2832 -2.7354
  487MOL0     H65697   6.996   5.498   2.686  1.4354 -1.1475  2.6209
  487MOL0     H65698   6.837   5.501   2.780 -0.5295 -0.4326 -0.0878
  487MOL0     H65699   6.801   5.259   2.712  0.5880 -1.4059 -1.5941
  487MOL0     H65700   6.957   5.259   2.630 -0.8113 -2.5614  0.4491
  487MOL0     H65701   6.926   5.316   2.933  2.0309 -1.6936  1.7618
  487MOL0     H65702   7.053   5.361   2.826 -0.8518  0.1390 -0.6810
  487MOL0     H65703   7.056   5.104   2.935  0.4209 -0.0871  0.6487
  487MOL0     H65704   7.092   5.124   2.764 -1.4184  2.2451 -0.9483
  487MOL0     H65705   7.001   4.872   2.968 -3.6530  2.2199 -0.2222
  487MOL0     H65706   7.025   4.638   2.919  1.6456 -1.5935 -3.5362
  487MOL0     H65707   6.717   4.289   2.699  0.9428  0.9637  0.1595
  487MOL0     H65708   6.692   4.035   2.741  0.3454  0.7480 -0.4929
  487MOL0     H65709   7.048   3.838   2.824  0.6597  2.0818  0.9054
  487MOL0     H65710   7.018   3.845   2.990 -2.0305 -2.0416  1.7497
  487MOL0     H65711   6.919   3.641   2.784  1.2437 -1.7629 -0.3156
  487MOL0     H65712   7.038   3.610   2.912 -0.1798 -1.7384  2.6038
  487MOL0     H65713   6.841   3.507   3.002 -0.2297  0.1487  2.1397
  487MOL0     H65714   6.843   3.671   3.071 -2.7756 -0.6513  2.0374
  487MOL0     H65715   6.663   3.722   2.881  1.1183 -0.6574 -1.7241
  487MOL0     H65716   6.610   3.625   3.008  0.9235  1.7804  0.4130
  487MOL0     H65717   6.653   3.436   2.878 -1.3549 -0.2731  1.1349
  487MOL0     H65718   6.725   3.529   2.744  0.1033  1.1385  0.2393
  487MOL0     H65719   6.490   3.435   2.700  0.3556  0.2377  1.0855
  487MOL0     H65720   6.432   3.510   2.851 -2.5234 -2.4009 -2.3661
  487MOL0     H65721   6.507   3.647   2.596 -1.3361 -1.2815 -0.5080
  487MOL0     H65722   6.498   3.743   2.739  0.9866 -0.9612 -0.0340
  487MOL0     H65723   6.254   3.595   2.653 -2.6651 -0.1380  3.9619
  487MOL0     H65724   6.261   3.687   2.792 -3.1588 -0.8781 -0.6960
  487MOL0     H65725   7.049   4.059   2.983  0.9787 -1.9156 -1.8107
  487MOL0     H65726   7.062   4.299   2.938 -1.1247  0.6593 -0.0244
  487MOL0     H65727   6.846   4.678   2.545 -2.9734  3.9565 -1.3414
  487MOL0     H65728   6.843   4.939   2.582  0.8746 -1.9332 -3.3103
  487MOL0     H65729   7.299   6.371   2.155  0.9778  3.8105  0.0609
  487MOL0     H65730   7.284   6.632   2.136  0.3434  1.6658 -2.2874
  487MOL0     H65731   7.143   6.955   1.913  1.6133  2.0869 -0.4186
  487MOL0     H65732   7.109   7.201   1.861 -1.6563  7.1046  2.7949
  487MOL0     H65733   6.983   7.498   2.147  2.0430 -1.2889 -0.8985
  487MOL0     H65734   6.849   7.412   2.080 -0.2194  2.4532  4.6083
  487MOL0     H65735   6.929   7.559   1.853  0.3553  1.9777 -1.0301
  487MOL0     H65736   6.983   7.665   1.988 -1.4128 -0.5425  1.1466
  487MOL0     H65737   6.708   7.562   1.934  0.5524  1.1678 -3.1366
  487MOL0     H65738   6.771   7.705   1.880  0.0875 -0.4662 -0.8362
  487MOL0     H65739   6.856   7.777   2.119  0.0310 -1.8039  3.6107
  487MOL0     H65740   6.687   7.791   2.074  1.5825  2.7001 -0.7719
  487MOL0     H65741   6.736   7.487   2.385 -3.8712  1.1666  2.0363
  487MOL0     H65742   6.953   7.269   2.246  1.1571 -0.1350  0.5478
  487MOL0     H65743   6.860   7.103   2.360  2.6185  2.0088  0.6855
  487MOL0     H65744   6.854   6.927   2.297 -1.9725  1.2443  2.1327
  487MOL0     H65745   6.983   6.993   2.398  0.4041  2.8823 -0.0521
  488MOL0     O65746   3.591   7.866   5.567  0.6581  0.0709  0.9124
  488MOL0     C65747   3.590   7.746   5.590  0.6456  0.1117 -0.1807
  488MOL0     O65748   3.616   7.655   5.492  0.0730  0.7805 -0.2678
  488MOL0     C65749   3.666   7.687   5.368 -0.5573  0.3087 -0.3516
  488MOL0     C65750   3.588   7.714   5.258  0.1457 -0.0317 -0.4933
  488MOL0     C65751   3.649   7.741   5.139 -0.4529 -0.2067  0.5309
  488MOL0     C65752   3.785   7.742   5.116  0.5874 -0.8387 -0.6898
  488MOL0     O65753   3.841   7.738   4.985  0.8817  0.2903 -0.2308
  488MOL0     C65754   3.766   7.680   4.871 -0.9713 -0.7494 -0.0941
  488MOL0     C65755   3.735   7.527   4.881 -0.3242  0.3300 -0.3046
  488MOL0     C65756   3.860   7.440   4.856  0.8147  0.3694 -0.8368
  488MOL0     C65757   3.829   7.302   4.795 -0.0328 -0.4171 -0.1321
  488MOL0     C65758   3.783   7.206   4.905 -0.4113 -0.4781  0.9186
  488MOL0     C65759   3.754   7.069   4.848 -0.1445 -0.3058 -0.0038
  488MOL0     C65760   3.739   6.972   4.961  0.9628  0.4102  0.2859
  488MOL0     C65761   3.664   6.849   4.912  0.6272  0.9005  0.6725
  488MOL0     N65762   3.539   6.878   4.844 -0.1546  0.3046  0.4493
  488MOL0     C65763   3.443   6.964   4.905 -0.3570 -0.0482 -0.8152
  488MOL0     C65764   3.335   6.941   4.835 -1.5054  0.2780  0.4882
  488MOL0     C65765   3.199   6.994   4.854 -0.7422  0.1209 -0.5436
  488MOL0     C65766   3.107   6.907   4.938  0.1780  0.3667 -0.1876
  488MOL0     C65767   3.048   6.792   4.863  0.4723  0.7010 -0.4275
  488MOL0     C65768   2.951   6.723   4.960 -0.7288 -0.4066  1.3009
  488MOL0     O65769   2.872   6.631   4.881 -0.1506 -0.3368 -0.9327
  488MOL0     C65770   2.877   6.507   4.938  0.6365 -0.6883  0.1152
  488MOL0     C65771   2.769   6.455   5.004 -0.0765  0.1443 -0.0631
  488MOL0     C65772   2.762   6.317   5.032  0.0938  0.0655  0.1504
  488MOL0     C65773   2.882   6.237   5.023  0.2574 -0.4329 -0.3394
  488MOL0     C65774   2.895   6.100   5.084 -0.7520 -0.7648  1.4649
  488MOL0     O65775   2.771   6.037   5.114  0.3740  0.0549  0.3219
  488MOL0     C65776   2.788   5.908   5.148  0.3528 -0.1358  0.2727
  488MOL0     C65777   2.808   5.817   5.047  0.1535 -0.8828  0.1192
  488MOL0     C65778   2.829   5.687   5.079  0.3583 -0.8830  0.4965
  488MOL0     C65779   2.827   5.645   5.207 -0.1049 -0.9138  0.7598
  488MOL0     O65780   2.850   5.513   5.236  0.2812  0.3080  0.2973
  488MOL0     C65781   2.768   5.449   5.339  0.2393  0.3015  0.7631
  488MOL0     C65782   2.710   5.320   5.275  0.7376 -0.0099  0.0937
  488MOL0     C65783   2.655   5.215   5.388 -0.0326 -0.2597  0.4034
  488MOL0     C65784   2.530   5.251   5.465  0.5596  0.2916  0.5703
  488MOL0     C65785   2.525   5.150   5.580  0.4303 -0.1129 -0.5412
  488MOL0     C65786   2.397   5.180   5.664 -0.2728 -1.0939  0.2458
  488MOL0     C65787   2.393   5.327   5.716  0.3823  0.9412  0.2647
  488MOL0     C65788   2.300   5.331   5.849  0.0640 -0.9161  0.4962
  488MOL0    Cl65789   2.135   5.269   5.805 -0.3118 -0.7331  0.2761
  488MOL0     C65790   2.812   5.738   5.304 -0.6806 -0.0688 -0.2429
  488MOL0     C65791   2.787   5.873   5.279 -1.2434 -0.7114 -0.5047
  488MOL0     O65792   3.005   6.053   5.089  0.4555  0.0988  0.6421
  488MOL0     C65793   2.994   6.296   4.954  0.0773  0.4894  0.2714
  488MOL0     C65794   2.982   6.428   4.908 -0.1317  0.1555 -0.3035
  488MOL0     N65795   3.373   6.844   4.738 -0.5858  0.3945 -0.3438
  488MOL0     N65796   3.490   6.808   4.749 -1.2496 -0.2207 -0.2403
  488MOL0     C65797   3.861   7.718   5.225 -0.7950  0.3268 -1.3818
  488MOL0     C65798   3.809   7.696   5.356  0.9171 -0.4515  0.0219
  488MOL0     C65799   3.564   7.703   5.729  0.0829  0.0598  0.6886
  488MOL0     C65800   3.591   7.794   5.825 -0.5356  0.1675 -0.7920
  488MOL0     C65801   3.555   7.767   5.959 -0.5822  0.1989 -0.0591
  488MOL0     C65802   3.499   7.645   5.997  0.2184  1.0554  0.4505
  488MOL0     O65803   3.468   7.607   6.129  0.1038 -0.2000  1.0693
  488MOL0     C65804   3.581   7.609   6.217  0.3015  0.6657  1.1030
  488MOL0     C65805   3.586   7.733   6.308  0.0027 -0.4051 -0.9131
  488MOL0     C65806   3.520   7.734   6.447  0.1460  0.6686 -0.4635
  488MOL0     C65807   3.535   7.612   6.540  0.3713 -0.9483  0.2994
  488MOL0     C65808   3.674   7.599   6.573 -0.4195 -0.0709  0.4507
  488MOL0     C65809   3.789   7.570   6.611 -0.3930 -0.0698  1.1074
  488MOL0     C65810   3.491   7.547   5.898  0.4850  0.4258 -0.4071
  488MOL0     C65811   3.526   7.567   5.766 -0.1640 -0.7293  0.0029
  488MOL0     C65812   3.501   7.450   5.670 -0.6673 -0.2931  0.5513
  488MOL0     H65813   3.481   7.709   5.272 -0.0472  3.9500  0.5199
  488MOL0     H65814   3.591   7.760   5.049  0.8416 -0.9955 -0.5040
  488MOL0     H65815   3.670   7.732   4.860 -1.0573 -0.8312  0.2454
  488MOL0     H65816   3.811   7.715   4.777 -1.4300  0.0141 -0.0411
  488MOL0     H65817   3.667   7.492   4.803  2.7627 -1.5010 -2.3745
  488MOL0     H65818   3.696   7.512   4.982 -2.3910  4.8324 -0.1818
  488MOL0     H65819   3.915   7.426   4.949  0.4971  1.1908 -0.5176
  488MOL0     H65820   3.925   7.501   4.794  0.2443  1.4856 -0.3681
  488MOL0     H65821   3.774   7.308   4.700  2.8935  1.9209 -1.8829
  488MOL0     H65822   3.932   7.268   4.782 -0.1438 -0.4290 -1.0441
  488MOL0     H65823   3.871   7.202   4.970  1.4085  0.0202 -1.4183
  488MOL0     H65824   3.695   7.230   4.966  0.2549 -0.1690  1.7908
  488MOL0     H65825   3.660   7.067   4.791  0.6021 -1.4396 -1.2639
  488MOL0     H65826   3.824   7.025   4.777 -1.5681  0.9330 -2.3363
  488MOL0     H65827   3.689   7.013   5.050  0.6247  0.3676  0.1193
  488MOL0     H65828   3.838   6.941   4.994  2.3886  0.4685 -3.4836
  488MOL0     H65829   3.729   6.797   4.841  0.0606  1.2674 -0.1360
  488MOL0     H65830   3.646   6.783   4.998  0.3771 -2.6867 -1.8932
  488MOL0     H65831   3.468   7.038   4.981 -2.0035  1.8533 -2.0024
  488MOL0     H65832   3.197   7.092   4.902  1.7820 -0.7895  1.7243
  488MOL0     H65833   3.168   6.993   4.750 -0.5985 -4.6942 -0.7773
  488MOL0     H65834   3.163   6.873   5.025 -2.4974  0.4459  1.7031
  488MOL0     H65835   3.027   6.975   4.971  2.8516  3.1210  1.0729
  488MOL0     H65836   3.126   6.722   4.831  0.4361  1.1873 -1.6321
  488MOL0     H65837   2.996   6.820   4.772  0.7894  1.7847 -0.2989
  488MOL0     H65838   2.886   6.798   5.007  1.4791  2.1962  0.4459
  488MOL0     H65839   3.020   6.685   5.037  2.0039  3.3774  1.0076
  488MOL0     H65840   2.678   6.509   5.029 -0.4130 -0.4454 -0.0026
  488MOL0     H65841   2.674   6.271   5.075 -2.1147  2.3292 -1.6116
  488MOL0     H65842   2.812   5.857   4.946 -2.7141  0.0727  0.2920
  488MOL0     H65843   2.845   5.611   5.004  0.2015  0.7341 -1.2643
  488MOL0     H65844   2.827   5.426   5.428  1.3263 -1.6190 -0.3989
  488MOL0     H65845   2.680   5.508   5.368  1.0340  1.3219  1.1583
  488MOL0     H65846   2.630   5.362   5.214  0.4524  1.1358  1.2019
  488MOL0     H65847   2.788   5.271   5.216  0.3490 -0.3440 -0.1456
  488MOL0     H65848   2.620   5.121   5.345  0.1604 -0.6684  1.1281
  488MOL0     H65849   2.740   5.193   5.454 -0.3262  1.4101  1.3948
  488MOL0     H65850   2.444   5.263   5.399  1.4649 -2.3765 -1.2817
  488MOL0     H65851   2.551   5.347   5.513 -0.3043  1.3190 -1.0655
  488MOL0     H65852   2.615   5.147   5.643 -0.6291 -2.3486  0.9764
  488MOL0     H65853   2.507   5.050   5.540 -2.5069  0.0340  0.2114
  488MOL0     H65854   2.309   5.151   5.604  0.4498 -2.2782 -0.2762
  488MOL0     H65855   2.396   5.108   5.746 -1.4159  1.1766  2.3762
  488MOL0     H65856   2.367   5.402   5.640 -0.7019 -0.2065 -0.5390
  488MOL0     H65857   2.499   5.334   5.739  1.2118 -3.2166 -1.3393
  488MOL0     H65858   2.341   5.273   5.932  2.0095 -1.4487 -0.7873
  488MOL0     H65859   2.288   5.436   5.878  0.7231 -0.5837 -0.3857
  488MOL0     H65860   2.828   5.694   5.402  0.1215  1.0002  0.1214
  488MOL0     H65861   2.768   5.943   5.359 -0.1176 -1.1590  0.1636
  488MOL0     H65862   3.090   6.255   4.927 -0.3946 -0.5401  0.1137
  488MOL0     H65863   3.064   6.458   4.844 -0.4910  1.9453  0.0028
  488MOL0     H65864   3.969   7.726   5.233 -0.9693  1.9200  0.4105
  488MOL0     H65865   3.876   7.669   5.437  0.6094  0.6907  0.6881
  488MOL0     H65866   3.632   7.893   5.811  0.8984 -0.1675  0.7261
  488MOL0     H65867   3.563   7.845   6.035 -1.3280 -1.2704  1.6021
  488MOL0     H65868   3.675   7.592   6.163 -1.0213 -3.7278 -0.2090
  488MOL0     H65869   3.570   7.526   6.287  0.6516 -2.0343 -1.8256
  488MOL0     H65870   3.536   7.809   6.247 -1.7079 -0.0649  0.7976
  488MOL0     H65871   3.686   7.773   6.324 -0.1222  0.0284 -1.2104
  488MOL0     H65872   3.412   7.732   6.427  0.5932 -1.7797 -3.6080
  488MOL0     H65873   3.536   7.826   6.503  1.4128 -0.6365  1.4284
  488MOL0     H65874   3.486   7.626   6.637  1.5047  1.6996  0.5659
  488MOL0     H65875   3.485   7.525   6.495 -0.1444  0.4649 -1.9891
  488MOL0     H65876   3.878   7.533   6.658  2.1620  2.6319 -1.2547
  488MOL0     H65877   3.450   7.452   5.929  2.1915  0.4001  2.0483
  488MOL0     H65878   3.583   7.378   5.675  1.4551  1.6981 -2.3340
  488MOL0     H65879   3.401   7.416   5.699 -0.3628 -0.3671  1.5752
  488MOL0     H65880   3.485   7.479   5.566  0.7105 -3.2091 -0.5751
  489MOL0     O65881   9.646   3.604   7.915  0.1283 -0.0507 -0.5325
  489MOL0     C65882   9.593   3.699   7.974  0.3242  0.6777 -0.2244
  489MOL0     O65883   9.588   3.826   7.928 -0.6152  0.3259  0.6587
  489MOL0     C65884   9.634   3.854   7.801 -0.4520 -0.6846 -0.3996
  489MOL0     C65885   9.569   3.801   7.689  0.1934  0.3084 -0.2546
  489MOL0     C65886   9.604   3.828   7.560  0.1808  1.5332 -0.4601
  489MOL0     C65887   9.706   3.914   7.536 -0.2982  0.9108 -0.1272
  489MOL0     O65888   9.758   3.944   7.415 -0.1269  0.3020  0.7524
  489MOL0     C65889   9.710   3.880   7.293 -0.4921 -0.2572 -0.4642
  489MOL0     C65890   9.736   3.982   7.180  0.1554 -0.2933 -0.5709
  489MOL0     C65891   9.615   4.077   7.164  0.3460 -0.3523  0.3900
  489MOL0     C65892   9.609   4.137   7.022 -0.1323  1.3260 -0.4675
  489MOL0     C65893   9.489   4.234   7.003 -0.3035  0.7880  0.3343
  489MOL0     C65894   9.496   4.364   7.081  0.2006  0.5245 -0.3417
  489MOL0     C65895   9.524   4.478   6.985 -1.1355 -0.5896 -0.4100
  489MOL0     C65896   9.663   4.466   6.915  0.5171  0.3760 -0.4153
  489MOL0     N65897   9.706   4.600   6.869  0.5412 -0.0191  0.4691
  489MOL0     C65898   9.629   4.705   6.822  0.2026  0.7960 -0.8618
  489MOL0     C65899   9.724   4.809   6.817  0.3077  1.1418  0.3181
  489MOL0     C65900   9.710   4.958   6.794  0.5280  0.8989  0.4362
  489MOL0     C65901   9.816   5.017   6.693  0.2051 -0.4497 -0.1936
  489MOL0     C65902   9.792   5.169   6.655  0.0239 -0.1433 -0.6553
  489MOL0     C65903   9.873   5.201   6.531  0.8808  0.2289  1.0454
  489MOL0     O65904  10.014   5.158   6.523  0.8693 -0.2580 -0.0251
  489MOL0     C65905  10.076   5.162   6.402  0.5594 -1.0682 -0.1591
  489MOL0     C65906  10.115   5.283   6.339  0.4099 -1.0358 -0.4813
  489MOL0     C65907  10.179   5.285   6.217  0.8379  0.9558  0.4625
  489MOL0     C65908  10.214   5.156   6.160  0.5772 -0.5435  0.7724
  489MOL0     C65909  10.291   5.155   6.035  0.2136 -1.1731 -0.4687
  489MOL0     O65910  10.354   5.283   6.018  0.0709 -0.2534 -0.2826
  489MOL0     C65911  10.417   5.330   5.900  0.4330 -0.3423  0.2488
  489MOL0     C65912  10.437   5.264   5.781 -0.3995  0.2140  0.1171
  489MOL0     C65913  10.490   5.323   5.669 -0.9667 -0.0576 -0.3996
  489MOL0     C65914  10.548   5.452   5.672  1.1077  0.9581 -0.1715
  489MOL0     O65915  10.586   5.527   5.560 -0.8106  0.0159 -0.1730
  489MOL0     C65916  10.582   5.465   5.436  0.9960  0.0315 -0.4362
  489MOL0     C65917  10.590   5.571   5.332 -0.5147 -0.5968  0.1919
  489MOL0     C65918  10.461   5.612   5.261 -0.4070  0.3413  0.1062
  489MOL0     C65919  10.373   5.705   5.340 -0.0728  0.8926 -0.0968
  489MOL0     C65920  10.276   5.780   5.250 -0.0160 -0.2183  0.1202
  489MOL0     C65921  10.176   5.859   5.333 -0.7830 -0.3782  0.1079
  489MOL0     C65922  10.083   5.948   5.237 -0.0381  0.2805 -0.1249
  489MOL0     C65923  10.002   6.057   5.314  0.5211 -0.6358  0.4193
  489MOL0    Cl65924   9.889   6.131   5.194 -0.6229 -0.5380  0.0532
  489MOL0     C65925  10.522   5.527   5.786 -0.0719  0.0628 -0.4353
  489MOL0     C65926  10.472   5.459   5.897 -0.0328 -0.6076 -0.4338
  489MOL0     O65927  10.297   5.059   5.961  0.2205 -0.5218  0.1093
  489MOL0     C65928  10.187   5.039   6.227  0.8501  0.5754  0.5421
  489MOL0     C65929  10.114   5.042   6.348 -0.2301  0.2750  0.1425
  489MOL0     N65930   9.854   4.764   6.848  0.9699 -0.0829  0.2980
  489MOL0     N65931   9.835   4.641   6.883  0.1453  0.3348 -0.3736
  489MOL0     C65932   9.776   3.970   7.644  0.5029  0.1812 -0.3922
  489MOL0     C65933   9.742   3.938   7.776  0.1759  0.7416 -0.9360
  489MOL0     C65934   9.527   3.674   8.104 -0.6955 -0.6648  0.3069
  489MOL0     C65935   9.456   3.777   8.156  0.6049  0.3606  0.1812
  489MOL0     C65936   9.389   3.763   8.276  0.3695  0.2905 -0.1602
  489MOL0     C65937   9.390   3.657   8.371 -0.2725 -0.2995 -0.7391
  489MOL0     O65938   9.329   3.662   8.497 -0.2581 -0.4620 -0.4246
  489MOL0     C65939   9.348   3.790   8.577 -0.7407  1.6244 -1.0435
  489MOL0     C65940   9.239   3.760   8.687  0.2622  0.9640  0.0642
  489MOL0     C65941   9.091   3.764   8.632 -0.2581  0.0206  0.1154
  489MOL0     C65942   8.985   3.755   8.745 -0.0817 -0.1506 -0.0561
  489MOL0     C65943   8.866   3.842   8.720  0.0233  0.8679 -0.1014
  489MOL0     C65944   8.765   3.905   8.713 -0.0332  0.3449 -0.4861
  489MOL0     C65945   9.456   3.543   8.306 -0.1765  0.3711 -0.0930
  489MOL0     C65946   9.522   3.550   8.182 -1.0361  0.0543 -0.1539
  489MOL0     C65947   9.590   3.423   8.131  0.1171  0.4060 -0.8925
  489MOL0     H65948   9.488   3.729   7.692  1.9081 -1.9040 -2.6702
  489MOL0     H65949   9.547   3.784   7.479  0.7341 -2.1222  0.9667
  489MOL0     H65950   9.759   3.783   7.287 -4.6355 -2.4699 -2.4456
  489MOL0     H65951   9.607   3.845   7.308  0.6966 -2.8840  2.8230
  489MOL0     H65952   9.757   3.933   7.085 -3.2345 -0.1749 -1.4998
  489MOL0     H65953   9.830   4.029   7.212  1.1594 -0.6686 -2.8237
  489MOL0     H65954   9.606   4.157   7.237 -1.0109  0.5903 -0.7481
  489MOL0     H65955   9.533   4.008   7.186  0.5591 -0.5900  0.4401
  489MOL0     H65956   9.702   4.193   7.010 -0.1893  1.2353 -1.3887
  489MOL0     H65957   9.606   4.055   6.949 -1.5545  0.4902  0.4644
  489MOL0     H65958   9.463   4.244   6.897 -0.7394 -3.1549 -0.1113
  489MOL0     H65959   9.397   4.186   7.037 -0.8948  1.3883 -0.3748
  489MOL0     H65960   9.398   4.361   7.130 -0.6980 -2.4193 -2.0821
  489MOL0     H65961   9.570   4.367   7.161  1.6494  1.8681 -1.6585
  489MOL0     H65962   9.531   4.559   7.059  1.7651  0.2569 -1.4816
  489MOL0     H65963   9.443   4.497   6.914 -0.6386 -0.8324 -1.0387
  489MOL0     H65964   9.733   4.419   6.984  1.1371  2.2257  0.2563
  489MOL0     H65965   9.663   4.399   6.828  0.2088  0.1036 -0.2066
  489MOL0     H65966   9.524   4.707   6.795 -0.6513 -0.2580  1.9807
  489MOL0     H65967   9.607   4.970   6.758  1.9268  1.3743 -4.0801
  489MOL0     H65968   9.719   5.004   6.893 -1.2720 -0.0754  1.1048
  489MOL0     H65969   9.913   5.000   6.740  2.2382  2.2728 -2.9793
  489MOL0     H65970   9.807   4.963   6.598  0.4214 -0.4067 -0.2389
  489MOL0     H65971   9.838   5.223   6.739 -1.4984  0.9261 -0.4512
  489MOL0     H65972   9.690   5.198   6.626  0.4042 -0.2269 -2.1446
  489MOL0     H65973   9.876   5.310   6.523 -1.3738  0.2027 -1.4462
  489MOL0     H65974   9.820   5.155   6.447  2.8855 -1.3249  0.5287
  489MOL0     H65975  10.090   5.379   6.382  0.5751  0.2302 -3.0247
  489MOL0     H65976  10.209   5.376   6.166 -0.1680  0.8814 -0.2782
  489MOL0     H65977  10.411   5.159   5.771 -1.7537  0.7119 -2.6089
  489MOL0     H65978  10.505   5.255   5.585 -0.2308 -2.0272  1.2636
  489MOL0     H65979  10.669   5.403   5.411 -0.4509 -1.6372 -1.6159
  489MOL0     H65980  10.489   5.413   5.408 -0.3113  2.6361 -1.1984
  489MOL0     H65981  10.648   5.656   5.369  0.6964 -2.0820  1.8882
  489MOL0     H65982  10.655   5.537   5.251 -0.0961 -0.1591  0.3388
  489MOL0     H65983  10.499   5.663   5.172  0.0790 -1.1637 -0.5885
  489MOL0     H65984  10.405   5.526   5.223  1.1048  0.4139 -2.5188
  489MOL0     H65985  10.437   5.773   5.397 -2.7125  3.5128  0.0227
  489MOL0     H65986  10.308   5.660   5.417 -2.6615  3.3804 -0.6630
  489MOL0     H65987  10.225   5.717   5.177 -0.7034  0.7997 -0.3001
  489MOL0     H65988  10.329   5.859   5.196 -2.5636  3.2285  2.2404
  489MOL0     H65989  10.113   5.799   5.399 -0.0748 -1.3120 -0.0547
  489MOL0     H65990  10.227   5.938   5.389 -1.3958  0.4411 -0.4618
  489MOL0     H65991  10.007   5.882   5.194 -1.1504  1.0463  0.6127
  489MOL0     H65992  10.143   5.992   5.157  1.3765 -1.0599  0.1462
  489MOL0     H65993   9.941   6.014   5.394  0.7049  0.1662  0.9993
  489MOL0     H65994  10.061   6.143   5.346  1.6953 -0.8232 -1.1633
  489MOL0     H65995  10.523   5.636   5.791 -0.0317  0.0184  1.1688
  489MOL0     H65996  10.459   5.504   5.995 -5.1377 -2.3094 -0.0045
  489MOL0     H65997  10.209   4.949   6.171  1.0609  1.8834 -1.6033
  489MOL0     H65998  10.091   4.948   6.396 -1.1615  0.2144 -0.4021
  489MOL0     H65999   9.870   4.024   7.641  1.6932 -1.7098  0.6622
  489MOL0     H66000   9.809   3.968   7.856  1.8110  2.4583 -2.8484
  489MOL0     H66001   9.448   3.874   8.108 -1.9911 -0.1219 -0.5614
  489MOL0     H66002   9.314   3.836   8.304 -1.3697 -2.4918  3.4000
  489MOL0     H66003   9.331   3.880   8.518  0.6483  0.1586 -3.9216
  489MOL0     H66004   9.451   3.799   8.614 -0.5489  0.6904 -1.3184
  489MOL0     H66005   9.268   3.839   8.757  3.9256  0.0877 -0.2605
  489MOL0     H66006   9.261   3.668   8.741 -0.6737  1.7026  1.7976
  489MOL0     H66007   9.065   3.685   8.561 -3.7428  1.9337 -0.9630
  489MOL0     H66008   9.070   3.852   8.571 -0.5501  0.5673  0.9837
  489MOL0     H66009   8.949   3.655   8.773  2.7492 -1.0111  0.8402
  489MOL0     H66010   9.029   3.794   8.837 -2.5830 -0.4368  1.3428
  489MOL0     H66011   8.667   3.946   8.695  0.2403  1.0025 -0.4957
  489MOL0     H66012   9.455   3.454   8.369 -1.9729  0.2170 -0.3127
  489MOL0     H66013   9.562   3.333   8.186 -2.9627  1.4910 -0.4556
  489MOL0     H66014   9.545   3.395   8.036  1.3280  3.1635 -2.4050
  489MOL0     H66015   9.699   3.431   8.123  0.1280 -0.9866 -2.8787
  490MOL0     O66016  10.410   2.961   5.063 -1.2370  0.3852 -1.0638
  490MOL0     C66017  10.535   2.956   5.038  0.2512  0.6345 -0.7225
  490MOL0     O66018  10.587   2.955   4.910 -0.0321 -0.5325 -0.3727
  490MOL0     C66019  10.492   2.940   4.804  0.6828 -0.7033  1.2431
  490MOL0     C66020  10.420   3.046   4.745 -0.2385 -0.3886 -0.4894
  490MOL0     C66021  10.331   3.026   4.637 -0.3022 -0.6687  0.8166
  490MOL0     C66022  10.320   2.900   4.573 -0.3580  0.0745  0.2832
  490MOL0     O66023  10.242   2.877   4.472  0.9213  0.4142 -0.6093
  490MOL0     C66024  10.150   2.968   4.410  0.0081  0.1390  0.5459
  490MOL0     C66025  10.018   2.984   4.491  0.1595  0.4012  0.5482
  490MOL0     C66026   9.890   3.012   4.412  1.3731 -0.7897 -0.6589
  490MOL0     C66027   9.784   3.062   4.511  0.2549 -0.6955  0.5937
  490MOL0     C66028   9.650   3.079   4.438 -1.1358 -0.1288  0.4738
  490MOL0     C66029   9.544   3.130   4.537 -0.1957 -0.0710 -0.1473
  490MOL0     C66030   9.415   3.130   4.464  0.5695  0.0487 -0.9899
  490MOL0     C66031   9.316   3.226   4.532  0.5095  0.2815 -0.5417
  490MOL0     N66032   9.180   3.197   4.476  0.6484 -0.0323  0.0021
  490MOL0     C66033   9.095   3.096   4.515 -0.9507 -0.4680 -0.7639
  490MOL0     C66034   8.979   3.115   4.439 -0.1690 -0.4143  0.3711
  490MOL0     C66035   8.890   2.996   4.422 -0.7187  0.8073 -0.1173
  490MOL0     C66036   8.742   3.048   4.415  0.0092 -0.4826  0.1336
  490MOL0     C66037   8.643   2.932   4.443  0.7013  0.2062 -0.1871
  490MOL0     C66038   8.530   2.930   4.344  0.6824 -0.6684 -0.0623
  490MOL0     O66039   8.454   3.047   4.330 -0.5560  0.8923  0.2264
  490MOL0     C66040   8.373   3.059   4.441 -0.9490 -0.4400 -0.2642
  490MOL0     C66041   8.246   2.997   4.439  0.6264 -0.3247  0.4884
  490MOL0     C66042   8.147   3.021   4.535 -0.2233 -1.1135 -0.1347
  490MOL0     C66043   8.172   3.114   4.639 -0.7728  0.9633  0.4530
  490MOL0     C66044   8.073   3.136   4.748 -1.3210 -0.3157 -0.5414
  490MOL0     O66045   8.107   3.209   4.853  0.4321 -0.1526 -0.2206
  490MOL0     C66046   8.045   3.183   4.977 -0.4289 -0.1211  0.8460
  490MOL0     C66047   8.035   3.290   5.065  0.3011  0.1498  0.4880
  490MOL0     C66048   7.983   3.285   5.191 -0.1665 -0.7112 -0.8171
  490MOL0     C66049   7.935   3.155   5.234  0.5027  0.1590  1.1825
  490MOL0     O66050   7.880   3.135   5.360  0.1070  0.4181  0.2222
  490MOL0     C66051   7.880   3.006   5.417 -0.4947 -0.5558 -0.9039
  490MOL0     C66052   7.846   3.000   5.576 -0.2329  0.2198  0.0743
  490MOL0     C66053   7.951   3.076   5.663  0.5199  1.1100 -0.5053
  490MOL0     C66054   7.935   3.042   5.808  0.4583  0.2450 -0.0591
  490MOL0     C66055   8.061   3.088   5.877 -0.2929 -0.5055 -0.0501
  490MOL0     C66056   8.087   3.242   5.890 -0.4602 -0.0012 -1.0468
  490MOL0     C66057   8.208   3.263   5.995  0.9798 -0.3131 -0.0977
  490MOL0     C66058   8.299   3.386   5.972  0.2608 -0.0336  0.0511
  490MOL0    Cl66059   8.463   3.338   6.016 -0.0774 -0.4337 -0.0682
  490MOL0     C66060   7.932   3.051   5.138 -0.4074 -0.0194 -0.9247
  490MOL0     C66061   7.979   3.066   5.010 -1.0385  0.7048  0.8137
  490MOL0     O66062   7.965   3.099   4.716  0.2818 -0.2756 -0.1742
  490MOL0     C66063   8.304   3.166   4.645  1.4162 -0.3677 -0.6991
  490MOL0     C66064   8.396   3.143   4.549 -0.4428  0.6120 -1.0436
  490MOL0     N66065   9.006   3.220   4.353  0.6813 -0.2760 -0.2228
  490MOL0     N66066   9.125   3.276   4.382  0.0035  0.5764 -0.0408
  490MOL0     C66067  10.400   2.800   4.623 -1.2418  0.8451  0.4328
  490MOL0     C66068  10.485   2.815   4.738 -0.7229 -0.0993 -0.5063
  490MOL0     C66069  10.642   2.968   5.142  1.4347 -0.1581  0.6096
  490MOL0     C66070  10.769   2.990   5.098 -0.8309  0.4896  0.1299
  490MOL0     C66071  10.874   2.997   5.186 -0.1110 -0.5173  0.0319
  490MOL0     C66072  10.848   3.009   5.325 -0.6815  0.3297 -0.8274
  490MOL0     O66073  10.951   3.047   5.403 -0.4550  0.4403  0.7315
  490MOL0     C66074  10.946   3.113   5.527  0.2839 -0.2119  0.2501
  490MOL0     C66075  11.086   3.166   5.559  0.7043  0.5622 -0.2645
  490MOL0     C66076  11.186   3.046   5.578  0.2801 -0.0654  0.7038
  490MOL0     C66077  11.294   3.055   5.475 -1.0937  0.1742  0.6864
  490MOL0     C66078  11.250   2.986   5.347 -0.3150  0.2612  0.8672
  490MOL0     C66079  11.212   2.920   5.248 -0.1093  0.6045  0.1465
  490MOL0     C66080  10.718   2.993   5.379 -1.3987  1.1496 -0.3081
  490MOL0     C66081  10.620   2.969   5.283 -0.1187 -0.2361 -0.3446
  490MOL0     C66082  10.483   2.934   5.343  0.2973  1.1651  0.5172
  490MOL0     H66083  10.433   3.147   4.781  0.4842  0.7692 -3.6754
  490MOL0     H66084  10.277   3.103   4.583  1.1422 -1.0547 -1.3320
  490MOL0     H66085  10.198   3.066   4.406  4.9752 -2.0450 -0.1670
  490MOL0     H66086  10.142   2.942   4.304  3.3178 -0.4266  0.3181
  490MOL0     H66087  10.038   3.063   4.564 -0.2822 -1.8483  3.2880
  490MOL0     H66088  10.010   2.887   4.541  0.7508 -0.0672 -0.2354
  490MOL0     H66089   9.859   2.921   4.361  2.2110 -1.4167 -0.0906
  490MOL0     H66090   9.914   3.104   4.358 -1.1731 -0.9837 -2.2664
  490MOL0     H66091   9.781   2.985   4.589 -0.2003 -1.1878  0.0983
  490MOL0     H66092   9.809   3.160   4.552 -2.0964 -0.3370  1.3021
  490MOL0     H66093   9.667   3.157   4.364 -2.2843  1.2935  1.6589
  490MOL0     H66094   9.632   2.986   4.382 -1.0663  1.4437 -2.3171
  490MOL0     H66095   9.538   3.054   4.616 -1.4535  0.2521  0.0859
  490MOL0     H66096   9.554   3.226   4.589 -1.9084  0.2602 -0.3889
  490MOL0     H66097   9.379   3.027   4.464 -1.7584  0.7979 -1.8481
  490MOL0     H66098   9.427   3.142   4.356  2.3257 -1.8314 -1.0524
  490MOL0     H66099   9.311   3.220   4.642  0.7604  1.7576 -0.4371
  490MOL0     H66100   9.349   3.329   4.521 -1.4367  0.8889 -1.0473
  490MOL0     H66101   9.126   3.019   4.584  3.0349  1.9394  0.4598
  490MOL0     H66102   8.928   2.935   4.340 -0.1295 -1.5785  1.8441
  490MOL0     H66103   8.901   2.928   4.507  0.8307  1.2116  0.0252
  490MOL0     H66104   8.724   3.133   4.481  0.4372  0.0843 -0.4728
  490MOL0     H66105   8.719   3.085   4.315 -0.9269 -3.5444 -0.9145
  490MOL0     H66106   8.600   2.942   4.543  0.9234 -2.8911  0.2932
  490MOL0     H66107   8.700   2.839   4.433  0.2939  0.0928 -1.6946
  490MOL0     H66108   8.469   2.847   4.380 -2.3696  1.5382  0.1908
  490MOL0     H66109   8.580   2.909   4.249  2.6625 -0.1515  0.7973
  490MOL0     H66110   8.223   2.933   4.354  1.2608  0.8744 -0.6298
  490MOL0     H66111   8.055   2.968   4.515 -0.3583 -0.7048 -0.6130
  490MOL0     H66112   8.080   3.379   5.024  2.7520 -2.4252 -3.0038
  490MOL0     H66113   7.971   3.371   5.257  1.4696 -1.6520  0.7950
  490MOL0     H66114   7.798   2.948   5.374 -4.0648  3.3175  0.0106
  490MOL0     H66115   7.969   2.946   5.394 -0.8454 -0.6428 -2.1225
  490MOL0     H66116   7.744   3.034   5.597 -0.3346  0.0240 -0.0929
  490MOL0     H66117   7.852   2.894   5.603  3.5719 -0.1346 -1.5083
  490MOL0     H66118   8.052   3.052   5.630  0.1369  1.1416 -1.7769
  490MOL0     H66119   7.941   3.182   5.638 -0.1725  0.7571 -1.8753
  490MOL0     H66120   7.919   2.934   5.806 -1.7294  0.5094 -2.9235
  490MOL0     H66121   7.851   3.081   5.867 -0.4424 -1.4353 -0.1769
  490MOL0     H66122   8.148   3.054   5.821  1.4349  1.2584  1.4330
  490MOL0     H66123   8.067   3.052   5.980  0.6939 -1.9241 -0.5791
  490MOL0     H66124   8.121   3.277   5.792 -1.0589 -0.5091 -1.4429
  490MOL0     H66125   8.000   3.297   5.929 -0.1566 -1.0860  1.3098
  490MOL0     H66126   8.268   3.171   5.993 -1.6536 -2.1494 -0.7115
  490MOL0     H66127   8.164   3.270   6.095  0.5970 -0.7184 -0.2310
  490MOL0     H66128   8.289   3.414   5.867  0.2280 -2.2982 -0.6042
  490MOL0     H66129   8.270   3.469   6.037 -0.8301 -0.0204 -0.4292
  490MOL0     H66130   7.890   2.955   5.165  1.8071 -1.1681 -1.2884
  490MOL0     H66131   7.986   2.987   4.936  3.3497 -1.1336  2.8558
  490MOL0     H66132   8.339   3.215   4.735 -0.8846  3.2080 -1.5438
  490MOL0     H66133   8.496   3.187   4.549  0.5410 -1.4543 -2.4129
  490MOL0     H66134  10.418   2.717   4.556  1.5190  2.0423 -0.4689
  490MOL0     H66135  10.555   2.746   4.784 -0.3166  0.2312 -0.6203
  490MOL0     H66136  10.804   2.999   4.996  2.5730  1.8279  1.2729
  490MOL0     H66137  10.978   3.021   5.166 -0.3403  0.6701  0.1444
  490MOL0     H66138  10.907   3.044   5.603 -2.2953  1.6703  0.7784
  490MOL0     H66139  10.886   3.203   5.507  0.1215 -0.6834 -1.6545
  490MOL0     H66140  11.095   3.228   5.649  0.5943 -0.1816  0.2716
  490MOL0     H66141  11.125   3.231   5.481  0.4119 -0.7156 -1.5094
  490MOL0     H66142  11.120   2.961   5.556 -3.8014  2.9025  0.4687
  490MOL0     H66143  11.228   3.036   5.679 -0.0264 -1.7350  0.7028
  490MOL0     H66144  11.330   3.157   5.460 -1.3453  0.0753 -0.7525
  490MOL0     H66145  11.386   3.004   5.504 -2.2739 -2.3270  0.3553
  490MOL0     H66146  11.171   2.870   5.163  1.3555  1.1839 -0.9403
  490MOL0     H66147  10.702   2.998   5.486  1.3675  0.4193  0.2262
  490MOL0     H66148  10.407   3.005   5.308  0.4719  0.8042 -0.6406
  490MOL0     H66149  10.462   2.841   5.288 -4.0596  0.7252  2.4619
  490MOL0     H66150  10.477   2.915   5.451  2.6873  1.6039  0.7718
  491MOL0     O66151   7.923  11.436   1.435 -0.6173  0.4025 -0.0710
  491MOL0     C66152   7.965  11.354   1.355  0.4198  0.2416 -1.0145
  491MOL0     O66153   7.966  11.216   1.377  0.2287 -1.3883 -0.5158
  491MOL0     C66154   7.897  11.165   1.486  0.9358  0.1787 -1.5436
  491MOL0     C66155   7.977  11.103   1.579  0.9525  0.5332  1.2174
  491MOL0     C66156   7.904  11.013   1.664  0.3096  0.4754 -0.4514
  491MOL0     C66157   7.764  11.023   1.677 -0.0843 -0.7804  0.1619
  491MOL0     O66158   7.708  10.928   1.759  0.1559 -0.8900 -0.8520
  491MOL0     C66159   7.597  10.854   1.691  0.2288  0.5196 -0.4080
  491MOL0     C66160   7.639  10.763   1.566 -0.4570 -0.9703 -0.1943
  491MOL0     C66161   7.518  10.691   1.507 -0.3660 -0.6099  0.1419
  491MOL0     C66162   7.430  10.617   1.604  1.2088  0.9128 -0.8304
  491MOL0     C66163   7.310  10.535   1.535 -0.4177 -0.0382 -0.5465
  491MOL0     C66164   7.216  10.630   1.448 -0.7740 -0.6908  0.6399
  491MOL0     C66165   7.101  10.564   1.377  0.3430 -0.3962  0.1611
  491MOL0     C66166   7.116  10.419   1.338  0.4323  0.1842  0.6555
  491MOL0     N66167   6.990  10.369   1.280  0.4182 -0.1104 -0.6673
  491MOL0     C66168   6.877  10.362   1.354  0.4407 -0.3944 -0.2916
  491MOL0     C66169   6.776  10.342   1.266  0.8935  0.1858  0.4289
  491MOL0     C66170   6.626  10.327   1.297  0.5068  0.0493 -0.8507
  491MOL0     C66171   6.580  10.199   1.225 -0.6495  0.1073 -0.3804
  491MOL0     C66172   6.423  10.181   1.223 -0.3623  0.8024 -0.2321
  491MOL0     C66173   6.397  10.044   1.145  0.4545 -0.2664 -0.2882
  491MOL0     O66174   6.458   9.938   1.228 -0.1060  0.0752 -0.9436
  491MOL0     C66175   6.474   9.812   1.176 -2.4428  0.0823 -0.4255
  491MOL0     C66176   6.527   9.717   1.267  0.3893  0.1369  0.4951
  491MOL0     C66177   6.542   9.581   1.218  0.0566  0.1869 -0.5016
  491MOL0     C66178   6.530   9.547   1.081 -0.2116  0.1588  0.1925
  491MOL0     C66179   6.585   9.427   1.027  1.2060 -1.1218 -0.9206
  491MOL0     O66180   6.663   9.346   1.115  0.5972  0.0882  0.4198
  491MOL0     C66181   6.735   9.253   1.054 -0.1717  0.4096 -1.0475
  491MOL0     C66182   6.686   9.132   1.001 -0.8838  0.2856  0.0095
  491MOL0     C66183   6.776   9.041   0.939  1.2328 -0.6369 -1.1985
  491MOL0     C66184   6.911   9.068   0.930  0.4501 -0.1210 -0.1439
  491MOL0     O66185   6.982   8.974   0.877 -0.1162  0.0384 -0.8080
  491MOL0     C66186   7.116   9.004   0.821 -0.1418 -0.8411 -0.1669
  491MOL0     C66187   7.176   8.882   0.753 -0.8509  0.1909 -0.3225
  491MOL0     C66188   7.239   8.780   0.859 -0.2915  0.0059 -0.3443
  491MOL0     C66189   7.145   8.719   0.960 -0.2738 -0.6621 -0.5053
  491MOL0     C66190   7.193   8.606   1.051  0.6717  0.1487 -0.4878
  491MOL0     C66191   7.255   8.475   0.996  0.3236 -0.3635  0.5041
  491MOL0     C66192   7.174   8.400   0.894  0.2193  1.1595  0.1242
  491MOL0     C66193   7.058   8.335   0.953 -0.4171 -0.2652  0.2660
  491MOL0    Cl66194   6.965   8.232   0.843  0.7341  0.4198 -0.8411
  491MOL0     C66195   6.959   9.190   0.980  0.2597  1.0857 -0.3733
  491MOL0     C66196   6.870   9.275   1.045  0.3651  0.7340 -0.8316
  491MOL0     O66197   6.555   9.400   0.908 -0.0919  0.7831  0.4324
  491MOL0     C66198   6.474   9.647   0.993 -0.4224  0.1608  0.9347
  491MOL0     C66199   6.449   9.778   1.036 -0.7775  0.0400 -0.2287
  491MOL0     N66200   6.831  10.361   1.131  0.7931 -0.2764  0.3918
  491MOL0     N66201   6.958  10.380   1.148  0.5096  0.3301  0.5142
  491MOL0     C66202   7.688  11.112   1.596 -0.6033  0.0978 -0.5650
  491MOL0     C66203   7.755  11.178   1.495 -1.2993  0.3840  1.5589
  491MOL0     C66204   8.043  11.399   1.244 -0.2562  0.0425 -0.0286
  491MOL0     C66205   8.114  11.300   1.157 -0.3015 -0.2501 -0.9722
  491MOL0     C66206   8.191  11.348   1.048  0.5799  1.0862 -0.4718
  491MOL0     C66207   8.212  11.490   1.033 -0.4206  0.8349 -0.7964
  491MOL0     O66208   8.288  11.529   0.927  0.0542 -0.0378  0.9128
  491MOL0     C66209   8.348  11.433   0.837  0.3706  0.4274 -0.4631
  491MOL0     C66210   8.418  11.497   0.713  1.6829  0.1052  0.9223
  491MOL0     C66211   8.522  11.589   0.764 -1.0516  0.0976 -0.2698
  491MOL0     C66212   8.575  11.697   0.675  0.3574  0.1508 -0.0351
  491MOL0     C66213   8.628  11.631   0.553 -0.0803  0.0699  0.0900
  491MOL0     C66214   8.660  11.600   0.437  0.1042  0.0579 -0.2070
  491MOL0     C66215   8.153  11.578   1.110 -0.0510 -0.3855 -0.4462
  491MOL0     C66216   8.064  11.534   1.218 -0.6831 -0.6717 -0.8404
  491MOL0     C66217   7.990  11.652   1.295  0.5277  0.3976  0.2797
  491MOL0     H66218   8.084  11.108   1.569  0.8999  4.5625  1.0492
  491MOL0     H66219   7.960  10.945   1.727 -1.9875 -0.7416  0.4138
  491MOL0     H66220   7.553  10.789   1.768 -1.1707  0.5268 -1.1645
  491MOL0     H66221   7.516  10.921   1.661  1.7360  1.8810 -1.6063
  491MOL0     H66222   7.716  10.698   1.608  0.0524  0.0260  0.4590
  491MOL0     H66223   7.700  10.817   1.493  3.0432 -0.7117  2.6344
  491MOL0     H66224   7.559  10.614   1.441  1.5193  2.7721 -3.0502
  491MOL0     H66225   7.477  10.765   1.437 -1.9716 -2.7548 -1.3083
  491MOL0     H66226   7.483  10.540   1.661 -0.1570  0.9764  0.6146
  491MOL0     H66227   7.394  10.674   1.691  0.7209 -2.2153  1.2025
  491MOL0     H66228   7.357  10.459   1.472  1.0386  1.3632 -1.2147
  491MOL0     H66229   7.248  10.487   1.612  1.4399 -0.6892  0.6127
  491MOL0     H66230   7.177  10.707   1.514 -0.5769 -0.0822  0.0664
  491MOL0     H66231   7.285  10.692   1.390  2.7896 -3.4948  1.5055
  491MOL0     H66232   7.077  10.618   1.285 -3.8937 -0.4949  1.0251
  491MOL0     H66233   7.012  10.574   1.440  0.5075 -3.3560  1.0442
  491MOL0     H66234   7.195  10.408   1.262  1.3170 -0.1568  1.5998
  491MOL0     H66235   7.155  10.367   1.425  2.6979  0.9412  0.1802
  491MOL0     H66236   6.865  10.378   1.461 -1.3898  1.4061 -0.7107
  491MOL0     H66237   6.613  10.318   1.405  0.5573  1.6013 -0.6974
  491MOL0     H66238   6.572  10.415   1.260  0.8009 -0.4238 -2.5184
  491MOL0     H66239   6.607  10.207   1.120  2.0790  2.0365  0.3747
  491MOL0     H66240   6.624  10.111   1.271  2.1242  0.3209 -2.4293
  491MOL0     H66241   6.378  10.273   1.185  1.5102  1.0651 -1.9364
  491MOL0     H66242   6.403  10.161   1.329  1.4286  1.1752  0.2179
  491MOL0     H66243   6.430  10.043   1.041 -0.3169 -0.9002 -0.5377
  491MOL0     H66244   6.289  10.032   1.134  0.6807 -0.6804 -2.5427
  491MOL0     H66245   6.553   9.743   1.369 -1.2904 -1.9105  1.5122
  491MOL0     H66246   6.594   9.526   1.296  2.1242  2.0286 -0.4795
  491MOL0     H66247   6.579   9.122   1.014 -0.7461 -0.0923  0.9270
  491MOL0     H66248   6.730   8.949   0.903 -0.5976 -0.1742 -0.1495
  491MOL0     H66249   7.101   9.083   0.748 -2.3205  0.2303  1.3622
  491MOL0     H66250   7.193   9.031   0.895  0.0482  0.0878 -0.6926
  491MOL0     H66251   7.101   8.840   0.686  1.9679  0.6710 -4.1080
  491MOL0     H66252   7.254   8.919   0.685 -0.6543  2.5409  1.0488
  491MOL0     H66253   7.304   8.703   0.817  3.5784  1.7787  1.8309
  491MOL0     H66254   7.309   8.842   0.916 -1.6724  0.6543  0.7004
  491MOL0     H66255   7.061   8.678   0.903 -0.6276  0.7358 -1.0392
  491MOL0     H66256   7.106   8.799   1.024 -2.2300 -1.0746 -1.1110
  491MOL0     H66257   7.108   8.572   1.112  0.5673 -2.6593 -2.0196
  491MOL0     H66258   7.270   8.651   1.114  0.0860  0.8443 -0.2466
  491MOL0     H66259   7.336   8.514   0.934 -0.9678  0.5129 -0.6754
  491MOL0     H66260   7.292   8.415   1.081  3.5135  1.5025  0.5949
  491MOL0     H66261   7.238   8.315   0.869 -1.9373 -1.8218  3.5780
  491MOL0     H66262   7.158   8.461   0.805  0.4757 -1.9024 -2.1926
  491MOL0     H66263   7.095   8.283   1.042  3.3328  0.1971 -0.8530
  491MOL0     H66264   6.987   8.411   0.987  1.4926  0.1192  3.9667
  491MOL0     H66265   7.063   9.211   0.960  0.2050  1.8127  0.0229
  491MOL0     H66266   6.897   9.365   1.100 -2.2472 -0.1647  2.2995
  491MOL0     H66267   6.460   9.637   0.886 -1.4398  1.5342  0.9125
  491MOL0     H66268   6.417   9.836   0.951  0.0408 -0.4486 -0.8886
  491MOL0     H66269   7.581  11.120   1.615 -0.2736 -0.3815  1.9533
  491MOL0     H66270   7.698  11.235   1.422  2.3901  0.0370 -1.9574
  491MOL0     H66271   8.108  11.192   1.165  1.1664 -0.2647  0.1840
  491MOL0     H66272   8.241  11.279   0.981 -2.2700  0.3537 -2.0199
  491MOL0     H66273   8.262  11.373   0.803  0.7213  0.6660 -1.8286
  491MOL0     H66274   8.422  11.380   0.897  0.4028  2.1859  1.1406
  491MOL0     H66275   8.346  11.557   0.656 -0.6343 -2.6895  0.6621
  491MOL0     H66276   8.459  11.417   0.651  0.4287  1.4632 -1.8377
  491MOL0     H66277   8.610  11.531   0.792  0.8738  3.4267  1.1579
  491MOL0     H66278   8.494  11.639   0.857 -1.3218 -0.5069 -0.0218
  491MOL0     H66279   8.493  11.760   0.639  1.3259  0.5497 -1.5995
  491MOL0     H66280   8.652  11.758   0.725 -0.1436 -0.6282  1.7803
  491MOL0     H66281   8.714  11.583   0.346  1.3867 -3.1735  0.9931
  491MOL0     H66282   8.178  11.681   1.086  2.2519 -0.3488  1.7307
  491MOL0     H66283   7.880  11.652   1.297  0.3098  0.7315 -3.5734
  491MOL0     H66284   8.045  11.673   1.387  2.7278  2.5380 -1.4043
  491MOL0     H66285   8.012  11.749   1.249 -0.7518  0.4284 -0.3225
  492MOL0     O66286   0.842   5.940  11.112  0.8264  0.3834  0.6249
  492MOL0     C66287   0.949   5.987  11.145  0.0676 -0.1324 -0.3355
  492MOL0     O66288   1.068   5.957  11.083 -0.3539  0.1848 -0.1917
  492MOL0     C66289   1.065   5.867  10.975 -0.6686  0.3184 -0.5175
  492MOL0     C66290   1.015   5.906  10.847  0.4426  0.7235 -0.2752
  492MOL0     C66291   1.038   5.805  10.740 -1.1355  0.2575 -0.3514
  492MOL0     C66292   1.108   5.682  10.759  0.1306 -0.3031 -1.4166
  492MOL0     O66293   1.123   5.587  10.667  0.0971 -0.3842  0.4233
  492MOL0     C66294   1.064   5.588  10.541 -0.4154 -0.8518  0.1652
  492MOL0     C66295   1.125   5.695  10.445  0.8700 -0.4155 -0.0648
  492MOL0     C66296   1.023   5.701  10.325  0.3631 -0.5026 -0.2508
  492MOL0     C66297   0.903   5.800  10.361  0.9494  0.1503  0.4424
  492MOL0     C66298   0.797   5.813  10.247  0.3035 -0.0794 -0.7519
  492MOL0     C66299   0.840   5.897  10.124 -0.1343 -0.3967  0.8752
  492MOL0     C66300   0.762   5.863  10.003  0.2436  0.1942 -0.5422
  492MOL0     C66301   0.608   5.867  10.001  1.3076  0.6576  0.0184
  492MOL0     N66302   0.546   6.004  10.009 -0.0813  0.0239  1.0079
  492MOL0     C66303   0.550   6.102   9.905 -0.0571  0.0813 -0.2102
  492MOL0     C66304   0.474   6.197   9.970 -0.5957 -0.5609  1.2963
  492MOL0     C66305   0.442   6.342   9.925  0.2702  0.3492  0.0366
  492MOL0     C66306   0.387   6.351   9.788  0.1469  0.7015  0.5273
  492MOL0     C66307   0.249   6.286   9.787  0.4203 -0.1641  0.2511
  492MOL0     C66308   0.146   6.360   9.867 -0.0003  0.5230 -0.3480
  492MOL0     O66309   0.154   6.495   9.826  0.5950 -0.8069  1.2157
  492MOL0     C66310   0.045   6.547   9.764  0.1513 -0.4681  0.1419
  492MOL0     C66311  -0.076   6.533   9.817  0.1511 -0.3760 -0.0632
  492MOL0     C66312  -0.192   6.586   9.748  0.8155  0.3414 -0.0559
  492MOL0     C66313  -0.170   6.663   9.633  0.2203 -0.6700 -0.3879
  492MOL0     C66314  -0.286   6.713   9.553  0.0612 -0.3412  0.5976
  492MOL0     O66315  -0.255   6.742   9.413 -0.2585 -0.3267 -0.8053
  492MOL0     C66316  -0.354   6.784   9.332  0.8229  0.5706 -1.2499
  492MOL0     C66317  -0.381   6.732   9.206 -0.3485  0.5024 -0.0274
  492MOL0     C66318  -0.478   6.789   9.130  0.2521  0.2454 -0.7904
  492MOL0     C66319  -0.562   6.891   9.177  0.6133 -0.3662  0.7379
  492MOL0     O66320  -0.674   6.949   9.108  0.1041  0.8236 -0.3533
  492MOL0     C66321  -0.694   6.909   8.970 -0.7067 -0.2080 -0.3020
  492MOL0     C66322  -0.789   6.995   8.891  0.8081  0.8636 -0.2205
  492MOL0     C66323  -0.739   7.138   8.873  0.1924 -0.5606  0.5333
  492MOL0     C66324  -0.827   7.253   8.798  0.5618 -0.3395 -0.6432
  492MOL0     C66325  -0.967   7.205   8.775 -0.2286 -0.3412 -0.4954
  492MOL0     C66326  -1.052   7.334   8.747 -0.4444  0.4379 -0.1581
  492MOL0     C66327  -1.202   7.319   8.769  0.5970 -0.0333  1.1192
  492MOL0     C66328  -1.246   7.301   8.925 -0.4885  0.9294  0.9743
  492MOL0    Cl66329  -1.219   7.447   9.024  0.3157  0.4148  0.2345
  492MOL0     C66330  -0.524   6.954   9.299  0.5805 -0.1483  0.6702
  492MOL0     C66331  -0.418   6.903   9.377 -0.0126  0.0734  0.7321
  492MOL0     O66332  -0.396   6.723   9.606 -0.5583 -0.1085 -0.3286
  492MOL0     C66333  -0.040   6.667   9.580  0.3811 -0.0869  0.6279
  492MOL0     C66334   0.064   6.616   9.646  0.1899 -0.7449  0.8096
  492MOL0     N66335   0.444   6.160  10.092 -0.2768  0.3782 -0.0396
  492MOL0     N66336   0.504   6.057  10.125 -0.2940  0.2749  0.3338
  492MOL0     C66337   1.153   5.658  10.889 -0.8058  0.1177 -0.7624
  492MOL0     C66338   1.129   5.746  10.993  1.2029  0.0055 -0.0325
  492MOL0     C66339   0.950   6.078  11.261 -0.3645 -0.3818  0.1232
  492MOL0     C66340   0.831   6.094  11.335 -0.1922 -0.5596  0.3141
  492MOL0     C66341   0.827   6.156  11.457  0.3761 -0.1142  0.1487
  492MOL0     C66342   0.944   6.207  11.510  0.1534 -0.0212 -0.5330
  492MOL0     O66343   0.954   6.290  11.623  0.2897  0.2363 -0.1927
  492MOL0     C66344   0.835   6.373  11.653  0.4857 -0.7879  0.4878
  492MOL0     C66345   0.781   6.462  11.539  0.4695 -0.1801  0.2876
  492MOL0     C66346   0.868   6.597  11.520 -0.1907  1.2539  0.8855
  492MOL0     C66347   0.799   6.686  11.408 -0.9621  0.5800 -0.5409
  492MOL0     C66348   0.880   6.808  11.390 -0.0670  0.3770 -0.4909
  492MOL0     C66349   0.925   6.916  11.392  0.2025 -0.3578 -1.6802
  492MOL0     C66350   1.059   6.193  11.436 -0.2257 -0.4732 -0.0838
  492MOL0     C66351   1.065   6.127  11.314  0.0613 -0.7180 -0.5061
  492MOL0     C66352   1.203   6.123  11.249  0.4135  0.1763  0.2851
  492MOL0     H66353   0.965   6.001  10.836 -2.9060 -0.7796  0.5997
  492MOL0     H66354   0.991   5.817  10.643 -0.7780  0.0694 -0.5494
  492MOL0     H66355   1.070   5.486  10.502 -3.1674 -0.0604 -2.8154
  492MOL0     H66356   0.959   5.608  10.564 -0.6465  0.4842 -1.8427
  492MOL0     H66357   1.221   5.658  10.407  2.3215  2.8793  0.0737
  492MOL0     H66358   1.133   5.788  10.502 -1.1469 -2.7547  4.5556
  492MOL0     H66359   0.987   5.601  10.300  3.0836 -1.3891 -0.9004
  492MOL0     H66360   1.070   5.747  10.237 -2.1116  1.0125 -0.8813
  492MOL0     H66361   0.855   5.759  10.450 -2.6693 -1.2457 -1.9551
  492MOL0     H66362   0.943   5.897  10.393 -0.2501  0.0534  2.3659
  492MOL0     H66363   0.765   5.714  10.215 -1.6489  0.3231 -0.1474
  492MOL0     H66364   0.713   5.860  10.298  0.6505  0.9343 -1.0750
  492MOL0     H66365   0.829   6.004  10.140  0.4951 -0.1803 -0.0427
  492MOL0     H66366   0.945   5.900  10.094 -0.6888  3.0545 -1.2306
  492MOL0     H66367   0.792   5.760   9.982 -1.6527 -1.1556  2.6768
  492MOL0     H66368   0.795   5.933   9.926 -0.8245  3.8654  2.0920
  492MOL0     H66369   0.576   5.808   9.915  3.7117 -2.1469  0.8693
  492MOL0     H66370   0.572   5.811  10.088  1.3076  2.3232  1.1434
  492MOL0     H66371   0.599   6.107   9.808  1.4291 -0.1432  0.5040
  492MOL0     H66372   0.378   6.394   9.997 -2.3104  0.3624 -2.1201
  492MOL0     H66373   0.537   6.396   9.918  3.0365 -4.1028 -2.1817
  492MOL0     H66374   0.393   6.453   9.750 -0.9802  0.2298 -1.0056
  492MOL0     H66375   0.453   6.293   9.722 -0.4085  1.4809 -0.7451
  492MOL0     H66376   0.249   6.181   9.819 -3.1682 -0.9569 -1.9205
  492MOL0     H66377   0.226   6.274   9.681  0.1356  3.2484 -0.1582
  492MOL0     H66378   0.174   6.352   9.973 -0.8261 -2.2424 -0.2670
  492MOL0     H66379   0.050   6.309   9.852  0.0059  1.3442 -3.8735
  492MOL0     H66380  -0.093   6.478   9.910 -0.2085 -0.5915 -0.2558
  492MOL0     H66381  -0.289   6.557   9.787  0.9385 -1.7035 -1.1475
  492MOL0     H66382  -0.322   6.654   9.159  0.2422  0.2644  1.0739
  492MOL0     H66383  -0.490   6.756   9.028  0.0490  1.0977 -1.0542
  492MOL0     H66384  -0.602   6.943   8.922 -0.3305  2.1652  1.9098
  492MOL0     H66385  -0.720   6.803   8.966 -1.9473  0.0092  1.1441
  492MOL0     H66386  -0.811   6.938   8.801  4.1785 -3.1066  1.1496
  492MOL0     H66387  -0.882   6.998   8.947 -0.1697  4.2194 -1.7291
  492MOL0     H66388  -0.735   7.185   8.971 -0.3218 -1.3559  0.9421
  492MOL0     H66389  -0.638   7.146   8.832  0.2986  0.9331  0.9963
  492MOL0     H66390  -0.778   7.284   8.706 -0.1219  2.6673 -0.1033
  492MOL0     H66391  -0.832   7.345   8.857 -1.0045  0.0197 -1.2731
  492MOL0     H66392  -1.011   7.157   8.863 -1.3543 -0.0746 -0.8997
  492MOL0     H66393  -0.962   7.134   8.692  2.0704  0.0716 -0.8040
  492MOL0     H66394  -1.017   7.404   8.824  0.5406  0.5079 -0.6424
  492MOL0     H66395  -1.024   7.369   8.647  3.1274 -0.2498  0.4600
  492MOL0     H66396  -1.227   7.239   8.699 -2.7041 -1.4310  3.6119
  492MOL0     H66397  -1.258   7.407   8.734 -2.3582 -1.9008  0.8175
  492MOL0     H66398  -1.347   7.263   8.941  0.4562 -0.8203  3.3859
  492MOL0     H66399  -1.182   7.220   8.961 -1.9800  0.4762  2.7587
  492MOL0     H66400  -0.576   7.043   9.335  0.8516  0.7681 -1.0819
  492MOL0     H66401  -0.393   6.952   9.470  1.3631 -0.2982  0.5767
  492MOL0     H66402  -0.023   6.716   9.485  0.0155  0.1158  0.6667
  492MOL0     H66403   0.155   6.609   9.588 -0.4254 -0.4827 -0.2171
  492MOL0     H66404   1.209   5.567  10.907  0.9311  0.9690 -1.6182
  492MOL0     H66405   1.161   5.726  11.094 -0.9752  2.9642  1.3924
  492MOL0     H66406   0.734   6.055  11.306 -1.4635  0.0544  3.3172
  492MOL0     H66407   0.731   6.156  11.507  0.4137 -1.0984  0.2549
  492MOL0     H66408   0.853   6.435  11.741 -0.3453 -4.3842  3.4287
  492MOL0     H66409   0.760   6.308  11.699  1.5041 -1.5164  1.1544
  492MOL0     H66410   0.681   6.493  11.570  1.6289  0.6934  3.6337
  492MOL0     H66411   0.778   6.401  11.449 -0.4316 -1.6637  1.2757
  492MOL0     H66412   0.961   6.570  11.469 -1.4059  1.7073 -1.7583
  492MOL0     H66413   0.879   6.656  11.611  0.2912  0.2764  1.4846
  492MOL0     H66414   0.797   6.632  11.313 -0.8324  1.1273 -0.8590
  492MOL0     H66415   0.696   6.717  11.425 -0.5829  4.1437 -3.5402
  492MOL0     H66416   0.971   7.012  11.403 -0.4688 -0.3160  2.0842
  492MOL0     H66417   1.141   6.253  11.472 -0.4586 -0.0056 -0.3269
  492MOL0     H66418   1.272   6.188  11.303 -0.7643  1.7043  0.0463
  492MOL0     H66419   1.243   6.022  11.246 -2.8174 -1.2230 -1.0552
  492MOL0     H66420   1.191   6.166  11.149  1.8675  0.5514  0.2562
  493MOL0     O66421   9.072  10.330  10.697 -0.6761 -0.5198 -0.0743
  493MOL0     C66422   9.127  10.241  10.766  0.3599 -0.3393 -0.2880
  493MOL0     O66423   9.073  10.189  10.883  0.0475 -0.2529 -0.3114
  493MOL0     C66424   8.948  10.240  10.924 -0.6325  1.9954 -0.7362
  493MOL0     C66425   8.929  10.256  11.062 -0.6569  0.3498 -0.1357
  493MOL0     C66426   8.811  10.284  11.118  0.9775 -0.0773  0.5195
  493MOL0     C66427   8.702  10.327  11.036 -0.1195 -0.1676  0.0665
  493MOL0     O66428   8.576  10.344  11.088  0.4450 -0.1310  0.1264
  493MOL0     C66429   8.558  10.349  11.235  0.2863 -0.6393 -0.6173
  493MOL0     C66430   8.512  10.209  11.276 -0.2629 -0.4121 -0.2243
  493MOL0     C66431   8.514  10.203  11.427 -0.2305 -0.5291  0.3920
  493MOL0     C66432   8.406  10.289  11.485  0.6079  0.6075  0.1229
  493MOL0     C66433   8.403  10.252  11.629  0.5579  0.4233 -0.0492
  493MOL0     C66434   8.522  10.305  11.710  0.0690  0.4428 -0.6756
  493MOL0     C66435   8.520  10.248  11.852  0.1700 -0.5065 -0.6561
  493MOL0     C66436   8.563  10.098  11.861 -0.0348 -0.2216 -0.5386
  493MOL0     N66437   8.532  10.060  12.002 -0.0023  0.0000 -0.7834
  493MOL0     C66438   8.411  10.046  12.060  0.0443 -0.3516 -0.9447
  493MOL0     C66439   8.424  10.007  12.189 -1.4312 -0.0710 -0.0579
  493MOL0     C66440   8.331   9.971  12.295  0.3363  0.2101 -0.3704
  493MOL0     C66441   8.331  10.076  12.404  1.2246  0.4087  0.8529
  493MOL0     C66442   8.448  10.083  12.500  0.3145 -0.3242  0.9371
  493MOL0     C66443   8.395  10.106  12.638 -1.1789  0.5442  0.7108
  493MOL0     O66444   8.520  10.114  12.715  0.3229 -0.2268  0.1075
  493MOL0     C66445   8.511  10.064  12.835  0.2650  0.2448 -1.0551
  493MOL0     C66446   8.515   9.921  12.847 -0.0096 -0.4857  0.1083
  493MOL0     C66447   8.483   9.863  12.969  0.3568  0.2813  0.5664
  493MOL0     C66448   8.438   9.937  13.080 -0.7241 -0.5821  0.6374
  493MOL0     C66449   8.396   9.875  13.203 -0.7119  0.0539 -0.0511
  493MOL0     O66450   8.389   9.961  13.309  0.7411  0.1761  1.1794
  493MOL0     C66451   8.360   9.906  13.434 -0.4642 -0.5386  0.2635
  493MOL0     C66452   8.236   9.853  13.462 -0.9344  0.2014 -0.3094
  493MOL0     C66453   8.203   9.809  13.592  0.2645  0.8676 -0.2260
  493MOL0     C66454   8.296   9.831  13.690 -0.4163 -0.7163  0.0718
  493MOL0     O66455   8.257   9.791  13.815  0.7451 -0.6664  0.0945
  493MOL0     C66456   8.330   9.690  13.878 -0.7250 -0.1155  0.0184
  493MOL0     C66457   8.236   9.627  13.977  0.7279  0.9853  1.0703
  493MOL0     C66458   8.128   9.529  13.910 -0.3507 -1.0064 -0.5405
  493MOL0     C66459   7.982   9.539  13.968 -0.0069 -0.3263  0.1626
  493MOL0     C66460   7.897   9.429  13.902 -0.0964  0.5171  0.2108
  493MOL0     C66461   7.750   9.435  13.955 -0.0268 -0.5539 -0.9559
  493MOL0     C66462   7.682   9.564  13.922 -0.4883 -0.2628  0.1528
  493MOL0     C66463   7.529   9.548  13.957  0.1387 -0.4555  0.2885
  493MOL0    Cl66464   7.522   9.561  14.137  0.2605  0.0556  0.3138
  493MOL0     C66465   8.422   9.889  13.665 -0.3452  0.2591 -0.7074
  493MOL0     C66466   8.452   9.928  13.533  0.7477 -0.7739 -0.3725
  493MOL0     O66467   8.360   9.749  13.208  0.1788 -0.1745  0.5588
  493MOL0     C66468   8.437  10.079  13.075  0.2447 -0.2988  1.3049
  493MOL0     C66469   8.469  10.142  12.950 -0.3007  0.1587  0.0467
  493MOL0     N66470   8.564  10.010  12.215  0.2400  0.3355 -0.6192
  493MOL0     N66471   8.620  10.036  12.097  0.4181  0.0101 -0.4281
  493MOL0     C66472   8.720  10.329  10.891  0.0649  0.4576 -0.7308
  493MOL0     C66473   8.839  10.279  10.838 -0.1455  0.3233 -0.3513
  493MOL0     C66474   9.241  10.169  10.716 -1.6071  0.4432  0.1327
  493MOL0     C66475   9.258  10.141  10.579 -0.7005  0.0945  0.0186
  493MOL0     C66476   9.363  10.060  10.541  0.3829  0.2466  0.0187
  493MOL0     C66477   9.456  10.021  10.632  0.8331  1.0600  0.2960
  493MOL0     O66478   9.550   9.922  10.597 -0.1947  0.4486  0.0726
  493MOL0     C66479   9.553   9.861  10.465 -0.7309 -1.2175 -0.5653
  493MOL0     C66480   9.616   9.955  10.362  0.2500  0.1752  0.2479
  493MOL0     C66481   9.759   9.993  10.385 -0.1831 -0.2837  0.7380
  493MOL0     C66482   9.774  10.139  10.449  0.2553  0.9336  0.6062
  493MOL0     C66483   9.834  10.222  10.343  0.6329 -0.3817  1.1347
  493MOL0     C66484   9.867  10.306  10.266  0.1493 -0.2664  0.9329
  493MOL0     C66485   9.450  10.060  10.762 -0.1408 -0.6007  0.4283
  493MOL0     C66486   9.346  10.139  10.808  0.0738 -0.0065 -0.4394
  493MOL0     C66487   9.358  10.168  10.963  0.2739  0.9016  0.1140
  493MOL0     H66488   9.007  10.216  11.126 -1.5688  0.2329  0.9422
  493MOL0     H66489   8.794  10.268  11.224 -0.7279  1.1809  0.4716
  493MOL0     H66490   8.648  10.380  11.289 -0.3754 -1.3715  0.9834
  493MOL0     H66491   8.469  10.411  11.249  0.6895 -0.2740  0.3975
  493MOL0     H66492   8.572  10.126  11.238 -2.3366 -1.9708 -0.2226
  493MOL0     H66493   8.410  10.184  11.245  0.0686  1.4194 -3.3253
  493MOL0     H66494   8.615  10.225  11.464 -1.3761  3.4807  1.6125
  493MOL0     H66495   8.513  10.101  11.466 -2.8959  0.0403  2.1076
  493MOL0     H66496   8.440  10.390  11.463 -1.0800  0.5544 -3.4706
  493MOL0     H66497   8.314  10.262  11.432 -1.6682  1.3889  3.4072
  493MOL0     H66498   8.309  10.296  11.661 -1.9422 -2.5894 -2.5973
  493MOL0     H66499   8.386  10.145  11.645 -2.3197  0.9010  0.5034
  493MOL0     H66500   8.611  10.268  11.659 -0.8015  0.8338 -2.5890
  493MOL0     H66501   8.511  10.413  11.720  2.4289  0.4941  3.4263
  493MOL0     H66502   8.417  10.265  11.887 -0.1289 -1.1582 -1.1884
  493MOL0     H66503   8.595  10.308  11.903  0.4776 -0.9941 -0.5322
  493MOL0     H66504   8.506  10.037  11.790 -0.0994  1.1351 -1.6975
  493MOL0     H66505   8.671  10.092  11.846  0.5051  3.6474  0.8200
  493MOL0     H66506   8.313  10.030  12.017 -0.3854 -3.3934  0.8068
  493MOL0     H66507   8.232   9.949  12.253  0.2989  1.4188 -0.9502
  493MOL0     H66508   8.362   9.881  12.349 -0.1371  0.4364  0.2830
  493MOL0     H66509   8.329  10.165  12.340  0.8383 -0.8995 -1.0234
  493MOL0     H66510   8.237  10.062  12.457  0.7990  0.6561  0.1720
  493MOL0     H66511   8.518  10.161  12.468  3.2101 -3.2797 -0.5464
  493MOL0     H66512   8.519  10.000  12.505  2.1717  1.2706  2.4460
  493MOL0     H66513   8.333  10.021  12.669  0.0463 -1.2011 -1.3293
  493MOL0     H66514   8.339  10.200  12.647  2.3523  3.4684 -3.4135
  493MOL0     H66515   8.540   9.873  12.753 -1.0891 -0.7204 -0.0670
  493MOL0     H66516   8.496   9.756  12.986  1.7527  0.4639  0.8046
  493MOL0     H66517   8.156   9.848  13.389 -0.7766  0.2490 -0.4890
  493MOL0     H66518   8.106   9.761  13.597  1.0124 -0.6628 -0.0830
  493MOL0     H66519   8.376   9.627  13.802  0.7331  0.4411  0.4023
  493MOL0     H66520   8.406   9.736  13.941  0.3893 -1.8742  0.0214
  493MOL0     H66521   8.296   9.566  14.044  1.9289 -0.6456 -1.3422
  493MOL0     H66522   8.183   9.706  14.031  1.3201  1.2167  1.3147
  493MOL0     H66523   8.129   9.555  13.804  0.4408 -0.5138 -0.4220
  493MOL0     H66524   8.162   9.425  13.916 -0.1065 -0.9815 -1.4411
  493MOL0     H66525   7.946   9.642  13.964  0.2849 -0.2262  0.0911
  493MOL0     H66526   7.997   9.525  14.075  4.1504  1.7510  0.0675
  493MOL0     H66527   7.939   9.332  13.931 -1.9012  0.0976  1.5852
  493MOL0     H66528   7.894   9.438  13.793  0.1903  3.3253  0.3598
  493MOL0     H66529   7.686   9.357  13.912 -2.0115  1.8148 -2.6356
  493MOL0     H66530   7.763   9.424  14.063 -4.1224  1.5075 -0.0406
  493MOL0     H66531   7.705   9.583  13.817 -1.6537  1.3447  0.1656
  493MOL0     H66532   7.721   9.650  13.977  1.0990 -1.2317  0.6003
  493MOL0     H66533   7.463   9.628  13.923  0.6042 -0.2302 -0.0970
  493MOL0     H66534   7.492   9.451  13.923  1.4675 -1.0937  0.5671
  493MOL0     H66535   8.496   9.911  13.740 -0.1279 -3.3102  0.3352
  493MOL0     H66536   8.551   9.967  13.512  0.7192 -0.2587  0.4244
  493MOL0     H66537   8.411  10.145  13.157 -1.0152  0.3841  0.3852
  493MOL0     H66538   8.452  10.248  12.936  1.5011  1.0863  3.7076
  493MOL0     H66539   8.639  10.337  10.819  1.2929 -1.7582 -2.5021
  493MOL0     H66540   8.859  10.278  10.731  0.1208  0.9621 -0.3115
  493MOL0     H66541   9.180  10.176  10.512 -0.2823  1.6662  0.3149
  493MOL0     H66542   9.367  10.034  10.436  0.4120  1.7363 -0.3769
  493MOL0     H66543   9.451   9.840  10.430 -1.0284  0.6883 -0.9234
  493MOL0     H66544   9.611   9.768  10.470 -0.1655 -1.2065 -4.3133
  493MOL0     H66545   9.556  10.046  10.354  3.3422  2.4689  1.2877
  493MOL0     H66546   9.603   9.906  10.266 -0.1900  0.9222 -0.0862
  493MOL0     H66547   9.812   9.989  10.289 -1.3583  1.4392 -0.0403
  493MOL0     H66548   9.816   9.929  10.452 -0.6312  0.0349  1.4385
  493MOL0     H66549   9.678  10.184  10.477  0.3399  1.6704 -0.2003
  493MOL0     H66550   9.838  10.137  10.537 -2.1582 -0.5840  2.4472
  493MOL0     H66551   9.881  10.373  10.183 -0.3796  1.2842  2.0506
  493MOL0     H66552   9.525  10.026  10.833  0.2225 -0.2332  0.2265
  493MOL0     H66553   9.306  10.263  10.981 -0.1209  0.6605  0.2667
  493MOL0     H66554   9.301  10.091  11.015  1.9386 -1.2254 -1.0819
  493MOL0     H66555   9.460  10.171  11.001  0.8855 -0.2642 -1.3399
  494MOL0     O66556   6.460   7.483  11.391  0.0024  0.8132  0.0829
  494MOL0     C66557   6.435   7.566  11.476  0.0093  0.6447 -0.4895
  494MOL0     O66558   6.528   7.625  11.562  0.5461  0.2799  0.6438
  494MOL0     C66559   6.657   7.584  11.547  0.7138 -0.1167 -0.6588
  494MOL0     C66560   6.708   7.532  11.668 -0.5027 -0.0061  0.0985
  494MOL0     C66561   6.835   7.481  11.667 -0.1925  0.2264  0.4831
  494MOL0     C66562   6.918   7.479  11.549 -0.1642  0.0025  0.0714
  494MOL0     O66563   7.037   7.406  11.540  0.5926  0.8411 -0.4769
  494MOL0     C66564   7.107   7.376  11.659  0.8228 -0.4422  0.1899
  494MOL0     C66565   7.250   7.325  11.619  0.6722  0.8929  0.3537
  494MOL0     C66566   7.357   7.349  11.731  0.4594  0.1044  0.1684
  494MOL0     C66567   7.490   7.267  11.712 -0.1928 -0.5074 -0.4500
  494MOL0     C66568   7.560   7.304  11.588  0.4626  0.4006  0.1011
  494MOL0     C66569   7.677   7.206  11.552  0.5417  0.1263  0.7232
  494MOL0     C66570   7.749   7.229  11.410 -0.2593 -0.6420 -0.2252
  494MOL0     C66571   7.803   7.369  11.396 -0.8692  0.0013  0.2044
  494MOL0     N66572   7.884   7.408  11.520 -0.5602  0.2834 -0.3342
  494MOL0     C66573   7.858   7.509  11.605 -0.1571  0.2601  0.6316
  494MOL0     C66574   7.955   7.491  11.698 -0.0473  0.3208  0.2642
  494MOL0     C66575   7.963   7.580  11.821  0.1978 -0.0938 -0.3156
  494MOL0     C66576   7.878   7.500  11.931 -0.7280 -0.0239 -0.4669
  494MOL0     C66577   7.857   7.594  12.048 -1.1072  0.3753  0.2838
  494MOL0     C66578   7.845   7.533  12.183  1.2487 -0.2183 -0.1052
  494MOL0     O66579   7.747   7.600  12.267 -1.8706 -0.9201 -0.7278
  494MOL0     C66580   7.712   7.513  12.374  0.3270  0.6022 -0.7705
  494MOL0     C66581   7.584   7.470  12.379 -0.7860  0.4483 -0.2334
  494MOL0     C66582   7.549   7.367  12.458  0.6892 -0.5625 -1.1041
  494MOL0     C66583   7.637   7.324  12.558  0.1844  0.2799  0.7139
  494MOL0     C66584   7.600   7.224  12.661  0.6108 -0.3560  0.2302
  494MOL0     O66585   7.691   7.219  12.764 -0.3690 -0.3583  0.1649
  494MOL0     C66586   7.650   7.148  12.879 -0.6704  0.7004 -0.1850
  494MOL0     C66587   7.544   7.173  12.959 -0.6034 -0.9682 -0.2167
  494MOL0     C66588   7.505   7.091  13.060  0.5279 -0.5413  0.8657
  494MOL0     C66589   7.574   6.974  13.085 -0.1605 -0.0614  0.6867
  494MOL0     O66590   7.530   6.908  13.186  1.0869 -0.3973 -0.8469
  494MOL0     C66591   7.605   6.811  13.252  0.5306 -0.3551  0.7520
  494MOL0     C66592   7.535   6.769  13.382  0.2570 -0.2297  0.8356
  494MOL0     C66593   7.628   6.674  13.469  0.5289 -0.0553 -0.2362
  494MOL0     C66594   7.568   6.529  13.484 -0.2907  0.0567  0.5100
  494MOL0     C66595   7.641   6.425  13.569  0.3456 -0.4645  0.2894
  494MOL0     C66596   7.577   6.286  13.551 -0.1076 -0.1631  0.4762
  494MOL0     C66597   7.659   6.182  13.630  0.5079 -0.4741 -0.1831
  494MOL0     C66598   7.683   6.046  13.564  0.6246  0.7579  0.0020
  494MOL0    Cl66599   7.784   5.944  13.686 -0.1285 -0.0489  0.1917
  494MOL0     C66600   7.681   6.943  13.001 -0.8630 -0.3401 -0.5216
  494MOL0     C66601   7.719   7.025  12.903 -0.2580 -0.7434 -0.0158
  494MOL0     O66602   7.488   7.166  12.661 -0.9407  0.1870  0.6129
  494MOL0     C66603   7.770   7.381  12.553  0.3587  0.3720 -1.0201
  494MOL0     C66604   7.810   7.476  12.469 -0.6728 -0.0653 -1.7122
  494MOL0     N66605   8.053   7.401  11.665  0.5290 -0.3616  0.1067
  494MOL0     N66606   8.010   7.355  11.552  1.5625  0.1232  0.4160
  494MOL0     C66607   6.859   7.545  11.436  0.0792 -1.1150  0.6687
  494MOL0     C66608   6.724   7.593  11.430 -0.4421 -0.5500 -0.1156
  494MOL0     C66609   6.294   7.619  11.491  0.0029  0.2056  0.1329
  494MOL0     C66610   6.227   7.643  11.371 -1.3059 -0.7952 -0.9179
  494MOL0     C66611   6.101   7.689  11.369  0.9284 -0.4032  0.9503
  494MOL0     C66612   6.039   7.708  11.498  0.1154  0.6411 -1.0532
  494MOL0     O66613   5.908   7.739  11.509  0.3387 -0.1980 -0.2150
  494MOL0     C66614   5.821   7.622  11.494 -0.5071 -0.2539 -0.0661
  494MOL0     C66615   5.769   7.596  11.345  1.0416 -0.6576  0.0414
  494MOL0     C66616   5.656   7.694  11.306  0.1069  0.3519 -1.4827
  494MOL0     C66617   5.735   7.798  11.236 -0.2343 -0.1510  0.1438
  494MOL0     C66618   5.649   7.882  11.151 -0.8971  0.1957  0.9285
  494MOL0     C66619   5.555   7.942  11.091  0.7347 -0.4764  0.0993
  494MOL0     C66620   6.103   7.673  11.619  0.3516  1.0939  0.2376
  494MOL0     C66621   6.224   7.627  11.610 -0.4419 -0.2602  0.2531
  494MOL0     C66622   6.290   7.618  11.744 -0.5460  0.0963  0.2167
  494MOL0     H66623   6.652   7.538  11.761  3.1235 -1.5285  2.6428
  494MOL0     H66624   6.867   7.424  11.754  0.9301  0.4567  0.2436
  494MOL0     H66625   7.115   7.465  11.722 -3.5672  1.7255 -1.9016
  494MOL0     H66626   7.051   7.300  11.715  0.0781 -1.3280 -1.6789
  494MOL0     H66627   7.280   7.371  11.524  0.8552 -1.7623 -0.9801
  494MOL0     H66628   7.235   7.220  11.594 -1.1409  1.5179 -1.4178
  494MOL0     H66629   7.314   7.322  11.828  0.2114  2.3085  0.7356
  494MOL0     H66630   7.377   7.457  11.739 -1.4981  0.5669 -0.4799
  494MOL0     H66631   7.564   7.265  11.793 -0.1574 -2.0503 -0.4921
  494MOL0     H66632   7.457   7.163  11.707 -0.4389 -0.4802  0.4447
  494MOL0     H66633   7.490   7.303  11.504  2.4874 -4.8056 -1.9215
  494MOL0     H66634   7.596   7.407  11.589  1.3667  0.2065 -2.9287
  494MOL0     H66635   7.749   7.222  11.632 -2.4639  1.4168  3.3592
  494MOL0     H66636   7.650   7.100  11.551 -1.2160  0.5342 -1.1522
  494MOL0     H66637   7.680   7.209  11.328 -1.6800 -1.2381  1.0732
  494MOL0     H66638   7.827   7.153  11.411  1.9757  1.4949  0.7969
  494MOL0     H66639   7.862   7.377  11.305 -1.0464  0.9620  0.1604
  494MOL0     H66640   7.726   7.443  11.373  1.3293  1.6171 -2.5278
  494MOL0     H66641   7.789   7.592  11.606  0.4715  0.8685 -1.6114
  494MOL0     H66642   8.070   7.592  11.842  0.8698 -1.1682 -2.7533
  494MOL0     H66643   7.915   7.678  11.814 -2.6152 -1.4697 -1.9915
  494MOL0     H66644   7.782   7.462  11.894 -0.1990 -2.3319  0.3926
  494MOL0     H66645   7.930   7.409  11.962 -0.7800 -0.4931 -1.6860
  494MOL0     H66646   7.759   7.641  12.032 -0.1409  2.5365  0.3572
  494MOL0     H66647   7.928   7.678  12.051  0.4244 -0.6847 -2.4935
  494MOL0     H66648   7.946   7.530  12.224  1.4513 -1.4060 -0.6460
  494MOL0     H66649   7.802   7.434  12.167 -3.1626  1.6106 -1.3809
  494MOL0     H66650   7.504   7.507  12.315 -1.4068  3.2291  1.9571
  494MOL0     H66651   7.450   7.322  12.456 -0.8108  2.5446 -2.3360
  494MOL0     H66652   7.478   7.259  12.951 -0.1809 -0.7979 -2.6023
  494MOL0     H66653   7.407   7.101  13.106  0.2953 -1.0673  0.4948
  494MOL0     H66654   7.635   6.731  13.183  0.6646  3.5135 -4.2353
  494MOL0     H66655   7.696   6.866  13.274 -1.1188  3.0464 -0.1660
  494MOL0     H66656   7.535   6.862  13.439  2.1887 -0.1436  0.7367
  494MOL0     H66657   7.438   6.725  13.357  0.4856 -0.6721  0.7284
  494MOL0     H66658   7.732   6.665  13.434  2.3279  4.2308  3.0341
  494MOL0     H66659   7.619   6.706  13.573 -1.4544 -0.8938 -0.1026
  494MOL0     H66660   7.550   6.475  13.391  0.5347 -0.2520  0.5240
  494MOL0     H66661   7.469   6.549  13.529 -0.8348  1.1085 -1.0513
  494MOL0     H66662   7.633   6.449  13.675 -1.7855 -1.3425  0.3827
  494MOL0     H66663   7.744   6.424  13.531 -0.9380 -2.0425 -3.6467
  494MOL0     H66664   7.478   6.289  13.597  0.8154 -1.2240  2.6476
  494MOL0     H66665   7.565   6.260  13.445  1.9657 -5.4231  1.2424
  494MOL0     H66666   7.604   6.160  13.722  3.8382 -3.1864  1.3879
  494MOL0     H66667   7.756   6.230  13.648 -1.2181  2.3733  2.3268
  494MOL0     H66668   7.593   5.990  13.536  1.7351 -0.9710 -0.2921
  494MOL0     H66669   7.737   6.067  13.471  0.0059  1.7292 -0.1555
  494MOL0     H66670   7.735   6.850  13.015  2.8192  1.7807  1.0955
  494MOL0     H66671   7.799   7.000  12.835  1.2900  1.3109  0.9590
  494MOL0     H66672   7.840   7.350  12.630 -2.6033 -0.1634  1.6465
  494MOL0     H66673   7.916   7.500  12.461 -1.1196  1.5541 -3.5376
  494MOL0     H66674   6.925   7.548  11.349 -2.1597 -0.4197 -1.1027
  494MOL0     H66675   6.668   7.632  11.345 -1.6432  1.4413  1.4972
  494MOL0     H66676   6.265   7.620  11.272 -0.8781 -2.0921 -0.4715
  494MOL0     H66677   6.045   7.701  11.276  3.2798  0.5838 -0.4345
  494MOL0     H66678   5.738   7.646  11.561 -1.3112  4.5271 -2.3469
  494MOL0     H66679   5.873   7.534  11.534  1.3897 -0.5610 -2.9165
  494MOL0     H66680   5.722   7.499  11.362 -1.8647  1.0251  2.4775
  494MOL0     H66681   5.846   7.568  11.272  0.0750  1.3814 -1.8745
  494MOL0     H66682   5.585   7.721  11.384  3.2103  2.3480  0.9079
  494MOL0     H66683   5.606   7.628  11.234  0.6122 -0.8829 -0.7312
  494MOL0     H66684   5.784   7.857  11.314 -0.4479  0.5429 -0.2327
  494MOL0     H66685   5.817   7.755  11.178  0.3695  1.0105  0.1100
  494MOL0     H66686   5.488   8.011  11.043  0.0440 -2.7094 -2.3399
  494MOL0     H66687   6.044   7.697  11.707 -0.1681  4.3055 -0.8595
  494MOL0     H66688   6.223   7.568  11.815  0.4280 -0.5828  0.6784
  494MOL0     H66689   6.377   7.555  11.725 -0.4202 -0.2933  1.9251
  494MOL0     H66690   6.331   7.711  11.785 -1.2711 -0.3948  2.1323
  495MOL0     O66691  11.033   9.466   5.686 -0.5183 -0.1710  0.1684
  495MOL0     C66692  10.948   9.422   5.766  0.3065  0.8939  0.1573
  495MOL0     O66693  10.948   9.458   5.904 -0.3177  0.6180 -0.4406
  495MOL0     C66694  11.054   9.540   5.948 -0.4865 -0.6305  0.0249
  495MOL0     C66695  11.022   9.673   5.972 -0.0362 -1.3029  0.1829
  495MOL0     C66696  11.134   9.748   6.022  0.3279  0.1642  0.5581
  495MOL0     C66697  11.251   9.701   6.067 -0.1317  1.0471  0.5867
  495MOL0     O66698  11.347   9.786   6.126 -0.3964  0.6815 -0.6807
  495MOL0     C66699  11.472   9.735   6.174 -0.8437  0.3114  0.4275
  495MOL0     C66700  11.515   9.805   6.304 -0.1157  0.6867 -0.8353
  495MOL0     C66701  11.663   9.784   6.336  0.2457 -0.1054 -0.2563
  495MOL0     C66702  11.675   9.678   6.435 -0.5248  0.4079 -0.3224
  495MOL0     C66703  11.827   9.669   6.480  0.8353  0.4658  0.3947
  495MOL0     C66704  11.837   9.554   6.591 -0.8519 -0.4006 -0.2120
  495MOL0     C66705  11.975   9.568   6.653  0.7297  0.8078  0.5462
  495MOL0     C66706  11.988   9.488   6.780 -0.6958 -0.9444  0.5427
  495MOL0     N66707  12.126   9.465   6.832 -0.1443  0.1943  0.5163
  495MOL0     C66708  12.194   9.540   6.922 -0.2806 -0.0621  0.0921
  495MOL0     C66709  12.288   9.458   6.977 -0.0257 -0.9846 -0.2622
  495MOL0     C66710  12.395   9.500   7.084  0.4214 -0.4077 -0.5407
  495MOL0     C66711  12.514   9.586   7.025 -0.0634  0.1425  0.5813
  495MOL0     C66712  12.622   9.639   7.112 -0.5706  1.0586 -0.5812
  495MOL0     C66713  12.571   9.723   7.229  0.4365 -1.1523 -0.0437
  495MOL0     O66714  12.586   9.651   7.353 -0.9953 -0.5132 -0.6749
  495MOL0     C66715  12.497   9.555   7.385 -0.5728  0.0267 -0.3572
  495MOL0     C66716  12.369   9.591   7.407 -0.6021  0.7633 -0.8106
  495MOL0     C66717  12.279   9.493   7.442  0.3467  0.2062  0.6632
  495MOL0     C66718  12.308   9.362   7.470 -1.1215 -0.3163  0.7224
  495MOL0     C66719  12.212   9.264   7.512  0.5329 -0.2964 -0.0079
  495MOL0     O66720  12.241   9.130   7.532 -0.0728 -0.8014  0.5285
  495MOL0     C66721  12.153   9.051   7.609 -0.5843  0.0515  0.3399
  495MOL0     C66722  12.015   9.042   7.591  0.4883 -0.1563  1.3625
  495MOL0     C66723  11.935   8.954   7.668  0.0527  0.1215 -0.0266
  495MOL0     C66724  11.991   8.893   7.773  0.4325  1.3388  0.1429
  495MOL0     O66725  11.932   8.808   7.867 -1.1599  0.4599 -0.4449
  495MOL0     C66726  11.805   8.756   7.829 -1.4327 -0.0493 -0.5589
  495MOL0     C66727  11.753   8.670   7.949  0.9698  0.2960  0.7905
  495MOL0     C66728  11.632   8.580   7.904 -0.2151  0.3443 -1.6958
  495MOL0     C66729  11.614   8.490   8.024  0.2316 -1.4704  0.0180
  495MOL0     C66730  11.518   8.374   7.998  0.3188  0.2516  0.1296
  495MOL0     C66731  11.518   8.280   8.121  0.1007  0.1743 -0.3950
  495MOL0     C66732  11.435   8.147   8.076 -0.4246  0.9596  1.7214
  495MOL0     C66733  11.440   8.037   8.184  1.1093  0.7776  0.7443
  495MOL0    Cl66734  11.347   7.880   8.151  0.1591  0.1634 -0.1070
  495MOL0     C66735  12.132   8.896   7.795  0.6023 -0.3204  0.2881
  495MOL0     C66736  12.214   8.962   7.703 -0.2143 -1.0104  0.2824
  495MOL0     O66737  12.102   9.312   7.531  0.3862 -0.5300 -0.3660
  495MOL0     C66738  12.448   9.331   7.452 -0.0022  0.6064  0.1493
  495MOL0     C66739  12.541   9.428   7.404  0.9894  0.5572  0.6172
  495MOL0     N66740  12.287   9.345   6.899  0.5184  0.3980 -0.6108
  495MOL0     N66741  12.190   9.346   6.824  0.6705 -0.5203  0.1666
  495MOL0     C66742  11.276   9.563   6.053 -1.1333  0.2061 -0.0884
  495MOL0     C66743  11.180   9.487   5.989 -0.2688 -0.0481  0.6066
  495MOL0     C66744  10.845   9.318   5.725 -0.0118 -1.7934  0.6585
  495MOL0     C66745  10.742   9.294   5.820  0.0030  0.2390 -0.0231
  495MOL0     C66746  10.646   9.188   5.808  0.4182 -0.6841 -0.9142
  495MOL0     C66747  10.651   9.107   5.692  0.6853 -0.4688  0.5311
  495MOL0     O66748  10.576   8.989   5.675 -0.5853  0.2063  1.0060
  495MOL0     C66749  10.431   9.011   5.679  0.4867  0.1916  0.1378
  495MOL0     C66750  10.359   8.887   5.622 -0.1221 -0.6603 -0.2148
  495MOL0     C66751  10.379   8.883   5.475  0.0310 -0.2259  1.3027
  495MOL0     C66752  10.273   8.786   5.422  0.0699 -0.5901 -0.8263
  495MOL0     C66753  10.303   8.650   5.470  0.2059  0.2093  0.1828
  495MOL0     C66754  10.354   8.549   5.515 -0.0478 -0.6282 -0.0833
  495MOL0     C66755  10.751   9.139   5.593 -0.2237  0.4907 -1.2238
  495MOL0     C66756  10.849   9.241   5.611 -0.0389  0.8093  0.9306
  495MOL0     C66757  10.959   9.236   5.514  0.7177 -0.6120  0.3505
  495MOL0     H66758  10.929   9.726   5.955  1.3616  1.2540  0.0699
  495MOL0     H66759  11.119   9.853   6.047 -1.2923 -0.0479  0.5571
  495MOL0     H66760  11.472   9.630   6.206  2.4055 -0.4218 -1.5304
  495MOL0     H66761  11.539   9.748   6.089  2.5096  1.1257  2.9964
  495MOL0     H66762  11.448   9.763   6.380 -1.0694  0.8151 -1.5789
  495MOL0     H66763  11.496   9.912   6.302  2.5409  1.2282  0.0946
  495MOL0     H66764  11.696   9.873   6.390 -1.4864 -0.9057  2.3406
  495MOL0     H66765  11.729   9.765   6.251  0.8904 -2.6529  0.7193
  495MOL0     H66766  11.618   9.699   6.527 -0.0598 -3.3310  1.0183
  495MOL0     H66767  11.633   9.587   6.390 -2.8816  1.5997 -0.6560
  495MOL0     H66768  11.880   9.637   6.390  1.5993 -0.3055  1.0944
  495MOL0     H66769  11.868   9.763   6.518  3.5847 -0.3331 -0.4019
  495MOL0     H66770  11.770   9.576   6.675  0.9685  2.3829  0.6392
  495MOL0     H66771  11.811   9.457   6.548 -0.7116  0.7052 -3.0245
  495MOL0     H66772  11.979   9.673   6.684  1.5204  2.1803 -3.4843
  495MOL0     H66773  12.055   9.536   6.586 -0.4602 -1.6747  0.1910
  495MOL0     H66774  11.937   9.556   6.849  0.2288  1.7627 -1.2955
  495MOL0     H66775  11.944   9.388   6.769  0.4164 -1.6030  1.7884
  495MOL0     H66776  12.180   9.646   6.940 -0.3672  0.1936 -1.3395
  495MOL0     H66777  12.339   9.545   7.166 -0.2145 -0.8981 -0.7026
  495MOL0     H66778  12.446   9.412   7.125 -0.8536  0.3078  2.8305
  495MOL0     H66779  12.554   9.532   6.938 -3.3964  0.1043 -1.0802
  495MOL0     H66780  12.465   9.674   6.982 -0.2815 -1.5102 -2.8943
  495MOL0     H66781  12.694   9.697   7.054  0.3785 -0.3401 -0.8634
  495MOL0     H66782  12.671   9.550   7.155 -3.5395 -1.0337 -1.1898
  495MOL0     H66783  12.469   9.753   7.204  1.0528 -1.3617 -3.2203
  495MOL0     H66784  12.624   9.816   7.253 -1.5608 -0.3895  1.7358
  495MOL0     H66785  12.328   9.691   7.405 -1.0906  0.5562 -1.6394
  495MOL0     H66786  12.176   9.524   7.456  0.7656  0.2132  4.8855
  495MOL0     H66787  11.962   9.078   7.503 -1.3468 -0.5113  2.2646
  495MOL0     H66788  11.832   8.947   7.633 -0.3514  3.3301  0.2201
  495MOL0     H66789  11.729   8.827   7.795 -1.6773  0.7376  1.5043
  495MOL0     H66790  11.819   8.693   7.741  3.7621  0.4398 -0.3586
  495MOL0     H66791  11.835   8.606   7.982 -1.4244 -2.7333  1.3093
  495MOL0     H66792  11.722   8.742   8.026  1.0175 -0.9935  2.0631
  495MOL0     H66793  11.550   8.652   7.892 -1.3991 -0.8438 -1.0931
  495MOL0     H66794  11.650   8.525   7.811  1.5519 -2.5542  0.1993
  495MOL0     H66795  11.578   8.554   8.104  2.9330  0.7750 -0.3951
  495MOL0     H66796  11.708   8.454   8.066  0.0848 -0.3564  1.3409
  495MOL0     H66797  11.544   8.330   7.901  2.4854  0.6137  0.4957
  495MOL0     H66798  11.421   8.421   7.981  1.5247  2.5923 -0.7325
  495MOL0     H66799  11.615   8.247   8.159  0.2140  0.9888  0.0534
  495MOL0     H66800  11.470   8.337   8.202  0.3140 -1.3079  0.8044
  495MOL0     H66801  11.487   8.118   7.985 -3.0085  1.7128 -0.0970
  495MOL0     H66802  11.331   8.169   8.049 -0.3491 -0.9553 -0.3906
  495MOL0     H66803  11.544   8.005   8.194  2.6657  5.3108  1.5383
  495MOL0     H66804  11.406   8.075   8.281  1.2340  0.0230  1.0925
  495MOL0     H66805  12.170   8.836   7.876 -0.9066  2.0685  2.9346
  495MOL0     H66806  12.322   8.970   7.706 -0.2302  3.5426 -2.5103
  495MOL0     H66807  12.490   9.233   7.475  0.5030  1.2444  2.0873
  495MOL0     H66808  12.642   9.391   7.387 -0.4433 -2.3197 -2.8090
  495MOL0     H66809  11.365   9.510   6.086  1.9373  1.9513 -4.5744
  495MOL0     H66810  11.190   9.379   5.976  4.4896  0.2553 -0.3167
  495MOL0     H66811  10.751   9.342   5.917 -1.8165  0.6735 -0.0332
  495MOL0     H66812  10.591   9.161   5.897  2.5270  1.4303  1.1944
  495MOL0     H66813  10.418   9.093   5.608  2.2440 -0.6849 -1.2928
  495MOL0     H66814  10.399   9.030   5.781  0.4163 -0.7218  0.2900
  495MOL0     H66815  10.255   8.900   5.655  0.7438  1.4007  2.0972
  495MOL0     H66816  10.411   8.801   5.666  0.3052 -1.1102 -1.5485
  495MOL0     H66817  10.477   8.860   5.431 -1.6327 -0.3936 -2.7236
  495MOL0     H66818  10.346   8.973   5.423  0.6936 -1.4214 -1.3029
  495MOL0     H66819  10.174   8.820   5.453  0.3485 -0.9088  0.4344
  495MOL0     H66820  10.264   8.786   5.313 -2.2494  2.8909 -0.8191
  495MOL0     H66821  10.408   8.466   5.554  0.3976 -1.3590 -2.1101
  495MOL0     H66822  10.768   9.067   5.515  3.1334  2.5264 -2.5744
  495MOL0     H66823  10.957   9.311   5.435  0.4138 -0.5777  0.3889
  495MOL0     H66824  11.053   9.230   5.570  0.2838  0.3103  1.2078
  495MOL0     H66825  10.948   9.143   5.457 -2.7698 -0.3087  0.3322
  496MOL0     O66826  10.638   8.733   7.318  0.6245  0.5297 -0.3989
  496MOL0     C66827  10.715   8.801   7.244 -0.0553 -0.0485  0.1928
  496MOL0     O66828  10.690   8.928   7.215  0.4380 -0.4125 -0.1979
  496MOL0     C66829  10.628   9.008   7.315 -0.8336  1.7158  0.0437
  496MOL0     C66830  10.696   9.088   7.401 -0.5974  0.6429  0.5208
  496MOL0     C66831  10.620   9.170   7.485  0.3213 -0.6787  0.2017
  496MOL0     C66832  10.482   9.172   7.472 -0.4242 -0.0049 -0.2143
  496MOL0     O66833  10.414   9.263   7.544  0.0658  0.1908  0.1740
  496MOL0     C66834  10.288   9.223   7.599  0.5441  0.3459 -0.8539
  496MOL0     C66835  10.278   9.084   7.676  0.5017  0.7800  0.6680
  496MOL0     C66836  10.169   9.057   7.790 -0.5572  0.4893  1.4464
  496MOL0     C66837  10.174   8.928   7.869  0.0192 -0.1081  0.0218
  496MOL0     C66838  10.069   8.928   7.982 -0.2151 -0.0701 -0.1634
  496MOL0     C66839  10.096   8.793   8.054  0.3645  0.1573 -1.0571
  496MOL0     C66840  10.083   8.812   8.206  0.0332  0.4975 -0.6511
  496MOL0     C66841  10.092   8.685   8.292  0.7105  0.4293  0.4276
  496MOL0     N66842  10.232   8.630   8.282 -0.2604  0.4095  0.4801
  496MOL0     C66843  10.266   8.523   8.204  1.1132 -0.6263  1.4015
  496MOL0     C66844  10.397   8.526   8.208 -1.2991 -0.4407  0.0897
  496MOL0     C66845  10.502   8.438   8.129 -0.2352 -0.7106 -0.2443
  496MOL0     C66846  10.496   8.295   8.180  0.2347  0.7618 -0.1601
  496MOL0     C66847  10.539   8.268   8.329  0.9805  0.0794 -0.6686
  496MOL0     C66848  10.513   8.117   8.356  0.2475 -0.2180  0.0873
  496MOL0     O66849  10.585   8.019   8.284  0.0468  0.2426 -0.5034
  496MOL0     C66850  10.709   7.979   8.339  0.4403  1.0173 -0.3325
  496MOL0     C66851  10.753   7.849   8.300 -0.0554 -0.4212  0.0610
  496MOL0     C66852  10.858   7.790   8.375 -0.4762 -0.2293  1.1430
  496MOL0     C66853  10.932   7.867   8.465  0.1188 -1.0309 -0.0130
  496MOL0     C66854  11.066   7.827   8.513  0.4520  0.0239 -0.8613
  496MOL0     O66855  11.115   7.878   8.635  0.0177 -0.7225 -0.8264
  496MOL0     C66856  11.250   7.880   8.657 -0.3318  0.3990 -0.2560
  496MOL0     C66857  11.285   7.828   8.782  0.1611 -0.3077  0.5252
  496MOL0     C66858  11.425   7.804   8.806  0.0362 -0.1905  0.0432
  496MOL0     C66859  11.520   7.833   8.705 -0.1275 -1.0985  0.6399
  496MOL0     O66860  11.662   7.828   8.722 -0.0879 -0.3992  0.0514
  496MOL0     C66861  11.722   7.775   8.843  0.3663 -0.1320 -0.2615
  496MOL0     C66862  11.871   7.771   8.831  0.2643 -0.5328  0.4960
  496MOL0     C66863  11.934   7.719   8.965  0.5638 -0.4929  0.9093
  496MOL0     C66864  12.093   7.741   8.966  0.2408  0.2637  0.1830
  496MOL0     C66865  12.149   7.699   9.096  0.3216  0.8779 -0.8212
  496MOL0     C66866  12.300   7.709   9.075 -0.5604  0.7095  0.2424
  496MOL0     C66867  12.376   7.602   9.160 -0.1594  0.8750  0.4631
  496MOL0     C66868  12.530   7.587   9.118  0.6033 -0.7369 -0.3131
  496MOL0    Cl66869  12.570   7.417   9.133  0.5104  0.2319  0.3351
  496MOL0     C66870  11.477   7.889   8.590 -0.8999 -2.1148 -0.3293
  496MOL0     C66871  11.350   7.917   8.561 -0.7111 -0.0072  0.0107
  496MOL0     O66872  11.124   7.747   8.441  0.7224  0.1577  0.4415
  496MOL0     C66873  10.874   7.987   8.520 -0.9544 -1.0766 -0.1531
  496MOL0     C66874  10.762   8.039   8.454 -0.2247  0.0800  0.3371
  496MOL0     N66875  10.447   8.622   8.303  0.2865  0.2064  0.4300
  496MOL0     N66876  10.336   8.669   8.358  0.4743 -0.0805  0.1581
  496MOL0     C66877  10.409   9.088   7.392 -0.3240  0.3995  0.7455
  496MOL0     C66878  10.490   9.007   7.310  0.0702 -0.8507 -0.1900
  496MOL0     C66879  10.807   8.727   7.165  0.3027  0.8697  0.1156
  496MOL0     C66880  10.837   8.788   7.040  0.7751 -0.7629  0.1859
  496MOL0     C66881  10.930   8.733   6.952  0.2184  0.6844 -0.3746
  496MOL0     C66882  11.000   8.623   6.985  0.7895  0.2316 -0.7566
  496MOL0     O66883  11.082   8.581   6.886 -0.5943 -0.6550 -0.3081
  496MOL0     C66884  11.043   8.456   6.845 -0.2493  0.4517 -0.1573
  496MOL0     C66885  11.116   8.406   6.722 -0.2905 -0.6799  0.5175
  496MOL0     C66886  11.270   8.396   6.759 -0.5890  0.4851  0.6088
  496MOL0     C66887  11.347   8.301   6.672  0.1169 -0.4586 -0.8810
  496MOL0     C66888  11.370   8.349   6.535 -1.0043 -0.3216 -0.2892
  496MOL0     C66889  11.378   8.373   6.419 -0.5610  0.7529  0.0861
  496MOL0     C66890  10.973   8.555   7.102 -0.5657  0.6371  0.6203
  496MOL0     C66891  10.882   8.604   7.199  0.2582 -0.9589 -1.1834
  496MOL0     C66892  10.876   8.534   7.336  0.3880 -1.2234  0.1495
  496MOL0     H66893  10.803   9.097   7.417  0.0583  0.3434 -2.9921
  496MOL0     H66894  10.665   9.236   7.558 -0.3325 -3.0498  2.9057
  496MOL0     H66895  10.275   9.296   7.680 -0.1530 -1.5944  0.8697
  496MOL0     H66896  10.205   9.231   7.528  1.7394 -3.3821 -2.9479
  496MOL0     H66897  10.371   9.059   7.728 -0.3154 -3.6080  0.4040
  496MOL0     H66898  10.252   9.009   7.600  0.4229  3.8325 -2.6117
  496MOL0     H66899  10.074   9.052   7.737  0.4847 -0.0975 -0.4365
  496MOL0     H66900  10.170   9.144   7.856 -2.2339  1.0930  0.7266
  496MOL0     H66901  10.173   8.846   7.797  2.9450  1.8650 -2.5512
  496MOL0     H66902  10.275   8.928   7.911  0.0546  1.4668 -0.0123
  496MOL0     H66903  10.077   9.009   8.054 -2.0085  0.4042 -0.4531
  496MOL0     H66904   9.965   8.936   7.951 -0.3626  5.3754  0.8187
  496MOL0     H66905  10.033   8.716   8.008  0.2159  0.7053 -1.8018
  496MOL0     H66906  10.197   8.764   8.025  0.4466 -0.0805 -0.5262
  496MOL0     H66907   9.992   8.870   8.222  0.0380  0.9293 -2.0370
  496MOL0     H66908  10.158   8.884   8.237 -1.0881  1.8682 -1.0424
  496MOL0     H66909  10.085   8.699   8.400  2.6999 -4.0454  1.3674
  496MOL0     H66910  10.020   8.609   8.260 -3.0561  2.5015  3.0926
  496MOL0     H66911  10.200   8.460   8.145  0.3155  1.6322 -0.2763
  496MOL0     H66912  10.480   8.432   8.022  0.8087 -1.7439 -0.4164
  496MOL0     H66913  10.604   8.471   8.149 -0.9707 -0.4012  3.6125
  496MOL0     H66914  10.394   8.259   8.165  0.3920  0.3815 -0.3325
  496MOL0     H66915  10.551   8.227   8.114 -1.0237  0.0534 -0.5134
  496MOL0     H66916  10.483   8.335   8.395 -0.4161  0.6927 -2.3940
  496MOL0     H66917  10.645   8.288   8.346  1.5753 -3.2340  0.1868
  496MOL0     H66918  10.411   8.095   8.321  0.4194 -1.0655  0.1051
  496MOL0     H66919  10.510   8.103   8.464 -0.1811  2.5875  0.5294
  496MOL0     H66920  10.706   7.794   8.219  0.0973  1.3951 -1.3137
  496MOL0     H66921  10.906   7.694   8.359 -0.7558 -0.2680  0.5004
  496MOL0     H66922  11.208   7.808   8.855  0.4080 -1.2339  0.5424
  496MOL0     H66923  11.472   7.770   8.898 -3.2043 -0.6236  1.6871
  496MOL0     H66924  11.696   7.845   8.922 -0.2404 -1.9305  1.1978
  496MOL0     H66925  11.671   7.681   8.865 -2.2910  0.8632 -1.6885
  496MOL0     H66926  11.892   7.702   8.749 -2.4164 -0.9998  0.0972
  496MOL0     H66927  11.915   7.870   8.810  1.5270 -0.8072  1.6806
  496MOL0     H66928  11.897   7.772   9.053 -0.8399 -0.3506  0.2568
  496MOL0     H66929  11.909   7.613   8.955 -2.8563  0.1591  1.4328
  496MOL0     H66930  12.107   7.848   8.945 -1.1061  0.6141  0.8882
  496MOL0     H66931  12.149   7.673   8.902 -0.9140 -1.2313  0.6935
  496MOL0     H66932  12.123   7.598   9.130 -1.5433  1.9741  1.2775
  496MOL0     H66933  12.124   7.776   9.169  2.1928  0.4380  0.3564
  496MOL0     H66934  12.327   7.693   8.971 -0.4194  0.0627  0.3757
  496MOL0     H66935  12.327   7.811   9.107  2.8257  1.1699 -3.3568
  496MOL0     H66936  12.326   7.506   9.148  0.5421  0.2537  2.2213
  496MOL0     H66937  12.389   7.620   9.267  3.2556  2.0072 -0.0313
  496MOL0     H66938  12.544   7.625   9.016  1.5107  0.9450  0.4040
  496MOL0     H66939  12.579   7.659   9.184 -2.3194  0.4704  0.7248
  496MOL0     H66940  11.546   7.933   8.519 -1.8095 -0.1997 -0.1002
  496MOL0     H66941  11.324   7.965   8.467 -0.4006 -1.6833 -0.9728
  496MOL0     H66942  10.924   8.050   8.591  2.1398 -1.2005 -2.0364
  496MOL0     H66943  10.729   8.132   8.498 -2.2001 -0.2509 -0.3321
  496MOL0     H66944  10.302   9.100   7.376 -1.0942 -3.4575  2.0849
  496MOL0     H66945  10.451   8.934   7.239 -2.2459  1.1920 -1.1693
  496MOL0     H66946  10.791   8.877   6.998  3.1764  1.0921  1.2599
  496MOL0     H66947  10.962   8.797   6.871 -0.0396  1.9168  0.4759
  496MOL0     H66948  10.935   8.458   6.829 -0.5556 -1.2543  1.4337
  496MOL0     H66949  11.065   8.373   6.913  0.1717 -1.6052 -2.6298
  496MOL0     H66950  11.105   8.469   6.634  0.0155 -3.3404 -1.5230
  496MOL0     H66951  11.057   8.315   6.709  0.8242 -1.5831  1.5515
  496MOL0     H66952  11.289   8.361   6.860 -1.6345 -0.5931  0.4472
  496MOL0     H66953  11.314   8.497   6.761 -0.7300  0.5498  2.5675
  496MOL0     H66954  11.446   8.296   6.719  0.3318 -0.9389 -1.3743
  496MOL0     H66955  11.302   8.201   6.665  1.2783 -0.8876 -3.9494
  496MOL0     H66956  11.373   8.405   6.317 -1.3965 -0.2337 -0.1970
  496MOL0     H66957  11.043   8.473   7.118 -1.0511  0.2279  0.6888
  496MOL0     H66958  10.797   8.458   7.330 -0.3644 -0.4447 -0.0098
  496MOL0     H66959  10.969   8.481   7.359 -0.3139 -2.2414  0.7248
  496MOL0     H66960  10.849   8.610   7.411 -0.1426  0.1074 -1.3344
  497MOL0     O66961  10.327   6.625   8.358 -0.1967  0.0083 -0.7322
  497MOL0     C66962  10.305   6.523   8.302  0.2339  0.6701  0.2184
  497MOL0     O66963  10.293   6.511   8.167  0.7162  0.2782  0.5779
  497MOL0     C66964  10.287   6.633   8.104 -0.6469  1.1720  0.0017
  497MOL0     C66965  10.379   6.662   8.004  0.3702 -0.2756 -0.5816
  497MOL0     C66966  10.365   6.772   7.921  0.3382 -0.5102 -0.3339
  497MOL0     C66967  10.255   6.861   7.938  0.6242  0.6091 -0.8845
  497MOL0     O66968  10.249   6.986   7.866 -0.3184  1.3907 -0.1502
  497MOL0     C66969  10.247   6.955   7.724  0.1381  0.7942 -0.0081
  497MOL0     C66970  10.136   7.042   7.657  0.0407  0.7659  0.5272
  497MOL0     C66971  10.134   7.000   7.515 -0.1471 -0.6088 -0.2839
  497MOL0     C66972  10.057   7.105   7.440  0.2899 -0.0133  1.5630
  497MOL0     C66973  10.030   7.054   7.300 -0.2316 -0.6932  0.2127
  497MOL0     C66974  10.154   7.056   7.206 -0.2167 -0.2559 -0.5980
  497MOL0     C66975  10.125   7.031   7.051 -0.1390  0.5218  0.5401
  497MOL0     C66976  10.015   6.920   7.019  0.4387  0.3837  0.4621
  497MOL0     N66977  10.075   6.782   7.024  0.5073  0.4597 -0.1736
  497MOL0     C66978  10.006   6.664   7.030  1.1054 -0.5891 -0.6776
  497MOL0     C66979  10.096   6.571   7.014 -0.4083 -0.3279  0.3600
  497MOL0     C66980  10.072   6.429   7.027  1.0349  0.0908  0.4919
  497MOL0     C66981  10.184   6.352   7.094 -0.2543 -0.6204 -0.4516
  497MOL0     C66982  10.169   6.200   7.116 -0.3116 -0.2909 -1.0437
  497MOL0     C66983  10.118   6.120   6.997 -0.3971 -0.7163 -1.4090
  497MOL0     O66984   9.986   6.153   6.965  0.5894  0.1214  0.2253
  497MOL0     C66985   9.902   6.075   7.043 -0.2844  2.1953  0.7429
  497MOL0     C66986   9.832   6.130   7.150  0.3499 -0.4485  0.0366
  497MOL0     C66987   9.763   6.054   7.239  0.4453 -0.2708  0.4967
  497MOL0     C66988   9.751   5.914   7.224  0.4638 -0.3279  0.4240
  497MOL0     C66989   9.657   5.839   7.313  0.3564  0.3667 -0.2797
  497MOL0     O66990   9.588   5.913   7.408  0.4596 -0.9441 -0.2678
  497MOL0     C66991   9.493   5.838   7.476 -0.6361 -0.8248 -0.1309
  497MOL0     C66992   9.368   5.836   7.414  0.4431 -0.0390 -0.7667
  497MOL0     C66993   9.259   5.771   7.479 -0.0653  0.4299  0.3079
  497MOL0     C66994   9.289   5.721   7.606 -0.2791 -0.4820  1.1884
  497MOL0     O66995   9.177   5.673   7.668 -0.6727 -0.6217 -0.6314
  497MOL0     C66996   9.201   5.556   7.738  0.0936 -0.6025  0.0045
  497MOL0     C66997   9.125   5.549   7.865 -0.3497  0.5852 -1.2902
  497MOL0     C66998   9.162   5.663   7.972 -0.7669  0.5058 -0.1541
  497MOL0     C66999   9.075   5.669   8.099  0.3718  0.2705 -0.3149
  497MOL0     C67000   9.063   5.543   8.186 -0.3548  0.1639 -0.3791
  497MOL0     C67001   9.207   5.485   8.227  0.5491  0.1106 -0.1488
  497MOL0     C67002   9.219   5.366   8.325 -0.3903  0.6007  0.5857
  497MOL0     C67003   9.150   5.386   8.460 -0.7569  0.0493  0.0793
  497MOL0    Cl67004   9.164   5.239   8.551 -0.2131  0.3849  0.1152
  497MOL0     C67005   9.407   5.743   7.674  0.4748 -0.4585  0.0872
  497MOL0     C67006   9.515   5.793   7.606 -0.1495  0.9285  0.0836
  497MOL0     O67007   9.642   5.718   7.300 -0.9505  0.4013 -0.8393
  497MOL0     C67008   9.824   5.855   7.118  0.0896 -0.0843  1.3091
  497MOL0     C67009   9.907   5.932   7.038  0.2323 -0.1150 -0.3601
  497MOL0     N67010  10.220   6.630   7.014 -0.1041  0.2950 -0.8067
  497MOL0     N67011  10.210   6.757   7.022 -0.4580 -0.4093  0.3723
  497MOL0     C67012  10.165   6.841   8.049 -0.2436  0.7882 -0.1767
  497MOL0     C67013  10.171   6.723   8.121 -1.2202  0.0516 -1.1765
  497MOL0     C67014  10.318   6.398   8.385 -1.3497 -0.1054 -0.7428
  497MOL0     C67015  10.268   6.279   8.340  1.1364  0.4530 -0.0965
  497MOL0     C67016  10.273   6.154   8.398  1.7974  0.4334 -0.7321
  497MOL0     C67017  10.343   6.157   8.522 -0.0827  0.7541 -0.4046
  497MOL0     O67018  10.371   6.045   8.590 -0.0352 -0.0413 -0.4868
  497MOL0     C67019  10.280   5.932   8.585  0.2408  0.5894  0.2063
  497MOL0     C67020  10.340   5.804   8.648  0.5843 -0.5943  0.4394
  497MOL0     C67021  10.246   5.675   8.646 -0.8252 -0.8654 -0.6608
  497MOL0     C67022  10.299   5.542   8.710 -0.4417  0.0612  0.0390
  497MOL0     C67023  10.370   5.561   8.836 -0.4214  0.7597  0.4248
  497MOL0     C67024  10.424   5.581   8.942 -1.1974  1.5653  0.8857
  497MOL0     C67025  10.398   6.269   8.569  0.0108 -0.7001 -0.2822
  497MOL0     C67026  10.395   6.394   8.507 -0.6930  0.8687 -0.3503
  497MOL0     C67027  10.474   6.504   8.566  0.5273 -0.6304  0.5314
  497MOL0     H67028  10.469   6.604   7.992 -0.6685 -2.2509  0.5973
  497MOL0     H67029  10.431   6.789   7.837 -0.0880 -2.2649 -1.0716
  497MOL0     H67030  10.340   6.986   7.674 -0.0347 -2.4766 -2.7194
  497MOL0     H67031  10.227   6.851   7.699 -0.2200  0.6214  0.9535
  497MOL0     H67032  10.172   7.145   7.655  1.2614  0.3572  0.9757
  497MOL0     H67033  10.033   7.032   7.694 -1.2736  0.2169 -2.8194
  497MOL0     H67034  10.082   6.904   7.507 -1.7190  0.1347  0.4036
  497MOL0     H67035  10.235   6.996   7.475  0.0591 -1.3964  0.2855
  497MOL0     H67036   9.967   7.124   7.499  0.3715  1.8296  1.1748
  497MOL0     H67037  10.113   7.199   7.428  0.7685 -0.4974 -0.1763
  497MOL0     H67038   9.988   6.954   7.312 -1.9952  0.0692  0.7349
  497MOL0     H67039   9.945   7.116   7.268 -0.8726 -1.8157 -0.3173
  497MOL0     H67040  10.203   7.154   7.212 -3.5473  1.6851 -2.0592
  497MOL0     H67041  10.231   6.983   7.233  0.3892  0.7626  0.5662
  497MOL0     H67042  10.221   7.010   7.003  0.2665  1.3345  0.9784
  497MOL0     H67043  10.095   7.124   7.002 -3.0748 -2.5048 -4.2327
  497MOL0     H67044   9.931   6.932   7.088 -1.3477  0.3278 -1.6045
  497MOL0     H67045   9.974   6.938   6.920  0.6576 -0.7676  0.1422
  497MOL0     H67046   9.899   6.656   7.049  0.9020 -1.3104 -2.0095
  497MOL0     H67047   9.977   6.419   7.080  0.4070 -1.3900 -0.8369
  497MOL0     H67048  10.068   6.382   6.929 -0.9892 -0.7438  0.9246
  497MOL0     H67049  10.268   6.368   7.026 -0.2951  2.5603  0.1178
  497MOL0     H67050  10.207   6.393   7.193 -0.2121  4.1063 -2.1442
  497MOL0     H67051  10.101   6.185   7.200 -0.7224 -1.9677 -1.6241
  497MOL0     H67052  10.261   6.163   7.161 -1.1906 -1.7566 -0.3980
  497MOL0     H67053  10.140   6.015   7.016 -0.6513 -0.4469  0.5722
  497MOL0     H67054  10.181   6.156   6.915 -0.4403  2.8416 -0.0650
  497MOL0     H67055   9.836   6.238   7.152  0.0619 -0.4092 -0.9610
  497MOL0     H67056   9.710   6.104   7.319  1.0717  1.9285 -0.3734
  497MOL0     H67057   9.368   5.872   7.311 -2.2497  3.5802  0.3142
  497MOL0     H67058   9.162   5.754   7.433 -0.1182 -0.0804  0.6027
  497MOL0     H67059   9.163   5.470   7.682 -0.5181 -1.0951  1.1327
  497MOL0     H67060   9.306   5.536   7.762 -0.0771  1.0233  2.4354
  497MOL0     H67061   9.017   5.535   7.849  0.3569 -2.3199 -4.8737
  497MOL0     H67062   9.156   5.459   7.920 -1.1586  2.1402  2.0019
  497MOL0     H67063   9.265   5.656   8.008  1.5198 -0.6982 -5.8185
  497MOL0     H67064   9.156   5.762   7.925  1.5069  1.5842  1.6328
  497MOL0     H67065   8.974   5.695   8.066  0.6774 -0.2972 -1.7683
  497MOL0     H67066   9.111   5.749   8.163  1.4555 -0.9820  0.7173
  497MOL0     H67067   9.016   5.473   8.115  2.3010 -1.7066 -0.4619
  497MOL0     H67068   8.993   5.549   8.269  0.8079 -3.1039  1.0119
  497MOL0     H67069   9.261   5.464   8.134  0.6317 -1.1372  0.1630
  497MOL0     H67070   9.263   5.569   8.268  0.2653 -0.3823  1.2856
  497MOL0     H67071   9.322   5.338   8.349  0.1377  1.7339 -0.2862
  497MOL0     H67072   9.169   5.280   8.279 -0.6933 -0.0340  2.0448
  497MOL0     H67073   9.212   5.466   8.500 -1.9818  1.3256 -0.4815
  497MOL0     H67074   9.042   5.404   8.449 -0.4245  2.6052  0.4044
  497MOL0     H67075   9.423   5.706   7.775  2.4681  3.1780  1.2645
  497MOL0     H67076   9.606   5.794   7.666 -0.7625 -0.4523  1.0983
  497MOL0     H67077   9.809   5.748   7.108 -1.3313  0.1669  0.5273
  497MOL0     H67078   9.957   5.891   6.951 -0.1181 -1.4863  0.0653
  497MOL0     H67079  10.096   6.915   8.089 -0.5157 -0.2631  1.4408
  497MOL0     H67080  10.094   6.705   8.194 -1.4133 -0.1727 -1.4351
  497MOL0     H67081  10.218   6.287   8.244 -1.3657  0.0358  1.0938
  497MOL0     H67082  10.231   6.061   8.360 -1.3962  1.2360  0.4864
  497MOL0     H67083  10.257   5.906   8.481  0.9566 -0.9724  0.4147
  497MOL0     H67084  10.190   5.966   8.637  1.1024  1.4692  1.1489
  497MOL0     H67085  10.358   5.838   8.750  1.0531  0.1579  0.1143
  497MOL0     H67086  10.431   5.783   8.591  0.2629  1.7304 -1.0631
  497MOL0     H67087  10.222   5.661   8.541 -0.7226  1.1454 -0.9871
  497MOL0     H67088  10.153   5.695   8.700 -0.6482 -0.9789 -0.3087
  497MOL0     H67089  10.221   5.473   8.743  1.2604 -0.4455  3.4329
  497MOL0     H67090  10.347   5.486   8.629  1.7265  0.7426  0.7792
  497MOL0     H67091  10.493   5.590   9.023  0.0360 -1.8827  0.3893
  497MOL0     H67092  10.455   6.263   8.661  0.3107  2.1576 -0.1846
  497MOL0     H67093  10.412   6.589   8.594  0.6987 -0.1009 -0.6334
  497MOL0     H67094  10.548   6.481   8.643 -1.7182 -2.9442  2.1891
  497MOL0     H67095  10.546   6.545   8.494 -0.6414 -0.6581 -0.6875
  498MOL0     O67096   7.741   5.642   9.597  0.5825  0.1549 -0.8457
  498MOL0     C67097   7.861   5.661   9.598  1.0431  0.1043 -0.3515
  498MOL0     O67098   7.938   5.680   9.484 -0.8725 -0.6446  0.4798
  498MOL0     C67099   7.879   5.717   9.370  0.1245  0.1107 -0.1348
  498MOL0     C67100   7.823   5.846   9.359  1.0584  0.1919  0.0065
  498MOL0     C67101   7.732   5.877   9.252  0.8332  0.1562  0.5471
  498MOL0     C67102   7.710   5.781   9.150 -0.3436 -0.4565 -0.0187
  498MOL0     O67103   7.628   5.805   9.041 -0.5471 -0.4369  0.5862
  498MOL0     C67104   7.593   5.938   9.015  0.3455 -1.1117  0.2789
  498MOL0     C67105   7.723   6.016   8.964  0.5701 -0.3635  0.7114
  498MOL0     C67106   7.666   6.123   8.868 -0.2401 -0.5864 -1.2355
  498MOL0     C67107   7.758   6.252   8.879 -0.0404 -0.1791  0.3389
  498MOL0     C67108   7.688   6.371   8.808  0.0099  0.6080  0.3044
  498MOL0     C67109   7.751   6.502   8.857  0.5624 -0.0876  0.3361
  498MOL0     C67110   7.883   6.533   8.783 -1.3180  0.4669  0.2250
  498MOL0     C67111   7.992   6.598   8.879  0.6506  0.4934  0.1221
  498MOL0     N67112   8.030   6.516   8.987 -0.3998 -0.3750 -0.4691
  498MOL0     C67113   8.123   6.418   8.993  0.4329 -0.1641  0.3590
  498MOL0     C67114   8.137   6.390   9.123 -0.0270 -0.0894 -0.6949
  498MOL0     C67115   8.221   6.285   9.185  0.4039  0.2833  0.5474
  498MOL0     C67116   8.231   6.156   9.102  0.5187  0.2236 -0.1225
  498MOL0     C67117   8.107   6.068   9.103 -0.1402 -0.6187  0.9459
  498MOL0     C67118   8.136   5.947   9.008 -0.7571 -0.2513 -0.9575
  498MOL0     O67119   8.265   5.892   9.030 -0.1512 -0.1574 -0.0191
  498MOL0     C67120   8.293   5.777   8.958  0.8507  0.3572  0.8862
  498MOL0     C67121   8.422   5.725   8.984 -0.3440 -0.0310  1.1078
  498MOL0     C67122   8.466   5.605   8.924 -0.4375 -1.1355  0.2151
  498MOL0     C67123   8.380   5.552   8.821  0.7267  0.2534  0.9268
  498MOL0     C67124   8.426   5.417   8.768  0.5760 -0.3134  0.1187
  498MOL0     O67125   8.551   5.374   8.807 -0.1142 -0.3463  1.0320
  498MOL0     C67126   8.600   5.257   8.741 -0.2124 -0.2006  0.7159
  498MOL0     C67127   8.616   5.135   8.806 -0.6694 -0.4007  0.2492
  498MOL0     C67128   8.668   5.024   8.739 -1.1961 -0.5178 -0.5834
  498MOL0     C67129   8.694   5.024   8.599  0.4557 -0.5033 -1.1260
  498MOL0     O67130   8.735   4.911   8.530 -0.0675 -0.1221 -0.5827
  498MOL0     C67131   8.790   4.929   8.396  1.0730 -0.0102  0.2609
  498MOL0     C67132   8.849   4.795   8.343  0.8247 -0.7660 -0.4176
  498MOL0     C67133   8.996   4.775   8.404  0.9484  0.2079  0.5435
  498MOL0     C67134   9.087   4.881   8.332 -0.0052  0.2918 -0.3133
  498MOL0     C67135   9.227   4.889   8.387  1.0320 -0.5493 -0.0104
  498MOL0     C67136   9.310   4.782   8.326  0.1113 -0.6530 -0.4276
  498MOL0     C67137   9.435   4.751   8.422  0.4741 -0.4872 -0.1080
  498MOL0     C67138   9.533   4.658   8.346  1.3113 -0.1978  0.0847
  498MOL0    Cl67139   9.602   4.734   8.195  0.6838  0.2267  0.1618
  498MOL0     C67140   8.671   5.147   8.529 -0.4347 -0.9152 -0.1980
  498MOL0     C67141   8.633   5.259   8.605  0.1014 -0.8037 -0.0946
  498MOL0     O67142   8.367   5.374   8.680 -1.0755 -0.3085  0.7251
  498MOL0     C67143   8.259   5.610   8.790  0.2508 -1.5523  0.1658
  498MOL0     C67144   8.215   5.718   8.855  0.8975  0.2985 -0.7307
  498MOL0     N67145   8.058   6.476   9.193 -0.3182  0.1354 -0.1574
  498MOL0     N67146   8.006   6.559   9.118 -0.1894  0.3221 -0.3264
  498MOL0     C67147   7.756   5.652   9.168  1.2437 -0.0553 -0.4889
  498MOL0     C67148   7.846   5.624   9.268  0.4487  0.6681 -1.1806
  498MOL0     C67149   7.925   5.671   9.731 -0.0105  0.0874 -0.4582
  498MOL0     C67150   8.067   5.670   9.739  1.1188  0.1207  1.1349
  498MOL0     C67151   8.136   5.657   9.854  0.0171 -0.0459 -0.8234
  498MOL0     C67152   8.072   5.654   9.984 -0.3299 -0.8539  0.2233
  498MOL0     O67153   8.152   5.620  10.099  0.1201 -0.1870 -0.1758
  498MOL0     C67154   8.086   5.559  10.212 -1.0885  0.1943 -0.7744
  498MOL0     C67155   8.013   5.426  10.176  0.2287 -0.6859  0.0604
  498MOL0     C67156   7.911   5.390  10.290  0.7736 -0.5593  0.5317
  498MOL0     C67157   7.790   5.482  10.290 -0.0986 -0.8405  0.0619
  498MOL0     C67158   7.700   5.431  10.390 -0.2791  1.5004 -0.3452
  498MOL0     C67159   7.613   5.386  10.470  0.8407 -1.0903 -0.4664
  498MOL0     C67160   7.939   5.689   9.984  0.3079  0.5777  0.0028
  498MOL0     C67161   7.859   5.686   9.859  0.4236  0.0142 -0.5666
  498MOL0     C67162   7.711   5.696   9.870  0.3359 -0.2019  0.1393
  498MOL0     H67163   7.827   5.919   9.439 -0.2334 -0.5924  0.8282
  498MOL0     H67164   7.694   5.978   9.258 -0.0533  0.0185 -1.8781
  498MOL0     H67165   7.506   5.941   8.949  1.2661 -1.1702 -0.9628
  498MOL0     H67166   7.552   5.982   9.106 -0.3532 -0.1305 -0.4896
  498MOL0     H67167   7.782   5.944   8.908  0.8168 -0.9424  1.6982
  498MOL0     H67168   7.774   6.065   9.048 -0.0710  0.9521  0.3726
  498MOL0     H67169   7.572   6.161   8.908 -0.3585 -1.5970 -0.5087
  498MOL0     H67170   7.659   6.088   8.765 -0.8806 -0.0135 -1.3840
  498MOL0     H67171   7.785   6.281   8.981  3.0851 -0.4833 -0.3086
  498MOL0     H67172   7.860   6.232   8.845 -0.1234  1.1917 -0.8224
  498MOL0     H67173   7.706   6.353   8.702  3.9132  0.6586  0.8032
  498MOL0     H67174   7.582   6.370   8.831 -0.6395 -1.1344 -2.3537
  498MOL0     H67175   7.690   6.590   8.837  1.6730  0.2653 -1.8728
  498MOL0     H67176   7.766   6.502   8.965 -1.7597  0.6760  0.6982
  498MOL0     H67177   7.860   6.601   8.700  1.1634 -0.0146 -0.9541
  498MOL0     H67178   7.929   6.442   8.745 -0.4751 -1.9204  5.9743
  498MOL0     H67179   8.083   6.619   8.822 -0.9103  2.9621 -1.6403
  498MOL0     H67180   7.937   6.689   8.906 -1.7217 -0.4129 -1.3536
  498MOL0     H67181   8.169   6.372   8.906 -1.4396  1.9762 -1.9031
  498MOL0     H67182   8.317   6.329   9.214  0.5659 -1.6851  3.4667
  498MOL0     H67183   8.170   6.249   9.275 -1.7386 -2.3811 -1.5328
  498MOL0     H67184   8.247   6.173   8.995  0.5849 -1.1773 -0.3477
  498MOL0     H67185   8.314   6.095   9.140  1.1493  1.0494 -0.1269
  498MOL0     H67186   8.012   6.115   9.077 -0.5568 -2.6301 -1.5284
  498MOL0     H67187   8.104   6.024   9.203 -1.8942 -1.3253  0.6210
  498MOL0     H67188   8.140   5.980   8.904  0.4680  1.3621 -0.4467
  498MOL0     H67189   8.056   5.874   9.025 -2.3383  1.6518  0.1442
  498MOL0     H67190   8.482   5.787   9.051  0.9998 -0.3198  0.2122
  498MOL0     H67191   8.558   5.563   8.964 -0.5418 -1.5841 -0.0025
  498MOL0     H67192   8.598   5.127   8.913 -1.4532  1.6081  0.3097
  498MOL0     H67193   8.678   4.932   8.797 -1.1435 -0.1260  0.0410
  498MOL0     H67194   8.709   4.959   8.329  1.1802  0.9283  0.5382
  498MOL0     H67195   8.851   5.020   8.390 -2.1672  2.4442  1.9131
  498MOL0     H67196   8.787   4.715   8.384 -2.3806  1.8004  0.0826
  498MOL0     H67197   8.846   4.800   8.233 -2.0470  2.0638 -0.3561
  498MOL0     H67198   8.999   4.783   8.513 -1.6543  0.6626  0.6549
  498MOL0     H67199   9.029   4.675   8.377 -5.1193 -1.6382 -1.5976
  498MOL0     H67200   9.040   4.980   8.334  0.7975  0.6775  0.6998
  498MOL0     H67201   9.081   4.861   8.225  1.2614  3.9061 -1.2196
  498MOL0     H67202   9.220   4.883   8.496 -2.3105 -0.2619 -0.0988
  498MOL0     H67203   9.275   4.983   8.357 -1.5565  0.7412 -0.4861
  498MOL0     H67204   9.251   4.689   8.330 -2.6817  0.9163 -2.0014
  498MOL0     H67205   9.331   4.810   8.222  1.2503  1.9559  0.4193
  498MOL0     H67206   9.396   4.688   8.503 -0.9249  1.2150  0.6094
  498MOL0     H67207   9.491   4.830   8.472  2.0782 -2.2949  1.0802
  498MOL0     H67208   9.614   4.636   8.416  0.3541 -2.0572  0.6581
  498MOL0     H67209   9.496   4.556   8.335  2.0081 -0.3418 -1.1033
  498MOL0     H67210   8.666   5.157   8.421 -2.4991  3.7627  0.1020
  498MOL0     H67211   8.604   5.347   8.548  1.2917 -0.2607  0.1127
  498MOL0     H67212   8.197   5.562   8.715  0.1116  0.6534 -1.2005
  498MOL0     H67213   8.118   5.756   8.827 -0.6029 -2.7227  0.0015
  498MOL0     H67214   7.721   5.586   9.090  0.2933  0.2391 -0.3170
  498MOL0     H67215   7.891   5.529   9.295  2.4629  1.8015 -0.2963
  498MOL0     H67216   8.114   5.691   9.643 -2.5826 -0.2649 -0.9232
  498MOL0     H67217   8.241   5.632   9.842  0.8261  0.8279  3.0589
  498MOL0     H67218   8.023   5.640  10.249 -0.1958 -0.2273  1.8688
  498MOL0     H67219   8.151   5.544  10.299 -1.6863 -0.1105 -0.3691
  498MOL0     H67220   8.076   5.341  10.152  2.8674  1.2791 -0.4436
  498MOL0     H67221   7.968   5.454  10.080 -0.5322  3.3082  1.3549
  498MOL0     H67222   7.961   5.391  10.387  2.1213 -3.1336 -0.0262
  498MOL0     H67223   7.874   5.291  10.261  0.0175  0.3019 -1.6095
  498MOL0     H67224   7.819   5.584  10.317 -1.7726 -0.9830  2.7990
  498MOL0     H67225   7.739   5.487  10.194 -1.2372  0.9061  0.6974
  498MOL0     H67226   7.551   5.326  10.533 -0.2352  1.8601  1.5099
  498MOL0     H67227   7.893   5.691  10.082  1.4161  0.5709  0.5406
  498MOL0     H67228   7.663   5.601   9.844 -0.2656  0.4737 -1.2846
  498MOL0     H67229   7.679   5.723   9.972 -3.0292  0.6442 -1.0210
  498MOL0     H67230   7.672   5.773   9.804  2.2426  0.1995 -0.5685
  499MOL0     O67231   9.341   9.416  10.386 -0.7993 -0.3553 -1.1891
  499MOL0     C67232   9.385   9.314  10.445 -0.2987  0.3383  0.0021
  499MOL0     O67233   9.412   9.196  10.389  0.0709  0.3445  0.5237
  499MOL0     C67234   9.362   9.166  10.268  1.3501  0.0257  0.9064
  499MOL0     C67235   9.232   9.188  10.225 -0.4813 -0.3644  0.5283
  499MOL0     C67236   9.184   9.151  10.097 -0.3347  0.8986  0.5569
  499MOL0     C67237   9.270   9.086  10.005 -1.0179  1.2618  0.1963
  499MOL0     O67238   9.219   9.054   9.876  0.1130  0.2199 -0.1925
  499MOL0     C67239   9.300   9.014   9.769 -0.4222  0.0181 -0.0804
  499MOL0     C67240   9.229   9.019   9.635  1.0815 -0.6136 -0.0952
  499MOL0     C67241   9.301   8.996   9.500  0.2156 -0.2846 -0.1220
  499MOL0     C67242   9.209   9.053   9.387  0.9647 -0.1313 -0.3436
  499MOL0     C67243   9.271   9.030   9.253  0.7914  0.3610  0.6674
  499MOL0     C67244   9.390   9.115   9.233  0.3721 -0.3899 -0.3449
  499MOL0     C67245   9.385   9.256   9.295 -0.2834 -0.5350 -0.0535
  499MOL0     C67246   9.501   9.341   9.242  0.5127  0.0374  0.1652
  499MOL0     N67247   9.637   9.283   9.280  0.2130 -0.6479 -0.1076
  499MOL0     C67248   9.696   9.276   9.410 -1.0413  0.4387  1.2450
  499MOL0     C67249   9.824   9.237   9.384 -0.3810  0.3335 -0.1918
  499MOL0     C67250   9.917   9.181   9.486  0.3516 -0.6338  0.7191
  499MOL0     C67251  10.050   9.255   9.501 -0.9064  0.6434 -0.6502
  499MOL0     C67252  10.129   9.208   9.632  0.8433 -0.2279  0.2413
  499MOL0     C67253  10.204   9.082   9.612 -1.5438  0.2494  0.0268
  499MOL0     O67254  10.312   9.072   9.703 -0.3142  0.4301 -0.0551
  499MOL0     C67255  10.317   9.012   9.828  0.0713 -0.1222  0.1506
  499MOL0     C67256  10.222   8.946   9.892 -0.1096  0.4152  0.5484
  499MOL0     C67257  10.233   8.886  10.018  0.0776 -0.3499 -0.4543
  499MOL0     C67258  10.346   8.914  10.096  0.1383 -0.3404  0.6256
  499MOL0     C67259  10.369   8.888  10.244  0.2347  1.1027 -0.4018
  499MOL0     O67260  10.269   8.826  10.312 -0.2999  0.1176 -0.1713
  499MOL0     C67261  10.274   8.833  10.453  1.1251  1.1720 -0.5306
  499MOL0     C67262  10.251   8.712  10.534 -0.3395 -0.1122 -0.8777
  499MOL0     C67263  10.223   8.723  10.672  0.0381 -0.3789  0.0336
  499MOL0     C67264  10.194   8.847  10.725  0.4120  0.1939  0.0799
  499MOL0     O67265  10.170   8.868  10.856  0.5227 -0.5918  0.1209
  499MOL0     C67266  10.153   8.765  10.945 -0.5896  1.5308 -0.6609
  499MOL0     C67267  10.282   8.775  11.038 -0.6359  0.5023 -0.4675
  499MOL0     C67268  10.305   8.637  11.097  0.7150  0.0276 -1.7280
  499MOL0     C67269  10.196   8.588  11.207  0.1147  1.3149  1.0491
  499MOL0     C67270  10.158   8.686  11.316  0.5079 -0.4571  1.2430
  499MOL0     C67271  10.273   8.690  11.412 -0.1808  0.5845  0.3044
  499MOL0     C67272  10.221   8.741  11.544 -0.9391  0.0154  0.0358
  499MOL0     C67273  10.327   8.727  11.652  0.0223  1.0381  0.7665
  499MOL0    Cl67274  10.481   8.787  11.590 -0.6749  0.2621  0.1639
  499MOL0     C67275  10.194   8.960  10.647  0.3602  0.5719 -0.3385
  499MOL0     C67276  10.233   8.955  10.513 -0.3139 -0.9050 -0.3645
  499MOL0     O67277  10.471   8.933  10.293  0.3568 -0.8274 -0.4613
  499MOL0     C67278  10.450   8.979  10.025  0.0686 -0.8448 -0.5066
  499MOL0     C67279  10.435   9.027   9.897 -0.3483 -0.1704  0.7353
  499MOL0     N67280   9.843   9.222   9.248  0.0207  0.4322 -0.9890
  499MOL0     N67281   9.725   9.232   9.195 -0.7518  0.5695  1.0130
  499MOL0     C67282   9.399   9.062  10.052  0.1526 -0.9569  1.2828
  499MOL0     C67283   9.445   9.087  10.185  0.0224 -0.3678 -0.0128
  499MOL0     C67284   9.432   9.340  10.588 -0.7648 -0.0747  0.8186
  499MOL0     C67285   9.473   9.471  10.632  0.6326  0.5931 -0.2323
  499MOL0     C67286   9.529   9.489  10.759 -0.3510 -0.1404 -0.9845
  499MOL0     C67287   9.534   9.378  10.852  0.6588  0.5698 -0.8052
  499MOL0     O67288   9.560   9.392  10.990 -0.4394 -0.1207 -0.0830
  499MOL0     C67289   9.614   9.522  11.034 -0.4220 -0.8383  0.1745
  499MOL0     C67290   9.723   9.490  11.135  0.2342 -0.7082  0.2355
  499MOL0     C67291   9.828   9.399  11.062  0.8416 -0.0800 -0.3825
  499MOL0     C67292   9.948   9.386  11.150 -0.1282  0.0181 -0.0205
  499MOL0     C67293  10.040   9.299  11.080  0.6726 -0.3464  0.1375
  499MOL0     C67294  10.110   9.228  11.007 -0.8318 -0.5523 -0.5131
  499MOL0     C67295   9.481   9.255  10.809  0.7379 -1.4147  0.1575
  499MOL0     C67296   9.434   9.233  10.681  0.2083  0.0757 -1.0377
  499MOL0     C67297   9.381   9.094  10.656  0.1211  0.8349  0.4877
  499MOL0     H67298   9.180   9.251  10.296 -0.1942 -0.5037  0.8622
  499MOL0     H67299   9.087   9.163  10.052  0.3820 -1.9195 -2.0809
  499MOL0     H67300   9.388   9.076   9.749 -0.4124 -0.4742 -1.7933
  499MOL0     H67301   9.352   8.923   9.800 -1.1683  0.7564  3.7317
  499MOL0     H67302   9.182   9.118   9.632  1.9382 -0.0530  2.6070
  499MOL0     H67303   9.159   8.935   9.628  1.1706 -0.9080  2.0333
  499MOL0     H67304   9.329   8.891   9.489  6.3322  0.8492  0.7380
  499MOL0     H67305   9.396   9.050   9.502  0.3032 -0.4281 -0.3242
  499MOL0     H67306   9.123   8.988   9.406  2.4149 -2.0218  0.0838
  499MOL0     H67307   9.170   9.152   9.415  0.5867 -0.6380  1.0178
  499MOL0     H67308   9.296   8.924   9.238 -1.4809  0.1498 -2.5980
  499MOL0     H67309   9.193   9.041   9.177  0.2577  0.3814  1.2034
  499MOL0     H67310   9.475   9.065   9.280  1.0523  1.9772  1.1016
  499MOL0     H67311   9.404   9.123   9.125 -5.3753 -1.9484 -1.5308
  499MOL0     H67312   9.390   9.247   9.404 -1.3081  0.1388  0.0657
  499MOL0     H67313   9.290   9.305   9.271  0.0230  0.3868  0.5833
  499MOL0     H67314   9.503   9.351   9.133  4.4621 -0.6956  0.0083
  499MOL0     H67315   9.497   9.440   9.290 -2.0268  0.3510 -0.5810
  499MOL0     H67316   9.638   9.279   9.501 -2.1186 -1.6710  0.7077
  499MOL0     H67317   9.877   9.191   9.587 -2.4457  2.5348 -0.5013
  499MOL0     H67318   9.939   9.077   9.464  0.9174 -0.6326  1.2543
  499MOL0     H67319  10.113   9.255   9.411  1.4420  0.5806  0.8948
  499MOL0     H67320  10.041   9.363   9.514 -0.5764  0.6530 -0.4909
  499MOL0     H67321  10.064   9.197   9.719  1.8669  0.2149  1.0882
  499MOL0     H67322  10.200   9.287   9.658  0.9334 -1.1039  3.0834
  499MOL0     H67323  10.241   9.073   9.510 -0.6669  1.8061  0.1739
  499MOL0     H67324  10.157   8.985   9.629  0.7613 -0.6100  2.1213
  499MOL0     H67325  10.135   8.930   9.829  1.8215  0.8636 -2.4585
  499MOL0     H67326  10.148   8.822  10.039  0.2985 -1.3472 -2.3482
  499MOL0     H67327  10.269   8.613  10.493  1.9567 -0.7841  1.4660
  499MOL0     H67328  10.217   8.629  10.727 -2.5361  0.2587  1.0171
  499MOL0     H67329  10.060   8.779  11.002 -0.8783  0.7542 -0.9394
  499MOL0     H67330  10.150   8.668  10.895  0.4260  1.2216 -0.1386
  499MOL0     H67331  10.369   8.793  10.974  1.9354  0.1838  2.6906
  499MOL0     H67332  10.267   8.855  11.110  0.4741  0.5529 -0.2689
  499MOL0     H67333  10.312   8.572  11.009  2.0720 -0.0956 -1.5398
  499MOL0     H67334  10.400   8.622  11.149 -0.7163 -3.3143  0.2674
  499MOL0     H67335  10.239   8.502  11.260 -0.7454  0.7461  0.8338
  499MOL0     H67336  10.104   8.562  11.155  0.8937  0.1060  0.2182
  499MOL0     H67337  10.067   8.652  11.367  0.9388 -1.3528  1.4439
  499MOL0     H67338  10.133   8.786  11.280 -1.3602 -1.6235 -0.9629
  499MOL0     H67339  10.322   8.595  11.433 -0.2932  0.7745  1.5132
  499MOL0     H67340  10.353   8.752  11.369 -0.0061 -0.3730 -0.7911
  499MOL0     H67341  10.138   8.677  11.576  0.2785  0.0873  3.8252
  499MOL0     H67342  10.188   8.846  11.544 -0.9862  0.0236 -1.9731
  499MOL0     H67343  10.293   8.779  11.742 -1.3762  1.5177 -0.0110
  499MOL0     H67344  10.344   8.620  11.663 -0.9304  0.8577  0.5540
  499MOL0     H67345  10.170   9.057  10.691  3.0600  1.3658 -0.4480
  499MOL0     H67346  10.219   9.049  10.461  0.3696 -0.0911  0.8620
  499MOL0     H67347  10.544   9.004  10.073 -1.4283  4.3178  0.4370
  499MOL0     H67348  10.524   9.077   9.859 -0.4553  1.4792  2.4772
  499MOL0     H67349   9.475   9.005   9.999  0.7913  1.5512 -0.6744
  499MOL0     H67350   9.542   9.052  10.221 -0.0370  1.4192  2.1185
  499MOL0     H67351   9.474   9.552  10.560  0.9191  1.4397  0.6962
  499MOL0     H67352   9.555   9.590  10.789 -1.4340 -0.3509  0.8038
  499MOL0     H67353   9.528   9.568  11.084 -2.1823 -2.2777 -1.3938
  499MOL0     H67354   9.659   9.589  10.960  0.8580 -0.0567  1.5911
  499MOL0     H67355   9.690   9.436  11.225 -1.0344 -1.9848 -0.9499
  499MOL0     H67356   9.770   9.584  11.165  0.2444  0.2550 -2.5716
  499MOL0     H67357   9.872   9.450  10.976  1.5101 -1.6106 -0.9908
  499MOL0     H67358   9.794   9.304  11.019 -0.6459  0.4421 -0.4118
  499MOL0     H67359   9.994   9.484  11.168  0.2667  0.4386 -2.7946
  499MOL0     H67360   9.937   9.337  11.247  2.5170 -0.0981  0.3101
  499MOL0     H67361  10.180   9.175  10.947 -0.2213  0.6510 -0.8947
  499MOL0     H67362   9.478   9.181  10.888 -4.7264  0.3469  2.0868
  499MOL0     H67363   9.289   9.108  10.599  0.8364  0.2072 -0.9002
  499MOL0     H67364   9.453   9.023  10.613  2.3299  1.3216  3.1286
  499MOL0     H67365   9.353   9.039  10.746 -1.2449  0.0038 -0.4130
  500MOL0     O67366   5.679   1.258  10.202  0.4205  0.1651  0.0200
  500MOL0     C67367   5.761   1.336  10.235 -1.1245 -0.0623  0.1482
  500MOL0     O67368   5.890   1.304  10.261  0.3369 -0.4766 -0.1593
  500MOL0     C67369   5.921   1.169  10.237 -1.5059  0.1521 -0.7455
  500MOL0     C67370   5.899   1.072  10.328 -0.2579 -0.6482 -0.1917
  500MOL0     C67371   5.953   0.949  10.329  1.5978  0.6745 -0.5540
  500MOL0     C67372   6.006   0.902  10.213 -0.1156 -0.4566 -0.0196
  500MOL0     O67373   6.035   0.762  10.208 -0.7847  0.7308  0.2937
  500MOL0     C67374   6.140   0.704  10.139  0.4784  0.2459 -0.4700
  500MOL0     C67375   6.166   0.566  10.194 -0.8583  0.1589  0.1779
  500MOL0     C67376   6.089   0.451  10.126  0.3147 -0.1058  1.4390
  500MOL0     C67377   6.141   0.325  10.179 -0.2133  0.1768 -0.3327
  500MOL0     C67378   6.057   0.202  10.143  0.1183 -0.4412 -0.5726
  500MOL0     C67379   5.926   0.176  10.227 -0.5070 -0.3594 -0.7625
  500MOL0     C67380   5.816   0.102  10.138  1.0403 -0.1919  0.8090
  500MOL0     C67381   5.709   0.189  10.092  0.5952 -0.4018 -0.0333
  500MOL0     N67382   5.606   0.097  10.035 -0.0569  0.0608 -0.9329
  500MOL0     C67383   5.475   0.134  10.049  0.1905  0.0178 -0.2358
  500MOL0     C67384   5.410   0.038   9.987  1.0120 -0.3565 -0.1587
  500MOL0     C67385   5.264   0.024   9.972  0.5515  0.5725  0.2020
  500MOL0     C67386   5.219  -0.042   9.841  0.3298 -0.2926 -0.1246
  500MOL0     C67387   5.251   0.034   9.714 -0.6268 -0.1402  0.4761
  500MOL0     C67388   5.176  -0.043   9.604  0.2191  0.5176  0.0625
  500MOL0     O67389   5.044   0.010   9.581 -0.1401 -0.0883 -0.2806
  500MOL0     C67390   5.041   0.142   9.525 -0.3429  0.1147 -0.4494
  500MOL0     C67391   5.148   0.207   9.463  0.3960  0.0323 -0.3843
  500MOL0     C67392   5.137   0.349   9.437  0.1631 -0.6921 -0.7221
  500MOL0     C67393   5.012   0.415   9.455 -0.2044  0.4689  0.2855
  500MOL0     C67394   4.995   0.555   9.404  0.8252  0.0644  0.9864
  500MOL0     O67395   4.866   0.609   9.391  0.3400 -0.1529 -0.3145
  500MOL0     C67396   4.866   0.736   9.340 -0.5818  0.5547 -0.4270
  500MOL0     C67397   4.855   0.851   9.424 -1.3026 -0.4412  0.0282
  500MOL0     C67398   4.879   0.977   9.372 -0.3101 -0.7006 -0.4574
  500MOL0     C67399   4.892   0.994   9.237  0.8735  0.4090 -0.1043
  500MOL0     O67400   4.899   1.126   9.192  0.3808  1.2262 -0.1767
  500MOL0     C67401   4.962   1.150   9.064 -1.0104 -0.0379  1.0300
  500MOL0     C67402   4.960   1.294   9.039  0.5802 -0.3525 -0.3099
  500MOL0     C67403   4.985   1.327   8.895  0.1002  0.6145 -0.1808
  500MOL0     C67404   4.928   1.459   8.846 -0.4333 -0.2367  0.2287
  500MOL0     C67405   5.034   1.558   8.787  0.3850  0.2318 -0.8895
  500MOL0     C67406   4.979   1.678   8.718 -0.7214  0.5880  1.1175
  500MOL0     C67407   5.085   1.797   8.717 -0.4331  0.4961 -0.4560
  500MOL0     C67408   5.038   1.923   8.640  0.1890  0.4015  0.0418
  500MOL0    Cl67409   5.173   2.040   8.635 -0.2894  0.2561 -0.2095
  500MOL0     C67410   4.894   0.887   9.150  0.1401  0.2361  0.4756
  500MOL0     C67411   4.877   0.755   9.201  0.7007  0.1374 -0.0118
  500MOL0     O67412   5.102   0.612   9.388 -0.6262  0.9044  0.8622
  500MOL0     C67413   4.899   0.341   9.504 -0.5378  0.1792 -0.1796
  500MOL0     C67414   4.924   0.211   9.531  0.7425  0.2955 -0.6562
  500MOL0     N67415   5.495  -0.040   9.919  0.1119 -0.4635  0.4425
  500MOL0     N67416   5.622  -0.010   9.947 -0.4618 -1.1274  0.3125
  500MOL0     C67417   6.037   0.994  10.112  0.7819  0.3865  0.4203
  500MOL0     C67418   5.997   1.135  10.121  0.1533 -0.3731 -0.5011
  500MOL0     C67419   5.738   1.478  10.245 -0.1290 -0.7504  0.1137
  500MOL0     C67420   5.843   1.564  10.292 -0.6309 -0.0751 -0.4176
  500MOL0     C67421   5.821   1.692  10.313 -0.3425 -0.3347 -0.1294
  500MOL0     C67422   5.695   1.752  10.288  1.0815  0.6861 -0.0552
  500MOL0     O67423   5.653   1.879  10.293 -0.3241  0.0393 -0.2540
  500MOL0     C67424   5.728   1.977  10.360  0.2028  1.0315 -0.9238
  500MOL0     C67425   5.657   2.110  10.399 -0.2459  0.8467 -0.6856
  500MOL0     C67426   5.553   2.150  10.297 -0.5969  0.2877  0.0026
  500MOL0     C67427   5.408   2.207  10.326 -0.9594 -0.4365 -0.5982
  500MOL0     C67428   5.445   2.337  10.404 -0.4973  0.2556 -0.2438
  500MOL0     C67429   5.478   2.447  10.448  0.2231 -0.4147 -1.2809
  500MOL0     C67430   5.601   1.669  10.241  0.3180 -0.0944 -0.2410
  500MOL0     C67431   5.617   1.536  10.215 -0.6057  0.3804  0.5675
  500MOL0     C67432   5.502   1.461  10.157 -0.3910 -0.5693 -0.4849
  500MOL0     H67433   5.860   1.120  10.417  1.1708  1.0010 -0.4003
  500MOL0     H67434   5.947   0.878  10.411  0.1800  0.1248 -1.1128
  500MOL0     H67435   6.109   0.685  10.035  0.1149 -1.2435 -0.1082
  500MOL0     H67436   6.225   0.772  10.147 -0.4677  1.4842 -0.6297
  500MOL0     H67437   6.148   0.566  10.302 -0.7253 -1.5099  0.2255
  500MOL0     H67438   6.270   0.555  10.163 -0.3105  2.0172  1.1742
  500MOL0     H67439   6.097   0.456  10.017 -0.1453  2.0877  1.4685
  500MOL0     H67440   5.983   0.459  10.150  0.2916  0.4320  1.1819
  500MOL0     H67441   6.240   0.324  10.133  0.0175  1.5275  0.0847
  500MOL0     H67442   6.168   0.333  10.285  3.4800 -3.4590 -0.7490
  500MOL0     H67443   6.023   0.213  10.040  0.3700 -1.2541 -0.7493
  500MOL0     H67444   6.126   0.117  10.149 -1.5597 -1.8838 -1.2098
  500MOL0     H67445   5.965   0.117  10.310 -1.0772 -0.9541 -0.9035
  500MOL0     H67446   5.885   0.261  10.282 -0.7169 -0.6615 -0.4498
  500MOL0     H67447   5.770   0.029  10.206  1.5502 -1.2903  0.0032
  500MOL0     H67448   5.862   0.050  10.054  0.8951  0.9938 -0.0366
  500MOL0     H67449   5.665   0.240  10.178  1.0636  0.9779 -0.5966
  500MOL0     H67450   5.750   0.256  10.017  1.3050  0.0117  0.7004
  500MOL0     H67451   5.434   0.220  10.101  1.4619 -0.3467  1.4212
  500MOL0     H67452   5.231  -0.039  10.055  1.1369 -0.2379 -0.1694
  500MOL0     H67453   5.203   0.112   9.993  1.9864  1.2523  1.7467
  500MOL0     H67454   5.256  -0.145   9.834  1.5587  0.0489  1.1113
  500MOL0     H67455   5.112  -0.063   9.853  0.8052 -3.6646 -0.6408
  500MOL0     H67456   5.360   0.047   9.705 -0.2818 -1.6056  1.9748
  500MOL0     H67457   5.213   0.135   9.726 -1.0956 -0.3255  0.5663
  500MOL0     H67458   5.160  -0.147   9.633  1.8617 -0.3172 -1.8240
  500MOL0     H67459   5.244  -0.051   9.519  1.8035 -1.1353  1.4164
  500MOL0     H67460   5.241   0.152   9.451  0.3676 -1.4826  4.5580
  500MOL0     H67461   5.226   0.395   9.394 -1.0117  1.0067 -1.4496
  500MOL0     H67462   4.846   0.830   9.530 -1.7195  0.1285  0.1084
  500MOL0     H67463   4.886   1.064   9.436 -0.3361 -0.6247 -0.5576
  500MOL0     H67464   5.065   1.113   9.058 -0.3821  1.5577  1.4654
  500MOL0     H67465   4.912   1.098   8.982  2.0190 -2.6319  0.6241
  500MOL0     H67466   4.853   1.314   9.052  1.4047  3.3416  2.8410
  500MOL0     H67467   5.009   1.362   9.110 -0.3810 -0.9025  0.9129
  500MOL0     H67468   5.093   1.331   8.876  0.1174  2.9908  0.1426
  500MOL0     H67469   4.927   1.247   8.847 -3.2730  0.9361  2.9502
  500MOL0     H67470   4.863   1.498   8.924 -1.5614  2.3552 -1.8528
  500MOL0     H67471   4.865   1.442   8.758  0.9462  4.1139 -1.8847
  500MOL0     H67472   5.113   1.507   8.729 -0.5873 -1.2216 -0.9865
  500MOL0     H67473   5.076   1.599   8.879  0.0079  1.5098 -1.2612
  500MOL0     H67474   4.929   1.664   8.622 -0.7034  1.4025  0.9831
  500MOL0     H67475   4.903   1.721   8.783 -2.7787 -0.7680 -0.2545
  500MOL0     H67476   5.181   1.761   8.680  0.7638  0.7030  2.2043
  500MOL0     H67477   5.102   1.841   8.816 -0.3626 -1.6719  0.5416
  500MOL0     H67478   5.013   1.902   8.536  1.4791  4.1241 -1.1680
  500MOL0     H67479   4.948   1.958   8.691  0.2573  0.1453  0.3383
  500MOL0     H67480   4.923   0.883   9.046  1.7003 -3.3752  0.9015
  500MOL0     H67481   4.867   0.672   9.131  2.3604 -0.0518 -0.0557
  500MOL0     H67482   4.797   0.372   9.526 -0.1650  1.2648  0.0941
  500MOL0     H67483   4.855   0.147   9.585  1.1003 -0.2026 -0.7807
  500MOL0     H67484   6.096   0.965  10.025  3.7413  2.6489  1.4962
  500MOL0     H67485   6.003   1.202  10.035 -1.9957 -0.9381 -1.1686
  500MOL0     H67486   5.942   1.528  10.319 -0.4571  1.4283  1.1441
  500MOL0     H67487   5.892   1.760  10.358 -1.8236  1.4339 -0.3723
  500MOL0     H67488   5.811   1.996  10.291 -0.2316  2.7595 -1.0059
  500MOL0     H67489   5.777   1.941  10.451 -1.8693 -1.6154 -0.7340
  500MOL0     H67490   5.726   2.193  10.413 -2.4953  2.4218  2.5117
  500MOL0     H67491   5.612   2.096  10.498  1.0533  2.8639  0.2605
  500MOL0     H67492   5.529   2.057  10.244 -2.9907  0.8901 -0.0954
  500MOL0     H67493   5.599   2.204  10.214  1.8554 -0.7921  0.5796
  500MOL0     H67494   5.347   2.234  10.240 -0.4257  0.8854 -0.5808
  500MOL0     H67495   5.370   2.133  10.397  0.0449 -0.9364 -0.5686
  500MOL0     H67496   5.507   2.542  10.490  0.3867 -0.2034 -1.8630
  500MOL0     H67497   5.506   1.717  10.219 -1.3590 -1.8776  2.5554
  500MOL0     H67498   5.488   1.391  10.240  0.9556  1.3968  1.5265
  500MOL0     H67499   5.429   1.536  10.126  0.7766  2.5033  3.3455
  500MOL0     H67500   5.531   1.407  10.067 -0.5918 -2.7984  0.7128
  501MOL0     O67501   3.313  10.680   9.509 -0.1714  0.2026  1.2360
  501MOL0     C67502   3.275  10.564   9.546 -0.4140 -0.7397 -0.6622
  501MOL0     O67503   3.357  10.448   9.542 -0.4891  0.1128 -0.3352
  501MOL0     C67504   3.462  10.425   9.455 -0.6869 -0.4585  0.1068
  501MOL0     C67505   3.505  10.523   9.358  0.7473  0.5424  0.6618
  501MOL0     C67506   3.606  10.488   9.273  0.4138  0.0315 -0.2787
  501MOL0     C67507   3.677  10.370   9.279 -0.2117  0.0429  0.9064
  501MOL0     O67508   3.777  10.351   9.185  0.4675 -0.3382  0.3246
  501MOL0     C67509   3.872  10.258   9.215  0.0559 -1.4293 -0.4541
  501MOL0     C67510   3.990  10.279   9.115 -0.4913  0.6549  0.0127
  501MOL0     C67511   3.957  10.243   8.968 -0.2719 -0.0079  0.5420
  501MOL0     C67512   4.083  10.236   8.870  0.0077 -0.2537 -0.0415
  501MOL0     C67513   4.036  10.211   8.723  1.3338 -0.5457  0.0831
  501MOL0     C67514   4.045  10.341   8.651  1.3113  0.8137  0.3873
  501MOL0     C67515   3.941  10.446   8.686  1.1912 -0.2093 -0.6948
  501MOL0     C67516   3.906  10.534   8.567  0.5204  1.1605  0.0871
  501MOL0     N67517   3.821  10.638   8.616  0.3009  0.3346  0.4991
  501MOL0     C67518   3.707  10.626   8.698  1.4523 -0.2474 -0.4559
  501MOL0     C67519   3.670  10.750   8.732 -0.2522  0.6817 -0.3581
  501MOL0     C67520   3.551  10.787   8.829 -0.1444 -0.1900 -0.2791
  501MOL0     C67521   3.589  10.759   8.978  0.3800  0.3235 -1.7880
  501MOL0     C67522   3.479  10.810   9.069  0.6232 -0.0069 -1.0179
  501MOL0     C67523   3.514  10.952   9.118 -0.3693 -0.0610  0.1331
  501MOL0     O67524   3.434  10.967   9.242 -0.1639 -1.2455  0.2061
  501MOL0     C67525   3.448  11.082   9.314 -0.5432  0.5584 -0.4363
  501MOL0     C67526   3.528  11.185   9.275 -0.3553  0.2834  0.8605
  501MOL0     C67527   3.548  11.300   9.355  0.9768  0.4186 -0.3586
  501MOL0     C67528   3.465  11.326   9.460  1.0377 -0.5557 -0.1936
  501MOL0     C67529   3.485  11.447   9.538  0.0617 -0.1647 -0.0363
  501MOL0     O67530   3.382  11.480   9.625 -0.3406 -0.8658 -0.9100
  501MOL0     C67531   3.404  11.559   9.739  0.6779  0.0657  0.5715
  501MOL0     C67532   3.505  11.649   9.778  0.4443 -0.5216 -0.0676
  501MOL0     C67533   3.497  11.711   9.910 -0.2902 -0.3011  0.4150
  501MOL0     C67534   3.390  11.695   9.997 -0.1486 -0.1473  0.0362
  501MOL0     O67535   3.384  11.752  10.122  0.4211  0.3059 -0.1023
  501MOL0     C67536   3.485  11.846  10.167 -0.7929  0.5964 -0.1402
  501MOL0     C67537   3.616  11.769  10.203  0.4656 -0.8572  0.1906
  501MOL0     C67538   3.627  11.728  10.348  0.1745 -0.3533 -0.5029
  501MOL0     C67539   3.527  11.614  10.380  0.0306  0.8585 -0.4934
  501MOL0     C67540   3.547  11.561  10.524  0.6684 -0.5256  0.1229
  501MOL0     C67541   3.415  11.477  10.560 -0.1657  0.2364 -1.7361
  501MOL0     C67542   3.438  11.418  10.701 -0.3455 -0.0199  0.9590
  501MOL0     C67543   3.308  11.354  10.759 -0.2294 -0.2533  0.2786
  501MOL0    Cl67544   3.353  11.263  10.909 -0.0325 -0.2587  0.3627
  501MOL0     C67545   3.294  11.612   9.954  0.3979 -0.3464  0.0636
  501MOL0     C67546   3.298  11.539   9.836 -0.0557  0.6064  0.4677
  501MOL0     O67547   3.593  11.501   9.531 -0.2894  0.0620 -0.9543
  501MOL0     C67548   3.362  11.231   9.494 -0.0864 -0.9001 -0.7536
  501MOL0     C67549   3.362  11.105   9.421 -0.5941  0.1023 -0.2575
  501MOL0     N67550   3.753  10.836   8.664 -0.6269 -0.7585  0.5797
  501MOL0     N67551   3.847  10.769   8.599  0.3344 -0.0968 -0.6091
  501MOL0     C67552   3.646  10.278   9.377 -0.2058 -0.4172 -0.3045
  501MOL0     C67553   3.542  10.302   9.469  0.7205 -0.5920  0.5628
  501MOL0     C67554   3.134  10.540   9.586 -0.2483 -0.2555  0.2134
  501MOL0     C67555   3.077  10.404   9.584 -0.0879 -0.2782  0.5690
  501MOL0     C67556   2.938  10.380   9.614  0.2581 -0.2821  1.4575
  501MOL0     C67557   2.865  10.493   9.649  0.2609 -0.1562  0.4996
  501MOL0     O67558   2.733  10.489   9.693 -0.3184 -0.4497  0.1284
  501MOL0     C67559   2.702  10.474   9.835 -0.0434  0.1380 -0.7358
  501MOL0     C67560   2.720  10.330   9.883  0.0122  0.2170 -0.5216
  501MOL0     C67561   2.677  10.304  10.029 -1.0100 -0.0202 -0.3547
  501MOL0     C67562   2.801  10.320  10.119 -0.0897  0.7297  0.5166
  501MOL0     C67563   2.756  10.302  10.263 -0.6238  0.2980 -0.1905
  501MOL0     C67564   2.687  10.273  10.360 -0.0623  0.2699  1.3966
  501MOL0     C67565   2.918  10.616   9.667  0.1932 -0.1857 -0.1524
  501MOL0     C67566   3.040  10.641   9.628 -0.0443  0.5361  0.3535
  501MOL0     C67567   3.064  10.788   9.627  0.3592 -0.8746  0.0376
  501MOL0     H67568   3.446  10.609   9.328 -3.6860 -1.5196  2.5706
  501MOL0     H67569   3.640  10.549   9.190  0.3324 -1.2348 -1.2780
  501MOL0     H67570   3.913  10.278   9.314  1.1674  0.3879 -1.2238
  501MOL0     H67571   3.828  10.159   9.200  1.8727 -1.8299 -4.5668
  501MOL0     H67572   4.074  10.216   9.146 -1.4896 -0.3432  0.7806
  501MOL0     H67573   4.016  10.385   9.115  0.0206  0.5407 -0.7035
  501MOL0     H67574   3.877  10.307   8.930  0.2789 -0.3488 -1.2898
  501MOL0     H67575   3.915  10.143   8.981 -1.4598 -0.0480 -2.6748
  501MOL0     H67576   4.147  10.324   8.876  1.2156 -1.0164 -1.3428
  501MOL0     H67577   4.140  10.150   8.905 -0.0181 -0.5591 -0.7457
  501MOL0     H67578   4.095  10.132   8.675  0.3245 -1.5773  0.4869
  501MOL0     H67579   3.932  10.178   8.717  1.1219  0.0351  0.5684
  501MOL0     H67580   4.141  10.393   8.657  1.0885  1.4759 -1.2000
  501MOL0     H67581   4.036  10.325   8.543 -0.5898  2.2284  0.2727
  501MOL0     H67582   3.976  10.519   8.761 -0.9267  0.1040  0.0441
  501MOL0     H67583   3.856  10.403   8.739  0.5224 -2.4831 -3.4446
  501MOL0     H67584   3.999  10.560   8.516  0.9700  0.4817  0.5439
  501MOL0     H67585   3.860  10.473   8.489  0.7296  3.2604 -1.7793
  501MOL0     H67586   3.660  10.539   8.742 -0.1891  3.2501  5.9768
  501MOL0     H67587   3.538  10.894   8.816 -1.9437 -0.4877 -1.1468
  501MOL0     H67588   3.464  10.726   8.804  0.6462 -0.6537 -2.0959
  501MOL0     H67589   3.597  10.651   8.992  1.7231  0.2819 -2.7590
  501MOL0     H67590   3.685  10.798   9.012 -0.8719  0.8547  1.4704
  501MOL0     H67591   3.479  10.755   9.164  1.6015  2.8747  0.7914
  501MOL0     H67592   3.378  10.800   9.029  1.2280 -0.9581 -2.3604
  501MOL0     H67593   3.476  11.027   9.049 -2.6640 -1.5390 -0.3096
  501MOL0     H67594   3.617  10.958   9.153 -0.9719 -0.0379  2.0471
  501MOL0     H67595   3.594  11.173   9.190 -0.7436 -0.3429  0.6403
  501MOL0     H67596   3.636  11.360   9.331  1.8940 -1.0652 -0.8354
  501MOL0     H67597   3.597  11.673   9.724  0.4259 -1.9383 -0.7790
  501MOL0     H67598   3.573  11.783   9.937  1.0990 -1.8561  0.8167
  501MOL0     H67599   3.509  11.914  10.084  1.4378 -3.9740 -3.7141
  501MOL0     H67600   3.456  11.892  10.261 -0.6951 -0.9855  0.7023
  501MOL0     H67601   3.607  11.676  10.146 -2.2120 -0.8523  0.4699
  501MOL0     H67602   3.705  11.827  10.179 -1.3529  2.9612  1.8568
  501MOL0     H67603   3.724  11.683  10.370  0.2276 -1.7905 -3.2010
  501MOL0     H67604   3.596  11.819  10.400 -0.6277  0.7841 -2.8168
  501MOL0     H67605   3.535  11.528  10.313  2.9629 -0.4371  1.2856
  501MOL0     H67606   3.425  11.652  10.384  0.0772  0.9058  2.7610
  501MOL0     H67607   3.566  11.638  10.600  1.5313 -1.3724  0.7797
  501MOL0     H67608   3.630  11.491  10.521 -1.8255 -3.7585  0.4687
  501MOL0     H67609   3.340  11.557  10.567  1.3537  1.5504  1.5118
  501MOL0     H67610   3.387  11.399  10.489 -1.7188  1.9851 -3.1792
  501MOL0     H67611   3.470  11.492  10.775 -2.0708  1.2610  0.4919
  501MOL0     H67612   3.511  11.338  10.684 -1.3659 -0.2359 -3.7100
  501MOL0     H67613   3.249  11.441  10.789  2.7007  3.6210 -3.8199
  501MOL0     H67614   3.261  11.295  10.679 -0.8649  0.6141  0.0035
  501MOL0     H67615   3.201  11.612  10.010 -1.6158  1.0831 -3.0264
  501MOL0     H67616   3.215  11.477   9.802  1.0927 -1.4231  1.1542
  501MOL0     H67617   3.292  11.239   9.576 -0.2116 -2.4375 -0.6897
  501MOL0     H67618   3.286  11.031   9.445  2.5945 -2.8165  1.7804
  501MOL0     H67619   3.711  10.193   9.400  2.5972  2.3070  2.9595
  501MOL0     H67620   3.500  10.233   9.541  0.7102  2.2189  3.4823
  501MOL0     H67621   3.152  10.325   9.579  1.3927  0.9383  2.1317
  501MOL0     H67622   2.895  10.281   9.618 -4.9008  1.6114  0.8120
  501MOL0     H67623   2.596  10.500   9.845 -0.8784 -2.6967 -1.3944
  501MOL0     H67624   2.756  10.548   9.895 -0.0498 -0.1273 -0.4028
  501MOL0     H67625   2.825  10.302   9.880  0.1988  0.8946 -0.5240
  501MOL0     H67626   2.662  10.257   9.826  1.1931  0.2586 -1.8095
  501MOL0     H67627   2.642  10.203  10.049  4.0882 -1.6162  2.2144
  501MOL0     H67628   2.613  10.389  10.055  4.4962  3.7133  3.0647
  501MOL0     H67629   2.861  10.232  10.093  0.7939  1.1864  0.9789
  501MOL0     H67630   2.862  10.409  10.105 -2.0889  2.5024  2.4844
  501MOL0     H67631   2.626  10.244  10.443 -0.6337 -3.4878 -0.1661
  501MOL0     H67632   2.859  10.696   9.712  0.1678 -0.0464 -0.4317
  501MOL0     H67633   3.156  10.816   9.678 -1.9560  3.8578  2.2205
  501MOL0     H67634   3.077  10.833   9.528  4.3700  1.1085  1.2351
  501MOL0     H67635   2.984  10.845   9.676  0.8474 -2.0896  2.3658
  502MOL0     O67636   0.750   3.871  10.862 -0.1444 -0.5154 -0.0617
  502MOL0     C67637   0.651   3.924  10.816  0.2454 -0.6199 -0.2403
  502MOL0     O67638   0.612   3.924  10.689 -0.1446  0.2235  0.0626
  502MOL0     C67639   0.670   3.835  10.598 -0.9376 -0.8916  0.0948
  502MOL0     C67640   0.701   3.705  10.618 -0.4475  0.5543  0.1333
  502MOL0     C67641   0.761   3.628  10.521 -0.4043  0.4129 -0.4093
  502MOL0     C67642   0.795   3.681  10.398  0.3731 -0.2329  0.0129
  502MOL0     O67643   0.853   3.591  10.303 -0.4295 -0.8981  0.4928
  502MOL0     C67644   0.979   3.648  10.246 -0.2285  0.4599  0.2519
  502MOL0     C67645   1.079   3.545  10.199  0.2393  0.0946 -0.4666
  502MOL0     C67646   1.128   3.456  10.319  0.1704  0.2569 -0.2934
  502MOL0     C67647   1.026   3.363  10.380  0.0869 -0.0745  0.6678
  502MOL0     C67648   1.076   3.238  10.455 -0.4911  1.1473  0.2410
  502MOL0     C67649   1.180   3.273  10.567 -0.1620 -0.1373  0.2503
  502MOL0     C67650   1.241   3.166  10.650 -0.0579  0.4061  0.4638
  502MOL0     C67651   1.132   3.086  10.719 -0.7474  0.9347  0.0043
  502MOL0     N67652   1.182   2.962  10.795  0.1168 -0.1371 -0.2170
  502MOL0     C67653   1.184   2.836  10.739 -0.3241 -0.6110  0.0463
  502MOL0     C67654   1.263   2.756  10.826 -0.0746 -1.0869 -0.1678
  502MOL0     C67655   1.280   2.615  10.799 -0.1871 -0.2511  0.2158
  502MOL0     C67656   1.197   2.522  10.887 -1.0500  0.1757 -0.1755
  502MOL0     C67657   1.047   2.534  10.900  0.2780  0.1932 -0.2733
  502MOL0     C67658   1.005   2.460  11.029  0.1742 -0.1340 -0.2403
  502MOL0     O67659   1.018   2.315  11.002 -0.4920  0.9377  0.7289
  502MOL0     C67660   0.907   2.250  10.947  0.1070 -0.9991  0.6846
  502MOL0     C67661   0.907   2.195  10.823  0.3828 -0.2842  1.3837
  502MOL0     C67662   0.797   2.122  10.781 -0.1525 -0.5082  0.5920
  502MOL0     C67663   0.679   2.111  10.851 -0.3528  0.6205 -0.6167
  502MOL0     C67664   0.565   2.040  10.788  0.4512  0.1554  0.5094
  502MOL0     O67665   0.577   1.996  10.657  0.0993 -0.8462 -0.6812
  502MOL0     C67666   0.480   1.908  10.616 -0.1892 -0.3601 -0.0680
  502MOL0     C67667   0.364   1.955  10.546 -0.5975 -0.4067 -0.2154
  502MOL0     C67668   0.270   1.855  10.525  1.4160 -0.8653 -0.6372
  502MOL0     C67669   0.288   1.720  10.563  0.1108  0.3667 -0.4225
  502MOL0     O67670   0.183   1.628  10.560  0.3721 -0.1085 -0.6905
  502MOL0     C67671   0.097   1.623  10.443 -0.4533 -0.9800 -0.6548
  502MOL0     C67672  -0.040   1.584  10.472 -0.2608  0.6642 -1.5108
  502MOL0     C67673  -0.106   1.683  10.565  0.1522  0.5625 -0.5085
  502MOL0     C67674  -0.252   1.645  10.587 -0.5397  0.8210  0.4378
  502MOL0     C67675  -0.330   1.746  10.661 -0.1799  0.0972 -0.1088
  502MOL0     C67676  -0.481   1.725  10.651 -0.4903  0.3233  0.5751
  502MOL0     C67677  -0.563   1.841  10.706  0.3088  0.0925  0.8371
  502MOL0     C67678  -0.714   1.822  10.723  0.3567  0.4319 -0.4230
  502MOL0    Cl67679  -0.791   1.771  10.561 -0.4040 -0.1233 -0.0801
  502MOL0     C67680   0.408   1.680  10.623  0.9116 -0.8956 -0.0215
  502MOL0     C67681   0.507   1.773  10.636 -1.1680 -0.4202 -0.6087
  502MOL0     O67682   0.468   2.009  10.860 -0.4931  0.2361 -0.3094
  502MOL0     C67683   0.681   2.168  10.977  0.1815 -0.0028  0.2759
  502MOL0     C67684   0.794   2.242  11.023 -0.8766  0.0595 -0.5892
  502MOL0     N67685   1.288   2.837  10.936  0.0383  0.0678  0.3375
  502MOL0     N67686   1.252   2.953  10.913 -0.0394 -0.0081 -0.1667
  502MOL0     C67687   0.764   3.814  10.376  0.0363  0.4986 -0.1837
  502MOL0     C67688   0.705   3.894  10.475  0.2777 -0.1557 -0.4024
  502MOL0     C67689   0.557   3.993  10.916  0.5402 -0.2288  0.1009
  502MOL0     C67690   0.446   4.073  10.859  0.0008 -0.1179 -1.2228
  502MOL0     C67691   0.356   4.134  10.949 -0.2725  0.1796 -0.4963
  502MOL0     C67692   0.367   4.129  11.086  0.2859 -0.0511 -0.2846
  502MOL0     O67693   0.277   4.194  11.164  0.6347  0.2445 -0.2182
  502MOL0     C67694   0.307   4.233  11.291  0.1531  0.6816  0.2664
  502MOL0     C67695   0.189   4.305  11.349 -0.0503 -0.4304 -0.6801
  502MOL0     C67696   0.205   4.354  11.497  0.1406 -0.9178  0.5182
  502MOL0     C67697   0.072   4.429  11.524 -0.3244  0.1385  0.4590
  502MOL0     C67698   0.081   4.570  11.485  0.3219  0.2618  0.1151
  502MOL0     C67699   0.086   4.687  11.466  0.1241 -0.0948 -0.1021
  502MOL0     C67700   0.462   4.051  11.139  0.0258 -0.1492 -0.5265
  502MOL0     C67701   0.564   3.990  11.061 -0.0399  0.9356 -0.5116
  502MOL0     C67702   0.667   3.905  11.137  1.3335 -0.1373 -0.1201
  502MOL0     H67703   0.670   3.674  10.717  0.7914  1.9370  1.0032
  502MOL0     H67704   0.788   3.524  10.537 -1.9005  0.3827  2.4895
  502MOL0     H67705   0.956   3.720  10.167  0.5113 -0.9455 -1.3018
  502MOL0     H67706   1.029   3.712  10.319 -1.0892  2.6192 -0.9703
  502MOL0     H67707   1.168   3.594  10.158  0.7290  0.2719  0.7686
  502MOL0     H67708   1.025   3.486  10.124 -0.2782 -1.4354  1.0573
  502MOL0     H67709   1.154   3.532  10.393  2.5554  1.6707 -2.4027
  502MOL0     H67710   1.218   3.407  10.281  0.7087  2.4044 -1.9815
  502MOL0     H67711   0.948   3.406  10.444  0.0899 -0.4557  0.9347
  502MOL0     H67712   0.980   3.315  10.293  1.5703  1.4209 -1.0301
  502MOL0     H67713   0.995   3.186  10.508 -0.3087 -1.4726 -1.8741
  502MOL0     H67714   1.123   3.165  10.390 -2.7834 -0.3044  0.1067
  502MOL0     H67715   1.267   3.320  10.520 -1.8956  2.1875 -0.8829
  502MOL0     H67716   1.142   3.355  10.629  1.2179  0.6148  0.1465
  502MOL0     H67717   1.293   3.209  10.735 -1.0053  1.7875  0.3743
  502MOL0     H67718   1.315   3.107  10.594 -1.4761  0.8775 -2.0878
  502MOL0     H67719   1.075   3.148  10.789  0.0315  2.0936 -0.3583
  502MOL0     H67720   1.070   3.047  10.638 -0.7417  0.0149  0.4218
  502MOL0     H67721   1.129   2.820  10.647 -1.0645 -0.9015  0.5352
  502MOL0     H67722   1.255   2.592  10.695 -0.2729 -2.2581  0.6370
  502MOL0     H67723   1.387   2.610  10.819  0.1604  2.6556 -0.4476
  502MOL0     H67724   1.214   2.419  10.854  0.8129  0.1716  0.6826
  502MOL0     H67725   1.238   2.529  10.988 -0.4036  2.3085 -0.5373
  502MOL0     H67726   0.987   2.498  10.817 -0.4417  1.1584 -0.1909
  502MOL0     H67727   1.027   2.641  10.912  0.3993 -0.0567  3.5599
  502MOL0     H67728   0.898   2.475  11.049 -0.6065 -3.9934 -0.8771
  502MOL0     H67729   1.072   2.478  11.113  0.0889  1.2586 -0.4404
  502MOL0     H67730   0.996   2.191  10.761 -1.4166 -1.2678 -1.3253
  502MOL0     H67731   0.803   2.090  10.678  0.5535 -3.2843  1.4119
  502MOL0     H67732   0.337   2.058  10.526 -3.0032 -0.7270  0.9419
  502MOL0     H67733   0.181   1.904  10.486  0.3832  1.0595  3.5318
  502MOL0     H67734   0.106   1.705  10.371 -0.9315 -0.9431 -0.6758
  502MOL0     H67735   0.144   1.538  10.391  3.1231 -0.6291  1.6371
  502MOL0     H67736  -0.100   1.559  10.384 -0.1847 -3.0221 -0.6871
  502MOL0     H67737  -0.044   1.492  10.531  1.8593  1.9814  0.8853
  502MOL0     H67738  -0.062   1.691  10.665 -1.8564  2.7024  0.2981
  502MOL0     H67739  -0.108   1.789  10.538 -0.4041  1.2137  1.8575
  502MOL0     H67740  -0.246   1.564  10.660  0.3261  0.6285  0.1649
  502MOL0     H67741  -0.298   1.603  10.497 -1.1252  0.1598  1.0370
  502MOL0     H67742  -0.308   1.838  10.606  1.7542 -0.5278 -0.4708
  502MOL0     H67743  -0.298   1.768  10.763  3.2121 -3.8977 -0.0615
  502MOL0     H67744  -0.512   1.721  10.546 -0.4161  1.3614  0.5029
  502MOL0     H67745  -0.508   1.639  10.713 -0.1287  1.4678  2.3981
  502MOL0     H67746  -0.548   1.921  10.632 -1.4109 -2.1477 -2.1548
  502MOL0     H67747  -0.523   1.865  10.805 -2.9665  2.6890  1.7296
  502MOL0     H67748  -0.731   1.738  10.790 -2.5723 -0.2886 -1.9027
  502MOL0     H67749  -0.757   1.910  10.773 -3.5928 -3.2430  3.5470
  502MOL0     H67750   0.418   1.573  10.641  2.0743 -1.3182 -2.7316
  502MOL0     H67751   0.600   1.738  10.680 -0.6506  0.7238 -0.7495
  502MOL0     H67752   0.600   2.156  11.049  0.7412  1.3908  1.1933
  502MOL0     H67753   0.777   2.295  11.117  1.4113 -1.0039  0.5008
  502MOL0     H67754   0.776   3.869  10.283 -2.2785 -0.3471 -1.0499
  502MOL0     H67755   0.670   3.993  10.448 -0.3583 -1.0402 -3.1568
  502MOL0     H67756   0.453   4.071  10.751 -0.0002 -1.7894 -1.2264
  502MOL0     H67757   0.277   4.194  10.904 -1.6987  0.0740  1.7029
  502MOL0     H67758   0.403   4.286  11.291  2.0639 -2.1378  5.1631
  502MOL0     H67759   0.327   4.141  11.347 -1.9906 -1.2011 -1.8269
  502MOL0     H67760   0.101   4.243  11.332 -1.7603  1.4656  0.6932
  502MOL0     H67761   0.175   4.391  11.283  2.3719 -0.1047 -0.8601
  502MOL0     H67762   0.298   4.411  11.501  0.2536 -1.0798  0.1921
  502MOL0     H67763   0.215   4.262  11.556 -1.5987  0.9535  4.0897
  502MOL0     H67764  -0.010   4.389  11.464 -0.6285 -0.4486  1.2537
  502MOL0     H67765   0.036   4.425  11.628  1.1181 -0.5605  0.9677
  502MOL0     H67766   0.070   4.787  11.433 -2.7999 -1.0425 -1.9773
  502MOL0     H67767   0.478   4.046  11.246 -1.1006 -2.4095 -0.4040
  502MOL0     H67768   0.618   3.883  11.233  0.8959 -1.4778 -0.6249
  502MOL0     H67769   0.670   3.805  11.094 -2.3483  0.6083 -2.5851
  502MOL0     H67770   0.764   3.954  11.129  2.2043 -2.1412 -4.0664
  503MOL0     O67771   2.645   7.951  10.967  0.2756 -0.4125  0.1983
  503MOL0     C67772   2.708   7.863  10.911 -0.2488 -0.2095  1.2078
  503MOL0     O67773   2.694   7.726  10.933 -0.6732 -0.3142  0.4894
  503MOL0     C67774   2.587   7.679  10.993  0.2261 -0.1389 -0.7348
  503MOL0     C67775   2.602   7.573  11.078 -0.7745  0.6041  0.3390
  503MOL0     C67776   2.494   7.511  11.146  0.9651  0.5653 -0.0100
  503MOL0     C67777   2.363   7.557  11.121 -0.0328 -0.1130  0.5232
  503MOL0     O67778   2.245   7.494  11.158 -0.1316 -0.4473  0.1498
  503MOL0     C67779   2.242   7.353  11.176 -0.2567  0.7326  0.5878
  503MOL0     C67780   2.102   7.291  11.199 -0.4310  0.1818  0.0055
  503MOL0     C67781   2.059   7.316  11.354 -0.5142  0.0765  0.0467
  503MOL0     C67782   2.119   7.208  11.442  0.2685  0.3606 -0.3546
  503MOL0     C67783   2.125   7.254  11.588 -1.4769 -0.5511 -0.0047
  503MOL0     C67784   2.160   7.121  11.670 -0.1435  0.1352  1.5754
  503MOL0     C67785   2.162   7.134  11.825  0.3585  0.2544 -0.4533
  503MOL0     C67786   2.026   7.161  11.888 -0.5686  0.4511 -0.5361
  503MOL0     N67787   2.021   7.138  12.037 -0.2810 -0.5267 -0.2356
  503MOL0     C67788   2.094   7.208  12.129 -0.0643  0.2277  0.0088
  503MOL0     C67789   2.048   7.149  12.243 -0.3369 -0.7512 -0.3271
  503MOL0     C67790   2.079   7.217  12.381 -0.4915 -0.5822 -0.7777
  503MOL0     C67791   2.008   7.353  12.386  0.0492 -0.7270 -0.5801
  503MOL0     C67792   2.042   7.420  12.520 -0.9104  0.0559  0.0776
  503MOL0     C67793   2.045   7.575  12.524 -0.4263  0.1449  0.3346
  503MOL0     O67794   1.919   7.633  12.466  0.0532  0.5097 -0.0023
  503MOL0     C67795   1.903   7.769  12.478  0.0071  0.1775 -0.0242
  503MOL0     C67796   2.008   7.853  12.512  0.1096  1.2254 -0.2970
  503MOL0     C67797   1.980   7.990  12.527  0.0176 -0.3946 -0.2417
  503MOL0     C67798   1.849   8.038  12.510  0.3270  0.3517 -0.2982
  503MOL0     C67799   1.825   8.181  12.544  0.2286 -0.2900  0.5015
  503MOL0     O67800   1.929   8.254  12.570 -0.4390 -0.1050  0.2017
  503MOL0     C67801   1.915   8.371  12.639 -0.9295 -0.1412  0.5212
  503MOL0     C67802   1.926   8.379  12.772  0.1641  0.3184 -0.5417
  503MOL0     C67803   1.924   8.502  12.835 -0.0453 -0.3757 -0.6606
  503MOL0     C67804   1.929   8.625  12.757  0.4467  0.6091 -0.1511
  503MOL0     O67805   1.917   8.739  12.821  0.2380 -0.5722 -0.3092
  503MOL0     C67806   1.967   8.864  12.769 -0.3005  0.7706 -0.6241
  503MOL0     C67807   1.946   8.991  12.859 -0.6781 -0.8231 -0.1104
  503MOL0     C67808   2.029   8.980  12.990 -0.2852 -0.4655 -0.5479
  503MOL0     C67809   2.021   9.126  13.038  0.2505 -0.2914 -0.4176
  503MOL0     C67810   2.079   9.144  13.183  0.4860 -0.1198 -0.6119
  503MOL0     C67811   1.995   9.090  13.296 -0.7558  0.5238 -0.1051
  503MOL0     C67812   2.032   9.165  13.419  0.2303  0.2392 -0.0714
  503MOL0     C67813   1.957   9.098  13.527 -0.5285  0.3256 -0.5257
  503MOL0    Cl67814   1.993   9.169  13.679  0.3896 -0.3905  0.1756
  503MOL0     C67815   1.934   8.614  12.618  0.3474  0.0599  0.6110
  503MOL0     C67816   1.925   8.489  12.564 -0.2564 -0.0712 -0.3930
  503MOL0     O67817   1.709   8.216  12.568  0.9850  0.1658  0.0814
  503MOL0     C67818   1.748   7.966  12.453  0.1916  0.4301 -0.3336
  503MOL0     C67819   1.780   7.833  12.445  0.4586 -0.4131 -0.2995
  503MOL0     N67820   1.972   7.038  12.219 -0.0278  0.7182  0.1307
  503MOL0     N67821   1.946   7.041  12.092 -0.0330  0.0485  0.1180
  503MOL0     C67822   2.345   7.663  11.037  0.1417 -0.7262  0.7343
  503MOL0     C67823   2.453   7.729  10.975  0.6767  0.0532 -0.6088
  503MOL0     C67824   2.818   7.884  10.803  0.2465  0.3310 -0.7073
  503MOL0     C67825   2.936   7.803  10.795 -0.0706  0.1369  0.0019
  503MOL0     C67826   3.028   7.820  10.694  0.1885  0.2898 -0.1070
  503MOL0     C67827   3.011   7.919  10.597  0.2930 -0.0700  0.2301
  503MOL0     O67828   3.115   7.935  10.503 -0.4431 -0.5130  0.4575
  503MOL0     C67829   3.112   8.036  10.405 -0.1728  0.4928  0.5019
  503MOL0     C67830   3.177   8.166  10.465  0.2342  0.7646 -0.1769
  503MOL0     C67831   3.158   8.282  10.373 -0.6441 -0.9280  0.4362
  503MOL0     C67832   3.228   8.417  10.428  0.4073  0.5314  0.8973
  503MOL0     C67833   3.274   8.495  10.323 -1.0180 -0.6823  0.1110
  503MOL0     C67834   3.299   8.563  10.229  0.5597 -0.3703  0.7364
  503MOL0     C67835   2.893   8.008  10.610 -0.1006  0.0099  0.3632
  503MOL0     C67836   2.797   7.984  10.705 -0.4737  0.0829 -0.5978
  503MOL0     C67837   2.675   8.072  10.692  0.1086  0.3834  0.0624
  503MOL0     H67838   2.703   7.537  11.099 -1.1526  0.8684  2.9312
  503MOL0     H67839   2.514   7.427  11.212  1.3050 -0.8433 -1.8481
  503MOL0     H67840   2.282   7.300  11.089  2.4257  1.2870  1.3723
  503MOL0     H67841   2.310   7.326  11.258  0.2537 -1.3531 -0.4611
  503MOL0     H67842   2.103   7.182  11.186  2.8450 -0.0136  0.8781
  503MOL0     H67843   2.023   7.335  11.137 -2.3476 -2.0785  0.7015
  503MOL0     H67844   1.951   7.298  11.363 -0.4641 -1.1551 -1.3776
  503MOL0     H67845   2.097   7.415  11.380  1.5458 -0.4337 -0.8186
  503MOL0     H67846   2.053   7.123  11.424 -0.2998  0.8919 -0.8340
  503MOL0     H67847   2.224   7.195  11.412  0.0868  0.6241 -1.1345
  503MOL0     H67848   2.203   7.329  11.605  0.5183 -3.1938  4.2462
  503MOL0     H67849   2.032   7.299  11.624 -0.1816  1.4831  0.9888
  503MOL0     H67850   2.085   7.045  11.648  1.6202 -0.4980 -3.3760
  503MOL0     H67851   2.256   7.073  11.646 -2.0270 -2.9298 -0.5839
  503MOL0     H67852   2.232   7.213  11.856  3.2356 -2.6030  0.8592
  503MOL0     H67853   2.207   7.042  11.860  0.9083  0.6044 -0.2316
  503MOL0     H67854   2.006   7.268  11.879  0.8266  0.9082  1.2475
  503MOL0     H67855   1.954   7.094  11.840  1.9308 -3.7864  1.0600
  503MOL0     H67856   2.155   7.297  12.122 -1.8536  1.6911  1.8753
  503MOL0     H67857   2.026   7.170  12.464 -0.9211  0.4265 -0.4560
  503MOL0     H67858   2.184   7.228  12.408 -0.9926  0.2386  1.0351
  503MOL0     H67859   2.024   7.415  12.298 -2.0856 -0.0501 -0.5502
  503MOL0     H67860   1.899   7.339  12.384 -0.3585  1.8121 -3.7777
  503MOL0     H67861   2.136   7.384  12.561 -0.9379  0.3871  0.4320
  503MOL0     H67862   1.976   7.389  12.602 -2.1409 -1.2508 -1.3443
  503MOL0     H67863   2.123   7.614  12.457 -0.8441 -0.7540 -0.7179
  503MOL0     H67864   2.066   7.606  12.626 -2.2013 -3.2470  1.8826
  503MOL0     H67865   2.106   7.814  12.537  0.1807 -1.2452 -3.6795
  503MOL0     H67866   2.057   8.059  12.562 -1.4869  1.8365 -1.1070
  503MOL0     H67867   1.924   8.278  12.812 -1.1423  0.3716 -0.4370
  503MOL0     H67868   1.911   8.502  12.943 -1.7634 -0.7643 -0.8388
  503MOL0     H67869   2.074   8.862  12.750  0.1799  0.3478  1.8437
  503MOL0     H67870   1.912   8.900  12.681 -1.0209  3.2317  0.7579
  503MOL0     H67871   2.001   9.068  12.804 -1.0762 -1.8403 -2.0386
  503MOL0     H67872   1.845   9.021  12.887  1.1277  4.6060  1.9447
  503MOL0     H67873   1.981   8.911  13.060  0.5924 -1.3092 -0.7673
  503MOL0     H67874   2.135   8.953  12.990 -0.2743 -0.7412  2.2575
  503MOL0     H67875   1.919   9.165  13.046  0.5675  0.7434 -1.1575
  503MOL0     H67876   2.078   9.174  12.958  2.5508 -3.1217 -0.6312
  503MOL0     H67877   2.103   9.248  13.208 -0.4970  0.2138 -1.0131
  503MOL0     H67878   2.175   9.093  13.172  0.6571  0.6131 -3.2558
  503MOL0     H67879   1.890   9.105  13.269 -0.2382  3.5938 -0.8290
  503MOL0     H67880   2.019   8.984  13.308  0.1399  0.2331 -3.4981
  503MOL0     H67881   2.004   9.271  13.408 -0.3503  0.4041  2.2914
  503MOL0     H67882   2.138   9.143  13.434  0.2477  1.1701  1.4711
  503MOL0     H67883   1.852   9.074  13.506 -0.5622 -0.9522  0.8968
  503MOL0     H67884   2.005   9.000  13.531  0.1183  0.4515 -3.1951
  503MOL0     H67885   1.943   8.698  12.550 -0.2937  1.4189  2.1441
  503MOL0     H67886   1.928   8.472  12.457  1.8473 -1.5491 -0.1589
  503MOL0     H67887   1.650   8.002  12.424 -0.0153 -1.0883 -1.6885
  503MOL0     H67888   1.713   7.756  12.409 -0.6998  0.5948 -0.3608
  503MOL0     H67889   2.243   7.685  11.006 -0.1454 -2.2573  0.5105
  503MOL0     H67890   2.438   7.818  10.916  1.7718  0.0722 -0.8839
  503MOL0     H67891   2.962   7.716  10.854  0.4197  0.8053  0.8016
  503MOL0     H67892   3.109   7.750  10.706  0.0686 -0.0034 -0.9659
  503MOL0     H67893   3.010   8.045  10.367 -0.5313  1.7787  1.6835
  503MOL0     H67894   3.175   7.995  10.325 -0.6406 -0.5307  0.6462
  503MOL0     H67895   3.284   8.151  10.477 -0.0944 -0.3298  2.0353
  503MOL0     H67896   3.127   8.189  10.559 -0.6380 -0.2351 -0.3688
  503MOL0     H67897   3.052   8.302  10.361 -0.6333 -1.3458 -0.4212
  503MOL0     H67898   3.202   8.250  10.278  1.6950 -0.2628  1.2145
  503MOL0     H67899   3.153   8.473  10.484 -0.4792  2.7617 -2.2423
  503MOL0     H67900   3.304   8.390  10.502  1.2529 -2.0570 -0.7685
  503MOL0     H67901   3.324   8.620  10.141 -1.8007  0.9044  0.8005
  503MOL0     H67902   2.881   8.092  10.543 -0.3866  2.5057  3.3325
  503MOL0     H67903   2.576   8.028  10.703 -0.0987  0.8520  0.1051
  503MOL0     H67904   2.691   8.152  10.766 -1.7022  2.0113 -1.2055
  503MOL0     H67905   2.660   8.116  10.593  0.2789  0.0404 -0.1171
  504MOL0     O67906  11.092   6.152   9.070 -0.2132  0.3920  0.2142
  504MOL0     C67907  10.984   6.183   9.113 -0.4475  0.0425 -0.3051
  504MOL0     O67908  10.899   6.275   9.062  0.1411  1.4661  0.0148
  504MOL0     C67909  10.947   6.364   8.962  0.2794 -0.5515 -0.6833
  504MOL0     C67910  10.864   6.406   8.859 -0.0838 -0.2475 -0.1576
  504MOL0     C67911  10.904   6.490   8.761  0.0642  0.5107  0.9377
  504MOL0     C67912  11.030   6.547   8.753  0.6454 -1.3519 -0.2227
  504MOL0     O67913  11.073   6.624   8.648  0.4587 -0.3197 -0.8637
  504MOL0     C67914  10.999   6.638   8.533  0.7361  0.5484 -0.1802
  504MOL0     C67915  11.052   6.760   8.463  0.5023 -0.3118  0.3364
  504MOL0     C67916  11.042   6.888   8.542  0.2305 -0.3329 -0.1893
  504MOL0     C67917  11.045   7.018   8.453  0.6930  0.5966 -0.8290
  504MOL0     C67918  11.077   7.146   8.532  0.6509  1.1457 -0.5755
  504MOL0     C67919  11.079   7.279   8.442  0.2703 -0.1718 -0.5332
  504MOL0     C67920  10.952   7.371   8.436  0.3723  0.8807 -0.9152
  504MOL0     C67921  10.829   7.291   8.409 -0.5701  0.2675 -0.0087
  504MOL0     N67922  10.724   7.395   8.409 -0.2427 -0.4650  0.0688
  504MOL0     C67923  10.709   7.493   8.495 -0.2543  0.5523 -0.5500
  504MOL0     C67924  10.599   7.557   8.449 -1.0011 -0.2898 -0.9509
  504MOL0     C67925  10.529   7.666   8.525  0.6914  0.4699 -0.3423
  504MOL0     C67926  10.384   7.666   8.481 -0.3314 -0.7446  0.3654
  504MOL0     C67927  10.322   7.799   8.508 -0.4184 -0.0662  0.4456
  504MOL0     C67928  10.286   7.829   8.656 -0.6955 -0.3620  0.9145
  504MOL0     O67929  10.222   7.954   8.665  0.1120  0.2803  0.0311
  504MOL0     C67930  10.221   8.016   8.792  0.7806  0.5781  0.1469
  504MOL0     C67931  10.334   8.064   8.857 -0.5969 -0.0099 -0.2874
  504MOL0     C67932  10.335   8.092   8.995  0.2395 -0.7246  0.2744
  504MOL0     C67933  10.208   8.096   9.068 -0.7090  0.9992  0.4269
  504MOL0     C67934  10.205   8.133   9.203 -0.0099  1.2573  0.7372
  504MOL0     O67935  10.084   8.198   9.228 -0.4983 -0.0230 -0.6420
  504MOL0     C67936  10.058   8.247   9.349 -0.5124 -0.3950 -0.5105
  504MOL0     C67937   9.924   8.218   9.388 -0.3024 -0.6568 -0.2846
  504MOL0     C67938   9.877   8.277   9.510 -0.0005 -0.4941  0.4895
  504MOL0     C67939   9.968   8.359   9.585 -1.0380  0.3840 -0.3300
  504MOL0     O67940   9.931   8.420   9.700 -0.2567  0.5383 -1.0004
  504MOL0     C67941   9.814   8.379   9.768 -0.5236  0.2814 -0.1723
  504MOL0     C67942   9.804   8.464   9.891  1.0212  0.8833  0.7677
  504MOL0     C67943   9.681   8.414   9.969 -0.3703 -0.2248  0.3525
  504MOL0     C67944   9.663   8.265  10.013 -0.0192  1.0951  0.3019
  504MOL0     C67945   9.545   8.230  10.103 -1.4728 -0.8089 -0.2485
  504MOL0     C67946   9.410   8.289  10.070 -0.0106  0.4839  0.1034
  504MOL0     C67947   9.319   8.249  10.188 -0.8574 -0.4294 -0.7150
  504MOL0     C67948   9.191   8.186  10.144 -0.1278  0.0433 -0.5545
  504MOL0    Cl67949   9.238   8.037  10.054 -0.3016 -0.0230  0.4551
  504MOL0     C67950  10.096   8.380   9.539  0.2394 -0.0726  0.1221
  504MOL0     C67951  10.148   8.322   9.427  0.1265 -0.1636  0.0094
  504MOL0     O67952  10.298   8.103   9.274  0.3634 -0.1537 -0.1203
  504MOL0     C67953  10.099   8.055   8.995  0.5502 -0.0517  0.9033
  504MOL0     C67954  10.101   8.014   8.858 -0.8332  0.5154 -0.4488
  504MOL0     N67955  10.547   7.492   8.342 -0.7868 -0.1302 -0.3202
  504MOL0     N67956  10.622   7.397   8.316  0.2974  1.2500 -0.4948
  504MOL0     C67957  11.119   6.522   8.860 -0.0631  0.5468 -0.1535
  504MOL0     C67958  11.074   6.429   8.959 -0.1133 -0.9743  0.5310
  504MOL0     C67959  10.929   6.106   9.239 -0.0300  0.4302  0.2534
  504MOL0     C67960  10.794   6.124   9.281  0.0363  0.6135  0.3397
  504MOL0     C67961  10.738   6.052   9.389 -0.8583  0.1440  0.6758
  504MOL0     C67962  10.821   5.971   9.460 -0.4045  0.9062 -0.5664
  504MOL0     O67963  10.772   5.894   9.570  0.4118 -0.5946  0.5886
  504MOL0     C67964  10.673   5.801   9.524  0.2073  0.2298 -1.2042
  504MOL0     C67965  10.631   5.712   9.647 -0.6457 -0.5796 -0.2676
  504MOL0     C67966  10.562   5.797   9.763  1.0265 -0.5952 -0.3959
  504MOL0     C67967  10.569   5.702   9.885 -0.1711  0.2103  0.0537
  504MOL0     C67968  10.504   5.762   9.998  0.0880 -0.5976 -0.3154
  504MOL0     C67969  10.456   5.802  10.096  0.0314 -1.2993  0.2925
  504MOL0     C67970  10.958   5.959   9.430  0.2743 -0.7909 -0.5529
  504MOL0     C67971  11.016   6.037   9.326  1.2269  0.2719  0.1219
  504MOL0     C67972  11.165   6.023   9.310  0.0725  0.6059  0.5067
  504MOL0     H67973  10.767   6.359   8.869 -0.5846  1.0439  1.2422
  504MOL0     H67974  10.833   6.503   8.681  1.0370  0.3354  0.0306
  504MOL0     H67975  11.012   6.553   8.464 -3.9319 -0.0329 -0.6408
  504MOL0     H67976  10.891   6.654   8.542  0.3049 -1.5361 -1.0089
  504MOL0     H67977  11.002   6.774   8.366  0.2891  0.5328  0.5628
  504MOL0     H67978  11.156   6.737   8.437 -0.3621 -1.8705 -2.1839
  504MOL0     H67979  11.131   6.901   8.605  0.6788  0.8083 -1.0083
  504MOL0     H67980  10.947   6.887   8.595 -0.9764 -3.5217 -2.1082
  504MOL0     H67981  11.119   7.011   8.373  1.9442  1.8878  0.1502
  504MOL0     H67982  10.947   7.038   8.410 -0.5907  2.8682  2.6304
  504MOL0     H67983  10.993   7.152   8.601  2.0836  3.3916  1.0995
  504MOL0     H67984  11.165   7.139   8.596  0.8888  0.5821 -0.9573
  504MOL0     H67985  11.158   7.342   8.484  2.4975 -2.0118 -1.7491
  504MOL0     H67986  11.120   7.257   8.343  2.2009  0.7973 -0.0004
  504MOL0     H67987  10.958   7.445   8.356 -1.1571  2.0390  0.0047
  504MOL0     H67988  10.946   7.413   8.536 -0.4922 -0.4539 -0.3788
  504MOL0     H67989  10.837   7.244   8.310 -2.4329  0.3946 -0.2617
  504MOL0     H67990  10.815   7.213   8.484 -1.1534  1.6068  1.3325
  504MOL0     H67991  10.773   7.509   8.581  0.8544 -1.3247 -0.9608
  504MOL0     H67992  10.548   7.631   8.627  1.8051 -4.6579 -2.0298
  504MOL0     H67993  10.582   7.760   8.508 -0.8466  1.1546 -1.5803
  504MOL0     H67994  10.383   7.662   8.372  0.3871 -2.2977  0.3977
  504MOL0     H67995  10.331   7.579   8.521 -0.8540 -1.2255 -1.2804
  504MOL0     H67996  10.225   7.802   8.457  0.2026 -0.8044 -0.8257
  504MOL0     H67997  10.388   7.873   8.461  0.5451 -2.8237 -3.0464
  504MOL0     H67998  10.372   7.829   8.723  0.1994  0.3200 -0.1841
  504MOL0     H67999  10.204   7.763   8.685 -0.2519 -2.4641 -2.0560
  504MOL0     H68000  10.427   8.071   8.800  0.4766 -0.0656  1.3799
  504MOL0     H68001  10.430   8.125   9.037  1.0179  1.9522 -3.2069
  504MOL0     H68002   9.868   8.152   9.322  0.4751 -1.9630  0.3352
  504MOL0     H68003   9.782   8.241   9.548 -1.2053  1.0770 -0.9100
  504MOL0     H68004   9.723   8.392   9.709 -2.1404 -2.9321  1.3443
  504MOL0     H68005   9.824   8.272   9.789 -2.7866 -0.2606 -1.5275
  504MOL0     H68006   9.893   8.456   9.955  0.0560  0.7357  2.1286
  504MOL0     H68007   9.806   8.571   9.869  1.3399  0.8217  0.4924
  504MOL0     H68008   9.673   8.470  10.063 -0.1005  1.6640 -0.7016
  504MOL0     H68009   9.603   8.432   9.895  1.4867 -1.3976 -2.0163
  504MOL0     H68010   9.754   8.222  10.057  1.5425  2.6462 -1.2440
  504MOL0     H68011   9.650   8.207   9.922  0.6533 -4.2767  3.2014
  504MOL0     H68012   9.573   8.277  10.197 -2.1458  2.2050 -1.4256
  504MOL0     H68013   9.546   8.122  10.113 -3.2580 -0.9587 -1.1395
  504MOL0     H68014   9.407   8.395  10.042  0.5952 -0.2843 -3.3600
  504MOL0     H68015   9.385   8.239   9.975  0.6396  0.7965 -0.2346
  504MOL0     H68016   9.298   8.342  10.242  2.0901  0.0023 -0.1730
  504MOL0     H68017   9.363   8.177  10.258 -0.4366 -1.7575 -2.2717
  504MOL0     H68018   9.127   8.165  10.230  2.7112  2.8190  2.5396
  504MOL0     H68019   9.123   8.247  10.084  0.3541  3.3345  1.9511
  504MOL0     H68020  10.165   8.426   9.609  2.1361  1.4525 -2.5545
  504MOL0     H68021  10.254   8.338   9.412  0.6471 -2.2322  1.1597
  504MOL0     H68022   9.995   8.053   9.026  0.1986 -0.9176 -0.2315
  504MOL0     H68023  10.011   7.973   8.814 -1.6404  2.3111 -0.5269
  504MOL0     H68024  11.223   6.553   8.864 -0.1954  0.9978 -0.1513
  504MOL0     H68025  11.139   6.416   9.045 -0.0184 -1.5972  0.3704
  504MOL0     H68026  10.724   6.183   9.223 -1.2789 -1.7942 -0.6739
  504MOL0     H68027  10.636   6.079   9.415 -1.1964 -2.7135  2.8472
  504MOL0     H68028  10.724   5.733   9.455 -2.1844 -1.5604 -1.3221
  504MOL0     H68029  10.590   5.853   9.477  1.0257  3.1215  0.3148
  504MOL0     H68030  10.724   5.665   9.682 -0.0402 -1.5763 -2.9605
  504MOL0     H68031  10.564   5.636   9.606 -2.2092  1.5567 -1.8724
  504MOL0     H68032  10.457   5.807   9.735  1.4068  0.1904 -1.5983
  504MOL0     H68033  10.625   5.884   9.784  0.5946 -1.0659  3.6689
  504MOL0     H68034  10.516   5.607   9.870 -0.3022  0.4402 -1.0107
  504MOL0     H68035  10.675   5.679   9.899  0.0631 -0.7491 -2.7842
  504MOL0     H68036  10.410   5.852  10.179 -3.8394  0.8208 -2.7862
  504MOL0     H68037  11.020   5.883   9.476  0.3843  1.0206  2.5212
  504MOL0     H68038  11.220   5.995   9.400  1.8125 -0.5564 -0.8611
  504MOL0     H68039  11.199   5.957   9.231  1.7734 -1.0215  2.4795
  504MOL0     H68040  11.211   6.121   9.294  1.5470 -0.0556  0.5939
  505MOL0     O68041   6.051   8.879   4.169 -0.0604 -0.1859 -0.0325
  505MOL0     C68042   6.173   8.905   4.165 -0.0593 -0.7891 -0.1397
  505MOL0     O68043   6.243   8.905   4.046 -0.5675 -0.2999 -0.0802
  505MOL0     C68044   6.200   8.877   3.920 -0.7220 -0.2838 -0.8707
  505MOL0     C68045   6.064   8.883   3.882 -0.0212 -0.3645  0.9260
  505MOL0     C68046   6.033   8.836   3.754  1.0895 -0.6672 -0.8431
  505MOL0     C68047   6.131   8.791   3.659 -0.0474 -0.0109 -1.4532
  505MOL0     O68048   6.088   8.765   3.538 -0.6833  0.2404 -0.2609
  505MOL0     C68049   6.178   8.670   3.465 -0.0298 -0.1413  0.4772
  505MOL0     C68050   6.106   8.630   3.335 -0.7323 -0.0173  0.2316
  505MOL0     C68051   6.189   8.522   3.257  0.1813  0.0645  0.2693
  505MOL0     C68052   6.336   8.542   3.209  0.7399  0.0952  1.0071
  505MOL0     C68053   6.336   8.638   3.098 -1.8195  0.8916 -0.0312
  505MOL0     C68054   6.459   8.609   3.021  0.2082  0.4523  1.2493
  505MOL0     C68055   6.460   8.705   2.904  0.5433  1.5707  0.4342
  505MOL0     C68056   6.366   8.636   2.796  0.1368 -0.0620  0.0351
  505MOL0     N68057   6.374   8.722   2.676  0.1112 -0.2347 -0.1244
  505MOL0     C68058   6.312   8.841   2.645 -0.2356  1.5243 -0.0193
  505MOL0     C68059   6.338   8.873   2.518  0.1289 -0.3056  0.0799
  505MOL0     C68060   6.286   8.993   2.442 -0.5943  0.5657 -0.2595
  505MOL0     C68061   6.371   9.035   2.314 -0.0252 -0.3208 -0.3403
  505MOL0     C68062   6.305   9.143   2.226  0.0594  0.3542  0.3457
  505MOL0     C68063   6.255   9.267   2.293  0.4132 -0.0994 -0.5051
  505MOL0     O68064   6.123   9.256   2.329 -0.1178  0.5425 -0.1045
  505MOL0     C68065   6.035   9.328   2.256 -0.3853 -0.3114 -0.1898
  505MOL0     C68066   5.941   9.246   2.199 -0.6412 -0.5934 -0.3952
  505MOL0     C68067   5.872   9.280   2.081  0.5334 -0.0047 -0.5896
  505MOL0     C68068   5.886   9.410   2.026  0.0460 -0.4151 -0.7232
  505MOL0     C68069   5.803   9.451   1.908 -0.5943 -0.2102  0.8972
  505MOL0     O68070   5.693   9.375   1.887  0.8726  0.5802  0.5989
  505MOL0     C68071   5.625   9.371   1.767 -0.1640  0.0496 -0.3124
  505MOL0     C68072   5.662   9.440   1.649  0.8955  0.2500  1.3290
  505MOL0     C68073   5.580   9.405   1.538 -0.3337 -0.5482 -0.0103
  505MOL0     C68074   5.473   9.323   1.535  0.6444  0.3535 -0.1967
  505MOL0     O68075   5.389   9.313   1.423  0.0300  0.5229  0.0542
  505MOL0     C68076   5.454   9.298   1.292  0.4067  1.1244 -0.0241
  505MOL0     C68077   5.353   9.212   1.211  0.2258  0.2583 -0.1330
  505MOL0     C68078   5.415   9.193   1.074 -0.1732  0.5151  0.8270
  505MOL0     C68079   5.339   9.079   0.989 -0.3451 -0.4327 -0.1986
  505MOL0     C68080   5.399   9.068   0.845  0.1187  0.0964 -0.2462
  505MOL0     C68081   5.368   8.924   0.797 -1.7752 -0.0984 -0.5731
  505MOL0     C68082   5.393   8.909   0.653  0.4758  0.1269  1.1360
  505MOL0     C68083   5.283   8.959   0.560 -0.0465 -0.2634  0.1097
  505MOL0    Cl68084   5.123   8.896   0.607 -0.0853  0.2399 -0.1306
  505MOL0     C68085   5.450   9.242   1.644  0.7851  0.0293  0.1590
  505MOL0     C68086   5.520   9.274   1.763 -0.9441  0.2214 -0.0190
  505MOL0     O68087   5.833   9.552   1.850 -0.0791 -0.1890 -0.1730
  505MOL0     C68088   5.976   9.500   2.094  0.0250 -0.5833 -0.3560
  505MOL0     C68089   6.056   9.454   2.201  0.9181 -0.5589 -0.7180
  505MOL0     N68090   6.409   8.775   2.463 -0.6693  0.2008 -0.2508
  505MOL0     N68091   6.440   8.687   2.562  0.5005 -0.4329  0.5232
  505MOL0     C68092   6.264   8.780   3.706 -0.1289  0.7768 -0.8567
  505MOL0     C68093   6.299   8.829   3.835  0.3524  0.6140 -0.2192
  505MOL0     C68094   6.255   8.952   4.281  1.0133 -1.1204  0.4186
  505MOL0     C68095   6.391   8.980   4.268 -0.1049 -0.5662 -0.1207
  505MOL0     C68096   6.469   9.023   4.377  0.5983  0.3391  0.4610
  505MOL0     C68097   6.417   9.054   4.501 -0.1770 -0.5243 -0.3651
  505MOL0     O68098   6.503   9.102   4.598  0.5438  0.2256  0.7737
  505MOL0     C68099   6.454   9.124   4.737 -0.9907 -0.5708 -1.5675
  505MOL0     C68100   6.583   9.183   4.816  0.7966  0.0766  0.0605
  505MOL0     C68101   6.573   9.164   4.970  0.5371 -0.0162  0.5773
  505MOL0     C68102   6.720   9.200   5.022 -0.3139 -0.6853  0.6142
  505MOL0     C68103   6.742   9.206   5.170  0.3693 -0.7130  0.3778
  505MOL0     C68104   6.748   9.202   5.288  0.0840 -0.4385 -0.1119
  505MOL0     C68105   6.279   9.016   4.517 -0.5069  0.2123 -0.3019
  505MOL0     C68106   6.199   8.966   4.413  0.3311 -0.0855  0.3044
  505MOL0     C68107   6.052   8.963   4.443 -0.1047  0.3926  0.5376
  505MOL0     H68108   5.986   8.937   3.935  0.8241  2.7552 -0.7933
  505MOL0     H68109   5.936   8.863   3.713  2.1058  2.8630 -1.2456
  505MOL0     H68110   6.277   8.711   3.444  0.2008 -2.1588 -3.4369
  505MOL0     H68111   6.186   8.589   3.538  2.3716 -0.3373  0.0718
  505MOL0     H68112   6.124   8.713   3.266  0.1877 -1.8997 -1.9198
  505MOL0     H68113   6.003   8.595   3.345 -0.9086  0.0786 -1.0816
  505MOL0     H68114   6.127   8.494   3.172 -0.3093 -1.3633  1.0647
  505MOL0     H68115   6.193   8.435   3.323 -0.9924  3.2102  5.0023
  505MOL0     H68116   6.398   8.572   3.294 -2.0976  1.9952  2.5734
  505MOL0     H68117   6.368   8.442   3.179  2.3757  0.7765  0.3861
  505MOL0     H68118   6.247   8.634   3.035  0.7759  3.3330 -4.3473
  505MOL0     H68119   6.336   8.735   3.147  0.5243  1.2659 -0.6218
  505MOL0     H68120   6.546   8.637   3.081  2.8331 -1.9486 -1.1584
  505MOL0     H68121   6.473   8.508   2.983 -0.6338  0.3990  1.0598
  505MOL0     H68122   6.561   8.702   2.861  0.7875 -2.2894  0.9264
  505MOL0     H68123   6.433   8.808   2.929  0.0065  1.4272  0.4568
  505MOL0     H68124   6.402   8.536   2.769 -1.1140  0.1552 -2.7337
  505MOL0     H68125   6.263   8.639   2.832  0.2043  4.1216  0.4096
  505MOL0     H68126   6.252   8.909   2.704 -2.0669  2.3713 -2.6862
  505MOL0     H68127   6.183   8.974   2.412 -0.7399  0.6836  0.1512
  505MOL0     H68128   6.287   9.071   2.520  3.1958 -0.7171  1.2454
  505MOL0     H68129   6.465   9.075   2.353 -0.2794 -1.9768  2.2128
  505MOL0     H68130   6.380   8.944   2.254  1.2828 -0.9391  0.7493
  505MOL0     H68131   6.220   9.098   2.173 -2.9022  3.5898  1.9403
  505MOL0     H68132   6.372   9.173   2.146 -2.3243  1.1859 -1.4415
  505MOL0     H68133   6.273   9.354   2.229  0.7964 -0.3700 -0.7691
  505MOL0     H68134   6.315   9.287   2.382  1.5570 -0.1151 -1.2444
  505MOL0     H68135   5.933   9.142   2.232 -0.2997 -0.5512 -0.1664
  505MOL0     H68136   5.801   9.213   2.034 -0.2799 -0.6521  1.4732
  505MOL0     H68137   5.736   9.514   1.618 -1.0854  1.3408 -1.1901
  505MOL0     H68138   5.606   9.459   1.448 -2.1216  2.4002  1.0899
  505MOL0     H68139   5.486   9.386   1.235 -0.0165  1.2496 -0.0795
  505MOL0     H68140   5.544   9.242   1.315 -1.0659 -0.4160  2.3962
  505MOL0     H68141   5.332   9.116   1.258 -0.0158  0.6026  0.4706
  505MOL0     H68142   5.254   9.256   1.195 -0.2939 -0.2407  1.5345
  505MOL0     H68143   5.415   9.287   1.018  3.6957  1.8289  2.6583
  505MOL0     H68144   5.521   9.169   1.083 -0.2447  0.7877  2.6614
  505MOL0     H68145   5.233   9.105   0.989  0.8659  6.7691 -1.3719
  505MOL0     H68146   5.347   8.991   1.054 -0.1717  0.5396  1.1504
  505MOL0     H68147   5.508   9.081   0.846 -0.0206  1.7048 -1.7464
  505MOL0     H68148   5.344   9.148   0.794 -2.8252 -0.3809  1.9035
  505MOL0     H68149   5.447   8.864   0.843  0.0883  0.2573 -3.0406
  505MOL0     H68150   5.265   8.906   0.829 -1.7358  0.4170 -0.1440
  505MOL0     H68151   5.398   8.802   0.630 -1.3519 -0.0155  1.3059
  505MOL0     H68152   5.491   8.942   0.617  0.4122 -1.0185 -0.1668
  505MOL0     H68153   5.291   9.068   0.569 -1.5245 -0.1914  0.8897
  505MOL0     H68154   5.298   8.928   0.456 -0.9156 -0.0836 -0.0762
  505MOL0     H68155   5.386   9.154   1.650  1.1245 -0.1421  2.2164
  505MOL0     H68156   5.510   9.216   1.854 -1.3926  0.6275  0.1906
  505MOL0     H68157   5.982   9.602   2.058  0.0335  0.0306  1.2649
  505MOL0     H68158   6.130   9.518   2.246 -0.3838 -0.0881  0.8704
  505MOL0     H68159   6.343   8.738   3.645 -0.1562 -1.0689  0.3053
  505MOL0     H68160   6.399   8.818   3.875  0.2336 -1.1520 -0.3418
  505MOL0     H68161   6.450   8.978   4.176  0.2341  0.5976  0.0552
  505MOL0     H68162   6.568   9.055   4.345  0.6589  0.4923  0.8025
  505MOL0     H68163   6.429   9.024   4.772  2.4901 -0.0685  3.3979
  505MOL0     H68164   6.375   9.199   4.752  0.6058  0.7749  0.6890
  505MOL0     H68165   6.586   9.290   4.795 -2.3517  0.0340 -1.1701
  505MOL0     H68166   6.670   9.134   4.771  1.8494  5.4661 -4.9606
  505MOL0     H68167   6.548   9.068   5.015 -0.7654  0.6062  1.2408
  505MOL0     H68168   6.490   9.229   5.002 -0.8138 -2.7446  3.1023
  505MOL0     H68169   6.789   9.124   4.985 -0.4471 -2.1871  3.2098
  505MOL0     H68170   6.749   9.302   4.996 -0.8808 -0.5467  0.5159
  505MOL0     H68171   6.782   9.192   5.389 -2.2955  1.3342  0.9765
  505MOL0     H68172   6.231   9.032   4.613 -1.0000  0.0054 -0.5089
  505MOL0     H68173   6.023   8.970   4.548 -2.7926  1.0032 -0.1892
  505MOL0     H68174   6.004   9.046   4.391  0.4975  1.7723  2.1112
  505MOL0     H68175   6.009   8.868   4.409  1.9249 -0.1342 -0.8222
  506MOL0     O68176  10.222   4.467   8.208 -0.0826  0.2968 -0.2000
  506MOL0     C68177  10.237   4.548   8.111  0.4896  0.0055 -0.3390
  506MOL0     O68178  10.137   4.582   8.022 -0.7450  0.1365 -0.0190
  506MOL0     C68179  10.030   4.497   8.033 -0.4854  0.2894  0.3866
  506MOL0     C68180   9.925   4.543   8.110  0.0920  0.5957 -0.8812
  506MOL0     C68181   9.824   4.456   8.136  0.4669 -0.1301 -0.7532
  506MOL0     C68182   9.819   4.318   8.095  0.0861 -0.7069 -0.2808
  506MOL0     O68183   9.716   4.229   8.117  0.9155  0.1099  0.7702
  506MOL0     C68184   9.591   4.281   8.166  0.2448  0.5748  0.1036
  506MOL0     C68185   9.479   4.181   8.158 -0.5134 -0.5710  0.4636
  506MOL0     C68186   9.349   4.240   8.200 -0.1100 -0.5335  0.2398
  506MOL0     C68187   9.246   4.141   8.249  0.5231 -0.0346 -0.6660
  506MOL0     C68188   9.107   4.198   8.299 -0.6327  0.3841 -0.2943
  506MOL0     C68189   9.030   4.079   8.362  0.4372  1.2755  0.6460
  506MOL0     C68190   8.919   4.118   8.454  0.5122 -0.6139  0.1438
  506MOL0     C68191   8.824   4.229   8.417  0.4039  0.9446  0.9309
  506MOL0     N68192   8.751   4.279   8.535 -0.4627  0.3062  0.5645
  506MOL0     C68193   8.733   4.410   8.576 -1.2976  0.2279 -1.0338
  506MOL0     C68194   8.658   4.391   8.690 -0.3631  0.2743  0.1968
  506MOL0     C68195   8.619   4.487   8.797 -0.1014  0.0898  0.1598
  506MOL0     C68196   8.509   4.589   8.749  0.5093 -0.1593  0.3935
  506MOL0     C68197   8.393   4.527   8.675 -0.9723 -0.9828  0.5668
  506MOL0     C68198   8.291   4.634   8.621 -0.6880 -0.1514 -0.0054
  506MOL0     O68199   8.358   4.756   8.588  0.2587 -0.0592 -0.5533
  506MOL0     C68200   8.289   4.855   8.517  0.0802  0.1583 -0.2632
  506MOL0     C68201   8.296   4.985   8.564  0.5179 -0.4081  0.1416
  506MOL0     C68202   8.231   5.083   8.498 -0.0050 -0.3351 -1.1423
  506MOL0     C68203   8.168   5.072   8.374  0.2696  1.0244 -0.0837
  506MOL0     C68204   8.093   5.175   8.309 -0.4184 -0.1616 -0.0135
  506MOL0     O68205   8.089   5.288   8.382  0.3126  0.3286  0.9829
  506MOL0     C68206   8.010   5.403   8.337 -0.4485 -0.0669 -0.2490
  506MOL0     C68207   7.884   5.397   8.283  0.1639 -0.7642 -0.9295
  506MOL0     C68208   7.811   5.512   8.232 -0.4266  0.5775  0.2668
  506MOL0     C68209   7.861   5.637   8.261 -1.7286  0.8189  0.4189
  506MOL0     O68210   7.809   5.755   8.215  0.0704  1.1599  0.6295
  506MOL0     C68211   7.800   5.761   8.074  0.1027 -0.9921  0.0606
  506MOL0     C68212   7.772   5.908   8.046  0.1693  0.1835  0.3560
  506MOL0     C68213   7.627   5.953   8.067  0.4896  1.0122  0.9982
  506MOL0     C68214   7.511   5.871   8.004 -0.4907  0.1089  0.3981
  506MOL0     C68215   7.373   5.942   8.030  0.6418 -0.9424  0.5691
  506MOL0     C68216   7.261   5.843   8.008  0.9551 -0.3829  0.1781
  506MOL0     C68217   7.123   5.905   8.013  0.0277 -0.1310  0.0917
  506MOL0     C68218   7.049   5.918   7.879 -0.0000 -0.6208  0.1938
  506MOL0    Cl68219   6.898   6.014   7.905 -0.0337 -0.0015  0.2821
  506MOL0     C68220   7.972   5.649   8.351 -0.1421  0.7528 -0.3255
  506MOL0     C68221   8.056   5.525   8.377  0.3170  0.5460 -0.1195
  506MOL0     O68222   8.028   5.155   8.204 -0.1759  0.5910 -0.3232
  506MOL0     C68223   8.157   4.941   8.324 -0.5590  0.2436  0.0236
  506MOL0     C68224   8.220   4.836   8.396 -0.1892  0.6632  0.1220
  506MOL0     N68225   8.628   4.256   8.710  0.3626 -0.2617  0.6985
  506MOL0     N68226   8.678   4.193   8.610  0.0960 -0.5478 -0.0351
  506MOL0     C68227   9.928   4.278   8.010  0.3822  0.4902 -0.6411
  506MOL0     C68228  10.027   4.370   7.974 -1.3966  0.2966 -0.8016
  506MOL0     C68229  10.371   4.616   8.090  0.1805 -0.3602 -0.2448
  506MOL0     C68230  10.369   4.753   8.096 -0.2561  0.3860 -0.3183
  506MOL0     C68231  10.487   4.833   8.087 -0.7300 -0.7827 -1.3104
  506MOL0     C68232  10.608   4.770   8.068  0.2279  0.2440 -0.8326
  506MOL0     O68233  10.734   4.824   8.048  0.6508  0.4329 -0.1009
  506MOL0     C68234  10.760   4.955   8.097 -0.1729 -0.2196 -0.0242
  506MOL0     C68235  10.902   4.982   8.065 -0.7108 -0.0844  0.1351
  506MOL0     C68236  10.972   5.085   8.150  0.3704  0.7911  0.4803
  506MOL0     C68237  11.033   5.016   8.277 -0.0583  0.3433 -0.7884
  506MOL0     C68238  11.065   5.119   8.380 -0.5627 -0.1909 -0.4981
  506MOL0     C68239  11.070   5.196   8.477 -0.1955 -0.2394  0.4623
  506MOL0     C68240  10.613   4.630   8.065  0.3915 -0.3332 -0.1646
  506MOL0     C68241  10.501   4.551   8.085  0.3467  0.1292 -0.4410
  506MOL0     C68242  10.502   4.405   8.060 -0.4409 -0.4563  0.2481
  506MOL0     H68243   9.929   4.641   8.155  0.4594 -0.0398  0.5595
  506MOL0     H68244   9.738   4.493   8.192  0.7247 -1.3145  0.4812
  506MOL0     H68245   9.613   4.317   8.267  2.7409 -1.9853  0.6033
  506MOL0     H68246   9.566   4.367   8.102  1.3092  1.3900  0.7473
  506MOL0     H68247   9.505   4.097   8.223 -2.0744 -0.4696  1.2727
  506MOL0     H68248   9.466   4.155   8.053 -0.4451  3.1005 -0.5936
  506MOL0     H68249   9.311   4.303   8.119 -2.5174 -0.7390  1.1043
  506MOL0     H68250   9.374   4.309   8.281  0.9211 -1.9006  1.1366
  506MOL0     H68251   9.228   4.056   8.183  0.4530  0.3881 -1.1975
  506MOL0     H68252   9.291   4.093   8.337  2.0947 -0.6660 -1.7579
  506MOL0     H68253   9.134   4.261   8.384 -0.7849 -1.0536  0.8656
  506MOL0     H68254   9.041   4.248   8.228 -1.5533 -0.2985  0.0723
  506MOL0     H68255   8.993   4.013   8.284  4.6404 -2.1202  1.1784
  506MOL0     H68256   9.096   4.015   8.421  1.7754  2.9219  1.0368
  506MOL0     H68257   8.971   4.159   8.540  0.4651  0.0727 -0.1555
  506MOL0     H68258   8.853   4.033   8.474 -1.5023  0.6069 -1.0198
  506MOL0     H68259   8.881   4.312   8.376 -0.3415 -0.2897 -2.9617
  506MOL0     H68260   8.747   4.204   8.344  0.4917 -3.7664  2.0701
  506MOL0     H68261   8.760   4.509   8.541 -0.0552  0.9321  1.6176
  506MOL0     H68262   8.578   4.436   8.885 -0.6484 -1.8067 -1.1328
  506MOL0     H68263   8.707   4.547   8.823 -0.9677  1.5208 -0.1300
  506MOL0     H68264   8.472   4.647   8.835 -2.5724  0.2822 -1.1036
  506MOL0     H68265   8.570   4.657   8.688  2.1238  0.4805  2.5738
  506MOL0     H68266   8.337   4.467   8.747 -0.4162  0.7117  2.5196
  506MOL0     H68267   8.427   4.457   8.598 -1.7019  0.1992 -0.8825
  506MOL0     H68268   8.228   4.660   8.706  0.0484  1.4132  0.0961
  506MOL0     H68269   8.235   4.593   8.537  0.8046 -0.8880 -0.6918
  506MOL0     H68270   8.352   5.004   8.655 -1.8082 -2.8355  2.2451
  506MOL0     H68271   8.247   5.178   8.549 -0.0857 -1.6753  1.5291
  506MOL0     H68272   7.838   5.299   8.275 -1.8734  0.2236 -2.0622
  506MOL0     H68273   7.720   5.482   8.181 -0.5787  2.7811 -0.8703
  506MOL0     H68274   7.905   5.752   8.042 -0.2008 -0.2457 -1.2107
  506MOL0     H68275   7.735   5.688   8.025  0.5241 -3.1170  2.4608
  506MOL0     H68276   7.834   5.974   8.107  0.9891  0.6385 -0.9289
  506MOL0     H68277   7.806   5.938   7.946  0.7646  3.9287  1.5398
  506MOL0     H68278   7.608   5.968   8.173 -1.0305 -0.2637  0.9546
  506MOL0     H68279   7.613   6.056   8.034  1.6209  0.8851  0.0346
  506MOL0     H68280   7.525   5.772   8.048 -0.6458  0.4759  1.2869
  506MOL0     H68281   7.527   5.869   7.896  0.7692  1.0564  0.5469
  506MOL0     H68282   7.372   6.026   7.960  2.8290 -1.9463 -0.7859
  506MOL0     H68283   7.358   5.989   8.128  1.0080 -0.1361  0.2478
  506MOL0     H68284   7.271   5.803   7.906  1.0536 -0.9504  0.4084
  506MOL0     H68285   7.277   5.762   8.079  3.4114 -1.1056 -1.0869
  506MOL0     H68286   7.128   5.998   8.070 -1.1510  0.4205 -0.6705
  506MOL0     H68287   7.061   5.838   8.073 -0.1084  0.8731  1.1099
  506MOL0     H68288   7.111   5.963   7.801  1.6962 -1.4096  1.0446
  506MOL0     H68289   7.024   5.818   7.844 -0.1389 -0.9915  1.3079
  506MOL0     H68290   8.022   5.741   8.379  0.4747 -0.1670  1.8198
  506MOL0     H68291   8.138   5.521   8.448  1.3593  2.8232 -1.0914
  506MOL0     H68292   8.094   4.914   8.240 -0.2283 -0.8937  0.1207
  506MOL0     H68293   8.218   4.735   8.356  1.4592 -0.6466  3.0196
  506MOL0     H68294   9.908   4.185   7.959 -3.3225  0.6871  0.1544
  506MOL0     H68295  10.108   4.340   7.909 -0.4120 -2.5680  1.5391
  506MOL0     H68296  10.283   4.816   8.115  0.1002  0.5657  0.7266
  506MOL0     H68297  10.494   4.941   8.094  1.4981 -0.8825 -1.0156
  506MOL0     H68298  10.749   4.950   8.206 -3.3732  3.1896  0.0072
  506MOL0     H68299  10.698   5.030   8.047 -0.3660 -0.6243 -0.3918
  506MOL0     H68300  10.916   5.007   7.960  1.6150 -3.3622 -0.4862
  506MOL0     H68301  10.947   4.882   8.064 -0.5733 -0.0174 -0.5171
  506MOL0     H68302  10.918   5.177   8.174 -4.0689 -1.8903  1.9885
  506MOL0     H68303  11.056   5.124   8.092 -0.4548 -0.7103 -1.8604
  506MOL0     H68304  10.971   4.938   8.322 -2.0152  2.7457  1.0209
  506MOL0     H68305  11.126   4.966   8.252 -0.4857  0.5352 -2.9722
  506MOL0     H68306  11.075   5.265   8.559  0.9551  0.7309 -0.3726
  506MOL0     H68307  10.710   4.585   8.043  0.1917 -0.3750 -1.0108
  506MOL0     H68308  10.407   4.377   8.014 -0.0659 -0.5601 -0.4761
  506MOL0     H68309  10.584   4.362   8.002 -1.2857 -0.3140 -1.0963
  506MOL0     H68310  10.500   4.347   8.152  2.1364  1.2252  1.4964
  507MOL0     O68311  10.860   9.657   5.136  0.0925  0.1682 -0.1440
  507MOL0     C68312  10.982   9.652   5.125 -0.0760 -0.3659 -0.1058
  507MOL0     O68313  11.048   9.588   5.023  0.6401  0.4027 -0.1415
  507MOL0     C68314  10.986   9.475   4.975 -0.3019 -0.4345  0.1615
  507MOL0     C68315  10.870   9.488   4.889  0.5443 -0.3451  0.4228
  507MOL0     C68316  10.815   9.380   4.830 -0.7541  0.7408 -0.5239
  507MOL0     C68317  10.876   9.261   4.840 -0.6777  0.3947 -0.6849
  507MOL0     O68318  10.837   9.145   4.764 -0.2920 -0.9385 -0.1497
  507MOL0     C68319  10.860   9.164   4.620  0.5684 -0.0283 -0.4499
  507MOL0     C68320  11.013   9.144   4.585  0.2221  0.2385 -0.3840
  507MOL0     C68321  11.075   9.017   4.634 -0.2923  0.0402  0.4786
  507MOL0     C68322  11.223   9.008   4.608 -0.6897 -0.0655  0.3089
  507MOL0     C68323  11.293   8.910   4.688 -0.0628  0.5558 -0.1892
  507MOL0     C68324  11.227   8.768   4.648 -0.1403  0.4259  0.4304
  507MOL0     C68325  11.308   8.652   4.713 -0.4052  0.6505  0.4327
  507MOL0     C68326  11.236   8.589   4.832  0.0366 -0.1048  0.0278
  507MOL0     N68327  11.218   8.665   4.959  0.1277 -0.1896  0.3019
  507MOL0     C68328  11.294   8.648   5.066 -0.2855  0.3259  0.2871
  507MOL0     C68329  11.257   8.755   5.146 -0.7669  1.0080 -0.5824
  507MOL0     C68330  11.326   8.790   5.281  0.8591 -0.4229  0.3786
  507MOL0     C68331  11.235   8.844   5.387  0.6338 -0.1352 -1.4304
  507MOL0     C68332  11.144   8.733   5.439 -0.3447 -0.1532  0.3659
  507MOL0     C68333  11.062   8.780   5.550  0.0959 -0.3453  0.0178
  507MOL0     O68334  11.140   8.792   5.671  0.1872  0.0567  0.1346
  507MOL0     C68335  11.093   8.870   5.778 -1.0463 -0.3824  1.3293
  507MOL0     C68336  11.190   8.956   5.836 -0.4916 -0.3139  0.0093
  507MOL0     C68337  11.148   9.042   5.937 -0.7611 -0.1355  0.5388
  507MOL0     C68338  11.024   9.054   5.985  0.6326 -0.4082  0.2748
  507MOL0     C68339  10.993   9.144   6.104  0.9493 -0.2134  0.8310
  507MOL0     O68340  11.105   9.203   6.155  0.2087  1.3202  0.4752
  507MOL0     C68341  11.106   9.280   6.267  0.1517 -0.3914 -0.2760
  507MOL0     C68342  11.227   9.341   6.297 -0.1012 -0.2094 -0.9239
  507MOL0     C68343  11.247   9.417   6.414 -0.5772  0.1589  0.4712
  507MOL0     C68344  11.148   9.420   6.518 -0.1087  0.5398 -0.0990
  507MOL0     O68345  11.183   9.456   6.644  0.8057  0.4241  0.6742
  507MOL0     C68346  11.086   9.530   6.714  0.7520 -0.2446  0.3791
  507MOL0     C68347  11.163   9.590   6.840  0.7106 -0.4053  0.8773
  507MOL0     C68348  11.071   9.698   6.904  0.1752  0.8710 -0.1749
  507MOL0     C68349  11.157   9.794   6.979  0.2841 -0.4031  0.2853
  507MOL0     C68350  11.077   9.887   7.081 -1.0180  0.1223  1.3106
  507MOL0     C68351  11.020   9.797   7.196 -0.3408 -0.1918 -0.3760
  507MOL0     C68352  10.964   9.878   7.307  0.0976  0.0363 -1.7825
  507MOL0     C68353  10.847   9.801   7.375 -1.2699 -0.1434 -0.2245
  507MOL0    Cl68354  10.920   9.657   7.457  0.7189  0.0943  0.1305
  507MOL0     C68355  11.020   9.366   6.486  0.6036  0.0299 -0.4764
  507MOL0     C68356  10.997   9.305   6.356 -0.5289 -0.1221  0.9036
  507MOL0     O68357  10.873   9.166   6.120  0.0498  0.1927 -0.1534
  507MOL0     C68358  10.926   8.975   5.924 -0.1409 -0.7436  0.5266
  507MOL0     C68359  10.966   8.881   5.824  0.9011  0.7594  0.2559
  507MOL0     N68360  11.162   8.830   5.087  0.2930 -0.2420 -1.7202
  507MOL0     N68361  11.123   8.772   4.975  0.6833 -0.7665 -0.8955
  507MOL0     C68362  10.991   9.248   4.927  0.1518 -0.3369  0.4245
  507MOL0     C68363  11.046   9.349   4.998 -0.5675 -0.5137  0.4098
  507MOL0     C68364  11.060   9.705   5.238 -0.8389  0.6764 -0.6938
  507MOL0     C68365  10.999   9.784   5.331  0.8873 -0.2464 -0.5543
  507MOL0     C68366  11.066   9.844   5.443 -0.2136  0.0345  0.1608
  507MOL0     C68367  11.205   9.812   5.462 -0.4274 -0.5596 -0.1938
  507MOL0     O68368  11.260   9.868   5.573 -0.1796  0.0124  0.0902
  507MOL0     C68369  11.263   9.785   5.694  0.4086  0.1580 -0.4329
  507MOL0     C68370  11.406   9.743   5.704 -0.3413 -0.9032 -0.6039
  507MOL0     C68371  11.509   9.863   5.699 -0.5695 -0.2431 -0.4078
  507MOL0     C68372  11.491   9.958   5.808 -0.2781  0.4853 -1.2040
  507MOL0     C68373  11.590  10.072   5.807 -0.2943  0.6932 -0.3442
  507MOL0     C68374  11.681  10.149   5.789 -0.1494  0.2354  0.5717
  507MOL0     C68375  11.274   9.728   5.380  0.9035  0.5996 -0.1516
  507MOL0     C68376  11.203   9.675   5.272  0.5125  0.1748  0.2480
  507MOL0     C68377  11.299   9.610   5.174  1.1268  0.3851 -0.4708
  507MOL0     H68378  10.821   9.582   4.866  0.1832 -0.3260  1.2340
  507MOL0     H68379  10.741   9.398   4.754  1.6810 -0.1403 -3.3023
  507MOL0     H68380  10.811   9.082   4.567  2.5022 -2.3478  1.1182
  507MOL0     H68381  10.849   9.264   4.576  2.6303 -0.3254 -1.7670
  507MOL0     H68382  11.062   9.225   4.639 -1.0901  0.1279  1.0546
  507MOL0     H68383  11.027   9.156   4.477 -1.7783  1.3662 -0.5711
  507MOL0     H68384  11.016   8.936   4.591 -1.3132  1.2119 -0.4045
  507MOL0     H68385  11.066   9.020   4.743  0.7440 -0.1361  0.5825
  507MOL0     H68386  11.238   8.991   4.501  2.2186  4.3941 -0.2562
  507MOL0     H68387  11.275   9.102   4.630  1.4884 -0.9650 -0.6598
  507MOL0     H68388  11.399   8.903   4.662  0.5134 -1.2844  2.2705
  507MOL0     H68389  11.280   8.938   4.793 -1.7320  1.3784 -0.5869
  507MOL0     H68390  11.126   8.756   4.687  0.5865  0.6901  2.4866
  507MOL0     H68391  11.218   8.761   4.539 -1.1917  4.0121  0.1853
  507MOL0     H68392  11.406   8.681   4.753 -0.4556 -0.7146  1.6331
  507MOL0     H68393  11.320   8.575   4.636 -2.6023  0.7415 -0.0807
  507MOL0     H68394  11.140   8.553   4.792 -0.2602 -0.5778  1.1382
  507MOL0     H68395  11.304   8.508   4.858 -1.1977 -0.8491  1.0773
  507MOL0     H68396  11.383   8.588   5.083 -1.0241 -0.9010 -0.1103
  507MOL0     H68397  11.391   8.713   5.324 -1.5067 -2.3322  0.6873
  507MOL0     H68398  11.381   8.879   5.249 -3.9535  2.8199  0.1036
  507MOL0     H68399  11.293   8.879   5.473 -2.0529 -0.5824  0.7124
  507MOL0     H68400  11.167   8.924   5.357 -0.9814  0.3103  2.7844
  507MOL0     H68401  11.200   8.646   5.473  3.1051  1.2278 -1.3242
  507MOL0     H68402  11.073   8.708   5.359 -2.3403  0.7707  1.7704
  507MOL0     H68403  10.976   8.713   5.559  0.4512 -0.6616  1.3822
  507MOL0     H68404  11.017   8.879   5.534 -1.9533 -1.5635 -2.4891
  507MOL0     H68405  11.286   8.962   5.787 -0.4432  1.3690  0.2298
  507MOL0     H68406  11.223   9.117   5.960  0.1905 -1.2795  1.3702
  507MOL0     H68407  11.310   9.325   6.229 -1.4620 -2.4295 -2.1803
  507MOL0     H68408  11.347   9.459   6.424 -1.3729  2.1951  0.1332
  507MOL0     H68409  11.039   9.601   6.646 -1.3731 -1.2724  0.7037
  507MOL0     H68410  11.021   9.456   6.762 -1.7010  1.3562 -0.3229
  507MOL0     H68411  11.188   9.508   6.907  1.7079  0.9679  2.2552
  507MOL0     H68412  11.257   9.635   6.807  1.2290 -2.0408  0.0089
  507MOL0     H68413  11.000   9.746   6.835 -1.7726 -0.2008  0.9966
  507MOL0     H68414  11.007   9.646   6.976  1.3243  4.4373  3.8175
  507MOL0     H68415  11.216   9.857   6.912 -1.6711  0.8416 -0.3717
  507MOL0     H68416  11.229   9.727   7.026 -1.5256 -4.7375 -2.4685
  507MOL0     H68417  10.990   9.930   7.031 -0.5278 -0.4608 -0.0836
  507MOL0     H68418  11.148   9.955   7.130  1.4165  0.2843 -2.0817
  507MOL0     H68419  10.933   9.745   7.154 -3.7049  2.6640  2.4351
  507MOL0     H68420  11.092   9.722   7.231 -1.0651 -1.3208 -1.2360
  507MOL0     H68421  10.927   9.976   7.277 -0.0480  0.3623 -0.6003
  507MOL0     H68422  11.036   9.892   7.388 -0.3227  1.7758 -1.6742
  507MOL0     H68423  10.804   9.858   7.457  0.1655  1.6805 -0.6747
  507MOL0     H68424  10.774   9.773   7.297 -0.1900 -1.6860 -0.7472
  507MOL0     H68425  10.938   9.371   6.557  2.2094 -4.7128  2.1148
  507MOL0     H68426  10.903   9.267   6.318  0.3521 -0.4916 -1.0483
  507MOL0     H68427  10.825   9.002   5.954  0.6049 -1.8386  4.5316
  507MOL0     H68428  10.900   8.809   5.777  1.7597 -0.0199  0.2120
  507MOL0     H68429  11.040   9.153   4.948 -0.1199 -0.4045  0.7587
  507MOL0     H68430  11.135   9.332   5.058 -0.9232 -1.9373  0.5749
  507MOL0     H68431  10.897   9.819   5.316  0.9474  0.9831  1.5369
  507MOL0     H68432  11.010   9.902   5.515 -2.6583 -0.5272 -1.1888
  507MOL0     H68433  11.202   9.694   5.684  1.1538 -0.5119  0.8537
  507MOL0     H68434  11.236   9.821   5.793  1.6342 -0.0392 -0.0098
  507MOL0     H68435  11.413   9.673   5.620  0.3400 -1.7351  0.1270
  507MOL0     H68436  11.425   9.684   5.794 -2.8622  0.1492  0.7201
  507MOL0     H68437  11.501   9.914   5.602 -0.7707  0.4585 -0.0322
  507MOL0     H68438  11.612   9.830   5.718 -0.3661  0.1159 -0.8624
  507MOL0     H68439  11.392  10.006   5.810 -0.5705 -0.0436  1.5478
  507MOL0     H68440  11.510   9.890   5.891  1.3908 -2.3487 -3.7414
  507MOL0     H68441  11.763  10.209   5.755 -1.7229  1.7052 -0.8907
  507MOL0     H68442  11.380   9.726   5.400  0.9115  1.1898 -0.0973
  507MOL0     H68443  11.405   9.621   5.199  0.1658  2.4830  3.4448
  507MOL0     H68444  11.275   9.503   5.171 -1.8443  0.8407  2.3563
  507MOL0     H68445  11.300   9.645   5.070  0.3116  0.0489 -0.6057
  508MOL0     O68446   2.007   2.679  10.932  0.1755 -0.0847 -0.6034
  508MOL0     C68447   1.920   2.644  11.021 -0.1357 -0.6774  0.8534
  508MOL0     O68448   1.891   2.702  11.142 -0.2993  0.1551 -0.0203
  508MOL0     C68449   1.963   2.804  11.201  0.1646  0.0278 -0.4558
  508MOL0     C68450   2.060   2.881  11.135  0.4336  0.3769  0.7776
  508MOL0     C68451   2.104   3.000  11.197 -0.3137 -0.7170  0.2112
  508MOL0     C68452   2.060   3.040  11.330 -0.1610  0.4110  0.0699
  508MOL0     O68453   2.118   3.147  11.388  1.2875  0.1729 -0.6101
  508MOL0     C68454   2.243   3.121  11.450 -0.1014  0.3335  0.7620
  508MOL0     C68455   2.282   3.202  11.569  0.3250 -0.1007 -0.1917
  508MOL0     C68456   2.184   3.184  11.685 -0.6121 -0.6038  0.0676
  508MOL0     C68457   2.220   3.291  11.784 -0.7638 -0.3964 -0.2069
  508MOL0     C68458   2.176   3.440  11.741  0.5821  0.3096  0.1073
  508MOL0     C68459   2.255   3.551  11.809 -0.7683 -0.8364  0.3195
  508MOL0     C68460   2.245   3.677  11.714  0.9022  1.3222 -0.1764
  508MOL0     C68461   2.303   3.808  11.771 -0.1416  0.3633 -1.0843
  508MOL0     N68462   2.445   3.785  11.814  0.7701 -0.1590  0.5490
  508MOL0     C68463   2.481   3.733  11.935 -0.2024 -1.0243 -0.4813
  508MOL0     C68464   2.613   3.712  11.930 -0.5953  0.1438 -0.0638
  508MOL0     C68465   2.703   3.636  12.028 -0.4957  0.0033  0.0816
  508MOL0     C68466   2.631   3.589  12.157 -0.2908  1.0266 -0.7431
  508MOL0     C68467   2.562   3.456  12.122 -0.5985  1.2269 -0.0403
  508MOL0     C68468   2.500   3.395  12.249 -0.2977 -0.2319  0.9528
  508MOL0     O68469   2.559   3.275  12.270 -0.6645  0.5059  1.0667
  508MOL0     C68470   2.517   3.221  12.388  0.2645  0.9306 -0.3843
  508MOL0     C68471   2.451   3.094  12.390 -0.2854  0.7357 -0.5880
  508MOL0     C68472   2.388   3.043  12.499 -0.1465 -0.2358 -0.0095
  508MOL0     C68473   2.398   3.115  12.617 -0.6888 -0.6294  0.7380
  508MOL0     C68474   2.330   3.051  12.734  0.0377  0.8517  0.2173
  508MOL0     O68475   2.305   3.135  12.844  0.1779 -1.1294  0.8801
  508MOL0     C68476   2.229   3.093  12.948  0.6695 -0.0626  0.1551
  508MOL0     C68477   2.159   2.976  12.963 -0.3243  0.1600  0.1841
  508MOL0     C68478   2.066   2.950  13.065  0.9686 -0.1951  0.8165
  508MOL0     C68479   2.026   3.053  13.152  0.3259  0.2714 -0.5527
  508MOL0     O68480   1.927   3.039  13.255 -0.1770 -0.4897  0.0463
  508MOL0     C68481   1.883   2.910  13.310 -0.5470 -0.2920  0.0515
  508MOL0     C68482   1.757   2.914  13.404 -0.5840  0.0239 -1.0488
  508MOL0     C68483   1.711   2.770  13.439  0.7372  0.2063 -0.2567
  508MOL0     C68484   1.576   2.760  13.512  0.4524  0.0368 -0.6049
  508MOL0     C68485   1.575   2.630  13.611 -0.3051  0.1325 -0.4908
  508MOL0     C68486   1.459   2.628  13.721 -0.1876  0.4186 -0.7176
  508MOL0     C68487   1.481   2.729  13.845 -0.2362  0.1846 -0.8331
  508MOL0     C68488   1.354   2.771  13.916  0.1403 -0.5536  0.4385
  508MOL0    Cl68489   1.248   2.891  13.811 -0.0585  0.1680 -0.0224
  508MOL0     C68490   2.088   3.171  13.132 -0.3739 -0.6571 -0.4444
  508MOL0     C68491   2.188   3.193  13.035  0.2955 -0.6810  0.1193
  508MOL0     O68492   2.305   2.929  12.728  0.3639 -0.3820 -0.8316
  508MOL0     C68493   2.462   3.244  12.621 -0.0412 -0.2526  0.6981
  508MOL0     C68494   2.525   3.285  12.509 -0.4729  0.7841  0.6646
  508MOL0     N68495   2.656   3.730  11.800 -0.2967  0.1366 -0.0693
  508MOL0     N68496   2.559   3.772  11.723 -0.0638 -1.4309 -0.1526
  508MOL0     C68497   1.960   2.960  11.388 -0.4433 -0.1734  0.7990
  508MOL0     C68498   1.914   2.837  11.328  0.4279 -0.2255 -0.4306
  508MOL0     C68499   1.836   2.533  10.977 -0.6132 -0.3103 -0.4853
  508MOL0     C68500   1.697   2.548  11.005 -0.3380 -0.9677 -0.8290
  508MOL0     C68501   1.611   2.446  10.970  0.7298  0.7166 -0.3952
  508MOL0     C68502   1.657   2.334  10.892  1.0251  0.3579 -0.1841
  508MOL0     O68503   1.580   2.222  10.860 -0.0689 -0.2016  0.0483
  508MOL0     C68504   1.431   2.222  10.891  0.3514  0.2138  0.3862
  508MOL0     C68505   1.389   2.145  11.021 -0.1854  0.1964 -0.2388
  508MOL0     C68506   1.409   1.995  11.010 -0.9457 -0.1266  0.0213
  508MOL0     C68507   1.286   1.927  10.953  0.1379  0.3339 -0.6224
  508MOL0     C68508   1.334   1.794  10.910  0.1278 -0.2774 -0.1949
  508MOL0     C68509   1.379   1.683  10.876  0.7417  0.4607  0.4697
  508MOL0     C68510   1.794   2.324  10.871  0.4797 -0.1339  0.6723
  508MOL0     C68511   1.888   2.421  10.903  0.2057  0.0115 -0.2843
  508MOL0     C68512   2.034   2.402  10.857  0.2603  0.1158  0.3735
  508MOL0     H68513   2.090   2.866  11.032 -1.9727 -1.6864  0.2713
  508MOL0     H68514   2.181   3.055  11.142 -2.6943  2.1699 -0.5286
  508MOL0     H68515   2.256   3.015  11.475 -0.5795 -0.2936 -1.4653
  508MOL0     H68516   2.320   3.135  11.373  1.0497 -4.7562  0.6524
  508MOL0     H68517   2.300   3.305  11.538  0.4539  0.2410  0.9801
  508MOL0     H68518   2.377   3.168  11.610 -0.4445  0.1906  2.0122
  508MOL0     H68519   2.179   3.085  11.732 -1.6993  1.2755  4.4270
  508MOL0     H68520   2.082   3.208  11.652 -1.3562 -1.7746  1.3720
  508MOL0     H68521   2.180   3.260  11.881 -1.1468 -0.0831 -0.2600
  508MOL0     H68522   2.327   3.290  11.804 -0.9925  0.5573  1.2928
  508MOL0     H68523   2.192   3.452  11.634 -2.3411 -1.6556 -0.6887
  508MOL0     H68524   2.069   3.453  11.759 -0.2591 -2.3216 -2.2310
  508MOL0     H68525   2.222   3.565  11.912 -3.7183  1.2497 -0.7854
  508MOL0     H68526   2.357   3.512  11.809 -0.4823 -0.1137  1.0561
  508MOL0     H68527   2.145   3.704  11.679  1.2609  0.6092 -1.8473
  508MOL0     H68528   2.305   3.651  11.626  1.4975 -1.5304  0.9712
  508MOL0     H68529   2.316   3.887  11.697  1.7318  1.2143  0.0577
  508MOL0     H68530   2.245   3.839  11.859  2.4948 -0.2835  1.0434
  508MOL0     H68531   2.413   3.710  12.016 -3.8258 -1.3128 -3.3407
  508MOL0     H68532   2.743   3.547  11.978  0.0763 -0.1528  0.7894
  508MOL0     H68533   2.789   3.703  12.038 -1.4831  1.6149 -1.6784
  508MOL0     H68534   2.696   3.570  12.243  0.6098  0.3785 -1.5523
  508MOL0     H68535   2.560   3.666  12.189 -0.2529  0.4336  0.8803
  508MOL0     H68536   2.638   3.384  12.093  2.3796  3.2520  2.1607
  508MOL0     H68537   2.480   3.469  12.050 -0.8423  0.8730  0.1711
  508MOL0     H68538   2.392   3.382  12.236 -0.7535  4.1670 -1.6807
  508MOL0     H68539   2.518   3.458  12.336 -0.3453  2.3423 -0.7816
  508MOL0     H68540   2.456   3.034  12.300 -3.0934  3.5216 -2.8369
  508MOL0     H68541   2.334   2.949  12.488  0.0813 -0.4666  0.7666
  508MOL0     H68542   2.180   2.887  12.904  0.6541  1.3625 -1.3820
  508MOL0     H68543   2.002   2.864  13.049  0.4632  0.5646 -1.7285
  508MOL0     H68544   1.864   2.840  13.229 -2.1249  1.2467 -0.9779
  508MOL0     H68545   1.968   2.878  13.372  2.1384  2.1056 -2.1079
  508MOL0     H68546   1.786   2.961  13.498 -0.0120 -3.7813  0.8721
  508MOL0     H68547   1.674   2.966  13.357 -1.6347  1.3372  2.0404
  508MOL0     H68548   1.693   2.715  13.346  2.6681 -0.4683 -0.2663
  508MOL0     H68549   1.790   2.722  13.497 -0.0077 -1.1291 -0.2925
  508MOL0     H68550   1.492   2.740  13.446  3.7725 -1.5155 -4.8127
  508MOL0     H68551   1.561   2.849  13.576 -3.6912 -0.1747 -0.9844
  508MOL0     H68552   1.676   2.615  13.649  0.1150 -3.6967 -2.5979
  508MOL0     H68553   1.573   2.544  13.544  0.2834  0.7306 -1.3035
  508MOL0     H68554   1.365   2.651  13.670 -0.0697  0.9199 -0.7132
  508MOL0     H68555   1.457   2.528  13.766 -0.4402  0.6956 -0.1051
  508MOL0     H68556   1.539   2.814  13.809 -0.0651 -0.1520 -1.3692
  508MOL0     H68557   1.544   2.666  13.908  0.4894  0.5132 -1.2194
  508MOL0     H68558   1.294   2.680  13.916 -0.0505 -0.4274  0.9613
  508MOL0     H68559   1.378   2.802  14.018  0.5334  1.5125 -0.2280
  508MOL0     H68560   2.063   3.259  13.191  1.7834  1.4427 -2.4665
  508MOL0     H68561   2.240   3.288  13.028  3.6659 -2.3442  0.4561
  508MOL0     H68562   2.478   3.296  12.715 -0.7238  1.5503 -0.1401
  508MOL0     H68563   2.595   3.368  12.506 -0.1156  0.6385 -4.7404
  508MOL0     H68564   1.911   3.006  11.473 -0.5597  1.9930 -0.3696
  508MOL0     H68565   1.845   2.772  11.380  1.8028 -0.3698  1.3195
  508MOL0     H68566   1.647   2.625  11.063  2.6172 -0.1563  0.9015
  508MOL0     H68567   1.506   2.458  10.993  1.5063  1.0110  3.5888
  508MOL0     H68568   1.382   2.164  10.813 -0.5269  3.2901 -1.5594
  508MOL0     H68569   1.390   2.324  10.884 -0.7923 -0.3540 -2.1774
  508MOL0     H68570   1.286   2.174  11.044 -0.3511 -0.5617 -0.0068
  508MOL0     H68571   1.457   2.184  11.096 -0.8531  0.0689  0.4427
  508MOL0     H68572   1.436   1.949  11.105 -1.5044 -2.6263 -0.9380
  508MOL0     H68573   1.493   1.978  10.941 -1.3079 -1.6776 -0.0694
  508MOL0     H68574   1.205   1.926  11.027 -0.4455 -4.8068 -0.9497
  508MOL0     H68575   1.246   1.976  10.864  0.7479  0.0398 -1.0637
  508MOL0     H68576   1.423   1.589  10.855  1.1687  1.2213 -2.4539
  508MOL0     H68577   1.813   2.229  10.822  1.4123  1.0202 -1.3646
  508MOL0     H68578   2.102   2.414  10.942  1.5503  1.4183 -0.7995
  508MOL0     H68579   2.037   2.298  10.822 -1.2880 -0.1356  0.9038
  508MOL0     H68580   2.061   2.472  10.778 -1.8317  1.3162  0.6685
  509MOL0     O68581   5.501   3.616   5.257 -0.0400  0.9303  0.0826
  509MOL0     C68582   5.446   3.722   5.235 -0.1214 -0.3542 -0.3904
  509MOL0     O68583   5.498   3.827   5.176  0.5302  0.0553 -0.6993
  509MOL0     C68584   5.595   3.810   5.084 -0.6634 -0.0907  1.4043
  509MOL0     C68585   5.623   3.694   5.006  0.1508 -0.3916  1.2915
  509MOL0     C68586   5.719   3.695   4.904  0.2864  0.1373 -0.5068
  509MOL0     C68587   5.781   3.814   4.875 -0.2447 -0.4629  0.8387
  509MOL0     O68588   5.882   3.845   4.784  0.2252  0.4380  0.4978
  509MOL0     C68589   5.955   3.731   4.713  0.4385  1.2308 -0.1773
  509MOL0     C68590   6.089   3.782   4.654  0.6762 -0.0859  0.3449
  509MOL0     C68591   6.177   3.871   4.732 -0.5252  0.4451 -1.0084
  509MOL0     C68592   6.271   3.949   4.644  0.2941  0.7120  0.7548
  509MOL0     C68593   6.361   3.871   4.545 -0.0845  0.5816  0.1408
  509MOL0     C68594   6.471   3.957   4.472 -0.7352 -0.2562  0.2119
  509MOL0     C68595   6.410   4.067   4.384 -0.6937 -0.1790  0.1236
  509MOL0     C68596   6.532   4.131   4.316  0.6780 -0.2780  0.6437
  509MOL0     N68597   6.476   4.233   4.224 -0.0610 -0.0560  1.0562
  509MOL0     C68598   6.372   4.211   4.128 -0.2973  0.5965  0.0484
  509MOL0     C68599   6.358   4.321   4.055  0.5623  0.8429 -0.3246
  509MOL0     C68600   6.260   4.360   3.958  0.1059 -0.4418  0.5898
  509MOL0     C68601   6.315   4.397   3.818  0.0926  0.6052  0.0228
  509MOL0     C68602   6.220   4.473   3.735 -0.6018 -0.8453  1.3909
  509MOL0     C68603   6.270   4.487   3.588  0.3539  1.1107 -0.5690
  509MOL0     O68604   6.397   4.567   3.589  0.8392  0.3426 -0.6695
  509MOL0     C68605   6.380   4.700   3.559  0.0231 -0.2885  0.5852
  509MOL0     C68606   6.437   4.791   3.645  0.7263  0.0255 -0.2953
  509MOL0     C68607   6.437   4.930   3.607 -0.5098  0.9157  0.6992
  509MOL0     C68608   6.367   4.968   3.489  0.4027  0.3164  0.6268
  509MOL0     C68609   6.373   5.105   3.445 -0.1026  0.6331  0.4706
  509MOL0     O68610   6.455   5.184   3.516 -0.2946  0.3766 -0.4168
  509MOL0     C68611   6.488   5.312   3.462 -0.3575 -0.2273  0.7739
  509MOL0     C68612   6.402   5.395   3.392 -0.4654 -0.8951 -0.6344
  509MOL0     C68613   6.435   5.531   3.363 -0.8556 -0.4970  0.6866
  509MOL0     C68614   6.552   5.592   3.420  0.4183  1.1186  0.3587
  509MOL0     O68615   6.567   5.724   3.402 -0.0466  0.1045 -0.1259
  509MOL0     C68616   6.684   5.789   3.457 -0.0762 -0.8940 -0.4108
  509MOL0     C68617   6.686   5.935   3.405 -0.5954  0.4301  0.2007
  509MOL0     C68618   6.814   5.985   3.475 -0.4991 -0.0743  0.1153
  509MOL0     C68619   6.807   6.134   3.474 -0.1725  0.3155 -0.1674
  509MOL0     C68620   6.959   6.185   3.485  0.4827 -1.0275 -0.2488
  509MOL0     C68621   6.965   6.333   3.515  0.0721 -0.7939  0.8445
  509MOL0     C68622   7.102   6.396   3.503  0.0970  0.1201 -0.2569
  509MOL0     C68623   7.102   6.544   3.482 -0.7061 -0.0066 -0.1462
  509MOL0    Cl68624   7.033   6.562   3.317  0.1776  0.4666 -0.1656
  509MOL0     C68625   6.633   5.507   3.505 -0.3125 -0.2135 -0.0980
  509MOL0     C68626   6.602   5.372   3.516 -0.4974 -0.1155 -0.0807
  509MOL0     O68627   6.322   5.135   3.339 -0.5401 -0.3083  0.0632
  509MOL0     C68628   6.320   4.873   3.403  0.5989  0.2517  0.7867
  509MOL0     C68629   6.323   4.738   3.441 -0.3808 -1.2580 -0.5548
  509MOL0     N68630   6.448   4.414   4.115 -0.9636  0.1875  0.8447
  509MOL0     N68631   6.512   4.359   4.217  0.6489 -0.4454  0.2519
  509MOL0     C68632   5.767   3.924   4.953 -0.9727  0.3381  0.3337
  509MOL0     C68633   5.671   3.925   5.051 -0.4136  0.0507  1.0034
  509MOL0     C68634   5.309   3.734   5.300 -1.7051  0.9658  1.0906
  509MOL0     C68635   5.237   3.612   5.316  0.6867  0.2862  0.6652
  509MOL0     C68636   5.102   3.611   5.357  0.8058  0.6219  0.3177
  509MOL0     C68637   5.031   3.731   5.375  0.2178 -0.4046 -0.3588
  509MOL0     O68638   4.894   3.742   5.374 -0.2227 -0.2269 -0.4185
  509MOL0     C68639   4.815   3.631   5.414  0.0884  0.6145  0.1287
  509MOL0     C68640   4.669   3.664   5.403 -0.3219 -0.2786 -0.3227
  509MOL0     C68641   4.653   3.795   5.473  0.3452 -0.3451  0.1690
  509MOL0     C68642   4.510   3.848   5.476  0.2213 -0.5112  0.1634
  509MOL0     C68643   4.453   3.876   5.344 -0.1578  0.3229 -1.0933
  509MOL0     C68644   4.385   3.906   5.247  0.7009 -0.5229 -0.0054
  509MOL0     C68645   5.105   3.846   5.374  0.3048 -0.3446  0.5392
  509MOL0     C68646   5.243   3.851   5.341  0.7749 -0.3735 -0.0193
  509MOL0     C68647   5.315   3.984   5.356  0.2644  0.3215 -0.4975
  509MOL0     H68648   5.583   3.600   5.044  1.8530 -1.2080  1.1694
  509MOL0     H68649   5.750   3.610   4.844  1.9354  0.2693  0.0985
  509MOL0     H68650   5.969   3.653   4.789 -2.0801  1.1960  0.3390
  509MOL0     H68651   5.891   3.689   4.634  0.4742 -0.4219  0.6409
  509MOL0     H68652   6.071   3.848   4.568 -1.4812  1.5790  1.9704
  509MOL0     H68653   6.146   3.697   4.615 -1.1152 -1.3081  0.2335
  509MOL0     H68654   6.225   3.816   4.812 -1.6161  2.8138  1.4367
  509MOL0     H68655   6.123   3.940   4.798  2.3870  0.4671  1.5309
  509MOL0     H68656   6.218   4.028   4.589  1.8275  1.1466 -0.1521
  509MOL0     H68657   6.332   4.013   4.708  0.0908 -0.0657  1.7506
  509MOL0     H68658   6.416   3.800   4.607  1.7764  2.5926  0.9447
  509MOL0     H68659   6.308   3.821   4.463  1.5854  0.3469 -0.8582
  509MOL0     H68660   6.540   4.000   4.545 -0.6855 -1.4977  0.9282
  509MOL0     H68661   6.523   3.885   4.408 -1.0138 -0.6113  0.3796
  509MOL0     H68662   6.354   4.135   4.447  2.0553 -2.0393  5.1414
  509MOL0     H68663   6.344   4.027   4.307 -2.3801  0.4091  1.2247
  509MOL0     H68664   6.596   4.190   4.382 -2.7554  2.1327  2.0907
  509MOL0     H68665   6.589   4.048   4.272 -1.8431 -1.3159 -0.8779
  509MOL0     H68666   6.323   4.115   4.110 -1.7003  1.6251 -2.1046
  509MOL0     H68667   6.188   4.281   3.933  0.7978 -0.3374 -2.0102
  509MOL0     H68668   6.193   4.434   4.002  1.2553  0.4689  0.8466
  509MOL0     H68669   6.396   4.460   3.855 -1.0673  0.4929  3.0439
  509MOL0     H68670   6.359   4.311   3.767 -2.8926 -1.1351  0.1757
  509MOL0     H68671   6.213   4.576   3.773  1.9711 -0.2416  0.4563
  509MOL0     H68672   6.127   4.415   3.736 -1.3787  0.3623  1.5031
  509MOL0     H68673   6.194   4.547   3.538 -1.8326 -1.2573 -0.2958
  509MOL0     H68674   6.279   4.385   3.549 -0.6605  1.4194 -1.6466
  509MOL0     H68675   6.475   4.734   3.729 -3.8701 -2.3131  0.5460
  509MOL0     H68676   6.479   4.998   3.681 -1.3095 -2.8480  5.0759
  509MOL0     H68677   6.302   5.372   3.356 -1.4687 -2.0548  2.5255
  509MOL0     H68678   6.371   5.591   3.299  1.0067  1.2480  0.3870
  509MOL0     H68679   6.674   5.785   3.566 -0.5385  1.3248 -0.3241
  509MOL0     H68680   6.773   5.734   3.425 -0.2600 -0.9715 -0.8011
  509MOL0     H68681   6.697   5.947   3.296 -0.0985  1.4050  0.3426
  509MOL0     H68682   6.602   5.983   3.456  0.0201  3.2653 -1.2340
  509MOL0     H68683   6.819   5.966   3.583  0.8800  1.2104  0.3071
  509MOL0     H68684   6.896   5.953   3.410 -1.7418  0.6741 -1.9080
  509MOL0     H68685   6.737   6.166   3.552 -2.1100 -0.7348 -1.3974
  509MOL0     H68686   6.778   6.160   3.372 -1.7706  0.0544  0.1934
  509MOL0     H68687   6.991   6.170   3.381  2.2634 -0.7943  0.2425
  509MOL0     H68688   7.025   6.130   3.552  1.9311  1.2301  0.2899
  509MOL0     H68689   6.891   6.392   3.459  2.7505  1.1498 -0.8974
  509MOL0     H68690   6.940   6.337   3.621  4.3126  0.1968  1.9998
  509MOL0     H68691   7.171   6.350   3.431  2.0941  2.4835  0.0171
  509MOL0     H68692   7.153   6.380   3.598  2.2064  0.8850 -1.1884
  509MOL0     H68693   7.048   6.597   3.561 -3.0652 -2.7080  0.2297
  509MOL0     H68694   7.206   6.575   3.481 -0.5790 -0.4250 -1.0826
  509MOL0     H68695   6.719   5.547   3.557 -0.9923 -0.1797  1.0288
  509MOL0     H68696   6.661   5.316   3.588 -0.8815  0.7287  0.9263
  509MOL0     H68697   6.274   4.888   3.306 -0.7305 -2.9138  0.8319
  509MOL0     H68698   6.295   4.658   3.372 -1.4509  0.4809 -2.2457
  509MOL0     H68699   5.829   4.011   4.931 -1.0291 -0.1833 -2.1834
  509MOL0     H68700   5.681   4.021   5.100  1.5892 -0.5994  1.9674
  509MOL0     H68701   5.284   3.515   5.300  0.0388 -0.0042  0.4931
  509MOL0     H68702   5.061   3.511   5.356  1.8549  0.0999  2.4985
  509MOL0     H68703   4.848   3.602   5.515 -0.2962 -1.2627 -0.2432
  509MOL0     H68704   4.834   3.549   5.345 -1.0038  1.3413 -1.0739
  509MOL0     H68705   4.610   3.587   5.453  1.6270 -2.0559 -0.6508
  509MOL0     H68706   4.634   3.657   5.299 -2.1414  0.5426  0.1941
  509MOL0     H68707   4.702   3.873   5.414 -1.3927  1.8973  1.4943
  509MOL0     H68708   4.687   3.802   5.577 -1.3397 -1.2130  0.8290
  509MOL0     H68709   4.437   3.788   5.529  1.7403 -1.3994  1.3413
  509MOL0     H68710   4.522   3.944   5.528 -0.7493 -1.0555  1.4352
  509MOL0     H68711   4.320   3.936   5.168 -1.5870 -0.7187  1.6955
  509MOL0     H68712   5.060   3.939   5.405  2.4127  0.4846  1.2483
  509MOL0     H68713   5.251   4.046   5.420  0.1713  0.0687 -0.3435
  509MOL0     H68714   5.409   3.977   5.410 -0.1733 -3.9926  0.0856
  509MOL0     H68715   5.317   4.029   5.256  4.0726  0.7905 -0.3488
  510MOL0     O68716   9.492   0.104   9.065  0.6563  0.7507  0.4119
  510MOL0     C68717   9.536   0.200   9.129  0.0202  0.3723 -0.3143
  510MOL0     O68718   9.668   0.227   9.145 -0.1414 -0.0612  0.0955
  510MOL0     C68719   9.760   0.165   9.065 -0.3236 -0.3475 -0.9470
  510MOL0     C68720   9.782   0.207   8.935 -0.6514  0.1057 -0.3861
  510MOL0     C68721   9.887   0.152   8.861  0.3473 -1.4883  0.2236
  510MOL0     C68722   9.981   0.069   8.921  0.0381 -0.8920 -0.8044
  510MOL0     O68723  10.099   0.038   8.856 -0.5100  0.5833  0.5798
  510MOL0     C68724  10.101   0.003   8.716  0.2943 -0.2631  1.0051
  510MOL0     C68725  10.247   0.048   8.667  0.3627  0.1277  0.0053
  510MOL0     C68726  10.262   0.199   8.678 -1.0857  0.8067 -0.5352
  510MOL0     C68727  10.413   0.237   8.671  0.4228 -0.2812 -0.0520
  510MOL0     C68728  10.435   0.383   8.692 -0.3432 -1.0908 -0.9402
  510MOL0     C68729  10.432   0.462   8.560 -0.9057 -0.1129 -0.4805
  510MOL0     C68730  10.427   0.608   8.584  0.2187 -0.9423 -0.5055
  510MOL0     C68731  10.550   0.663   8.656 -0.0830  0.8611  0.2208
  510MOL0     N68732  10.666   0.689   8.571  0.3822  0.4856  0.6933
  510MOL0     C68733  10.674   0.783   8.470 -0.5210 -0.9830  0.0473
  510MOL0     C68734  10.791   0.744   8.409 -0.1352  0.3809  0.4641
  510MOL0     C68735  10.852   0.817   8.294 -0.3870  0.1207  0.1053
  510MOL0     C68736  10.923   0.939   8.338 -0.4037 -0.7638 -0.5082
  510MOL0     C68737  11.014   1.002   8.233 -0.0552  0.6213  0.7619
  510MOL0     C68738  11.097   1.135   8.280  0.2721  0.0081 -0.1816
  510MOL0     O68739  11.174   1.199   8.171 -0.5947 -0.6858 -0.5063
  510MOL0     C68740  11.299   1.157   8.135 -0.6299  1.3049 -0.4628
  510MOL0     C68741  11.379   1.259   8.076  0.1982 -0.1733  0.6231
  510MOL0     C68742  11.521   1.244   8.065  0.4200 -0.0868 -0.8067
  510MOL0     C68743  11.592   1.126   8.111  1.1358 -0.8084  0.6353
  510MOL0     C68744  11.732   1.102   8.094 -0.5184 -0.5701 -0.6123
  510MOL0     O68745  11.789   1.014   8.175 -0.9351  0.2823 -0.4823
  510MOL0     C68746  11.927   0.979   8.193 -0.9900 -0.2035 -0.7213
  510MOL0     C68747  12.028   0.988   8.093  0.5907 -1.0162 -0.5963
  510MOL0     C68748  12.161   0.965   8.125  0.4425 -0.7481  0.0238
  510MOL0     C68749  12.195   0.907   8.245 -0.6956 -0.2071 -0.2668
  510MOL0     O68750  12.334   0.895   8.275 -0.7068  0.1928 -0.3242
  510MOL0     C68751  12.387   1.019   8.322  0.4587  0.2667 -0.8433
  510MOL0     C68752  12.548   1.017   8.336 -0.0667  0.5542 -0.3306
  510MOL0     C68753  12.602   0.885   8.272  0.3594  0.2748 -0.0606
  510MOL0     C68754  12.751   0.879   8.240  0.3559 -0.6853 -1.2321
  510MOL0     C68755  12.798   0.734   8.208  0.4849 -0.3471 -0.5334
  510MOL0     C68756  12.739   0.680   8.082  0.6628 -0.1982  0.1363
  510MOL0     C68757  12.790   0.544   8.041  0.4826  0.6349  0.1937
  510MOL0     C68758  12.778   0.520   7.882 -0.1182  0.1993  0.7368
  510MOL0    Cl68759  12.600   0.536   7.848 -0.0668  0.3793 -0.2145
  510MOL0     C68760  12.098   0.882   8.338 -0.8018  0.3391 -0.9485
  510MOL0     C68761  11.962   0.929   8.320  0.7683 -1.2660 -0.7900
  510MOL0     O68762  11.799   1.168   8.015  0.5047 -0.2209  0.5909
  510MOL0     C68763  11.507   1.028   8.162 -0.4754 -0.0257  0.5874
  510MOL0     C68764  11.374   1.034   8.177  0.7094 -0.5645 -0.7378
  510MOL0     N68765  10.845   0.632   8.466  0.1954 -0.2853 -0.8816
  510MOL0     N68766  10.763   0.595   8.557  0.0404  0.5432 -0.0187
  510MOL0     C68767   9.959   0.023   9.052 -0.3486  0.7040  0.4990
  510MOL0     C68768   9.842   0.069   9.121  0.0702  0.1703  0.9684
  510MOL0     C68769   9.447   0.277   9.208  0.0058  0.1013  0.0859
  510MOL0     C68770   9.390   0.388   9.150  0.0950 -1.0226  0.5863
  510MOL0     C68771   9.307   0.470   9.226  0.0736  0.4970  0.8339
  510MOL0     C68772   9.247   0.420   9.345 -0.0593  0.5553  0.4919
  510MOL0     O68773   9.165   0.498   9.423 -0.0855 -0.3029  0.5615
  510MOL0     C68774   9.063   0.446   9.514  0.4946  0.6126 -0.0523
  510MOL0     C68775   8.961   0.551   9.577 -0.7928 -0.9741  0.4790
  510MOL0     C68776   9.007   0.602   9.712 -0.7034 -0.0768  0.3227
  510MOL0     C68777   8.914   0.695   9.790 -0.0606 -0.4278  0.9276
  510MOL0     C68778   8.879   0.824   9.725 -0.7532  0.3780 -0.1968
  510MOL0     C68779   8.841   0.934   9.669 -0.1292  0.3845 -0.8601
  510MOL0     C68780   9.296   0.294   9.388 -0.5670 -0.7678 -1.2793
  510MOL0     C68781   9.402   0.228   9.324  0.6549  0.5633 -1.5287
  510MOL0     C68782   9.427   0.085   9.370  0.0094  0.0524  0.0994
  510MOL0     H68783   9.722   0.280   8.881  0.9127  2.0460  0.3574
  510MOL0     H68784   9.897   0.187   8.759  1.0497  0.0887  0.8048
  510MOL0     H68785  10.085  -0.104   8.702 -1.0203 -0.1076  1.2390
  510MOL0     H68786  10.019   0.054   8.666  0.0759 -3.7927 -2.7520
  510MOL0     H68787  10.256   0.017   8.563 -2.5890 -2.8367  0.4519
  510MOL0     H68788  10.322  -0.007   8.726  0.1206 -0.0105  0.1851
  510MOL0     H68789  10.224   0.226   8.777  0.9907  0.8494  0.3097
  510MOL0     H68790  10.220   0.252   8.592  0.6532  2.6527 -0.3236
  510MOL0     H68791  10.448   0.196   8.766 -2.4923  1.3461  1.8711
  510MOL0     H68792  10.457   0.202   8.577 -1.4954 -1.2187 -0.6536
  510MOL0     H68793  10.372   0.423   8.772  0.2585  0.4262 -1.1842
  510MOL0     H68794  10.535   0.386   8.736 -0.9696  3.4670  0.7237
  510MOL0     H68795  10.509   0.426   8.491 -1.3899 -5.5610  1.2953
  510MOL0     H68796  10.339   0.431   8.513 -0.5207 -1.4290 -0.4117
  510MOL0     H68797  10.343   0.626   8.652  1.3268 -1.3319  1.0045
  510MOL0     H68798  10.404   0.660   8.490  0.2425 -3.4243 -1.9892
  510MOL0     H68799  10.531   0.752   8.716 -0.4368 -0.1103  1.6002
  510MOL0     H68800  10.578   0.589   8.732  1.5781 -0.2665 -1.4029
  510MOL0     H68801  10.611   0.867   8.443 -1.2972 -1.4563  0.3366
  510MOL0     H68802  10.923   0.749   8.247  1.9661  2.2118  0.4553
  510MOL0     H68803  10.774   0.844   8.222 -3.2661 -1.7138  2.2975
  510MOL0     H68804  10.855   1.019   8.367  1.3878  0.2759  1.0287
  510MOL0     H68805  10.998   0.913   8.413 -1.1490  0.3563  0.6562
  510MOL0     H68806  10.958   1.020   8.141  2.2407 -0.4972 -0.9514
  510MOL0     H68807  11.097   0.936   8.205 -0.4297 -0.3229  1.8165
  510MOL0     H68808  11.151   1.090   8.364  0.6130 -1.5465 -1.2079
  510MOL0     H68809  11.024   1.210   8.313 -2.3458 -2.5039  0.1528
  510MOL0     H68810  11.329   1.348   8.041  1.0374 -0.1849 -0.7013
  510MOL0     H68811  11.574   1.332   8.030  0.9640 -0.8006 -1.8085
  510MOL0     H68812  12.003   1.032   7.997 -0.3126  0.6216  0.3571
  510MOL0     H68813  12.243   0.972   8.054  2.4174  0.5365  2.3038
  510MOL0     H68814  12.358   1.093   8.247 -0.4217  1.4427  0.5903
  510MOL0     H68815  12.337   1.046   8.415  0.2547  0.7318 -1.0827
  510MOL0     H68816  12.591   1.101   8.281  3.1275 -1.1812 -0.7213
  510MOL0     H68817  12.574   1.027   8.442 -0.4007 -1.9605  0.0529
  510MOL0     H68818  12.576   0.789   8.318 -0.2786 -0.9711 -2.8556
  510MOL0     H68819  12.567   0.884   8.169 -0.2541 -0.7433  0.1433
  510MOL0     H68820  12.806   0.921   8.324 -4.2325  2.2217  0.6991
  510MOL0     H68821  12.772   0.941   8.152  3.6036 -1.6073 -1.2424
  510MOL0     H68822  12.761   0.671   8.290 -1.0627  0.7021 -0.3787
  510MOL0     H68823  12.907   0.733   8.208  0.5323 -1.7750  1.6614
  510MOL0     H68824  12.630   0.681   8.071  0.4786  0.8398  1.8145
  510MOL0     H68825  12.775   0.750   8.006 -1.4787  1.5686  0.6204
  510MOL0     H68826  12.728   0.474   8.097 -0.1477  2.1752  1.5314
  510MOL0     H68827  12.893   0.520   8.068  0.2825 -1.5651 -0.7707
  510MOL0     H68828  12.825   0.601   7.824 -0.0861 -1.9271 -2.4472
  510MOL0     H68829  12.823   0.427   7.847 -1.3687 -0.7912  1.6890
  510MOL0     H68830  12.128   0.836   8.431 -2.9989 -0.0177 -0.3413
  510MOL0     H68831  11.884   0.933   8.395  2.0318 -2.9668  0.7220
  510MOL0     H68832  11.552   0.930   8.174  2.9521  1.3738  0.5084
  510MOL0     H68833  11.329   0.950   8.228 -0.4940 -0.0240 -0.8688
  510MOL0     H68834  10.026  -0.045   9.104 -2.5621 -0.7050  1.6700
  510MOL0     H68835   9.818   0.029   9.220  1.0879  2.8574  2.4014
  510MOL0     H68836   9.414   0.422   9.050 -0.1879  3.9561  1.9778
  510MOL0     H68837   9.285   0.565   9.179  3.3434 -0.3033 -2.7696
  510MOL0     H68838   9.116   0.401   9.599 -1.1106 -1.9483 -0.2754
  510MOL0     H68839   9.006   0.372   9.457  0.7072  1.1072 -0.9250
  510MOL0     H68840   8.854   0.527   9.580 -1.1061  0.3206  0.5497
  510MOL0     H68841   8.971   0.646   9.523 -3.4227 -0.4433  0.7998
  510MOL0     H68842   9.101   0.656   9.693 -1.4851  1.3094  0.2772
  510MOL0     H68843   9.025   0.516   9.777 -0.8561 -2.9414 -3.1095
  510MOL0     H68844   8.824   0.634   9.804 -1.3577  0.8761 -1.2107
  510MOL0     H68845   8.961   0.721   9.886 -1.6632 -1.6074  2.0877
  510MOL0     H68846   8.789   1.023   9.644 -6.3429 -2.5207 -0.0449
  510MOL0     H68847   9.240   0.240   9.463  1.2015 -2.3405 -1.0159
  510MOL0     H68848   9.511   0.031   9.325  0.6006  1.2399 -0.2371
  510MOL0     H68849   9.446   0.081   9.477 -1.9708 -1.3541  0.4633
  510MOL0     H68850   9.329   0.038   9.356 -0.5971  1.2017  0.4270
  511MOL0     O68851   7.179  10.261   7.469 -0.2583  0.5860  0.3059
  511MOL0     C68852   7.075  10.321   7.461 -0.2851  0.7935  0.9887
  511MOL0     O68853   7.010  10.380   7.567  0.2703  0.0399 -0.2023
  511MOL0     C68854   7.067  10.363   7.690  0.8642  0.2188 -0.2379
  511MOL0     C68855   7.013  10.267   7.777 -0.6657 -0.2360 -0.0457
  511MOL0     C68856   7.089  10.235   7.886 -0.5037  0.7318  0.0839
  511MOL0     C68857   7.208  10.296   7.916 -0.1186 -1.1964  1.0888
  511MOL0     O68858   7.271  10.258   8.028  1.3692 -0.4827  0.4495
  511MOL0     C68859   7.413  10.285   8.048  0.6318  0.0708  0.2700
  511MOL0     C68860   7.460  10.178   8.144 -0.1195  0.0144  0.2710
  511MOL0     C68861   7.427  10.209   8.288  0.7799 -0.7534  0.5792
  511MOL0     C68862   7.445  10.100   8.395  0.1480 -1.1046  0.5260
  511MOL0     C68863   7.586  10.041   8.398 -1.1168 -0.4796  0.3459
  511MOL0     C68864   7.616   9.992   8.537  0.5326  0.2470  0.0126
  511MOL0     C68865   7.734   9.894   8.531 -0.0678  0.8941 -0.0642
  511MOL0     C68866   7.676   9.769   8.468  1.0057 -0.1241 -0.3342
  511MOL0     N68867   7.776   9.667   8.466 -0.4973  0.0947  0.1246
  511MOL0     C68868   7.761   9.551   8.543  0.5024 -0.7054  0.1545
  511MOL0     C68869   7.856   9.471   8.499 -0.4251  0.8013  0.3884
  511MOL0     C68870   7.877   9.341   8.542  0.8730  0.0379 -0.1438
  511MOL0     C68871   7.919   9.240   8.439  0.9046  0.6390  0.1866
  511MOL0     C68872   7.813   9.182   8.350 -0.5285  1.4645 -0.3975
  511MOL0     C68873   7.715   9.287   8.292 -0.2658 -0.6107  0.1006
  511MOL0     O68874   7.634   9.214   8.201  0.1162  0.0446  0.0264
  511MOL0     C68875   7.520   9.276   8.150  0.3258  0.4953  0.8727
  511MOL0     C68876   7.440   9.204   8.051 -0.6890  0.5527  0.5383
  511MOL0     C68877   7.320   9.246   8.006 -0.3273 -0.8074  0.4813
  511MOL0     C68878   7.263   9.369   8.056 -0.3924 -0.4764 -0.0700
  511MOL0     C68879   7.128   9.414   8.031  0.3139  1.2963  0.5372
  511MOL0     O68880   7.084   9.525   8.098  0.5674  0.1755  0.2406
  511MOL0     C68881   6.951   9.555   8.100  0.3076  0.0562 -0.0827
  511MOL0     C68882   6.916   9.688   8.111  0.6691 -0.2161  0.7351
  511MOL0     C68883   6.783   9.741   8.103 -1.2836  0.2598  0.8020
  511MOL0     C68884   6.678   9.659   8.081  0.4450 -0.0854  0.0402
  511MOL0     O68885   6.553   9.705   8.083  1.4071  0.4945 -0.0540
  511MOL0     C68886   6.441   9.605   8.104  0.4241 -0.0123  0.1719
  511MOL0     C68887   6.315   9.686   8.123 -1.6205 -0.3143 -0.9286
  511MOL0     C68888   6.192   9.601   8.174 -0.0867 -0.3011  0.8639
  511MOL0     C68889   6.058   9.659   8.142 -0.5792 -0.0676  0.0958
  511MOL0     C68890   5.954   9.568   8.201 -0.1254 -0.3532  0.1823
  511MOL0     C68891   5.814   9.623   8.179  0.2608 -0.5324 -0.6277
  511MOL0     C68892   5.706   9.523   8.240 -0.3391 -0.6517  0.7699
  511MOL0     C68893   5.678   9.574   8.391  0.4052 -0.6932 -0.3356
  511MOL0    Cl68894   5.550   9.464   8.451 -0.6374  0.4213 -0.9684
  511MOL0     C68895   6.716   9.524   8.066  0.4197 -0.2791 -0.5526
  511MOL0     C68896   6.846   9.471   8.097 -0.0738  0.4320  1.0134
  511MOL0     O68897   7.062   9.353   7.946  0.8801  0.9390  0.1353
  511MOL0     C68898   7.346   9.442   8.149 -0.4678 -0.0639 -0.4537
  511MOL0     C68899   7.477   9.402   8.176 -0.7796 -0.5001  0.1547
  511MOL0     N68900   7.933   9.536   8.396  0.8603 -0.3004 -0.3888
  511MOL0     N68901   7.881   9.653   8.376 -0.5678  0.6348 -0.5162
  511MOL0     C68902   7.261  10.389   7.826  0.2048  0.3699  0.2554
  511MOL0     C68903   7.189  10.422   7.715 -0.0471 -0.4453  0.5334
  511MOL0     C68904   7.004  10.327   7.331 -0.4219 -0.4186 -0.1524
  511MOL0     C68905   6.883  10.387   7.322 -0.1120  0.5049  0.7514
  511MOL0     C68906   6.803  10.387   7.214 -0.1429 -1.6012 -0.9143
  511MOL0     C68907   6.850  10.328   7.101 -0.2189 -0.0231  0.0027
  511MOL0     O68908   6.756  10.334   6.994  0.6712  0.3421 -0.4295
  511MOL0     C68909   6.822  10.360   6.862  0.6391 -0.9099 -1.0187
  511MOL0     C68910   6.738  10.430   6.758  0.1145  0.7694 -0.0805
  511MOL0     C68911   6.609  10.346   6.726 -0.5949  0.1470 -0.6635
  511MOL0     C68912   6.632  10.189   6.699 -0.1944 -0.3861 -0.2280
  511MOL0     C68913   6.544  10.117   6.614 -0.6325 -0.2779  0.0424
  511MOL0     C68914   6.463  10.053   6.545  0.5794  0.0046 -0.0682
  511MOL0     C68915   6.981  10.283   7.095 -0.8438 -0.3041  0.2416
  511MOL0     C68916   7.065  10.299   7.206  0.2172  0.2434  0.2956
  511MOL0     C68917   7.205  10.245   7.192 -0.6207 -0.0329 -0.1584
  511MOL0     H68918   6.923  10.214   7.750  0.1535  0.2301 -4.2502
  511MOL0     H68919   7.064  10.148   7.946 -1.6917  1.2800  0.4054
  511MOL0     H68920   7.454  10.275   7.947  2.8901 -1.7314  1.2813
  511MOL0     H68921   7.433  10.385   8.087  4.1930 -0.5536  0.3201
  511MOL0     H68922   7.564  10.147   8.136 -0.5599 -1.0603 -3.8887
  511MOL0     H68923   7.405  10.086   8.120 -1.6094  0.7000  0.8893
  511MOL0     H68924   7.321  10.237   8.283  0.7167 -1.1593 -0.4553
  511MOL0     H68925   7.482  10.291   8.336  2.3832 -1.2169 -0.4188
  511MOL0     H68926   7.418  10.140   8.493  3.4093 -2.1657  2.0071
  511MOL0     H68927   7.386  10.017   8.354  1.4665 -0.5487 -2.7969
  511MOL0     H68928   7.602   9.968   8.319  1.5481 -0.9342  1.1996
  511MOL0     H68929   7.660  10.121   8.387 -2.4149  0.8017  0.5671
  511MOL0     H68930   7.658  10.069   8.602  2.4414 -2.7039  2.5547
  511MOL0     H68931   7.530   9.953   8.591  1.1481  2.1295  2.4993
  511MOL0     H68932   7.762   9.871   8.634  0.5765  1.9617  0.0097
  511MOL0     H68933   7.825   9.938   8.491  3.6807 -2.7296  3.5570
  511MOL0     H68934   7.586   9.731   8.517  1.3374 -1.8144 -0.9530
  511MOL0     H68935   7.635   9.783   8.368 -1.7835 -1.1655  0.5477
  511MOL0     H68936   7.691   9.548   8.626 -0.4448  0.0183 -0.5977
  511MOL0     H68937   7.953   9.334   8.621 -0.2291 -0.2975  0.9151
  511MOL0     H68938   7.786   9.318   8.598 -1.6799  0.4210 -3.8112
  511MOL0     H68939   8.005   9.285   8.389  1.5581 -0.8130 -0.0602
  511MOL0     H68940   7.963   9.160   8.499 -0.5704 -0.3934 -0.0491
  511MOL0     H68941   7.751   9.098   8.383  1.1663  0.3722  0.1381
  511MOL0     H68942   7.856   9.137   8.260 -0.6538  0.2243  0.1449
  511MOL0     H68943   7.763   9.366   8.233 -1.3927 -0.5673 -0.7854
  511MOL0     H68944   7.644   9.319   8.369  0.0795  0.1211  0.1242
  511MOL0     H68945   7.486   9.117   8.006  0.2952 -0.2797  3.0283
  511MOL0     H68946   7.269   9.184   7.933  0.6131  0.0425 -0.9406
  511MOL0     H68947   6.987   9.770   8.110  1.5268 -0.8308 -2.4595
  511MOL0     H68948   6.772   9.849   8.104  0.1065  0.4148  1.0813
  511MOL0     H68949   6.428   9.557   8.006  0.4736  1.1333 -0.4159
  511MOL0     H68950   6.466   9.524   8.173 -1.8099 -0.3902  0.6057
  511MOL0     H68951   6.332   9.766   8.195  2.6228 -1.5262 -0.3143
  511MOL0     H68952   6.295   9.729   8.024 -1.3398  0.4418 -0.6663
  511MOL0     H68953   6.204   9.494   8.155  0.9552  0.1094 -1.0199
  511MOL0     H68954   6.193   9.618   8.282 -0.2126 -0.3292  0.8693
  511MOL0     H68955   6.049   9.661   8.033  4.7372  0.6936 -0.6369
  511MOL0     H68956   6.040   9.760   8.181 -2.0112 -0.1370 -0.3282
  511MOL0     H68957   5.974   9.554   8.307 -0.3889  1.7802  0.5581
  511MOL0     H68958   5.969   9.475   8.146  0.0660  0.1230 -0.5940
  511MOL0     H68959   5.813   9.713   8.242  0.4789 -0.6875 -0.4012
  511MOL0     H68960   5.789   9.665   8.081 -0.1554  1.1973  0.1921
  511MOL0     H68961   5.735   9.418   8.250  1.1290 -0.1086  3.1949
  511MOL0     H68962   5.615   9.522   8.180  1.2714 -1.6121 -1.8356
  511MOL0     H68963   5.771   9.571   8.448  1.4228  0.1277 -1.8985
  511MOL0     H68964   5.631   9.673   8.390 -0.6101 -1.1466  0.3415
  511MOL0     H68965   6.635   9.454   8.047  0.6157 -0.8610  0.6550
  511MOL0     H68966   6.857   9.363   8.103  0.5323  0.3833 -0.5077
  511MOL0     H68967   7.304   9.531   8.196  0.2803 -0.1841  0.4500
  511MOL0     H68968   7.527   9.473   8.242  1.4040 -2.2600  0.5320
  511MOL0     H68969   7.355  10.444   7.833 -0.2237  1.5561 -2.0967
  511MOL0     H68970   7.227  10.487   7.637  1.6290  0.7644  2.2679
  511MOL0     H68971   6.823  10.415   7.408 -0.8350 -3.3821  1.7174
  511MOL0     H68972   6.707  10.437   7.220  0.1650 -0.7968  6.2978
  511MOL0     H68973   6.864  10.267   6.824 -0.4004 -0.7762 -2.5844
  511MOL0     H68974   6.899  10.427   6.904 -2.4677  2.6338 -0.4024
  511MOL0     H68975   6.807  10.446   6.675  0.1449  1.3185  0.0490
  511MOL0     H68976   6.715  10.534   6.785 -2.0424  0.3971 -0.3091
  511MOL0     H68977   6.553  10.392   6.644  2.6126  2.0064 -1.9810
  511MOL0     H68978   6.544  10.334   6.813 -0.6447 -0.8036 -0.8249
  511MOL0     H68979   6.732  10.187   6.654  0.7342  0.5348  1.6543
  511MOL0     H68980   6.642  10.138   6.795 -2.1899 -0.5479 -0.0657
  511MOL0     H68981   6.409   9.980   6.488 -0.7145  1.6822 -1.0898
  511MOL0     H68982   7.022  10.255   6.999 -3.3866  0.7714 -1.2580
  511MOL0     H68983   7.287  10.303   7.236 -0.8067 -1.1412  1.7837
  511MOL0     H68984   7.213  10.151   7.247  1.1315  1.5484  2.5732
  511MOL0     H68985   7.223  10.211   7.090 -1.6535  1.7187 -0.9851
  512MOL0     O68986   5.953  10.710   2.510 -0.2444 -0.1808  0.8595
  512MOL0     C68987   5.835  10.716   2.457 -0.9724  0.0389 -0.5609
  512MOL0     O68988   5.724  10.779   2.512 -0.6190  0.7498 -0.8097
  512MOL0     C68989   5.744  10.832   2.639 -0.1327 -0.0241  0.9560
  512MOL0     C68990   5.784  10.752   2.753 -0.8069  0.3984  1.3965
  512MOL0     C68991   5.792  10.803   2.885  0.1027 -0.0687  0.5829
  512MOL0     C68992   5.752  10.933   2.902 -0.2748 -0.4797  0.2262
  512MOL0     O68993   5.770  10.991   3.027  0.1628  0.1049  0.7270
  512MOL0     C68994   5.900  10.993   3.086 -0.5194  0.1299 -0.7326
  512MOL0     C68995   5.885  10.908   3.218  0.7946  1.0781  0.5145
  512MOL0     C68996   5.867  10.984   3.348  0.3811 -0.0498  0.4769
  512MOL0     C68997   5.839  10.894   3.469  0.7063  0.3943 -0.3758
  512MOL0     C68998   5.815  10.990   3.594 -0.2189  0.8871 -0.0014
  512MOL0     C68999   5.681  11.075   3.576  0.7397 -0.2219 -0.5786
  512MOL0     C69000   5.697  11.190   3.683  0.3575  0.8795  0.3276
  512MOL0     C69001   5.564  11.261   3.700  0.7658  0.1386 -0.0596
  512MOL0     N69002   5.464  11.176   3.767  0.0421  0.5460  0.4647
  512MOL0     C69003   5.346  11.124   3.720  0.7168  1.0001  0.1137
  512MOL0     C69004   5.293  11.056   3.825  0.1368 -0.4457 -0.0692
  512MOL0     C69005   5.171  10.967   3.814 -0.0034 -0.7040 -1.1983
  512MOL0     C69006   5.191  10.841   3.734  0.0536 -0.2113  0.6962
  512MOL0     C69007   5.077  10.749   3.704  1.2699 -0.1444  0.6888
  512MOL0     C69008   5.119  10.616   3.640 -0.4319  0.2365  1.4536
  512MOL0     O69009   5.009  10.553   3.575  0.2510  0.2921  0.1266
  512MOL0     C69010   5.033  10.448   3.494 -0.6645  0.7302  0.1054
  512MOL0     C69011   5.164  10.383   3.476  0.4633 -0.4714 -0.0116
  512MOL0     C69012   5.169  10.280   3.384  0.2959 -0.3102  0.4681
  512MOL0     C69013   5.060  10.238   3.301 -0.7680 -0.1355 -0.1759
  512MOL0     C69014   5.097  10.144   3.199  0.4751  0.6217 -0.2103
  512MOL0     O69015   5.002  10.064   3.154 -0.3933 -0.1179  0.2659
  512MOL0     C69016   5.008  10.048   3.024 -0.5530  0.2002 -0.0670
  512MOL0     C69017   4.939  10.142   2.937 -0.2681 -0.3002  0.4259
  512MOL0     C69018   4.943  10.119   2.800 -0.0689 -0.0440 -1.1962
  512MOL0     C69019   5.006  10.007   2.751 -0.1539  0.6078 -0.5427
  512MOL0     O69020   5.011   9.976   2.617 -0.1055  0.0348  0.3192
  512MOL0     C69021   4.975  10.085   2.539  0.2538 -0.1281  0.8033
  512MOL0     C69022   5.006  10.051   2.392  0.5188  0.0826 -0.0090
  512MOL0     C69023   4.978  10.167   2.295  0.4479  0.0019  0.0147
  512MOL0     C69024   4.953  10.111   2.150 -0.5127  0.0007 -0.7874
  512MOL0     C69025   4.948  10.218   2.042  0.1926 -1.1016  0.3671
  512MOL0     C69026   4.913  10.156   1.912  0.3430 -0.2085  0.2851
  512MOL0     C69027   5.013  10.045   1.849  1.0288  0.2173  0.7595
  512MOL0     C69028   4.944   9.913   1.798 -0.2368  0.3001 -2.0021
  512MOL0    Cl69029   5.041   9.769   1.851 -0.1547 -0.0768  0.4484
  512MOL0     C69030   5.081   9.923   2.834 -0.1464  0.6779 -0.0190
  512MOL0     C69031   5.085   9.944   2.971 -0.1474 -0.0988  0.2122
  512MOL0     O69032   5.217  10.140   3.164  0.9238  0.1005  0.8937
  512MOL0     C69033   4.944  10.309   3.316  0.6545 -0.2971  1.0062
  512MOL0     C69034   4.927  10.403   3.415 -0.0927 -0.5142  0.9072
  512MOL0     N69035   5.380  11.074   3.929  0.3880 -0.2808 -0.5644
  512MOL0     N69036   5.480  11.152   3.898 -0.2748  0.2895  0.7124
  512MOL0     C69037   5.699  11.011   2.798  0.4840  0.7213  0.8456
  512MOL0     C69038   5.697  10.963   2.664  0.8115  0.3559 -0.6664
  512MOL0     C69039   5.818  10.632   2.328  0.4490 -0.1136  0.1388
  512MOL0     C69040   5.897  10.663   2.216  0.6763  0.3552  0.9468
  512MOL0     C69041   5.852  10.620   2.085 -0.7254 -0.2734 -0.2636
  512MOL0     C69042   5.731  10.556   2.071  0.8825  0.1119 -0.5598
  512MOL0     O69043   5.688  10.530   1.943  0.2550  0.8834  0.5741
  512MOL0     C69044   5.558  10.459   1.921 -0.9315 -1.1542  0.1233
  512MOL0     C69045   5.545  10.310   1.939 -0.2151  0.1942 -0.0830
  512MOL0     C69046   5.400  10.266   1.923 -0.1389 -0.0706  0.7825
  512MOL0     C69047   5.383  10.111   1.946  0.7451 -0.6493  0.8815
  512MOL0     C69048   5.426  10.064   2.077  0.0957  0.3192 -0.5850
  512MOL0     C69049   5.437  10.025   2.191 -0.0395  0.0753  0.7885
  512MOL0     C69050   5.653  10.513   2.188  1.0513 -0.4762 -0.4202
  512MOL0     C69051   5.698  10.554   2.316 -0.5270  0.5372  0.3411
  512MOL0     C69052   5.623  10.505   2.432 -0.3611 -0.2442 -0.6274
  512MOL0     H69053   5.806  10.646   2.739 -2.2048  0.2071  0.3725
  512MOL0     H69054   5.832  10.751   2.971  1.8207 -0.2622 -0.2840
  512MOL0     H69055   5.977  10.961   3.014 -0.3787  0.1576 -0.5959
  512MOL0     H69056   5.938  11.088   3.126  1.1714 -0.3297 -1.1403
  512MOL0     H69057   5.970  10.842   3.239 -0.3146 -1.2768 -1.7635
  512MOL0     H69058   5.799  10.842   3.204  1.4485  0.7222 -2.8994
  512MOL0     H69059   5.771  11.033   3.330  0.8197  2.1255  3.3749
  512MOL0     H69060   5.950  11.053   3.367 -0.5618  1.7665 -1.5253
  512MOL0     H69061   5.754  10.829   3.449 -1.0904  3.0535 -1.9953
  512MOL0     H69062   5.923  10.825   3.478  1.8614  1.7460 -0.4172
  512MOL0     H69063   5.802  10.924   3.679 -1.1970 -0.3346 -1.0596
  512MOL0     H69064   5.903  11.054   3.603  3.8749 -4.0480 -0.5334
  512MOL0     H69065   5.660  11.115   3.476 -0.2443 -1.5984 -0.9544
  512MOL0     H69066   5.596  11.012   3.603 -0.5319  0.9183 -1.7551
  512MOL0     H69067   5.784  11.251   3.658  1.0830 -1.2150 -2.7362
  512MOL0     H69068   5.721  11.148   3.781 -1.1472 -1.0596 -0.0751
  512MOL0     H69069   5.581  11.343   3.769  2.1663 -1.3434  1.4350
  512MOL0     H69070   5.520  11.300   3.607  0.5788 -1.3685 -0.6491
  512MOL0     H69071   5.303  11.124   3.620  1.0461 -2.9068 -0.1860
  512MOL0     H69072   5.136  10.937   3.913 -3.6245  0.9228 -1.8234
  512MOL0     H69073   5.077  11.010   3.778  1.2090  0.2408 -3.4728
  512MOL0     H69074   5.233  10.881   3.641  2.0110 -0.2151  1.5320
  512MOL0     H69075   5.265  10.782   3.789 -2.1544 -0.5188  3.5774
  512MOL0     H69076   5.019  10.799   3.626  3.7918 -3.2416 -3.5653
  512MOL0     H69077   5.028  10.722   3.798  0.1285 -1.6840 -0.2924
  512MOL0     H69078   5.171  10.539   3.697  0.5607 -2.5852 -2.8276
  512MOL0     H69079   5.186  10.643   3.557 -1.0383  0.4499  1.0253
  512MOL0     H69080   5.250  10.407   3.539  0.0094 -2.0050  1.2592
  512MOL0     H69081   5.273  10.250   3.369  0.4555  0.8263 -0.9671
  512MOL0     H69082   4.885  10.226   2.979 -0.4817 -0.7670  1.1060
  512MOL0     H69083   4.889  10.186   2.734 -1.4045 -0.7218 -0.8153
  512MOL0     H69084   4.868  10.103   2.532  0.6919  2.4450 -0.6532
  512MOL0     H69085   5.025  10.176   2.574  1.1114 -0.4258  0.3755
  512MOL0     H69086   5.110  10.020   2.382  0.3018 -0.1101 -2.4957
  512MOL0     H69087   4.956   9.960   2.358  3.8155 -1.3468 -1.4364
  512MOL0     H69088   4.887  10.225   2.313 -0.5421 -1.4428 -0.1719
  512MOL0     H69089   5.071  10.223   2.283  1.8334 -2.7129 -4.0195
  512MOL0     H69090   4.871  10.039   2.144 -1.2683  0.8632 -0.9376
  512MOL0     H69091   5.049  10.059   2.138 -0.3918  0.5103 -2.2679
  512MOL0     H69092   5.050  10.256   2.040  1.0985 -3.0067  3.6989
  512MOL0     H69093   4.865  10.285   2.063  0.3345 -0.5810 -0.6713
  512MOL0     H69094   4.821  10.098   1.929  1.3964 -1.7426  0.9854
  512MOL0     H69095   4.908  10.232   1.835  0.9082  1.1446  1.5343
  512MOL0     H69096   5.086  10.015   1.924  2.4412 -0.6264 -0.8945
  512MOL0     H69097   5.059  10.086   1.759 -1.2800  1.7441  0.1742
  512MOL0     H69098   4.850   9.906   1.854  2.0733 -0.6692  2.2729
  512MOL0     H69099   4.922   9.905   1.692 -3.4404 -0.2858 -1.3819
  512MOL0     H69100   5.144   9.840   2.804 -2.0424 -0.2279 -1.7608
  512MOL0     H69101   5.155   9.890   3.033  1.1156 -0.3561 -1.3774
  512MOL0     H69102   4.861  10.284   3.251  0.7632 -0.2797  0.8618
  512MOL0     H69103   4.830  10.451   3.410  0.8236  1.3581 -3.4382
  512MOL0     H69104   5.693  11.118   2.815 -1.7156  0.8913 -0.6435
  512MOL0     H69105   5.655  11.012   2.577 -0.8269 -4.4373 -2.9294
  512MOL0     H69106   5.989  10.719   2.230  1.6500 -0.1954 -2.2501
  512MOL0     H69107   5.902  10.656   1.995 -1.5598 -0.1618 -0.6969
  512MOL0     H69108   5.525  10.482   1.819  1.3034  1.6235 -0.0803
  512MOL0     H69109   5.488  10.516   1.982  0.6344 -0.3216  1.1925
  512MOL0     H69110   5.590  10.283   2.035  1.3569 -1.8352 -1.3179
  512MOL0     H69111   5.604  10.251   1.868 -0.7718  0.4948 -0.8058
  512MOL0     H69112   5.363  10.296   1.824 -0.7759 -0.1327  0.9926
  512MOL0     H69113   5.353  10.328   2.001  3.8419  0.6243  2.8662
  512MOL0     H69114   5.274  10.107   1.936  0.6306  1.8030  0.5113
  512MOL0     H69115   5.424  10.049   1.865  1.2966  0.9717 -0.1191
  512MOL0     H69116   5.438  10.003   2.296  0.9311  0.4427  0.8680
  512MOL0     H69117   5.567  10.449   2.168 -0.3995  1.5377 -0.8858
  512MOL0     H69118   5.590  10.401   2.427  2.4100 -1.1508 -1.8279
  512MOL0     H69119   5.670  10.522   2.530  0.1103  0.9883 -1.0473
  512MOL0     H69120   5.539  10.574   2.428 -1.4179 -1.5798 -2.4815
  513MOL0     O69121   7.497   7.479   8.363 -0.6215  0.4858  0.2775
  513MOL0     C69122   7.420   7.428   8.275  0.5524  0.2149  0.3367
  513MOL0     O69123   7.322   7.341   8.303  0.7618 -0.0066  0.3680
  513MOL0     C69124   7.280   7.314   8.427 -0.3576  0.7619 -0.5460
  513MOL0     C69125   7.357   7.251   8.527  0.2076  0.1819 -0.5668
  513MOL0     C69126   7.294   7.230   8.654 -0.7295 -0.4937  0.2518
  513MOL0     C69127   7.165   7.261   8.674 -1.0502  0.0074  0.0865
  513MOL0     O69128   7.110   7.217   8.788 -0.5275  0.2268 -1.0573
  513MOL0     C69129   6.966   7.203   8.807  0.7690 -0.0514  0.2529
  513MOL0     C69130   6.930   7.052   8.779 -0.4434 -0.5196 -0.2000
  513MOL0     C69131   6.785   7.031   8.810 -0.2304  0.1816  0.2592
  513MOL0     C69132   6.750   7.076   8.956  0.4484  0.4435  0.2375
  513MOL0     C69133   6.612   7.024   9.003  0.1301  0.8716  0.3344
  513MOL0     C69134   6.599   7.063   9.157  0.2218  0.1516  0.0835
  513MOL0     C69135   6.452   7.088   9.216 -0.6448 -0.1088 -0.0459
  513MOL0     C69136   6.355   6.982   9.164 -0.5808  0.3393 -0.6349
  513MOL0     N69137   6.388   6.844   9.208  0.1677 -0.0137  0.3191
  513MOL0     C69138   6.435   6.807   9.333 -0.5051 -0.1831 -0.0077
  513MOL0     C69139   6.481   6.674   9.327  1.2688  0.0772  0.4256
  513MOL0     C69140   6.531   6.580   9.436  0.4141  0.6277  0.6662
  513MOL0     C69141   6.460   6.437   9.412 -0.4052  0.3194  0.7713
  513MOL0     C69142   6.319   6.421   9.460  0.4574  0.3814 -0.0485
  513MOL0     C69143   6.241   6.300   9.396 -0.4844 -0.2554  0.1804
  513MOL0     O69144   6.291   6.177   9.432 -0.6317  0.0620  0.1746
  513MOL0     C69145   6.248   6.064   9.368  0.5726 -0.2909 -0.6452
  513MOL0     C69146   6.134   6.066   9.295  0.3804  0.5736 -0.6413
  513MOL0     C69147   6.090   5.952   9.224 -0.7472 -0.2819 -0.4365
  513MOL0     C69148   6.155   5.827   9.238  0.0473 -0.4637 -0.1705
  513MOL0     C69149   6.103   5.700   9.156 -0.6711 -0.1837  0.6030
  513MOL0     O69150   6.182   5.589   9.166  0.4664  0.0513  0.3944
  513MOL0     C69151   6.158   5.476   9.090 -0.2213 -0.4494  1.0239
  513MOL0     C69152   6.213   5.350   9.117  0.9195  0.7158  0.4380
  513MOL0     C69153   6.194   5.232   9.042  1.1574 -0.5695 -0.0808
  513MOL0     C69154   6.120   5.247   8.919 -0.4114  0.7431  0.1514
  513MOL0     O69155   6.101   5.142   8.830  0.0730  0.2334 -0.0747
  513MOL0     C69156   6.084   5.012   8.896 -0.3591  0.2837 -0.2387
  513MOL0     C69157   6.035   4.907   8.790  0.2268  0.5168  0.9990
  513MOL0     C69158   6.141   4.860   8.688 -0.2940  0.6474  0.0693
  513MOL0     C69159   6.119   4.728   8.611  1.0127  0.8354 -0.3822
  513MOL0     C69160   6.102   4.600   8.698  0.2852 -0.2751 -0.9931
  513MOL0     C69161   6.229   4.572   8.780  0.5429  0.0034 -0.4830
  513MOL0     C69162   6.219   4.438   8.836  0.0002 -0.2236 -0.5152
  513MOL0     C69163   6.210   4.316   8.742 -0.6607 -0.7221  0.4869
  513MOL0    Cl69164   6.317   4.350   8.598  0.0688  0.0861  0.2167
  513MOL0     C69165   6.063   5.365   8.883 -0.0495 -0.4250  0.1592
  513MOL0     C69166   6.088   5.477   8.965 -0.3467 -0.3680  0.1018
  513MOL0     O69167   6.005   5.716   9.085 -0.1268 -0.3453 -1.0600
  513MOL0     C69168   6.262   5.821   9.322 -0.4702 -0.1478  0.0906
  513MOL0     C69169   6.314   5.935   9.388  0.4015 -1.5730 -0.7394
  513MOL0     N69170   6.448   6.631   9.193 -0.1441 -0.4036  0.4554
  513MOL0     N69171   6.396   6.733   9.130  0.5324 -0.0006  0.6151
  513MOL0     C69172   7.093   7.333   8.577  0.3114 -0.0921 -0.2902
  513MOL0     C69173   7.148   7.349   8.453 -0.2666 -0.2615 -0.1526
  513MOL0     C69174   7.456   7.435   8.134  0.0188  0.1121  0.0980
  513MOL0     C69175   7.588   7.405   8.099 -0.0208  0.8004  0.3373
  513MOL0     C69176   7.631   7.435   7.966 -1.3788 -0.3012  0.2822
  513MOL0     C69177   7.542   7.453   7.870  0.8069 -1.0222  0.3769
  513MOL0     O69178   7.586   7.498   7.746 -0.6077  0.5921 -0.5097
  513MOL0     C69179   7.569   7.387   7.657 -0.3600 -0.1881 -0.4080
  513MOL0     C69180   7.688   7.402   7.556 -0.1246 -0.4417 -0.9459
  513MOL0     C69181   7.816   7.355   7.626 -0.1775  0.3597  0.5797
  513MOL0     C69182   7.946   7.374   7.529  1.1128  0.3734 -0.4797
  513MOL0     C69183   7.902   7.331   7.397 -1.3466 -0.1195  0.0774
  513MOL0     C69184   7.864   7.291   7.290 -0.2574  0.1579 -0.5460
  513MOL0     C69185   7.407   7.473   7.903  0.6605  0.1478 -0.1110
  513MOL0     C69186   7.364   7.479   8.038 -0.2882 -0.0295 -0.1221
  513MOL0     C69187   7.229   7.531   8.073  0.0507  0.2092 -0.9052
  513MOL0     H69188   7.460   7.221   8.517  0.1317 -0.0030 -0.8178
  513MOL0     H69189   7.348   7.174   8.729 -1.1193 -2.9516 -1.1823
  513MOL0     H69190   6.958   7.227   8.914  1.5297  0.7657  0.1456
  513MOL0     H69191   6.895   7.251   8.740  4.7502  2.0699 -2.9164
  513MOL0     H69192   6.993   6.993   8.847  1.6871  1.1653 -0.5927
  513MOL0     H69193   6.950   7.020   8.677 -1.4384  0.9574 -0.8832
  513MOL0     H69194   6.769   6.924   8.800  3.1771 -0.4252  0.0048
  513MOL0     H69195   6.713   7.087   8.749 -0.9122  0.8066  1.5853
  513MOL0     H69196   6.826   7.031   9.020 -0.0850 -3.2272 -1.4517
  513MOL0     H69197   6.747   7.185   8.953 -1.2315  0.4049 -1.6279
  513MOL0     H69198   6.534   7.059   8.935 -0.5975 -1.6306 -0.2213
  513MOL0     H69199   6.621   6.915   8.994 -0.3638  0.9187 -0.9238
  513MOL0     H69200   6.672   7.004   9.212  1.2928  0.8749 -0.5245
  513MOL0     H69201   6.639   7.164   9.174  3.4296 -0.9076 -0.4977
  513MOL0     H69202   6.416   7.187   9.186 -0.8367 -0.8204 -2.3213
  513MOL0     H69203   6.449   7.081   9.325 -0.6290 -1.4994 -0.1127
  513MOL0     H69204   6.254   7.000   9.204 -0.7993 -2.0033  0.0094
  513MOL0     H69205   6.360   6.982   9.055  1.3018  0.9989 -0.5831
  513MOL0     H69206   6.447   6.886   9.405  0.5475  0.4598 -0.8440
  513MOL0     H69207   6.639   6.574   9.451  0.3263  2.2434  2.4316
  513MOL0     H69208   6.493   6.622   9.530 -2.0435 -0.3091  0.1607
  513MOL0     H69209   6.463   6.404   9.308  0.6546 -0.2340  0.9573
  513MOL0     H69210   6.522   6.368   9.470 -1.7610  0.4795  2.4906
  513MOL0     H69211   6.266   6.514   9.440  0.1480  1.0563  3.4090
  513MOL0     H69212   6.324   6.416   9.569 -0.0036 -2.3708 -0.0721
  513MOL0     H69213   6.253   6.317   9.288  0.4436 -0.6423  0.2171
  513MOL0     H69214   6.142   6.313   9.442  0.0865  2.4332  0.8089
  513MOL0     H69215   6.062   6.146   9.279 -2.2137 -1.5107 -0.1154
  513MOL0     H69216   5.995   5.955   9.170 -0.8203 -2.1747 -0.4799
  513MOL0     H69217   6.263   5.335   9.213  1.1670  1.6697  0.4689
  513MOL0     H69218   6.250   5.143   9.070  2.9815  0.1921 -1.1452
  513MOL0     H69219   6.173   4.976   8.949 -1.8481 -2.1240  0.8466
  513MOL0     H69220   5.997   5.009   8.962 -1.3140  1.1879 -1.4329
  513MOL0     H69221   6.017   4.812   8.842 -0.0318  0.2265  0.3881
  513MOL0     H69222   5.949   4.941   8.732  0.8690 -1.6037 -1.3779
  513MOL0     H69223   6.151   4.936   8.610 -0.3633 -0.2125 -0.7952
  513MOL0     H69224   6.238   4.854   8.738 -1.2525 -1.4701  1.8173
  513MOL0     H69225   6.213   4.709   8.557  2.0796  1.0440  1.3221
  513MOL0     H69226   6.042   4.745   8.535  0.5805 -0.8841 -0.3580
  513MOL0     H69227   6.080   4.514   8.634  0.8860 -0.2901 -1.1927
  513MOL0     H69228   6.008   4.601   8.754 -0.2811 -0.2119 -1.9237
  513MOL0     H69229   6.316   4.583   8.715  0.8484 -1.3920 -0.3458
  513MOL0     H69230   6.229   4.658   8.847  2.9202  0.5811 -1.1299
  513MOL0     H69231   6.141   4.430   8.913  1.8916  2.1704  1.8550
  513MOL0     H69232   6.309   4.411   8.891  0.4900  2.7896  0.3308
  513MOL0     H69233   6.245   4.221   8.783  3.2066  0.6088  0.6533
  513MOL0     H69234   6.107   4.297   8.708 -0.3538 -0.5540 -0.5870
  513MOL0     H69235   5.994   5.385   8.802 -1.5841  0.8005  1.6842
  513MOL0     H69236   6.039   5.565   8.925  2.0859  2.0857  2.0821
  513MOL0     H69237   6.328   5.736   9.328 -2.0458 -1.3196  2.9272
  513MOL0     H69238   6.408   5.926   9.440 -1.0361 -0.6250  2.2223
  513MOL0     H69239   6.998   7.385   8.590  1.8517  2.6499  1.0088
  513MOL0     H69240   7.085   7.388   8.374 -1.6807 -3.2165 -0.5985
  513MOL0     H69241   7.664   7.391   8.175 -1.7312  1.2059  2.2257
  513MOL0     H69242   7.737   7.420   7.946 -1.5218 -1.6158  0.4312
  513MOL0     H69243   7.472   7.398   7.607 -0.5622 -0.7550 -0.1403
  513MOL0     H69244   7.566   7.284   7.694 -0.7579 -1.2048 -3.0532
  513MOL0     H69245   7.697   7.500   7.508 -1.7239  2.1054  3.4012
  513MOL0     H69246   7.659   7.323   7.486  0.3100 -1.0197 -0.4823
  513MOL0     H69247   7.813   7.250   7.659  4.1824  0.8980  3.5836
  513MOL0     H69248   7.820   7.414   7.718 -0.7939 -3.4709  3.3112
  513MOL0     H69249   7.966   7.482   7.523 -1.4017  0.8991 -0.2932
  513MOL0     H69250   8.038   7.319   7.553  1.1563  0.0399 -1.3781
  513MOL0     H69251   7.850   7.237   7.199  1.1705 -1.7857  0.3239
  513MOL0     H69252   7.326   7.508   7.839  0.3044 -1.3671 -0.5148
  513MOL0     H69253   7.186   7.598   7.999 -3.9463 -1.1702 -0.0919
  513MOL0     H69254   7.170   7.442   8.100  2.4255 -0.3353  3.5437
  513MOL0     H69255   7.225   7.577   8.172  2.2759 -0.5261 -0.4159
  514MOL0     O69256   5.771   4.668   1.257  0.3810 -0.6866  0.1389
  514MOL0     C69257   5.758   4.559   1.201 -0.4260 -0.0292 -0.0284
  514MOL0     O69258   5.846   4.505   1.113  0.8833  0.0822 -0.2032
  514MOL0     C69259   5.977   4.550   1.103  0.2450  0.3346  0.1078
  514MOL0     C69260   6.047   4.648   1.174 -0.3400 -0.1493 -0.0878
  514MOL0     C69261   6.186   4.649   1.165 -0.8475 -0.5630  1.5338
  514MOL0     C69262   6.253   4.561   1.070 -1.1993 -0.2143 -0.3809
  514MOL0     O69263   6.395   4.560   1.060  0.2791 -0.1063 -0.6525
  514MOL0     C69264   6.468   4.566   1.190  0.5771 -0.7134 -0.3443
  514MOL0     C69265   6.464   4.434   1.269 -0.5586 -1.1694  0.8414
  514MOL0     C69266   6.577   4.447   1.388  0.1784  0.0555  0.5341
  514MOL0     C69267   6.515   4.510   1.513  0.1962 -0.3203 -0.4267
  514MOL0     C69268   6.612   4.504   1.627  0.1396 -0.2011  0.0147
  514MOL0     C69269   6.717   4.603   1.632 -0.7713 -0.9184 -0.1046
  514MOL0     C69270   6.815   4.589   1.745 -0.3475 -0.3702 -0.8432
  514MOL0     C69271   6.951   4.659   1.687  0.4275 -0.2263  0.5263
  514MOL0     N69272   7.049   4.670   1.797  0.1837  0.5215  0.3690
  514MOL0     C69273   7.080   4.775   1.872 -0.5527 -0.3898 -0.6784
  514MOL0     C69274   7.168   4.726   1.973  0.2942  0.1079  0.1973
  514MOL0     C69275   7.233   4.805   2.083 -0.4531 -0.4376 -0.3396
  514MOL0     C69276   7.223   4.746   2.224 -0.3620 -0.7340  0.8584
  514MOL0     C69277   7.075   4.725   2.259 -0.0284  0.7102  0.0770
  514MOL0     C69278   6.987   4.850   2.269 -0.2121 -0.1383 -0.8160
  514MOL0     O69279   6.866   4.848   2.349 -0.3381 -0.9971  0.4775
  514MOL0     C69280   6.750   4.825   2.278  0.0795 -0.4551 -0.5197
  514MOL0     C69281   6.633   4.839   2.346 -0.5441 -0.6296  0.8002
  514MOL0     C69282   6.507   4.811   2.287 -0.0592 -0.4887  0.2989
  514MOL0     C69283   6.505   4.755   2.159 -0.7808  0.2571 -0.0822
  514MOL0     C69284   6.380   4.736   2.094  0.4270  0.6000  0.4164
  514MOL0     O69285   6.267   4.728   2.166  1.2625 -0.7361 -0.2684
  514MOL0     C69286   6.148   4.715   2.096 -0.1503  0.1217 -0.6425
  514MOL0     C69287   6.079   4.820   2.046 -0.6094  0.3169  0.1323
  514MOL0     C69288   5.963   4.816   1.966 -0.3151 -0.4459 -0.0894
  514MOL0     C69289   5.913   4.685   1.956  0.6880  0.1979  0.0223
  514MOL0     O69290   5.797   4.667   1.878 -0.7229 -0.2328 -1.3929
  514MOL0     C69291   5.686   4.750   1.918  0.5833 -0.8834 -0.8354
  514MOL0     C69292   5.560   4.691   1.855 -0.3506 -0.2818  0.3785
  514MOL0     C69293   5.543   4.546   1.910  0.3340  1.0792 -0.3956
  514MOL0     C69294   5.424   4.476   1.843  0.1423 -0.5770 -0.4778
  514MOL0     C69295   5.412   4.323   1.888 -0.3944 -0.5262  0.2637
  514MOL0     C69296   5.295   4.277   1.799  1.3253  0.4157  0.0461
  514MOL0     C69297   5.233   4.146   1.851  0.0450 -0.1920  0.9408
  514MOL0     C69298   5.083   4.138   1.837  0.3945  0.1797 -0.6022
  514MOL0    Cl69299   5.008   4.247   1.967  0.4879 -0.0141 -0.2052
  514MOL0     C69300   5.968   4.573   2.017 -0.6012  0.3905 -0.4865
  514MOL0     C69301   6.090   4.586   2.085 -0.9189  0.4001 -0.3349
  514MOL0     O69302   6.379   4.745   1.974  0.8875  0.7404 -0.3148
  514MOL0     C69303   6.624   4.719   2.091  0.9192 -0.6948  0.3919
  514MOL0     C69304   6.747   4.753   2.155  0.3443 -0.0696  0.3385
  514MOL0     N69305   7.182   4.595   1.956 -0.1310  0.6777  0.7810
  514MOL0     N69306   7.111   4.555   1.847 -0.0295 -0.6500 -0.3333
  514MOL0     C69307   6.178   4.472   0.991  0.5861  0.1376 -0.0712
  514MOL0     C69308   6.042   4.482   1.000  0.3453  0.0699  0.2545
  514MOL0     C69309   5.634   4.483   1.221 -0.0936  0.5367  0.5135
  514MOL0     C69310   5.574   4.424   1.114 -0.1620  0.8656  0.9440
  514MOL0     C69311   5.445   4.352   1.136 -0.4011  0.0372  0.4834
  514MOL0     C69312   5.373   4.359   1.256  0.2300 -0.5421 -0.7216
  514MOL0     O69313   5.233   4.324   1.276 -0.4001  0.4212  0.7120
  514MOL0     C69314   5.179   4.215   1.192 -0.3989 -0.6354 -0.2288
  514MOL0     C69315   5.092   4.132   1.286  1.6741  0.3996 -0.3455
  514MOL0     C69316   5.018   4.018   1.236  0.4242  0.2289 -0.1823
  514MOL0     C69317   4.946   4.047   1.104  0.7379  0.0389  0.3116
  514MOL0     C69318   4.853   3.928   1.085 -0.4441 -0.3216  1.0421
  514MOL0     C69319   4.779   3.832   1.068  0.5346 -0.2283  0.4842
  514MOL0     C69320   5.436   4.428   1.365  1.1499 -0.7443 -0.5757
  514MOL0     C69321   5.568   4.485   1.347  0.3711 -0.1147 -0.0755
  514MOL0     C69322   5.628   4.538   1.473  0.5285 -0.2853 -0.7925
  514MOL0     H69323   6.012   4.710   1.256 -1.3601  1.7493 -1.8866
  514MOL0     H69324   6.244   4.728   1.212  1.2779 -0.9081 -0.3552
  514MOL0     H69325   6.569   4.588   1.154 -0.1373  4.7079  0.1690
  514MOL0     H69326   6.449   4.657   1.249 -0.3445 -2.8093  2.8617
  514MOL0     H69327   6.484   4.350   1.202  3.1171 -0.3468  0.6830
  514MOL0     H69328   6.369   4.410   1.318 -2.8078 -0.4534 -2.7633
  514MOL0     H69329   6.667   4.499   1.357 -2.2167  2.4750 -3.0949
  514MOL0     H69330   6.615   4.348   1.415 -0.9395 -0.1314  1.5087
  514MOL0     H69331   6.496   4.610   1.472 -3.6573 -1.4076 -1.7684
  514MOL0     H69332   6.418   4.467   1.539 -0.9715  2.3589  0.0082
  514MOL0     H69333   6.563   4.513   1.724  1.6196 -3.3944  1.2077
  514MOL0     H69334   6.655   4.404   1.636 -0.5956 -0.4136  1.3820
  514MOL0     H69335   6.770   4.602   1.536 -0.9254 -1.1577 -0.1900
  514MOL0     H69336   6.674   4.704   1.635 -1.1095 -0.9347 -2.4592
  514MOL0     H69337   6.829   4.486   1.778 -1.3744 -0.1592  0.3529
  514MOL0     H69338   6.781   4.639   1.836  2.6372  1.9497 -0.8465
  514MOL0     H69339   6.979   4.590   1.608 -0.8676 -1.4325  1.0765
  514MOL0     H69340   6.915   4.759   1.660 -2.8279 -1.2657  0.5506
  514MOL0     H69341   7.033   4.872   1.864 -1.7519 -0.8946  0.0132
  514MOL0     H69342   7.341   4.812   2.065 -0.0912  1.3598  2.0319
  514MOL0     H69343   7.201   4.909   2.090 -1.4531 -0.8313  2.0951
  514MOL0     H69344   7.270   4.647   2.224 -0.5074 -0.8323 -0.9048
  514MOL0     H69345   7.275   4.814   2.293 -1.2233  0.6252  0.2224
  514MOL0     H69346   7.086   4.681   2.358  1.7963 -2.8544 -1.5310
  514MOL0     H69347   7.030   4.647   2.196  0.2446 -0.1227  0.8900
  514MOL0     H69348   6.959   4.893   2.172  0.1599  1.2850 -0.3159
  514MOL0     H69349   7.053   4.920   2.321  2.5579 -2.7003 -0.5813
  514MOL0     H69350   6.641   4.879   2.446 -1.8034 -2.8196  1.8575
  514MOL0     H69351   6.418   4.836   2.344  1.2702 -0.5223  2.4963
  514MOL0     H69352   6.130   4.914   2.068 -0.3275 -0.4330  3.1863
  514MOL0     H69353   5.916   4.903   1.922 -1.5344 -1.7198 -1.4187
  514MOL0     H69354   5.670   4.740   2.026 -2.0381  0.5485 -0.9970
  514MOL0     H69355   5.705   4.857   1.903  0.8660 -0.3247  2.5486
  514MOL0     H69356   5.474   4.751   1.886 -1.8008 -1.9471 -0.2033
  514MOL0     H69357   5.573   4.706   1.747  1.7582  0.9532  0.7426
  514MOL0     H69358   5.634   4.489   1.886  1.5498  3.6524 -2.3334
  514MOL0     H69359   5.535   4.532   2.018  4.8959 -2.0954 -0.1449
  514MOL0     H69360   5.443   4.483   1.735 -0.6611 -3.7855 -0.9188
  514MOL0     H69361   5.332   4.523   1.878  0.9444  1.2362 -0.6745
  514MOL0     H69362   5.388   4.307   1.994  1.9722 -1.6858  0.7097
  514MOL0     H69363   5.505   4.272   1.861 -2.5364 -2.2885 -5.1667
  514MOL0     H69364   5.211   4.347   1.789  1.2121  0.4801  1.2611
  514MOL0     H69365   5.325   4.269   1.694 -4.2711  0.5267 -1.9070
  514MOL0     H69366   5.248   4.141   1.959 -1.0648 -0.0795  1.1069
  514MOL0     H69367   5.292   4.065   1.808  0.4327 -0.8697  2.6663
  514MOL0     H69368   5.062   4.175   1.737 -0.9199  0.7839 -0.1341
  514MOL0     H69369   5.043   4.038   1.858  0.2373 -0.1295 -2.2837
  514MOL0     H69370   5.916   4.480   1.994 -1.9270  1.6507 -2.9317
  514MOL0     H69371   6.137   4.499   2.129  0.2959  1.1134 -0.1860
  514MOL0     H69372   6.618   4.678   1.991 -0.2762 -0.7955  0.4953
  514MOL0     H69373   6.842   4.724   2.110  1.1230  1.3573  0.9567
  514MOL0     H69374   6.217   4.392   0.929  1.4134  0.7775 -0.3846
  514MOL0     H69375   5.984   4.422   0.931  1.9141 -1.0164 -0.1747
  514MOL0     H69376   5.616   4.441   1.015  0.0479 -0.2316  0.8398
  514MOL0     H69377   5.401   4.314   1.044  1.1742  2.9418 -1.6177
  514MOL0     H69378   5.265   4.153   1.164  0.7380  1.1424 -0.8116
  514MOL0     H69379   5.121   4.254   1.108  1.6599 -0.1397 -1.4948
  514MOL0     H69380   5.022   4.203   1.331  1.5791  0.1302 -0.0618
  514MOL0     H69381   5.155   4.095   1.368  1.6740 -0.0900 -0.5613
  514MOL0     H69382   4.946   3.995   1.314 -1.1393  0.2347 -1.5625
  514MOL0     H69383   5.091   3.938   1.223  3.0497  2.2438  1.1682
  514MOL0     H69384   4.895   4.143   1.107 -0.3984 -0.5567  0.6584
  514MOL0     H69385   5.031   4.048   1.034  0.0799 -0.0830 -0.5058
  514MOL0     H69386   4.709   3.752   1.082  0.7961 -0.5101  0.1865
  514MOL0     H69387   5.377   4.427   1.456 -0.8623 -2.4626 -1.7841
  514MOL0     H69388   5.594   4.641   1.484 -0.2077 -0.2257 -3.1350
  514MOL0     H69389   5.592   4.476   1.556  1.8889  0.3951  0.3544
  514MOL0     H69390   5.736   4.531   1.484  0.4896  0.3703  0.0760
  515MOL0     O69391   1.671   5.444   9.418  0.8324 -0.9128  0.4901
  515MOL0     C69392   1.694   5.430   9.534 -0.0814 -0.0124  0.2383
  515MOL0     O69393   1.814   5.465   9.590  0.2432 -0.1864  0.0424
  515MOL0     C69394   1.924   5.458   9.510 -0.6699  0.8545  0.5240
  515MOL0     C69395   1.981   5.336   9.487  0.3593  0.8739  0.0546
  515MOL0     C69396   2.104   5.326   9.420  0.0138  0.3976 -0.0283
  515MOL0     C69397   2.186   5.444   9.396  1.2782  0.1098  0.3702
  515MOL0     O69398   2.315   5.453   9.352 -0.3024  0.1210  0.3141
  515MOL0     C69399   2.394   5.331   9.329  0.6597 -0.1212 -0.2625
  515MOL0     C69400   2.542   5.367   9.336 -0.3021 -0.2093 -0.3185
  515MOL0     C69401   2.584   5.441   9.468  0.0411  0.3554 -0.0732
  515MOL0     C69402   2.692   5.541   9.448  0.0316 -0.6347 -0.6479
  515MOL0     C69403   2.724   5.612   9.583  0.5413  0.2167 -0.1207
  515MOL0     C69404   2.837   5.714   9.549 -0.0468  0.9454 -0.1290
  515MOL0     C69405   2.870   5.792   9.671  0.5119  0.4976 -0.9806
  515MOL0     C69406   2.965   5.910   9.645 -0.1317 -0.3970 -0.1383
  515MOL0     N69407   3.013   5.967   9.773  0.2617 -0.3741  1.2605
  515MOL0     C69408   3.131   6.032   9.791  0.3991  0.0736 -0.1392
  515MOL0     C69409   3.119   6.106   9.898 -0.0981  0.5308  0.6182
  515MOL0     C69410   3.221   6.202   9.947 -0.4288  0.9218  0.5010
  515MOL0     C69411   3.351   6.224   9.868  0.3264 -0.6386  0.0649
  515MOL0     C69412   3.314   6.311   9.740  0.1658  0.3292  0.0494
  515MOL0     C69413   3.438   6.375   9.667  0.1854  0.4767 -0.2697
  515MOL0     O69414   3.567   6.305   9.679  0.4848 -0.1136 -0.4730
  515MOL0     C69415   3.659   6.346   9.593 -0.4472 -0.4079 -0.3539
  515MOL0     C69416   3.665   6.461   9.526 -0.5739  0.4806  0.9491
  515MOL0     C69417   3.762   6.466   9.421 -0.2079  0.7212 -0.3456
  515MOL0     C69418   3.845   6.352   9.390  0.7906  0.4699  0.4639
  515MOL0     C69419   3.916   6.363   9.260  0.0161 -0.5965  0.5188
  515MOL0     O69420   3.900   6.485   9.190 -0.3450  0.6186 -0.3243
  515MOL0     C69421   3.940   6.483   9.056  1.1497 -0.6518 -1.2895
  515MOL0     C69422   4.017   6.594   9.019  0.0856  0.2209  0.3765
  515MOL0     C69423   4.059   6.605   8.887 -0.2009 -0.2699 -0.5120
  515MOL0     C69424   4.034   6.509   8.793 -0.0004  1.2764  0.8936
  515MOL0     O69425   4.070   6.532   8.663 -0.0272  0.1732  0.5383
  515MOL0     C69426   4.047   6.431   8.562 -0.3571  0.8965  0.5841
  515MOL0     C69427   4.056   6.488   8.410  0.3110  0.1054 -1.3260
  515MOL0     C69428   3.960   6.606   8.400  0.4606 -0.5313 -0.3067
  515MOL0     C69429   3.988   6.672   8.259  0.2913 -0.5656 -0.1832
  515MOL0     C69430   3.877   6.783   8.221  0.1138 -0.3121 -0.6777
  515MOL0     C69431   3.900   6.829   8.082 -0.7479  0.4826  0.2131
  515MOL0     C69432   3.800   6.934   8.040 -0.8069  0.2730 -0.4630
  515MOL0     C69433   3.861   6.995   7.911 -0.6621  0.4202  0.6163
  515MOL0    Cl69434   3.763   7.120   7.830  0.0183 -0.0659  0.4997
  515MOL0     C69435   3.964   6.393   8.833 -1.2202 -0.1979  0.5140
  515MOL0     C69436   3.917   6.384   8.965  0.1041 -1.2442  1.2580
  515MOL0     O69437   3.986   6.280   9.227 -0.1387 -0.1200  0.2171
  515MOL0     C69438   3.841   6.238   9.464  0.1090  0.5717 -0.2257
  515MOL0     C69439   3.756   6.246   9.576 -0.7587  0.9930  0.8025
  515MOL0     N69440   2.986   6.104   9.944 -0.2876  0.0533  0.1457
  515MOL0     N69441   2.929   6.020   9.869 -0.2691 -0.1975  0.8557
  515MOL0     C69442   2.127   5.568   9.420  0.7937  0.3959  0.6568
  515MOL0     C69443   1.998   5.575   9.472  0.3771  0.3163  0.0165
  515MOL0     C69444   1.587   5.389   9.621  0.1912 -0.0423  0.1219
  515MOL0     C69445   1.633   5.328   9.740  0.1136  0.0422  0.4216
  515MOL0     C69446   1.551   5.266   9.821  0.3460  0.2525 -0.3650
  515MOL0     C69447   1.405   5.277   9.804 -0.3862 -0.1207  0.4836
  515MOL0     O69448   1.312   5.232   9.893  0.0338  0.6778  0.3871
  515MOL0     C69449   1.226   5.312   9.969  0.5363 -0.0321  0.0779
  515MOL0     C69450   1.094   5.239  10.008  0.1265  0.0530 -0.3256
  515MOL0     C69451   1.052   5.297  10.152 -0.1798 -0.5224  0.6255
  515MOL0     C69452   0.919   5.233  10.190  0.0290 -0.1925  0.3450
  515MOL0     C69453   0.865   5.295  10.309 -0.1661  1.2006  0.7128
  515MOL0     C69454   0.830   5.347  10.411 -0.6925 -0.1146 -0.8077
  515MOL0     C69455   1.358   5.341   9.695  0.6386  0.0444  0.3152
  515MOL0     C69456   1.443   5.394   9.595 -0.5343  0.2439  1.0597
  515MOL0     C69457   1.385   5.464   9.476 -0.3039 -1.1840 -0.1093
  515MOL0     H69458   1.914   5.251   9.487  0.7033  0.5305 -2.6660
  515MOL0     H69459   2.138   5.227   9.391 -2.2745 -0.7613  0.9416
  515MOL0     H69460   2.372   5.245   9.394 -0.3847  0.8499  0.6933
  515MOL0     H69461   2.361   5.303   9.228 -0.7261 -1.0722  0.4196
  515MOL0     H69462   2.576   5.434   9.256 -0.2110  2.4834  1.8308
  515MOL0     H69463   2.592   5.270   9.330 -2.1318 -1.3553  1.6368
  515MOL0     H69464   2.618   5.357   9.529  1.9781  1.8086  1.0065
  515MOL0     H69465   2.493   5.474   9.520 -2.1657 -3.6456 -1.0319
  515MOL0     H69466   2.775   5.486   9.403 -1.5920 -2.0617 -2.0504
  515MOL0     H69467   2.660   5.617   9.375  1.1833 -0.6063 -1.1426
  515MOL0     H69468   2.638   5.675   9.609 -2.5804 -2.7572 -2.3351
  515MOL0     H69469   2.751   5.532   9.653  0.8010 -0.5650 -1.1000
  515MOL0     H69470   2.923   5.654   9.516 -1.2840 -0.4226 -1.0167
  515MOL0     H69471   2.798   5.778   9.470 -1.7390  0.7557  0.5183
  515MOL0     H69472   2.922   5.721   9.736  0.4101  0.0332 -1.3955
  515MOL0     H69473   2.790   5.829   9.735  2.0522  2.1127  0.1164
  515MOL0     H69474   3.051   5.885   9.582  2.4954  1.9341  2.2459
  515MOL0     H69475   2.895   5.981   9.600  1.7044  1.6796  0.1188
  515MOL0     H69476   3.214   6.032   9.721  0.3498 -0.0800 -0.1985
  515MOL0     H69477   3.167   6.297   9.950 -2.0487  0.0396  2.5801
  515MOL0     H69478   3.256   6.175  10.048 -0.2830  0.9792  0.4654
  515MOL0     H69479   3.418   6.283   9.929  0.3166 -0.1631 -0.3794
  515MOL0     H69480   3.409   6.134   9.846 -0.3414 -1.4071  1.2970
  515MOL0     H69481   3.249   6.394   9.768  0.2816 -0.0067  1.3787
  515MOL0     H69482   3.253   6.263   9.662 -3.6123  2.2400  1.5653
  515MOL0     H69483   3.445   6.467   9.726 -3.2577  2.0441 -2.0631
  515MOL0     H69484   3.402   6.404   9.568 -0.8936 -1.7935 -0.5903
  515MOL0     H69485   3.606   6.550   9.544  2.3789  2.7296  0.1983
  515MOL0     H69486   3.762   6.554   9.358 -0.0263 -0.3611 -1.9190
  515MOL0     H69487   4.026   6.674   9.091 -2.4199  0.9725 -0.0857
  515MOL0     H69488   4.107   6.700   8.866  2.2405 -0.2291  4.1065
  515MOL0     H69489   4.108   6.341   8.565 -2.8595 -0.8845  0.6145
  515MOL0     H69490   3.942   6.403   8.574 -0.4361 -0.0249 -1.7774
  515MOL0     H69491   4.161   6.515   8.398  0.6458 -0.0030  0.9237
  515MOL0     H69492   4.030   6.416   8.333 -1.2158  2.8019 -3.5197
  515MOL0     H69493   3.860   6.563   8.411 -0.1920  1.3067  1.5046
  515MOL0     H69494   3.976   6.677   8.481  1.8642 -0.0535 -0.9694
  515MOL0     H69495   3.990   6.599   8.178  4.1680  0.1280 -0.8892
  515MOL0     H69496   4.086   6.721   8.257 -0.1479  0.4381 -3.6233
  515MOL0     H69497   3.871   6.870   8.287 -0.0850  0.2509 -1.4269
  515MOL0     H69498   3.779   6.733   8.220 -0.5057  0.8342 -3.1737
  515MOL0     H69499   4.000   6.874   8.083 -1.3878  2.0648 -1.2832
  515MOL0     H69500   3.893   6.737   8.023 -2.2955  3.1490 -4.2525
  515MOL0     H69501   3.789   7.014   8.114 -0.2412  0.2902 -0.3987
  515MOL0     H69502   3.703   6.887   8.018 -0.9901 -0.4822  1.6776
  515MOL0     H69503   3.958   7.041   7.935 -0.0964 -0.2962 -0.2466
  515MOL0     H69504   3.869   6.913   7.840 -1.0857  0.3723  0.6210
  515MOL0     H69505   3.949   6.309   8.766 -0.4405  0.0108  0.0582
  515MOL0     H69506   3.869   6.291   8.995 -0.3209 -0.8113  1.9461
  515MOL0     H69507   3.891   6.143   9.450 -0.2821  0.4684 -0.9465
  515MOL0     H69508   3.754   6.163   9.646 -1.9506 -0.9146 -1.3645
  515MOL0     H69509   2.187   5.657   9.401  2.3417 -0.4068  1.5615
  515MOL0     H69510   1.946   5.663   9.509 -1.5794 -0.8212  0.1191
  515MOL0     H69511   1.737   5.325   9.773 -1.1195  1.1629  5.1109
  515MOL0     H69512   1.574   5.207   9.909  3.0889  1.6645 -0.0463
  515MOL0     H69513   1.183   5.399   9.920  0.5171 -0.0642  0.0377
  515MOL0     H69514   1.278   5.354  10.055  2.0757  0.8023 -1.2111
  515MOL0     H69515   1.096   5.133  10.035  0.2964  0.7526  2.8541
  515MOL0     H69516   1.005   5.272   9.954 -0.9557  3.6082  3.1963
  515MOL0     H69517   1.036   5.405  10.143  0.2319 -0.6222 -2.8436
  515MOL0     H69518   1.132   5.282  10.225  0.4247 -0.9109 -0.0878
  515MOL0     H69519   0.840   5.246  10.116 -0.0352  2.5604  0.8008
  515MOL0     H69520   0.941   5.127  10.204  2.6716  0.2015 -0.3676
  515MOL0     H69521   0.790   5.383  10.504  1.3529  1.5860 -0.4905
  515MOL0     H69522   1.255   5.350   9.663  1.4858  1.0284 -2.4307
  515MOL0     H69523   1.452   5.545   9.448 -0.1964 -1.2934 -0.1716
  515MOL0     H69524   1.366   5.390   9.398 -0.8081 -1.0899 -0.0770
  515MOL0     H69525   1.289   5.507   9.507  0.6945 -0.9646  3.0691
  516MOL0     O69526   5.919   3.402   4.974 -0.1621  0.4104 -0.1002
  516MOL0     C69527   6.008   3.327   4.925  0.9216 -0.4617 -0.7624
  516MOL0     O69528   6.082   3.241   4.988  0.1506  0.8568  0.1478
  516MOL0     C69529   6.103   3.239   5.127 -0.5981 -0.5866  0.8655
  516MOL0     C69530   6.131   3.353   5.203  0.0783  0.4122 -0.6730
  516MOL0     C69531   6.183   3.337   5.341 -0.3090  0.3785 -0.3879
  516MOL0     C69532   6.221   3.215   5.394  0.4307  0.1452  0.6993
  516MOL0     O69533   6.287   3.201   5.512 -1.3208 -0.1128  0.1701
  516MOL0     C69534   6.189   3.245   5.613 -0.6455 -0.8545 -0.0614
  516MOL0     C69535   6.250   3.193   5.736 -1.1003  0.4023 -0.6855
  516MOL0     C69536   6.174   3.235   5.863  0.1849 -0.0677 -0.2275
  516MOL0     C69537   6.228   3.355   5.941 -0.7868 -0.0770  0.2561
  516MOL0     C69538   6.150   3.402   6.067 -0.7561  0.6935 -0.0110
  516MOL0     C69539   6.118   3.552   6.070 -0.6641 -0.0017 -0.6630
  516MOL0     C69540   5.999   3.591   6.169 -0.3073  0.6219 -1.0256
  516MOL0     C69541   5.984   3.750   6.185 -0.4781  0.4102 -1.0142
  516MOL0     N69542   5.944   3.840   6.075  1.1946  0.1680 -0.0047
  516MOL0     C69543   5.971   3.827   5.942  0.1329  0.6711  1.3591
  516MOL0     C69544   5.880   3.906   5.878 -0.5586 -0.1005  0.6280
  516MOL0     C69545   5.866   3.935   5.731 -0.4304 -0.2321 -0.4541
  516MOL0     C69546   5.937   4.062   5.683 -0.6080 -0.3395 -0.7586
  516MOL0     C69547   5.998   4.051   5.554  0.8271 -0.0443 -0.3705
  516MOL0     C69548   6.072   4.177   5.518  0.2155 -0.4150 -0.1191
  516MOL0     O69549   5.984   4.290   5.522  0.0667  0.2129 -0.6637
  516MOL0     C69550   6.009   4.406   5.454  0.6870 -0.2343 -0.1265
  516MOL0     C69551   5.913   4.507   5.460 -0.3808  0.7966 -0.3346
  516MOL0     C69552   5.924   4.622   5.388 -0.1444  0.0098  0.7193
  516MOL0     C69553   6.034   4.652   5.308  0.5435  0.5972  0.4720
  516MOL0     C69554   6.047   4.778   5.237 -1.1388 -0.2583  1.0969
  516MOL0     O69555   6.121   4.786   5.115 -0.6106 -0.4501 -0.9283
  516MOL0     C69556   6.090   4.891   5.034 -0.2373  0.3350 -0.0287
  516MOL0     C69557   6.164   5.003   5.033 -0.4336 -0.5731  0.6791
  516MOL0     C69558   6.131   5.107   4.948 -1.0522 -0.4214  0.1029
  516MOL0     C69559   6.041   5.089   4.843  0.0195  0.5434  0.0565
  516MOL0     O69560   6.023   5.183   4.750  0.2539 -0.4770  0.2818
  516MOL0     C69561   5.967   5.299   4.813 -0.6681  0.0767  0.4230
  516MOL0     C69562   5.965   5.416   4.714  0.2381 -0.9717 -0.0166
  516MOL0     C69563   5.917   5.560   4.753  0.0970  0.0658  0.0095
  516MOL0     C69564   5.788   5.562   4.849  0.1095  0.7641  0.8220
  516MOL0     C69565   5.733   5.706   4.872 -0.1781 -0.4474  0.3295
  516MOL0     C69566   5.679   5.780   4.753  0.3167  0.1213  0.0245
  516MOL0     C69567   5.582   5.900   4.801 -0.2404 -0.6427 -0.1397
  516MOL0     C69568   5.538   5.979   4.679  1.2335 -0.1916  0.7622
  516MOL0    Cl69569   5.685   6.081   4.629  0.1836 -0.2838 -0.0666
  516MOL0     C69570   5.961   4.974   4.841 -0.9870  0.2378 -0.8128
  516MOL0     C69571   5.988   4.880   4.944  0.0716  0.8889 -0.2882
  516MOL0     O69572   5.984   4.867   5.289  0.0295  0.2601 -0.2602
  516MOL0     C69573   6.137   4.557   5.303  0.0405 -0.0904 -1.0399
  516MOL0     C69574   6.133   4.446   5.392 -0.1963  0.4981  0.0010
  516MOL0     N69575   5.822   3.982   5.973  0.3191  0.0096  0.0199
  516MOL0     N69576   5.860   3.950   6.092  0.5142 -0.2809  0.2556
  516MOL0     C69577   6.191   3.104   5.312  0.2604 -0.1700  0.9993
  516MOL0     C69578   6.141   3.116   5.180 -0.7125  0.4850 -0.2352
  516MOL0     C69579   6.023   3.343   4.783  0.2508  0.0529  0.5987
  516MOL0     C69580   5.907   3.349   4.700  0.0944 -0.2174  0.2264
  516MOL0     C69581   5.926   3.368   4.561 -0.3735  0.4371 -0.3107
  516MOL0     C69582   6.054   3.372   4.502  0.4787 -0.4564  0.3624
  516MOL0     O69583   6.068   3.381   4.369 -0.1472 -0.3358 -0.1319
  516MOL0     C69584   6.105   3.504   4.298  0.0212  0.0522  0.2968
  516MOL0     C69585   5.990   3.605   4.328 -0.4578  1.2034 -0.6662
  516MOL0     C69586   5.988   3.708   4.221 -0.3576  0.1485  0.3356
  516MOL0     C69587   6.076   3.828   4.250  0.2668  0.8627  0.2527
  516MOL0     C69588   6.054   3.937   4.158  0.2771  0.5285 -0.0384
  516MOL0     C69589   6.046   4.036   4.093  0.7024  0.3119 -0.3504
  516MOL0     C69590   6.170   3.361   4.580 -0.2797  0.0245 -0.1504
  516MOL0     C69591   6.156   3.348   4.717 -0.7388  0.6800  0.1531
  516MOL0     C69592   6.287   3.352   4.786  0.1100 -0.7875  0.1072
  516MOL0     H69593   6.101   3.450   5.165 -1.4361 -0.5310 -2.0161
  516MOL0     H69594   6.199   3.428   5.399  0.0790 -0.8004  1.4325
  516MOL0     H69595   6.186   3.354   5.617  1.6060 -0.7902  2.7280
  516MOL0     H69596   6.083   3.216   5.603 -1.0943  0.4220  0.7259
  516MOL0     H69597   6.353   3.231   5.740  0.8525 -4.2658  2.1865
  516MOL0     H69598   6.262   3.084   5.727  0.7231  0.5723 -0.7262
  516MOL0     H69599   6.183   3.143   5.921 -0.1502  0.4959  0.7377
  516MOL0     H69600   6.068   3.250   5.840  0.1591  0.6127  0.3178
  516MOL0     H69601   6.330   3.339   5.978 -0.0719 -1.0370 -1.9056
  516MOL0     H69602   6.233   3.433   5.865 -2.9664  0.7663  0.8998
  516MOL0     H69603   6.053   3.352   6.054 -0.7494  0.0910  1.9288
  516MOL0     H69604   6.198   3.364   6.158 -2.6499 -1.8978  0.0377
  516MOL0     H69605   6.198   3.624   6.094 -0.4642  0.8235 -3.4367
  516MOL0     H69606   6.086   3.579   5.969  1.7276  0.8319 -1.2734
  516MOL0     H69607   6.003   3.548   6.270  1.4577 -0.6969 -1.5919
  516MOL0     H69608   5.897   3.560   6.142 -0.5810 -0.5276  1.0638
  516MOL0     H69609   5.916   3.774   6.268  1.9935  1.1456  0.9338
  516MOL0     H69610   6.078   3.788   6.228 -2.6291  2.0238  2.7899
  516MOL0     H69611   6.045   3.765   5.894 -0.3502 -0.1406  1.6362
  516MOL0     H69612   5.898   3.846   5.675 -5.1287 -2.2451 -0.3691
  516MOL0     H69613   5.758   3.942   5.717 -0.4325  0.0725 -0.2879
  516MOL0     H69614   5.862   4.141   5.674 -0.4294 -0.2457 -1.4766
  516MOL0     H69615   6.015   4.090   5.756  0.5839 -0.8854 -1.7850
  516MOL0     H69616   5.911   4.040   5.489  2.0415  0.8340 -2.2372
  516MOL0     H69617   6.065   3.965   5.545  1.6220  0.1422  2.7892
  516MOL0     H69618   6.109   4.168   5.416  0.6326  0.5631 -0.0604
  516MOL0     H69619   6.158   4.198   5.582 -1.9524  1.0946  2.4877
  516MOL0     H69620   5.824   4.486   5.519 -1.9709 -0.3430 -2.9442
  516MOL0     H69621   5.831   4.678   5.381 -2.6065 -3.6329  1.1817
  516MOL0     H69622   6.251   5.002   5.097  0.1903  1.2170 -0.0887
  516MOL0     H69623   6.186   5.198   4.968  0.2375 -0.7225 -1.7243
  516MOL0     H69624   5.866   5.270   4.844  0.3189 -1.7657  2.1641
  516MOL0     H69625   6.026   5.324   4.902  0.8185  0.1867 -0.5660
  516MOL0     H69626   6.062   5.420   4.665  0.8782  3.1739  1.1385
  516MOL0     H69627   5.885   5.408   4.639 -0.6178  4.1895 -0.0760
  516MOL0     H69628   5.997   5.622   4.797 -2.0242  2.9610  0.0820
  516MOL0     H69629   5.890   5.607   4.658 -0.7183 -2.5880 -1.1552
  516MOL0     H69630   5.816   5.517   4.945  2.8551  0.9587  0.1912
  516MOL0     H69631   5.711   5.499   4.803  1.4540 -0.4865  0.2008
  516MOL0     H69632   5.816   5.756   4.924 -0.8171  2.2565 -1.0606
  516MOL0     H69633   5.650   5.701   4.942  2.2619 -0.7148  3.4175
  516MOL0     H69634   5.763   5.815   4.692 -1.2078 -0.4560 -2.5571
  516MOL0     H69635   5.616   5.718   4.688  0.0073 -0.8066  1.1798
  516MOL0     H69636   5.630   5.959   4.879  4.0453  0.6927 -3.3371
  516MOL0     H69637   5.495   5.861   4.853 -0.8387  1.2493  0.3498
  516MOL0     H69638   5.511   5.917   4.593 -1.8414  1.2842  0.5274
  516MOL0     H69639   5.448   6.037   4.700  1.6430 -0.1028  2.4228
  516MOL0     H69640   5.889   4.943   4.766 -0.2934 -3.6209 -0.0755
  516MOL0     H69641   5.931   4.787   4.941  1.0367  0.2639  0.1955
  516MOL0     H69642   6.225   4.571   5.240  1.5507 -1.8632  0.5474
  516MOL0     H69643   6.205   4.368   5.369  0.1735  0.4767  1.2025
  516MOL0     H69644   6.194   3.000   5.343  1.0435 -0.1648  0.9738
  516MOL0     H69645   6.137   3.024   5.122 -1.4941  0.5141 -0.2299
  516MOL0     H69646   5.803   3.340   4.729 -0.6641  2.4575 -1.3050
  516MOL0     H69647   5.852   3.376   4.482 -0.5625 -2.2369 -0.4958
  516MOL0     H69648   6.114   3.509   4.189  2.9677  2.4146  0.5491
  516MOL0     H69649   6.197   3.556   4.326 -1.2584  1.6711  1.7148
  516MOL0     H69650   6.006   3.649   4.427 -1.4626  1.3040 -0.5289
  516MOL0     H69651   5.893   3.553   4.324  1.2122 -2.1265 -1.0675
  516MOL0     H69652   5.885   3.744   4.218 -0.7236 -0.8685 -2.2620
  516MOL0     H69653   6.002   3.675   4.117  0.8772  0.0720  0.5172
  516MOL0     H69654   6.060   3.863   4.352  2.3842  1.6870  0.3353
  516MOL0     H69655   6.179   3.794   4.236 -0.2625 -2.1016  2.6428
  516MOL0     H69656   6.042   4.133   4.048  2.0300 -0.0862 -1.3963
  516MOL0     H69657   6.268   3.348   4.536  0.0053  0.3505  0.3836
  516MOL0     H69658   6.376   3.333   4.724  1.3745  1.7948  0.9642
  516MOL0     H69659   6.301   3.448   4.836  2.5225 -2.2881  2.6098
  516MOL0     H69660   6.295   3.276   4.864 -1.1987 -1.0332  0.0244
  517MOL0     O69661   0.605   5.495   9.978  1.2572  0.3041 -0.3852
  517MOL0     C69662   0.575   5.395   9.911  1.7385 -0.8719  1.4744
  517MOL0     O69663   0.536   5.405   9.779 -0.4611 -0.1468 -0.1277
  517MOL0     C69664   0.523   5.538   9.734 -0.2708 -0.5428 -0.7619
  517MOL0     C69665   0.582   5.576   9.615  0.6454 -0.4128 -1.1060
  517MOL0     C69666   0.564   5.703   9.558 -0.1199 -0.0234 -0.2118
  517MOL0     C69667   0.473   5.794   9.611  0.4510 -0.5436  0.1389
  517MOL0     O69668   0.457   5.903   9.534  1.0502 -0.5927  0.0443
  517MOL0     C69669   0.350   5.989   9.558  0.7095 -0.5729  0.8405
  517MOL0     C69670   0.236   5.921   9.481  0.4675 -0.0713  0.1927
  517MOL0     C69671   0.116   6.011   9.507 -0.1309  0.3609  0.0233
  517MOL0     C69672  -0.019   5.943   9.468 -0.0586  0.0834  0.4663
  517MOL0     C69673  -0.037   5.926   9.312 -0.5587 -0.2580  0.6628
  517MOL0     C69674  -0.026   6.059   9.231  1.9060  0.0605 -0.2225
  517MOL0     C69675  -0.069   6.039   9.088  0.8829 -0.8605  0.3593
  517MOL0     C69676  -0.112   6.179   9.034 -0.1792 -0.7782  0.3778
  517MOL0     N69677   0.005   6.258   9.000 -0.2762  0.4338  0.3838
  517MOL0     C69678   0.107   6.227   8.905  0.2266 -0.2122 -0.4850
  517MOL0     C69679   0.209   6.314   8.929  0.0839 -0.1304 -0.5561
  517MOL0     C69680   0.348   6.325   8.852  0.5196  0.1553 -0.3826
  517MOL0     C69681   0.452   6.259   8.949 -0.5713  0.1116 -0.6440
  517MOL0     C69682   0.507   6.362   9.054  1.1265 -0.1581 -0.6821
  517MOL0     C69683   0.639   6.313   9.124  0.9167 -0.0092  0.1664
  517MOL0     O69684   0.623   6.188   9.187 -0.0190  0.1767  0.6664
  517MOL0     C69685   0.659   6.072   9.120 -0.3980 -0.2300  0.1061
  517MOL0     C69686   0.717   6.059   8.992  0.2905 -0.8806  0.0098
  517MOL0     C69687   0.756   5.941   8.945 -0.2030 -0.1448  0.3456
  517MOL0     C69688   0.749   5.818   9.025  0.4592  0.8540 -0.5034
  517MOL0     C69689   0.792   5.691   8.959  0.5886  0.9937  0.0421
  517MOL0     O69690   0.845   5.701   8.825  1.0421 -0.1912 -0.3214
  517MOL0     C69691   0.859   5.598   8.741 -0.2922 -0.2477  0.8683
  517MOL0     C69692   0.952   5.610   8.631  0.0153 -1.1653  0.0969
  517MOL0     C69693   0.964   5.519   8.525  0.1420 -0.1257  0.5128
  517MOL0     C69694   0.901   5.394   8.537 -0.0376 -1.8696  0.5072
  517MOL0     O69695   0.920   5.295   8.445  0.6940 -0.6247 -0.1339
  517MOL0     C69696   0.902   5.325   8.304  0.9869  0.0844 -0.6241
  517MOL0     C69697   0.760   5.282   8.259 -0.5951 -0.1568 -0.1689
  517MOL0     C69698   0.708   5.331   8.115  0.3821 -0.0610 -0.2918
  517MOL0     C69699   0.804   5.317   8.001  0.1117 -0.4444 -0.1066
  517MOL0     C69700   0.730   5.298   7.874 -0.5609  0.3655 -0.0437
  517MOL0     C69701   0.675   5.161   7.829 -0.6316  0.0676 -0.1584
  517MOL0     C69702   0.792   5.062   7.802  0.9415  0.2516  0.0453
  517MOL0     C69703   0.750   4.919   7.828  0.7402 -0.1626 -1.0769
  517MOL0    Cl69704   0.856   4.810   7.743  0.2263 -0.4767  0.1314
  517MOL0     C69705   0.826   5.378   8.655  0.1582  0.2269  0.8333
  517MOL0     C69706   0.787   5.475   8.751 -0.8771 -0.4992  0.2563
  517MOL0     O69707   0.762   5.590   9.020  0.0965  0.0168  0.1319
  517MOL0     C69708   0.684   5.831   9.150 -0.3219 -0.5218 -0.3967
  517MOL0     C69709   0.642   5.955   9.195 -0.9343 -0.0059  0.3393
  517MOL0     N69710   0.165   6.395   9.028 -0.5294 -0.0868 -0.5527
  517MOL0     N69711   0.047   6.363   9.072  0.0692 -0.3441 -0.3644
  517MOL0     C69712   0.410   5.756   9.732  0.3649  0.0311  0.2933
  517MOL0     C69713   0.434   5.634   9.795  0.0160 -0.1926 -0.5187
  517MOL0     C69714   0.607   5.262   9.964  0.2876  0.6822  0.6753
  517MOL0     C69715   0.670   5.179   9.868 -0.4884 -0.3958 -0.0485
  517MOL0     C69716   0.693   5.043   9.900 -0.2750 -0.4088  0.3410
  517MOL0     C69717   0.656   4.999  10.023  0.1029 -0.0811  0.6851
  517MOL0     O69718   0.668   4.862  10.062  0.2364  0.8100 -0.5171
  517MOL0     C69719   0.712   4.759   9.971 -0.0212  0.3680  1.3239
  517MOL0     C69720   0.865   4.740   9.967  0.2462  1.2112  0.3962
  517MOL0     C69721   0.943   4.724  10.101 -0.5293  0.1618 -0.6442
  517MOL0     C69722   0.991   4.857  10.158  0.2960  0.2562  0.0596
  517MOL0     C69723   1.096   4.840  10.253  0.4583 -0.0944 -0.4559
  517MOL0     C69724   1.171   4.812  10.338  0.1397 -0.0121 -0.5516
  517MOL0     C69725   0.588   5.077  10.117 -0.2458  0.3091  0.2753
  517MOL0     C69726   0.573   5.211  10.087 -0.6435 -0.3337  0.2270
  517MOL0     C69727   0.496   5.300  10.175 -0.5408 -0.3438 -0.2662
  517MOL0     H69728   0.652   5.505   9.570 -1.2262 -2.3975 -1.0439
  517MOL0     H69729   0.631   5.720   9.474 -0.0753 -2.1965 -0.6733
  517MOL0     H69730   0.330   5.997   9.665  1.3176 -2.5532  1.1434
  517MOL0     H69731   0.362   6.094   9.528 -0.5170 -0.9509 -1.1094
  517MOL0     H69732   0.230   5.822   9.528  0.1573 -1.5274 -2.7388
  517MOL0     H69733   0.257   5.916   9.374 -0.9019  1.8802 -0.2169
  517MOL0     H69734   0.132   6.098   9.443  1.4561 -0.2522 -0.4689
  517MOL0     H69735   0.119   6.036   9.614 -1.5999  2.2331 -0.3160
  517MOL0     H69736  -0.031   5.846   9.516 -0.5229 -0.7785 -1.3134
  517MOL0     H69737  -0.093   6.016   9.502  1.0186  4.5093 -5.1484
  517MOL0     H69738   0.051   5.865   9.291 -0.4675  0.2690 -0.5964
  517MOL0     H69739  -0.128   5.866   9.303  1.4005 -3.9338  3.2825
  517MOL0     H69740  -0.095   6.127   9.281 -0.0300 -3.3460  2.0803
  517MOL0     H69741   0.074   6.103   9.244  1.6269 -0.1095  3.2774
  517MOL0     H69742  -0.164   5.985   9.086 -0.1465  0.8464  0.1791
  517MOL0     H69743   0.011   5.995   9.028  0.2807  1.0864 -2.0685
  517MOL0     H69744  -0.178   6.173   8.947  2.0379 -1.3972 -1.3546
  517MOL0     H69745  -0.162   6.243   9.107  1.0251  0.5258  0.1038
  517MOL0     H69746   0.098   6.152   8.827 -3.1747  0.1639 -0.6014
  517MOL0     H69747   0.341   6.264   8.762 -3.2573 -1.5279  0.8790
  517MOL0     H69748   0.376   6.426   8.819 -0.4966  1.1757  1.6702
  517MOL0     H69749   0.416   6.166   8.994 -1.1072  0.3673 -0.5476
  517MOL0     H69750   0.536   6.229   8.885  1.6124  2.3109  0.9698
  517MOL0     H69751   0.426   6.369   9.128  0.7615 -1.5119 -0.9250
  517MOL0     H69752   0.538   6.460   9.017  1.3252  0.6225  1.4179
  517MOL0     H69753   0.673   6.381   9.203 -0.6436  2.4475 -1.1518
  517MOL0     H69754   0.711   6.306   9.042  1.2335 -0.0558  0.4450
  517MOL0     H69755   0.736   6.149   8.934  0.2355 -0.5090  0.5499
  517MOL0     H69756   0.786   5.929   8.841  1.1270  0.5043  0.6315
  517MOL0     H69757   1.009   5.702   8.632  0.9181 -1.7300  0.9310
  517MOL0     H69758   1.034   5.536   8.443  1.1322  0.0073  1.3558
  517MOL0     H69759   0.930   5.427   8.277  0.9699 -0.2786 -2.1101
  517MOL0     H69760   0.965   5.249   8.256  0.6327 -2.3140  2.3865
  517MOL0     H69761   0.761   5.174   8.243  1.3988  0.1351 -2.4535
  517MOL0     H69762   0.687   5.315   8.334  0.1822  2.1657 -0.3515
  517MOL0     H69763   0.626   5.262   8.095 -0.2820  0.8647 -0.8280
  517MOL0     H69764   0.668   5.433   8.119  2.0811  0.7202 -1.6025
  517MOL0     H69765   0.861   5.226   8.023  1.2660  0.7029  1.9865
  517MOL0     H69766   0.861   5.410   7.994 -2.4835  1.1865 -1.0352
  517MOL0     H69767   0.793   5.337   7.794 -0.4538  4.0023  1.6120
  517MOL0     H69768   0.641   5.362   7.874  0.9043  2.6174  2.4430
  517MOL0     H69769   0.606   5.125   7.905 -0.5340 -1.6715 -0.8540
  517MOL0     H69770   0.620   5.178   7.736 -0.6815 -2.4863 -0.6500
  517MOL0     H69771   0.889   5.076   7.850  0.8227  0.8577  0.1230
  517MOL0     H69772   0.806   5.068   7.693 -1.4596 -2.2311 -0.5027
  517MOL0     H69773   0.751   4.889   7.933 -2.5312  0.4525 -0.7763
  517MOL0     H69774   0.654   4.910   7.777 -0.9936  5.5246  0.4262
  517MOL0     H69775   0.767   5.287   8.665 -0.9737  1.0064  1.4392
  517MOL0     H69776   0.711   5.460   8.827 -2.9353  1.1554 -1.3864
  517MOL0     H69777   0.683   5.746   9.218  0.5117  1.7534  2.6995
  517MOL0     H69778   0.593   5.963   9.291 -1.7336 -0.0499 -0.0565
  517MOL0     H69779   0.339   5.823   9.781 -1.9024  0.3522 -3.1248
  517MOL0     H69780   0.376   5.610   9.884 -0.6874  3.3478  0.1188
  517MOL0     H69781   0.699   5.218   9.771 -0.2429 -0.9012 -0.1784
  517MOL0     H69782   0.743   4.995   9.817 -0.3420  0.4288 -0.1859
  517MOL0     H69783   0.676   4.784   9.871  1.8623  2.4739  1.0991
  517MOL0     H69784   0.671   4.659   9.991 -0.7707 -0.0141 -1.6982
  517MOL0     H69785   0.918   4.823   9.922  2.6598  0.6461  2.0235
  517MOL0     H69786   0.899   4.651   9.913 -1.7747  1.3246 -1.2103
  517MOL0     H69787   1.034   4.667  10.079  0.0522  0.5748  0.5591
  517MOL0     H69788   0.877   4.676  10.174  0.6888 -0.2981  0.1844
  517MOL0     H69789   1.025   4.919  10.075 -1.8511 -0.0032 -1.0770
  517MOL0     H69790   0.911   4.912  10.209  2.0444  0.4590  2.8428
  517MOL0     H69791   1.247   4.802  10.412  0.3678 -0.5130 -0.8533
  517MOL0     H69792   0.546   5.032  10.207  1.0498 -1.1568  0.1954
  517MOL0     H69793   0.569   5.373  10.210  0.9325 -1.0206 -1.8037
  517MOL0     H69794   0.414   5.341  10.115 -1.0123 -0.0627  0.5693
  517MOL0     H69795   0.449   5.243  10.255  0.4371  1.3638  1.5942
  518MOL0     O69796   1.799   0.977   0.577 -0.4814 -0.5535  0.6274
  518MOL0     C69797   1.700   1.050   0.581 -0.3274  0.0199  0.6995
  518MOL0     O69798   1.652   1.116   0.472 -0.2732  0.6250 -0.7401
  518MOL0     C69799   1.684   1.069   0.354  0.2930  0.2628  1.0365
  518MOL0     C69800   1.684   0.934   0.308  0.4037  0.0134 -0.9205
  518MOL0     C69801   1.711   0.901   0.178  0.5293 -0.3742 -0.2331
  518MOL0     C69802   1.748   0.998   0.090 -0.3044 -0.3757 -1.2166
  518MOL0     O69803   1.777   0.984  -0.036  0.8476 -0.1573 -0.1593
  518MOL0     C69804   1.855   0.875  -0.079 -0.7582 -0.1420  0.3666
  518MOL0     C69805   1.996   0.935  -0.096 -0.6284 -0.8199 -0.6016
  518MOL0     C69806   2.005   1.043  -0.203  0.8278 -0.0087  0.0807
  518MOL0     C69807   2.027   0.988  -0.341 -1.1855 -0.6801  0.1856
  518MOL0     C69808   2.021   1.083  -0.465 -0.0982  0.5163 -0.6876
  518MOL0     C69809   2.032   1.003  -0.591 -0.2405 -0.5519 -0.8571
  518MOL0     C69810   2.041   1.094  -0.704 -0.5093 -0.2333 -0.5270
  518MOL0     C69811   2.060   1.011  -0.837 -0.2300  0.6355  0.3775
  518MOL0     N69812   2.044   1.099  -0.951 -0.5498  0.0971  0.8338
  518MOL0     C69813   2.137   1.166  -1.028 -0.2533  0.3211  0.5948
  518MOL0     C69814   2.068   1.275  -1.071  0.0208 -0.0978  0.2356
  518MOL0     C69815   2.135   1.395  -1.137 -0.0668 -0.2305 -0.0152
  518MOL0     C69816   2.149   1.527  -1.046 -0.3155  0.2010  0.6718
  518MOL0     C69817   2.237   1.644  -1.116  0.4889  0.0779 -0.0836
  518MOL0     C69818   2.215   1.788  -1.056  0.1893 -1.0237  0.8980
  518MOL0     O69819   2.266   1.796  -0.928  0.5467 -0.1936 -0.8272
  518MOL0     C69820   2.323   1.912  -0.903  0.6132 -0.0942  0.9060
  518MOL0     C69821   2.464   1.918  -0.893  0.7610  0.3451 -0.0732
  518MOL0     C69822   2.530   2.038  -0.873  0.4301  0.2002 -1.7156
  518MOL0     C69823   2.457   2.156  -0.848 -0.4119  0.8165 -0.5227
  518MOL0     C69824   2.527   2.278  -0.798  0.3694  0.5382  0.0549
  518MOL0     O69825   2.446   2.373  -0.766  0.2619  0.7365 -0.4688
  518MOL0     C69826   2.476   2.474  -0.683 -0.1328  0.8015 -0.8943
  518MOL0     C69827   2.440   2.608  -0.719  0.5952 -0.8697  0.2945
  518MOL0     C69828   2.475   2.718  -0.629  0.4855 -0.3505  0.4374
  518MOL0     C69829   2.537   2.689  -0.506 -1.1265  0.2644 -0.0727
  518MOL0     O69830   2.584   2.786  -0.416 -0.2308  0.2112 -0.1197
  518MOL0     C69831   2.556   2.930  -0.432 -0.7791  0.4083  0.1102
  518MOL0     C69832   2.622   3.006  -0.305 -0.3068 -0.7341  0.0020
  518MOL0     C69833   2.568   2.963  -0.173 -0.2030  0.6217 -0.7505
  518MOL0     C69834   2.619   2.832  -0.110 -0.0917 -0.0911  0.9693
  518MOL0     C69835   2.545   2.792   0.014 -0.5543  0.2176  1.0734
  518MOL0     C69836   2.427   2.694  -0.014  0.5631 -0.1212  0.7204
  518MOL0     C69837   2.341   2.685   0.112 -0.1213  0.0363  0.6286
  518MOL0     C69838   2.296   2.545   0.136 -0.3425  0.4123  0.2706
  518MOL0    Cl69839   2.238   2.528   0.307  0.3938  0.2435  0.1451
  518MOL0     C69840   2.566   2.549  -0.471 -0.0189 -0.4776  0.4491
  518MOL0     C69841   2.536   2.445  -0.559 -0.7968  0.0579  0.2846
  518MOL0     O69842   2.642   2.270  -0.778  0.0263 -0.1032  0.3345
  518MOL0     C69843   2.325   2.147  -0.857 -0.8203 -0.2047 -0.0505
  518MOL0     C69844   2.253   2.030  -0.900 -0.8547 -0.2743  0.6053
  518MOL0     N69845   1.944   1.278  -1.024  0.9432 -0.4508 -0.9715
  518MOL0     N69846   1.926   1.168  -0.959 -0.5518  0.0671 -0.1266
  518MOL0     C69847   1.755   1.135   0.130 -0.2386  0.0204 -1.1269
  518MOL0     C69848   1.725   1.168   0.262  0.3034 -0.2546 -0.0376
  518MOL0     C69849   1.634   1.076   0.708  0.3663  0.5788 -1.5787
  518MOL0     C69850   1.514   1.010   0.735 -1.0934  0.3143  1.0540
  518MOL0     C69851   1.439   1.029   0.843 -0.4323  1.1874  0.6664
  518MOL0     C69852   1.466   1.131   0.929 -0.0941  0.2387 -0.3048
  518MOL0     O69853   1.386   1.147   1.040  0.0361  1.0019 -0.0030
  518MOL0     C69854   1.396   1.275   1.106  0.1934  0.4833 -0.0935
  518MOL0     C69855   1.310   1.268   1.240 -0.4301 -0.1637  0.3542
  518MOL0     C69856   1.320   1.398   1.317 -0.5072  0.1511  0.1228
  518MOL0     C69857   1.243   1.402   1.447  0.6769 -0.6536 -0.3346
  518MOL0     C69858   1.303   1.325   1.552  0.0733  0.0801  0.5434
  518MOL0     C69859   1.340   1.264   1.639 -0.4333 -0.2212 -0.2314
  518MOL0     C69860   1.591   1.199   0.906 -0.4545 -0.2872 -0.3241
  518MOL0     C69861   1.672   1.186   0.789 -0.5089 -0.5099  0.1905
  518MOL0     C69862   1.802   1.272   0.788  0.3128  0.4280  0.1257
  518MOL0     H69863   1.645   0.865   0.384 -1.1319  3.7242  1.9793
  518MOL0     H69864   1.712   0.797   0.146 -0.9718  0.0804 -1.9405
  518MOL0     H69865   1.869   0.789  -0.012  0.3774 -1.0494 -0.9612
  518MOL0     H69866   1.808   0.843  -0.172 -1.5711 -0.5958  0.9219
  518MOL0     H69867   2.073   0.862  -0.122  0.6417  0.5881 -0.9554
  518MOL0     H69868   2.030   0.967   0.003  2.7565 -1.5096 -1.4311
  518MOL0     H69869   2.086   1.110  -0.175  0.4874 -0.4505  2.2615
  518MOL0     H69870   1.915   1.105  -0.214 -0.4774 -2.2485 -5.3624
  518MOL0     H69871   2.125   0.940  -0.346 -2.4195 -3.2544 -0.9263
  518MOL0     H69872   1.943   0.921  -0.326 -0.1201 -1.7636  1.6184
  518MOL0     H69873   1.921   1.128  -0.467 -0.5023 -0.3431 -3.1888
  518MOL0     H69874   2.092   1.164  -0.448 -1.0570  0.9152  1.9400
  518MOL0     H69875   2.119   0.937  -0.599 -0.8001 -1.4770  0.2921
  518MOL0     H69876   1.941   0.942  -0.598  0.5145 -1.6041 -1.7295
  518MOL0     H69877   2.128   1.160  -0.708 -0.9804  0.4020 -0.4672
  518MOL0     H69878   1.950   1.156  -0.710 -0.3490  0.0082 -0.4807
  518MOL0     H69879   2.159   0.964  -0.839 -0.1038  0.8977  0.3642
  518MOL0     H69880   1.991   0.926  -0.841 -0.2462  0.6288  0.7590
  518MOL0     H69881   2.236   1.128  -1.051 -0.2576 -1.8510  3.5789
  518MOL0     H69882   2.225   1.351  -1.182 -1.4269  0.4524 -3.8380
  518MOL0     H69883   2.085   1.415  -1.233  0.4580 -0.4691 -0.3442
  518MOL0     H69884   2.045   1.547  -1.022 -0.3406 -2.7155  3.6627
  518MOL0     H69885   2.204   1.494  -0.958  0.9525  1.8762  0.5538
  518MOL0     H69886   2.202   1.638  -1.219  0.5482  2.1626 -0.2832
  518MOL0     H69887   2.342   1.617  -1.124  0.6892  1.1062 -1.1780
  518MOL0     H69888   2.107   1.801  -1.063  0.2553 -0.5938  0.6109
  518MOL0     H69889   2.269   1.860  -1.119  1.7788 -2.1703  0.8661
  518MOL0     H69890   2.527   1.830  -0.898  2.4728  1.5832 -1.6221
  518MOL0     H69891   2.638   2.042  -0.871  0.4675  0.0891 -3.0070
  518MOL0     H69892   2.394   2.622  -0.816 -0.7867 -3.3908  0.5162
  518MOL0     H69893   2.466   2.821  -0.663  0.3878  0.0023  1.5071
  518MOL0     H69894   2.589   2.967  -0.530 -2.8762 -0.9886 -1.2218
  518MOL0     H69895   2.447   2.936  -0.428 -0.9534 -0.6398 -1.7864
  518MOL0     H69896   2.731   3.001  -0.310 -0.3224 -0.2033 -2.5457
  518MOL0     H69897   2.613   3.115  -0.307 -0.3355 -0.7411 -0.3247
  518MOL0     H69898   2.589   3.042  -0.100 -2.4360 -0.8702  1.6533
  518MOL0     H69899   2.460   2.956  -0.182 -0.4481  3.3199 -0.5646
  518MOL0     H69900   2.725   2.839  -0.085  0.0569 -2.4342  1.1837
  518MOL0     H69901   2.624   2.749  -0.182 -1.6201 -0.2771  1.0508
  518MOL0     H69902   2.510   2.875   0.076 -3.0892  0.0415 -0.0451
  518MOL0     H69903   2.613   2.726   0.069 -2.4329 -0.3366  2.8690
  518MOL0     H69904   2.374   2.737  -0.099  0.1245 -0.2626  0.9216
  518MOL0     H69905   2.471   2.600  -0.046  0.4569 -0.3423  1.2100
  518MOL0     H69906   2.252   2.745   0.093  1.6024  3.5322  2.5639
  518MOL0     H69907   2.400   2.735   0.190 -0.0007  4.6250 -2.0517
  518MOL0     H69908   2.227   2.508   0.060 -0.8682  0.7992  0.5544
  518MOL0     H69909   2.385   2.482   0.125  0.2429  1.3679 -0.6059
  518MOL0     H69910   2.613   2.522  -0.377  0.1122  0.5946  0.7052
  518MOL0     H69911   2.545   2.340  -0.533 -0.8543  0.3933  1.7285
  518MOL0     H69912   2.264   2.230  -0.823  0.9831  1.0917  0.1446
  518MOL0     H69913   2.146   2.041  -0.905 -0.8430 -0.7731 -3.1804
  518MOL0     H69914   1.799   1.213   0.069  0.6869  0.6588  0.2971
  518MOL0     H69915   1.740   1.263   0.311  0.8955  0.3329 -1.3091
  518MOL0     H69916   1.482   0.937   0.661  2.0056  0.9657 -1.1236
  518MOL0     H69917   1.357   0.964   0.871  0.2300  1.1665  2.7300
  518MOL0     H69918   1.362   1.360   1.045  3.1302  0.9120 -1.3032
  518MOL0     H69919   1.496   1.288   1.146  0.2018 -2.8054  1.2350
  518MOL0     H69920   1.350   1.180   1.292 -0.3206 -0.0887  0.3947
  518MOL0     H69921   1.204   1.249   1.220 -0.3423 -0.9524  0.5872
  518MOL0     H69922   1.278   1.475   1.252  3.6284  2.7144  0.1145
  518MOL0     H69923   1.425   1.430   1.323 -1.0272  2.1399 -0.5992
  518MOL0     H69924   1.235   1.508   1.471 -0.7076 -0.3998 -1.6958
  518MOL0     H69925   1.141   1.369   1.424  0.3521  1.0435 -1.5147
  518MOL0     H69926   1.390   1.212   1.718  1.9576  3.4756  0.9183
  518MOL0     H69927   1.632   1.263   0.983  2.9276 -1.0788 -1.2800
  518MOL0     H69928   1.828   1.318   0.693  1.1392  1.6724  0.9181
  518MOL0     H69929   1.799   1.342   0.872 -2.5051 -0.2246  0.6599
  518MOL0     H69930   1.884   1.203   0.811 -0.6111 -0.4465  0.9562
  519MOL0     O69931   0.675   1.316   5.378  0.1928  0.2517 -0.2566
  519MOL0     C69932   0.588   1.393   5.366  0.6835 -0.4355 -0.2411
  519MOL0     O69933   0.594   1.513   5.304  0.3533 -0.7021  0.3196
  519MOL0     C69934   0.701   1.557   5.227  0.1136 -0.2390 -0.3676
  519MOL0     C69935   0.827   1.507   5.242 -0.0894 -0.8267 -0.0829
  519MOL0     C69936   0.936   1.570   5.178  0.0475  0.5215 -0.0351
  519MOL0     C69937   0.915   1.680   5.098  0.1100 -0.0040  0.3241
  519MOL0     O69938   1.024   1.755   5.054  0.1379  1.4412 -0.2404
  519MOL0     C69939   1.018   1.848   4.952  0.5738 -0.2695  0.2864
  519MOL0     C69940   1.160   1.889   4.927 -1.0282 -0.0139 -0.5450
  519MOL0     C69941   1.222   1.773   4.851 -0.8125 -0.0358 -0.4688
  519MOL0     C69942   1.148   1.722   4.722  0.9134  0.7240 -0.6256
  519MOL0     C69943   1.230   1.633   4.622 -0.1398  1.0840  0.1315
  519MOL0     C69944   1.178   1.618   4.478  0.2927  0.0117 -0.0805
  519MOL0     C69945   1.201   1.739   4.388  0.2693 -0.8198  0.4253
  519MOL0     C69946   1.105   1.757   4.270 -0.1036 -0.4996 -0.0777
  519MOL0     N69947   1.105   1.653   4.168  0.7440 -0.5219  0.2151
  519MOL0     C69948   1.199   1.556   4.140 -0.5456 -2.2064 -0.4262
  519MOL0     C69949   1.130   1.458   4.072 -0.0919 -0.2605 -0.8427
  519MOL0     C69950   1.177   1.329   4.013  0.0715  0.0307 -0.3195
  519MOL0     C69951   1.262   1.349   3.883  0.3394 -0.7907 -0.9171
  519MOL0     C69952   1.264   1.219   3.806  1.2667 -0.0550 -0.2443
  519MOL0     C69953   1.312   1.239   3.669  0.0664 -0.9378 -0.4703
  519MOL0     O69954   1.449   1.290   3.672  0.5660  0.2979  0.1908
  519MOL0     C69955   1.518   1.325   3.559  0.0420 -0.8223  0.0541
  519MOL0     C69956   1.465   1.303   3.437  0.4878 -0.0885  0.4881
  519MOL0     C69957   1.535   1.347   3.322  0.9030 -0.1631  0.1622
  519MOL0     C69958   1.665   1.408   3.331  0.6028 -0.1496  0.2622
  519MOL0     C69959   1.743   1.447   3.211 -0.6853  0.4354 -0.3422
  519MOL0     O69960   1.865   1.509   3.214 -0.6876 -0.0558  0.6666
  519MOL0     C69961   1.927   1.531   3.093 -0.1846  1.5372  0.8562
  519MOL0     C69962   1.882   1.627   3.004 -0.6199  0.0033  0.0836
  519MOL0     C69963   1.953   1.668   2.892  0.2345 -0.7538  0.2304
  519MOL0     C69964   2.072   1.604   2.866 -0.2710  0.3102 -0.4392
  519MOL0     O69965   2.149   1.656   2.761 -0.7791 -0.3707  0.2276
  519MOL0     C69966   2.255   1.582   2.705  0.1396  0.2889  0.4828
  519MOL0     C69967   2.280   1.630   2.564  0.0666  0.4965 -0.0626
  519MOL0     C69968   2.426   1.607   2.530 -0.4674 -0.0597  0.0993
  519MOL0     C69969   2.435   1.654   2.390 -0.4809  0.0911  0.3790
  519MOL0     C69970   2.530   1.575   2.304 -0.1989  0.8962  0.1253
  519MOL0     C69971   2.568   1.662   2.181  0.4538 -0.0186  0.2762
  519MOL0     C69972   2.663   1.772   2.207 -0.3753  0.1034  0.6466
  519MOL0     C69973   2.714   1.842   2.074  0.3936 -0.6880  0.0988
  519MOL0    Cl69974   2.809   1.976   2.133  0.1616 -0.4953  0.3862
  519MOL0     C69975   2.120   1.501   2.953 -0.2360  0.3268  0.0398
  519MOL0     C69976   2.049   1.463   3.067 -0.5090 -0.8077 -0.1760
  519MOL0     O69977   1.689   1.405   3.110 -0.7832 -0.5402  0.2050
  519MOL0     C69978   1.711   1.431   3.462  0.2259  0.7329 -0.3294
  519MOL0     C69979   1.641   1.390   3.571 -0.0693  0.0536 -0.1344
  519MOL0     N69980   0.993   1.504   4.064  0.2587 -0.6418  0.5535
  519MOL0     N69981   0.983   1.618   4.119 -1.0068  0.7289  1.5122
  519MOL0     C69982   0.781   1.728   5.077  0.5506  0.0549  0.0615
  519MOL0     C69983   0.676   1.666   5.143 -0.5887 -0.5085 -0.9092
  519MOL0     C69984   0.454   1.343   5.416 -1.4854 -0.5643 -0.1665
  519MOL0     C69985   0.371   1.446   5.476 -0.3785  0.4002 -0.1678
  519MOL0     C69986   0.258   1.410   5.554 -0.3138  0.0638  0.7322
  519MOL0     C69987   0.226   1.274   5.565 -0.4532 -0.0864  0.0365
  519MOL0     O69988   0.105   1.223   5.624  0.2009  0.2062  0.9122
  519MOL0     C69989   0.061   1.281   5.743  0.5189 -0.2099 -0.6012
  519MOL0     C69990  -0.058   1.192   5.801 -0.5616  0.9894  0.2020
  519MOL0     C69991  -0.125   1.258   5.928  0.0710  0.2527  0.1511
  519MOL0     C69992  -0.240   1.171   5.986  0.3009  0.2781  0.6270
  519MOL0     C69993  -0.197   1.027   6.005 -0.6703  0.1218  0.5023
  519MOL0     C69994  -0.171   0.908   6.019 -1.4897 -0.3454  0.1892
  519MOL0     C69995   0.304   1.174   5.501  0.9455 -0.4016 -1.0100
  519MOL0     C69996   0.423   1.205   5.439  0.5456 -0.5532  0.5863
  519MOL0     C69997   0.506   1.090   5.385 -0.4230 -0.3511 -0.6263
  519MOL0     H69998   0.868   1.422   5.294  1.4562 -0.6642 -0.9672
  519MOL0     H69999   1.040   1.544   5.199  1.0598  2.3949 -2.2863
  519MOL0     H70000   0.968   1.829   4.857  0.2406 -0.5652  0.5214
  519MOL0     H70001   0.974   1.939   4.993  0.1315 -0.5619  0.4589
  519MOL0     H70002   1.210   1.922   5.018 -1.6110 -3.2233  1.0735
  519MOL0     H70003   1.164   1.974   4.859  1.6285  0.9853  0.7541
  519MOL0     H70004   1.248   1.690   4.918  0.6400 -1.4072 -2.6226
  519MOL0     H70005   1.315   1.810   4.809 -1.1614  1.9214  0.3793
  519MOL0     H70006   1.066   1.661   4.759  2.2666 -0.4541  0.5617
  519MOL0     H70007   1.113   1.812   4.670  0.0144  1.9980  1.9767
  519MOL0     H70008   1.331   1.675   4.621  0.3655  0.0203  1.9390
  519MOL0     H70009   1.252   1.531   4.653  1.7549  0.8635 -1.7100
  519MOL0     H70010   1.222   1.537   4.419 -2.8534 -1.5278 -0.5011
  519MOL0     H70011   1.070   1.611   4.471 -0.0672  4.3966 -2.5524
  519MOL0     H70012   1.302   1.736   4.345 -0.1283  0.7963 -0.7289
  519MOL0     H70013   1.185   1.839   4.430  1.0391  1.2833 -3.7243
  519MOL0     H70014   1.007   1.777   4.313  1.0400  1.4215  1.8482
  519MOL0     H70015   1.144   1.846   4.218  0.3480 -0.6388  0.0179
  519MOL0     H70016   1.295   1.563   4.190 -1.6341  2.4369  1.5070
  519MOL0     H70017   1.234   1.278   4.091  2.7871 -0.8307 -2.6839
  519MOL0     H70018   1.089   1.276   3.976 -0.5562 -0.2259  1.4978
  519MOL0     H70019   1.222   1.434   3.828  0.1835 -0.9210 -1.0070
  519MOL0     H70020   1.367   1.375   3.901  1.7308 -5.5376 -0.9361
  519MOL0     H70021   1.163   1.177   3.800  1.1548  0.2182 -0.2518
  519MOL0     H70022   1.334   1.150   3.854  1.1234  0.1614  0.2816
  519MOL0     H70023   1.258   1.315   3.612  3.1110 -0.2505 -2.7166
  519MOL0     H70024   1.307   1.146   3.611 -1.1211 -0.5401 -1.0339
  519MOL0     H70025   1.369   1.256   3.419  1.1276 -1.1962 -0.1500
  519MOL0     H70026   1.494   1.346   3.222 -1.0507  1.6925  0.8585
  519MOL0     H70027   1.787   1.677   3.016 -1.3416 -0.2843 -3.3993
  519MOL0     H70028   1.926   1.755   2.833  0.8569  1.5278  3.0882
  519MOL0     H70029   2.337   1.586   2.777  0.1211 -0.7017  0.5740
  519MOL0     H70030   2.220   1.478   2.703 -0.4880  0.4887  0.6300
  519MOL0     H70031   2.203   1.581   2.503  0.2768  1.8349 -1.4894
  519MOL0     H70032   2.256   1.737   2.556  0.6738  0.6073 -0.4620
  519MOL0     H70033   2.492   1.665   2.596  0.0744 -1.4468  0.8054
  519MOL0     H70034   2.449   1.501   2.543  1.7391  0.6139  2.6723
  519MOL0     H70035   2.461   1.761   2.393  0.4160 -0.1306  1.0926
  519MOL0     H70036   2.337   1.639   2.344  0.6363 -1.0637 -1.7454
  519MOL0     H70037   2.481   1.479   2.285 -1.2334  1.7173 -1.5937
  519MOL0     H70038   2.616   1.557   2.368 -0.2361 -1.0479 -0.3244
  519MOL0     H70039   2.621   1.598   2.109  0.0794  1.7015 -1.6018
  519MOL0     H70040   2.481   1.694   2.125  0.4859  2.0381  1.3229
  519MOL0     H70041   2.746   1.734   2.267 -3.1389 -0.3524  4.5454
  519MOL0     H70042   2.603   1.845   2.261  1.8640  2.1816  0.4944
  519MOL0     H70043   2.765   1.776   2.003  2.4317  2.0763 -1.2007
  519MOL0     H70044   2.626   1.885   2.025 -1.4297 -0.5630  3.2002
  519MOL0     H70045   2.218   1.457   2.935  1.5011  3.7828  0.2110
  519MOL0     H70046   2.088   1.385   3.131 -0.3406 -1.1688 -0.7117
  519MOL0     H70047   1.813   1.468   3.467  0.8657 -0.6537 -2.1333
  519MOL0     H70048   1.676   1.407   3.672  3.0819  3.3126 -1.5484
  519MOL0     H70049   0.760   1.813   5.012 -1.5004 -0.3522  0.1300
  519MOL0     H70050   0.573   1.699   5.128 -0.8813 -1.5893 -1.3788
  519MOL0     H70051   0.407   1.548   5.471  2.7444 -0.4379  1.8793
  519MOL0     H70052   0.205   1.489   5.607 -0.9468 -0.1301  0.3995
  519MOL0     H70053   0.028   1.383   5.723 -1.3269 -0.7800 -0.6039
  519MOL0     H70054   0.138   1.272   5.821 -0.6439 -3.4738  0.3223
  519MOL0     H70055  -0.008   1.099   5.830 -2.0108  0.3315  0.6836
  519MOL0     H70056  -0.120   1.179   5.712  1.7883  0.1375 -1.4201
  519MOL0     H70057  -0.166   1.356   5.901  1.7866  0.0989 -3.7500
  519MOL0     H70058  -0.038   1.257   5.994 -1.7780 -1.1013  2.7523
  519MOL0     H70059  -0.275   1.216   6.079  0.5278  1.2566  0.2416
  519MOL0     H70060  -0.320   1.175   5.911  2.0319 -1.4683 -1.4200
  519MOL0     H70061  -0.161   0.803   6.034  1.1442 -0.1623  0.0780
  519MOL0     H70062   0.267   1.072   5.499 -0.9995  0.1327  1.7891
  519MOL0     H70063   0.603   1.076   5.433 -1.0184 -2.1932  0.1458
  519MOL0     H70064   0.453   1.007   5.433 -1.7434  2.5064  3.4164
  519MOL0     H70065   0.513   1.091   5.276 -0.8671  0.7215 -0.6544
  520MOL0     O70066   5.291   4.550   8.954  0.6334  0.3576  0.4414
  520MOL0     C70067   5.282   4.669   8.920 -0.0339  0.5569  0.0650
  520MOL0     O70068   5.373   4.741   8.840  0.5507  0.1918  0.1799
  520MOL0     C70069   5.479   4.683   8.773  1.2368  0.2209 -0.3512
  520MOL0     C70070   5.606   4.721   8.807  0.5704  0.8443 -0.3635
  520MOL0     C70071   5.702   4.664   8.730  0.5641  0.4287 -0.5473
  520MOL0     C70072   5.681   4.562   8.633 -0.3393 -0.4320  0.7035
  520MOL0     O70073   5.789   4.533   8.543 -0.7398  0.6272  0.3214
  520MOL0     C70074   5.746   4.512   8.405  0.2785  0.8514  0.7362
  520MOL0     C70075   5.695   4.643   8.338  0.7074 -0.3767 -0.5011
  520MOL0     C70076   5.798   4.755   8.314  0.5514  0.0902 -0.2841
  520MOL0     C70077   5.737   4.888   8.282 -0.4988 -0.0886  0.1779
  520MOL0     C70078   5.713   4.985   8.397 -0.4921 -0.1209  0.5187
  520MOL0     C70079   5.565   5.009   8.416 -0.9251 -0.0255 -0.5359
  520MOL0     C70080   5.523   5.117   8.516 -0.3852  0.3775 -0.3374
  520MOL0     C70081   5.569   5.089   8.658  0.2048  0.0134 -0.2199
  520MOL0     N70082   5.531   5.204   8.740 -0.0182  0.4372  0.7792
  520MOL0     C70083   5.613   5.308   8.781  1.3095 -0.1005  0.0837
  520MOL0     C70084   5.536   5.392   8.856  1.0012 -0.2536  0.5375
  520MOL0     C70085   5.577   5.515   8.923 -0.7716  0.6036  0.4746
  520MOL0     C70086   5.549   5.530   9.081  0.9977  0.2973  1.6327
  520MOL0     C70087   5.682   5.539   9.153 -0.8042  0.3723  0.4737
  520MOL0     C70088   5.766   5.415   9.181 -0.7977  0.0071  0.6251
  520MOL0     O70089   5.687   5.320   9.259 -0.8086 -0.7175  0.2854
  520MOL0     C70090   5.734   5.191   9.250 -0.4447  0.9504 -0.5681
  520MOL0     C70091   5.812   5.123   9.342 -0.2912 -0.0557  0.1521
  520MOL0     C70092   5.845   4.991   9.331  0.0974  0.0336  0.2590
  520MOL0     C70093   5.803   4.912   9.227 -0.0037 -0.2167 -1.3476
  520MOL0     C70094   5.860   4.787   9.196  0.1728 -0.1094  1.0167
  520MOL0     O70095   5.975   4.754   9.265  0.5596 -0.3265  0.2268
  520MOL0     C70096   6.047   4.636   9.255 -0.3115 -0.2492 -0.2074
  520MOL0     C70097   6.182   4.643   9.273 -0.6171 -0.1786  0.4533
  520MOL0     C70098   6.269   4.527   9.259  0.1260 -0.7375 -0.4602
  520MOL0     C70099   6.205   4.406   9.234 -0.2963  0.5911  0.1051
  520MOL0     O70100   6.285   4.294   9.204 -0.0182 -0.5593 -0.3776
  520MOL0     C70101   6.239   4.174   9.147  0.1692 -0.3245  0.3888
  520MOL0     C70102   6.354   4.079   9.095  0.1516 -0.3228 -1.1588
  520MOL0     C70103   6.394   3.984   9.196  0.7214  0.3032  0.0995
  520MOL0     C70104   6.507   3.904   9.145  0.1310  0.2167  0.4816
  520MOL0     C70105   6.541   3.809   9.268 -0.0361 -0.8702  0.0515
  520MOL0     C70106   6.658   3.720   9.229 -1.0929  0.1775 -0.3908
  520MOL0     C70107   6.797   3.797   9.241 -0.1107 -0.7337  0.3377
  520MOL0     C70108   6.928   3.711   9.239  0.2826  0.5318  0.5071
  520MOL0    Cl70109   6.955   3.623   9.086  0.0748 -0.1285 -0.0224
  520MOL0     C70110   6.064   4.397   9.237  0.5474 -0.0226  0.4654
  520MOL0     C70111   5.983   4.516   9.248  0.5733  0.1398 -0.0954
  520MOL0     O70112   5.804   4.724   9.105  0.5849 -0.1185 -0.3400
  520MOL0     C70113   5.719   4.969   9.137 -0.3296  0.3281 -0.5829
  520MOL0     C70114   5.686   5.101   9.144 -0.6033 -0.7097  0.6412
  520MOL0     N70115   5.408   5.350   8.842  0.5338 -1.7713 -0.4709
  520MOL0     N70116   5.407   5.225   8.800  0.8004  0.2249 -0.4214
  520MOL0     C70117   5.544   4.527   8.605  0.0722  0.2511  0.6623
  520MOL0     C70118   5.440   4.591   8.673  0.2387  0.2684 -0.8950
  520MOL0     C70119   5.164   4.748   8.962  0.0592 -0.4340 -0.1401
  520MOL0     C70120   5.190   4.884   8.994 -0.1376 -0.1646  0.8013
  520MOL0     C70121   5.087   4.960   9.044  0.3850 -0.0914  0.3360
  520MOL0     C70122   4.960   4.913   9.077  0.2011  0.2617  0.8060
  520MOL0     O70123   4.865   4.998   9.132  0.1089  0.7972  0.4759
  520MOL0     C70124   4.769   5.045   9.035 -0.4941 -0.5163 -0.3882
  520MOL0     C70125   4.811   5.186   8.986  0.6036  0.4684  0.3251
  520MOL0     C70126   4.807   5.301   9.084  0.1892 -0.3631  0.6725
  520MOL0     C70127   4.937   5.333   9.141  0.0927 -0.0967  0.0675
  520MOL0     C70128   5.041   5.374   9.041 -0.3506 -0.2240 -0.2896
  520MOL0     C70129   5.120   5.410   8.963  0.1436  0.8145  0.3851
  520MOL0     C70130   4.941   4.781   9.040 -0.9024  0.6921 -0.0147
  520MOL0     C70131   5.041   4.693   8.988 -0.3968  0.2543 -0.3502
  520MOL0     C70132   5.003   4.551   8.959 -0.4245  0.8559 -0.4270
  520MOL0     H70133   5.643   4.787   8.884  1.9647  0.9879 -1.1172
  520MOL0     H70134   5.804   4.700   8.736  0.2312  1.3141  0.1365
  520MOL0     H70135   5.825   4.472   8.341 -1.4118  1.4376 -1.8889
  520MOL0     H70136   5.672   4.431   8.397 -0.0264  0.9283  2.4359
  520MOL0     H70137   5.615   4.675   8.406 -0.0544  1.6159 -2.2290
  520MOL0     H70138   5.667   4.623   8.234  3.1733 -3.5451 -0.7229
  520MOL0     H70139   5.866   4.724   8.234 -1.2279 -1.5121 -1.2453
  520MOL0     H70140   5.861   4.762   8.403  0.8071 -0.3257 -0.4265
  520MOL0     H70141   5.796   4.935   8.202  3.7429 -3.7662  0.7560
  520MOL0     H70142   5.639   4.868   8.239  0.3683 -2.1547 -0.9694
  520MOL0     H70143   5.741   4.938   8.491 -2.3274  0.5540  1.4565
  520MOL0     H70144   5.768   5.079   8.388  0.0009 -0.2785  1.6874
  520MOL0     H70145   5.529   5.036   8.316  1.9879 -0.4579 -1.8045
  520MOL0     H70146   5.500   4.927   8.446 -0.6039 -0.1965 -0.2947
  520MOL0     H70147   5.414   5.118   8.509 -0.4225 -0.6854 -0.0567
  520MOL0     H70148   5.568   5.213   8.489 -2.0660  1.6306  1.0095
  520MOL0     H70149   5.509   5.000   8.679 -0.2756  0.3591 -0.1013
  520MOL0     H70150   5.676   5.070   8.655  0.6944  2.4388 -3.2272
  520MOL0     H70151   5.720   5.299   8.764  0.9288  1.0474 -3.9519
  520MOL0     H70152   5.679   5.549   8.901 -0.0199 -1.5188  0.4470
  520MOL0     H70153   5.513   5.588   8.874 -2.6486 -1.9700 -1.1400
  520MOL0     H70154   5.502   5.629   9.088  0.4283  0.2866 -0.9234
  520MOL0     H70155   5.476   5.459   9.120  0.1269  0.3417  0.1760
  520MOL0     H70156   5.675   5.596   9.246  1.7250  0.5802  0.6163
  520MOL0     H70157   5.749   5.601   9.091  0.1644 -0.5395  0.5718
  520MOL0     H70158   5.853   5.454   9.234  1.9273 -4.1088 -0.4097
  520MOL0     H70159   5.812   5.363   9.097  0.2690 -4.3033  3.5377
  520MOL0     H70160   5.850   5.182   9.425  0.2901 -0.0750 -0.0946
  520MOL0     H70161   5.921   4.943   9.392  1.6935  2.8667  0.6680
  520MOL0     H70162   6.233   4.738   9.259  0.0705 -0.4564  1.0305
  520MOL0     H70163   6.377   4.532   9.247  0.6453 -4.0784  1.3126
  520MOL0     H70164   6.166   4.116   9.205 -0.6438  0.1961 -0.0946
  520MOL0     H70165   6.183   4.211   9.061 -1.5241 -2.4509  0.4820
  520MOL0     H70166   6.322   4.024   9.006 -2.0190  1.3753 -1.4906
  520MOL0     H70167   6.435   4.145   9.064 -1.9419  3.3212  0.4934
  520MOL0     H70168   6.423   4.034   9.289 -1.6169 -1.3124  1.8267
  520MOL0     H70169   6.312   3.915   9.214  1.5464 -0.6183  0.4602
  520MOL0     H70170   6.586   3.973   9.113 -1.6988  1.2001 -2.2499
  520MOL0     H70171   6.484   3.858   9.049  2.4535  1.4649 -0.7742
  520MOL0     H70172   6.450   3.756   9.298  0.4234 -1.3815  0.5836
  520MOL0     H70173   6.592   3.866   9.346  3.2521 -2.3819 -0.8454
  520MOL0     H70174   6.668   3.636   9.299 -1.2698  0.7425  0.3245
  520MOL0     H70175   6.651   3.690   9.124 -2.3298 -1.4881  0.1335
  520MOL0     H70176   6.796   3.853   9.335 -2.4587  0.1547 -0.1594
  520MOL0     H70177   6.809   3.881   9.172  1.3212 -1.7107 -0.6644
  520MOL0     H70178   7.013   3.777   9.261  0.7740  1.5315 -3.5413
  520MOL0     H70179   6.928   3.635   9.317 -2.6607  1.3780  1.4389
  520MOL0     H70180   6.023   4.299   9.214  1.8967 -0.4674 -0.2241
  520MOL0     H70181   5.875   4.507   9.254  0.6699 -1.3649 -0.1600
  520MOL0     H70182   5.667   4.913   9.060  3.6800 -3.0706 -1.1721
  520MOL0     H70183   5.625   5.144   9.065  0.0211  0.7138  0.8975
  520MOL0     H70184   5.513   4.463   8.523 -1.1855  2.5625 -0.7428
  520MOL0     H70185   5.337   4.572   8.644 -0.3849  0.1159  1.2980
  520MOL0     H70186   5.293   4.915   8.983  0.3540 -2.2026 -0.8937
  520MOL0     H70187   5.109   5.060   9.079 -1.7837  1.1649 -1.6389
  520MOL0     H70188   4.667   5.057   9.071 -0.7670 -2.0099 -0.6080
  520MOL0     H70189   4.772   4.983   8.945  4.0771 -0.7742 -0.3055
  520MOL0     H70190   4.723   5.213   8.927 -1.8927  1.2811  4.0251
  520MOL0     H70191   4.897   5.189   8.919  0.1841 -2.0768 -0.4507
  520MOL0     H70192   4.746   5.268   9.168  0.6153 -6.2240 -0.9169
  520MOL0     H70193   4.765   5.389   9.034 -0.7362  0.1003  2.2104
  520MOL0     H70194   4.918   5.417   9.208 -1.4179  2.5795 -3.3719
  520MOL0     H70195   4.979   5.257   9.207  0.8823  1.9728  2.0537
  520MOL0     H70196   5.191   5.452   8.895  3.2828 -1.4364  1.9787
  520MOL0     H70197   4.849   4.732   9.069  0.2421 -0.1448  2.4226
  520MOL0     H70198   4.902   4.528   8.992  1.0602 -5.7165  0.8865
  520MOL0     H70199   5.029   4.524   8.857 -1.0680 -4.1643  0.4881
  520MOL0     H70200   5.064   4.483   9.020 -0.4896  3.2174  2.5353
  521MOL0     O70201   4.122   3.783   7.805  0.1028  0.5358  0.5240
  521MOL0     C70202   4.039   3.869   7.787  0.6837  0.7976 -0.7459
  521MOL0     O70203   3.901   3.843   7.776  0.2767  0.5314  0.4593
  521MOL0     C70204   3.850   3.722   7.806  0.0201  0.4168 -0.0487
  521MOL0     C70205   3.825   3.689   7.936  0.7251  0.3393  0.6889
  521MOL0     C70206   3.764   3.565   7.970  0.1958 -0.0163  0.6018
  521MOL0     C70207   3.715   3.491   7.868  0.8027  0.1598  0.8720
  521MOL0     O70208   3.639   3.390   7.917  0.6153  0.0121  0.6471
  521MOL0     C70209   3.571   3.288   7.835  0.0648 -0.3821 -0.5021
  521MOL0     C70210   3.645   3.161   7.819 -0.5009  0.5862 -0.4806
  521MOL0     C70211   3.569   3.032   7.803  0.5022  0.5009  0.9032
  521MOL0     C70212   3.652   2.905   7.782  0.7908  0.0359  0.2058
  521MOL0     C70213   3.707   2.920   7.634  1.1120 -0.6064 -0.6299
  521MOL0     C70214   3.742   2.781   7.594  0.0886 -0.3617 -0.3494
  521MOL0     C70215   3.815   2.794   7.464  0.0276  0.1847 -0.5298
  521MOL0     C70216   3.842   2.660   7.400  0.1064  0.5070  0.6175
  521MOL0     N70217   3.916   2.679   7.285  0.3542  0.3202  0.6513
  521MOL0     C70218   4.040   2.733   7.283  0.4590  0.2645  0.3735
  521MOL0     C70219   4.094   2.723   7.166 -0.2555 -0.1143 -0.6956
  521MOL0     C70220   4.236   2.751   7.127 -0.7010  0.6247  0.6547
  521MOL0     C70221   4.267   2.885   7.064 -0.5162 -0.4631  1.8811
  521MOL0     C70222   4.283   2.999   7.180 -0.4007 -0.0123 -0.2081
  521MOL0     C70223   4.424   2.997   7.247  0.0915  0.4309 -0.1423
  521MOL0     O70224   4.522   2.989   7.144  0.7716 -0.4880  0.4254
  521MOL0     C70225   4.652   3.007   7.174 -0.0206 -0.5697  0.6204
  521MOL0     C70226   4.744   2.991   7.072  0.4923  0.6322 -0.0083
  521MOL0     C70227   4.886   3.011   7.087 -0.1970  0.2946 -0.1277
  521MOL0     C70228   4.938   3.048   7.206 -0.5245  0.6688  0.4954
  521MOL0     C70229   5.083   3.067   7.218  0.4890 -0.0584  0.4326
  521MOL0     O70230   5.121   3.145   7.318  0.5888  0.0147 -0.0900
  521MOL0     C70231   5.252   3.159   7.346  0.2351  0.2056  0.9155
  521MOL0     C70232   5.308   3.285   7.368 -1.1882 -0.0097 -0.2167
  521MOL0     C70233   5.441   3.293   7.410 -0.1865 -0.6973 -0.1798
  521MOL0     C70234   5.522   3.184   7.422 -0.3519  0.3229  1.2351
  521MOL0     O70235   5.647   3.209   7.467 -0.3031 -0.8901  0.0903
  521MOL0     C70236   5.705   3.095   7.529 -0.1534  0.1051 -0.4706
  521MOL0     C70237   5.832   3.136   7.592 -0.8373  0.3264  0.0648
  521MOL0     C70238   5.952   3.170   7.501  0.4555 -0.5466  1.6250
  521MOL0     C70239   6.043   3.269   7.575  0.6326 -0.1613 -0.0298
  521MOL0     C70240   6.115   3.371   7.471  0.4032 -0.2142 -0.2168
  521MOL0     C70241   6.210   3.270   7.393  0.2868 -0.0713 -0.0929
  521MOL0     C70242   6.307   3.342   7.292 -0.2903 -0.3647 -1.0057
  521MOL0     C70243   6.360   3.258   7.167 -0.5851 -0.1578  0.9377
  521MOL0    Cl70244   6.476   3.353   7.066  0.1618  0.3141  0.2374
  521MOL0     C70245   5.465   3.056   7.405 -0.2616 -0.1081 -0.5557
  521MOL0     C70246   5.322   3.043   7.371 -0.3701  0.7365 -1.0414
  521MOL0     O70247   5.161   3.021   7.130  0.1941  0.3638  0.9213
  521MOL0     C70248   4.846   3.064   7.318 -0.1090 -0.7633 -0.3379
  521MOL0     C70249   4.706   3.056   7.290  0.5619 -0.1865  0.0190
  521MOL0     N70250   4.005   2.648   7.091 -0.0217  0.3864  1.2599
  521MOL0     N70251   3.901   2.617   7.158  0.0951  0.5119 -0.1249
  521MOL0     C70252   3.755   3.521   7.741  1.0960  0.1898  0.8392
  521MOL0     C70253   3.839   3.625   7.708  0.0117  0.1412 -0.0425
  521MOL0     C70254   4.069   4.010   7.762  0.1514  0.2957  0.2223
  521MOL0     C70255   3.977   4.083   7.678 -0.2370  0.4649  0.0165
  521MOL0     C70256   4.000   4.222   7.639 -0.1507 -0.6694  0.1896
  521MOL0     C70257   4.128   4.282   7.678  0.2063 -0.2729  0.3567
  521MOL0     O70258   4.186   4.398   7.638  0.2196  0.3128 -0.3609
  521MOL0     C70259   4.130   4.456   7.520  0.6893  0.5331 -0.5814
  521MOL0     C70260   4.190   4.591   7.506  0.2375  0.1308  0.3771
  521MOL0     C70261   4.341   4.581   7.470  0.4390  0.3489 -0.7557
  521MOL0     C70262   4.382   4.688   7.364  0.7671 -0.3382 -0.5583
  521MOL0     C70263   4.499   4.635   7.294  1.1063 -0.4651 -0.3557
  521MOL0     C70264   4.599   4.574   7.262  0.2254 -0.0232 -0.7037
  521MOL0     C70265   4.205   4.208   7.775  0.4594  0.7292 -1.1267
  521MOL0     C70266   4.183   4.077   7.815  1.8343 -0.8689  0.5469
  521MOL0     C70267   4.281   4.010   7.910  0.1930 -0.3976  0.9048
  521MOL0     H70268   3.862   3.753   8.015 -0.0123 -3.2293  4.3203
  521MOL0     H70269   3.758   3.544   8.076  0.7372 -2.7756  0.1655
  521MOL0     H70270   3.476   3.275   7.889  0.4278  0.1593  0.2997
  521MOL0     H70271   3.544   3.328   7.737 -1.7850  0.8989  0.4501
  521MOL0     H70272   3.704   3.159   7.912  3.2076  2.1937 -2.5901
  521MOL0     H70273   3.720   3.160   7.740 -0.7311  0.2789 -0.7003
  521MOL0     H70274   3.493   3.037   7.725 -1.5514  0.2003  2.8067
  521MOL0     H70275   3.506   3.023   7.892 -0.5046 -0.2368  0.1436
  521MOL0     H70276   3.738   2.899   7.848  3.7437  2.9356 -2.9722
  521MOL0     H70277   3.573   2.829   7.787 -0.4334  1.2666  0.2219
  521MOL0     H70278   3.635   2.959   7.562 -0.0925 -1.6380 -0.0205
  521MOL0     H70279   3.791   2.989   7.631  0.8771 -0.1601  1.4312
  521MOL0     H70280   3.807   2.737   7.670  2.0764  2.4172 -0.2925
  521MOL0     H70281   3.648   2.725   7.591 -0.3518  0.3562 -0.0851
  521MOL0     H70282   3.911   2.844   7.474  0.7290 -1.2631  0.3639
  521MOL0     H70283   3.748   2.851   7.399 -0.2199  1.1963  0.5840
  521MOL0     H70284   3.910   2.595   7.457 -1.1963 -2.5655 -1.1057
  521MOL0     H70285   3.757   2.593   7.384  1.7817 -1.9505  1.3926
  521MOL0     H70286   4.086   2.790   7.363 -0.2666 -0.6623  1.4880
  521MOL0     H70287   4.304   2.741   7.212 -0.1170  0.6183  0.1965
  521MOL0     H70288   4.264   2.678   7.050 -1.8374  2.3760 -1.4985
  521MOL0     H70289   4.354   2.881   6.996 -0.4098  2.3674  1.7134
  521MOL0     H70290   4.178   2.905   7.003  1.3691 -0.9287 -1.2998
  521MOL0     H70291   4.201   2.995   7.252  1.1644  2.9028  1.9536
  521MOL0     H70292   4.264   3.096   7.133 -4.0032 -0.4658  0.0455
  521MOL0     H70293   4.434   2.906   7.308 -1.4669  0.8717  0.8206
  521MOL0     H70294   4.441   3.073   7.323 -0.5230  0.2435  0.1853
  521MOL0     H70295   4.711   2.934   6.986  2.5213  1.8881 -1.7073
  521MOL0     H70296   4.960   2.995   7.010 -0.3827  2.9425 -0.9570
  521MOL0     H70297   5.247   3.375   7.374  1.8196  2.1612 -0.0228
  521MOL0     H70298   5.481   3.388   7.444 -1.4580 -0.7855  1.7318
  521MOL0     H70299   5.644   3.049   7.606 -0.0535 -0.0634 -0.4914
  521MOL0     H70300   5.729   3.020   7.453  0.0493  0.9184 -1.2243
  521MOL0     H70301   5.807   3.212   7.667 -1.8795  0.0208  0.0452
  521MOL0     H70302   5.874   3.044   7.635 -0.8726 -0.5356 -1.6796
  521MOL0     H70303   6.015   3.084   7.480 -0.3541 -1.0842  1.3736
  521MOL0     H70304   5.898   3.213   7.416 -0.0455 -2.2583  1.0453
  521MOL0     H70305   6.115   3.206   7.629 -2.9791 -1.6555  3.6111
  521MOL0     H70306   5.990   3.332   7.647  1.3434 -0.1664  0.5145
  521MOL0     H70307   6.178   3.439   7.529 -1.5083  0.2200  1.4555
  521MOL0     H70308   6.047   3.428   7.407 -2.2856 -2.0002  0.8826
  521MOL0     H70309   6.267   3.216   7.469 -0.6716  2.3438  2.5032
  521MOL0     H70310   6.149   3.194   7.342 -3.3789  0.5378  2.8742
  521MOL0     H70311   6.391   3.382   7.350 -0.9270  1.1091 -1.0524
  521MOL0     H70312   6.256   3.425   7.242 -0.2219  1.2429  1.4212
  521MOL0     H70313   6.407   3.166   7.203 -0.0937 -1.1674 -2.0202
  521MOL0     H70314   6.275   3.234   7.102 -0.8169  1.8273  0.4405
  521MOL0     H70315   5.515   2.960   7.412 -2.5191 -1.5133 -2.3264
  521MOL0     H70316   5.292   2.939   7.357 -1.3250  0.9321 -0.5013
  521MOL0     H70317   4.894   3.112   7.403 -0.1539 -2.4369  0.6951
  521MOL0     H70318   4.640   3.105   7.361  1.0979  2.0796 -0.9732
  521MOL0     H70319   3.737   3.439   7.672 -1.2666  1.2704  0.0730
  521MOL0     H70320   3.870   3.643   7.605 -0.0765  4.1370  0.5004
  521MOL0     H70321   3.897   4.028   7.631 -0.9171  0.9733  0.5502
  521MOL0     H70322   3.935   4.267   7.564  1.3180 -0.6890 -1.1716
  521MOL0     H70323   4.022   4.468   7.536  0.1676 -2.9367 -0.6965
  521MOL0     H70324   4.146   4.389   7.435 -0.2876 -1.0444  0.4306
  521MOL0     H70325   4.169   4.655   7.592 -0.3740  0.3852  0.0421
  521MOL0     H70326   4.135   4.642   7.427 -1.8233  1.8676  2.7824
  521MOL0     H70327   4.360   4.483   7.426  2.2150  0.8481 -1.2068
  521MOL0     H70328   4.404   4.591   7.559  0.8252 -1.0027 -0.8584
  521MOL0     H70329   4.306   4.704   7.286 -2.9243  0.9693  2.9062
  521MOL0     H70330   4.406   4.780   7.418  0.0874 -0.1666 -0.5333
  521MOL0     H70331   4.674   4.503   7.236 -1.3829 -2.5728  1.1640
  521MOL0     H70332   4.291   4.261   7.812 -1.3614  1.9440  1.6709
  521MOL0     H70333   4.290   4.078   7.995  0.4198  0.9949 -0.2152
  521MOL0     H70334   4.246   3.918   7.960  1.4813 -0.2834  2.0674
  521MOL0     H70335   4.382   3.992   7.872  0.0686  1.0604 -0.1893
  522MOL0     O70336   1.503   3.864   9.062 -0.0256 -0.2519  0.1207
  522MOL0     C70337   1.440   3.764   9.017  0.1071  0.2017 -0.3072
  522MOL0     O70338   1.311   3.742   9.021  0.3261 -0.9940 -0.4948
  522MOL0     C70339   1.224   3.809   9.104 -0.0231  0.5774 -0.3956
  522MOL0     C70340   1.135   3.900   9.042 -0.0113  0.1711  1.0600
  522MOL0     C70341   1.056   3.982   9.122 -0.8090 -0.7560 -0.6074
  522MOL0     C70342   1.054   3.965   9.265 -0.7312 -0.7246  0.3807
  522MOL0     O70343   0.978   4.056   9.333  0.1124 -0.2362  0.3172
  522MOL0     C70344   0.894   4.008   9.437 -0.4972 -0.0638  0.5174
  522MOL0     C70345   0.806   4.126   9.463 -0.0615  0.2941 -0.2087
  522MOL0     C70346   0.697   4.138   9.352  1.5238  0.3465  0.2579
  522MOL0     C70347   0.631   4.279   9.353 -0.4201 -0.3367  0.3905
  522MOL0     C70348   0.557   4.329   9.230  0.7667  0.4325  0.0116
  522MOL0     C70349   0.460   4.450   9.242  0.1158 -1.7962 -0.8941
  522MOL0     C70350   0.423   4.512   9.109 -0.3471 -0.2393  0.5446
  522MOL0     C70351   0.326   4.625   9.136 -0.3543 -0.0505 -0.5128
  522MOL0     N70352   0.281   4.693   9.010 -0.2154  0.2745 -0.2076
  522MOL0     C70353   0.360   4.715   8.898  0.1305  0.2272  0.1790
  522MOL0     C70354   0.266   4.738   8.802  0.2487  1.0075  0.0636
  522MOL0     C70355   0.289   4.773   8.658 -0.7733 -0.5495 -0.0690
  522MOL0     C70356   0.217   4.666   8.563  0.0235 -0.4797  0.4699
  522MOL0     C70357   0.235   4.680   8.411  0.1338  0.0059  0.1921
  522MOL0     C70358   0.158   4.564   8.331 -0.4043  0.1699  0.5595
  522MOL0     O70359   0.148   4.571   8.188 -0.2735  0.6883 -0.1651
  522MOL0     C70360   0.063   4.661   8.134  0.7026  0.2572 -0.3852
  522MOL0     C70361   0.087   4.679   7.996  0.5029 -0.3460  0.4264
  522MOL0     C70362  -0.008   4.766   7.926 -0.5141 -0.4978  0.7782
  522MOL0     C70363  -0.108   4.832   7.997  0.2617  0.0123  0.2432
  522MOL0     C70364  -0.213   4.908   7.924 -0.4086  0.3301  0.1636
  522MOL0     O70365  -0.165   4.949   7.810  0.0752  0.0477  0.0141
  522MOL0     C70366  -0.247   5.007   7.717 -1.2181 -0.7160  0.1137
  522MOL0     C70367  -0.383   4.995   7.693 -0.9078 -0.6673 -0.4298
  522MOL0     C70368  -0.445   5.075   7.592 -0.9837 -0.3774 -0.3777
  522MOL0     C70369  -0.365   5.165   7.510  0.4397 -0.3055 -1.6000
  522MOL0     O70370  -0.421   5.257   7.424  0.0524 -0.4231  0.2642
  522MOL0     C70371  -0.541   5.228   7.351 -0.3041  0.1266 -0.1189
  522MOL0     C70372  -0.502   5.163   7.214 -0.8010 -0.3333  0.8724
  522MOL0     C70373  -0.635   5.111   7.161  0.4272 -0.6966  0.1722
  522MOL0     C70374  -0.638   5.127   7.012 -1.0126 -0.2384  0.2903
  522MOL0     C70375  -0.755   5.061   6.955 -0.3753  0.3866 -0.3266
  522MOL0     C70376  -0.775   5.086   6.813 -0.1185  0.8184 -0.3677
  522MOL0     C70377  -0.684   4.989   6.725 -0.6638 -0.1539  0.2628
  522MOL0     C70378  -0.715   5.021   6.579 -0.6144 -0.8318 -0.4551
  522MOL0    Cl70379  -0.625   4.919   6.459  0.1881 -0.1911 -0.1956
  522MOL0     C70380  -0.235   5.170   7.542 -0.3247 -0.3299 -0.0339
  522MOL0     C70381  -0.169   5.088   7.630 -0.4262 -0.7691 -0.6239
  522MOL0     O70382  -0.332   4.915   7.958 -0.3665 -0.1517 -0.7376
  522MOL0     C70383  -0.127   4.817   8.137  0.8841 -0.7376 -0.6874
  522MOL0     C70384  -0.051   4.719   8.196  0.0043  0.4116  0.2838
  522MOL0     N70385   0.146   4.726   8.859 -0.0140  0.7927 -0.7350
  522MOL0     N70386   0.153   4.701   8.981  0.1822 -0.0605  0.3344
  522MOL0     C70387   1.145   3.879   9.328  0.8499  0.4918  1.0817
  522MOL0     C70388   1.232   3.802   9.241 -0.2637  0.1961 -0.6180
  522MOL0     C70389   1.522   3.668   8.930  0.4874  0.8264 -0.2381
  522MOL0     C70390   1.494   3.678   8.793 -0.3847  0.5203 -0.0671
  522MOL0     C70391   1.560   3.591   8.703  0.1116 -0.2835  0.0001
  522MOL0     C70392   1.659   3.511   8.745  0.6296 -0.2523  0.0493
  522MOL0     O70393   1.729   3.447   8.650 -0.1416 -0.0929 -0.3296
  522MOL0     C70394   1.848   3.371   8.679  0.3192 -0.6553  0.1603
  522MOL0     C70395   1.894   3.304   8.556  0.0182 -0.1552  0.4409
  522MOL0     C70396   1.792   3.196   8.514  0.3347  0.2118 -0.6125
  522MOL0     C70397   1.839   3.064   8.438 -0.3951  0.6404 -0.1222
  522MOL0     C70398   1.746   2.992   8.349 -0.2371 -1.1013 -0.0113
  522MOL0     C70399   1.655   2.943   8.282 -0.4224 -0.4964 -0.0781
  522MOL0     C70400   1.686   3.501   8.880 -0.8176 -0.0290 -0.0295
  522MOL0     C70401   1.616   3.574   8.976 -0.4585 -0.8317  0.1292
  522MOL0     C70402   1.658   3.566   9.123 -0.1730  0.2795  0.1695
  522MOL0     H70403   1.121   3.888   8.935 -1.2067  0.8046  1.1223
  522MOL0     H70404   0.993   4.064   9.089 -1.1710 -0.6325  0.3599
  522MOL0     H70405   0.847   3.915   9.403  2.1207 -2.5555  3.1377
  522MOL0     H70406   0.962   3.992   9.521 -1.1397 -2.2005  0.6755
  522MOL0     H70407   0.877   4.209   9.475  2.4448 -1.7902  0.2393
  522MOL0     H70408   0.748   4.119   9.556 -2.6070  0.6690 -1.6898
  522MOL0     H70409   0.619   4.061   9.355  2.5704 -1.2243 -4.2907
  522MOL0     H70410   0.748   4.137   9.255  0.1595  4.2993 -0.7096
  522MOL0     H70411   0.545   4.273   9.421 -2.5246  2.1567 -1.8152
  522MOL0     H70412   0.711   4.348   9.382  0.3395 -1.4370  0.9861
  522MOL0     H70413   0.644   4.352   9.168  2.4594 -1.8052  1.3993
  522MOL0     H70414   0.501   4.253   9.175  2.1647  0.0825 -1.0003
  522MOL0     H70415   0.367   4.423   9.294 -0.6117  2.5289  0.4800
  522MOL0     H70416   0.492   4.525   9.315  0.5346 -0.1774 -2.6529
  522MOL0     H70417   0.382   4.442   9.036 -1.4060  2.3950 -1.5306
  522MOL0     H70418   0.514   4.558   9.068  0.2622 -2.1704 -0.4134
  522MOL0     H70419   0.235   4.576   9.171 -0.6475  0.1407 -0.9996
  522MOL0     H70420   0.360   4.694   9.214 -2.3668 -0.5980  0.9305
  522MOL0     H70421   0.468   4.723   8.890  0.0750 -0.9671 -4.7871
  522MOL0     H70422   0.247   4.872   8.638 -1.7164 -1.2405 -1.7539
  522MOL0     H70423   0.398   4.782   8.645 -1.0430  0.9609 -1.7003
  522MOL0     H70424   0.267   4.572   8.589  1.9535  0.4473  0.2983
  522MOL0     H70425   0.110   4.673   8.585 -0.3672  0.8365 -1.5588
  522MOL0     H70426   0.343   4.689   8.404  0.0366  1.9275  0.5689
  522MOL0     H70427   0.186   4.773   8.381 -0.5491 -0.2914  0.3617
  522MOL0     H70428   0.058   4.547   8.374 -1.1890  0.3535 -1.1317
  522MOL0     H70429   0.225   4.483   8.360  0.3444  1.2654  2.0354
  522MOL0     H70430   0.165   4.627   7.942  0.5695  0.3157 -0.1282
  522MOL0     H70431  -0.011   4.783   7.819 -3.0398  1.7055  1.0873
  522MOL0     H70432  -0.448   4.927   7.748 -1.8894 -1.4058 -2.3696
  522MOL0     H70433  -0.553   5.067   7.591 -0.9267 -1.6635  1.0158
  522MOL0     H70434  -0.611   5.160   7.401  1.2174 -1.3985  0.0481
  522MOL0     H70435  -0.588   5.324   7.329  2.2262  2.0005  1.9416
  522MOL0     H70436  -0.450   5.232   7.147  1.4670 -0.4180  2.4446
  522MOL0     H70437  -0.436   5.078   7.232  2.6600  2.1384  0.7893
  522MOL0     H70438  -0.652   5.006   7.185 -1.3718 -0.8910 -1.7016
  522MOL0     H70439  -0.717   5.175   7.194 -1.5601 -0.7104 -4.0797
  522MOL0     H70440  -0.552   5.081   6.962 -1.8519  0.4637 -1.8839
  522MOL0     H70441  -0.633   5.234   6.992  1.0019 -0.2814  0.3249
  522MOL0     H70442  -0.844   5.095   7.008 -1.2383 -1.1036 -0.7896
  522MOL0     H70443  -0.756   4.955   6.981  0.1944  0.4784  0.0924
  522MOL0     H70444  -0.881   5.074   6.788  0.3182 -1.0463 -1.4714
  522MOL0     H70445  -0.756   5.193   6.802  0.0694  1.0296  1.6758
  522MOL0     H70446  -0.711   4.885   6.746 -2.7312  0.1062 -0.8759
  522MOL0     H70447  -0.577   5.001   6.744 -0.1426 -2.9005 -0.3871
  522MOL0     H70448  -0.823   5.020   6.558 -1.5466 -0.5709  3.4811
  522MOL0     H70449  -0.678   5.122   6.563 -0.0807 -1.4044 -3.3216
  522MOL0     H70450  -0.171   5.241   7.491 -1.4335 -1.1491 -2.7676
  522MOL0     H70451  -0.063   5.105   7.649 -0.7578  0.3996  0.2449
  522MOL0     H70452  -0.212   4.867   8.184 -1.1229 -1.6596 -3.0913
  522MOL0     H70453  -0.079   4.703   8.300  2.1206 -0.7940  0.7422
  522MOL0     H70454   1.151   3.854   9.433  2.0906 -1.5082  0.5958
  522MOL0     H70455   1.291   3.734   9.301  1.2416  0.5828 -1.6122
  522MOL0     H70456   1.421   3.748   8.754  0.2930  2.1612  1.4327
  522MOL0     H70457   1.513   3.586   8.605 -3.9123 -0.4815  1.7705
  522MOL0     H70458   1.839   3.296   8.758 -0.1342 -1.2519 -0.4483
  522MOL0     H70459   1.932   3.439   8.698  0.2748 -0.0476 -1.6822
  522MOL0     H70460   1.988   3.250   8.575  0.3373  0.3548  0.3286
  522MOL0     H70461   1.914   3.376   8.477 -1.6546  1.1595  1.1583
  522MOL0     H70462   1.708   3.236   8.457 -0.1924 -0.9010 -0.6330
  522MOL0     H70463   1.751   3.152   8.606 -0.4181 -0.3833 -1.2244
  522MOL0     H70464   1.922   3.087   8.370  1.2003 -0.9787  1.1480
  522MOL0     H70465   1.881   2.995   8.512  0.2610  0.6319 -0.4957
  522MOL0     H70466   1.582   2.890   8.224 -1.3768  2.9839 -2.3728
  522MOL0     H70467   1.764   3.433   8.913  0.2081  2.5169  3.3380
  522MOL0     H70468   1.663   3.666   9.168  1.9984  1.4258 -2.3038
  522MOL0     H70469   1.586   3.501   9.173  2.3970 -1.9546  1.2221
  522MOL0     H70470   1.761   3.530   9.115 -0.8987 -1.5047 -3.9604
  523MOL0     O70471   6.023   1.555   1.805 -0.2656 -0.2042 -0.3603
  523MOL0     C70472   5.945   1.474   1.865 -0.5476  0.1023  0.3555
  523MOL0     O70473   5.826   1.516   1.929 -0.6729  0.7323 -0.5096
  523MOL0     C70474   5.788   1.642   1.926 -1.4439 -1.0628 -0.4183
  523MOL0     C70475   5.870   1.735   1.997  1.0995 -0.2218 -0.4311
  523MOL0     C70476   5.823   1.866   2.012  0.2962 -0.4747  1.1521
  523MOL0     C70477   5.697   1.899   1.944  0.3156 -0.1853 -0.2392
  523MOL0     O70478   5.646   2.021   1.955 -0.4711  0.4476 -0.2902
  523MOL0     C70479   5.606   2.065   2.087 -0.1195 -0.1084  0.4217
  523MOL0     C70480   5.485   1.982   2.146  0.1041  0.1706 -0.3997
  523MOL0     C70481   5.354   1.995   2.053  0.0508  0.0519  0.7109
  523MOL0     C70482   5.234   1.952   2.133  1.1544 -0.5484  0.2485
  523MOL0     C70483   5.241   1.817   2.191 -0.1647 -0.1285 -0.7346
  523MOL0     C70484   5.100   1.774   2.226 -0.2174  0.3359  0.1058
  523MOL0     C70485   5.094   1.649   2.307 -0.2906  0.7995 -0.3427
  523MOL0     C70486   5.172   1.524   2.256  1.0762 -0.7347 -0.3432
  523MOL0     N70487   5.098   1.466   2.143  0.5562  0.6386 -0.4133
  523MOL0     C70488   5.125   1.490   2.012  0.5564  0.3726 -0.0175
  523MOL0     C70489   5.037   1.421   1.938 -0.3666 -0.3409 -0.3089
  523MOL0     C70490   5.038   1.399   1.784 -0.0759 -0.2412 -1.1556
  523MOL0     C70491   4.952   1.514   1.718 -1.2912  1.1650  1.0704
  523MOL0     C70492   4.805   1.523   1.758  0.0699 -1.4265  0.0672
  523MOL0     C70493   4.722   1.630   1.676 -0.4620 -0.0954 -0.4180
  523MOL0     O70494   4.705   1.599   1.538  0.2195 -0.5792  0.4397
  523MOL0     C70495   4.617   1.664   1.455  0.0503 -0.1863 -0.8184
  523MOL0     C70496   4.491   1.716   1.489  0.6319  1.6934 -0.2077
  523MOL0     C70497   4.411   1.778   1.392 -0.1807 -0.4087 -0.5773
  523MOL0     C70498   4.447   1.796   1.263 -0.0780 -0.5406 -0.1058
  523MOL0     C70499   4.361   1.881   1.177 -0.0925 -0.5355  0.3981
  523MOL0     O70500   4.237   1.897   1.201 -0.0265 -0.7267 -0.2107
  523MOL0     C70501   4.149   1.903   1.100 -0.7200  0.0547  0.4324
  523MOL0     C70502   4.038   1.986   1.132 -0.1949  0.2092 -0.2387
  523MOL0     C70503   3.933   1.998   1.033 -0.4296 -1.0785  0.1350
  523MOL0     C70504   3.951   1.937   0.908 -0.3184 -0.5131  1.2456
  523MOL0     O70505   3.851   1.969   0.816 -0.1279  0.2370  0.1704
  523MOL0     C70506   3.772   1.856   0.764 -0.4069 -0.0823  1.0241
  523MOL0     C70507   3.672   1.800   0.871 -0.8365 -0.0869  0.2393
  523MOL0     C70508   3.567   1.729   0.784  0.0519 -0.0959  0.2034
  523MOL0     C70509   3.431   1.703   0.853  0.0860 -0.1291  0.4967
  523MOL0     C70510   3.310   1.637   0.777 -0.1329 -0.0846 -0.3296
  523MOL0     C70511   3.181   1.687   0.849 -0.2294  0.1395 -0.5019
  523MOL0     C70512   3.072   1.668   0.754 -0.8701 -0.1909  0.2383
  523MOL0     C70513   2.961   1.765   0.787 -0.0128  0.4885  0.7812
  523MOL0    Cl70514   2.894   1.752   0.952 -0.2958 -0.2257  0.1910
  523MOL0     C70515   4.067   1.866   0.874 -0.0878  0.7400 -0.0711
  523MOL0     C70516   4.161   1.846   0.972 -0.5921  1.1828 -0.1388
  523MOL0     O70517   4.417   1.924   1.078  0.3625  0.1483 -0.1213
  523MOL0     C70518   4.567   1.739   1.225  1.1394 -0.5801 -0.1591
  523MOL0     C70519   4.659   1.678   1.314  0.9908  0.7923 -0.9342
  523MOL0     N70520   4.944   1.362   2.026  0.5248 -0.3864 -0.6081
  523MOL0     N70521   4.987   1.380   2.150 -0.6358 -0.0298 -0.3655
  523MOL0     C70522   5.623   1.805   1.864  0.0041  0.3501 -0.0174
  523MOL0     C70523   5.677   1.674   1.857  0.2209  0.8662  0.4153
  523MOL0     C70524   5.968   1.327   1.868 -0.0017  0.5338 -0.6824
  523MOL0     C70525   5.913   1.258   1.975  0.0513 -0.3881  0.5716
  523MOL0     C70526   5.951   1.124   2.005 -0.5631  0.9535 -0.3787
  523MOL0     C70527   6.050   1.062   1.927 -0.4827  0.3546 -0.2892
  523MOL0     O70528   6.095   0.935   1.927  0.0582 -0.1621 -0.0510
  523MOL0     C70529   6.143   0.886   2.048 -0.0686 -0.2263  0.0513
  523MOL0     C70530   6.108   0.740   2.066 -0.1117 -0.6000 -0.0753
  523MOL0     C70531   6.179   0.675   2.185 -0.4762 -0.7494 -0.2448
  523MOL0     C70532   6.128   0.730   2.329  0.1551  0.5760  0.1797
  523MOL0     C70533   5.982   0.708   2.350 -0.1950 -0.4605  0.6506
  523MOL0     C70534   5.858   0.699   2.348 -0.3154  0.2693 -0.3979
  523MOL0     C70535   6.099   1.135   1.817 -0.0763  0.4205 -0.2679
  523MOL0     C70536   6.056   1.266   1.780 -0.1239 -0.3833  1.4683
  523MOL0     C70537   6.122   1.327   1.663  0.0085  0.4426 -0.2319
  523MOL0     H70538   5.954   1.704   2.058  2.0823  0.0687 -1.5915
  523MOL0     H70539   5.868   1.945   2.071  1.9799 -1.4996  1.3316
  523MOL0     H70540   5.687   2.032   2.153  0.0768 -2.3939 -0.8752
  523MOL0     H70541   5.572   2.169   2.098 -0.2105  0.0067 -0.8205
  523MOL0     H70542   5.457   2.026   2.242 -2.7001  2.2169 -2.0193
  523MOL0     H70543   5.501   1.876   2.163  1.2727  0.6886  2.2357
  523MOL0     H70544   5.355   1.934   1.962  1.1597 -0.9102  1.3297
  523MOL0     H70545   5.342   2.097   2.015  0.6440 -0.1873 -0.1600
  523MOL0     H70546   5.211   2.021   2.214 -3.2233 -0.4925 -0.8164
  523MOL0     H70547   5.156   1.962   2.057  1.5608 -2.0378 -0.4062
  523MOL0     H70548   5.281   1.740   2.123  0.3373 -1.5548  1.0904
  523MOL0     H70549   5.304   1.823   2.280  0.9931 -0.1714 -1.5221
  523MOL0     H70550   5.055   1.851   2.288 -2.1734 -0.2450 -0.5240
  523MOL0     H70551   5.045   1.748   2.135 -1.0431 -0.9465  0.9343
  523MOL0     H70552   4.991   1.618   2.324  0.7255 -2.0903  1.2806
  523MOL0     H70553   5.128   1.670   2.409 -3.7170  0.8617  0.9002
  523MOL0     H70554   5.274   1.560   2.235  2.5258 -2.0136  3.6720
  523MOL0     H70555   5.174   1.446   2.332  0.5173  0.7504  1.2561
  523MOL0     H70556   5.206   1.558   1.985  0.0712  0.7259 -0.6130
  523MOL0     H70557   5.145   1.403   1.760  0.3575 -0.5190  0.5423
  523MOL0     H70558   5.000   1.298   1.767 -3.7308  1.2365 -2.7333
  523MOL0     H70559   5.009   1.603   1.745  1.8360 -0.6522  0.9834
  523MOL0     H70560   4.957   1.489   1.611  1.6824  1.4116  1.0651
  523MOL0     H70561   4.799   1.554   1.863 -0.4389  1.1782 -0.6599
  523MOL0     H70562   4.748   1.430   1.755 -1.1908 -0.6847  0.2880
  523MOL0     H70563   4.767   1.728   1.694  0.4703 -0.6609  0.4861
  523MOL0     H70564   4.626   1.625   1.728 -0.2163 -2.4110 -0.1082
  523MOL0     H70565   4.450   1.697   1.588 -1.4021 -0.4999 -1.3742
  523MOL0     H70566   4.312   1.809   1.423  1.1026  3.0847  0.5808
  523MOL0     H70567   4.037   2.044   1.223  3.8804 -1.4144  1.1115
  523MOL0     H70568   3.849   2.061   1.060  1.4144  1.3559  0.5425
  523MOL0     H70569   3.722   1.903   0.679 -0.9697 -1.2371  0.6912
  523MOL0     H70570   3.856   1.788   0.745  2.7824  2.4440  4.5045
  523MOL0     H70571   3.713   1.733   0.948 -0.1605  0.1308  0.0828
  523MOL0     H70572   3.633   1.891   0.918  0.8551  1.5485 -1.3301
  523MOL0     H70573   3.536   1.781   0.692  0.6943  0.5159  0.3271
  523MOL0     H70574   3.608   1.636   0.742  1.1409  0.7726 -0.7015
  523MOL0     H70575   3.392   1.797   0.893 -1.5767 -0.0427 -1.1737
  523MOL0     H70576   3.452   1.638   0.938 -0.9518 -0.2885  0.6372
  523MOL0     H70577   3.305   1.533   0.809 -0.6823  1.3404  5.1284
  523MOL0     H70578   3.310   1.663   0.670  0.3599 -2.2398 -0.8958
  523MOL0     H70579   3.174   1.629   0.941 -2.0661  3.2155  1.4906
  523MOL0     H70580   3.184   1.794   0.872 -1.0555  0.6588 -2.5780
  523MOL0     H70581   3.037   1.565   0.757 -2.6117  0.3799  1.8685
  523MOL0     H70582   3.103   1.706   0.657  1.7700 -0.0898  1.0339
  523MOL0     H70583   3.004   1.863   0.765  0.0253  0.9318  2.6890
  523MOL0     H70584   2.886   1.756   0.708 -0.3313  0.8210  1.0457
  523MOL0     H70585   4.070   1.824   0.774 -0.8375  0.1561  0.1444
  523MOL0     H70586   4.244   1.779   0.953  0.7128  2.1480  1.7856
  523MOL0     H70587   4.594   1.763   1.122 -1.6587  1.5210 -0.5181
  523MOL0     H70588   4.750   1.637   1.271  3.0366  0.7929  2.9415
  523MOL0     H70589   5.529   1.835   1.818 -0.9020  2.1354  2.7502
  523MOL0     H70590   5.626   1.594   1.804  2.0280 -0.3514  0.4459
  523MOL0     H70591   5.837   1.315   2.028 -0.7985 -0.5594 -0.4277
  523MOL0     H70592   5.927   1.080   2.101  2.2540  0.0204 -0.0087
  523MOL0     H70593   6.105   0.943   2.133  0.3579  1.4232 -0.8156
  523MOL0     H70594   6.251   0.899   2.043  0.8109 -5.4773 -0.2424
  523MOL0     H70595   6.138   0.680   1.979 -0.2641  0.9299 -1.2150
  523MOL0     H70596   6.000   0.728   2.078 -0.2934  0.6621 -0.3519
  523MOL0     H70597   6.286   0.694   2.192 -0.5511 -0.3108 -0.2292
  523MOL0     H70598   6.164   0.567   2.184 -3.9286 -0.3909  0.5160
  523MOL0     H70599   6.191   0.673   2.398 -1.2290 -0.2195  0.8112
  523MOL0     H70600   6.153   0.836   2.338 -1.4353  0.9834  0.0390
  523MOL0     H70601   5.753   0.705   2.328 -0.9817 -4.1081  0.6391
  523MOL0     H70602   6.155   1.076   1.745  1.9761  2.5748 -0.5485
  523MOL0     H70603   6.206   1.392   1.690  0.4157  1.2874 -3.1165
  523MOL0     H70604   6.159   1.256   1.588  1.4290 -0.0964  0.9215
  523MOL0     H70605   6.058   1.384   1.595  1.5353  0.4699 -1.7263
  524MOL0     O70606   3.419   0.489   8.590 -0.0222  0.3005 -0.8084
  524MOL0     C70607   3.495   0.529   8.498 -0.6386  0.3224 -0.5931
  524MOL0     O70608   3.495   0.654   8.441 -0.2309  0.0264  0.6643
  524MOL0     C70609   3.391   0.752   8.446 -0.5940  1.1611  0.2556
  524MOL0     C70610   3.419   0.882   8.410  0.6260 -0.8137 -0.2237
  524MOL0     C70611   3.318   0.981   8.418  0.4293 -0.0900  0.1758
  524MOL0     C70612   3.192   0.944   8.459  0.0943 -0.7121 -0.2629
  524MOL0     O70613   3.099   1.050   8.484 -0.0512 -0.8434  0.1604
  524MOL0     C70614   2.951   1.027   8.504 -0.0226 -0.5773 -0.1764
  524MOL0     C70615   2.913   0.963   8.638  0.3667 -0.4421 -0.6550
  524MOL0     C70616   2.903   1.070   8.747  0.0866 -0.5803 -0.7564
  524MOL0     C70617   2.849   1.014   8.876  0.4646  0.3121 -0.3168
  524MOL0     C70618   2.816   1.115   8.989 -0.1472  1.1553  0.9626
  524MOL0     C70619   2.927   1.207   9.037 -0.2230 -0.2082 -1.0160
  524MOL0     C70620   3.065   1.125   9.053  0.4374 -0.4767 -0.0378
  524MOL0     C70621   3.174   1.204   9.134  0.6733  0.7134 -0.2827
  524MOL0     N70622   3.170   1.236   9.286 -0.0861 -0.2388  0.6339
  524MOL0     C70623   3.193   1.140   9.381  1.0342  0.5769  0.3561
  524MOL0     C70624   3.134   1.187   9.492 -0.0546  0.7541 -0.1731
  524MOL0     C70625   3.137   1.126   9.629 -0.8721  0.1828 -0.0529
  524MOL0     C70626   3.062   0.994   9.642 -0.0415  0.0142 -0.1835
  524MOL0     C70627   3.070   0.930   9.780 -1.1030 -0.5001  0.1832
  524MOL0     C70628   2.973   0.810   9.781  0.0643  0.0239  0.4441
  524MOL0     O70629   2.833   0.852   9.789 -0.0943  0.0319 -0.7100
  524MOL0     C70630   2.743   0.763   9.837  0.3668 -0.3676  0.3125
  524MOL0     C70631   2.775   0.630   9.847 -0.4356  0.3037 -1.0381
  524MOL0     C70632   2.700   0.542   9.923 -0.4174  0.7606  0.2456
  524MOL0     C70633   2.574   0.587   9.980 -0.1680 -0.0538 -0.5400
  524MOL0     C70634   2.483   0.486  10.049 -0.7086  0.1510  0.3275
  524MOL0     O70635   2.525   0.364  10.056 -0.3851  1.3979  0.3216
  524MOL0     C70636   2.439   0.262  10.085  1.0083 -0.6333  0.2260
  524MOL0     C70637   2.392   0.238  10.218 -0.6653  0.4652 -0.7067
  524MOL0     C70638   2.294   0.134  10.247  0.4997 -0.1931  1.3899
  524MOL0     C70639   2.258   0.054  10.139  1.0956  0.0149 -0.1653
  524MOL0     O70640   2.151  -0.042  10.175 -0.4054  0.5365  0.5638
  524MOL0     C70641   2.082  -0.113  10.067 -0.2806  0.6568 -0.8454
  524MOL0     C70642   1.977  -0.221  10.116 -0.5481 -0.7008 -0.3058
  524MOL0     C70643   1.872  -0.153  10.198  0.3621 -0.2630 -0.1146
  524MOL0     C70644   1.764  -0.252  10.242 -0.4454  0.5983  0.3535
  524MOL0     C70645   1.656  -0.175  10.314  0.3856  0.0432 -1.1861
  524MOL0     C70646   1.698  -0.119  10.448  0.4042  0.4115 -1.4445
  524MOL0     C70647   1.580  -0.050  10.495 -0.2959  0.7313  0.0568
  524MOL0     C70648   1.607  -0.008  10.633 -0.4380 -0.0535 -0.4934
  524MOL0    Cl70649   1.474   0.076  10.715  0.4887  0.2444  0.3625
  524MOL0     C70650   2.304   0.070  10.010  0.4997  0.4960 -0.2701
  524MOL0     C70651   2.402   0.170   9.990 -0.7147  0.2753  0.3507
  524MOL0     O70652   2.385   0.523  10.101  0.3247  0.3577  0.5844
  524MOL0     C70653   2.542   0.726   9.963 -0.4202  0.2225 -0.9928
  524MOL0     C70654   2.625   0.812   9.896 -0.8979 -0.6030  0.2912
  524MOL0     N70655   3.075   1.309   9.461  0.2225  0.9035 -0.2221
  524MOL0     N70656   3.101   1.336   9.348 -1.1318  0.4232  0.2483
  524MOL0     C70657   3.164   0.810   8.480  0.5878  0.3085 -1.2940
  524MOL0     C70658   3.259   0.714   8.464 -0.5955  0.3511 -0.4666
  524MOL0     C70659   3.607   0.441   8.442 -0.6419 -0.5319 -0.5599
  524MOL0     C70660   3.686   0.481   8.330  1.4537  0.1188  0.1601
  524MOL0     C70661   3.794   0.417   8.288  0.2055 -0.1407  0.5749
  524MOL0     C70662   3.825   0.298   8.341  0.4098 -0.0470  0.5437
  524MOL0     O70663   3.922   0.208   8.295  0.3094  1.1382 -0.0991
  524MOL0     C70664   4.026   0.277   8.213  1.0062  0.3632 -0.0321
  524MOL0     C70665   4.153   0.194   8.224  0.3695 -0.3291  0.2458
  524MOL0     C70666   4.207   0.184   8.366 -0.1641  0.3287 -0.1722
  524MOL0     C70667   4.346   0.106   8.355  0.5320  0.6822 -0.3842
  524MOL0     C70668   4.451   0.186   8.297 -0.5751  0.3841  0.6714
  524MOL0     C70669   4.547   0.238   8.237 -0.2450 -0.1740  0.3907
  524MOL0     C70670   3.753   0.256   8.447 -0.8337 -0.1971  0.4949
  524MOL0     C70671   3.642   0.314   8.498  0.6217 -0.7252 -0.3982
  524MOL0     C70672   3.569   0.246   8.602  0.9172  0.0607 -0.1124
  524MOL0     H70673   3.518   0.905   8.372 -0.3524  0.1597 -2.3302
  524MOL0     H70674   3.329   1.085   8.390 -2.9327  0.8760  1.8908
  524MOL0     H70675   2.900   1.124   8.499 -0.9092 -1.0721 -1.2025
  524MOL0     H70676   2.926   0.971   8.413 -1.9344  3.6060 -2.5213
  524MOL0     H70677   2.973   0.875   8.662 -0.4789 -0.6828  0.6726
  524MOL0     H70678   2.814   0.919   8.625  0.3589 -1.0032  1.0596
  524MOL0     H70679   2.844   1.155   8.712  1.8724  1.0875  0.1008
  524MOL0     H70680   2.998   1.121   8.767  0.3143 -1.0484 -0.6292
  524MOL0     H70681   2.755   0.960   8.858  0.0075 -0.0082  2.4885
  524MOL0     H70682   2.912   0.932   8.911 -1.0931 -0.8424 -0.0898
  524MOL0     H70683   2.748   1.187   8.942  0.6686  1.7202  0.6305
  524MOL0     H70684   2.769   1.064   9.074 -2.1204  1.3547  0.0556
  524MOL0     H70685   2.949   1.293   8.972 -2.9439  1.2216 -0.1731
  524MOL0     H70686   2.890   1.246   9.132 -0.2091 -0.1888 -1.0177
  524MOL0     H70687   3.107   1.095   8.956 -0.5459 -0.5599 -0.4550
  524MOL0     H70688   3.048   1.033   9.109  0.8100  0.0989  1.0435
  524MOL0     H70689   3.261   1.140   9.118 -0.5654 -2.5460  4.1442
  524MOL0     H70690   3.190   1.296   9.077  4.0069 -0.7351 -1.9533
  524MOL0     H70691   3.255   1.051   9.374  2.5583  1.2630  3.3075
  524MOL0     H70692   3.243   1.108   9.647 -1.2559 -2.2911  0.1317
  524MOL0     H70693   3.097   1.196   9.703 -1.7420  0.5814 -0.8764
  524MOL0     H70694   2.958   1.010   9.614 -0.0880  0.8617  0.4506
  524MOL0     H70695   3.112   0.926   9.572  1.2333  1.6931 -0.9830
  524MOL0     H70696   3.043   1.008   9.852  3.1545  0.6133  0.8914
  524MOL0     H70697   3.179   0.916   9.778 -0.8096  1.2807  1.3783
  524MOL0     H70698   2.990   0.763   9.878 -0.8689 -0.1476  0.5331
  524MOL0     H70699   2.995   0.741   9.699  1.1960 -0.5027  1.1854
  524MOL0     H70700   2.866   0.597   9.798  1.1572  0.4268  1.6351
  524MOL0     H70701   2.734   0.439   9.922 -3.0811 -0.2087  0.7871
  524MOL0     H70702   2.407   0.314  10.293 -2.0685  0.1064 -0.0272
  524MOL0     H70703   2.248   0.114  10.343 -1.6764  2.0404  0.8878
  524MOL0     H70704   2.032  -0.035  10.010  0.6253  3.2767  1.6888
  524MOL0     H70705   2.152  -0.170  10.005  0.9127  1.9785 -0.7608
  524MOL0     H70706   1.925  -0.266  10.030 -1.1585  0.5461 -0.6067
  524MOL0     H70707   2.037  -0.296  10.168  4.3393 -0.2720 -4.5525
  524MOL0     H70708   1.922  -0.114  10.287  2.3932  0.7559 -1.6269
  524MOL0     H70709   1.819  -0.063  10.166 -3.2366 -1.0717  2.8088
  524MOL0     H70710   1.810  -0.329  10.305  2.2425  2.6321  1.0472
  524MOL0     H70711   1.723  -0.312  10.160  0.7135 -4.1102  2.8551
  524MOL0     H70712   1.561  -0.227  10.331 -0.8121  2.7063  1.0702
  524MOL0     H70713   1.625  -0.089  10.255 -2.0498 -1.6480 -2.5431
  524MOL0     H70714   1.724  -0.209  10.504  0.3961  0.2560 -1.6905
  524MOL0     H70715   1.787  -0.057  10.439  0.4764  0.2593 -1.8281
  524MOL0     H70716   1.487  -0.107  10.501 -0.2561  0.6850  0.2583
  524MOL0     H70717   1.556   0.028  10.423  0.2785  1.6546  0.8364
  524MOL0     H70718   1.632  -0.088  10.703  0.2935  0.5907  0.0037
  524MOL0     H70719   1.699   0.052  10.632 -0.9176  0.7312 -2.3776
  524MOL0     H70720   2.268   0.014   9.924  1.5422 -1.3271  0.4145
  524MOL0     H70721   2.446   0.176   9.891  1.0134  1.0633  1.1162
  524MOL0     H70722   2.456   0.770  10.011  0.6752 -1.5404  3.0219
  524MOL0     H70723   2.607   0.919   9.890 -0.9166 -0.6042  0.3294
  524MOL0     H70724   3.060   0.784   8.497  1.2582 -0.4830  2.2414
  524MOL0     H70725   3.234   0.612   8.489  0.0805  0.1093 -0.7822
  524MOL0     H70726   3.645   0.567   8.279  0.5867 -1.4896 -2.0225
  524MOL0     H70727   3.834   0.458   8.196 -1.6881 -1.3458 -0.8606
  524MOL0     H70728   4.052   0.376   8.253  1.4014  0.5103 -0.6400
  524MOL0     H70729   3.980   0.298   8.116 -2.9311 -1.1183  1.3045
  524MOL0     H70730   4.241   0.225   8.166  1.6454 -1.2716  1.6013
  524MOL0     H70731   4.127   0.098   8.178  0.4230  0.2166 -0.9713
  524MOL0     H70732   4.146   0.127   8.436 -2.5731  0.2077 -2.2051
  524MOL0     H70733   4.223   0.285   8.407  2.4906  0.3900 -1.1510
  524MOL0     H70734   4.383   0.068   8.451 -0.5399  2.2393  0.6942
  524MOL0     H70735   4.325   0.014   8.299 -2.4397  1.6236 -0.9919
  524MOL0     H70736   4.634   0.279   8.192  0.2119 -0.3031  1.1347
  524MOL0     H70737   3.782   0.156   8.478  1.0861 -0.0349 -0.6335
  524MOL0     H70738   3.480   0.201   8.558  0.8175 -0.0729  0.2177
  524MOL0     H70739   3.631   0.162   8.635 -1.6810 -2.4844 -1.2692
  524MOL0     H70740   3.532   0.313   8.681 -0.9894  2.0303 -2.5167
  525MOL0     O70741   9.602   2.456   0.629 -0.3224 -0.8508  0.3643
  525MOL0     C70742   9.554   2.558   0.681 -0.0830 -0.3945 -0.3109
  525MOL0     O70743   9.445   2.625   0.622  0.3231 -0.0892 -0.2220
  525MOL0     C70744   9.423   2.626   0.484 -0.5495  0.7856 -0.9077
  525MOL0     C70745   9.303   2.584   0.441  0.0740 -0.7960 -0.6277
  525MOL0     C70746   9.258   2.592   0.307  0.4284  0.4334 -0.5283
  525MOL0     C70747   9.343   2.652   0.217 -0.6429  0.3427  0.0217
  525MOL0     O70748   9.309   2.643   0.079  0.1488 -0.0483 -0.1634
  525MOL0     C70749   9.381   2.713  -0.012  1.0101 -0.0301  0.5479
  525MOL0     C70750   9.300   2.742  -0.145 -0.8333  0.0985 -0.7937
  525MOL0     C70751   9.314   2.626  -0.242  0.7693  0.5193  0.7949
  525MOL0     C70752   9.229   2.642  -0.365  0.7805 -0.6531  0.4403
  525MOL0     C70753   9.226   2.528  -0.457 -0.2675  1.0730  1.0058
  525MOL0     C70754   9.359   2.510  -0.530  1.5116  0.2898  0.0287
  525MOL0     C70755   9.425   2.628  -0.607  0.0781  0.3518  1.2774
  525MOL0     C70756   9.561   2.596  -0.676  1.1284  0.6425  0.1417
  525MOL0     N70757   9.535   2.514  -0.794 -0.8027 -0.7064 -0.6362
  525MOL0     C70758   9.466   2.559  -0.904  0.6328 -0.3251 -0.3323
  525MOL0     C70759   9.496   2.471  -1.004 -0.2699  0.1114  0.0279
  525MOL0     C70760   9.427   2.481  -1.133  0.1668  0.1091  0.1608
  525MOL0     C70761   9.485   2.579  -1.233  0.1269 -0.4218  0.6239
  525MOL0     C70762   9.407   2.579  -1.361  0.1247 -0.6131 -0.0614
  525MOL0     C70763   9.462   2.676  -1.464 -0.2657  0.4582 -0.3577
  525MOL0     O70764   9.538   2.613  -1.564  0.3392 -0.2594  0.6081
  525MOL0     C70765   9.544   2.657  -1.684 -0.4853 -0.1624  0.3973
  525MOL0     C70766   9.588   2.578  -1.789  1.3359 -0.1631  0.0186
  525MOL0     C70767   9.587   2.626  -1.921 -0.4623  0.5896 -0.9786
  525MOL0     C70768   9.546   2.754  -1.954  0.4149 -0.5740  0.1325
  525MOL0     C70769   9.544   2.797  -2.096 -0.1564  0.6033  0.5867
  525MOL0     O70770   9.506   2.930  -2.128 -0.4293  0.4711 -0.0774
  525MOL0     C70771   9.482   2.956  -2.256 -0.5356 -0.0680  0.0461
  525MOL0     C70772   9.346   2.983  -2.289 -0.6006 -0.3496 -0.3722
  525MOL0     C70773   9.317   3.007  -2.420  0.2924  0.0693  0.6124
  525MOL0     C70774   9.418   3.009  -2.516 -0.3736 -0.4323 -0.2907
  525MOL0     O70775   9.406   3.062  -2.643 -0.0172 -0.3744  0.4236
  525MOL0     C70776   9.352   3.192  -2.665 -0.1576  0.1673  0.6431
  525MOL0     C70777   9.305   3.207  -2.818 -0.2236 -0.7961 -1.0927
  525MOL0     C70778   9.273   3.347  -2.875  0.8562 -0.0414 -0.7120
  525MOL0     C70779   9.190   3.348  -3.011  0.0406  0.5440 -0.4824
  525MOL0     C70780   9.238   3.243  -3.111  0.4028  0.0653 -0.0766
  525MOL0     C70781   9.200   3.264  -3.254  0.0252 -0.3759 -0.2861
  525MOL0     C70782   9.249   3.149  -3.342 -0.1864  0.9228 -0.5503
  525MOL0     C70783   9.134   3.068  -3.397  0.4532  0.0293  0.2331
  525MOL0    Cl70784   9.198   2.945  -3.511  0.2054 -0.1356 -0.6101
  525MOL0     C70785   9.549   2.962  -2.488  0.7213 -0.2710  0.5027
  525MOL0     C70786   9.582   2.945  -2.358  0.1410  1.0119  0.6619
  525MOL0     O70787   9.592   2.713  -2.177 -0.3243 -0.5248  0.4216
  525MOL0     C70788   9.502   2.839  -1.854  0.1122  0.1201 -0.4548
  525MOL0     C70789   9.508   2.794  -1.722 -0.6248 -0.1942  1.0470
  525MOL0     N70790   9.558   2.361  -0.949  1.2833  0.3780  0.3563
  525MOL0     N70791   9.584   2.393  -0.826  0.7396  0.3719  0.8588
  525MOL0     C70792   9.464   2.703   0.252 -0.1561 -0.4434 -0.5327
  525MOL0     C70793   9.504   2.695   0.392  0.4275 -0.4061  0.3167
  525MOL0     C70794   9.599   2.580   0.826 -0.2975  0.1526  1.4791
  525MOL0     C70795   9.504   2.626   0.916  0.0176  0.2940 -0.6665
  525MOL0     C70796   9.550   2.671   1.042 -0.4615 -0.2503  0.1458
  525MOL0     C70797   9.678   2.649   1.093  1.5729  0.2411  0.1625
  525MOL0     O70798   9.721   2.675   1.224  0.2447  0.4577  0.4175
  525MOL0     C70799   9.673   2.803   1.274 -0.0301  0.1890  0.7236
  525MOL0     C70800   9.723   2.926   1.196 -0.3177 -0.1949 -0.3358
  525MOL0     C70801   9.660   3.059   1.263  0.2506 -0.7463  0.1323
  525MOL0     C70802   9.505   3.064   1.247  0.1543 -0.0844 -1.3022
  525MOL0     C70803   9.454   3.052   1.102 -0.4521  0.7728 -0.4601
  525MOL0     C70804   9.431   3.040   0.984  0.0505 -0.6044  0.5492
  525MOL0     C70805   9.764   2.589   1.005 -0.0014  0.0137  0.8396
  525MOL0     C70806   9.725   2.550   0.866 -0.5877 -0.5852  0.5118
  525MOL0     C70807   9.836   2.500   0.780  0.7252  0.0942 -0.2895
  525MOL0     H70808   9.232   2.557   0.519 -2.1196  2.7346 -1.2087
  525MOL0     H70809   9.162   2.559   0.268  0.0472 -2.9847  2.7387
  525MOL0     H70810   9.408   2.808   0.035  0.0382  0.7525 -0.4315
  525MOL0     H70811   9.474   2.660  -0.033  2.2774  1.4954  2.0999
  525MOL0     H70812   9.335   2.826  -0.206 -1.5089 -0.7279 -2.3612
  525MOL0     H70813   9.195   2.760  -0.118 -1.4460 -0.3611 -2.7227
  525MOL0     H70814   9.284   2.528  -0.205  1.0961 -1.1726 -2.9225
  525MOL0     H70815   9.419   2.615  -0.271  0.1020 -0.8372 -1.3437
  525MOL0     H70816   9.125   2.671  -0.348  1.2130  0.6797  0.9389
  525MOL0     H70817   9.270   2.732  -0.413  2.2551 -0.2557  2.3037
  525MOL0     H70818   9.213   2.443  -0.390  4.2160  1.7140  3.0204
  525MOL0     H70819   9.157   2.537  -0.541  2.3694 -1.6940 -1.7634
  525MOL0     H70820   9.426   2.479  -0.449 -1.8204  1.3730  3.5358
  525MOL0     H70821   9.346   2.425  -0.597  0.0096 -0.4478  1.1798
  525MOL0     H70822   9.437   2.714  -0.542 -2.3255  1.3486  0.5320
  525MOL0     H70823   9.353   2.670  -0.678 -1.6531  0.0635  2.8047
  525MOL0     H70824   9.614   2.689  -0.701 -1.2119  2.1016  0.2914
  525MOL0     H70825   9.623   2.543  -0.603  1.0904  1.6529  0.9369
  525MOL0     H70826   9.403   2.647  -0.916  2.5680  1.3518  1.0067
  525MOL0     H70827   9.444   2.382  -1.177  0.6354 -0.7289  2.1151
  525MOL0     H70828   9.322   2.502  -1.115  0.5491  1.3778  1.0229
  525MOL0     H70829   9.469   2.674  -1.180  0.6239  1.2271 -2.0174
  525MOL0     H70830   9.591   2.571  -1.258  0.3147  1.7155  0.5259
  525MOL0     H70831   9.305   2.614  -1.342  0.9304  1.7706  0.1866
  525MOL0     H70832   9.393   2.479  -1.402  1.4524 -0.1405 -1.7959
  525MOL0     H70833   9.526   2.752  -1.418 -0.7835  0.9133 -0.3834
  525MOL0     H70834   9.378   2.727  -1.512  1.6408  0.5875 -3.8108
  525MOL0     H70835   9.620   2.475  -1.777  1.5152 -1.0903 -5.6945
  525MOL0     H70836   9.613   2.550  -1.993 -3.0336  0.9345 -2.3826
  525MOL0     H70837   9.268   2.975  -2.214  1.2135  1.2626  1.8584
  525MOL0     H70838   9.217   3.037  -2.447  1.2320  5.1546  1.7203
  525MOL0     H70839   9.266   3.208  -2.599  1.4805  4.4962  2.0797
  525MOL0     H70840   9.427   3.267  -2.642 -0.4031  0.7079 -0.2764
  525MOL0     H70841   9.380   3.170  -2.890 -1.7869 -2.2608 -2.0452
  525MOL0     H70842   9.214   3.149  -2.835 -2.3151  2.9977 -4.7154
  525MOL0     H70843   9.208   3.401  -2.806 -2.1177 -2.5797 -1.2683
  525MOL0     H70844   9.361   3.406  -2.903  0.6764  1.0653  0.9353
  525MOL0     H70845   9.186   3.447  -3.058 -0.6464  1.8497  2.1192
  525MOL0     H70846   9.088   3.320  -2.985 -2.2990  3.7806 -4.7302
  525MOL0     H70847   9.186   3.148  -3.091  0.8539 -1.2292 -4.2127
  525MOL0     H70848   9.346   3.235  -3.098  0.8141  1.1963 -2.4076
  525MOL0     H70849   9.093   3.285  -3.256  0.0090  0.1155  2.2683
  525MOL0     H70850   9.252   3.351  -3.297  2.0776 -1.3602  0.0743
  525MOL0     H70851   9.316   3.079  -3.292  1.9396  0.3111 -3.9054
  525MOL0     H70852   9.305   3.191  -3.426 -1.4888  0.1137 -1.8667
  525MOL0     H70853   9.085   3.011  -3.318  1.0202 -0.9419 -0.1029
  525MOL0     H70854   9.063   3.132  -3.451  1.7135  0.1591 -1.3506
  525MOL0     H70855   9.623   2.970  -2.566  1.5272 -0.5747  1.2254
  525MOL0     H70856   9.685   2.918  -2.336  0.0940 -2.0528 -2.1753
  525MOL0     H70857   9.472   2.941  -1.874 -1.7232 -0.3273 -0.1831
  525MOL0     H70858   9.472   2.869  -1.652  0.3890  1.0002  0.3469
  525MOL0     H70859   9.533   2.753   0.184  0.7447 -1.7472 -0.6132
  525MOL0     H70860   9.597   2.733   0.434  0.6918 -0.9702  0.2556
  525MOL0     H70861   9.402   2.641   0.883 -0.7012 -2.2330  0.1543
  525MOL0     H70862   9.476   2.737   1.088  1.3092  2.9221 -1.1885
  525MOL0     H70863   9.698   2.818   1.380  1.2922  0.0523  0.4511
  525MOL0     H70864   9.564   2.804   1.262  0.1932  0.6101 -1.6472
  525MOL0     H70865   9.699   2.913   1.090  1.5287 -2.5042 -0.5571
  525MOL0     H70866   9.832   2.928   1.200 -0.3326 -0.2539  2.0642
  525MOL0     H70867   9.694   3.154   1.221 -3.7674  0.2638 -1.3467
  525MOL0     H70868   9.687   3.068   1.368  1.3127 -0.9917 -0.1080
  525MOL0     H70869   9.455   2.989   1.308 -0.5019  0.5275 -1.0722
  525MOL0     H70870   9.482   3.157   1.301 -1.2933 -1.6260  0.9237
  525MOL0     H70871   9.415   3.040   0.878 -1.2856 -0.0582  0.7313
  525MOL0     H70872   9.858   2.553   1.047  0.8183  1.7885  0.6519
  525MOL0     H70873   9.826   2.536   0.677  1.5289 -2.2136 -1.2420
  525MOL0     H70874   9.933   2.532   0.818  0.0179 -0.1563  1.8386
  525MOL0     H70875   9.841   2.392   0.793 -4.1417 -0.1444  1.8033
  526MOL0     O70876   5.800   9.959   8.242 -0.2072 -0.6182  0.5465
  526MOL0     C70877   5.782  10.009   8.129 -0.8869 -0.2957  0.5069
  526MOL0     O70878   5.683  10.104   8.091 -0.4247 -0.2629  0.3810
  526MOL0     C70879   5.587  10.137   8.177 -0.2075  0.0749 -0.9133
  526MOL0     C70880   5.614  10.198   8.305  0.0147  0.7563 -0.1412
  526MOL0     C70881   5.500  10.235   8.389 -0.7567  0.6341  0.8692
  526MOL0     C70882   5.372  10.200   8.353  0.1250  0.3358  0.5450
  526MOL0     O70883   5.273  10.238   8.439  0.2070  0.5242 -0.2868
  526MOL0     C70884   5.192  10.123   8.475 -0.1021 -0.7742 -0.5079
  526MOL0     C70885   5.109  10.145   8.608 -0.5935  0.5886 -0.5193
  526MOL0     C70886   5.033  10.271   8.632 -0.5466  0.2346  0.6509
  526MOL0     C70887   5.043  10.334   8.774  0.8665  0.8650 -0.4493
  526MOL0     C70888   4.942  10.439   8.811  0.6504  0.4717  0.2708
  526MOL0     C70889   4.989  10.510   8.937  0.3119  1.3660  0.4152
  526MOL0     C70890   4.898  10.614   8.996 -0.1270 -0.2924 -0.4705
  526MOL0     C70891   4.978  10.678   9.107 -0.1474  1.0862  0.5723
  526MOL0     N70892   4.931  10.795   9.172  0.3478 -0.4361  0.4800
  526MOL0     C70893   5.016  10.881   9.239  0.1628 -0.0030  0.1212
  526MOL0     C70894   4.947  10.993   9.268  0.8961 -0.0942  0.2040
  526MOL0     C70895   5.000  11.113   9.346 -0.4681  0.5054 -0.3062
  526MOL0     C70896   5.065  11.213   9.248 -0.5929  0.2781  0.2801
  526MOL0     C70897   5.130  11.332   9.324 -0.2143 -0.3993 -0.3768
  526MOL0     C70898   5.192  11.441   9.223  0.0419  0.6768  0.0969
  526MOL0     O70899   5.086  11.520   9.171  1.0598  0.1754  0.2395
  526MOL0     C70900   5.104  11.651   9.130  1.0240  0.6061 -0.4651
  526MOL0     C70901   4.991  11.739   9.112 -0.5034  0.8700 -0.2816
  526MOL0     C70902   4.993  11.863   9.064 -0.7259 -0.7126 -0.2089
  526MOL0     C70903   5.119  11.910   9.029 -0.0500 -1.0987 -0.6885
  526MOL0     C70904   5.124  12.052   8.965  0.5289  0.0506 -0.7718
  526MOL0     O70905   5.244  12.097   8.916  0.0500  0.2928 -0.8219
  526MOL0     C70906   5.264  12.227   8.850 -0.3055  0.6442  0.1126
  526MOL0     C70907   5.174  12.341   8.855  0.8486 -0.1887 -0.1816
  526MOL0     C70908   5.195  12.447   8.756 -0.6788 -0.0398  0.0269
  526MOL0     C70909   5.319  12.452   8.691 -0.0424 -0.6145  1.1482
  526MOL0     O70910   5.362  12.552   8.604 -0.0452  0.8339 -0.0203
  526MOL0     C70911   5.280  12.665   8.571 -0.0480  0.0888 -0.0246
  526MOL0     C70912   5.374  12.766   8.503 -0.4235  0.1565 -0.2662
  526MOL0     C70913   5.313  12.898   8.450 -0.6851 -0.3377  0.8264
  526MOL0     C70914   5.415  13.009   8.399  1.4371 -0.0911  1.0421
  526MOL0     C70915   5.341  13.144   8.362  0.3443 -0.0042  0.5904
  526MOL0     C70916   5.440  13.263   8.352  0.8619 -0.7405 -0.1447
  526MOL0     C70917   5.348  13.388   8.332 -0.6283 -0.0580  0.4565
  526MOL0     C70918   5.419  13.518   8.280  0.2323 -0.8703  0.2272
  526MOL0    Cl70919   5.562  13.484   8.176  0.1524 -0.0599 -0.3664
  526MOL0     C70920   5.414  12.356   8.717  1.0185 -0.5868 -0.5760
  526MOL0     C70921   5.387  12.242   8.779 -0.4479  0.1572  0.0802
  526MOL0     O70922   5.022  12.119   8.975 -0.3955 -0.0291 -0.2111
  526MOL0     C70923   5.232  11.827   9.047  0.5329 -0.4892 -0.4296
  526MOL0     C70924   5.222  11.699   9.085  0.1771 -0.1051  0.1148
  526MOL0     N70925   4.819  10.973   9.203 -0.0774 -0.1670  0.1137
  526MOL0     N70926   4.809  10.850   9.156  0.2291  0.3629 -0.4320
  526MOL0     C70927   5.350  10.154   8.229 -0.0471  0.5144  0.5800
  526MOL0     C70928   5.453  10.115   8.149 -0.3715 -0.7538  0.5361
  526MOL0     C70929   5.865   9.977   8.017 -0.0485  0.3266 -0.0373
  526MOL0     C70930   5.798   9.934   7.905 -0.2604  0.9684  0.9778
  526MOL0     C70931   5.863   9.902   7.785  0.2684 -2.0076  0.2569
  526MOL0     C70932   6.004   9.918   7.779 -0.2027  0.2576 -0.3451
  526MOL0     O70933   6.073   9.881   7.658  0.2517  0.4963 -0.3912
  526MOL0     C70934   6.154   9.765   7.674 -0.6551 -0.3735 -0.2339
  526MOL0     C70935   6.272   9.757   7.572 -0.4440  1.1581 -0.2941
  526MOL0     C70936   6.375   9.658   7.606  0.4776  0.7388 -0.3583
  526MOL0     C70937   6.321   9.521   7.633 -0.2647  0.2840 -0.5959
  526MOL0     C70938   6.309   9.429   7.522  0.7426  0.1268 -0.6034
  526MOL0     C70939   6.324   9.356   7.430  0.0801 -0.2193  0.0560
  526MOL0     C70940   6.071   9.958   7.896  0.4945 -1.4231 -0.2702
  526MOL0     C70941   6.001   9.994   8.013  0.7285 -0.2295  0.5707
  526MOL0     C70942   6.080  10.064   8.128  0.9152  0.5181 -0.1567
  526MOL0     H70943   5.718  10.215   8.334  0.2963 -3.5501  2.2339
  526MOL0     H70944   5.520  10.288   8.482  1.3331 -0.1657  0.9226
  526MOL0     H70945   5.121  10.093   8.397 -3.5311  1.1834  1.5920
  526MOL0     H70946   5.259  10.039   8.495  0.7805 -0.0028 -0.1805
  526MOL0     H70947   5.178  10.138   8.693 -0.0195  1.5254 -0.8947
  526MOL0     H70948   5.038  10.062   8.608  1.7726 -1.6010 -1.5492
  526MOL0     H70949   4.930  10.262   8.594  0.2011  3.3701 -2.7149
  526MOL0     H70950   5.069  10.345   8.559 -0.8363 -0.7054 -0.4762
  526MOL0     H70951   5.027  10.246   8.838  2.2832  0.8827 -0.0366
  526MOL0     H70952   5.143  10.379   8.784  2.2876 -1.3437 -3.1689
  526MOL0     H70953   4.932  10.509   8.728  4.5249 -0.7658 -1.4207
  526MOL0     H70954   4.843  10.391   8.811  1.2309 -0.7686  0.6309
  526MOL0     H70955   4.995  10.430   9.011 -0.4625 -1.0118 -1.9639
  526MOL0     H70956   5.079  10.560   8.900  1.2144 -1.7356 -1.9396
  526MOL0     H70957   4.803  10.575   9.035 -1.8804  0.8145 -3.3199
  526MOL0     H70958   4.881  10.688   8.918 -1.3909  0.6354  0.6272
  526MOL0     H70959   4.999  10.609   9.190 -1.2874  3.4902  3.0158
  526MOL0     H70960   5.077  10.699   9.065  0.6656  0.4491  2.0792
  526MOL0     H70961   5.120  10.870   9.267 -0.2639 -1.0856  1.4479
  526MOL0     H70962   4.908  11.162   9.380 -0.2199  2.9129 -2.7885
  526MOL0     H70963   5.055  11.089   9.438 -1.4739  2.2712  0.8134
  526MOL0     H70964   5.141  11.153   9.196 -1.9557 -0.4245 -0.9565
  526MOL0     H70965   4.991  11.255   9.180 -3.7742 -4.8089  0.1089
  526MOL0     H70966   5.205  11.307   9.399 -2.8304  1.1641  3.0487
  526MOL0     H70967   5.055  11.387   9.382  2.1090  1.4115  1.0478
  526MOL0     H70968   5.238  11.395   9.135  2.5563 -0.3238  1.8084
  526MOL0     H70969   5.268  11.493   9.282  2.5607 -1.5376 -1.0212
  526MOL0     H70970   4.907  11.694   9.162  2.0497  1.0072  4.7320
  526MOL0     H70971   4.896  11.909   9.049 -1.0470 -1.0591  0.7389
  526MOL0     H70972   5.082  12.348   8.913  0.3479 -0.2667 -0.9391
  526MOL0     H70973   5.116  12.521   8.749 -0.7522 -0.1010  0.2182
  526MOL0     H70974   5.193  12.640   8.510 -0.5940 -0.2323  0.8544
  526MOL0     H70975   5.262  12.708   8.670 -0.7095 -1.1996  0.4455
  526MOL0     H70976   5.458  12.799   8.566  0.5283 -0.4280 -1.1837
  526MOL0     H70977   5.420  12.718   8.416  0.8806  0.0046  0.4785
  526MOL0     H70978   5.253  12.864   8.365  3.5663  1.1778 -3.2289
  526MOL0     H70979   5.262  12.948   8.533 -0.5434  1.8547 -0.3251
  526MOL0     H70980   5.470  12.967   8.314 -1.0514 -0.1819 -0.6199
  526MOL0     H70981   5.489  13.027   8.477 -0.9599  1.1220  3.1889
  526MOL0     H70982   5.265  13.160   8.439 -1.3472  0.4676 -1.1038
  526MOL0     H70983   5.285  13.122   8.271 -0.9926 -1.9129  1.8178
  526MOL0     H70984   5.491  13.274   8.449  3.5689  0.9474 -1.6391
  526MOL0     H70985   5.512  13.245   8.271  0.5321  0.1772 -0.6558
  526MOL0     H70986   5.290  13.404   8.423  1.6154  0.0981  1.9396
  526MOL0     H70987   5.280  13.361   8.251  1.3319  2.2291 -2.1668
  526MOL0     H70988   5.344  13.568   8.219 -1.1019 -1.9522  0.9102
  526MOL0     H70989   5.451  13.580   8.364  1.2309 -0.5937 -0.3419
  526MOL0     H70990   5.512  12.367   8.673  0.8998 -0.1749 -0.7411
  526MOL0     H70991   5.460  12.162   8.792 -0.3625  0.0063 -1.2703
  526MOL0     H70992   5.325  11.868   9.011  0.2280  0.8607  0.2450
  526MOL0     H70993   5.302  11.625   9.094 -2.7262 -3.5031  0.0235
  526MOL0     H70994   5.249  10.139   8.191 -1.1123  1.3287  2.8733
  526MOL0     H70995   5.431  10.075   8.051 -1.7967 -1.4105  1.0916
  526MOL0     H70996   5.692   9.946   7.883  0.7232  6.2800 -2.8326
  526MOL0     H70997   5.809   9.883   7.693 -1.5455  3.7259 -0.2374
  526MOL0     H70998   6.096   9.673   7.669 -0.4620 -0.4935 -0.2914
  526MOL0     H70999   6.206   9.768   7.771  1.4886 -3.5477 -1.0972
  526MOL0     H71000   6.322   9.854   7.564  1.8411  0.1362  0.6111
  526MOL0     H71001   6.234   9.741   7.471  0.5319  0.1091 -0.5144
  526MOL0     H71002   6.423   9.690   7.699 -0.5129 -1.0315  0.8177
  526MOL0     H71003   6.455   9.653   7.532 -0.9180  2.6220 -2.1197
  526MOL0     H71004   6.384   9.473   7.708 -0.0797  1.8069  0.2659
  526MOL0     H71005   6.218   9.516   7.672  0.6813 -1.3864  1.9862
  526MOL0     H71006   6.355   9.308   7.339  0.5058 -0.3559  0.2710
  526MOL0     H71007   6.177   9.980   7.893  0.1863  0.3732  0.3864
  526MOL0     H71008   6.163  10.126   8.092  1.2702  0.0113 -0.2223
  526MOL0     H71009   6.023  10.119   8.204  0.6702 -1.3513  1.0669
  526MOL0     H71010   6.109   9.983   8.195  3.1515  1.9014  0.6727
  527MOL0     O71011   0.500   3.959   0.914 -0.6707  0.4405 -0.0820
  527MOL0     C71012   0.453   3.923   0.807  0.7354  0.0860 -0.0838
  527MOL0     O71013   0.389   3.802   0.791  0.0561 -0.5566 -0.0144
  527MOL0     C71014   0.346   3.718   0.896 -0.5819 -0.1893  0.4711
  527MOL0     C71015   0.356   3.581   0.874 -0.3009  0.1903  0.0287
  527MOL0     C71016   0.325   3.504   0.988  0.6153 -0.3904 -0.7608
  527MOL0     C71017   0.289   3.557   1.115  0.2988  0.7098 -0.0632
  527MOL0     O71018   0.298   3.464   1.215 -0.3924 -0.4413  0.3616
  527MOL0     C71019   0.252   3.506   1.341  0.2054  0.0072 -0.1947
  527MOL0     C71020   0.254   3.391   1.442  0.8498 -1.2962 -0.4569
  527MOL0     C71021   0.227   3.428   1.584 -0.0804 -0.2383 -0.3158
  527MOL0     C71022   0.238   3.299   1.668 -0.2778 -0.0827 -0.1938
  527MOL0     C71023   0.218   3.329   1.820  0.3490  1.2167 -0.6272
  527MOL0     C71024   0.262   3.198   1.893  0.7238  0.5599  0.3944
  527MOL0     C71025   0.199   3.189   2.041  0.0818  0.2051  0.1850
  527MOL0     C71026   0.246   3.058   2.107  0.7035 -0.1429  0.3192
  527MOL0     N71027   0.213   3.052   2.252  0.0143  0.7128 -0.1452
  527MOL0     C71028   0.085   3.046   2.309  0.5929 -0.9443  0.4008
  527MOL0     C71029   0.090   3.056   2.437  0.1803 -0.4181 -0.8451
  527MOL0     C71030  -0.033   3.062   2.533 -0.0144 -0.7362  1.3718
  527MOL0     C71031  -0.095   3.198   2.547  0.0589 -0.2241  0.4070
  527MOL0     C71032  -0.135   3.266   2.411 -0.0561 -0.2780 -0.4182
  527MOL0     C71033  -0.200   3.403   2.449  0.2552  0.0886  0.3114
  527MOL0     O71034  -0.214   3.451   2.316  0.2233 -0.0462 -0.1059
  527MOL0     C71035  -0.237   3.577   2.281 -0.4838 -0.5717  0.8219
  527MOL0     C71036  -0.202   3.622   2.156  0.0805 -0.0825  0.5601
  527MOL0     C71037  -0.220   3.760   2.105  0.8277 -0.1650  0.0127
  527MOL0     C71038  -0.269   3.855   2.192  0.2210  0.1989 -0.3319
  527MOL0     C71039  -0.281   4.000   2.161 -0.1099  0.3770 -0.0505
  527MOL0     O71040  -0.228   4.054   2.047 -0.2966  0.3831 -0.1862
  527MOL0     C71041  -0.219   4.187   2.023 -0.1818 -0.1922  1.1036
  527MOL0     C71042  -0.237   4.227   1.895 -0.4828  0.7022  1.1277
  527MOL0     C71043  -0.220   4.367   1.872  0.1959 -0.5664  0.2600
  527MOL0     C71044  -0.200   4.465   1.978  0.7585  0.5599 -0.5155
  527MOL0     O71045  -0.184   4.595   1.950 -0.1437 -0.1863 -0.6190
  527MOL0     C71046  -0.313   4.657   1.921 -0.3860  0.3045  0.4285
  527MOL0     C71047  -0.358   4.768   2.006  1.0542  0.3928 -0.1759
  527MOL0     C71048  -0.379   4.734   2.156 -0.3208 -0.5671 -0.2167
  527MOL0     C71049  -0.511   4.663   2.180 -0.0729 -0.2381  0.7880
  527MOL0     C71050  -0.481   4.600   2.319 -0.0063  0.1410 -0.1526
  527MOL0     C71051  -0.510   4.701   2.430  0.3011  0.7878  0.1602
  527MOL0     C71052  -0.517   4.646   2.565 -0.2816 -0.0009  0.0583
  527MOL0     C71053  -0.582   4.745   2.667 -0.4232  0.8279  0.1808
  527MOL0    Cl71054  -0.494   4.902   2.681  0.5570  0.2557  0.0378
  527MOL0     C71055  -0.179   4.412   2.107  0.2944 -0.5831 -0.0275
  527MOL0     C71056  -0.192   4.273   2.129 -0.5866  0.3464  0.1122
  527MOL0     O71057  -0.343   4.059   2.246 -0.3884 -0.4396  0.0298
  527MOL0     C71058  -0.318   3.806   2.320 -1.0980 -0.1467  1.1915
  527MOL0     C71059  -0.301   3.673   2.360  0.2447 -0.4948 -0.6359
  527MOL0     N71060   0.220   3.066   2.470  0.1786 -0.8471 -0.4134
  527MOL0     N71061   0.289   3.070   2.353 -0.3806 -0.2646  0.3280
  527MOL0     C71062   0.263   3.693   1.115  0.4867  0.1127 -1.0485
  527MOL0     C71063   0.278   3.767   1.001  0.4695 -0.4160 -0.0199
  527MOL0     C71064   0.463   4.009   0.686 -0.2547 -0.3210 -0.1006
  527MOL0     C71065   0.507   4.138   0.696 -0.9099  0.3566  0.7157
  527MOL0     C71066   0.524   4.214   0.577 -0.1706 -0.0134  0.1130
  527MOL0     C71067   0.504   4.163   0.450 -0.7214  0.3464 -0.9895
  527MOL0     O71068   0.535   4.259   0.359 -0.1343  0.2111  0.3211
  527MOL0     C71069   0.495   4.234   0.223 -0.3921 -0.5740  0.6007
  527MOL0     C71070   0.580   4.144   0.141 -0.0638 -0.7008  0.3610
  527MOL0     C71071   0.581   4.199  -0.004  0.4025 -0.6100 -0.2540
  527MOL0     C71072   0.702   4.153  -0.093 -0.3726 -1.3641  0.2735
  527MOL0     C71073   0.728   4.007  -0.074  1.2946 -0.5907  0.2885
  527MOL0     C71074   0.752   3.890  -0.050 -0.7810 -0.3356  0.6041
  527MOL0     C71075   0.471   4.028   0.435 -0.2419  0.9624 -0.5053
  527MOL0     C71076   0.451   3.946   0.554 -0.5642  0.0033  0.3161
  527MOL0     C71077   0.429   3.800   0.509  0.5536  0.6760  0.5106
  527MOL0     H71078   0.392   3.541   0.780 -2.2076  1.2330 -1.2232
  527MOL0     H71079   0.349   3.399   0.998 -0.3275 -0.7784 -2.2913
  527MOL0     H71080   0.318   3.588   1.374 -2.4489  2.6066 -0.9383
  527MOL0     H71081   0.149   3.542   1.338 -0.1153 -0.9434 -1.2184
  527MOL0     H71082   0.353   3.344   1.441  0.6436 -2.5162  4.7873
  527MOL0     H71083   0.182   3.315   1.412  0.1115 -0.2229 -1.4780
  527MOL0     H71084   0.125   3.468   1.588 -0.6158 -1.2376 -2.6677
  527MOL0     H71085   0.315   3.485   1.615  1.3331 -2.1033 -0.6996
  527MOL0     H71086   0.156   3.230   1.647 -0.3639 -0.6957  1.9244
  527MOL0     H71087   0.334   3.250   1.647  0.7813  1.1921  1.4059
  527MOL0     H71088   0.265   3.421   1.858  1.9910  0.8059 -1.5982
  527MOL0     H71089   0.110   3.340   1.837  0.5274  0.7985  1.0077
  527MOL0     H71090   0.214   3.112   1.846  0.9012 -0.3185  1.7633
  527MOL0     H71091   0.370   3.179   1.896  0.3907 -1.6861 -0.3840
  527MOL0     H71092   0.090   3.202   2.042 -0.0119 -0.3811 -0.9753
  527MOL0     H71093   0.247   3.266   2.102 -0.2477 -1.7164  3.1127
  527MOL0     H71094   0.199   2.977   2.052  3.7626 -2.4104  0.7747
  527MOL0     H71095   0.356   3.056   2.100  0.7422  1.2165  0.2499
  527MOL0     H71096   0.001   3.031   2.243  2.0124 -0.3896 -1.6214
  527MOL0     H71097  -0.103   2.989   2.491 -0.3572 -0.2453  1.0820
  527MOL0     H71098   0.001   3.038   2.634  1.3574  1.2033  1.4419
  527MOL0     H71099  -0.186   3.194   2.608 -1.0707  0.8337 -1.1150
  527MOL0     H71100  -0.027   3.268   2.596 -0.7419  0.7292  0.1968
  527MOL0     H71101  -0.198   3.190   2.364  2.9237 -3.4542  0.2954
  527MOL0     H71102  -0.043   3.276   2.354 -0.1338  3.9192 -0.0858
  527MOL0     H71103  -0.132   3.460   2.513  1.6120  0.6283 -1.5369
  527MOL0     H71104  -0.291   3.395   2.509 -1.5293  1.0112 -2.1030
  527MOL0     H71105  -0.144   3.563   2.086 -0.1588  0.3595 -0.0224
  527MOL0     H71106  -0.200   3.798   2.006 -4.8345  1.8989 -0.7380
  527MOL0     H71107  -0.262   4.148   1.825  1.5222  1.5881 -0.7085
  527MOL0     H71108  -0.222   4.400   1.768 -1.4461  2.8495  1.2421
  527MOL0     H71109  -0.307   4.708   1.825  1.9487  2.0604  1.4185
  527MOL0     H71110  -0.392   4.581   1.915  0.3379 -0.3914 -4.9902
  527MOL0     H71111  -0.280   4.845   2.010  0.3007  1.2392 -1.4207
  527MOL0     H71112  -0.449   4.813   1.968  2.8473  3.6965 -0.9416
  527MOL0     H71113  -0.290   4.683   2.195  0.2016  0.2372 -0.3355
  527MOL0     H71114  -0.375   4.829   2.209 -0.9326  0.8807 -2.6228
  527MOL0     H71115  -0.517   4.571   2.122  0.7463 -1.0315  1.9275
  527MOL0     H71116  -0.603   4.723   2.174  0.6391  0.7771 -0.4532
  527MOL0     H71117  -0.382   4.561   2.345 -0.5832  0.8404  3.8026
  527MOL0     H71118  -0.535   4.510   2.348  0.1760 -0.1026 -0.5678
  527MOL0     H71119  -0.425   4.769   2.443  1.0489 -0.3260  1.2584
  527MOL0     H71120  -0.598   4.763   2.409 -2.4452 -1.5406  3.6140
  527MOL0     H71121  -0.413   4.632   2.596  0.8123  3.1892 -1.7010
  527MOL0     H71122  -0.577   4.554   2.569 -1.1679  0.5929  1.3197
  527MOL0     H71123  -0.690   4.756   2.654 -0.3921 -0.7679 -1.8956
  527MOL0     H71124  -0.577   4.709   2.770  0.3512  0.2576 -0.0499
  527MOL0     H71125  -0.154   4.488   2.180 -2.0795  1.6539 -1.3516
  527MOL0     H71126  -0.183   4.225   2.226  2.9032 -2.6260 -1.4480
  527MOL0     H71127  -0.358   3.877   2.392 -2.3064 -0.5692  0.9551
  527MOL0     H71128  -0.325   3.651   2.464 -0.3884 -2.8503 -1.2215
  527MOL0     H71129   0.219   3.734   1.205 -4.8845 -4.5488 -0.9404
  527MOL0     H71130   0.250   3.870   0.982  0.9538 -0.5831 -1.7980
  527MOL0     H71131   0.508   4.185   0.794  0.6292 -0.5820  1.1949
  527MOL0     H71132   0.530   4.323   0.578  1.2356 -0.0288  3.1469
  527MOL0     H71133   0.490   4.328   0.166 -0.1550 -0.5963  0.5398
  527MOL0     H71134   0.389   4.208   0.231 -1.1521  2.3703  1.8294
  527MOL0     H71135   0.538   4.043   0.145  0.9195 -1.0996  1.2448
  527MOL0     H71136   0.684   4.147   0.176  1.2503  2.7940 -3.1163
  527MOL0     H71137   0.598   4.307  -0.005 -0.7620 -0.4106 -0.0215
  527MOL0     H71138   0.485   4.185  -0.054  0.0109  1.4478 -0.1585
  527MOL0     H71139   0.695   4.161  -0.202 -0.1097  0.1745  0.3474
  527MOL0     H71140   0.799   4.202  -0.076  0.0192 -2.1532  0.3976
  527MOL0     H71141   0.781   3.790  -0.026  3.4740  0.7915  0.8269
  527MOL0     H71142   0.471   3.985   0.336  2.2880 -1.2646  0.3294
  527MOL0     H71143   0.389   3.795   0.408 -2.6636 -1.9248  1.7447
  527MOL0     H71144   0.523   3.746   0.523  0.0131  0.4997  5.0701
  527MOL0     H71145   0.355   3.742   0.565  1.5723 -0.8394  0.3155
  528MOL0     O71146   7.772   4.649   6.151  0.9260 -0.3903  0.1517
  528MOL0     C71147   7.698   4.695   6.062  0.0903 -0.5407  0.3828
  528MOL0     O71148   7.565   4.670   6.062 -0.1575 -0.3546  0.7681
  528MOL0     C71149   7.504   4.652   6.185  0.5457 -0.3951  0.5535
  528MOL0     C71150   7.518   4.738   6.295  0.2021 -0.0473 -0.2260
  528MOL0     C71151   7.432   4.724   6.412 -1.2961 -0.0531  0.2782
  528MOL0     C71152   7.335   4.627   6.425  0.4079  0.7845 -0.0966
  528MOL0     O71153   7.255   4.622   6.532  1.0645  0.0150 -0.1437
  528MOL0     C71154   7.204   4.493   6.571 -0.6865 -0.0329  0.3734
  528MOL0     C71155   7.157   4.527   6.708 -0.1865 -0.4634  0.6164
  528MOL0     C71156   7.097   4.400   6.775  0.1540  0.5533  0.5069
  528MOL0     C71157   7.078   4.431   6.921  0.5233  1.0011  0.4170
  528MOL0     C71158   7.049   4.292   6.986  0.6317 -0.2005 -0.9865
  528MOL0     C71159   7.013   4.297   7.142 -0.0396  0.3658 -0.1041
  528MOL0     C71160   7.006   4.164   7.221  0.6698 -0.1596  0.9819
  528MOL0     C71161   6.874   4.131   7.284  0.3568  0.0183 -0.2285
  528MOL0     N71162   6.856   4.188   7.417  1.0054  0.3871 -0.3106
  528MOL0     C71163   6.902   4.106   7.527  0.3272 -1.0748 -0.0827
  528MOL0     C71164   6.831   4.158   7.633 -0.5700  0.4527  0.1820
  528MOL0     C71165   6.847   4.115   7.769 -0.4420  0.4999 -0.4684
  528MOL0     C71166   6.936   4.219   7.840 -0.4252 -0.5328 -0.1900
  528MOL0     C71167   7.082   4.200   7.806  0.3111 -0.0470 -0.2527
  528MOL0     C71168   7.133   4.291   7.697  0.1169 -0.0119  0.1399
  528MOL0     O71169   7.265   4.245   7.661 -0.1126  0.0709  0.2562
  528MOL0     C71170   7.320   4.283   7.540 -0.5686 -0.7976 -0.5229
  528MOL0     C71171   7.250   4.384   7.457 -0.6401 -0.7595 -0.3721
  528MOL0     C71172   7.308   4.422   7.334 -0.0009 -0.3641  0.0260
  528MOL0     C71173   7.433   4.366   7.287 -0.4056 -0.4542  0.1158
  528MOL0     C71174   7.494   4.412   7.151 -0.3954 -0.1452 -0.4192
  528MOL0     O71175   7.595   4.344   7.088  0.3803  0.1233  0.1248
  528MOL0     C71176   7.638   4.379   6.962 -0.7820 -0.6625  0.4137
  528MOL0     C71177   7.776   4.376   6.931 -1.0184  0.2616 -0.3334
  528MOL0     C71178   7.827   4.411   6.810  0.2387  0.1353  0.0436
  528MOL0     C71179   7.744   4.447   6.705  0.9414  0.3961  0.1208
  528MOL0     O71180   7.795   4.465   6.575 -0.2739 -0.4816  1.0524
  528MOL0     C71181   7.815   4.608   6.554 -0.5145 -0.9070  0.7274
  528MOL0     C71182   7.937   4.682   6.609 -0.2791  1.5285 -0.3049
  528MOL0     C71183   7.973   4.793   6.521  0.3273 -0.2151 -0.3861
  528MOL0     C71184   8.101   4.857   6.581  0.4339 -0.1090  0.6692
  528MOL0     C71185   8.149   4.982   6.514 -0.1580  0.0017 -0.3361
  528MOL0     C71186   8.290   5.006   6.542 -0.6427  0.0430  0.0505
  528MOL0     C71187   8.395   4.998   6.430  0.3433  0.2288  1.0096
  528MOL0     C71188   8.534   4.962   6.477 -0.2409  0.4852  0.8580
  528MOL0    Cl71189   8.536   4.792   6.506 -0.7086 -0.4799 -0.0698
  528MOL0     C71190   7.604   4.453   6.731  0.7938 -0.0840 -0.5824
  528MOL0     C71191   7.554   4.407   6.855 -0.0566 -0.3849 -0.1636
  528MOL0     O71192   7.435   4.511   7.107  0.6765  0.2486 -0.3043
  528MOL0     C71193   7.495   4.271   7.366 -0.8077  0.9894  1.4587
  528MOL0     C71194   7.436   4.229   7.486 -0.2009  0.1045 -0.1819
  528MOL0     N71195   6.759   4.274   7.590 -0.7940  0.3290 -0.2048
  528MOL0     N71196   6.763   4.281   7.459 -0.0995 -0.0757  0.8922
  528MOL0     C71197   7.317   4.545   6.312  0.5170 -0.2338 -0.3391
  528MOL0     C71198   7.392   4.563   6.197 -1.2293 -0.4200 -0.1784
  528MOL0     C71199   7.772   4.776   5.960  0.5525 -0.1548  0.6014
  528MOL0     C71200   7.700   4.822   5.853  0.5811 -0.4001 -0.4843
  528MOL0     C71201   7.763   4.898   5.756  0.2457  0.0273 -0.0730
  528MOL0     C71202   7.895   4.931   5.755  0.6515 -0.4032  0.8291
  528MOL0     O71203   7.958   5.022   5.671 -0.5877 -0.7008 -0.6400
  528MOL0     C71204   7.900   5.027   5.537  0.8252  0.0880 -0.4536
  528MOL0     C71205   8.008   5.078   5.436 -0.6406 -0.7109 -0.1357
  528MOL0     C71206   8.087   5.206   5.467 -0.1655  0.2150 -0.6426
  528MOL0     C71207   8.222   5.225   5.387  1.5640  0.1384 -0.0305
  528MOL0     C71208   8.306   5.324   5.454  0.1546 -0.2186  0.6751
  528MOL0     C71209   8.388   5.387   5.512  0.1190 -0.7047 -1.2430
  528MOL0     C71210   7.966   4.890   5.862 -0.3873  0.1564 -0.0288
  528MOL0     C71211   7.912   4.811   5.961  0.6548 -0.2091 -0.5165
  528MOL0     C71212   8.014   4.787   6.071  0.8690 -0.1777  0.8888
  528MOL0     H71213   7.594   4.815   6.299 -0.7819  0.9310 -0.0822
  528MOL0     H71214   7.435   4.781   6.505 -0.6795 -0.9538  0.8325
  528MOL0     H71215   7.120   4.465   6.507 -1.7524 -3.1201  2.7988
  528MOL0     H71216   7.278   4.412   6.576 -2.3120 -1.5377  2.0259
  528MOL0     H71217   7.095   4.617   6.710  1.9875  1.1639 -0.9083
  528MOL0     H71218   7.239   4.558   6.773 -0.0950  1.6476 -0.4252
  528MOL0     H71219   7.177   4.325   6.769  1.7102  2.2506 -1.7434
  528MOL0     H71220   7.006   4.366   6.726  2.0495 -0.9971 -2.2691
  528MOL0     H71221   7.161   4.473   6.978  1.7288 -0.1736 -0.4409
  528MOL0     H71222   6.985   4.487   6.938 -0.9824 -2.0926  3.8296
  528MOL0     H71223   6.966   4.251   6.928  0.1260  0.0131 -0.4230
  528MOL0     H71224   7.134   4.224   6.975  0.7921 -0.7307  2.3868
  528MOL0     H71225   7.077   4.362   7.202  0.1080  0.1044  0.0263
  528MOL0     H71226   6.911   4.336   7.149 -0.9461 -2.0247  1.5485
  528MOL0     H71227   7.084   4.179   7.297  0.6585  0.4099  0.8907
  528MOL0     H71228   7.039   4.082   7.156  2.7256  2.1476 -1.1258
  528MOL0     H71229   6.791   4.158   7.218 -1.6988  0.8635  2.4962
  528MOL0     H71230   6.864   4.023   7.294  0.2866  0.0567  0.1551
  528MOL0     H71231   6.970   4.021   7.529  0.7368 -0.8403  3.6817
  528MOL0     H71232   6.752   4.107   7.822 -0.2035  5.8755  1.3345
  528MOL0     H71233   6.887   4.013   7.767  3.0870  1.7468 -0.5724
  528MOL0     H71234   6.900   4.320   7.818  0.1519 -0.7812 -2.7009
  528MOL0     H71235   6.930   4.201   7.947  0.1098 -0.8636 -0.2082
  528MOL0     H71236   7.102   4.097   7.775  0.7447  0.5356 -2.0270
  528MOL0     H71237   7.144   4.230   7.891  1.4724  1.8527 -1.6820
  528MOL0     H71238   7.137   4.393   7.737 -0.3909 -1.7131  5.1410
  528MOL0     H71239   7.072   4.269   7.609  1.0692  1.7662 -1.0340
  528MOL0     H71240   7.170   4.444   7.499 -1.6431 -0.2831 -2.7707
  528MOL0     H71241   7.269   4.508   7.280  2.6692  0.8486 -0.1199
  528MOL0     H71242   7.850   4.360   7.008  0.8982  1.1580 -1.8888
  528MOL0     H71243   7.933   4.404   6.792  0.0822 -2.2218 -0.2273
  528MOL0     H71244   7.812   4.615   6.445 -0.4162  0.0555  0.7702
  528MOL0     H71245   7.727   4.658   6.597 -0.9303 -2.3846  1.6516
  528MOL0     H71246   7.920   4.713   6.712 -0.9638  0.3200 -0.0430
  528MOL0     H71247   8.018   4.610   6.597 -0.9378  0.9690 -1.6171
  528MOL0     H71248   8.000   4.747   6.425 -2.9628  0.5494 -1.8077
  528MOL0     H71249   7.900   4.874   6.512  0.7750  0.2253 -0.0836
  528MOL0     H71250   8.187   4.789   6.588 -0.0155 -0.6568  0.9121
  528MOL0     H71251   8.078   4.884   6.684 -1.2652 -2.2757  0.9151
  528MOL0     H71252   8.096   5.075   6.540 -0.1799  0.3872 -1.6992
  528MOL0     H71253   8.138   4.955   6.409 -1.8994 -4.1110  0.7075
  528MOL0     H71254   8.294   5.105   6.587 -0.8321 -1.7211  4.4812
  528MOL0     H71255   8.321   4.942   6.626  2.7075 -0.3954 -1.3412
  528MOL0     H71256   8.394   5.093   6.376  0.7658 -0.2611  0.1102
  528MOL0     H71257   8.359   4.936   6.347 -1.7511  1.2596  1.0736
  528MOL0     H71258   8.594   4.991   6.391  0.2236 -3.8700 -0.5278
  528MOL0     H71259   8.559   5.015   6.570  1.2071  0.5741  0.4417
  528MOL0     H71260   7.541   4.490   6.651  2.8770  1.4773 -1.5896
  528MOL0     H71261   7.446   4.399   6.848 -0.6636  3.2992  2.2311
  528MOL0     H71262   7.591   4.220   7.363 -1.9233 -1.5876  4.1312
  528MOL0     H71263   7.492   4.161   7.550 -2.7053 -0.2333  1.8457
  528MOL0     H71264   7.248   4.461   6.305  1.3675 -0.9404 -0.4176
  528MOL0     H71265   7.381   4.491   6.116 -0.7404 -1.0364  0.2945
  528MOL0     H71266   7.592   4.821   5.844  0.3719  1.1411  1.2748
  528MOL0     H71267   7.710   4.940   5.671  1.3830  2.4520  0.3510
  528MOL0     H71268   7.824   5.106   5.541  1.0364  0.2491  0.6059
  528MOL0     H71269   7.854   4.931   5.510  1.7739 -0.5009 -0.0126
  528MOL0     H71270   7.957   5.087   5.339 -0.8938  3.0278  0.1998
  528MOL0     H71271   8.085   5.000   5.432  2.1988  1.8191  1.4892
  528MOL0     H71272   8.095   5.214   5.576 -3.6210  2.5540 -0.4117
  528MOL0     H71273   8.037   5.300   5.445  0.3352  0.7370  0.3841
  528MOL0     H71274   8.279   5.133   5.374  3.2903  1.5156 -3.4532
  528MOL0     H71275   8.209   5.249   5.281 -0.6709 -1.9867 -0.3424
  528MOL0     H71276   8.449   5.439   5.583  0.6680 -0.5370 -1.8369
  528MOL0     H71277   8.070   4.920   5.852 -0.2436 -0.8394 -2.0900
  528MOL0     H71278   8.092   4.864   6.073  0.8577 -0.1914  2.4030
  528MOL0     H71279   7.965   4.793   6.168 -0.2510  4.1001  0.2584
  528MOL0     H71280   8.067   4.696   6.042  0.7873  0.4572 -1.4611
  529MOL0     O71281   0.435   5.754   7.458 -0.0544  0.5881  0.7792
  529MOL0     C71282   0.462   5.804   7.569 -0.0017  0.2621  1.1363
  529MOL0     O71283   0.509   5.932   7.579 -0.5372  0.2578 -0.1664
  529MOL0     C71284   0.538   6.009   7.468 -0.2458 -1.2748  0.0632
  529MOL0     C71285   0.444   6.030   7.369  0.0491  1.0177 -0.4036
  529MOL0     C71286   0.471   6.106   7.259 -0.3902  0.7852  0.8821
  529MOL0     C71287   0.600   6.159   7.230  0.1987 -0.7979  0.2376
  529MOL0     O71288   0.627   6.232   7.123 -0.2836 -0.4842 -0.2598
  529MOL0     C71289   0.621   6.157   7.001 -0.2946 -1.1783 -0.0432
  529MOL0     C71290   0.694   6.241   6.896 -0.9094  0.7665 -0.0113
  529MOL0     C71291   0.649   6.222   6.751 -0.0965  0.9276  0.8737
  529MOL0     C71292   0.699   6.342   6.670 -0.1696  0.2306  0.3438
  529MOL0     C71293   0.722   6.287   6.529  0.0312 -0.6585  0.8320
  529MOL0     C71294   0.754   6.410   6.433  0.4330  0.7526  0.1728
  529MOL0     C71295   0.828   6.375   6.309 -0.7410  0.1543 -0.9838
  529MOL0     C71296   0.775   6.247   6.244 -0.3624  0.1611  0.6073
  529MOL0     N71297   0.771   6.243   6.096  0.6402 -0.0897 -0.1850
  529MOL0     C71298   0.884   6.270   6.020  0.3516 -0.2541 -0.0766
  529MOL0     C71299   0.828   6.281   5.895  0.0578  0.2095 -1.2201
  529MOL0     C71300   0.885   6.309   5.764 -0.9960 -0.2075 -0.1871
  529MOL0     C71301   0.976   6.191   5.742  0.0653 -0.6939 -0.2853
  529MOL0     C71302   1.124   6.221   5.780 -0.3048  0.2290  0.3219
  529MOL0     C71303   1.216   6.122   5.693  0.4282  0.2361 -0.0803
  529MOL0     O71304   1.350   6.132   5.705 -0.3358 -0.7370  0.2616
  529MOL0     C71305   1.413   6.107   5.815 -0.0314  0.1952  0.3840
  529MOL0     C71306   1.350   6.037   5.923 -0.3377 -0.0308  0.4401
  529MOL0     C71307   1.431   6.019   6.031  0.3065 -0.2158  0.1515
  529MOL0     C71308   1.567   6.034   6.021 -0.5085  0.4723 -0.0561
  529MOL0     C71309   1.654   5.996   6.133  0.4471 -0.3045  0.4025
  529MOL0     O71310   1.784   6.038   6.126  0.4543 -0.2243  0.4147
  529MOL0     C71311   1.851   6.012   6.244 -0.6814 -0.7047  0.1291
  529MOL0     C71312   1.968   5.938   6.243 -0.6393  0.5684  0.0441
  529MOL0     C71313   2.046   5.926   6.359 -0.4350  0.7862 -0.3571
  529MOL0     C71314   2.017   5.990   6.472  0.0531  0.5118  0.2009
  529MOL0     O71315   2.089   5.989   6.590 -0.6250  0.4977  0.0625
  529MOL0     C71316   2.198   6.071   6.581 -0.3813 -0.4470 -0.1122
  529MOL0     C71317   2.155   6.206   6.632  0.2578 -1.0267  0.3191
  529MOL0     C71318   2.096   6.209   6.765  0.2982  0.1076 -0.3197
  529MOL0     C71319   2.208   6.236   6.878  0.3535  0.5512  0.5629
  529MOL0     C71320   2.142   6.219   7.013 -0.9469 -0.0102  0.4677
  529MOL0     C71321   2.003   6.282   7.025  0.1971 -0.5570  0.1761
  529MOL0     C71322   1.970   6.289   7.171  1.0595  0.0269 -0.1843
  529MOL0     C71323   1.839   6.361   7.217  0.4526  0.9669 -1.2475
  529MOL0    Cl71324   1.817   6.534   7.157 -0.0156  0.3828 -0.3192
  529MOL0     C71325   1.896   6.064   6.479  0.3623  0.2221 -0.5809
  529MOL0     C71326   1.818   6.074   6.363 -0.0622 -0.5110  0.8120
  529MOL0     O71327   1.610   5.909   6.208  0.4580 -0.0612  0.3820
  529MOL0     C71328   1.627   6.095   5.906  0.4980 -0.0363 -0.1311
  529MOL0     C71329   1.548   6.134   5.808 -0.0464  0.0937  0.0491
  529MOL0     N71330   0.682   6.269   5.903 -0.3383  0.1657 -0.0215
  529MOL0     N71331   0.655   6.225   6.020 -0.4031  0.3740  0.7673
  529MOL0     C71332   0.690   6.133   7.332 -0.5921 -0.3065 -0.6571
  529MOL0     C71333   0.669   6.062   7.457 -0.2130  0.2487 -0.0598
  529MOL0     C71334   0.452   5.731   7.702 -0.1159  1.3031 -0.1672
  529MOL0     C71335   0.419   5.589   7.686 -0.9970  0.3980 -0.7357
  529MOL0     C71336   0.387   5.521   7.796 -0.3127 -0.4937  0.2804
  529MOL0     C71337   0.378   5.573   7.922  1.0275  0.3775  0.5687
  529MOL0     O71338   0.356   5.480   8.021 -0.1187  0.3917  0.0379
  529MOL0     C71339   0.262   5.518   8.121 -0.1877  0.3669  0.4540
  529MOL0     C71340   0.232   5.393   8.203  0.4274 -0.5219  0.0156
  529MOL0     C71341   0.351   5.330   8.265  0.4344  0.5721  0.0453
  529MOL0     C71342   0.305   5.224   8.375 -0.6004 -0.9145 -0.0261
  529MOL0     C71343   0.233   5.119   8.305  0.7047  0.0086 -0.7124
  529MOL0     C71344   0.177   5.031   8.253  0.6603  0.3754 -0.3022
  529MOL0     C71345   0.422   5.705   7.938  0.6181 -0.7720 -0.5363
  529MOL0     C71346   0.460   5.789   7.830 -0.1363  0.4571  0.4522
  529MOL0     C71347   0.470   5.938   7.857 -0.3954 -0.1959  0.9331
  529MOL0     H71348   0.348   5.980   7.369  0.5104  0.0604  1.2060
  529MOL0     H71349   0.395   6.117   7.183 -0.7016  1.2830  1.2600
  529MOL0     H71350   0.682   6.068   7.015  0.5311 -1.0407 -2.3053
  529MOL0     H71351   0.521   6.125   6.968  1.0069 -2.9599 -2.5583
  529MOL0     H71352   0.802   6.224   6.893 -0.2495  3.9986 -3.9158
  529MOL0     H71353   0.677   6.345   6.925  3.1034  1.7004 -0.4882
  529MOL0     H71354   0.541   6.239   6.757  0.5101  5.4961  2.4133
  529MOL0     H71355   0.682   6.134   6.695 -0.3216  2.7441 -2.3738
  529MOL0     H71356   0.622   6.420   6.667 -2.8592 -2.2788 -0.0712
  529MOL0     H71357   0.795   6.377   6.709 -0.3939  0.4752  0.6820
  529MOL0     H71358   0.803   6.215   6.544  0.0285 -0.2150  3.3627
  529MOL0     H71359   0.634   6.235   6.490  1.0539 -1.0712 -1.0985
  529MOL0     H71360   0.662   6.453   6.391  0.3867 -0.1129 -0.6413
  529MOL0     H71361   0.817   6.479   6.489  1.1340 -0.9932  1.6734
  529MOL0     H71362   0.932   6.354   6.336  0.6914  3.3311 -3.4234
  529MOL0     H71363   0.837   6.454   6.234  3.0827  1.5628  0.6587
  529MOL0     H71364   0.841   6.164   6.272 -1.5297 -1.0738 -0.1618
  529MOL0     H71365   0.675   6.233   6.284 -0.9632  1.1934 -0.4642
  529MOL0     H71366   0.989   6.283   6.042  0.4902 -1.6347  0.2037
  529MOL0     H71367   0.796   6.316   5.702 -1.5102 -2.2004  0.2636
  529MOL0     H71368   0.939   6.404   5.764 -2.1127  0.4608  0.7916
  529MOL0     H71369   0.934   6.107   5.798 -0.8334 -1.5961 -2.2253
  529MOL0     H71370   0.962   6.162   5.638  0.2237  1.3828 -0.9186
  529MOL0     H71371   1.148   6.212   5.886 -1.7183 -0.2144  0.6327
  529MOL0     H71372   1.147   6.322   5.746 -0.3283  0.4098  0.8490
  529MOL0     H71373   1.190   6.140   5.589 -1.1159  0.4527  0.3191
  529MOL0     H71374   1.191   6.016   5.703  1.6489 -0.0815 -0.2547
  529MOL0     H71375   1.247   6.003   5.924  0.6737 -3.6224 -1.4534
  529MOL0     H71376   1.388   5.972   6.118 -1.1414 -0.8845 -0.8881
  529MOL0     H71377   1.987   5.905   6.141  2.2664  0.0166  0.6956
  529MOL0     H71378   2.131   5.859   6.354 -1.3272 -0.5292  1.0782
  529MOL0     H71379   2.282   6.034   6.641 -0.8453  2.0448  2.2386
  529MOL0     H71380   2.231   6.089   6.478 -3.4708  2.3818 -0.7494
  529MOL0     H71381   2.240   6.273   6.650 -1.3765  0.2497  4.6915
  529MOL0     H71382   2.084   6.260   6.568 -1.6454 -0.9442  2.3631
  529MOL0     H71383   2.038   6.302   6.764  0.2305  0.0622 -0.7270
  529MOL0     H71384   2.034   6.123   6.792 -1.9260  2.5580  3.3711
  529MOL0     H71385   2.248   6.338   6.872 -0.5430  0.8302 -2.2588
  529MOL0     H71386   2.289   6.164   6.862 -0.0553 -0.1028  1.3466
  529MOL0     H71387   2.214   6.251   7.089  0.5060 -2.0150  0.0296
  529MOL0     H71388   2.134   6.110   7.017 -0.1110 -0.1760 -1.1234
  529MOL0     H71389   1.999   6.384   6.985 -1.4240 -1.0227 -0.9110
  529MOL0     H71390   1.937   6.225   6.959 -0.3085 -1.4957  1.4598
  529MOL0     H71391   2.041   6.354   7.222  0.0291  1.9938 -1.1460
  529MOL0     H71392   1.966   6.188   7.215  1.2058  0.2940  0.4592
  529MOL0     H71393   1.751   6.302   7.189  1.7629 -2.3968  1.0257
  529MOL0     H71394   1.841   6.348   7.326 -1.2534  3.4751 -0.8579
  529MOL0     H71395   1.876   6.103   6.578 -0.6280 -1.1454 -0.2044
  529MOL0     H71396   1.731   6.140   6.360  0.4317  0.1217 -1.0664
  529MOL0     H71397   1.735   6.092   5.897  0.6199 -0.8310  1.2740
  529MOL0     H71398   1.591   6.192   5.726 -1.0601  1.7278  0.6066
  529MOL0     H71399   0.789   6.178   7.323 -0.8563  1.0412  2.1932
  529MOL0     H71400   0.743   6.051   7.536  1.8210  3.1355 -1.3598
  529MOL0     H71401   0.422   5.541   7.589 -0.2002  1.5530 -1.3018
  529MOL0     H71402   0.361   5.418   7.775 -1.7713 -0.1097  0.1188
  529MOL0     H71403   0.165   5.548   8.079  0.7729  1.9551 -0.7565
  529MOL0     H71404   0.302   5.599   8.183  2.0288  0.8913 -1.5191
  529MOL0     H71405   0.186   5.331   8.126 -1.7380 -1.5121  1.9905
  529MOL0     H71406   0.145   5.416   8.266 -0.3701 -1.7879 -0.5964
  529MOL0     H71407   0.415   5.389   8.331 -0.5365 -1.3549  2.9179
  529MOL0     H71408   0.421   5.281   8.197  0.5429 -0.2325  0.7224
  529MOL0     H71409   0.398   5.184   8.418  0.6800  0.7184 -1.1415
  529MOL0     H71410   0.256   5.272   8.460  1.7857  2.5559 -0.4106
  529MOL0     H71411   0.116   4.959   8.204 -1.1312  2.9512 -2.1133
  529MOL0     H71412   0.428   5.750   8.036 -1.4490  1.0173 -1.1325
  529MOL0     H71413   0.415   6.008   7.793 -0.2195 -0.3173  0.6515
  529MOL0     H71414   0.438   5.959   7.959  0.7566  0.7309  1.1248
  529MOL0     H71415   0.574   5.969   7.847 -0.3928 -0.1824  1.0031
  530MOL0     O71416   2.627   9.374   0.547  1.0861  0.6871 -0.4836
  530MOL0     C71417   2.562   9.482   0.551  0.4715 -0.5496  0.7260
  530MOL0     O71418   2.432   9.496   0.511 -0.2243 -0.5267  0.2043
  530MOL0     C71419   2.335   9.394   0.529 -0.1042 -0.0595  0.0937
  530MOL0     C71420   2.343   9.287   0.618 -0.0270 -0.4532  0.2586
  530MOL0     C71421   2.230   9.212   0.636 -0.0666  0.6230  0.0855
  530MOL0     C71422   2.114   9.222   0.558 -0.3370 -1.1651 -0.4678
  530MOL0     O71423   2.033   9.113   0.555 -0.2457  0.7627 -0.9940
  530MOL0     C71424   1.902   9.129   0.487  0.0352 -0.2908  0.9794
  530MOL0     C71425   1.788   9.183   0.583 -0.0578  0.1816 -0.0928
  530MOL0     C71426   1.647   9.133   0.538 -0.2108 -0.6347  0.1515
  530MOL0     C71427   1.543   9.227   0.612  0.0909  0.1112  0.0569
  530MOL0     C71428   1.399   9.170   0.579 -0.5186 -0.3294 -0.8029
  530MOL0     C71429   1.295   9.270   0.629 -0.2013  0.6694 -0.4705
  530MOL0     C71430   1.146   9.230   0.599  0.3761  0.1214 -0.4527
  530MOL0     C71431   1.113   9.167   0.462  0.0073 -0.4859 -0.6026
  530MOL0     N71432   0.978   9.136   0.447 -0.4324  0.2304  0.4148
  530MOL0     C71433   0.902   9.065   0.528  0.2356  0.2078 -0.1621
  530MOL0     C71434   0.784   9.057   0.485  1.0391  0.9474  0.2316
  530MOL0     C71435   0.654   8.988   0.529  0.0625 -0.0523 -0.8742
  530MOL0     C71436   0.543   9.093   0.545  0.4581  0.3462 -0.6358
  530MOL0     C71437   0.406   9.020   0.575 -0.2009 -1.0307  0.4212
  530MOL0     C71438   0.334   8.950   0.458 -0.0402 -0.5388 -0.8074
  530MOL0     O71439   0.301   9.055   0.370  0.0323 -0.1678  0.2452
  530MOL0     C71440   0.183   9.025   0.308  0.1111 -0.4955  0.0959
  530MOL0     C71441   0.067   9.011   0.379 -0.8671  0.4623 -0.3512
  530MOL0     C71442  -0.060   8.982   0.326 -0.2898  0.6917  0.3812
  530MOL0     C71443  -0.066   8.987   0.186  0.2312 -0.1393 -0.4491
  530MOL0     C71444  -0.194   8.954   0.123  0.4002  0.3991  0.1794
  530MOL0     O71445  -0.305   8.954   0.203 -0.7006  0.7034 -0.8017
  530MOL0     C71446  -0.424   8.965   0.137 -0.1474 -0.7192 -0.1675
  530MOL0     C71447  -0.454   9.089   0.082  0.0328 -0.9250  0.5108
  530MOL0     C71448  -0.577   9.118   0.025  0.3803 -0.3197  0.0188
  530MOL0     C71449  -0.672   9.021   0.007  0.9793  0.0907  0.1360
  530MOL0     O71450  -0.795   9.041  -0.046 -0.1810  0.0137 -0.3251
  530MOL0     C71451  -0.797   9.115  -0.170 -1.2699 -0.6381 -0.5363
  530MOL0     C71452  -0.912   9.065  -0.259  0.5066  0.8123 -0.2229
  530MOL0     C71453  -1.049   9.083  -0.197 -0.9331 -0.2221  0.2030
  530MOL0     C71454  -1.073   9.237  -0.173 -1.5952  0.0591  0.1850
  530MOL0     C71455  -1.208   9.251  -0.113 -0.5016 -0.1654 -0.2948
  530MOL0     C71456  -1.250   9.398  -0.102  0.0469 -0.6223 -0.6445
  530MOL0     C71457  -1.391   9.419  -0.053  0.8013 -0.6721 -0.0047
  530MOL0     C71458  -1.443   9.566  -0.058 -0.9642  0.5956  0.3894
  530MOL0    Cl71459  -1.610   9.562   0.024 -0.1724 -0.3405  0.1277
  530MOL0     C71460  -0.640   8.895   0.057 -0.7153  0.3597 -0.5369
  530MOL0     C71461  -0.518   8.868   0.134 -0.7896 -0.1311  0.7404
  530MOL0     O71462  -0.199   8.958   0.003  0.0361 -0.2164 -0.9893
  530MOL0     C71463   0.047   9.015   0.109  0.5553 -0.1194  0.1522
  530MOL0     C71464   0.171   9.030   0.166  1.0529 -0.1118 -0.4655
  530MOL0     N71465   0.794   9.109   0.359 -0.3135 -0.1803 -0.3373
  530MOL0     N71466   0.907   9.161   0.341  0.0824  0.1488  0.1846
  530MOL0     C71467   2.107   9.340   0.473  0.4951  0.8190  0.4380
  530MOL0     C71468   2.214   9.426   0.463 -0.7522  0.6101 -0.3350
  530MOL0     C71469   2.641   9.592   0.599  0.3774 -1.0373  0.3465
  530MOL0     C71470   2.772   9.602   0.554  0.3082 -0.5762  0.4322
  530MOL0     C71471   2.858   9.705   0.597  0.9573 -0.7138 -0.0989
  530MOL0     C71472   2.813   9.800   0.696 -0.4322 -0.3709  0.6006
  530MOL0     O71473   2.899   9.898   0.744 -0.0635  0.1221 -0.7235
  530MOL0     C71474   3.041   9.896   0.736 -0.8994  0.7782  0.4068
  530MOL0     C71475   3.107   9.965   0.851  0.5228 -0.3014  0.8215
  530MOL0     C71476   3.092   9.874   0.974  0.4915 -0.1194  0.0339
  530MOL0     C71477   3.061   9.959   1.104  0.4762  0.1702 -0.1503
  530MOL0     C71478   3.096   9.870   1.215  0.1319 -0.3712 -0.2069
  530MOL0     C71479   3.143   9.807   1.305 -0.3331  0.9422  0.3141
  530MOL0     C71480   2.681   9.790   0.740 -0.0987 -0.3450  0.3908
  530MOL0     C71481   2.593   9.685   0.690  0.1863 -0.6277 -0.2059
  530MOL0     C71482   2.456   9.678   0.753 -1.2004 -0.1168 -0.0629
  530MOL0     H71483   2.432   9.257   0.673 -2.5341 -0.4321  4.7973
  530MOL0     H71484   2.233   9.124   0.700 -1.4002  0.6478  0.2080
  530MOL0     H71485   1.904   9.178   0.389 -0.7030 -0.5200  0.8412
  530MOL0     H71486   1.874   9.028   0.457 -1.3579  0.9123 -2.2265
  530MOL0     H71487   1.800   9.289   0.605 -0.8477  0.2578 -0.0083
  530MOL0     H71488   1.809   9.141   0.682  2.2038 -0.9689 -0.9694
  530MOL0     H71489   1.627   9.030   0.569 -0.8691 -1.3624 -2.4401
  530MOL0     H71490   1.643   9.133   0.429  2.1966 -0.1177  0.0227
  530MOL0     H71491   1.567   9.221   0.718  3.3564 -2.4292 -0.6443
  530MOL0     H71492   1.562   9.331   0.581  0.7673 -0.2137 -0.6699
  530MOL0     H71493   1.389   9.161   0.471  2.9934  0.3044 -1.3026
  530MOL0     H71494   1.381   9.075   0.630  0.2189  0.7984  1.7071
  530MOL0     H71495   1.296   9.276   0.738  0.1532 -0.5115 -0.3959
  530MOL0     H71496   1.322   9.372   0.597 -1.1112  1.5824  1.4781
  530MOL0     H71497   1.085   9.317   0.623 -0.0603 -0.5770  1.0868
  530MOL0     H71498   1.123   9.140   0.657  1.6061 -1.9634 -2.9470
  530MOL0     H71499   1.128   9.248   0.390 -0.4691  1.4789  1.4071
  530MOL0     H71500   1.177   9.078   0.450  0.4254 -0.7782  2.8180
  530MOL0     H71501   0.936   9.021   0.621  1.5895 -0.8016 -1.0671
  530MOL0     H71502   0.625   8.904   0.466  0.7391 -0.8997 -0.0841
  530MOL0     H71503   0.694   8.944   0.621  0.8093  0.4588 -0.9403
  530MOL0     H71504   0.571   9.161   0.625  1.5546 -0.2293 -0.5017
  530MOL0     H71505   0.543   9.147   0.450 -0.6023 -0.8252 -1.3344
  530MOL0     H71506   0.338   9.090   0.624 -0.8351 -2.3107  1.4260
  530MOL0     H71507   0.432   8.944   0.649 -1.2851 -0.4186  1.4509
  530MOL0     H71508   0.250   8.890   0.493 -0.5570  0.9583  0.6399
  530MOL0     H71509   0.408   8.891   0.403 -2.1254 -3.0368 -1.1205
  530MOL0     H71510   0.074   9.016   0.487 -0.0384 -1.0286 -0.3063
  530MOL0     H71511  -0.149   8.958   0.384  0.1530  0.1175  0.8419
  530MOL0     H71512  -0.391   9.175   0.102  2.4993 -2.8150  1.5252
  530MOL0     H71513  -0.594   9.220  -0.011  1.1631 -0.5169 -0.9491
  530MOL0     H71514  -0.805   9.221  -0.145  0.6905 -0.2130 -1.5645
  530MOL0     H71515  -0.698   9.116  -0.216 -0.8163  0.4476  0.4381
  530MOL0     H71516  -0.905   9.108  -0.359  1.6089  2.5564  0.5635
  530MOL0     H71517  -0.907   8.958  -0.282 -1.3463  1.2883 -3.4732
  530MOL0     H71518  -1.122   9.049  -0.271 -1.0221 -0.3615  0.3567
  530MOL0     H71519  -1.050   9.012  -0.114  2.9231 -0.7151  0.0389
  530MOL0     H71520  -1.067   9.299  -0.263 -0.4507 -1.1109 -0.5765
  530MOL0     H71521  -1.005   9.265  -0.092 -0.1695 -3.5210  0.3851
  530MOL0     H71522  -1.224   9.200  -0.018 -0.7203 -0.8524 -0.6904
  530MOL0     H71523  -1.272   9.207  -0.190  1.5854 -2.9257 -0.6303
  530MOL0     H71524  -1.186   9.446  -0.027 -0.0281 -1.7279  0.1423
  530MOL0     H71525  -1.250   9.441  -0.203 -1.8215 -0.9414 -0.8154
  530MOL0     H71526  -1.418   9.378   0.045  3.9597 -1.5384  0.6256
  530MOL0     H71527  -1.441   9.372  -0.138  0.5915  1.3619 -1.0631
  530MOL0     H71528  -1.373   9.626   0.000 -2.1278  0.7094  1.7191
  530MOL0     H71529  -1.448   9.606  -0.160  1.1244  1.2218  0.4871
  530MOL0     H71530  -0.725   8.827   0.054 -1.4326  1.1128  1.4774
  530MOL0     H71531  -0.498   8.770   0.177  3.2594  1.1019  2.1480
  530MOL0     H71532   0.025   9.026   0.003  3.1397  1.8682 -0.2955
  530MOL0     H71533   0.255   9.062   0.105  0.9643 -0.3274 -0.7028
  530MOL0     H71534   2.019   9.371   0.418  0.4636 -0.0191 -0.0058
  530MOL0     H71535   2.193   9.520   0.412  1.2309  0.3586 -1.7373
  530MOL0     H71536   2.812   9.534   0.480 -1.1393 -0.9799  0.0123
  530MOL0     H71537   2.961   9.712   0.561  0.8219 -3.4133 -1.2491
  530MOL0     H71538   3.077   9.934   0.640 -1.7491  0.2654 -0.1284
  530MOL0     H71539   3.090   9.798   0.743  0.4815  0.8145 -4.8480
  530MOL0     H71540   3.053  10.061   0.852 -1.0563 -1.1465  0.2920
  530MOL0     H71541   3.214   9.983   0.835  0.2296 -0.6910 -2.1716
  530MOL0     H71542   3.183   9.813   0.975 -0.2789 -1.3321 -0.9979
  530MOL0     H71543   3.004   9.810   0.966 -1.4259  2.3846 -0.0918
  530MOL0     H71544   3.104  10.059   1.104 -1.5626  1.1148  0.1957
  530MOL0     H71545   2.955   9.985   1.114 -0.2129 -0.7121 -3.8609
  530MOL0     H71546   3.165   9.739   1.385 -2.2378  1.3278  1.2264
  530MOL0     H71547   2.664   9.853   0.827  1.9843  0.7613  0.0751
  530MOL0     H71548   2.377   9.659   0.680  0.8342 -1.8288 -1.9884
  530MOL0     H71549   2.459   9.585   0.811 -2.1228  0.8800  1.6524
  530MOL0     H71550   2.433   9.761   0.819  2.3856 -0.0576  1.3565
  531MOL0     O71551   4.701   9.119   6.116  0.1433  0.1320  0.4467
  531MOL0     C71552   4.651   9.234   6.142 -0.0995 -0.2916 -0.6244
  531MOL0     O71553   4.547   9.292   6.082  0.0253  0.5076 -1.4678
  531MOL0     C71554   4.455   9.223   5.997 -0.6566 -0.2097  0.2561
  531MOL0     C71555   4.352   9.305   5.947 -0.5200 -0.6598 -0.7603
  531MOL0     C71556   4.257   9.249   5.859 -0.0095  0.1617 -0.4889
  531MOL0     C71557   4.270   9.111   5.820 -0.3964 -0.5928  0.9316
  531MOL0     O71558   4.171   9.067   5.731 -0.0213 -0.7810  0.4502
  531MOL0     C71559   4.094   8.964   5.791 -0.0662  0.3000  0.4993
  531MOL0     C71560   3.963   8.938   5.726  0.3700 -0.8442 -0.1327
  531MOL0     C71561   3.985   8.852   5.589  0.6519  0.0859  0.2260
  531MOL0     C71562   3.857   8.794   5.528  0.4061  0.4739 -0.8411
  531MOL0     C71563   3.769   8.906   5.473 -0.3884  0.4413  0.1892
  531MOL0     C71564   3.669   8.823   5.388 -0.1523 -0.3640  0.1390
  531MOL0     C71565   3.543   8.904   5.344  0.3957 -1.0564 -0.3516
  531MOL0     C71566   3.418   8.860   5.413  0.1198 -1.1609  0.2615
  531MOL0     N71567   3.432   8.864   5.554  0.1751 -0.1607 -0.8085
  531MOL0     C71568   3.403   8.763   5.641 -1.1431  0.1209 -0.0452
  531MOL0     C71569   3.458   8.798   5.761  0.0339 -0.2302 -0.1532
  531MOL0     C71570   3.434   8.722   5.896 -0.6246  0.5710  0.2728
  531MOL0     C71571   3.552   8.726   5.982  0.4970  0.6558 -0.0990
  531MOL0     C71572   3.679   8.660   5.934  0.6852  0.5928 -0.5677
  531MOL0     C71573   3.768   8.598   6.045 -1.4154  0.2501  0.1962
  531MOL0     O71574   3.702   8.497   6.121  0.1175 -0.2861 -0.4393
  531MOL0     C71575   3.613   8.403   6.059 -0.3275 -0.7454  0.2181
  531MOL0     C71576   3.512   8.364   6.141  0.3413  0.9832 -0.9212
  531MOL0     C71577   3.411   8.278   6.098  0.3689  0.6204  0.9783
  531MOL0     C71578   3.415   8.219   5.970 -0.6346  0.3684  0.4634
  531MOL0     C71579   3.312   8.124   5.935 -0.3326  0.5946  0.4141
  531MOL0     O71580   3.350   8.015   5.862  0.2423  0.0382 -0.5703
  531MOL0     C71581   3.255   7.912   5.827 -0.4053  0.2076 -0.2048
  531MOL0     C71582   3.251   7.854   5.706 -0.6574 -0.4211 -0.6800
  531MOL0     C71583   3.168   7.747   5.674  0.2641 -0.1657  0.1654
  531MOL0     C71584   3.084   7.695   5.773 -0.0312 -0.6585 -0.1279
  531MOL0     O71585   2.999   7.595   5.743 -0.4841 -0.0335  0.5473
  531MOL0     C71586   2.980   7.509   5.858 -0.1221  0.1040  0.2729
  531MOL0     C71587   2.906   7.383   5.817  0.1145 -0.2073 -0.4887
  531MOL0     C71588   2.979   7.284   5.720  0.1064 -0.4984 -0.3820
  531MOL0     C71589   2.882   7.175   5.673  0.0068 -1.2547  0.1315
  531MOL0     C71590   2.808   7.200   5.532 -0.2327  0.4176 -1.3387
  531MOL0     C71591   2.713   7.080   5.497 -1.0664 -0.0558 -0.7522
  531MOL0     C71592   2.659   7.094   5.358 -0.1317  0.5365 -0.1231
  531MOL0     C71593   2.536   6.996   5.340 -0.3583 -0.2029 -0.0144
  531MOL0    Cl71594   2.582   6.830   5.304 -0.1834 -0.3478  0.1702
  531MOL0     C71595   3.087   7.756   5.901  0.1587 -0.9822  0.1564
  531MOL0     C71596   3.164   7.866   5.926  0.1401  0.5611  0.3647
  531MOL0     O71597   3.196   8.160   5.956 -0.7151 -0.3329 -0.3218
  531MOL0     C71598   3.522   8.243   5.889 -0.2698 -0.9857  0.4455
  531MOL0     C71599   3.623   8.336   5.932  0.6587 -0.1980 -0.5494
  531MOL0     N71600   3.510   8.931   5.743 -0.5570 -0.5178 -0.5600
  531MOL0     N71601   3.475   8.965   5.623  0.0327  0.2597  0.1824
  531MOL0     C71602   4.377   9.043   5.865  0.4819  0.0867  0.2381
  531MOL0     C71603   4.459   9.093   5.972  0.5386  0.3439  0.0610
  531MOL0     C71604   4.713   9.327   6.246  0.3737  0.5079  0.0615
  531MOL0     C71605   4.703   9.470   6.240  0.3427 -0.1285  0.0414
  531MOL0     C71606   4.734   9.553   6.349  1.0471  0.1518 -0.6444
  531MOL0     C71607   4.773   9.501   6.473 -0.2582  1.3911  0.2180
  531MOL0     O71608   4.770   9.591   6.573 -1.1181  0.5951 -0.1969
  531MOL0     C71609   4.802   9.540   6.712 -0.7462 -0.6502  0.2812
  531MOL0     C71610   4.897   9.645   6.773  0.4789 -0.3101 -0.1048
  531MOL0     C71611   4.810   9.761   6.838  0.2928 -0.4262 -0.2724
  531MOL0     C71612   4.918   9.872   6.863 -0.7141 -1.0571 -0.5581
  531MOL0     C71613   4.882   9.989   6.784 -0.5561  0.9138 -0.9521
  531MOL0     C71614   4.871  10.078   6.702  0.0538  0.0638 -0.5440
  531MOL0     C71615   4.793   9.361   6.479 -0.9148 -0.4223  0.7532
  531MOL0     C71616   4.759   9.281   6.370  0.0214  0.5386 -0.5938
  531MOL0     C71617   4.768   9.130   6.392  0.4303  0.1262  0.0946
  531MOL0     H71618   4.348   9.409   5.976 -2.2112 -0.8949 -0.0431
  531MOL0     H71619   4.171   9.306   5.824 -2.4729 -1.6820  2.1115
  531MOL0     H71620   4.159   8.878   5.805 -2.6708 -1.4697  2.9064
  531MOL0     H71621   4.065   8.989   5.894  1.1747 -0.3674  1.0252
  531MOL0     H71622   3.910   9.028   5.693 -1.6857 -1.4600  1.2617
  531MOL0     H71623   3.903   8.873   5.791  3.1435 -3.6352 -0.1461
  531MOL0     H71624   4.048   8.768   5.618  0.4519  0.0585  0.5864
  531MOL0     H71625   4.048   8.908   5.520 -1.1005  2.7926  0.6563
  531MOL0     H71626   3.872   8.717   5.452 -2.0242 -1.9280  0.9186
  531MOL0     H71627   3.792   8.748   5.604 -1.7074  1.7636 -1.7821
  531MOL0     H71628   3.719   8.972   5.545 -4.0397 -2.0229  0.1805
  531MOL0     H71629   3.829   8.962   5.401  0.6141 -1.8493 -0.8734
  531MOL0     H71630   3.726   8.798   5.298  3.6279  1.7984  1.6821
  531MOL0     H71631   3.636   8.731   5.439 -0.2707  0.3474  1.3852
  531MOL0     H71632   3.534   8.879   5.238 -1.0466  1.5342 -0.9261
  531MOL0     H71633   3.547   9.012   5.355 -1.1939 -1.0926  0.8510
  531MOL0     H71634   3.331   8.923   5.395 -0.2489 -1.4754  0.9121
  531MOL0     H71635   3.400   8.757   5.379  0.1457 -1.3187  0.7313
  531MOL0     H71636   3.346   8.673   5.617 -0.6417 -0.8488  2.2132
  531MOL0     H71637   3.345   8.765   5.943 -1.7268 -0.7814 -0.5154
  531MOL0     H71638   3.410   8.616   5.886 -1.7984  0.6370  1.9758
  531MOL0     H71639   3.577   8.830   6.002 -1.3908  1.0217  0.6261
  531MOL0     H71640   3.515   8.679   6.074  2.3014  1.3439  1.0085
  531MOL0     H71641   3.732   8.734   5.872 -0.4115  0.2244 -2.0179
  531MOL0     H71642   3.645   8.590   5.857  3.1188 -1.9689  0.5088
  531MOL0     H71643   3.808   8.672   6.115 -0.9959  1.1207 -0.9300
  531MOL0     H71644   3.854   8.547   6.001 -1.4914  1.4143 -1.4017
  531MOL0     H71645   3.512   8.408   6.240  0.9225 -3.0132  1.0473
  531MOL0     H71646   3.334   8.258   6.172 -1.4152 -2.9095 -1.5208
  531MOL0     H71647   3.324   7.903   5.642 -2.0383  1.8447 -0.6434
  531MOL0     H71648   3.168   7.708   5.573  2.1240  0.3858 -0.0740
  531MOL0     H71649   3.075   7.483   5.906 -2.7922 -1.6546  5.4583
  531MOL0     H71650   2.921   7.549   5.941  1.3952 -1.8513  2.4302
  531MOL0     H71651   2.877   7.330   5.908  0.6856 -4.6292 -2.5839
  531MOL0     H71652   2.818   7.418   5.762  1.4290  0.0836 -2.5255
  531MOL0     H71653   3.029   7.347   5.645 -0.3170 -0.6127 -0.7585
  531MOL0     H71654   3.059   7.242   5.782  0.5956 -0.5160 -1.0070
  531MOL0     H71655   2.813   7.155   5.755  2.1807 -3.1610  1.6450
  531MOL0     H71656   2.948   7.087   5.669  3.3700  1.0921 -0.3431
  531MOL0     H71657   2.887   7.206   5.457  1.8068  4.1603  0.8131
  531MOL0     H71658   2.755   7.295   5.542  2.0378  1.6118  0.2049
  531MOL0     H71659   2.765   6.984   5.495 -0.9550 -0.0197 -3.4619
  531MOL0     H71660   2.635   7.068   5.572 -2.0732  0.9523 -1.5943
  531MOL0     H71661   2.727   7.083   5.273 -1.5377 -0.9116 -1.1290
  531MOL0     H71662   2.604   7.189   5.355  0.3705  0.8431  0.1549
  531MOL0     H71663   2.476   7.000   5.431  4.3731  4.4232  3.5593
  531MOL0     H71664   2.473   7.029   5.256 -0.4366 -0.2210  0.0367
  531MOL0     H71665   3.023   7.728   5.984 -2.4231  1.6260 -0.7736
  531MOL0     H71666   3.162   7.920   6.020 -0.8460 -2.6825  2.3551
  531MOL0     H71667   3.526   8.201   5.788  4.2376  1.2840 -0.5542
  531MOL0     H71668   3.701   8.373   5.866  2.9139  0.4229  2.2653
  531MOL0     H71669   4.399   8.949   5.816  2.9765  0.0972  1.2195
  531MOL0     H71670   4.542   9.029   6.000  1.2433  1.4044  0.4578
  531MOL0     H71671   4.674   9.513   6.145  1.8342  1.7798  0.3816
  531MOL0     H71672   4.707   9.658   6.343  3.1153  0.7922  0.4460
  531MOL0     H71673   4.832   9.437   6.735  1.3515 -0.3653 -0.8950
  531MOL0     H71674   4.703   9.553   6.756 -0.9158 -1.3932  0.1411
  531MOL0     H71675   4.970   9.679   6.700  0.8434  1.5599  1.0716
  531MOL0     H71676   4.946   9.595   6.857 -0.7908  0.0976  0.9279
  531MOL0     H71677   4.766   9.728   6.933  0.7017 -2.2311 -0.6638
  531MOL0     H71678   4.726   9.797   6.778 -2.6023 -3.2521  1.7378
  531MOL0     H71679   4.924   9.902   6.968  1.2235  0.3030 -0.9996
  531MOL0     H71680   5.012   9.826   6.831 -1.1714 -0.6376 -2.6693
  531MOL0     H71681   4.864  10.164   6.639 -3.3661  0.7637  0.5779
  531MOL0     H71682   4.828   9.311   6.569 -0.4526 -0.8801  0.3315
  531MOL0     H71683   4.852   9.099   6.330  0.2205  1.1376 -0.7366
  531MOL0     H71684   4.794   9.116   6.498 -0.4809 -0.3809  0.2569
  531MOL0     H71685   4.670   9.089   6.368  0.7177  0.3430 -1.6005
  532MOL0     O71686  11.514   0.450   2.310 -0.0934 -0.0717  0.1088
  532MOL0     C71687  11.393   0.425   2.320  1.2562  0.7136 -0.1446
  532MOL0     O71688  11.309   0.484   2.404  0.5039  0.0985  0.4179
  532MOL0     C71689  11.348   0.556   2.512 -0.1081 -0.2291  0.1764
  532MOL0     C71690  11.349   0.490   2.639  0.1043  0.0297  0.2184
  532MOL0     C71691  11.405   0.555   2.747  0.3404 -0.2632 -0.1980
  532MOL0     C71692  11.461   0.685   2.736 -0.3059 -0.3514  0.5945
  532MOL0     O71693  11.531   0.737   2.841 -0.0290 -0.5930  0.3404
  532MOL0     C71694  11.516   0.673   2.968  0.5797 -0.1061  0.2049
  532MOL0     C71695  11.595   0.747   3.069 -0.0154  0.0138  0.2774
  532MOL0     C71696  11.512   0.872   3.109 -0.6939  0.5665  0.1375
  532MOL0     C71697  11.611   0.976   3.167 -0.0746 -0.0021 -0.2296
  532MOL0     C71698  11.555   1.091   3.240  0.2303 -0.2011 -0.6058
  532MOL0     C71699  11.496   1.073   3.379  0.6651  0.0619  0.1243
  532MOL0     C71700  11.445   1.212   3.433 -0.1408  1.0041  0.0770
  532MOL0     C71701  11.348   1.205   3.546  0.2851  0.1898 -0.6153
  532MOL0     N71702  11.406   1.179   3.678  0.3309 -0.8020  0.4207
  532MOL0     C71703  11.467   1.280   3.745  1.0399 -0.5093 -0.7090
  532MOL0     C71704  11.486   1.231   3.876 -0.5861  1.2448  0.5254
  532MOL0     C71705  11.539   1.304   3.997  1.3101 -0.4305 -0.4277
  532MOL0     C71706  11.689   1.255   4.003  0.3431 -0.4690 -0.2911
  532MOL0     C71707  11.757   1.328   4.124 -0.4955  0.2568 -0.1102
  532MOL0     C71708  11.726   1.296   4.270 -0.6566  0.7164 -0.4812
  532MOL0     O71709  11.815   1.364   4.352 -0.3724  0.5190 -0.3038
  532MOL0     C71710  11.782   1.460   4.439  0.7295 -0.2099  0.4593
  532MOL0     C71711  11.887   1.498   4.524  1.0577  0.7370  0.6850
  532MOL0     C71712  11.885   1.623   4.589  0.2760  0.5344  0.1371
  532MOL0     C71713  11.774   1.704   4.567 -1.1155  0.8568  0.4969
  532MOL0     C71714  11.783   1.850   4.595  0.3003 -0.1320  0.5143
  532MOL0     O71715  11.904   1.911   4.619 -0.1402  0.2558  0.3392
  532MOL0     C71716  11.909   2.037   4.653  0.5236 -0.6527  0.6408
  532MOL0     C71717  11.896   2.084   4.777  0.1548  0.5239  0.1081
  532MOL0     C71718  11.906   2.221   4.803 -0.2708  1.1227 -0.6427
  532MOL0     C71719  11.954   2.300   4.702 -0.0136  0.1407  1.2078
  532MOL0     O71720  11.986   2.437   4.714  0.1644  0.4050  0.1878
  532MOL0     C71721  11.961   2.505   4.842  1.0636  0.1513  0.4486
  532MOL0     C71722  11.815   2.548   4.864 -0.6010 -0.4976 -0.7360
  532MOL0     C71723  11.766   2.661   4.778 -0.5479 -1.4550 -0.4590
  532MOL0     C71724  11.848   2.786   4.813 -0.4947  0.1035 -0.2653
  532MOL0     C71725  11.772   2.903   4.753 -0.2522 -0.0505 -0.2222
  532MOL0     C71726  11.861   3.023   4.781  0.4377  1.2116  0.5193
  532MOL0     C71727  11.830   3.155   4.708 -0.5678  0.0188 -0.7074
  532MOL0     C71728  11.750   3.247   4.801 -0.2933 -0.1416 -1.0239
  532MOL0    Cl71729  11.747   3.404   4.721 -0.2246  0.4156 -0.0890
  532MOL0     C71730  11.966   2.254   4.571 -0.3822 -0.0849 -0.0518
  532MOL0     C71731  11.951   2.120   4.549 -0.8245 -0.8517  0.1321
  532MOL0     O71732  11.675   1.913   4.593  0.2694 -0.2857  0.3861
  532MOL0     C71733  11.666   1.657   4.494 -0.3441 -0.0898  1.4093
  532MOL0     C71734  11.673   1.542   4.417 -0.1286 -0.1309 -0.4692
  532MOL0     N71735  11.446   1.098   3.882  0.0332 -0.1291 -0.3724
  532MOL0     N71736  11.391   1.075   3.761 -0.2362 -0.2375 -0.0153
  532MOL0     C71737  11.482   0.747   2.608 -0.6699  0.6818  0.1038
  532MOL0     C71738  11.420   0.680   2.500  1.1964 -0.3763  0.0846
  532MOL0     C71739  11.339   0.338   2.208 -0.0722 -0.3299 -0.0749
  532MOL0     C71740  11.199   0.344   2.192 -0.9637  0.1690 -0.2263
  532MOL0     C71741  11.136   0.284   2.082 -0.8510 -0.8600 -1.2691
  532MOL0     C71742  11.209   0.231   1.983 -0.3073 -0.5314  0.2703
  532MOL0     O71743  11.130   0.182   1.882 -0.1352  0.1593  0.1911
  532MOL0     C71744  11.168   0.057   1.822 -0.6392 -1.5434  0.7644
  532MOL0     C71745  11.053  -0.015   1.753 -0.2835  0.1349  0.3429
  532MOL0     C71746  11.003   0.076   1.638 -0.1576 -0.2330 -0.1890
  532MOL0     C71747  10.878   0.030   1.578  0.5758  0.8252  0.4471
  532MOL0     C71748  10.909  -0.097   1.504 -0.0618 -0.1585  0.0405
  532MOL0     C71749  10.952  -0.207   1.460  0.6402 -0.4882 -0.4298
  532MOL0     C71750  11.349   0.222   1.993 -0.2760 -0.9387 -0.1054
  532MOL0     C71751  11.411   0.270   2.105 -1.0717  0.2001  0.0306
  532MOL0     C71752  11.566   0.258   2.107  0.0792  0.2570  0.2559
  532MOL0     H71753  11.312   0.389   2.656  2.8703 -0.6390  3.3835
  532MOL0     H71754  11.407   0.506   2.844 -0.5380 -1.8467 -0.9389
  532MOL0     H71755  11.411   0.678   2.998 -0.4274  1.5650 -3.0607
  532MOL0     H71756  11.560   0.574   2.954 -1.2402 -0.6802 -2.0753
  532MOL0     H71757  11.686   0.779   3.017 -0.9440 -0.2735 -1.6340
  532MOL0     H71758  11.615   0.685   3.157 -1.9384 -0.4417  0.4381
  532MOL0     H71759  11.435   0.835   3.176 -0.5119 -0.1081 -0.0151
  532MOL0     H71760  11.461   0.906   3.018 -2.2111 -2.1533 -0.1354
  532MOL0     H71761  11.693   0.928   3.220 -1.1102 -1.5187  0.0794
  532MOL0     H71762  11.639   1.038   3.081 -2.2191  5.3458  2.4569
  532MOL0     H71763  11.629   1.171   3.237  0.6005 -0.5143  0.1034
  532MOL0     H71764  11.473   1.121   3.174 -0.2601 -1.1670 -0.4566
  532MOL0     H71765  11.411   1.005   3.374  0.7057  0.0878 -1.1604
  532MOL0     H71766  11.575   1.039   3.446  1.9425  0.0239 -1.3359
  532MOL0     H71767  11.376   1.253   3.357  0.5291  2.5319  0.2457
  532MOL0     H71768  11.521   1.284   3.464  1.6225 -0.7000 -0.1081
  532MOL0     H71769  11.296   1.300   3.556  2.1876  1.4704 -2.1843
  532MOL0     H71770  11.274   1.124   3.538  0.2621  0.1524 -0.0587
  532MOL0     H71771  11.472   1.382   3.707 -2.3845  0.0616  0.0516
  532MOL0     H71772  11.528   1.411   3.978  0.8340 -0.1673  1.1821
  532MOL0     H71773  11.487   1.263   4.084 -2.2899 -0.2297 -2.2823
  532MOL0     H71774  11.695   1.148   4.024  2.4717 -0.4387 -0.4384
  532MOL0     H71775  11.741   1.269   3.908  0.9425 -0.2628  0.0540
  532MOL0     H71776  11.735   1.433   4.102 -0.2724  0.5250  0.9019
  532MOL0     H71777  11.862   1.300   4.123 -0.7794 -0.9450 -1.9352
  532MOL0     H71778  11.740   1.189   4.288  4.1410  1.3510  1.0173
  532MOL0     H71779  11.620   1.312   4.294 -0.3941 -0.0254  1.3772
  532MOL0     H71780  11.973   1.434   4.536 -1.3078 -3.0166 -0.6189
  532MOL0     H71781  11.972   1.653   4.646  0.1714  0.3799  0.3827
  532MOL0     H71782  11.862   2.017   4.855  1.9792 -1.5707 -0.7888
  532MOL0     H71783  11.890   2.248   4.907 -0.9780  0.8312 -0.6780
  532MOL0     H71784  11.981   2.452   4.936  2.2304 -1.1622 -0.5022
  532MOL0     H71785  12.024   2.592   4.861 -0.9437  2.4779 -2.7315
  532MOL0     H71786  11.751   2.465   4.833 -0.3413 -0.0570 -2.5929
  532MOL0     H71787  11.796   2.552   4.972 -0.1171 -5.4904 -0.2228
  532MOL0     H71788  11.777   2.629   4.674 -0.6667 -1.3203 -0.5141
  532MOL0     H71789  11.660   2.684   4.795 -0.6308 -1.4927 -0.9334
  532MOL0     H71790  11.946   2.777   4.764  0.3397  1.2419  1.1277
  532MOL0     H71791  11.851   2.786   4.922 -2.0733 -0.2625 -0.1975
  532MOL0     H71792  11.680   2.924   4.809  2.6976  1.8757  4.6396
  532MOL0     H71793  11.746   2.893   4.648 -0.7369  1.5786 -0.2864
  532MOL0     H71794  11.866   3.040   4.889 -1.1376  0.2565  0.7743
  532MOL0     H71795  11.961   2.997   4.744  1.9662  3.9527  2.3696
  532MOL0     H71796  11.774   3.128   4.618 -5.3939  3.9523  0.6949
  532MOL0     H71797  11.924   3.199   4.672 -0.6601  1.0627  0.2499
  532MOL0     H71798  11.645   3.218   4.807 -0.2321 -0.5358 -1.7254
  532MOL0     H71799  11.807   3.242   4.894  3.8113 -1.5267 -3.3247
  532MOL0     H71800  11.992   2.324   4.493  1.5867 -0.2825  0.3908
  532MOL0     H71801  11.951   2.090   4.445 -1.1669 -1.2973  0.2555
  532MOL0     H71802  11.583   1.725   4.477 -0.5980 -0.9513 -1.3119
  532MOL0     H71803  11.590   1.520   4.350 -0.0094 -1.9000 -0.0754
  532MOL0     H71804  11.539   0.839   2.604  1.2346 -0.3435  1.7609
  532MOL0     H71805  11.428   0.736   2.407  1.4427 -0.0477  0.2983
  532MOL0     H71806  11.141   0.397   2.266 -1.7916 -0.0817 -0.6772
  532MOL0     H71807  11.029   0.289   2.065 -0.6211 -0.9031 -2.8778
  532MOL0     H71808  11.216  -0.009   1.895  1.1577  1.3912  2.4621
  532MOL0     H71809  11.242   0.072   1.744  0.5083 -0.3354  2.0132
  532MOL0     H71810  10.976  -0.041   1.826 -1.7769 -0.7623 -1.4742
  532MOL0     H71811  11.096  -0.103   1.705 -4.4715 -1.7259 -0.4907
  532MOL0     H71812  11.077   0.090   1.558 -0.7597  1.9006 -0.4424
  532MOL0     H71813  10.987   0.176   1.679  2.5788  0.4875 -0.6490
  532MOL0     H71814  10.797   0.020   1.650 -0.7246 -1.9810 -1.2623
  532MOL0     H71815  10.855   0.105   1.502  3.6286  2.0595  0.6041
  532MOL0     H71816  10.992  -0.299   1.423 -1.3306 -2.7276  2.5142
  532MOL0     H71817  11.408   0.192   1.907  0.3480  0.6944 -0.2851
  532MOL0     H71818  11.599   0.231   2.208 -0.0819 -3.1404 -0.4774
  532MOL0     H71819  11.600   0.185   2.033 -0.0170  1.5050 -1.0675
  532MOL0     H71820  11.621   0.352   2.093  2.0926 -0.4547  2.7719
  533MOL0     O71821   4.181   0.763   8.219  0.2939 -0.9072 -0.9723
  533MOL0     C71822   4.187   0.695   8.317  0.5849 -0.2352 -0.8449
  533MOL0     O71823   4.287   0.607   8.335 -0.2802  0.4565 -0.8974
  533MOL0     C71824   4.385   0.585   8.239 -0.4079 -0.6179 -0.2243
  533MOL0     C71825   4.525   0.612   8.258  1.7925 -0.1604 -0.1728
  533MOL0     C71826   4.618   0.594   8.156 -1.0546 -1.3239 -0.0483
  533MOL0     C71827   4.579   0.545   8.030  0.1303 -0.3998 -0.2357
  533MOL0     O71828   4.671   0.525   7.931  0.3279  0.0941  0.3164
  533MOL0     C71829   4.784   0.618   7.915 -0.4120 -0.0694 -1.0484
  533MOL0     C71830   4.894   0.554   7.839 -0.2041  0.3240  0.0261
  533MOL0     C71831   4.985   0.452   7.909 -0.6574  1.1217 -0.8895
  533MOL0     C71832   4.918   0.348   7.992 -0.3118  0.0738  0.5671
  533MOL0     C71833   5.017   0.248   8.052 -0.7155 -0.1833 -0.3203
  533MOL0     C71834   4.947   0.111   8.078 -0.6349 -0.4967  0.7282
  533MOL0     C71835   5.030   0.035   8.183 -1.1262 -0.7142 -0.1659
  533MOL0     C71836   4.958  -0.095   8.205 -0.2757 -0.4947  0.2769
  533MOL0     N71837   5.046  -0.186   8.289 -0.0932 -0.6002  0.3565
  533MOL0     C71838   4.992  -0.255   8.388 -0.6257 -0.1116 -0.4517
  533MOL0     C71839   5.100  -0.335   8.435 -0.6190 -0.4749 -1.5418
  533MOL0     C71840   5.088  -0.433   8.542 -0.5096  0.6219 -0.8569
  533MOL0     C71841   5.115  -0.577   8.487  0.2543 -0.1983 -0.6898
  533MOL0     C71842   5.128  -0.662   8.604  0.7703 -1.1989  0.1220
  533MOL0     C71843   5.157  -0.809   8.582  0.6294  0.6557  0.3003
  533MOL0     O71844   5.283  -0.812   8.505  0.4037 -0.1041 -0.5460
  533MOL0     C71845   5.304  -0.879   8.389  0.4182  0.1634 -0.4745
  533MOL0     C71846   5.239  -1.002   8.358 -0.0341  0.0533 -0.4237
  533MOL0     C71847   5.265  -1.064   8.235 -0.3003 -0.7674 -0.8679
  533MOL0     C71848   5.352  -1.003   8.143 -0.5239 -0.5157  0.3073
  533MOL0     C71849   5.366  -1.057   8.007 -0.3031 -0.1522  0.0215
  533MOL0     O71850   5.472  -1.013   7.936  0.1172  0.0156  0.0660
  533MOL0     C71851   5.516  -1.072   7.823 -1.0656 -1.2156  0.5340
  533MOL0     C71852   5.508  -1.013   7.699 -0.0158 -0.2775 -0.0393
  533MOL0     C71853   5.550  -1.075   7.580 -0.7859 -0.5227 -0.7959
  533MOL0     C71854   5.593  -1.213   7.591  0.1451  0.8083  0.3242
  533MOL0     O71855   5.628  -1.279   7.476  0.4018 -0.2562 -0.3785
  533MOL0     C71856   5.744  -1.370   7.483 -0.7653 -0.5522  0.1826
  533MOL0     C71857   5.761  -1.438   7.345  0.0623 -0.1559  0.5360
  533MOL0     C71858   5.898  -1.400   7.287 -0.2989  0.5148  0.4268
  533MOL0     C71859   5.934  -1.476   7.154 -0.0219  0.0258  1.0370
  533MOL0     C71860   6.090  -1.514   7.154  0.2308  0.0091 -0.5754
  533MOL0     C71861   6.177  -1.389   7.141  0.1752 -0.4960  0.0020
  533MOL0     C71862   6.327  -1.404   7.167  0.3570  0.1829 -0.4426
  533MOL0     C71863   6.389  -1.507   7.079  0.6169  0.1744 -0.3021
  533MOL0    Cl71864   6.373  -1.465   6.908 -0.2256 -0.0782  0.4944
  533MOL0     C71865   5.600  -1.268   7.717 -1.2584  1.0766  0.3956
  533MOL0     C71866   5.557  -1.202   7.833  0.0941 -0.0152  0.9636
  533MOL0     O71867   5.303  -1.161   7.981 -0.5446 -0.2400 -0.6235
  533MOL0     C71868   5.417  -0.895   8.186 -0.6448 -0.1767  0.3860
  533MOL0     C71869   5.391  -0.831   8.301  0.3362 -1.4088 -0.1182
  533MOL0     N71870   5.210  -0.303   8.362  0.6289 -0.4244  0.1809
  533MOL0     N71871   5.179  -0.219   8.264  0.5381  0.5940 -0.4659
  533MOL0     C71872   4.445   0.506   8.016 -0.4492 -0.0218  0.6387
  533MOL0     C71873   4.346   0.529   8.111  0.1274  0.3127 -0.4580
  533MOL0     C71874   4.070   0.686   8.417 -1.3347  0.1648 -0.6914
  533MOL0     C71875   4.075   0.587   8.511 -0.9134  1.7603 -0.1514
  533MOL0     C71876   3.967   0.562   8.607  0.2016 -0.0901  0.5765
  533MOL0     C71877   3.857   0.643   8.600 -0.3539  0.7205 -1.1826
  533MOL0     O71878   3.770   0.638   8.703  0.2537  0.0319 -0.2141
  533MOL0     C71879   3.764   0.520   8.788  0.8479 -0.6063 -0.3273
  533MOL0     C71880   3.838   0.532   8.917  0.5598 -0.5481 -0.4657
  533MOL0     C71881   3.796   0.653   8.991 -0.2346  0.7446 -1.2170
  533MOL0     C71882   3.883   0.671   9.120 -0.1599  0.4524 -0.9224
  533MOL0     C71883   3.858   0.567   9.219 -0.1257 -0.0817  0.9187
  533MOL0     C71884   3.858   0.482   9.295 -0.6928  0.1393 -0.1652
  533MOL0     C71885   3.853   0.737   8.505 -0.2571 -0.3532 -0.3040
  533MOL0     C71886   3.949   0.759   8.412  0.4546 -0.2366  0.7984
  533MOL0     C71887   3.920   0.871   8.320  0.0310  0.1214 -0.0931
  533MOL0     H71888   4.547   0.635   8.361  0.3515  2.5337 -0.3771
  533MOL0     H71889   4.716   0.625   8.191 -1.0754 -0.6724 -0.5343
  533MOL0     H71890   4.752   0.714   7.874  0.4172  0.3942 -0.6339
  533MOL0     H71891   4.831   0.626   8.013 -0.5922 -1.9042 -0.7666
  533MOL0     H71892   4.954   0.626   7.783 -0.1711 -0.8443 -1.5079
  533MOL0     H71893   4.837   0.512   7.755 -0.3259  0.5725 -0.0177
  533MOL0     H71894   5.060   0.506   7.968  2.0515 -2.2770 -0.9442
  533MOL0     H71895   5.041   0.394   7.835  3.3502 -1.4671  3.6325
  533MOL0     H71896   4.863   0.397   8.072 -2.6756 -0.5981 -0.5423
  533MOL0     H71897   4.838   0.302   7.934 -0.6086  0.4359  0.6891
  533MOL0     H71898   5.098   0.230   7.981 -0.6182 -0.5351 -0.1202
  533MOL0     H71899   5.058   0.290   8.144 -1.3498 -0.7142  0.2147
  533MOL0     H71900   4.851   0.121   8.128 -0.0890  2.1018  1.4014
  533MOL0     H71901   4.936   0.052   7.987 -4.4313  0.3718  0.4668
  533MOL0     H71902   5.037   0.078   8.283 -3.3336 -3.0266  1.0932
  533MOL0     H71903   5.131   0.017   8.145 -0.4349  1.7441  0.3360
  533MOL0     H71904   4.857  -0.074   8.243 -0.8035 -2.0742 -0.2013
  533MOL0     H71905   4.962  -0.148   8.110  4.1260 -1.8200  0.9553
  533MOL0     H71906   4.886  -0.260   8.408 -0.7056  1.5951 -0.2427
  533MOL0     H71907   5.156  -0.402   8.621 -0.4578 -2.2077  0.3509
  533MOL0     H71908   4.984  -0.436   8.574 -0.1382  0.6832  0.4169
  533MOL0     H71909   5.041  -0.613   8.415 -0.4169  1.6430 -0.9751
  533MOL0     H71910   5.213  -0.567   8.440  0.6963  1.3320  0.4763
  533MOL0     H71911   5.037  -0.651   8.664 -0.7472 -2.1843 -1.8818
  533MOL0     H71912   5.213  -0.620   8.659  2.0119  0.7699 -3.0340
  533MOL0     H71913   5.077  -0.856   8.525  1.9797  0.2177 -1.2909
  533MOL0     H71914   5.162  -0.861   8.679  3.6791 -1.1861 -0.6962
  533MOL0     H71915   5.170  -1.059   8.420  0.5525 -2.0860 -1.6220
  533MOL0     H71916   5.195  -1.142   8.208 -2.4236  1.4522 -2.1530
  533MOL0     H71917   5.462  -0.915   7.685  0.8229  0.5222  2.2800
  533MOL0     H71918   5.534  -1.013   7.492  0.4647  1.9921  0.6227
  533MOL0     H71919   5.832  -1.311   7.510 -2.0908  1.7009 -0.1681
  533MOL0     H71920   5.731  -1.449   7.558  0.4007  1.2710  2.4286
  533MOL0     H71921   5.770  -1.545   7.365 -0.1596  0.1563  2.5639
  533MOL0     H71922   5.680  -1.413   7.275  1.2364  3.2679  0.1864
  533MOL0     H71923   5.911  -1.295   7.259  0.3846  0.1255 -0.7618
  533MOL0     H71924   5.968  -1.424   7.367 -1.9577 -0.2341  1.7366
  533MOL0     H71925   5.911  -1.405   7.074  0.2681  0.9616  1.7615
  533MOL0     H71926   5.869  -1.561   7.136 -3.1319  2.2411  0.9211
  533MOL0     H71927   6.109  -1.568   7.061  1.7370 -0.0215 -0.2828
  533MOL0     H71928   6.115  -1.567   7.247  1.3751  1.3680 -0.0588
  533MOL0     H71929   6.160  -1.355   7.038 -0.2889  2.9613  1.0970
  533MOL0     H71930   6.127  -1.316   7.205 -2.8631 -1.2881 -1.2829
  533MOL0     H71931   6.345  -1.433   7.271 -2.2842  1.1237  0.3593
  533MOL0     H71932   6.366  -1.302   7.153 -2.5271  1.2264 -1.6370
  533MOL0     H71933   6.496  -1.509   7.100  0.4839  0.1532  0.4020
  533MOL0     H71934   6.347  -1.604   7.106  0.6190  1.1543  3.8841
  533MOL0     H71935   5.650  -1.363   7.732  1.9265  2.9244  2.5938
  533MOL0     H71936   5.575  -1.243   7.932 -1.3608 -2.2864  0.3611
  533MOL0     H71937   5.498  -0.857   8.124 -1.4477 -1.5234 -1.5942
  533MOL0     H71938   5.435  -0.738   8.332  1.3119 -1.1333 -2.1865
  533MOL0     H71939   4.435   0.466   7.916  0.4016 -1.0798  0.9506
  533MOL0     H71940   4.243   0.504   8.086 -0.0399  2.0090 -1.6054
  533MOL0     H71941   4.163   0.524   8.521 -1.0475  1.4255 -0.9946
  533MOL0     H71942   3.980   0.483   8.680 -0.2231 -0.7823 -0.0753
  533MOL0     H71943   3.783   0.419   8.751 -3.7670 -1.1378 -1.8764
  533MOL0     H71944   3.659   0.518   8.817  1.3374 -2.0472  1.6129
  533MOL0     H71945   3.946   0.536   8.905  0.5279  2.4239 -0.7114
  533MOL0     H71946   3.816   0.437   8.967 -0.4485  0.1658  0.5283
  533MOL0     H71947   3.694   0.641   9.028  0.1270 -1.5682 -0.7514
  533MOL0     H71948   3.802   0.751   8.944 -0.2174  1.2134 -0.2651
  533MOL0     H71949   3.985   0.674   9.082  0.8478 -0.4436  1.5446
  533MOL0     H71950   3.859   0.766   9.169  0.8247  0.5302 -0.5687
  533MOL0     H71951   3.864   0.394   9.357  3.2690  1.4749  1.7428
  533MOL0     H71952   3.765   0.801   8.503 -0.7992 -0.7174  3.7153
  533MOL0     H71953   4.008   0.932   8.297 -1.6360  1.7178 -2.8087
  533MOL0     H71954   3.894   0.841   8.218  0.8932 -1.1904  0.0487
  533MOL0     H71955   3.856   0.945   8.369  3.2002  2.4829  0.8506
  534MOL0     O71956   5.625   6.954   0.789  0.0986 -0.0165 -0.0157
  534MOL0     C71957   5.559   6.845   0.783 -0.2042 -1.1441  1.0282
  534MOL0     O71958   5.617   6.720   0.773  0.1673 -0.3143  0.7996
  534MOL0     C71959   5.752   6.727   0.752 -1.0789 -0.0274 -0.6122
  534MOL0     C71960   5.808   6.760   0.627 -0.7802 -0.3112 -0.4369
  534MOL0     C71961   5.946   6.752   0.620  0.2857  0.2674 -0.2568
  534MOL0     C71962   6.028   6.716   0.717 -0.3444 -0.0614 -1.4505
  534MOL0     O71963   6.166   6.724   0.697  0.5864  0.5406  0.1406
  534MOL0     C71964   6.261   6.657   0.793  0.5751  0.2760  0.1212
  534MOL0     C71965   6.401   6.662   0.739  0.5162 -0.3626 -0.0174
  534MOL0     C71966   6.423   6.603   0.608 -0.4673 -0.9409  0.8612
  534MOL0     C71967   6.384   6.458   0.575  0.6947 -0.0858  0.2160
  534MOL0     C71968   6.472   6.365   0.652 -0.0469 -0.4428 -0.1214
  534MOL0     C71969   6.437   6.218   0.613 -0.4617  0.4660  0.5260
  534MOL0     C71970   6.473   6.113   0.709  0.9662  0.6551 -0.2412
  534MOL0     C71971   6.372   6.110   0.826  0.9344 -0.3643 -0.2229
  534MOL0     N71972   6.436   6.012   0.919 -1.1504  0.5289  0.0238
  534MOL0     C71973   6.570   6.022   0.978  0.6061  0.4266 -0.6841
  534MOL0     C71974   6.598   5.904   1.034 -0.0998 -0.2074 -0.1008
  534MOL0     C71975   6.723   5.879   1.113 -0.2343  0.0829 -0.8580
  534MOL0     C71976   6.679   5.921   1.260 -0.3134  0.5120 -0.7068
  534MOL0     C71977   6.797   5.883   1.345 -0.1939  0.1245 -0.2542
  534MOL0     C71978   6.789   5.924   1.489 -0.4130 -0.1503 -1.3189
  534MOL0     O71979   6.742   6.056   1.505  0.3843  0.2703 -0.0180
  534MOL0     C71980   6.739   6.112   1.625 -0.2151  0.5885  0.4950
  534MOL0     C71981   6.699   6.242   1.626 -1.0714 -0.0345  0.1334
  534MOL0     C71982   6.682   6.311   1.745 -0.2078  0.2778  0.1333
  534MOL0     C71983   6.713   6.256   1.869  0.7928  0.3651  0.4124
  534MOL0     C71984   6.691   6.339   1.987 -0.1561  0.0471 -0.4189
  534MOL0     O71985   6.690   6.475   1.986  0.2760  0.4699 -0.3707
  534MOL0     C71986   6.700   6.532   2.109  1.1235 -0.2129 -0.7133
  534MOL0     C71987   6.821   6.531   2.187  0.2397  0.0542 -0.4085
  534MOL0     C71988   6.829   6.597   2.311  0.4813  0.0274  0.7727
  534MOL0     C71989   6.725   6.682   2.353  0.2456  0.0015 -0.3448
  534MOL0     O71990   6.734   6.761   2.465  0.2624 -0.3641  0.0511
  534MOL0     C71991   6.836   6.745   2.559 -0.5444  0.4572  0.1457
  534MOL0     C71992   6.842   6.847   2.672 -0.3174 -0.6535 -0.5514
  534MOL0     C71993   6.964   6.813   2.766 -0.3589 -0.1693  1.2009
  534MOL0     C71994   6.967   6.898   2.896 -0.4415  0.2834  0.3816
  534MOL0     C71995   7.102   6.878   2.981  0.0347  0.2133  0.4543
  534MOL0     C71996   7.101   6.963   3.115  0.3723 -0.2943 -0.0332
  534MOL0     C71997   7.240   6.983   3.179 -0.3446 -0.2495  0.3653
  534MOL0     C71998   7.231   7.031   3.325  0.4479 -0.5999 -0.0973
  534MOL0    Cl71999   7.165   6.898   3.428  0.1414  0.0999 -0.0200
  534MOL0     C72000   6.604   6.688   2.274 -0.3366 -0.6143 -0.1039
  534MOL0     C72001   6.591   6.611   2.157  0.4192  0.0978 -0.0529
  534MOL0     O72002   6.693   6.268   2.088  0.2480 -0.3143  0.6492
  534MOL0     C72003   6.747   6.118   1.867 -0.3313  0.0209 -0.3394
  534MOL0     C72004   6.767   6.047   1.745 -0.1553 -1.1592 -0.7082
  534MOL0     N72005   6.493   5.820   1.006  0.2320  0.4014  0.3861
  534MOL0     N72006   6.401   5.885   0.930 -0.6362 -0.4637  0.8030
  534MOL0     C72007   5.967   6.666   0.836 -0.3659  0.3655 -0.0261
  534MOL0     C72008   5.827   6.679   0.853 -0.0388  0.1836 -0.4091
  534MOL0     C72009   5.410   6.861   0.785 -0.7487 -0.8141 -0.4829
  534MOL0     C72010   5.328   6.801   0.884 -0.0702 -0.5840 -0.1678
  534MOL0     C72011   5.190   6.817   0.880 -0.2106 -0.9092 -0.3327
  534MOL0     C72012   5.127   6.902   0.787 -0.1576 -0.1774 -0.1538
  534MOL0     O72013   4.996   6.909   0.823  0.0891 -0.8355 -0.7118
  534MOL0     C72014   4.906   6.984   0.737 -0.3203 -0.2403 -0.2624
  534MOL0     C72015   4.790   7.020   0.823 -0.8758  0.4804 -0.4537
  534MOL0     C72016   4.672   7.076   0.743  0.0352  0.3738  0.1358
  534MOL0     C72017   4.559   6.989   0.726  0.0031 -0.5287  0.3030
  534MOL0     C72018   4.588   6.897   0.621  0.5608  0.1685 -0.8091
  534MOL0     C72019   4.620   6.833   0.519  0.1363  0.4095 -0.3011
  534MOL0     C72020   5.198   6.955   0.680  0.6764 -1.0820  0.5672
  534MOL0     C72021   5.346   6.942   0.680 -0.1156  0.4477 -1.9973
  534MOL0     C72022   5.424   7.014   0.568  0.0873  0.3919 -0.9031
  534MOL0     H72023   5.748   6.815   0.554 -0.6782  0.2568 -0.1012
  534MOL0     H72024   6.000   6.787   0.533  1.3009 -1.9015 -0.5780
  534MOL0     H72025   6.250   6.709   0.888 -0.1579  1.7605 -0.7374
  534MOL0     H72026   6.233   6.553   0.811 -0.3560  0.7756  1.7559
  534MOL0     H72027   6.461   6.605   0.810 -0.0831 -0.2898  0.5531
  534MOL0     H72028   6.431   6.766   0.757 -0.2573 -0.2293  0.6087
  534MOL0     H72029   6.532   6.599   0.602 -0.3785 -0.7453  2.0659
  534MOL0     H72030   6.367   6.657   0.531 -0.3701 -0.4486  1.1297
  534MOL0     H72031   6.280   6.437   0.600 -0.2352 -2.1440 -4.2806
  534MOL0     H72032   6.405   6.432   0.470  1.5374  0.8047  0.1550
  534MOL0     H72033   6.577   6.374   0.626  0.6280 -4.5064  0.5510
  534MOL0     H72034   6.450   6.394   0.756  2.2471  1.6988 -0.1442
  534MOL0     H72035   6.333   6.199   0.587 -1.0284 -3.3470  4.5455
  534MOL0     H72036   6.498   6.196   0.525  0.1227  1.3937  0.6771
  534MOL0     H72037   6.576   6.122   0.743  0.9383 -1.5688  0.5460
  534MOL0     H72038   6.464   6.013   0.666  0.9880  0.4132  0.3019
  534MOL0     H72039   6.340   6.207   0.865  2.4013 -0.0431  0.2470
  534MOL0     H72040   6.279   6.075   0.781 -1.2178 -0.2567  3.7294
  534MOL0     H72041   6.627   6.113   0.993 -1.9231  2.5221 -2.8562
  534MOL0     H72042   6.764   5.778   1.104  2.3530  0.8436  1.2320
  534MOL0     H72043   6.803   5.950   1.089  1.4594 -0.7683  1.8077
  534MOL0     H72044   6.641   6.023   1.269 -5.5043 -1.1571 -0.8811
  534MOL0     H72045   6.591   5.860   1.282 -1.4742  2.1977 -0.5085
  534MOL0     H72046   6.887   5.924   1.298 -0.2965 -1.8196 -2.3139
  534MOL0     H72047   6.798   5.774   1.343 -3.3299 -0.0340  1.4163
  534MOL0     H72048   6.888   5.913   1.534 -0.2659  1.3283 -1.2130
  534MOL0     H72049   6.723   5.862   1.549  0.6255 -1.4482 -1.4823
  534MOL0     H72050   6.678   6.299   1.537  1.8954 -0.6916 -1.1132
  534MOL0     H72051   6.646   6.414   1.745  1.6479  0.9800  1.2441
  534MOL0     H72052   6.901   6.469   2.148 -1.0315 -1.0006 -1.4479
  534MOL0     H72053   6.926   6.587   2.358 -0.8781 -0.7915  3.6229
  534MOL0     H72054   6.836   6.643   2.599  0.2138 -0.5760 -2.3290
  534MOL0     H72055   6.935   6.746   2.513 -0.8991 -3.6154 -1.0251
  534MOL0     H72056   6.858   6.939   2.616  3.0158 -0.8495 -0.0809
  534MOL0     H72057   6.758   6.856   2.741  1.9990  1.1160  2.2103
  534MOL0     H72058   6.961   6.709   2.799 -1.4607  0.3634  2.9016
  534MOL0     H72059   7.057   6.843   2.715 -0.8237 -4.9559 -3.4198
  534MOL0     H72060   6.889   6.859   2.961 -0.0907 -1.9338 -0.4123
  534MOL0     H72061   6.946   7.002   2.872  2.4480  0.4693 -1.9335
  534MOL0     H72062   7.184   6.910   2.916 -0.0979 -0.1212  0.1221
  534MOL0     H72063   7.089   6.776   3.020 -0.3766  0.1969  0.2781
  534MOL0     H72064   7.056   7.055   3.075  0.8906 -1.6486 -4.3159
  534MOL0     H72065   7.031   6.920   3.187 -0.2225  0.1067 -0.3570
  534MOL0     H72066   7.289   7.065   3.125 -2.7161  1.1161  0.1606
  534MOL0     H72067   7.303   6.894   3.177 -0.0733 -0.0509 -0.4857
  534MOL0     H72068   7.331   7.056   3.364  0.7214  1.7343 -2.0547
  534MOL0     H72069   7.165   7.118   3.318  1.0333 -0.3040 -4.4883
  534MOL0     H72070   6.530   6.761   2.304  1.5223  2.0468 -1.6068
  534MOL0     H72071   6.499   6.624   2.102  0.6261 -0.7815 -0.6262
  534MOL0     H72072   6.755   6.056   1.956  2.0963  2.1593  1.0741
  534MOL0     H72073   6.775   5.942   1.770 -1.8562 -0.7274  2.2191
  534MOL0     H72074   6.030   6.624   0.914 -1.6070  1.7440  1.8076
  534MOL0     H72075   5.784   6.647   0.948  0.1284 -0.4286 -0.5343
  534MOL0     H72076   5.373   6.744   0.965 -1.3895  1.1507  1.9037
  534MOL0     H72077   5.134   6.765   0.957  1.6125 -0.4339  1.4222
  534MOL0     H72078   4.863   6.920   0.660 -3.2955  1.4914 -0.2174
  534MOL0     H72079   4.944   7.080   0.701  0.2862 -0.5555 -0.4690
  534MOL0     H72080   4.820   7.096   0.896 -2.8079 -0.6333  1.6343
  534MOL0     H72081   4.747   6.941   0.885 -2.2119  0.5444 -1.2638
  534MOL0     H72082   4.708   7.113   0.647  0.2787 -3.1019 -1.2589
  534MOL0     H72083   4.617   7.152   0.799 -1.7968 -0.8616  0.0982
  534MOL0     H72084   4.546   6.929   0.816 -1.8774  0.2507  0.5803
  534MOL0     H72085   4.470   7.048   0.702  2.6730  2.9599 -2.2465
  534MOL0     H72086   4.648   6.767   0.439  1.8345 -0.7094  1.1503
  534MOL0     H72087   5.159   7.013   0.597  2.2015  2.0858  1.9060
  534MOL0     H72088   5.453   7.114   0.603  4.0424 -1.0400  0.5639
  534MOL0     H72089   5.517   6.964   0.538  0.4743 -0.0231  0.8711
  534MOL0     H72090   5.362   7.014   0.478 -0.7233 -3.1889 -0.5176
  535MOL0     O72091   6.276   1.233   9.837  0.1779  0.2948  0.5602
  535MOL0     C72092   6.356   1.320   9.888  0.7297 -0.3839  0.3877
  535MOL0     O72093   6.467   1.290   9.954  0.8680 -0.2036  0.1239
  535MOL0     C72094   6.504   1.161   9.988  0.0109  0.3131  0.0224
  535MOL0     C72095   6.639   1.154  10.019  0.2425 -0.0105 -0.6116
  535MOL0     C72096   6.705   1.041  10.067 -0.0434 -0.4159  0.6526
  535MOL0     C72097   6.631   0.927  10.096 -0.0618 -0.3357  0.3312
  535MOL0     O72098   6.697   0.820  10.153  0.1001  0.2652  0.6552
  535MOL0     C72099   6.661   0.683  10.137  0.8817 -0.2870  0.0123
  535MOL0     C72100   6.580   0.628  10.258 -0.2914  0.2820  0.0617
  535MOL0     C72101   6.624   0.491  10.288  0.0816  0.3031 -1.0005
  535MOL0     C72102   6.506   0.414  10.354 -0.0453 -0.4425  0.0588
  535MOL0     C72103   6.551   0.268  10.351 -0.6591 -1.8795  0.1989
  535MOL0     C72104   6.457   0.181  10.415  0.0225 -0.3425 -0.4607
  535MOL0     C72105   6.509   0.042  10.409 -0.4305 -0.0157  0.4680
  535MOL0     C72106   6.421  -0.055  10.500 -0.2203  0.8209 -0.2492
  535MOL0     N72107   6.296  -0.103  10.441 -0.1141  0.6924  0.7223
  535MOL0     C72108   6.291  -0.184  10.337 -0.3379  0.0801  0.5482
  535MOL0     C72109   6.172  -0.166  10.282 -0.3138 -0.4285  0.8617
  535MOL0     C72110   6.118  -0.257  10.175  0.1940  0.1104  0.5919
  535MOL0     C72111   6.014  -0.192  10.077 -0.3629  0.1614 -0.1343
  535MOL0     C72112   5.992  -0.305   9.971 -0.6620 -0.0983  0.2942
  535MOL0     C72113   5.901  -0.257   9.861  0.5253  0.6590 -0.2833
  535MOL0     O72114   5.972  -0.191   9.758 -0.6820  0.6647  0.9773
  535MOL0     C72115   5.913  -0.124   9.658 -0.4231 -0.9321  0.6662
  535MOL0     C72116   5.999  -0.058   9.562 -0.1514  0.7373  0.5590
  535MOL0     C72117   5.956   0.051   9.488  0.3960  0.3924 -0.7457
  535MOL0     C72118   5.824   0.078   9.478  0.3878 -0.7746 -0.8384
  535MOL0     C72119   5.779   0.183   9.394  0.9643  0.3197  0.2261
  535MOL0     O72120   5.651   0.227   9.409 -0.4053  0.1940 -0.8991
  535MOL0     C72121   5.621   0.352   9.381 -0.3860  0.2077  0.1407
  535MOL0     C72122   5.503   0.384   9.307  0.3574  0.0283 -1.4822
  535MOL0     C72123   5.464   0.514   9.280 -0.9581  0.6399  0.8088
  535MOL0     C72124   5.548   0.626   9.315  0.5368  0.8530  0.4900
  535MOL0     O72125   5.512   0.751   9.279  0.0370  0.3218  0.6044
  535MOL0     C72126   5.416   0.778   9.175 -0.7685 -0.0835  0.3263
  535MOL0     C72127   5.428   0.918   9.125  1.0471 -0.4533  1.3577
  535MOL0     C72128   5.574   0.944   9.070 -0.4265  0.4280 -0.2558
  535MOL0     C72129   5.594   1.093   9.074 -1.1956 -0.6247  0.3877
  535MOL0     C72130   5.732   1.150   9.029 -1.4222  0.5241  0.4412
  535MOL0     C72131   5.770   1.113   8.882 -0.4639 -0.2093  0.0750
  535MOL0     C72132   5.682   1.182   8.781  0.3535  0.3417  0.7579
  535MOL0     C72133   5.702   1.126   8.636 -0.2570 -0.0877  0.3636
  535MOL0    Cl72134   5.872   1.119   8.582 -0.1178 -0.0124 -0.2697
  535MOL0     C72135   5.662   0.597   9.389 -0.6372  0.9025  0.1958
  535MOL0     C72136   5.695   0.465   9.426 -0.0342  0.6316 -0.4985
  535MOL0     O72137   5.848   0.226   9.301 -0.8208 -0.7223 -0.7790
  535MOL0     C72138   5.726   0.015   9.562  0.0196 -0.8504  0.7471
  535MOL0     C72139   5.777  -0.081   9.658  0.5414  0.8469 -0.3104
  535MOL0     N72140   6.096  -0.091  10.370  0.4298 -0.6161 -0.2223
  535MOL0     N72141   6.171  -0.041  10.463  0.4860  0.1850 -0.4161
  535MOL0     C72142   6.493   0.931  10.066 -0.0893  0.2195 -0.3849
  535MOL0     C72143   6.435   1.046  10.010 -0.5148 -0.2591  0.3466
  535MOL0     C72144   6.330   1.458   9.846 -0.5089  0.3392  0.4635
  535MOL0     C72145   6.398   1.556   9.920  0.6608  0.2136 -1.0455
  535MOL0     C72146   6.378   1.685   9.889 -0.1770 -0.8192 -0.7134
  535MOL0     C72147   6.300   1.728   9.784 -0.0999  0.0971 -0.5498
  535MOL0     O72148   6.283   1.861   9.761  0.9008 -0.9890 -0.2909
  535MOL0     C72149   6.146   1.907   9.756 -0.9650 -0.0434 -0.7233
  535MOL0     C72150   6.073   1.879   9.888  0.0231 -1.0666 -1.3956
  535MOL0     C72151   5.934   1.954   9.891  1.1139 -0.6430  0.4914
  535MOL0     C72152   5.854   1.897  10.004  0.3355 -0.3540  0.3657
  535MOL0     C72153   5.796   1.765   9.963 -0.2544  0.3809  0.6949
  535MOL0     C72154   5.731   1.671   9.922 -0.0464 -0.0993 -0.3554
  535MOL0     C72155   6.245   1.629   9.703  0.3319  0.3213 -0.1238
  535MOL0     C72156   6.243   1.497   9.740 -0.1033 -0.4886  0.4751
  535MOL0     C72157   6.150   1.408   9.658 -0.1687 -0.1534  0.0366
  535MOL0     H72158   6.703   1.236   9.987  3.2857 -1.6195  0.9860
  535MOL0     H72159   6.812   1.039  10.083  0.2363 -3.2687 -0.9107
  535MOL0     H72160   6.618   0.652  10.041 -0.5329 -0.9311  0.8252
  535MOL0     H72161   6.764   0.646  10.134  1.1922  0.5320  0.2124
  535MOL0     H72162   6.473   0.643  10.242 -0.5114 -2.3829 -1.6513
  535MOL0     H72163   6.599   0.696  10.342  2.3694  1.5905 -1.4740
  535MOL0     H72164   6.706   0.491  10.361 -2.0348  0.3709  1.5332
  535MOL0     H72165   6.648   0.447  10.191 -4.6296 -2.4672 -1.2366
  535MOL0     H72166   6.499   0.452  10.456  0.3009  1.5360 -0.6103
  535MOL0     H72167   6.408   0.424  10.307 -0.5875 -2.7403  0.5712
  535MOL0     H72168   6.570   0.238  10.248 -0.9495 -2.8156  0.4082
  535MOL0     H72169   6.647   0.269  10.404 -0.7163  0.8262  0.3943
  535MOL0     H72170   6.451   0.208  10.521  2.6347  0.3818 -0.4322
  535MOL0     H72171   6.357   0.186  10.369 -0.9708  0.9079  1.6750
  535MOL0     H72172   6.608   0.029  10.454 -0.8298 -2.5813  0.7344
  535MOL0     H72173   6.524   0.016  10.304 -0.2472  0.9970  0.2316
  535MOL0     H72174   6.477  -0.147  10.520 -0.1027  1.0427  0.4885
  535MOL0     H72175   6.401  -0.000  10.593  0.2093  2.5197 -1.1290
  535MOL0     H72176   6.373  -0.237  10.290 -1.7045  0.2695 -2.2685
  535MOL0     H72177   6.203  -0.303  10.125  0.1053  1.2411 -0.6761
  535MOL0     H72178   6.057  -0.330  10.229 -1.9274 -0.0639 -1.8415
  535MOL0     H72179   5.918  -0.165  10.122 -0.2051 -0.8774  0.8766
  535MOL0     H72180   6.059  -0.100  10.038 -1.8277  2.7867  3.7220
  535MOL0     H72181   5.952  -0.389  10.028  1.4493  0.5317  2.8457
  535MOL0     H72182   6.091  -0.327   9.928 -0.1896 -0.1348  1.3890
  535MOL0     H72183   5.841  -0.173   9.899  0.1644  0.0923  0.4331
  535MOL0     H72184   5.853  -0.345   9.819  3.1247 -1.5333  1.0122
  535MOL0     H72185   6.107  -0.065   9.562 -0.2181 -1.4415 -1.6924
  535MOL0     H72186   6.023   0.113   9.430  1.0780  0.6323  0.2706
  535MOL0     H72187   5.443   0.297   9.279  0.9510 -0.3562 -1.5673
  535MOL0     H72188   5.369   0.533   9.232 -1.0798  2.4078  1.6637
  535MOL0     H72189   5.436   0.719   9.085 -4.0546  1.1773 -1.4280
  535MOL0     H72190   5.319   0.747   9.216 -1.1635 -1.8573 -1.7740
  535MOL0     H72191   5.355   0.929   9.044 -0.1910 -1.3476  2.3031
  535MOL0     H72192   5.388   0.978   9.208 -2.7361 -2.1819  0.9966
  535MOL0     H72193   5.638   0.880   9.131 -3.1235 -1.9445  0.3047
  535MOL0     H72194   5.573   0.905   8.967 -0.5492  2.3218 -1.0236
  535MOL0     H72195   5.563   1.133   9.171 -2.1621  1.7502 -0.8208
  535MOL0     H72196   5.512   1.135   9.014  0.8315  1.9305 -0.7484
  535MOL0     H72197   5.806   1.107   9.096  0.8119  2.0365 -0.9234
  535MOL0     H72198   5.736   1.259   9.040  1.6473  0.2144  4.5615
  535MOL0     H72199   5.875   1.146   8.877 -0.6147  0.5919  1.5120
  535MOL0     H72200   5.767   1.004   8.880 -2.2073 -0.1678 -0.5402
  535MOL0     H72201   5.711   1.287   8.790  0.8506  0.0582  2.7292
  535MOL0     H72202   5.575   1.174   8.805 -0.1172  1.0331 -0.9006
  535MOL0     H72203   5.647   1.031   8.642 -3.0610  1.1560 -2.6557
  535MOL0     H72204   5.643   1.185   8.565  1.2953 -2.1080 -2.8469
  535MOL0     H72205   5.735   0.676   9.405  2.2082 -1.8121  1.4206
  535MOL0     H72206   5.780   0.444   9.491 -1.2540 -0.2378  0.8527
  535MOL0     H72207   5.625   0.055   9.557  0.8827  1.8402  2.4673
  535MOL0     H72208   5.704  -0.127   9.724  1.8190 -4.6506 -2.1340
  535MOL0     H72209   6.450   0.842  10.109  2.6150 -1.2549 -0.5091
  535MOL0     H72210   6.328   1.043   9.998 -0.6339  1.8810  0.5517
  535MOL0     H72211   6.457   1.536  10.009 -0.1796 -0.1247 -0.5594
  535MOL0     H72212   6.433   1.766   9.936 -0.4544 -1.4859  0.8183
  535MOL0     H72213   6.092   1.842   9.687  1.3882 -1.6685 -1.1877
  535MOL0     H72214   6.128   2.008   9.721 -4.0304 -0.0431  0.5662
  535MOL0     H72215   6.147   1.902   9.965  1.5321 -1.1359 -2.7662
  535MOL0     H72216   6.040   1.774   9.891 -2.8345 -0.2867  2.3463
  535MOL0     H72217   5.875   1.943   9.799 -1.3114  1.3561  1.6826
  535MOL0     H72218   5.939   2.062   9.907 -2.6492 -0.3145  0.3903
  535MOL0     H72219   5.913   1.867  10.091 -1.9079  3.2758  3.4217
  535MOL0     H72220   5.773   1.957  10.046 -0.3613 -1.8605  1.2530
  535MOL0     H72221   5.659   1.603   9.881 -1.1397  0.9571 -0.2625
  535MOL0     H72222   6.189   1.659   9.615  1.9735  3.6520 -0.2047
  535MOL0     H72223   6.070   1.356   9.713  0.3416 -0.4907  0.4832
  535MOL0     H72224   6.090   1.469   9.591  4.5655  3.6847 -1.2973
  535MOL0     H72225   6.203   1.336   9.594 -1.8542 -2.1226  0.7271
  536MOL0     O72226   3.087  10.282   4.358 -0.0094 -0.0528  0.8955
  536MOL0     C72227   3.086  10.206   4.455 -0.3005  0.4281 -0.5600
  536MOL0     O72228   3.203  10.181   4.536 -0.5979  0.2283  0.1953
  536MOL0     C72229   3.307  10.264   4.536  0.6889  1.8645  0.7418
  536MOL0     C72230   3.304  10.396   4.524 -0.1201 -0.9325  0.0165
  536MOL0     C72231   3.415  10.467   4.561  0.4349 -0.1147 -0.1984
  536MOL0     C72232   3.535  10.414   4.597 -0.7390  1.4472 -0.0361
  536MOL0     O72233   3.658  10.485   4.615  0.2835  0.7558 -0.2133
  536MOL0     C72234   3.684  10.604   4.531  0.1511 -0.4637 -0.2662
  536MOL0     C72235   3.776  10.582   4.415  0.5812  0.7392  0.4144
  536MOL0     C72236   3.920  10.560   4.450 -0.3798  0.0083 -1.2966
  536MOL0     C72237   3.988  10.680   4.517 -0.0446 -0.9007  0.4900
  536MOL0     C72238   4.020  10.785   4.408 -0.5428  0.2915 -0.3005
  536MOL0     C72239   4.123  10.887   4.472 -0.6110 -0.5264  0.1409
  536MOL0     C72240   4.209  10.961   4.371 -0.1994 -0.4198  0.1524
  536MOL0     C72241   4.135  11.030   4.246 -0.2530  0.7972 -0.1682
  536MOL0     N72242   4.236  11.119   4.183 -0.4427 -0.2212 -0.5448
  536MOL0     C72243   4.373  11.094   4.170  0.8196  0.6416  0.7116
  536MOL0     C72244   4.415  11.190   4.083  0.9404  0.9056 -0.1460
  536MOL0     C72245   4.556  11.230   4.040 -0.6050 -0.3849  0.0310
  536MOL0     C72246   4.615  11.137   3.926 -0.0864 -0.8735  0.8201
  536MOL0     C72247   4.545  11.173   3.798  0.6459  0.2697 -0.2474
  536MOL0     C72248   4.493  11.048   3.727 -0.4489 -0.8874  0.5528
  536MOL0     O72249   4.596  10.981   3.646  1.1571  0.1729 -0.4162
  536MOL0     C72250   4.571  10.844   3.650  1.6570  0.8165  0.1730
  536MOL0     C72251   4.668  10.756   3.689  0.3259  0.4184 -1.0203
  536MOL0     C72252   4.642  10.616   3.699 -0.7102 -0.7781  0.1909
  536MOL0     C72253   4.520  10.562   3.652  0.2733 -0.6587 -0.7626
  536MOL0     C72254   4.501  10.415   3.666 -0.6134 -0.3056 -0.2087
  536MOL0     O72255   4.609  10.347   3.716 -0.1158 -0.8021 -0.3137
  536MOL0     C72256   4.585  10.205   3.692 -0.1992  0.0399 -0.9711
  536MOL0     C72257   4.511  10.128   3.776  0.5751 -0.4599  0.1908
  536MOL0     C72258   4.493   9.990   3.741  0.9250 -0.4543 -0.9687
  536MOL0     C72259   4.556   9.938   3.623 -0.0229  0.3819 -0.1614
  536MOL0     O72260   4.546   9.803   3.588 -0.0771  0.1006  0.0669
  536MOL0     C72261   4.517   9.683   3.677  0.0179 -0.0670  0.3941
  536MOL0     C72262   4.363   9.663   3.696 -1.1713 -0.7967  0.2067
  536MOL0     C72263   4.291   9.636   3.560  0.0346  1.1634 -0.7713
  536MOL0     C72264   4.318   9.492   3.507 -0.0945 -0.1961  0.0578
  536MOL0     C72265   4.206   9.450   3.413  0.3869  0.3819 -0.0018
  536MOL0     C72266   4.185   9.559   3.306  1.0373 -0.0830  0.1441
  536MOL0     C72267   4.083   9.530   3.193  0.2409 -0.1568  0.1204
  536MOL0     C72268   4.031   9.653   3.119 -0.4245 -0.2876  0.5238
  536MOL0    Cl72269   4.153   9.707   3.017 -0.2197  0.1792  0.3986
  536MOL0     C72270   4.647  10.019   3.555 -0.3926 -0.7814 -0.3209
  536MOL0     C72271   4.660  10.159   3.584  0.4232 -0.1248 -0.8146
  536MOL0     O72272   4.409  10.369   3.602  0.8015  0.3070  0.1680
  536MOL0     C72273   4.419  10.649   3.609  0.6260  0.9558 -0.0540
  536MOL0     C72274   4.439  10.788   3.621 -0.8974  0.4705  0.1672
  536MOL0     N72275   4.303  11.260   4.033  0.0266 -0.7745  0.0239
  536MOL0     N72276   4.201  11.218   4.099 -0.6981 -0.1529  0.3974
  536MOL0     C72277   3.540  10.274   4.601 -0.5652  0.6417 -0.0390
  536MOL0     C72278   3.426  10.201   4.577  0.7176  0.0002  0.1144
  536MOL0     C72279   2.956  10.167   4.511 -0.2056 -0.8307  0.1388
  536MOL0     C72280   2.958  10.073   4.611  0.0277  0.8096  0.1021
  536MOL0     C72281   2.845  10.028   4.672  0.0275  0.7772 -0.0621
  536MOL0     C72282   2.724  10.077   4.633 -0.5763  0.4454 -0.1301
  536MOL0     O72283   2.615  10.030   4.694  0.1754  0.1023  0.4917
  536MOL0     C72284   2.626   9.941   4.808 -1.5161  0.1909  0.8964
  536MOL0     C72285   2.487   9.933   4.865  0.2586  0.4948  0.2506
  536MOL0     C72286   2.453  10.066   4.924  0.0154 -0.2032 -0.9154
  536MOL0     C72287   2.307  10.067   4.973 -0.2543  0.6025 -0.5394
  536MOL0     C72288   2.269  10.201   5.000  0.8878  0.2898 -0.8500
  536MOL0     C72289   2.245  10.316   5.021  0.2735 -0.3479 -0.0360
  536MOL0     C72290   2.714  10.164   4.530  0.1235  1.1798  1.6919
  536MOL0     C72291   2.831  10.206   4.462  0.2718  1.0200  0.3832
  536MOL0     C72292   2.801  10.296   4.345  0.9769 -0.0357 -0.2128
  536MOL0     H72293   3.216  10.458   4.516  1.4358  1.5619  1.0040
  536MOL0     H72294   3.405  10.574   4.549  5.0422  0.7873  1.7073
  536MOL0     H72295   3.593  10.657   4.502  0.7775 -0.3738 -2.2551
  536MOL0     H72296   3.742  10.683   4.580  1.2093  0.7275 -3.1849
  536MOL0     H72297   3.766  10.674   4.356  2.2713  0.9585  0.4002
  536MOL0     H72298   3.754  10.499   4.348  0.5588  3.2299 -2.8803
  536MOL0     H72299   3.979  10.524   4.365  2.7787 -0.7518  1.0300
  536MOL0     H72300   3.930  10.486   4.531  3.5530  2.0475  0.3301
  536MOL0     H72301   3.933  10.728   4.598 -0.9984  3.7430 -2.5332
  536MOL0     H72302   4.085  10.642   4.550  1.3338  1.5382 -0.4860
  536MOL0     H72303   4.070  10.735   4.325 -1.6403  0.2081 -0.9299
  536MOL0     H72304   3.936  10.842   4.369 -0.4875  1.0639  0.6759
  536MOL0     H72305   4.074  10.967   4.528 -1.5487 -1.0554  0.0880
  536MOL0     H72306   4.193  10.833   4.537  0.3817  1.7228  1.0382
  536MOL0     H72307   4.287  10.895   4.331 -0.0226 -0.0977 -0.0433
  536MOL0     H72308   4.264  11.040   4.422  2.3722 -2.4190  0.7335
  536MOL0     H72309   4.096  10.959   4.173 -2.1826 -1.1132  2.4980
  536MOL0     H72310   4.044  11.083   4.278 -0.5402  2.9948 -4.0740
  536MOL0     H72311   4.423  11.008   4.215  1.9324  0.3306 -1.0193
  536MOL0     H72312   4.558  11.334   4.008 -0.0276 -1.4190 -3.8262
  536MOL0     H72313   4.629  11.225   4.121 -1.4166  2.0138  0.9718
  536MOL0     H72314   4.722  11.145   3.908 -0.1040  0.1415  1.1149
  536MOL0     H72315   4.580  11.037   3.953 -5.2880  0.4879  0.1450
  536MOL0     H72316   4.601  11.242   3.734  0.0128  1.4121  0.4084
  536MOL0     H72317   4.458  11.232   3.827  2.1755  2.1837  0.6461
  536MOL0     H72318   4.419  11.078   3.652  0.8900  1.8317  0.1580
  536MOL0     H72319   4.434  10.992   3.800 -0.7851  1.3676  2.1481
  536MOL0     H72320   4.767  10.792   3.715  1.9125 -3.2045 -1.4646
  536MOL0     H72321   4.732  10.570   3.739  0.9831 -0.5676 -3.0221
  536MOL0     H72322   4.468  10.181   3.860 -0.2881 -0.6062 -0.1452
  536MOL0     H72323   4.432   9.921   3.798  0.0669 -0.9755 -2.4659
  536MOL0     H72324   4.586   9.607   3.639  1.9374  0.8194  1.9375
  536MOL0     H72325   4.559   9.701   3.776  3.7907 -2.0143 -0.6953
  536MOL0     H72326   4.351   9.583   3.770  0.4467  1.2032  2.8638
  536MOL0     H72327   4.321   9.756   3.735 -2.2148 -0.5133 -1.5172
  536MOL0     H72328   4.183   9.634   3.581 -0.0784  0.3883 -1.3785
  536MOL0     H72329   4.305   9.710   3.481 -0.1888  0.8331 -1.1296
  536MOL0     H72330   4.321   9.426   3.594  3.3095  0.6931  0.7683
  536MOL0     H72331   4.417   9.472   3.465  0.4684 -0.1191  1.3076
  536MOL0     H72332   4.113   9.422   3.463 -1.4907 -1.1996 -3.9073
  536MOL0     H72333   4.237   9.353   3.372 -1.0330  0.4337 -1.2838
  536MOL0     H72334   4.137   9.646   3.352 -0.6959 -1.6228  1.4097
  536MOL0     H72335   4.274   9.583   3.248 -0.0283  1.3281 -0.9812
  536MOL0     H72336   3.995   9.489   3.244 -0.2090  1.7353  0.9548
  536MOL0     H72337   4.120   9.468   3.111  0.3154 -1.3070  1.0100
  536MOL0     H72338   3.945   9.628   3.057  0.1174  0.7253 -0.6801
  536MOL0     H72339   3.990   9.726   3.190 -1.8737  0.9822 -1.5084
  536MOL0     H72340   4.704   9.961   3.483 -0.4208 -0.2968 -0.7349
  536MOL0     H72341   4.729  10.220   3.527  1.3538 -0.4700 -0.0972
  536MOL0     H72342   4.318  10.629   3.575 -0.5438  4.7280  0.7445
  536MOL0     H72343   4.348  10.842   3.596 -1.5701 -1.7121 -2.5430
  536MOL0     H72344   3.633  10.219   4.606 -1.2781 -0.5168  0.9330
  536MOL0     H72345   3.433  10.093   4.583 -0.1743 -0.0645  0.0883
  536MOL0     H72346   3.052  10.026   4.637 -0.3600 -0.4052 -0.6574
  536MOL0     H72347   2.861   9.949   4.744 -1.2170  0.4769 -0.0932
  536MOL0     H72348   2.703   9.986   4.871 -2.0415  2.1765  0.2053
  536MOL0     H72349   2.658   9.837   4.794 -2.7395  0.0330 -1.1776
  536MOL0     H72350   2.487   9.860   4.946  2.2942 -2.8100 -2.4194
  536MOL0     H72351   2.421   9.903   4.783  1.4876  3.0436 -1.8308
  536MOL0     H72352   2.469  10.153   4.859 -2.1345 -1.0276 -2.6881
  536MOL0     H72353   2.519  10.085   5.009  1.3435 -0.4377 -1.8495
  536MOL0     H72354   2.244  10.020   4.897  0.9142 -2.6437  0.3466
  536MOL0     H72355   2.306  10.007   5.064  2.1155  1.2007 -0.0425
  536MOL0     H72356   2.247  10.417   5.054  1.5858 -1.1843  2.6992
  536MOL0     H72357   2.623  10.210   4.491  0.6112  0.4100 -0.4789
  536MOL0     H72358   2.698  10.285   4.312  0.2932 -1.3651  2.1480
  536MOL0     H72359   2.811  10.398   4.383  0.6476  0.9902 -2.6585
  536MOL0     H72360   2.859  10.279   4.253  0.0980  0.0775 -0.7997
  537MOL0     O72361   6.814   7.769   4.664  1.0357 -0.3194 -0.1758
  537MOL0     C72362   6.834   7.874   4.721 -0.2204  0.4323  0.6181
  537MOL0     O72363   6.760   7.914   4.831 -0.4465  0.0246 -0.4713
  537MOL0     C72364   6.681   7.836   4.908  0.8127 -0.3169 -0.5494
  537MOL0     C72365   6.736   7.797   5.030 -0.3460 -0.4993 -0.9110
  537MOL0     C72366   6.677   7.711   5.120  0.0988  1.2996 -0.3723
  537MOL0     C72367   6.551   7.659   5.088 -0.3367  0.7180  0.1285
  537MOL0     O72368   6.484   7.560   5.159 -0.8548  0.3529  0.5729
  537MOL0     C72369   6.515   7.498   5.289  0.4031  0.8864  0.2283
  537MOL0     C72370   6.408   7.391   5.332 -0.1675  0.1909  0.1313
  537MOL0     C72371   6.458   7.250   5.302  0.6574 -0.1025 -0.4647
  537MOL0     C72372   6.347   7.147   5.308  0.3219  0.1172  0.2638
  537MOL0     C72373   6.396   7.008   5.316  0.9378  0.0831 -0.2481
  537MOL0     C72374   6.480   6.969   5.435 -0.5846  0.7372  0.2111
  537MOL0     C72375   6.531   6.819   5.429  0.2080  0.3485  0.1247
  537MOL0     C72376   6.658   6.779   5.350  0.2606  0.1615 -0.0243
  537MOL0     N72377   6.773   6.854   5.401 -0.0879  0.0277 -0.3052
  537MOL0     C72378   6.790   6.891   5.531 -0.0848  1.1267 -0.4891
  537MOL0     C72379   6.916   6.936   5.518  0.0782 -1.3495 -0.6631
  537MOL0     C72380   6.997   6.996   5.634  1.1882  0.9236 -0.4839
  537MOL0     C72381   7.122   7.081   5.594 -0.2309  0.3728  0.0151
  537MOL0     C72382   7.209   7.095   5.715  0.3612  0.1410  0.2712
  537MOL0     C72383   7.332   7.172   5.688  0.2308 -0.0125 -1.0874
  537MOL0     O72384   7.420   7.166   5.801  0.4423 -0.1180  0.2414
  537MOL0     C72385   7.551   7.177   5.762  0.6927 -0.6910 -0.2350
  537MOL0     C72386   7.630   7.063   5.782 -0.0328 -0.7995 -0.2981
  537MOL0     C72387   7.767   7.065   5.735 -0.3074 -0.2312  0.3763
  537MOL0     C72388   7.830   7.182   5.688  0.2849 -0.1925 -0.0102
  537MOL0     C72389   7.972   7.185   5.646 -0.3865  0.8584 -0.0553
  537MOL0     O72390   8.052   7.074   5.689 -0.5892  0.5272 -0.3434
  537MOL0     C72391   8.185   7.071   5.635  0.5488  0.1820  0.3827
  537MOL0     C72392   8.276   7.056   5.734  0.0364  0.0078  0.1970
  537MOL0     C72393   8.409   7.093   5.701 -0.1782  1.0639  0.1850
  537MOL0     C72394   8.451   7.103   5.564  0.4394 -0.6877  0.2125
  537MOL0     O72395   8.579   7.125   5.526  0.4311  0.8378 -0.4457
  537MOL0     C72396   8.682   7.063   5.594  0.6274 -0.5426  0.2497
  537MOL0     C72397   8.810   7.087   5.524 -0.6286  0.7418 -0.0857
  537MOL0     C72398   8.898   6.966   5.510 -0.2250  0.3387  0.0315
  537MOL0     C72399   9.017   6.982   5.412  0.3554  0.6642 -0.3722
  537MOL0     C72400   9.077   6.847   5.383 -0.5120 -0.4971  0.8013
  537MOL0     C72401   9.197   6.858   5.280 -0.5505 -0.3286 -0.5061
  537MOL0     C72402   9.287   6.734   5.262 -0.9671  1.0943  0.6969
  537MOL0     C72403   9.403   6.743   5.158 -0.0207  0.0379  0.4634
  537MOL0    Cl72404   9.359   6.760   4.990  0.3011 -0.1285  0.3005
  537MOL0     C72405   8.354   7.087   5.467  0.2744 -0.5394 -0.2832
  537MOL0     C72406   8.217   7.080   5.495 -0.0573  1.3276 -0.8033
  537MOL0     O72407   8.006   7.277   5.572 -1.0504 -0.9024  0.0492
  537MOL0     C72408   7.749   7.295   5.669  0.3301 -0.4113  0.2704
  537MOL0     C72409   7.613   7.295   5.712 -0.9825  0.4026  0.4894
  537MOL0     N72410   6.964   6.939   5.390  0.6492  0.1388  0.2147
  537MOL0     N72411   6.870   6.895   5.314 -0.4837  1.1786 -0.5445
  537MOL0     C72412   6.504   7.685   4.956  0.0193 -0.5977 -0.1660
  537MOL0     C72413   6.570   7.768   4.864  0.1218  0.1516  0.1675
  537MOL0     C72414   6.947   7.975   4.683 -0.4892 -0.7512 -0.0959
  537MOL0     C72415   6.983   8.074   4.777  0.5153  0.4425 -0.2919
  537MOL0     C72416   7.093   8.152   4.762  0.5589  0.4960 -0.3809
  537MOL0     C72417   7.181   8.129   4.656 -0.7631 -1.1229 -0.4472
  537MOL0     O72418   7.302   8.197   4.636  0.3799 -0.1384  0.3067
  537MOL0     C72419   7.343   8.297   4.731 -0.0993 -0.5132  0.2081
  537MOL0     C72420   7.478   8.359   4.687 -0.0815  0.4934 -0.9590
  537MOL0     C72421   7.462   8.476   4.590 -0.3208 -0.7119  0.4749
  537MOL0     C72422   7.595   8.544   4.548 -0.1757 -0.4819  0.5427
  537MOL0     C72423   7.673   8.617   4.641  0.0576  0.1207  0.6908
  537MOL0     C72424   7.721   8.705   4.712 -0.2565  0.5156  0.8280
  537MOL0     C72425   7.148   8.030   4.568 -0.6143  0.3312 -0.0717
  537MOL0     C72426   7.043   7.949   4.579  0.2146  0.4758  0.3925
  537MOL0     C72427   7.025   7.839   4.474 -0.5609 -1.1318 -0.7157
  537MOL0     H72428   6.823   7.855   5.058 -2.3827  2.0216  0.6662
  537MOL0     H72429   6.711   7.699   5.223 -0.4134  0.2275 -0.3157
  537MOL0     H72430   6.618   7.460   5.293 -0.6174 -2.2635 -0.5561
  537MOL0     H72431   6.509   7.574   5.367 -2.8519  0.1279  0.8323
  537MOL0     H72432   6.323   7.416   5.268 -0.7866 -3.3536 -0.5952
  537MOL0     H72433   6.382   7.416   5.435 -2.7870  0.5207 -0.5479
  537MOL0     H72434   6.539   7.242   5.375 -0.9007  2.3865  1.6955
  537MOL0     H72435   6.485   7.243   5.196 -2.7573  1.0459 -1.5337
  537MOL0     H72436   6.298   7.161   5.405 -0.8128 -1.7836  0.0105
  537MOL0     H72437   6.276   7.162   5.227 -2.5098  2.0608  2.9024
  537MOL0     H72438   6.314   6.936   5.305  2.3853 -1.3467 -2.6839
  537MOL0     H72439   6.450   6.994   5.222  0.0250 -0.7761 -0.6608
  537MOL0     H72440   6.576   7.022   5.435 -0.4344  0.5960  3.1471
  537MOL0     H72441   6.419   6.981   5.524 -1.5687  1.2095 -0.5075
  537MOL0     H72442   6.440   6.770   5.393  0.8394 -0.2114 -0.7397
  537MOL0     H72443   6.541   6.785   5.533  1.1474  1.6225  0.4688
  537MOL0     H72444   6.667   6.672   5.374 -0.9497 -0.4347 -1.9654
  537MOL0     H72445   6.652   6.784   5.241 -0.8753  0.7210  0.0446
  537MOL0     H72446   6.722   6.877   5.615 -1.0974 -1.9325 -1.6878
  537MOL0     H72447   6.933   7.049   5.704 -2.4236 -1.8604 -1.3244
  537MOL0     H72448   7.032   6.919   5.704 -2.4110 -0.3295  0.2026
  537MOL0     H72449   7.172   7.029   5.512 -1.2098 -2.6057  1.1379
  537MOL0     H72450   7.090   7.178   5.555 -0.4115  0.5679  0.6375
  537MOL0     H72451   7.237   6.998   5.758 -0.0840  0.1471  0.5832
  537MOL0     H72452   7.138   7.150   5.778  0.7797  2.3029 -1.0536
  537MOL0     H72453   7.301   7.273   5.659  2.0623  0.5154 -1.3514
  537MOL0     H72454   7.381   7.127   5.602  2.1555 -0.7539  0.3108
  537MOL0     H72455   7.593   6.976   5.835  0.4863  0.9364  3.1916
  537MOL0     H72456   7.825   6.973   5.735  0.2621  0.1065  1.4429
  537MOL0     H72457   8.234   7.050   5.834  0.8072  0.6224  0.5662
  537MOL0     H72458   8.476   7.097   5.787 -0.3039  0.1004  0.3354
  537MOL0     H72459   8.699   7.100   5.695 -1.7769  0.9264  0.1896
  537MOL0     H72460   8.660   6.957   5.606 -0.7033  0.0035  3.6538
  537MOL0     H72461   8.793   7.108   5.418  2.3394  1.2574 -0.5564
  537MOL0     H72462   8.864   7.165   5.579 -1.4372  1.0702  0.2515
  537MOL0     H72463   8.941   6.944   5.608 -0.7746 -0.3704  0.1250
  537MOL0     H72464   8.841   6.875   5.490  1.1032 -0.0458 -2.3353
  537MOL0     H72465   9.093   7.048   5.456  0.1180  1.5976 -1.3041
  537MOL0     H72466   8.988   7.037   5.322  1.6618  0.4586 -0.9435
  537MOL0     H72467   9.002   6.781   5.339  0.1557 -1.4886  1.1236
  537MOL0     H72468   9.123   6.805   5.472  2.8595  1.4221  0.1618
  537MOL0     H72469   9.172   6.910   5.188  1.3441  3.4421  0.8889
  537MOL0     H72470   9.266   6.932   5.322 -0.4496  1.0350 -2.9115
  537MOL0     H72471   9.243   6.639   5.232  0.4178  0.2445  1.2791
  537MOL0     H72472   9.340   6.722   5.356 -1.3987  2.3286  1.1218
  537MOL0     H72473   9.448   6.836   5.192  0.4677 -0.2300  0.5602
  537MOL0     H72474   9.469   6.656   5.160 -1.3171 -0.9515  2.0210
  537MOL0     H72475   8.386   7.107   5.366 -2.7086  1.5838 -0.9372
  537MOL0     H72476   8.126   7.070   5.435 -2.5583 -0.0324  2.8839
  537MOL0     H72477   7.796   7.384   5.630  1.7749 -1.1089  0.3436
  537MOL0     H72478   7.564   7.390   5.692  1.9262  1.3010 -3.8289
  537MOL0     H72479   6.417   7.624   4.932  1.5241 -2.5068 -1.0292
  537MOL0     H72480   6.543   7.779   4.759  0.6470 -1.9534 -0.2321
  537MOL0     H72481   6.922   8.089   4.865  0.7398 -2.7592  0.5414
  537MOL0     H72482   7.116   8.224   4.840  1.3328 -1.3918  1.2153
  537MOL0     H72483   7.368   8.249   4.826  2.2607  0.0328 -0.0721
  537MOL0     H72484   7.274   8.379   4.756 -0.8547 -1.7988  2.6397
  537MOL0     H72485   7.545   8.282   4.647  1.2913  0.4948  1.2034
  537MOL0     H72486   7.525   8.394   4.779 -0.4603  0.3087 -0.6924
  537MOL0     H72487   7.394   8.545   4.641 -0.4340 -1.3579  1.2209
  537MOL0     H72488   7.415   8.461   4.493 -0.9563  2.8567  0.0962
  537MOL0     H72489   7.666   8.469   4.511  1.9456  0.0559  3.2386
  537MOL0     H72490   7.570   8.610   4.464  2.1812  3.3647  2.5674
  537MOL0     H72491   7.754   8.783   4.778  0.1126  0.2454  0.9591
  537MOL0     H72492   7.225   8.026   4.491  0.9448  5.1544  0.8500
  537MOL0     H72493   6.951   7.864   4.398 -1.7053  2.0872  1.2225
  537MOL0     H72494   7.120   7.845   4.420 -1.1150 -0.8637 -1.6773
  537MOL0     H72495   7.017   7.740   4.519  0.1945 -0.3843  1.1605
  538MOL0     O72496   4.104   8.813   9.036  0.9650  0.5049  0.3938
  538MOL0     C72497   4.014   8.747   9.085 -0.5484 -0.2646  0.5967
  538MOL0     O72498   3.882   8.790   9.094  0.0786 -0.4833 -0.7177
  538MOL0     C72499   3.851   8.899   9.023  0.3301 -0.1657 -0.5309
  538MOL0     C72500   3.754   8.874   8.918 -0.3854  0.7437  0.0094
  538MOL0     C72501   3.713   8.971   8.828  0.5069 -0.7811  0.2315
  538MOL0     C72502   3.750   9.111   8.846 -0.6189  0.5921  1.0158
  538MOL0     O72503   3.694   9.215   8.771 -0.4945  0.4517 -0.0903
  538MOL0     C72504   3.566   9.205   8.717  0.0979 -0.0140  0.5893
  538MOL0     C72505   3.445   9.197   8.813 -0.5541 -1.1771  0.0096
  538MOL0     C72506   3.432   9.321   8.906  0.3827  0.2924  0.3569
  538MOL0     C72507   3.414   9.455   8.837 -0.2833 -0.3993 -0.3699
  538MOL0     C72508   3.269   9.464   8.791 -1.2992  0.8288  0.8000
  538MOL0     C72509   3.229   9.595   8.747  0.3805 -0.4820 -0.8864
  538MOL0     C72510   3.097   9.603   8.669 -0.7587  0.7751  0.7473
  538MOL0     C72511   3.073   9.739   8.598 -0.1484 -0.3399 -0.4827
  538MOL0     N72512   3.084   9.857   8.689  0.8499 -0.3940 -0.4500
  538MOL0     C72513   2.973   9.939   8.731  0.1038  0.7952 -0.0347
  538MOL0     C72514   3.024  10.054   8.790  0.5453  0.2772  0.3654
  538MOL0     C72515   2.943  10.176   8.829 -0.7086  0.2104  1.0471
  538MOL0     C72516   2.930  10.183   8.986 -0.6384  0.0835 -0.5843
  538MOL0     C72517   2.889  10.054   9.055 -0.2252  0.1355 -1.1249
  538MOL0     C72518   2.809  10.070   9.177  0.3235 -0.5698 -0.1479
  538MOL0     O72519   2.880  10.142   9.275  0.0936 -0.4329 -0.5197
  538MOL0     C72520   2.992  10.089   9.342  0.2046 -0.1277  0.4486
  538MOL0     C72521   3.003   9.962   9.400  0.0992  0.5679 -0.4167
  538MOL0     C72522   3.116   9.896   9.442 -0.2369  0.6498  0.5240
  538MOL0     C72523   3.241   9.970   9.428 -0.1026  0.6360 -0.1766
  538MOL0     C72524   3.368   9.894   9.458  0.3477 -0.0139  0.0372
  538MOL0     O72525   3.472   9.965   9.521  0.5407  0.0047 -0.4538
  538MOL0     C72526   3.571   9.891   9.570 -0.3133 -0.2319 -0.3101
  538MOL0     C72527   3.673   9.836   9.494  0.4292  0.0108 -0.1302
  538MOL0     C72528   3.776   9.760   9.548  0.0213  0.3154  0.3607
  538MOL0     C72529   3.770   9.741   9.683  0.0751 -0.0101  0.2486
  538MOL0     O72530   3.866   9.670   9.742  0.9750  0.0114  0.0916
  538MOL0     C72531   3.856   9.531   9.729  0.8857  0.2702 -0.4246
  538MOL0     C72532   3.936   9.449   9.839  0.2695 -0.6485 -0.0608
  538MOL0     C72533   3.925   9.524   9.971 -1.1129  0.9156 -0.5263
  538MOL0     C72534   3.993   9.444  10.088  0.4940 -0.2377  0.0575
  538MOL0     C72535   4.022   9.539  10.203 -0.3789  0.8966 -1.1312
  538MOL0     C72536   4.101   9.486  10.329  0.3375 -0.1339 -0.1210
  538MOL0     C72537   4.129   9.592  10.435  0.2453  0.4753  0.3365
  538MOL0     C72538   4.161   9.544  10.566  0.0166 -0.1495  0.5331
  538MOL0    Cl72539   4.312   9.439  10.568 -0.3026  1.0619  0.1148
  538MOL0     C72540   3.671   9.786   9.767 -0.1528 -1.1923 -0.4965
  538MOL0     C72541   3.577   9.870   9.707  0.8651  0.1475 -0.9616
  538MOL0     O72542   3.372   9.777   9.433 -0.2641 -0.6837  1.0266
  538MOL0     C72543   3.234  10.091   9.371 -0.4321 -0.0419  0.6396
  538MOL0     C72544   3.114  10.160   9.322 -0.1931  0.1509 -0.3965
  538MOL0     N72545   3.165  10.047   8.786  0.4557 -0.7055  0.2263
  538MOL0     N72546   3.195   9.922   8.734 -0.0314 -0.5290 -0.2543
  538MOL0     C72547   3.852   9.133   8.934  0.2243 -1.1019  0.0551
  538MOL0     C72548   3.906   9.032   9.021 -0.0341  0.0365  0.0987
  538MOL0     C72549   4.056   8.610   9.133  0.4617  0.0832 -0.0041
  538MOL0     C72550   4.183   8.570   9.104 -0.9012  0.3741  0.0799
  538MOL0     C72551   4.239   8.448   9.155  0.3973  0.4391 -0.5423
  538MOL0     C72552   4.165   8.361   9.238 -0.3820 -0.0453  0.5903
  538MOL0     O72553   4.200   8.239   9.305  0.0243  0.1252  1.1708
  538MOL0     C72554   4.336   8.225   9.309  0.1636  0.4893 -0.5024
  538MOL0     C72555   4.374   8.136   9.436 -0.6030 -0.5776 -0.0245
  538MOL0     C72556   4.531   8.107   9.451 -0.5641 -0.3581  0.2665
  538MOL0     C72557   4.559   8.016   9.572  0.4619  0.2274  0.0597
  538MOL0     C72558   4.511   8.071   9.696  0.6882  0.0800 -0.0120
  538MOL0     C72559   4.457   8.125   9.791  0.8871 -0.4910  0.2558
  538MOL0     C72560   4.032   8.404   9.267 -0.5151 -0.4142 -0.1806
  538MOL0     C72561   3.973   8.523   9.220 -0.1738 -0.5405 -0.1302
  538MOL0     C72562   3.833   8.553   9.269 -0.7470 -0.5286  0.3044
  538MOL0     H72563   3.707   8.777   8.923  0.8191  0.1949  1.3974
  538MOL0     H72564   3.644   8.947   8.748 -0.8515  0.7596  0.8743
  538MOL0     H72565   3.550   9.290   8.651 -0.0766  0.1901  0.8922
  538MOL0     H72566   3.561   9.109   8.664 -1.1872  0.9138 -1.0624
  538MOL0     H72567   3.453   9.104   8.870  0.3424 -1.5509 -0.7111
  538MOL0     H72568   3.352   9.192   8.755 -1.2703  3.5880  0.3924
  538MOL0     H72569   3.529   9.317   8.956  2.5691 -2.4467 -3.5486
  538MOL0     H72570   3.354   9.299   8.979  1.3854  0.0414  1.3872
  538MOL0     H72571   3.443   9.535   8.906 -3.6666  2.0404 -1.5287
  538MOL0     H72572   3.478   9.463   8.749  3.0664  0.5855  1.9644
  538MOL0     H72573   3.266   9.414   8.694 -3.2779  0.1900  1.1454
  538MOL0     H72574   3.201   9.418   8.864 -0.1462 -1.6013  0.4577
  538MOL0     H72575   3.217   9.651   8.840 -0.3152  1.3836 -2.0312
  538MOL0     H72576   3.309   9.643   8.690  0.3190  1.7189  0.7149
  538MOL0     H72577   3.012   9.576   8.733 -0.7978  2.2800  1.3723
  538MOL0     H72578   3.095   9.524   8.594 -3.0897  1.3774  0.1017
  538MOL0     H72579   3.147   9.753   8.518  0.6717  2.2066  0.6248
  538MOL0     H72580   2.972   9.733   8.555 -1.8564  2.8743  2.5761
  538MOL0     H72581   2.872   9.914   8.700 -0.9387 -0.0447  3.6285
  538MOL0     H72582   2.998  10.261   8.788  0.8899 -0.9290  0.7224
  538MOL0     H72583   2.844  10.176   8.781  0.4606 -1.1245 -1.5987
  538MOL0     H72584   3.017  10.229   9.034 -1.1655  0.4661  0.0238
  538MOL0     H72585   2.857  10.264   9.001  1.3382  1.6870  1.0002
  538MOL0     H72586   2.975   9.993   9.080  0.3015  1.1041 -0.4745
  538MOL0     H72587   2.824  10.000   8.986  0.0487 -2.4932  0.5440
  538MOL0     H72588   2.770   9.979   9.223 -0.2899  0.2189  0.9681
  538MOL0     H72589   2.721  10.133   9.157  2.5678  2.6859 -0.6542
  538MOL0     H72590   2.919   9.897   9.425  2.2743 -1.3103  2.7926
  538MOL0     H72591   3.119   9.793   9.476  0.7091 -0.3122 -2.2333
  538MOL0     H72592   3.665   9.858   9.388  3.5370 -2.0223 -0.9273
  538MOL0     H72593   3.839   9.705   9.480 -2.6659  2.5545 -4.4653
  538MOL0     H72594   3.751   9.503   9.744  1.5481 -2.2912 -0.1840
  538MOL0     H72595   3.881   9.493   9.630  1.4550 -3.1049  0.8921
  538MOL0     H72596   3.877   9.357   9.850 -1.1863  0.3158  0.5658
  538MOL0     H72597   4.038   9.425   9.807  1.2744  1.7267  1.1192
  538MOL0     H72598   3.983   9.617   9.961 -1.6673  1.2580 -0.5639
  538MOL0     H72599   3.820   9.551   9.985 -1.0729 -0.1169  2.6085
  538MOL0     H72600   4.082   9.388  10.057  1.3361  2.4325 -2.8817
  538MOL0     H72601   3.933   9.357  10.115  0.7290 -0.8339 -1.2553
  538MOL0     H72602   3.932   9.586  10.242 -1.1322  1.0793 -2.9734
  538MOL0     H72603   4.081   9.626  10.171 -0.1199  0.8283 -0.8472
  538MOL0     H72604   4.041   9.408  10.378  1.4922 -0.0829  1.4525
  538MOL0     H72605   4.199   9.444  10.306 -0.6053 -1.8593 -1.2022
  538MOL0     H72606   4.044   9.659  10.451  0.1197  0.5554 -0.5941
  538MOL0     H72607   4.218   9.648  10.403  2.2678 -2.8128 -0.3010
  538MOL0     H72608   4.171   9.637  10.622 -1.2499  0.9766 -1.0189
  538MOL0     H72609   4.085   9.490  10.623  1.0957 -0.7593  1.4446
  538MOL0     H72610   3.682   9.777   9.874  0.7663 -0.6622 -0.5338
  538MOL0     H72611   3.497   9.914   9.765 -0.1513 -1.1623 -1.3354
  538MOL0     H72612   3.332  10.135   9.357 -0.3371  0.2906  2.0898
  538MOL0     H72613   3.114  10.253   9.265  1.8004  0.2628 -0.2929
  538MOL0     H72614   3.895   9.232   8.951 -2.4231  0.2152 -0.3996
  538MOL0     H72615   3.980   9.046   9.100  1.0903 -2.6073 -0.3633
  538MOL0     H72616   4.253   8.616   9.036 -0.4206 -0.8439 -0.2753
  538MOL0     H72617   4.340   8.413   9.139 -0.0792 -0.2793 -2.1692
  538MOL0     H72618   4.388   8.319   9.326  0.3183 -0.0083  2.3546
  538MOL0     H72619   4.373   8.177   9.218  2.6960 -0.9096  1.1360
  538MOL0     H72620   4.313   8.046   9.444 -1.1975 -0.1287  0.5753
  538MOL0     H72621   4.335   8.185   9.525  1.0633  0.6806  0.0669
  538MOL0     H72622   4.585   8.201   9.459  2.5410 -1.6282 -2.9808
  538MOL0     H72623   4.561   8.058   9.358 -0.7352 -0.8905  0.4820
  538MOL0     H72624   4.515   7.919   9.548  0.0273  1.0454 -2.8597
  538MOL0     H72625   4.667   7.999   9.571  0.1916 -1.7714  0.6291
  538MOL0     H72626   4.410   8.188   9.863  0.4683  1.4615 -1.6128
  538MOL0     H72627   3.968   8.347   9.334 -1.8362  1.2734  0.0606
  538MOL0     H72628   3.837   8.655   9.307  2.6051 -0.1326 -0.7858
  538MOL0     H72629   3.760   8.535   9.190  1.2717  1.7396 -2.2823
  538MOL0     H72630   3.826   8.497   9.363  2.9539  2.0642  2.3923
  539MOL0     O72631  10.962   0.213   3.485  1.0673 -0.0764  0.0653
  539MOL0     C72632  10.839   0.222   3.451 -0.5941  0.1564 -0.8345
  539MOL0     O72633  10.773   0.126   3.382  0.6268  0.6601 -0.4155
  539MOL0     C72634  10.830   0.072   3.270  0.1828  0.8193  0.5186
  539MOL0     C72635  10.947   0.105   3.201  0.5207 -0.8161  0.8081
  539MOL0     C72636  10.980   0.041   3.081 -0.4296  1.0062 -0.3378
  539MOL0     C72637  10.918  -0.080   3.039  0.1360  0.1349  0.9394
  539MOL0     O72638  10.950  -0.154   2.928  0.3134  0.4983  0.0268
  539MOL0     C72639  10.997  -0.088   2.812 -0.4196 -0.3286 -0.4937
  539MOL0     C72640  10.959  -0.162   2.682 -0.1187  0.6690 -0.0096
  539MOL0     C72641  11.015  -0.093   2.565 -0.9083  0.0044  1.0146
  539MOL0     C72642  10.972  -0.136   2.421  0.0672  0.9926  0.4747
  539MOL0     C72643  10.994  -0.027   2.314  0.1300 -0.7521  0.5741
  539MOL0     C72644  10.987  -0.073   2.168 -0.0836 -0.2187 -0.0251
  539MOL0     C72645  10.856  -0.132   2.121  1.0816 -0.2109 -0.3255
  539MOL0     C72646  10.726  -0.039   2.134 -1.8501 -0.3649  0.0078
  539MOL0     N72647  10.739   0.091   2.060 -0.7009  0.3060 -0.5708
  539MOL0     C72648  10.712   0.111   1.928  0.6201  0.5564 -0.5240
  539MOL0     C72649  10.692   0.242   1.912 -1.2804  0.3219  0.7113
  539MOL0     C72650  10.671   0.311   1.785  1.0631 -0.4551  0.0041
  539MOL0     C72651  10.560   0.248   1.706 -0.5172 -0.5148 -0.2854
  539MOL0     C72652  10.540   0.320   1.575 -0.1174 -0.3806 -0.9942
  539MOL0     C72653  10.452   0.229   1.487  0.5460  0.0257  0.2277
  539MOL0     O72654  10.326   0.208   1.547  0.7850 -0.5615  0.1596
  539MOL0     C72655  10.226   0.260   1.484 -1.4024  0.7079  0.4948
  539MOL0     C72656  10.154   0.371   1.518  0.4119  0.6796  0.5849
  539MOL0     C72657  10.046   0.408   1.435  0.0272 -0.1736 -1.0730
  539MOL0     C72658  10.000   0.334   1.332  0.4014 -0.4297  0.4052
  539MOL0     C72659   9.891   0.381   1.240  0.4723  0.1374  0.2804
  539MOL0     O72660   9.855   0.305   1.142  0.2115  0.9449 -0.1002
  539MOL0     C72661   9.751   0.347   1.064  0.0004 -0.3956  0.8554
  539MOL0     C72662   9.759   0.458   0.988 -0.0874  0.2870 -0.5608
  539MOL0     C72663   9.656   0.507   0.911 -0.5254 -0.6733 -0.1915
  539MOL0     C72664   9.533   0.439   0.901 -0.7497 -0.1231 -0.1798
  539MOL0     O72665   9.440   0.481   0.818  0.2634 -0.1706  0.1765
  539MOL0     C72666   9.435   0.623   0.788 -0.1139 -0.6991 -0.5012
  539MOL0     C72667   9.507   0.635   0.652  0.2947  0.0128  0.3472
  539MOL0     C72668   9.431   0.546   0.547  0.1766 -1.5955 -0.0265
  539MOL0     C72669   9.372   0.637   0.440  0.5510 -0.4103 -0.0902
  539MOL0     C72670   9.292   0.557   0.339 -0.1916 -0.0314  0.4279
  539MOL0     C72671   9.147   0.530   0.380 -0.4035  0.0565 -0.4524
  539MOL0     C72672   9.052   0.488   0.260 -1.0040 -0.1371 -0.0113
  539MOL0     C72673   8.941   0.394   0.313 -0.5387  0.1676 -0.3712
  539MOL0    Cl72674   8.893   0.395   0.483 -0.0753 -0.3914  0.1310
  539MOL0     C72675   9.519   0.319   0.963  0.0795  0.6518 -0.4328
  539MOL0     C72676   9.630   0.277   1.047  0.3965  0.0974 -0.0411
  539MOL0     O72677   9.850   0.488   1.261  0.7022 -1.0134  0.5179
  539MOL0     C72678  10.068   0.211   1.297 -0.4374  0.2203  0.0706
  539MOL0     C72679  10.177   0.179   1.374 -0.7026 -0.4318  0.6203
  539MOL0     N72680  10.714   0.310   2.031 -0.2832  0.8204 -0.5537
  539MOL0     N72681  10.720   0.214   2.120 -0.6307  0.3178  0.4198
  539MOL0     C72682  10.822  -0.128   3.118  0.1951 -0.3561 -0.1953
  539MOL0     C72683  10.779  -0.055   3.228  0.1654  0.0687 -0.6605
  539MOL0     C72684  10.765   0.345   3.483 -0.6209 -0.2235  0.2504
  539MOL0     C72685  10.639   0.364   3.414 -0.5556 -0.2366  1.0848
  539MOL0     C72686  10.568   0.482   3.416  0.1851  0.4777 -0.8113
  539MOL0     C72687  10.626   0.591   3.482  0.4042  0.4090 -0.6585
  539MOL0     O72688  10.563   0.717   3.482 -0.8411  1.0114 -0.2708
  539MOL0     C72689  10.569   0.782   3.358 -0.5725 -0.2593  0.9717
  539MOL0     C72690  10.508   0.918   3.385  0.8381 -0.1195  0.1191
  539MOL0     C72691  10.354   0.901   3.418  0.0348 -1.6722 -0.3314
  539MOL0     C72692  10.296   1.034   3.469 -0.6631  0.3815 -0.1408
  539MOL0     C72693  10.324   1.061   3.613  0.0558 -1.9369  0.4595
  539MOL0     C72694  10.357   1.096   3.730  0.4426 -0.5330  0.5341
  539MOL0     C72695  10.745   0.578   3.550 -0.7965  0.7085 -0.5549
  539MOL0     C72696  10.814   0.453   3.552  0.3249  0.2230  0.0306
  539MOL0     C72697  10.951   0.456   3.612 -0.0446 -0.4287  0.1130
  539MOL0     H72698  11.001   0.193   3.236 -1.5198 -0.8664  4.7077
  539MOL0     H72699  11.057   0.078   3.015 -2.1267  1.1557 -2.3264
  539MOL0     H72700  10.953   0.012   2.805  0.6895  0.0594 -3.0835
  539MOL0     H72701  11.106  -0.086   2.823 -0.1789 -1.9411 -2.1674
  539MOL0     H72702  10.850  -0.167   2.676 -0.1283 -0.7459  0.8734
  539MOL0     H72703  10.998  -0.262   2.700 -1.2059 -0.0729 -1.5765
  539MOL0     H72704  11.122  -0.102   2.586 -1.1667  2.1021  3.7384
  539MOL0     H72705  10.998   0.014   2.580  3.3428  1.0206  0.0229
  539MOL0     H72706  11.035  -0.221   2.394  0.0552  1.1362 -0.0007
  539MOL0     H72707  10.869  -0.175   2.417  0.8074 -0.9580 -1.3974
  539MOL0     H72708  10.903   0.034   2.318 -1.6963 -3.3678  1.4018
  539MOL0     H72709  11.091   0.022   2.326  1.1939 -1.6407 -3.0381
  539MOL0     H72710  11.021   0.008   2.103 -3.6721  1.4076 -0.0830
  539MOL0     H72711  11.063  -0.151   2.158  1.4660  1.3592 -1.0615
  539MOL0     H72712  10.837  -0.215   2.190  1.2373  1.9684  2.5096
  539MOL0     H72713  10.857  -0.177   2.022 -0.1409  0.3745 -0.6194
  539MOL0     H72714  10.645  -0.100   2.093 -1.7206 -1.0375  0.7290
  539MOL0     H72715  10.698  -0.013   2.236 -3.1328 -1.5402 -0.0275
  539MOL0     H72716  10.719   0.028   1.857  2.0690  0.0191  0.2005
  539MOL0     H72717  10.658   0.417   1.807  1.4566 -0.4427  0.1681
  539MOL0     H72718  10.758   0.290   1.723 -1.3578 -3.8862 -2.6864
  539MOL0     H72719  10.589   0.145   1.683  0.0854 -0.5793  0.6947
  539MOL0     H72720  10.465   0.267   1.757  0.3455  0.8412  0.8887
  539MOL0     H72721  10.634   0.339   1.523  0.1877 -2.4635 -1.2701
  539MOL0     H72722  10.489   0.416   1.592 -0.9460 -1.3725  3.1631
  539MOL0     H72723  10.489   0.128   1.469  2.1485  0.8235 -1.3350
  539MOL0     H72724  10.445   0.271   1.386  0.6616  0.3108  0.3374
  539MOL0     H72725  10.181   0.435   1.602 -1.7487  2.8326 -0.2476
  539MOL0     H72726   9.994   0.501   1.457  0.1868 -0.7863  2.4857
  539MOL0     H72727   9.846   0.522   0.992 -0.1140  0.4550 -2.0167
  539MOL0     H72728   9.669   0.596   0.849  1.1799 -0.8274 -0.1139
  539MOL0     H72729   9.329   0.646   0.770 -0.1314 -1.0100 -0.8031
  539MOL0     H72730   9.455   0.680   0.879 -0.3702  0.2589 -1.0395
  539MOL0     H72731   9.503   0.741   0.623  1.1526 -0.4368 -1.5724
  539MOL0     H72732   9.612   0.605   0.652 -0.1158 -1.5864 -1.1889
  539MOL0     H72733   9.503   0.479   0.500 -0.1338 -1.0746 -1.2886
  539MOL0     H72734   9.349   0.494   0.597 -0.9611  0.6352  0.5649
  539MOL0     H72735   9.457   0.687   0.393 -0.5137  1.1199 -0.4701
  539MOL0     H72736   9.312   0.716   0.487  1.0502 -1.5214  2.6218
  539MOL0     H72737   9.344   0.468   0.300 -0.0436 -0.0480  0.6623
  539MOL0     H72738   9.281   0.628   0.256  2.3283  1.8575  1.5556
  539MOL0     H72739   9.145   0.455   0.459  3.0594  0.6672  0.3685
  539MOL0     H72740   9.108   0.624   0.421 -3.5187 -1.0008 -0.7345
  539MOL0     H72741   9.124   0.445   0.190 -0.5907  0.2000  0.2037
  539MOL0     H72742   8.997   0.575   0.223  0.7357  1.0077  0.0079
  539MOL0     H72743   8.852   0.423   0.257  0.9212  0.3377 -2.7467
  539MOL0     H72744   8.966   0.288   0.299  0.9709  0.2228  1.5099
  539MOL0     H72745   9.422   0.271   0.956  0.3421 -0.3780  2.0950
  539MOL0     H72746   9.603   0.192   1.109 -3.1797  2.2376  1.7127
  539MOL0     H72747  10.038   0.147   1.214  1.0889  0.2887 -0.5719
  539MOL0     H72748  10.234   0.089   1.351 -1.5385 -0.8837  0.2970
  539MOL0     H72749  10.776  -0.223   3.091  2.2483 -0.9438 -1.9087
  539MOL0     H72750  10.699  -0.094   3.291 -0.1299 -0.9114 -1.5981
  539MOL0     H72751  10.592   0.278   3.366 -1.9659  1.3036 -0.4287
  539MOL0     H72752  10.466   0.474   3.380  0.4339 -0.1975 -1.3808
  539MOL0     H72753  10.503   0.727   3.290 -1.2722  0.7704  0.7944
  539MOL0     H72754  10.672   0.797   3.325 -0.1644 -1.3175  1.7107
  539MOL0     H72755  10.521   0.987   3.301  3.6026  1.7128  1.8570
  539MOL0     H72756  10.556   0.960   3.475  0.8588 -2.2805  1.1759
  539MOL0     H72757  10.322   0.823   3.488 -0.3101  0.7174  2.3904
  539MOL0     H72758  10.306   0.877   3.323  2.5642 -1.1910 -1.8168
  539MOL0     H72759  10.349   1.114   3.415  1.7965  0.2382  1.8436
  539MOL0     H72760  10.189   1.018   3.454 -0.3497 -1.9496 -0.2715
  539MOL0     H72761  10.377   1.138   3.826  0.8241  2.2623 -0.6615
  539MOL0     H72762  10.788   0.668   3.594  1.1014  0.5720 -2.0036
  539MOL0     H72763  11.027   0.445   3.533 -1.2676  1.2271 -1.3898
  539MOL0     H72764  10.966   0.553   3.661 -1.5662 -0.0267 -0.1787
  539MOL0     H72765  10.961   0.375   3.685 -0.0459 -0.6155 -0.0923
  540MOL0     O72766   9.566   0.872   4.282  0.0500 -0.6465 -0.7510
  540MOL0     C72767   9.587   0.828   4.173 -0.7638  0.6490  0.5287
  540MOL0     O72768   9.684   0.736   4.153  0.9015  0.8477  0.3310
  540MOL0     C72769   9.743   0.666   4.259 -0.1873 -0.0068 -0.1413
  540MOL0     C72770   9.874   0.615   4.250  0.5595 -0.1821 -0.8508
  540MOL0     C72771   9.921   0.538   4.357  0.1715  0.4700 -0.4031
  540MOL0     C72772   9.846   0.492   4.466  0.4850  0.4221 -0.2467
  540MOL0     O72773   9.891   0.398   4.554 -0.0557  0.1314 -0.7164
  540MOL0     C72774  10.008   0.444   4.633  0.5522 -0.0281 -0.0999
  540MOL0     C72775  10.025   0.346   4.746 -0.4366 -0.6539 -0.7526
  540MOL0     C72776  10.027   0.419   4.882  0.3203 -0.0673  0.7361
  540MOL0     C72777   9.886   0.425   4.936 -0.3481 -0.0466  0.6936
  540MOL0     C72778   9.869   0.498   5.073  0.1840  0.7745  0.0831
  540MOL0     C72779   9.726   0.479   5.121  0.4185 -0.5482  0.8641
  540MOL0     C72780   9.699   0.569   5.246 -0.8883  0.7771  0.1783
  540MOL0     C72781   9.554   0.574   5.282 -0.0693 -0.4829 -0.0085
  540MOL0     N72782   9.531   0.614   5.418  0.1242  0.5743 -0.3340
  540MOL0     C72783   9.606   0.703   5.490  0.6931 -0.6308 -0.0738
  540MOL0     C72784   9.565   0.692   5.609 -0.7456  0.4925 -0.2843
  540MOL0     C72785   9.604   0.789   5.733  0.9548 -0.8495 -0.4568
  540MOL0     C72786   9.515   0.769   5.859 -0.0191 -0.9584 -0.2698
  540MOL0     C72787   9.552   0.866   5.969  0.3834  0.0526  0.5021
  540MOL0     C72788   9.697   0.874   6.010 -0.0934 -1.3142  0.5559
  540MOL0     O72789   9.707   0.983   6.102  1.2814 -0.1695 -1.1824
  540MOL0     C72790   9.737   1.112   6.056  0.4219  0.7166  0.8361
  540MOL0     C72791   9.712   1.163   5.926 -1.3613 -0.2089 -0.0575
  540MOL0     C72792   9.708   1.300   5.895 -0.7645 -0.5340  0.1330
  540MOL0     C72793   9.748   1.390   6.005  0.3313  0.8067 -0.3320
  540MOL0     C72794   9.745   1.539   5.982 -0.3017  0.5143  0.5470
  540MOL0     O72795   9.704   1.581   5.855 -0.1091  0.1734 -0.2447
  540MOL0     C72796   9.701   1.712   5.823 -0.7357 -0.1440  1.2695
  540MOL0     C72797   9.786   1.814   5.874 -0.6562 -0.3255  0.9692
  540MOL0     C72798   9.771   1.941   5.837 -0.1526  0.2456 -1.1213
  540MOL0     C72799   9.683   1.975   5.735 -0.4508  0.1053 -1.1167
  540MOL0     O72800   9.668   2.104   5.699 -0.6733 -0.0048  0.7142
  540MOL0     C72801   9.619   2.189   5.808 -0.1419  0.5581  0.0716
  540MOL0     C72802   9.720   2.305   5.828  0.4961  0.2738  0.0531
  540MOL0     C72803   9.682   2.391   5.960  0.0856 -0.5954 -0.2309
  540MOL0     C72804   9.736   2.331   6.082  0.8416  0.2647  1.0407
  540MOL0     C72805   9.707   2.413   6.216 -0.8537  0.2537  0.0260
  540MOL0     C72806   9.562   2.402   6.257 -1.0720  0.4264  0.1385
  540MOL0     C72807   9.515   2.465   6.389 -0.1062 -0.5172 -1.2255
  540MOL0     C72808   9.618   2.462   6.498 -0.5286  0.0119  0.0172
  540MOL0    Cl72809   9.523   2.386   6.633 -0.4830 -0.2921  0.4088
  540MOL0     C72810   9.608   1.881   5.674  0.5186 -0.0706 -0.7120
  540MOL0     C72811   9.614   1.751   5.721  0.5449  0.0400  0.6880
  540MOL0     O72812   9.785   1.612   6.068  0.2562 -1.0275  0.4236
  540MOL0     C72813   9.790   1.340   6.127 -1.0363 -0.0918 -0.0125
  540MOL0     C72814   9.767   1.208   6.150 -1.1585 -0.0305 -0.7425
  540MOL0     N72815   9.462   0.603   5.619  0.5151  0.8235  0.2855
  540MOL0     N72816   9.452   0.553   5.500  0.6532  0.6711  0.4286
  540MOL0     C72817   9.719   0.549   4.468 -0.9758  0.3633  0.2010
  540MOL0     C72818   9.670   0.631   4.372  0.1690 -0.0763 -0.0352
  540MOL0     C72819   9.525   0.880   4.053  0.5666  0.0274 -0.9880
  540MOL0     C72820   9.556   0.837   3.928 -0.2008  0.3553  1.0224
  540MOL0     C72821   9.499   0.870   3.807 -0.4383  0.8936  0.0541
  540MOL0     C72822   9.388   0.966   3.807 -0.1337 -0.0487 -0.6473
  540MOL0     O72823   9.331   1.025   3.693 -0.6727  0.0399  0.1553
  540MOL0     C72824   9.310   0.936   3.579 -0.4290  0.5439  0.6182
  540MOL0     C72825   9.237   1.019   3.466 -0.8447  0.4873 -0.4216
  540MOL0     C72826   9.085   1.026   3.504  1.1077  0.8179  0.6513
  540MOL0     C72827   9.002   1.114   3.406  0.7676  0.2511  0.0494
  540MOL0     C72828   8.978   1.051   3.277  0.6556  0.3224  0.4897
  540MOL0     C72829   8.940   0.991   3.172 -0.0282 -0.4606  0.1583
  540MOL0     C72830   9.359   1.023   3.934  0.0132  0.5752  0.8216
  540MOL0     C72831   9.419   0.979   4.054 -0.8747  0.2177  0.0513
  540MOL0     C72832   9.338   1.030   4.172  0.7855 -0.1938 -0.0606
  540MOL0     H72833   9.936   0.640   4.164  0.8310  3.9702  0.3460
  540MOL0     H72834  10.022   0.499   4.349  0.6328  1.8573 -2.1591
  540MOL0     H72835  10.098   0.450   4.570  1.2591  1.2264  0.9719
  540MOL0     H72836   9.982   0.542   4.676  3.3893  0.4714  0.6927
  540MOL0     H72837  10.118   0.289   4.731  1.2811  1.9056 -0.4511
  540MOL0     H72838   9.940   0.277   4.744 -1.8296  0.9751 -0.0894
  540MOL0     H72839  10.075   0.515   4.862 -0.3849  0.0839 -0.3262
  540MOL0     H72840  10.098   0.366   4.946  0.4761 -3.1422 -1.7380
  540MOL0     H72841   9.819   0.471   4.863  0.8108 -3.1246 -2.5876
  540MOL0     H72842   9.861   0.320   4.957  0.4264  0.3669  4.6240
  540MOL0     H72843   9.944   0.464   5.145 -0.1923 -0.0945  0.0778
  540MOL0     H72844   9.878   0.607   5.061  1.3613  0.8574  1.4793
  540MOL0     H72845   9.658   0.500   5.038  1.5018 -1.6832 -0.3555
  540MOL0     H72846   9.710   0.372   5.140  1.9429 -1.4415 -2.2799
  540MOL0     H72847   9.743   0.669   5.239 -0.7459  0.6021 -2.9149
  540MOL0     H72848   9.747   0.524   5.333 -1.7528  1.0399  0.8030
  540MOL0     H72849   9.515   0.654   5.218 -0.7754 -1.1707 -0.4514
  540MOL0     H72850   9.500   0.481   5.263 -2.0863  0.2227  1.8330
  540MOL0     H72851   9.673   0.784   5.465  2.7993 -1.9934  0.8505
  540MOL0     H72852   9.703   0.761   5.770  0.4886 -1.6762  0.1935
  540MOL0     H72853   9.612   0.895   5.706  3.1165 -0.6854  0.5969
  540MOL0     H72854   9.415   0.800   5.826 -0.5183 -1.2829  0.9023
  540MOL0     H72855   9.513   0.667   5.897  2.6619 -0.1459  2.4726
  540MOL0     H72856   9.497   0.826   6.055 -1.1803 -1.7825 -1.2492
  540MOL0     H72857   9.515   0.968   5.952 -0.5472 -0.2275  0.7648
  540MOL0     H72858   9.764   0.876   5.924  0.9762  1.5332  1.3625
  540MOL0     H72859   9.723   0.791   6.076  1.5304  1.6569  4.0221
  540MOL0     H72860   9.679   1.096   5.847 -0.2202 -2.5988  1.3875
  540MOL0     H72861   9.693   1.337   5.794 -0.0637  3.9115  1.4568
  540MOL0     H72862   9.867   1.810   5.946  3.3849  3.4253 -2.7579
  540MOL0     H72863   9.835   2.010   5.891  0.9867  0.0560 -2.1847
  540MOL0     H72864   9.524   2.233   5.778 -0.3463 -1.1152 -1.9555
  540MOL0     H72865   9.603   2.134   5.901  1.1405 -0.6330 -0.3697
  540MOL0     H72866   9.821   2.263   5.839  0.6514  0.2008 -1.4901
  540MOL0     H72867   9.714   2.370   5.741  1.4389  0.7071  0.2956
  540MOL0     H72868   9.727   2.490   5.950  0.0679 -0.3184  1.9464
  540MOL0     H72869   9.574   2.403   5.968  0.0633  0.8533 -2.2262
  540MOL0     H72870   9.845   2.327   6.082  0.9482  2.2391  0.6014
  540MOL0     H72871   9.708   2.225   6.083  0.8889  0.2377  0.3059
  540MOL0     H72872   9.757   2.511   6.213  1.2772 -0.7810 -0.4006
  540MOL0     H72873   9.771   2.369   6.293 -2.5430  0.8279  1.8367
  540MOL0     H72874   9.495   2.440   6.179 -2.3610 -0.4401  0.7796
  540MOL0     H72875   9.532   2.298   6.268 -2.3037  0.8157  0.7700
  540MOL0     H72876   9.419   2.424   6.422 -0.6245  1.8897  0.5405
  540MOL0     H72877   9.494   2.571   6.370  2.4976  0.6951  1.7769
  540MOL0     H72878   9.711   2.406   6.486 -0.0088  1.1446 -1.6592
  540MOL0     H72879   9.642   2.566   6.520 -3.9478  1.8905 -3.7218
  540MOL0     H72880   9.542   1.893   5.589 -2.5470  0.1998  1.5209
  540MOL0     H72881   9.550   1.673   5.680 -2.2504  0.8924  3.0893
  540MOL0     H72882   9.823   1.405   6.207 -1.5639  1.6638 -1.1536
  540MOL0     H72883   9.781   1.164   6.248 -1.8868 -1.1533 -1.1213
  540MOL0     H72884   9.660   0.515   4.552 -1.2156 -2.5344 -1.0240
  540MOL0     H72885   9.564   0.657   4.375 -0.1483 -1.0151 -1.7336
  540MOL0     H72886   9.632   0.759   3.920  1.1378  1.6007  1.2546
  540MOL0     H72887   9.521   0.825   3.711 -0.0387  2.3791 -0.5704
  540MOL0     H72888   9.251   0.848   3.609  0.2481 -0.5763 -1.1427
  540MOL0     H72889   9.405   0.888   3.552  0.5901  2.3104  0.9819
  540MOL0     H72890   9.240   0.958   3.376 -0.1211 -0.2888  0.1060
  540MOL0     H72891   9.276   1.118   3.442  0.6875  0.2161  0.7136
  540MOL0     H72892   9.078   1.066   3.606  0.9955  0.0219  0.9633
  540MOL0     H72893   9.036   0.928   3.506 -0.4991  1.5443 -0.7970
  540MOL0     H72894   8.910   1.149   3.454  0.4775  2.1971 -1.7901
  540MOL0     H72895   9.056   1.208   3.395  1.1131  0.4585  2.7671
  540MOL0     H72896   8.907   0.935   3.087 -0.5159  2.7465 -1.9152
  540MOL0     H72897   9.286   1.102   3.931  1.1434  1.6349 -0.9300
  540MOL0     H72898   9.402   1.051   4.259 -1.4210 -4.5951  2.9961
  540MOL0     H72899   9.277   1.117   4.145 -0.9185 -1.2658  0.1452
  540MOL0     H72900   9.278   0.948   4.213 -2.2629  1.7627 -0.2500
  541MOL0     O72901   7.199   6.678  11.001  1.0339  0.2958  0.2395
  541MOL0     C72902   7.114   6.589  10.973 -0.1937 -0.9367  0.3606
  541MOL0     O72903   7.140   6.466  10.948  0.6488  0.1307  0.0370
  541MOL0     C72904   7.259   6.444  10.897 -0.8027 -0.7241  0.1336
  541MOL0     C72905   7.304   6.478  10.761 -0.8526 -0.2309  0.4229
  541MOL0     C72906   7.435   6.441  10.713 -0.9996 -0.3382 -0.5588
  541MOL0     C72907   7.524   6.364  10.784  1.0289  0.4009 -0.2164
  541MOL0     O72908   7.641   6.329  10.725  0.1947  0.0532  0.1579
  541MOL0     C72909   7.685   6.195  10.726  0.3282 -1.1289 -0.7924
  541MOL0     C72910   7.808   6.185  10.627  1.0740 -0.1813 -0.4236
  541MOL0     C72911   7.931   6.259  10.688  0.4420  0.1351 -0.2904
  541MOL0     C72912   8.048   6.215  10.604  0.1061 -0.1451  0.2288
  541MOL0     C72913   8.041   6.272  10.461  0.7364 -0.2239 -0.3599
  541MOL0     C72914   8.183   6.290  10.402  0.7807 -0.4557  0.2103
  541MOL0     C72915   8.183   6.343  10.263  0.7382 -0.1666 -0.3598
  541MOL0     C72916   8.249   6.480  10.258  0.1301 -0.5855  0.4940
  541MOL0     N72917   8.404   6.466  10.253  1.3257  0.6295 -0.4646
  541MOL0     C72918   8.496   6.368  10.282  0.9777 -0.1878  0.6605
  541MOL0     C72919   8.616   6.424  10.273 -0.8427 -0.6436 -0.3007
  541MOL0     C72920   8.747   6.352  10.298 -1.0711 -0.9327  0.4623
  541MOL0     C72921   8.787   6.388  10.434  0.1522 -0.7418 -0.8221
  541MOL0     C72922   8.781   6.277  10.540  0.2784  0.2065 -0.8808
  541MOL0     C72923   8.637   6.222  10.589  0.3333 -0.1318  1.1160
  541MOL0     O72924   8.665   6.147  10.709  0.3316 -0.1030 -0.2481
  541MOL0     C72925   8.561   6.074  10.754 -0.3538  0.6777  0.1600
  541MOL0     C72926   8.588   5.996  10.859 -0.8304  0.1824  0.0424
  541MOL0     C72927   8.486   5.934  10.924 -0.0165 -0.5693 -0.9011
  541MOL0     C72928   8.348   5.955  10.888 -0.8643 -0.3102  0.3939
  541MOL0     C72929   8.249   5.878  10.968 -0.5109  0.0613 -0.8086
  541MOL0     O72930   8.123   5.884  10.908 -0.2080  0.5635 -0.2220
  541MOL0     C72931   8.016   5.820  10.972 -0.3053  0.3135  0.3918
  541MOL0     C72932   7.986   5.825  11.107 -0.6806 -0.0189  0.1991
  541MOL0     C72933   7.883   5.749  11.156  0.6314  0.8025 -0.0623
  541MOL0     C72934   7.782   5.689  11.076 -0.4847  0.4494  0.3439
  541MOL0     O72935   7.673   5.623  11.127  0.0409 -0.3013  0.5116
  541MOL0     C72936   7.595   5.693  11.225 -0.3455  0.2435 -0.4135
  541MOL0     C72937   7.465   5.754  11.180  0.4587 -1.0108 -0.1346
  541MOL0     C72938   7.471   5.891  11.101 -0.1363 -0.1567 -0.5321
  541MOL0     C72939   7.333   5.964  11.077 -0.2124 -0.5870  0.1799
  541MOL0     C72940   7.248   5.896  10.981  0.3323  0.2149  0.0657
  541MOL0     C72941   7.130   5.985  10.921  0.1929  0.7549  0.1572
  541MOL0     C72942   7.175   6.072  10.807 -0.5132 -0.6397 -0.4713
  541MOL0     C72943   7.056   6.115  10.723  0.3413 -0.4273 -0.2856
  541MOL0    Cl72944   6.993   5.985  10.610  0.9815  0.0929 -0.0477
  541MOL0     C72945   7.807   5.695  10.938  0.7456  0.7190  0.0046
  541MOL0     C72946   7.922   5.755  10.888 -1.1320  0.4666  0.6938
  541MOL0     O72947   8.285   5.810  11.066  0.1267 -0.2478  0.1848
  541MOL0     C72948   8.322   6.023  10.768 -0.2715  1.0960  0.6764
  541MOL0     C72949   8.431   6.084  10.705  0.2325  1.3074  0.8330
  541MOL0     N72950   8.600   6.557  10.237  0.9102  0.5751  0.4964
  541MOL0     N72951   8.477   6.576  10.227  0.8549  0.0795 -0.2815
  541MOL0     C72952   7.479   6.323  10.909  0.1689  0.5205  0.2990
  541MOL0     C72953   7.353   6.364  10.965 -0.3153  0.2883  0.8204
  541MOL0     C72954   6.969   6.621  10.986 -0.4562  0.1840  0.9468
  541MOL0     C72955   6.922   6.719  11.078 -0.0604  0.3818 -0.5061
  541MOL0     C72956   6.791   6.713  11.115 -1.3707 -0.4334 -0.3822
  541MOL0     C72957   6.696   6.639  11.043  0.0015 -0.5781 -0.0074
  541MOL0     O72958   6.562   6.625  11.076 -0.3543 -0.0482  0.7803
  541MOL0     C72959   6.524   6.703  11.189  0.7143 -0.5670 -0.3967
  541MOL0     C72960   6.383   6.675  11.215 -0.4171 -0.4797 -0.4723
  541MOL0     C72961   6.342   6.522  11.209 -0.4328  0.6134  0.5462
  541MOL0     C72962   6.191   6.502  11.195  0.2358  0.1157 -0.0554
  541MOL0     C72963   6.156   6.364  11.226 -0.3903 -0.8236  0.7393
  541MOL0     C72964   6.105   6.254  11.253 -0.3353 -0.0814 -1.3170
  541MOL0     C72965   6.745   6.567  10.937  0.4515  1.0511  1.0684
  541MOL0     C72966   6.880   6.552  10.900  0.4818  0.3896 -0.2733
  541MOL0     C72967   6.914   6.436  10.792  0.9730 -0.1197  0.6436
  541MOL0     H72968   7.234   6.533  10.699  1.7058 -1.3372 -3.7832
  541MOL0     H72969   7.475   6.484  10.622  1.3682 -2.8938 -0.8431
  541MOL0     H72970   7.718   6.170  10.828 -1.5801  2.5418  0.9436
  541MOL0     H72971   7.610   6.120  10.698  1.3138 -2.6238  0.4048
  541MOL0     H72972   7.777   6.226  10.530  1.8451  1.2288 -0.0979
  541MOL0     H72973   7.823   6.080  10.603  1.6599 -0.1839 -0.0636
  541MOL0     H72974   7.945   6.224  10.791 -0.4331  4.1343  1.4010
  541MOL0     H72975   7.907   6.366  10.690  0.2037  0.0791  0.0360
  541MOL0     H72976   8.136   6.261  10.648 -0.9584  1.9727  0.2822
  541MOL0     H72977   8.065   6.107  10.602 -2.6328 -0.6294 -1.0348
  541MOL0     H72978   7.984   6.200  10.400  1.0850 -1.0669  0.3017
  541MOL0     H72979   7.984   6.365  10.451  1.1474  0.0570 -0.1142
  541MOL0     H72980   8.217   6.361  10.478 -1.7110 -1.1687  2.1480
  541MOL0     H72981   8.253   6.206  10.400  4.2253  2.1660 -2.2720
  541MOL0     H72982   8.084   6.341  10.217  0.6118 -0.4938 -0.0765
  541MOL0     H72983   8.239   6.282  10.190  1.5364  1.9238 -1.5987
  541MOL0     H72984   8.231   6.519  10.157  1.8417 -2.6285 -0.7137
  541MOL0     H72985   8.225   6.557  10.332  2.7984 -1.6663  2.6740
  541MOL0     H72986   8.469   6.265  10.303 -1.2451 -0.8946 -4.3003
  541MOL0     H72987   8.748   6.243  10.299  1.3156 -1.0078 -1.2730
  541MOL0     H72988   8.818   6.392  10.226  0.2796 -1.1705  1.6194
  541MOL0     H72989   8.887   6.432  10.433  0.1481 -0.7197 -0.4297
  541MOL0     H72990   8.725   6.465  10.481 -3.0015 -3.0805 -0.8254
  541MOL0     H72991   8.841   6.310  10.626 -1.2474  1.2310 -0.1693
  541MOL0     H72992   8.837   6.195  10.494 -1.0237 -1.1168 -0.1425
  541MOL0     H72993   8.591   6.147  10.523  2.6278 -1.5374  0.9875
  541MOL0     H72994   8.583   6.308  10.628 -2.9965 -2.6810  2.6513
  541MOL0     H72995   8.689   5.987  10.899 -1.6045 -2.4740  1.6090
  541MOL0     H72996   8.499   5.890  11.022 -0.2353 -1.4059 -1.2387
  541MOL0     H72997   8.049   5.879  11.178 -0.9103  0.6766 -0.1149
  541MOL0     H72998   7.868   5.753  11.264 -0.1642 -0.0201 -0.1309
  541MOL0     H72999   7.551   5.619  11.291 -1.2292  2.3829  1.5451
  541MOL0     H73000   7.647   5.770  11.284 -2.9653  1.4037  0.5177
  541MOL0     H73001   7.400   5.681  11.130  2.0953 -2.0464 -0.8397
  541MOL0     H73002   7.413   5.782  11.272 -0.6496 -1.0629 -0.7266
  541MOL0     H73003   7.530   5.958  11.165 -1.7433 -0.1461  1.0108
  541MOL0     H73004   7.525   5.885  11.006  1.4611  5.0308 -0.2935
  541MOL0     H73005   7.353   6.058  11.024  2.2496 -1.3306 -0.3471
  541MOL0     H73006   7.286   5.971  11.176 -1.9281 -0.0331 -0.6293
  541MOL0     H73007   7.199   5.818  11.039  1.2719 -0.4917 -0.0554
  541MOL0     H73008   7.304   5.842  10.903  2.5180 -1.7970  2.8194
  541MOL0     H73009   7.052   5.921  10.879  2.3980 -1.1989 -1.1824
  541MOL0     H73010   7.092   6.050  11.001  2.7053  1.0869  1.1732
  541MOL0     H73011   7.239   6.016  10.737 -0.3283 -0.4384 -0.4631
  541MOL0     H73012   7.220   6.165  10.841 -2.3148 -0.6071  2.0807
  541MOL0     H73013   6.977   6.144  10.793  1.9682  0.9604  1.0498
  541MOL0     H73014   7.081   6.203  10.663  0.3130 -0.1781  0.0696
  541MOL0     H73015   7.742   5.653  10.862  2.3899  0.4305 -1.2947
  541MOL0     H73016   7.937   5.760  10.781 -4.1999  1.9902  0.2256
  541MOL0     H73017   8.228   6.037  10.716  0.7907  1.0413 -1.3391
  541MOL0     H73018   8.407   6.151  10.623  1.6922 -2.9227 -3.5447
  541MOL0     H73019   7.550   6.273  10.974  0.0257  2.5553  2.1094
  541MOL0     H73020   7.340   6.338  11.070 -0.7586  1.3649  1.0478
  541MOL0     H73021   6.994   6.778  11.135 -0.6154  0.3474  0.2444
  541MOL0     H73022   6.775   6.778  11.200  0.2537  1.3672 -1.3729
  541MOL0     H73023   6.548   6.810  11.180 -1.1920 -0.0914 -0.3841
  541MOL0     H73024   6.584   6.676  11.276  1.5021  3.5151  0.5257
  541MOL0     H73025   6.313   6.727  11.149 -1.2895  1.3061  1.7246
  541MOL0     H73026   6.369   6.711  11.317  2.1174 -0.6142 -0.0002
  541MOL0     H73027   6.377   6.485  11.306 -1.8283  0.4704  1.0140
  541MOL0     H73028   6.392   6.469  11.128 -1.6003 -0.9978  0.8313
  541MOL0     H73029   6.127   6.571  11.251  2.1918  1.6474  0.3790
  541MOL0     H73030   6.164   6.520  11.090  1.0398  1.7992 -0.0086
  541MOL0     H73031   6.081   6.153  11.279  1.8044 -0.0921  0.8767
  541MOL0     H73032   6.672   6.510  10.880  0.8594  1.0420  0.5479
  541MOL0     H73033   7.014   6.429  10.748  0.4331  2.3617 -1.2233
  541MOL0     H73034   6.875   6.344  10.835 -0.5657  0.7870  1.2753
  541MOL0     H73035   6.858   6.454  10.700 -0.7197 -2.0419  1.2361
  542MOL0     O73036   1.641   0.508   6.572 -0.0119 -0.6697  0.1266
  542MOL0     C73037   1.690   0.441   6.486  0.8379  0.8971 -0.4908
  542MOL0     O73038   1.617   0.385   6.388  0.5208  0.3792 -1.1564
  542MOL0     C73039   1.488   0.433   6.353  0.7040  0.0674  0.6225
  542MOL0     C73040   1.420   0.558   6.376 -0.8775 -0.1480  0.4612
  542MOL0     C73041   1.296   0.589   6.321 -0.0402 -0.8591 -0.2383
  542MOL0     C73042   1.234   0.503   6.234 -0.6375  0.6154 -0.3121
  542MOL0     O73043   1.109   0.537   6.174 -0.5230 -0.2669 -0.0194
  542MOL0     C73044   1.068   0.484   6.044 -0.3768 -0.1823  0.1074
  542MOL0     C73045   0.916   0.502   6.032  1.0163  0.2493  0.3028
  542MOL0     C73046   0.873   0.441   5.912 -0.7121  0.1676  1.3160
  542MOL0     C73047   0.717   0.418   5.923 -0.1076 -0.6281 -0.1395
  542MOL0     C73048   0.667   0.357   5.787  0.2903  0.4724 -0.2473
  542MOL0     C73049   0.507   0.357   5.785 -0.4698 -0.8172  0.6809
  542MOL0     C73050   0.456   0.267   5.674  0.3709 -0.7250 -0.6319
  542MOL0     C73051   0.422   0.127   5.735 -0.1653 -0.6095 -0.0498
  542MOL0     N73052   0.385   0.033   5.626  0.9447  0.2316 -0.7143
  542MOL0     C73053   0.265  -0.036   5.600 -0.6164 -0.0417  0.2404
  542MOL0     C73054   0.272  -0.093   5.475 -0.2933  0.2451  0.3121
  542MOL0     C73055   0.179  -0.171   5.395 -0.2997  0.7624  0.8001
  542MOL0     C73056   0.163  -0.117   5.252  1.3055 -0.0458  0.3636
  542MOL0     C73057   0.085   0.025   5.243 -0.4835  0.3335  0.8457
  542MOL0     C73058   0.029   0.049   5.101 -0.3842  0.3129 -0.1272
  542MOL0     O73059  -0.067  -0.048   5.058 -0.6881 -0.3878  0.0430
  542MOL0     C73060  -0.123  -0.042   4.930 -0.2672 -0.1244  0.3345
  542MOL0     C73061  -0.188  -0.158   4.875 -0.4360 -0.6538 -0.0970
  542MOL0     C73062  -0.247  -0.168   4.746 -0.4644  0.1542 -0.0788
  542MOL0     C73063  -0.257  -0.047   4.676 -0.1945 -0.1776  0.0972
  542MOL0     C73064  -0.320  -0.035   4.544 -0.9294  0.0435 -0.0024
  542MOL0     O73065  -0.431  -0.113   4.524  0.1598 -0.8081  0.0978
  542MOL0     C73066  -0.486  -0.116   4.398  0.0560  0.3261  0.1055
  542MOL0     C73067  -0.557  -0.012   4.343  0.1182  1.1069  0.0590
  542MOL0     C73068  -0.594  -0.004   4.211 -0.0897 -0.1334  0.0491
  542MOL0     C73069  -0.570  -0.120   4.128 -0.0745 -0.8796  0.3111
  542MOL0     O73070  -0.618  -0.132   4.005 -0.5048 -0.7373  0.6845
  542MOL0     C73071  -0.591  -0.034   3.903  0.5632 -0.5566  0.5437
  542MOL0     C73072  -0.564  -0.120   3.768  0.1811 -0.3200 -0.1844
  542MOL0     C73073  -0.679  -0.215   3.731 -0.0572 -0.4969  0.2890
  542MOL0     C73074  -0.671  -0.299   3.601 -0.2377 -0.7914  0.1605
  542MOL0     C73075  -0.802  -0.381   3.582  0.7019  0.3924  0.1097
  542MOL0     C73076  -0.805  -0.466   3.459 -0.7729 -0.1969 -0.2954
  542MOL0     C73077  -0.906  -0.583   3.468  0.2466  0.9840  1.0350
  542MOL0     C73078  -0.935  -0.632   3.319 -0.7571  0.2069  0.0844
  542MOL0    Cl73079  -1.036  -0.785   3.316 -0.5171  0.7062  0.0707
  542MOL0     C73080  -0.503  -0.226   4.185 -1.2314 -1.0889  0.3846
  542MOL0     C73081  -0.465  -0.222   4.317 -0.7647  1.3131 -0.3466
  542MOL0     O73082  -0.267   0.037   4.461 -0.4552  0.7054  0.4324
  542MOL0     C73083  -0.195   0.069   4.730  0.9019 -0.4044  0.8461
  542MOL0     C73084  -0.125   0.076   4.856  0.2278  0.5025  0.2760
  542MOL0     N73085   0.406  -0.067   5.435  0.6796  0.1872  0.1733
  542MOL0     N73086   0.466   0.004   5.521 -0.4850 -0.5474 -0.5833
  542MOL0     C73087   1.294   0.376   6.214  0.4867  0.3898 -1.0427
  542MOL0     C73088   1.416   0.344   6.271  0.1524 -0.6617  0.2954
  542MOL0     C73089   1.838   0.420   6.490  0.1067  0.2457 -1.1535
  542MOL0     C73090   1.904   0.420   6.362 -0.8445 -0.4136 -0.3955
  542MOL0     C73091   2.046   0.437   6.364  0.9294  0.9528 -0.3012
  542MOL0     C73092   2.119   0.456   6.475 -0.0688  1.1389  0.1086
  542MOL0     O73093   2.256   0.460   6.462 -0.7479  0.0786  0.6423
  542MOL0     C73094   2.336   0.391   6.559  0.2757 -0.4761  0.5085
  542MOL0     C73095   2.483   0.439   6.566 -0.4933 -0.6785 -0.7208
  542MOL0     C73096   2.489   0.575   6.649  0.0394 -0.3472  0.5298
  542MOL0     C73097   2.487   0.699   6.569  0.7247 -0.1580 -0.2765
  542MOL0     C73098   2.514   0.812   6.648 -0.1675 -0.5612  0.5638
  542MOL0     C73099   2.547   0.908   6.718 -1.0337 -0.4169  0.1397
  542MOL0     C73100   2.051   0.462   6.597 -0.7310  0.7680  0.0857
  542MOL0     C73101   1.915   0.436   6.610  0.3087 -0.6402  0.8586
  542MOL0     C73102   1.854   0.423   6.752 -0.1347  0.5102 -0.4497
  542MOL0     H73103   1.487   0.625   6.429 -1.6728 -0.4651  1.8928
  542MOL0     H73104   1.247   0.684   6.337 -2.7525 -1.8756 -1.8241
  542MOL0     H73105   1.118   0.531   5.959 -2.1377 -0.2616 -1.0285
  542MOL0     H73106   1.098   0.379   6.044  1.2643 -0.0824  5.7442
  542MOL0     H73107   0.886   0.607   6.027 -0.8886 -0.1656  1.9232
  542MOL0     H73108   0.875   0.453   6.120 -2.4004  0.3905 -1.0733
  542MOL0     H73109   0.922   0.346   5.891 -0.9480  0.1673  0.7472
  542MOL0     H73110   0.893   0.498   5.821  0.0739 -1.7395  0.2483
  542MOL0     H73111   0.692   0.367   6.016 -1.7320  3.7052  2.0816
  542MOL0     H73112   0.672   0.517   5.928  1.7429  0.2249  0.6140
  542MOL0     H73113   0.714   0.409   5.703 -0.4864  1.5133 -0.0527
  542MOL0     H73114   0.702   0.253   5.787 -1.4014 -0.1529  1.0177
  542MOL0     H73115   0.458   0.321   5.876 -0.5988 -2.8209 -0.1080
  542MOL0     H73116   0.480   0.459   5.758 -1.4495 -1.3914 -0.6351
  542MOL0     H73117   0.542   0.257   5.607  1.6432  1.2146  0.6147
  542MOL0     H73118   0.362   0.305   5.633 -1.4946 -0.8079  3.1361
  542MOL0     H73119   0.492   0.083   5.807 -2.1849  0.5842  2.8542
  542MOL0     H73120   0.339   0.151   5.802  0.5061 -1.9300  1.3152
  542MOL0     H73121   0.179  -0.038   5.665  0.6813 -1.0204  1.9922
  542MOL0     H73122   0.215  -0.274   5.398 -0.2871  0.7683  3.7540
  542MOL0     H73123   0.079  -0.175   5.439 -1.0454  1.2021 -0.7669
  542MOL0     H73124   0.256  -0.112   5.193  0.2233  0.0386 -1.4137
  542MOL0     H73125   0.096  -0.185   5.198  0.9291  0.6794 -0.0988
  542MOL0     H73126   0.140   0.107   5.289  1.2160 -1.9324  3.1771
  542MOL0     H73127  -0.016   0.027   5.287 -0.9516  0.3145 -0.2059
  542MOL0     H73128   0.112   0.059   5.030  0.8486  1.6245  1.4201
  542MOL0     H73129  -0.011   0.151   5.102 -2.0391 -0.2703  2.2641
  542MOL0     H73130  -0.183  -0.242   4.943  2.1314 -0.9263 -0.5255
  542MOL0     H73131  -0.287  -0.258   4.702  2.2347 -0.2080 -2.1100
  542MOL0     H73132  -0.564   0.076   4.406 -1.3821 -0.0939  1.6563
  542MOL0     H73133  -0.646   0.089   4.192 -1.0426  0.2496  3.7209
  542MOL0     H73134  -0.681   0.022   3.879 -0.7979 -2.5528  0.7458
  542MOL0     H73135  -0.504   0.028   3.927 -2.0125  3.6122  0.0853
  542MOL0     H73136  -0.543  -0.058   3.680  0.9449  1.2072  1.0162
  542MOL0     H73137  -0.485  -0.196   3.775 -0.0320 -0.4435  1.1123
  542MOL0     H73138  -0.705  -0.284   3.811  1.6746  0.0699  1.4057
  542MOL0     H73139  -0.768  -0.152   3.721  0.1552 -0.4297 -1.7350
  542MOL0     H73140  -0.585  -0.363   3.624  1.6878  1.1492 -1.2513
  542MOL0     H73141  -0.645  -0.238   3.514  0.8478 -1.0408  0.2895
  542MOL0     H73142  -0.892  -0.320   3.569  0.1321 -0.5983 -0.7879
  542MOL0     H73143  -0.825  -0.442   3.670  0.1450  2.7021  1.6382
  542MOL0     H73144  -0.835  -0.400   3.377 -2.2894  0.5043  0.7686
  542MOL0     H73145  -0.706  -0.512   3.447  0.6166  2.7422 -0.7980
  542MOL0     H73146  -0.998  -0.545   3.514 -1.5207  0.8586 -2.0949
  542MOL0     H73147  -0.869  -0.661   3.535  0.1478 -1.1328 -1.2439
  542MOL0     H73148  -0.981  -0.556   3.256  1.8875  2.0276  0.1851
  542MOL0     H73149  -0.836  -0.661   3.282 -0.5624 -1.5713  1.8060
  542MOL0     H73150  -0.488  -0.313   4.123 -1.1177 -1.0730  0.3908
  542MOL0     H73151  -0.423  -0.306   4.370 -2.1645  0.8024 -0.0087
  542MOL0     H73152  -0.199   0.160   4.671  2.9038 -1.8510 -1.7617
  542MOL0     H73153  -0.078   0.172   4.874  1.1028  0.1205  0.1169
  542MOL0     H73154   1.253   0.292   6.160 -0.7032 -0.0117  0.4213
  542MOL0     H73155   1.464   0.248   6.255  1.6469 -0.7050  3.9729
  542MOL0     H73156   1.852   0.405   6.269  0.1784  0.3344 -1.1168
  542MOL0     H73157   2.102   0.420   6.273  1.3907  2.2409 -0.2879
  542MOL0     H73158   2.330   0.290   6.518 -1.7552  0.2532 -1.1793
  542MOL0     H73159   2.282   0.391   6.655 -0.6770  0.2328 -0.0072
  542MOL0     H73160   2.522   0.445   6.464 -1.7121 -0.0802 -1.1725
  542MOL0     H73161   2.543   0.360   6.614 -0.0282  0.0337 -0.0982
  542MOL0     H73162   2.583   0.573   6.705  0.6216 -1.6013 -0.4464
  542MOL0     H73163   2.413   0.574   6.728  3.2734  2.4125  4.0409
  542MOL0     H73164   2.553   0.707   6.482  1.2480 -1.6755 -0.0418
  542MOL0     H73165   2.391   0.714   6.519 -2.0422 -1.2670  4.1254
  542MOL0     H73166   2.582   0.987   6.782 -2.5975  3.9028 -3.7472
  542MOL0     H73167   2.110   0.485   6.685  1.2111  1.0380 -1.2298
  542MOL0     H73168   1.794   0.332   6.755  0.0382  0.4134  0.0761
  542MOL0     H73169   1.930   0.410   6.829 -1.9139 -2.9334  0.9144
  542MOL0     H73170   1.788   0.509   6.768 -2.8765 -1.2754 -1.3500
  543MOL0     O73171   9.175  10.375   0.568 -0.3852  0.0736 -0.3170
  543MOL0     C73172   9.258  10.290   0.534  0.9083 -0.1453 -0.5722
  543MOL0     O73173   9.286  10.249   0.409  0.0725 -0.6092  0.0148
  543MOL0     C73174   9.193  10.295   0.323 -0.2541 -0.2186  0.3126
  543MOL0     C73175   9.249  10.376   0.219 -0.7279  0.7201 -0.2042
  543MOL0     C73176   9.164  10.443   0.130 -0.5109 -0.1218  0.0566
  543MOL0     C73177   9.030  10.412   0.140  0.1315 -0.3994 -0.0841
  543MOL0     O73178   8.949  10.468   0.040  0.2502  0.3912  1.1208
  543MOL0     C73179   8.923  10.613   0.054  1.1253  0.2390  0.0303
  543MOL0     C73180   8.818  10.642   0.158  0.1880 -0.2562 -0.6536
  543MOL0     C73181   8.787  10.788   0.158  0.3749  0.0689 -0.2432
  543MOL0     C73182   8.695  10.820   0.034 -0.6464  0.0344 -0.3254
  543MOL0     C73183   8.724  10.961  -0.019 -0.1497 -0.1195 -0.2779
  543MOL0     C73184   8.664  11.006  -0.147 -0.1420  0.5016  0.2401
  543MOL0     C73185   8.652  11.154  -0.158 -0.1387  0.8353  0.2592
  543MOL0     C73186   8.594  11.189  -0.294  0.4431  0.1239 -0.1197
  543MOL0     N73187   8.597  11.336  -0.315 -0.5251 -0.1340 -0.5010
  543MOL0     C73188   8.638  11.403  -0.420  0.5435 -0.2378  0.7071
  543MOL0     C73189   8.623  11.539  -0.397  0.2055 -0.6966  0.9463
  543MOL0     C73190   8.656  11.654  -0.486 -0.0060 -0.5225  0.7994
  543MOL0     C73191   8.729  11.757  -0.402  0.6102 -0.5124 -0.3904
  543MOL0     C73192   8.750  11.892  -0.475  0.2660  0.0093  1.0128
  543MOL0     C73193   8.610  11.958  -0.502 -0.2552  1.3042  0.0806
  543MOL0     O73194   8.626  12.085  -0.561 -0.3026  0.0925 -0.6874
  543MOL0     C73195   8.597  12.190  -0.471 -0.6756 -0.4287 -0.6723
  543MOL0     C73196   8.642  12.200  -0.337  0.0038  0.5530  0.5939
  543MOL0     C73197   8.639  12.311  -0.265 -0.3366 -0.1067  0.3758
  543MOL0     C73198   8.563  12.427  -0.318 -0.5026 -0.0995  0.6564
  543MOL0     C73199   8.555  12.542  -0.230  0.5337 -0.4203  0.0643
  543MOL0     O73200   8.436  12.617  -0.242  0.0891 -0.7702 -0.6374
  543MOL0     C73201   8.409  12.716  -0.145  0.5255 -0.1402 -0.1563
  543MOL0     C73202   8.347  12.830  -0.189 -0.4447 -0.0315 -0.1400
  543MOL0     C73203   8.339  12.943  -0.112  0.4723 -0.1547 -0.7080
  543MOL0     C73204   8.380  12.940   0.017  0.5093  0.8934 -0.0067
  543MOL0     O73205   8.379  13.057   0.093 -0.2405  0.4391  0.5093
  543MOL0     C73206   8.259  13.121   0.110  0.1396  0.4752 -0.2167
  543MOL0     C73207   8.296  13.263   0.159  1.1000  0.0809  1.1769
  543MOL0     C73208   8.337  13.255   0.307  0.7489  1.1430 -0.4959
  543MOL0     C73209   8.392  13.405   0.327  0.1782 -0.7048 -0.3184
  543MOL0     C73210   8.484  13.424   0.455 -0.3595 -1.1188 -0.1177
  543MOL0     C73211   8.435  13.372   0.589  0.1852 -1.0475 -0.3989
  543MOL0     C73212   8.529  13.381   0.703  0.3661  1.0773  0.5139
  543MOL0     C73213   8.589  13.518   0.753 -0.9090  0.8033 -0.3844
  543MOL0    Cl73214   8.465  13.630   0.819 -0.0380  0.3015 -0.1735
  543MOL0     C73215   8.433  12.824   0.069 -0.4597  0.0197  0.4738
  543MOL0     C73216   8.449  12.710  -0.008 -0.6420  0.1153  0.1687
  543MOL0     O73217   8.654  12.568  -0.162  0.0526 -0.3694  1.1688
  543MOL0     C73218   8.510  12.415  -0.453  0.4527 -0.6581 -0.1755
  543MOL0     C73219   8.521  12.295  -0.528 -0.2601  0.7513 -0.4288
  543MOL0     N73220   8.565  11.549  -0.276 -0.0835  0.2233 -0.0706
  543MOL0     N73221   8.548  11.429  -0.225 -0.4785 -0.2383 -0.2779
  543MOL0     C73222   8.980  10.321   0.229 -0.0363 -0.4471 -0.4347
  543MOL0     C73223   9.062  10.264   0.330  0.4565  0.0242 -0.1283
  543MOL0     C73224   9.332  10.220   0.642  0.0972 -0.3038  0.3413
  543MOL0     C73225   9.375  10.088   0.609  0.8721  0.2517  0.3460
  543MOL0     C73226   9.432  10.011   0.700  0.1167  0.6201 -0.5140
  543MOL0     C73227   9.457  10.048   0.829  0.0947  0.0200 -0.7838
  543MOL0     O73228   9.533   9.967   0.904  0.3179  0.0476 -0.5630
  543MOL0     C73229   9.592   9.993   1.036 -0.3079  0.1475 -0.6703
  543MOL0     C73230   9.476  10.004   1.143 -0.7546  0.5978  0.9608
  543MOL0     C73231   9.374   9.891   1.129 -0.0681 -1.1740  0.0220
  543MOL0     C73232   9.267   9.892   1.239 -0.1539 -0.0388  0.5724
  543MOL0     C73233   9.316   9.876   1.377 -0.2127 -0.0561 -0.2436
  543MOL0     C73234   9.377   9.852   1.481 -0.4360  0.0562  0.3867
  543MOL0     C73235   9.435  10.181   0.859 -0.1988  0.2969 -0.4495
  543MOL0     C73236   9.370  10.268   0.771 -0.3602 -0.4442 -0.5598
  543MOL0     C73237   9.349  10.409   0.800 -0.0446  0.3948 -1.0229
  543MOL0     H73238   9.353  10.407   0.214 -0.5479  0.2795  0.5565
  543MOL0     H73239   9.198  10.512   0.054  0.9395  0.7847  1.4574
  543MOL0     H73240   9.010  10.672   0.081  3.2418 -2.1528 -1.1242
  543MOL0     H73241   8.889  10.647  -0.044  0.5958  0.0055  0.1237
  543MOL0     H73242   8.862  10.622   0.256  1.1116  0.6394 -0.8687
  543MOL0     H73243   8.724  10.585   0.152  0.4703 -1.1570  2.0003
  543MOL0     H73244   8.876  10.851   0.162 -2.1951  4.0379  0.0006
  543MOL0     H73245   8.733  10.801   0.252 -0.6813  0.0141 -0.8335
  543MOL0     H73246   8.715  10.748  -0.046 -0.8480 -0.4627  0.0705
  543MOL0     H73247   8.588  10.820   0.055 -1.2651  1.4291 -2.9540
  543MOL0     H73248   8.691  11.023   0.065  1.4141 -2.1517  1.9832
  543MOL0     H73249   8.830  10.985  -0.028 -0.2418  0.4146  0.0472
  543MOL0     H73250   8.736  10.979  -0.225 -1.0526  0.1933 -0.5043
  543MOL0     H73251   8.565  10.964  -0.168 -1.1268  3.1729 -0.8298
  543MOL0     H73252   8.746  11.205  -0.133  1.3259 -1.5318 -0.1243
  543MOL0     H73253   8.571  11.175  -0.087  0.2127  0.8606  0.6589
  543MOL0     H73254   8.657  11.140  -0.369 -0.0642 -2.7331  1.1846
  543MOL0     H73255   8.490  11.157  -0.308  1.4898 -3.4989 -0.7768
  543MOL0     H73256   8.678  11.352  -0.507 -0.4149  0.7043 -0.3147
  543MOL0     H73257   8.721  11.624  -0.569 -2.3969 -1.7701 -0.7253
  543MOL0     H73258   8.565  11.690  -0.533  0.2116  1.4055  1.7415
  543MOL0     H73259   8.666  11.780  -0.315  2.7467  0.0272  1.0780
  543MOL0     H73260   8.824  11.711  -0.376  2.6429  4.9854  3.9053
  543MOL0     H73261   8.801  11.880  -0.571  0.2625  1.0544  0.8745
  543MOL0     H73262   8.812  11.958  -0.414  1.6042  1.2806 -1.5897
  543MOL0     H73263   8.559  11.962  -0.405  0.9384  0.0687  0.7936
  543MOL0     H73264   8.554  11.888  -0.566  0.3720  0.4755  0.4222
  543MOL0     H73265   8.695  12.114  -0.298  0.3291  0.0620 -0.8492
  543MOL0     H73266   8.680  12.315  -0.165 -0.4266 -0.9987  0.4570
  543MOL0     H73267   8.316  12.833  -0.292 -1.4887 -1.5994  0.0907
  543MOL0     H73268   8.289  13.031  -0.149 -4.3158 -2.8745 -1.6011
  543MOL0     H73269   8.201  13.138   0.019 -2.1669  0.5257  1.1989
  543MOL0     H73270   8.203  13.061   0.182  1.1618  0.3762  0.5247
  543MOL0     H73271   8.380  13.300   0.101  0.6895 -1.5337 -0.5463
  543MOL0     H73272   8.212  13.330   0.143 -1.2550 -2.8276  0.4014
  543MOL0     H73273   8.253  13.235   0.374  1.3198 -0.3025 -0.1836
  543MOL0     H73274   8.424  13.193   0.329 -0.4469 -0.0083  1.2442
  543MOL0     H73275   8.309  13.475   0.331 -0.1990 -1.1353 -0.5746
  543MOL0     H73276   8.443  13.442   0.237  0.9141 -3.0987 -0.9781
  543MOL0     H73277   8.507  13.529   0.472  0.3491 -0.6902 -3.1219
  543MOL0     H73278   8.573  13.362   0.443 -1.3849 -2.6397 -0.2976
  543MOL0     H73279   8.340  13.412   0.626  0.5173  2.4693 -2.8382
  543MOL0     H73280   8.421  13.264   0.577  2.1933 -1.3239 -0.5734
  543MOL0     H73281   8.609  13.310   0.677 -0.9901  0.0077 -0.9772
  543MOL0     H73282   8.472  13.339   0.786 -1.1523  0.5985 -0.7149
  543MOL0     H73283   8.649  13.487   0.839  0.4349  0.6215 -1.3535
  543MOL0     H73284   8.651  13.567   0.677  0.6570  0.3112  0.5257
  543MOL0     H73285   8.483  12.826   0.165  2.1847 -0.3586 -0.8020
  543MOL0     H73286   8.496  12.623   0.034  1.1780 -0.0305 -1.9995
  543MOL0     H73287   8.460  12.500  -0.498  0.0938 -2.2383 -2.9434
  543MOL0     H73288   8.477  12.304  -0.628 -2.7212 -0.3123  0.4710
  543MOL0     H73289   8.873  10.301   0.236  0.3478 -2.5265  0.2528
  543MOL0     H73290   9.018  10.197   0.403 -2.3968  2.5119  0.6323
  543MOL0     H73291   9.365  10.034   0.515  0.9690 -0.2812  0.6365
  543MOL0     H73292   9.468   9.912   0.673 -2.3558 -0.1502 -1.2018
  543MOL0     H73293   9.635  10.094   1.043  1.8224 -0.7845  0.9055
  543MOL0     H73294   9.673   9.925   1.062 -0.6388 -1.5062 -3.5069
  543MOL0     H73295   9.416  10.096   1.146  0.0384  1.1143  1.5028
  543MOL0     H73296   9.531  10.001   1.238  0.7664  1.5983  0.1434
  543MOL0     H73297   9.420   9.792   1.135 -0.8812 -1.4780  2.4433
  543MOL0     H73298   9.329   9.889   1.030  0.3987  1.7667 -0.3448
  543MOL0     H73299   9.209   9.984   1.228  1.1401  0.9085  1.4231
  543MOL0     H73300   9.198   9.809   1.222 -0.5245  0.4721 -0.4717
  543MOL0     H73301   9.404   9.814   1.577  0.0714 -2.3009 -0.6361
  543MOL0     H73302   9.480  10.222   0.948 -1.4915 -0.9534  0.8218
  543MOL0     H73303   9.408  10.446   0.885 -1.6981 -0.0608  0.3842
  543MOL0     H73304   9.389  10.467   0.716  0.2028  0.0922 -1.1140
  543MOL0     H73305   9.243  10.429   0.820 -0.4819 -3.2910  1.2153
  544MOL0     O73306   2.042   4.109   7.508  0.4460  0.2868 -0.6897
  544MOL0     C73307   1.990   4.168   7.415 -0.7658 -0.1168  0.1137
  544MOL0     O73308   1.854   4.201   7.402  0.3465 -0.1779 -0.3110
  544MOL0     C73309   1.779   4.171   7.509 -0.1077  1.6903 -0.2870
  544MOL0     C73310   1.720   4.048   7.509 -0.0291  0.1002 -0.4916
  544MOL0     C73311   1.626   4.013   7.606 -0.3570 -0.3602 -1.1084
  544MOL0     C73312   1.596   4.099   7.713  0.4297 -0.2640  0.4371
  544MOL0     O73313   1.515   4.056   7.813  0.7435  0.6412 -0.3548
  544MOL0     C73314   1.559   4.088   7.945  1.5117 -0.7116  0.4090
  544MOL0     C73315   1.478   4.211   7.997  1.1162 -1.2006 -0.3631
  544MOL0     C73316   1.513   4.214   8.155  0.1277 -0.1742  0.1226
  544MOL0     C73317   1.428   4.328   8.224  0.2419 -0.1388  0.3208
  544MOL0     C73318   1.282   4.306   8.225  0.5963 -0.3895  2.0033
  544MOL0     C73319   1.207   4.349   8.357 -1.1259 -0.0317  0.1150
  544MOL0     C73320   1.071   4.293   8.375 -0.4613  1.4231 -0.1217
  544MOL0     C73321   1.001   4.340   8.498 -0.1822 -0.6494 -0.3066
  544MOL0     N73322   1.075   4.315   8.627  0.1685 -1.0126 -0.1127
  544MOL0     C73323   1.160   4.402   8.688 -0.0151 -0.8414 -0.5875
  544MOL0     C73324   1.170   4.367   8.814 -0.1013 -1.5679 -0.3470
  544MOL0     C73325   1.261   4.423   8.919  1.5583  0.7152 -0.0163
  544MOL0     C73326   1.216   4.566   8.953  0.5776  0.9940  0.3256
  544MOL0     C73327   1.298   4.645   9.062 -0.0724 -0.6684  0.1203
  544MOL0     C73328   1.448   4.656   9.023  0.5204 -0.0818  0.3745
  544MOL0     O73329   1.519   4.744   9.110  0.0142  0.7144  0.2845
  544MOL0     C73330   1.658   4.759   9.084  0.8363 -0.1568  0.3163
  544MOL0     C73331   1.731   4.723   8.965 -0.4757 -0.1835  0.3405
  544MOL0     C73332   1.872   4.728   8.952 -1.1045 -0.3803 -0.0284
  544MOL0     C73333   1.943   4.783   9.064 -0.4184  0.6124  0.0501
  544MOL0     C73334   2.088   4.783   9.064 -0.2314  0.3172  0.1795
  544MOL0     O73335   2.159   4.809   9.178  0.7681 -0.4228  0.4789
  544MOL0     C73336   2.285   4.831   9.165  0.1601  0.5437  0.4353
  544MOL0     C73337   2.322   4.960   9.127 -0.1773  0.6583 -0.8240
  544MOL0     C73338   2.459   4.987   9.107  0.3545 -0.5217  0.3017
  544MOL0     C73339   2.546   4.899   9.140  0.6531  0.6614 -1.0204
  544MOL0     O73340   2.677   4.936   9.123 -0.3225 -0.0923  0.8317
  544MOL0     C73341   2.778   4.849   9.165 -0.0482  1.0253 -0.2189
  544MOL0     C73342   2.921   4.904   9.167 -0.5387  0.7564 -0.3393
  544MOL0     C73343   3.034   4.795   9.191 -0.8185  0.7740  0.3280
  544MOL0     C73344   3.129   4.845   9.296 -0.2526  0.3273 -0.1987
  544MOL0     C73345   3.225   4.730   9.347  0.8580 -0.3448  0.8125
  544MOL0     C73346   3.320   4.689   9.232  0.0961 -0.8367 -0.9169
  544MOL0     C73347   3.459   4.642   9.279 -0.1915  0.5092 -0.5123
  544MOL0     C73348   3.545   4.734   9.357  0.2002 -0.1273 -0.2350
  544MOL0    Cl73349   3.599   4.866   9.261 -0.1638  0.0907 -0.3403
  544MOL0     C73350   2.515   4.770   9.194  0.8539  0.2520  0.4382
  544MOL0     C73351   2.379   4.738   9.216 -0.0952 -0.1157  0.0841
  544MOL0     O73352   2.136   4.781   8.952 -0.7235 -0.1078  0.3923
  544MOL0     C73353   1.871   4.828   9.177  0.5838  0.0735 -0.3749
  544MOL0     C73354   1.731   4.799   9.192  0.1892  0.2500  0.0335
  544MOL0     N73355   1.084   4.259   8.836 -0.2433 -0.1837 -0.2132
  544MOL0     N73356   1.026   4.241   8.723  0.1947  0.6188 -0.0296
  544MOL0     C73357   1.661   4.228   7.714 -0.2814 -0.0707  0.3576
  544MOL0     C73358   1.757   4.259   7.608 -0.2366  0.1948 -0.5307
  544MOL0     C73359   2.063   4.207   7.294  0.4525  0.0906 -0.4374
  544MOL0     C73360   2.047   4.349   7.266  0.4979 -0.7173 -0.5585
  544MOL0     C73361   2.098   4.398   7.144  0.4028 -0.6153 -0.9207
  544MOL0     C73362   2.193   4.324   7.071  0.3405  0.2157 -0.3449
  544MOL0     O73363   2.240   4.369   6.951  0.3106  0.2540  0.2841
  544MOL0     C73364   2.296   4.502   6.953 -0.0435  0.6947 -0.3279
  544MOL0     C73365   2.438   4.520   6.877 -0.0150  0.5571 -0.4220
  544MOL0     C73366   2.435   4.648   6.796 -0.1097 -0.1679  0.9352
  544MOL0     C73367   2.344   4.648   6.671  0.2061  0.5204 -1.0233
  544MOL0     C73368   2.378   4.538   6.578  0.2607 -1.3749  0.4569
  544MOL0     C73369   2.403   4.443   6.499  0.2780 -0.0382  0.1975
  544MOL0     C73370   2.216   4.193   7.102 -0.4995  0.0023  0.4045
  544MOL0     C73371   2.157   4.132   7.221 -0.1555  0.5631  0.3510
  544MOL0     C73372   2.176   3.989   7.251 -0.5223  0.5183  0.1201
  544MOL0     H73373   1.744   3.975   7.431 -1.1695  0.0090 -0.7805
  544MOL0     H73374   1.590   3.911   7.596 -1.7959  0.2688 -2.9767
  544MOL0     H73375   1.526   4.008   8.012  2.1161  0.0899  1.7155
  544MOL0     H73376   1.668   4.101   7.945  1.1787  4.7564 -0.0994
  544MOL0     H73377   1.373   4.193   7.974  1.9000 -4.2723 -1.9985
  544MOL0     H73378   1.507   4.306   7.951 -6.0887  0.1777 -3.4367
  544MOL0     H73379   1.620   4.235   8.168 -0.1175  1.4327 -0.2430
  544MOL0     H73380   1.507   4.118   8.209  0.2063 -0.5602 -0.5461
  544MOL0     H73381   1.467   4.335   8.326  0.6022  0.8020  0.1288
  544MOL0     H73382   1.447   4.426   8.179 -0.6506  0.0598  0.3484
  544MOL0     H73383   1.228   4.351   8.141  0.0893 -0.6426  2.1889
  544MOL0     H73384   1.259   4.202   8.199 -4.8564  0.8965  0.3819
  544MOL0     H73385   1.265   4.329   8.448 -0.4718  1.6808  0.1087
  544MOL0     H73386   1.183   4.456   8.362 -3.3217 -0.5140  2.3217
  544MOL0     H73387   1.066   4.184   8.378 -3.7398  1.3944 -1.7045
  544MOL0     H73388   1.004   4.312   8.290 -1.4013 -0.9193  0.0290
  544MOL0     H73389   0.990   4.449   8.503 -2.5758 -0.8905  1.0725
  544MOL0     H73390   0.901   4.296   8.497 -0.2531 -0.6321 -3.3482
  544MOL0     H73391   1.224   4.480   8.647 -0.7976  1.5234  2.3167
  544MOL0     H73392   1.259   4.371   9.015  3.6222 -0.3557 -0.5149
  544MOL0     H73393   1.362   4.422   8.879  1.8750  0.1263  0.7736
  544MOL0     H73394   1.221   4.634   8.867 -0.7126  1.7479  0.8163
  544MOL0     H73395   1.113   4.552   8.986  0.9695 -1.8048  0.6136
  544MOL0     H73396   1.292   4.586   9.153 -2.0459  0.8738  1.0573
  544MOL0     H73397   1.262   4.746   9.083 -1.2747 -0.9747 -0.3904
  544MOL0     H73398   1.443   4.704   8.924 -0.3003 -0.5229  0.1927
  544MOL0     H73399   1.492   4.557   9.008 -1.5897 -0.9756 -0.2515
  544MOL0     H73400   1.675   4.682   8.882  2.0093  1.2704 -2.2421
  544MOL0     H73401   1.936   4.687   8.875 -1.7175  2.2213 -2.0722
  544MOL0     H73402   2.250   5.040   9.113 -2.1651 -0.4288  2.2482
  544MOL0     H73403   2.493   5.086   9.077 -3.3405  1.1053  0.9415
  544MOL0     H73404   2.756   4.803   9.263 -2.9826  0.9346 -0.8114
  544MOL0     H73405   2.774   4.758   9.103 -2.9493  1.0300 -0.1860
  544MOL0     H73406   2.938   4.966   9.079 -1.5759  1.1761 -0.2584
  544MOL0     H73407   2.925   4.977   9.248  0.2417 -2.0194  2.3504
  544MOL0     H73408   2.995   4.700   9.229  1.2571 -0.3100 -0.1392
  544MOL0     H73409   3.094   4.768   9.103  2.7802 -0.9841  3.0832
  544MOL0     H73410   3.074   4.874   9.385 -1.0454 -0.2925 -0.4842
  544MOL0     H73411   3.189   4.922   9.245  1.2208 -0.8513 -0.3008
  544MOL0     H73412   3.170   4.638   9.370 -1.2302 -0.2001 -2.7960
  544MOL0     H73413   3.268   4.757   9.444  1.4703  3.5104 -0.3847
  544MOL0     H73414   3.270   4.618   9.165 -0.5239 -0.3935 -0.9311
  544MOL0     H73415   3.333   4.778   9.169  2.2843 -0.8571 -0.5688
  544MOL0     H73416   3.517   4.606   9.194 -2.6387 -4.6896 -0.3550
  544MOL0     H73417   3.445   4.552   9.340  1.7179 -1.2014 -2.4404
  544MOL0     H73418   3.487   4.776   9.439  2.9172  1.8210  0.8417
  544MOL0     H73419   3.633   4.681   9.395  0.8907  0.0758 -1.4743
  544MOL0     H73420   2.583   4.688   9.215  2.0658  0.9593 -0.5765
  544MOL0     H73421   2.347   4.642   9.255 -0.2769 -0.2280 -0.3300
  544MOL0     H73422   1.935   4.862   9.257  2.2023 -0.0408 -1.5610
  544MOL0     H73423   1.671   4.825   9.279 -0.7794 -0.7476 -0.3126
  544MOL0     H73424   1.631   4.309   7.779  1.3594 -1.5977  3.2041
  544MOL0     H73425   1.789   4.363   7.607  1.2568 -0.2513 -1.7961
  544MOL0     H73426   1.978   4.406   7.328 -2.0921 -3.9867 -0.1603
  544MOL0     H73427   2.084   4.502   7.116  1.8381 -0.4940 -1.3043
  544MOL0     H73428   2.319   4.533   7.055 -2.1364 -0.9156  0.7070
  544MOL0     H73429   2.222   4.575   6.921  0.2377  0.6801 -1.0226
  544MOL0     H73430   2.459   4.427   6.823  0.9243 -0.9906  2.3909
  544MOL0     H73431   2.520   4.534   6.948 -1.3374 -1.9511  1.7909
  544MOL0     H73432   2.540   4.651   6.765 -0.2710 -2.7173 -0.0799
  544MOL0     H73433   2.406   4.713   6.879  1.2762 -1.5842  2.5953
  544MOL0     H73434   2.243   4.635   6.713  0.6333  2.4460  0.7715
  544MOL0     H73435   2.343   4.745   6.622 -0.5769  1.1332  0.1587
  544MOL0     H73436   2.437   4.377   6.422  3.9094  1.3547  0.3998
  544MOL0     H73437   2.282   4.132   7.042 -2.0582 -0.2127 -1.1460
  544MOL0     H73438   2.200   3.981   7.358  0.7524  0.3336 -0.1680
  544MOL0     H73439   2.085   3.934   7.227 -1.8784  1.5984  2.3913
  544MOL0     H73440   2.266   3.958   7.199 -0.1983 -3.2044  2.5270
  545MOL0     O73441   8.512   8.798   1.563  0.1081  0.3568  0.2824
  545MOL0     C73442   8.569   8.783   1.457 -0.4858 -0.0861  0.1686
  545MOL0     O73443   8.544   8.859   1.341 -0.5044  0.6501 -0.0853
  545MOL0     C73444   8.462   8.973   1.345 -1.0127 -0.3214 -0.1789
  545MOL0     C73445   8.370   9.001   1.243 -1.5691 -0.3047  0.0205
  545MOL0     C73446   8.275   9.104   1.248 -0.6434  0.5428  0.8754
  545MOL0     C73447   8.276   9.192   1.358 -0.7636  0.9426 -1.1347
  545MOL0     O73448   8.177   9.288   1.396  0.3526  0.5587  0.1836
  545MOL0     C73449   8.090   9.352   1.300  0.3666  0.9326  0.6071
  545MOL0     C73450   7.984   9.437   1.361  0.3235 -0.0976 -0.2243
  545MOL0     C73451   7.890   9.485   1.246 -0.1827  0.3135 -0.1209
  545MOL0     C73452   7.774   9.582   1.288  0.1508 -1.2933 -0.6406
  545MOL0     C73453   7.668   9.527   1.367  0.6636  0.1919  0.7694
  545MOL0     C73454   7.587   9.625   1.444  0.3475 -0.4561  0.7768
  545MOL0     C73455   7.650   9.705   1.560 -0.1915  0.0234  0.4674
  545MOL0     C73456   7.704   9.603   1.665  0.4890 -0.0896 -0.8969
  545MOL0     N73457   7.732   9.665   1.799 -0.8895  0.2711  0.0786
  545MOL0     C73458   7.644   9.722   1.878  0.3834 -0.2021 -0.5652
  545MOL0     C73459   7.711   9.753   1.990  0.4115 -0.0034  0.4514
  545MOL0     C73460   7.650   9.828   2.100  0.4907  1.2216  0.2641
  545MOL0     C73461   7.739   9.949   2.131 -0.1741  0.6290  0.6710
  545MOL0     C73462   7.767  10.056   2.019 -0.0075 -0.2392 -0.0795
  545MOL0     C73463   7.912  10.099   2.005 -0.4575 -0.0540  0.0623
  545MOL0     O73464   7.930  10.178   1.893 -0.3831 -0.6793  0.3981
  545MOL0     C73465   7.965  10.115   1.773 -0.6150 -0.0346 -1.1209
  545MOL0     C73466   7.953   9.974   1.742 -0.2061 -0.7052  0.5258
  545MOL0     C73467   7.999   9.927   1.620  0.7825 -0.2376  0.7052
  545MOL0     C73468   8.046  10.012   1.520 -1.1604  0.4609  0.7763
  545MOL0     C73469   8.108   9.963   1.393 -0.7232  0.5612  0.6629
  545MOL0     O73470   8.078   9.841   1.357 -0.2052  0.9503 -0.4089
  545MOL0     C73471   8.133   9.797   1.238  0.7028 -1.0508  0.3613
  545MOL0     C73472   8.230   9.706   1.262 -0.0612 -0.3660 -0.8110
  545MOL0     C73473   8.281   9.635   1.148  0.9880  0.3792  0.9931
  545MOL0     C73474   8.258   9.677   1.018 -0.2925  0.2668 -0.2101
  545MOL0     O73475   8.299   9.601   0.908 -0.8998 -0.4256  0.4360
  545MOL0     C73476   8.431   9.555   0.903 -0.9515 -0.0267 -0.1927
  545MOL0     C73477   8.463   9.452   0.792  0.2345 -0.0419  0.2809
  545MOL0     C73478   8.380   9.324   0.810  0.4451 -0.0523 -0.2691
  545MOL0     C73479   8.380   9.215   0.694 -0.4773  0.0704 -0.0554
  545MOL0     C73480   8.388   9.056   0.745  0.4876 -0.5107  0.2194
  545MOL0     C73481   8.536   9.015   0.779 -0.2363  0.6955  0.3355
  545MOL0     C73482   8.554   8.874   0.840  0.2922  0.1323 -0.1874
  545MOL0     C73483   8.691   8.849   0.893 -0.9461  0.0433  0.3744
  545MOL0    Cl73484   8.709   8.912   1.061  0.1628  0.7068  0.0881
  545MOL0     C73485   8.160   9.768   0.992 -0.4678 -0.0910  0.3255
  545MOL0     C73486   8.103   9.837   1.106 -0.4013  0.6007 -0.4268
  545MOL0     O73487   8.171  10.043   1.325  0.7621  0.3678  0.1618
  545MOL0     C73488   8.050  10.149   1.548  0.7435  0.7940  0.0927
  545MOL0     C73489   8.009  10.199   1.673 -0.2875  0.4454 -1.7640
  545MOL0     N73490   7.839   9.717   1.977 -0.4719 -0.0198  0.0331
  545MOL0     N73491   7.852   9.657   1.858 -0.9275 -0.6751  0.5614
  545MOL0     C73492   8.370   9.168   1.459 -1.2006 -0.3806 -1.1322
  545MOL0     C73493   8.465   9.064   1.456  0.6117 -0.3091 -1.0075
  545MOL0     C73494   8.654   8.658   1.447 -0.4520  0.0137 -0.0575
  545MOL0     C73495   8.720   8.614   1.563 -0.6717  0.0670  0.4922
  545MOL0     C73496   8.815   8.511   1.554  0.3988  0.7378  1.2360
  545MOL0     C73497   8.835   8.434   1.442  0.7278  1.3021  0.9006
  545MOL0     O73498   8.921   8.321   1.462  1.2547 -0.4773  1.3259
  545MOL0     C73499   8.942   8.236   1.348  0.7055  0.2003 -0.1671
  545MOL0     C73500   9.042   8.130   1.369 -0.1172  0.4349 -1.1663
  545MOL0     C73501   9.115   8.079   1.245  0.0588  0.2417  0.5807
  545MOL0     C73502   9.175   7.936   1.264  0.0933 -0.7767 -0.4594
  545MOL0     C73503   9.294   7.950   1.350 -0.2292  0.6135 -0.0433
  545MOL0     C73504   9.384   7.962   1.429 -0.8685  0.2414  0.5581
  545MOL0     C73505   8.764   8.466   1.330  0.4316 -0.1099 -0.9496
  545MOL0     C73506   8.670   8.575   1.335  0.5803  0.4570 -0.5124
  545MOL0     C73507   8.590   8.591   1.210  0.8980 -0.6092 -0.5553
  545MOL0     H73508   8.376   8.913   1.180  0.1246 -0.9182  0.9767
  545MOL0     H73509   8.196   9.110   1.174  1.0740 -1.4994 -1.2950
  545MOL0     H73510   8.151   9.419   1.238  1.8305  0.4307  1.4645
  545MOL0     H73511   8.040   9.286   1.229  1.8308 -0.7839  1.1006
  545MOL0     H73512   8.035   9.522   1.408 -2.2464  1.3236  0.2216
  545MOL0     H73513   7.925   9.376   1.430  2.8347 -0.2839  1.8779
  545MOL0     H73514   7.836   9.396   1.211  0.7590 -0.0344 -0.7344
  545MOL0     H73515   7.948   9.522   1.161 -1.0260 -3.5572 -2.6851
  545MOL0     H73516   7.823   9.659   1.349 -4.6491  1.0116  0.7798
  545MOL0     H73517   7.738   9.632   1.198  0.8853 -0.7134 -0.6281
  545MOL0     H73518   7.601   9.474   1.299  1.9522  2.0920 -2.2053
  545MOL0     H73519   7.703   9.447   1.432 -0.0486 -1.6027 -0.9379
  545MOL0     H73520   7.532   9.695   1.379 -0.6432 -2.1317 -0.2692
  545MOL0     H73521   7.493   9.583   1.480 -1.7941  2.6789 -0.6846
  545MOL0     H73522   7.577   9.771   1.609  2.2259  3.9631 -0.7556
  545MOL0     H73523   7.726   9.774   1.522  0.2530 -1.1556 -0.8290
  545MOL0     H73524   7.628   9.526   1.678  0.3213 -0.4472 -3.5303
  545MOL0     H73525   7.801   9.558   1.640  0.6155  0.4385 -1.3692
  545MOL0     H73526   7.540   9.738   1.851  0.6827 -2.1512 -3.3075
  545MOL0     H73527   7.545   9.851   2.078 -0.3622 -3.0327 -0.9584
  545MOL0     H73528   7.639   9.768   2.191 -0.7640  1.0800  0.0389
  545MOL0     H73529   7.699  10.002   2.219  0.1631  0.6130  0.8384
  545MOL0     H73530   7.828   9.909   2.181 -1.8171 -1.7086  1.9328
  545MOL0     H73531   7.706  10.142   2.046  0.0890 -0.0963 -0.3164
  545MOL0     H73532   7.727  10.020   1.923  1.6448 -3.0067  0.1536
  545MOL0     H73533   7.982  10.015   2.008 -1.1841 -0.6795 -0.3550
  545MOL0     H73534   7.927  10.167   2.089 -1.0312  1.0888 -0.7267
  545MOL0     H73535   7.924   9.910   1.825  1.1314  2.2819  3.5249
  545MOL0     H73536   7.995   9.820   1.605 -0.1181 -0.5264  2.6889
  545MOL0     H73537   8.258   9.666   1.359 -1.0496  1.9704  0.5350
  545MOL0     H73538   8.344   9.552   1.179  3.2855  1.6708  0.0248
  545MOL0     H73539   8.500   9.638   0.885 -2.5187  0.7342 -3.6532
  545MOL0     H73540   8.447   9.510   1.002 -1.6467  1.2894  0.5463
  545MOL0     H73541   8.422   9.493   0.699 -1.7186  1.8114  1.8466
  545MOL0     H73542   8.571   9.441   0.778  0.2291  2.4732 -2.8883
  545MOL0     H73543   8.412   9.280   0.905 -0.6375 -0.1738  0.0610
  545MOL0     H73544   8.275   9.353   0.822  0.3815  0.7925 -2.3616
  545MOL0     H73545   8.459   9.247   0.625  1.0500  1.1275  2.0565
  545MOL0     H73546   8.286   9.213   0.637  0.5892  0.4874 -1.9161
  545MOL0     H73547   8.363   8.993   0.658  0.9616 -1.0273  0.4514
  545MOL0     H73548   8.311   9.033   0.819 -1.6894 -3.0429 -2.5763
  545MOL0     H73549   8.598   9.017   0.689 -0.5819  0.6958  0.0938
  545MOL0     H73550   8.566   9.098   0.843 -0.6007  1.0710  0.0214
  545MOL0     H73551   8.528   8.798   0.766  0.4121  1.2053 -1.3760
  545MOL0     H73552   8.484   8.854   0.921 -1.2386  0.9320 -1.2560
  545MOL0     H73553   8.702   8.740   0.890  0.3491  0.1693 -0.0132
  545MOL0     H73554   8.763   8.892   0.824 -1.2512  2.0796  1.2592
  545MOL0     H73555   8.147   9.816   0.896  1.8847  0.7408  0.3646
  545MOL0     H73556   8.037   9.922   1.095 -2.3063 -0.7720 -0.0522
  545MOL0     H73557   8.092  10.225   1.483  0.5222 -0.2685 -1.3510
  545MOL0     H73558   8.000  10.300   1.712  1.2269 -1.1031  3.2604
  545MOL0     H73559   8.365   9.228   1.550 -2.0830 -3.6722  1.2259
  545MOL0     H73560   8.530   9.057   1.542 -0.3859 -2.8978 -0.3985
  545MOL0     H73561   8.706   8.679   1.648  2.0337  3.7658 -1.5431
  545MOL0     H73562   8.878   8.483   1.638 -0.7970 -0.4638  1.7741
  545MOL0     H73563   8.960   8.290   1.254 -0.7642  0.9081 -0.0633
  545MOL0     H73564   8.849   8.191   1.315  0.4764  1.4103 -1.2287
  545MOL0     H73565   8.992   8.048   1.421  1.4391  0.1210 -0.0980
  545MOL0     H73566   9.113   8.171   1.441 -0.0045 -4.0757  1.6784
  545MOL0     H73567   9.184   8.153   1.203  1.4309 -1.1896  0.1603
  545MOL0     H73568   9.035   8.080   1.170 -1.2881  3.7285  1.8791
  545MOL0     H73569   9.108   7.859   1.304  0.6231 -0.9162  0.1647
  545MOL0     H73570   9.205   7.897   1.167 -0.0991 -1.1346 -0.3755
  545MOL0     H73571   9.481   7.986   1.468 -0.9037  0.9527  0.2229
  545MOL0     H73572   8.781   8.396   1.249  1.6788 -1.3766  0.3413
  545MOL0     H73573   8.499   8.530   1.207 -0.2250  1.0413 -2.7256
  545MOL0     H73574   8.545   8.689   1.196  1.7568 -0.0014  0.7546
  545MOL0     H73575   8.638   8.564   1.115  0.0703 -1.1915 -0.8177
  546MOL0     O73576   6.446   4.993   5.312  0.0959 -0.3833  0.0883
  546MOL0     C73577   6.362   4.992   5.402  0.5782 -0.2010 -0.0870
  546MOL0     O73578   6.286   5.096   5.454  0.0446  0.3966 -0.1559
  546MOL0     C73579   6.281   5.205   5.366 -0.0918  0.4006 -0.1307
  546MOL0     C73580   6.167   5.231   5.291  1.2363  0.9886 -0.1869
  546MOL0     C73581   6.172   5.328   5.189 -0.0322 -0.0749  0.6331
  546MOL0     C73582   6.287   5.414   5.176  0.2805 -0.2728  0.2450
  546MOL0     O73583   6.285   5.516   5.082 -0.1058  0.0966  0.1050
  546MOL0     C73584   6.410   5.580   5.054 -0.2867 -0.1338  0.0683
  546MOL0     C73585   6.404   5.660   4.933 -0.9837 -0.4125  0.1313
  546MOL0     C73586   6.541   5.693   4.880  0.3194 -0.1163  1.3589
  546MOL0     C73587   6.526   5.804   4.774  1.0752 -0.0595 -0.3312
  546MOL0     C73588   6.654   5.849   4.714 -1.1705 -0.2014 -0.2625
  546MOL0     C73589   6.670   5.744   4.601 -0.4308  0.0096  0.5152
  546MOL0     C73590   6.788   5.783   4.513  0.9350 -0.0361  0.2374
  546MOL0     C73591   6.793   5.707   4.375  0.0026  0.6876  0.7445
  546MOL0     N73592   6.806   5.566   4.386  0.3142 -0.7165 -0.0641
  546MOL0     C73593   6.918   5.503   4.431  0.2766  1.1005  0.5315
  546MOL0     C73594   6.889   5.372   4.442 -0.6027  0.5582  0.2176
  546MOL0     C73595   6.989   5.260   4.476  0.0472 -0.0207 -0.2766
  546MOL0     C73596   6.920   5.130   4.465  0.3718 -0.5994 -0.3328
  546MOL0     C73597   7.003   5.008   4.502 -0.2534 -0.7961 -0.3083
  546MOL0     C73598   6.908   4.899   4.527 -0.4960  0.2216  0.1673
  546MOL0     O73599   6.988   4.774   4.517  0.9896 -0.0850  0.0560
  546MOL0     C73600   6.921   4.659   4.546 -0.2479  0.4885  0.1368
  546MOL0     C73601   6.997   4.549   4.571 -0.1829  0.3715  0.3443
  546MOL0     C73602   6.946   4.422   4.609 -1.2701  0.4460 -0.6486
  546MOL0     C73603   6.807   4.397   4.624  0.0132 -0.8453  0.5568
  546MOL0     C73604   6.748   4.286   4.692 -0.3234  0.4862 -0.4543
  546MOL0     O73605   6.840   4.204   4.751  0.6262 -0.1084 -0.1018
  546MOL0     C73606   6.789   4.105   4.835 -0.4818 -0.3420  0.8686
  546MOL0     C73607   6.764   4.146   4.957 -0.1038 -0.1843  0.0207
  546MOL0     C73608   6.711   4.050   5.046 -0.2035  0.2141  0.1598
  546MOL0     C73609   6.699   3.912   4.997 -0.9260  0.2480 -0.5526
  546MOL0     O73610   6.672   3.805   5.088  0.0856  0.2457  0.4997
  546MOL0     C73611   6.574   3.837   5.187  0.0148  0.4069 -0.4469
  546MOL0     C73612   6.520   3.711   5.244  0.0065  0.5880  0.0421
  546MOL0     C73613   6.624   3.609   5.294 -0.3290 -1.5732 -0.3002
  546MOL0     C73614   6.586   3.550   5.429  0.5259  0.0747  0.2885
  546MOL0     C73615   6.691   3.448   5.485  0.2696  0.4329 -0.0101
  546MOL0     C73616   6.623   3.394   5.620 -0.5850 -0.0905 -0.3708
  546MOL0     C73617   6.691   3.259   5.652 -0.0716  0.9027 -0.4116
  546MOL0     C73618   6.718   3.228   5.809  1.2618 -0.7880  0.1718
  546MOL0    Cl73619   6.751   3.042   5.828  0.2765 -0.3558  0.0954
  546MOL0     C73620   6.721   3.879   4.870 -0.4197  0.2927 -0.4662
  546MOL0     C73621   6.770   3.977   4.779 -0.2217 -1.0246 -0.3777
  546MOL0     O73622   6.620   4.280   4.700 -0.6640 -0.2181 -0.0305
  546MOL0     C73623   6.727   4.502   4.573 -0.3196 -0.3266  0.1618
  546MOL0     C73624   6.785   4.631   4.534  0.2740  0.1561 -0.3809
  546MOL0     N73625   6.758   5.353   4.384  0.1769 -0.3590  0.2390
  546MOL0     N73626   6.714   5.470   4.357 -0.0170  0.1274 -0.0910
  546MOL0     C73627   6.392   5.387   5.264 -0.1180 -0.0094  0.4628
  546MOL0     C73628   6.394   5.291   5.354  0.7347  0.7248  0.1129
  546MOL0     C73629   6.343   4.874   5.488  0.0141 -0.1533  0.3664
  546MOL0     C73630   6.211   4.848   5.545 -0.1947 -0.2100 -0.3466
  546MOL0     C73631   6.190   4.742   5.634 -0.0295  0.7105  0.3743
  546MOL0     C73632   6.299   4.666   5.671 -0.3528 -0.6945 -0.4855
  546MOL0     O73633   6.296   4.559   5.756 -0.3888  0.1121 -0.3984
  546MOL0     C73634   6.183   4.540   5.841 -0.3560 -0.1732 -0.4508
  546MOL0     C73635   6.216   4.423   5.923  0.7571 -0.7717 -0.4067
  546MOL0     C73636   6.142   4.299   5.888  0.0643  0.5803 -0.2824
  546MOL0     C73637   6.145   4.186   5.994 -0.5070  0.4013 -0.5965
  546MOL0     C73638   6.245   4.089   5.977  0.1705  0.9187 -0.9230
  546MOL0     C73639   6.332   4.008   5.943 -0.1995 -0.9561 -0.3406
  546MOL0     C73640   6.422   4.685   5.614  0.0573  0.1839 -0.2122
  546MOL0     C73641   6.449   4.795   5.529 -0.8107 -0.8241  0.9411
  546MOL0     C73642   6.602   4.829   5.503  0.1063 -0.6619 -1.0263
  546MOL0     H73643   6.087   5.160   5.309  0.2121  2.3175  0.8178
  546MOL0     H73644   6.091   5.358   5.125  0.4154  0.8657  0.5022
  546MOL0     H73645   6.448   5.642   5.136 -2.2405 -0.9313  1.6570
  546MOL0     H73646   6.487   5.504   5.042  1.0517  1.3228 -1.0589
  546MOL0     H73647   6.355   5.756   4.952  2.4651  2.1692 -2.8603
  546MOL0     H73648   6.333   5.619   4.860 -1.6028 -1.3667  1.2239
  546MOL0     H73649   6.580   5.610   4.821 -0.7791 -0.4690  1.1101
  546MOL0     H73650   6.620   5.699   4.956  2.6867 -4.1726 -0.4599
  546MOL0     H73651   6.445   5.773   4.708  0.5641  2.2786 -0.8975
  546MOL0     H73652   6.482   5.894   4.819 -0.6169 -0.4181 -1.1775
  546MOL0     H73653   6.641   5.952   4.679 -0.1132  0.3650  0.9107
  546MOL0     H73654   6.717   5.847   4.803 -3.1044  1.9032  1.2839
  546MOL0     H73655   6.693   5.650   4.651  1.5969 -0.7562 -1.6520
  546MOL0     H73656   6.575   5.732   4.548 -0.4529  0.0129  0.5539
  546MOL0     H73657   6.881   5.766   4.566 -0.0461 -5.7241  0.7600
  546MOL0     H73658   6.757   5.886   4.489 -0.5711 -0.2730  1.0263
  546MOL0     H73659   6.699   5.722   4.322  0.1180  2.1357  0.8982
  546MOL0     H73660   6.876   5.747   4.317 -0.1011  1.0271  0.8274
  546MOL0     H73661   7.010   5.554   4.457 -0.2719  1.3230  2.1862
  546MOL0     H73662   7.076   5.267   4.410  0.9530  1.2149  0.9870
  546MOL0     H73663   7.021   5.279   4.579 -2.7195 -0.2750  0.7022
  546MOL0     H73664   6.826   5.133   4.522 -0.1904 -3.2476 -0.9956
  546MOL0     H73665   6.893   5.129   4.359 -2.7741  0.0592  0.3474
  546MOL0     H73666   7.070   5.020   4.588  3.4621 -0.7561 -2.9778
  546MOL0     H73667   7.077   4.997   4.422  2.1532  1.2233  1.4572
  546MOL0     H73668   6.830   4.904   4.450 -2.0646  0.9128  1.7365
  546MOL0     H73669   6.852   4.881   4.620 -1.1217 -0.3650 -0.3060
  546MOL0     H73670   7.103   4.551   4.544  0.5116  1.6953  2.8813
  546MOL0     H73671   7.017   4.343   4.632 -0.4115  0.1224 -3.9553
  546MOL0     H73672   6.771   4.250   4.989  0.7086  0.9521 -3.4542
  546MOL0     H73673   6.710   4.074   5.151  2.5208 -1.8170  0.7646
  546MOL0     H73674   6.618   3.881   5.277 -0.4503  0.8610 -0.4357
  546MOL0     H73675   6.492   3.896   5.145  1.2632  2.3611 -0.2586
  546MOL0     H73676   6.454   3.740   5.326 -0.3920 -0.2387  0.0245
  546MOL0     H73677   6.455   3.668   5.167 -0.2304  1.7864 -0.4601
  546MOL0     H73678   6.627   3.538   5.210 -3.4869 -0.3162 -1.6601
  546MOL0     H73679   6.723   3.654   5.305 -0.7901  0.0222 -2.1129
  546MOL0     H73680   6.486   3.506   5.425  0.8061 -0.5688  0.2497
  546MOL0     H73681   6.582   3.633   5.501 -1.2511 -0.2154  0.5674
  546MOL0     H73682   6.791   3.489   5.499  0.2560  0.8100 -0.9306
  546MOL0     H73683   6.709   3.359   5.424  0.8153  0.3447  0.2752
  546MOL0     H73684   6.624   3.476   5.691 -0.1620  1.3437 -1.9678
  546MOL0     H73685   6.519   3.367   5.599 -0.7389 -0.2461  0.5714
  546MOL0     H73686   6.787   3.246   5.603  0.3858 -2.7033  1.1463
  546MOL0     H73687   6.621   3.182   5.617 -0.0161  0.5028  0.3349
  546MOL0     H73688   6.797   3.288   5.854 -0.5025  2.2869 -0.5597
  546MOL0     H73689   6.629   3.254   5.868  0.7894 -0.8442 -0.4997
  546MOL0     H73690   6.709   3.775   4.839 -2.8280 -0.0534  1.2837
  546MOL0     H73691   6.780   3.955   4.673  0.8332 -1.4711 -0.1979
  546MOL0     H73692   6.620   4.487   4.567 -0.9780  3.1983  1.2936
  546MOL0     H73693   6.720   4.708   4.493 -1.0881 -0.6032  0.2598
  546MOL0     H73694   6.473   5.459   5.264 -1.8279  2.0326  0.3650
  546MOL0     H73695   6.479   5.282   5.421  1.6189 -1.5778 -1.1989
  546MOL0     H73696   6.131   4.916   5.518 -0.2329  1.5343  3.5340
  546MOL0     H73697   6.092   4.726   5.679  1.1245  0.7471  3.1143
  546MOL0     H73698   6.092   4.527   5.782 -0.1611  0.7184 -0.9674
  546MOL0     H73699   6.167   4.631   5.899 -2.5098  0.8382 -2.4586
  546MOL0     H73700   6.191   4.435   6.029  0.2722 -4.0456 -0.0362
  546MOL0     H73701   6.324   4.405   5.914  1.5616  1.9484  2.2538
  546MOL0     H73702   6.192   4.261   5.799  0.5989 -1.5432  0.8537
  546MOL0     H73703   6.037   4.324   5.869  0.5381  1.6519 -1.7273
  546MOL0     H73704   6.167   4.244   6.084 -0.6988  3.7344 -2.5238
  546MOL0     H73705   6.055   4.125   5.989 -1.7612  2.2303 -4.3932
  546MOL0     H73706   6.410   3.945   5.907 -0.3089 -1.8271  0.9057
  546MOL0     H73707   6.512   4.633   5.644 -0.0147  0.7619  1.0544
  546MOL0     H73708   6.632   4.918   5.558  2.9738  0.1187 -3.5511
  546MOL0     H73709   6.662   4.747   5.545  0.0346 -0.5354 -0.6750
  546MOL0     H73710   6.623   4.842   5.396 -2.5072 -0.1813 -1.5417
  547MOL0     O73711   5.306   9.934   5.495 -0.2686  0.2311  0.5604
  547MOL0     C73712   5.215   9.851   5.521  0.3981 -0.6168  0.2785
  547MOL0     O73713   5.116   9.866   5.616  0.3137  0.5269  0.0311
  547MOL0     C73714   5.094   9.997   5.645  0.5090  0.9013 -0.5701
  547MOL0     C73715   5.016  10.084   5.563  0.3173 -0.1814 -0.2563
  547MOL0     C73716   5.004  10.218   5.596 -0.9630  0.1309  0.2616
  547MOL0     C73717   5.061  10.264   5.713  0.4370 -0.2489 -0.4163
  547MOL0     O73718   5.048  10.397   5.738 -0.4512 -0.4273  0.7864
  547MOL0     C73719   5.064  10.454   5.867 -0.9651  1.4411 -0.1896
  547MOL0     C73720   5.034  10.601   5.882 -0.2602 -0.0631 -0.5111
  547MOL0     C73721   4.942  10.647   5.771 -0.5613 -0.3696 -0.3043
  547MOL0     C73722   4.902  10.783   5.807 -0.0471  1.5904  0.8337
  547MOL0     C73723   4.796  10.837   5.707  0.0601 -0.5445  1.2529
  547MOL0     C73724   4.650  10.802   5.750 -0.7779  0.5249  0.6663
  547MOL0     C73725   4.600  10.890   5.869  0.0756 -0.5631 -0.1193
  547MOL0     C73726   4.451  10.879   5.883  0.3959  0.5167  0.6306
  547MOL0     N73727   4.388  10.933   5.767 -0.3945 -0.2212  1.4900
  547MOL0     C73728   4.374  11.063   5.732 -0.5908  0.3177  0.2283
  547MOL0     C73729   4.280  11.058   5.633 -0.0026  0.3244 -0.5085
  547MOL0     C73730   4.216  11.165   5.566  0.2028 -0.1949 -0.1390
  547MOL0     C73731   4.328  11.251   5.514 -0.9480  1.0662  0.3971
  547MOL0     C73732   4.293  11.379   5.449 -0.4247  0.1867  0.7677
  547MOL0     C73733   4.212  11.477   5.528  0.5453 -0.6200 -0.4299
  547MOL0     O73734   4.073  11.435   5.551 -0.7986 -0.4942 -0.3498
  547MOL0     C73735   3.995  11.413   5.448 -0.4045  0.4302 -0.4088
  547MOL0     C73736   3.926  11.296   5.462  0.8263  0.1432 -1.0705
  547MOL0     C73737   3.832  11.272   5.361 -0.1390  0.7427  0.3763
  547MOL0     C73738   3.819  11.355   5.245  0.3611 -0.7139  0.3717
  547MOL0     C73739   3.706  11.323   5.145 -0.1778  0.1792  0.6952
  547MOL0     O73740   3.669  11.422   5.058  0.0742 -0.3595  0.2756
  547MOL0     C73741   3.566  11.420   4.970  0.0125  1.1731 -0.4962
  547MOL0     C73742   3.577  11.482   4.847 -0.5872 -0.9039 -0.2968
  547MOL0     C73743   3.476  11.473   4.754 -0.2598  0.2809 -0.1049
  547MOL0     C73744   3.367  11.393   4.776  0.3083  0.7273 -1.1606
  547MOL0     O73745   3.265  11.404   4.681 -0.5218  0.1428 -0.1507
  547MOL0     C73746   3.193  11.291   4.648  0.5469  0.1657  0.5708
  547MOL0     C73747   3.088  11.328   4.547  0.3138 -0.0846 -0.0901
  547MOL0     C73748   3.128  11.430   4.435 -0.4014 -0.3723  0.4607
  547MOL0     C73749   3.005  11.488   4.353 -0.3923  0.2681  0.2406
  547MOL0     C73750   2.925  11.383   4.274  1.0754  0.8584  0.3802
  547MOL0     C73751   3.005  11.274   4.202 -0.6855 -0.5680 -0.3116
  547MOL0     C73752   2.899  11.173   4.147 -0.9902 -0.0953  0.1520
  547MOL0     C73753   2.959  11.087   4.039 -0.4930 -0.1649 -0.4081
  547MOL0    Cl73754   2.837  10.967   3.995 -0.5743  0.3888 -0.2831
  547MOL0     C73755   3.348  11.330   4.905 -0.1018 -0.0737  1.1525
  547MOL0     C73756   3.446  11.346   5.001 -0.0819 -0.3668  0.7220
  547MOL0     O73757   3.651  11.216   5.155 -0.3660  0.9296 -0.6308
  547MOL0     C73758   3.899  11.469   5.234 -0.0959  0.8330 -0.4973
  547MOL0     C73759   3.992  11.489   5.336  1.3804  0.1545  0.7663
  547MOL0     N73760   4.233  10.932   5.618  0.0600  0.3459 -1.0574
  547MOL0     N73761   4.304  10.858   5.700  0.2310  0.4236 -0.2212
  547MOL0     C73762   5.138  10.178   5.794  0.2045  0.3274 -0.5870
  547MOL0     C73763   5.154  10.043   5.759  0.8113  0.1512  0.1227
  547MOL0     C73764   5.216   9.720   5.446 -0.1621 -0.1284 -0.7186
  547MOL0     C73765   5.150   9.608   5.503  0.4957 -0.3856  0.8239
  547MOL0     C73766   5.123   9.490   5.426  0.6208  0.2117 -1.0757
  547MOL0     C73767   5.149   9.477   5.286 -1.0626  0.4067  0.5038
  547MOL0     O73768   5.114   9.373   5.202  0.0081  0.3854  0.1226
  547MOL0     C73769   5.045   9.254   5.258  0.6435  0.8043 -0.3763
  547MOL0     C73770   5.080   9.128   5.187 -0.0553  0.4287  0.6414
  547MOL0     C73771   5.024   9.012   5.243  0.0423 -0.4149 -1.1476
  547MOL0     C73772   5.084   8.885   5.197  0.1744 -0.7870  0.4415
  547MOL0     C73773   5.080   8.863   5.050 -0.3256 -0.8651 -0.6260
  547MOL0     C73774   5.077   8.825   4.937  0.1828  0.5948  0.6644
  547MOL0     C73775   5.199   9.604   5.231  0.0765 -0.0228 -0.2631
  547MOL0     C73776   5.244   9.713   5.306 -0.6631 -0.3999  0.2292
  547MOL0     C73777   5.307   9.837   5.229 -0.0229 -0.2031  0.1673
  547MOL0     H73778   4.958  10.052   5.477 -2.4662  0.4764  1.2455
  547MOL0     H73779   4.941  10.283   5.535  0.6479 -1.2389 -3.1668
  547MOL0     H73780   4.990  10.394   5.920 -2.5573  2.8831 -0.6764
  547MOL0     H73781   5.166  10.430   5.896 -0.7550  0.6417 -1.5196
  547MOL0     H73782   5.130  10.650   5.865  1.6469 -3.2775  0.1887
  547MOL0     H73783   4.990  10.627   5.979 -2.2333 -0.7795 -1.1577
  547MOL0     H73784   4.860  10.575   5.762 -1.2966  0.6807 -3.4498
  547MOL0     H73785   4.987  10.634   5.672 -0.3977  1.7335 -0.5634
  547MOL0     H73786   4.860  10.798   5.907 -1.2622  2.6540  0.2008
  547MOL0     H73787   4.999  10.832   5.811  0.3587  0.6944  2.7643
  547MOL0     H73788   4.793  10.946   5.707  1.0360 -0.5081  0.6125
  547MOL0     H73789   4.823  10.807   5.606 -0.3470  4.3671 -0.5476
  547MOL0     H73790   4.587  10.815   5.662 -1.5515 -1.6843  0.8550
  547MOL0     H73791   4.656  10.699   5.784 -1.4823  0.7673  1.5524
  547MOL0     H73792   4.616  10.997   5.860 -1.0932  0.1200  3.8342
  547MOL0     H73793   4.656  10.859   5.958 -1.2881 -1.8249  0.3391
  547MOL0     H73794   4.435  10.770   5.882 -2.5569  0.8501  1.1895
  547MOL0     H73795   4.416  10.928   5.974  0.0570  1.0491  0.2224
  547MOL0     H73796   4.406  11.153   5.784 -1.4573  0.7930 -0.0463
  547MOL0     H73797   4.153  11.139   5.481  1.7529  2.6583 -2.3364
  547MOL0     H73798   4.154  11.217   5.639 -0.6199 -1.9904  0.4958
  547MOL0     H73799   4.396  11.269   5.598  1.8261 -0.1873 -1.4413
  547MOL0     H73800   4.374  11.206   5.426  1.1126  5.2581 -0.9477
  547MOL0     H73801   4.241  11.355   5.356  0.5108 -1.6448  0.6542
  547MOL0     H73802   4.377  11.437   5.409 -0.2100 -0.2165  0.6167
  547MOL0     H73803   4.208  11.572   5.473 -0.9426  2.0665  3.8212
  547MOL0     H73804   4.256  11.496   5.626  0.9808  0.2895 -0.7816
  547MOL0     H73805   3.932  11.226   5.545  2.4715 -0.9760 -2.0733
  547MOL0     H73806   3.768  11.186   5.377  1.4509 -0.6948 -0.6033
  547MOL0     H73807   3.668  11.539   4.834 -1.2145  0.9466  2.3599
  547MOL0     H73808   3.508  11.530   4.667  1.6754  0.2073  0.4983
  547MOL0     H73809   3.252  11.218   4.592  1.0269  0.3378  0.8417
  547MOL0     H73810   3.152  11.250   4.741  0.2614  3.5969  2.1199
  547MOL0     H73811   3.045  11.237   4.506  2.5758 -1.6920  0.9118
  547MOL0     H73812   2.998  11.361   4.599 -2.3249 -6.8034  0.5363
  547MOL0     H73813   3.181  11.514   4.480  0.6599 -0.3586 -0.7722
  547MOL0     H73814   3.195  11.384   4.362  0.0456 -0.7544  1.0953
  547MOL0     H73815   3.043  11.549   4.270 -0.2982  0.8344  0.6987
  547MOL0     H73816   2.945  11.555   4.414  0.4118 -0.9901  2.5262
  547MOL0     H73817   2.852  11.427   4.206 -0.6905 -2.7401 -0.2522
  547MOL0     H73818   2.873  11.322   4.349  0.8066  0.1855 -0.3488
  547MOL0     H73819   3.061  11.321   4.121 -0.9613 -0.0967 -0.2265
  547MOL0     H73820   3.070  11.217   4.269 -1.1570 -0.1669  0.4894
  547MOL0     H73821   2.822  11.238   4.104 -2.0339  0.2261  2.4077
  547MOL0     H73822   2.850  11.113   4.224 -3.6615  0.0704 -1.3143
  547MOL0     H73823   2.975  11.143   3.947  0.2513 -0.5397 -0.5070
  547MOL0     H73824   3.050  11.043   4.079 -0.4961 -0.7175 -0.9963
  547MOL0     H73825   3.252  11.283   4.919  1.2588 -3.1711  0.9681
  547MOL0     H73826   3.430  11.298   5.097 -1.7958 -0.2242  0.5488
  547MOL0     H73827   3.889  11.539   5.151 -1.6177  0.2712 -0.8228
  547MOL0     H73828   4.068  11.565   5.328  1.0973  0.4864  1.1997
  547MOL0     H73829   5.201  10.218   5.873 -0.6193  2.1910 -0.8091
  547MOL0     H73830   5.215   9.978   5.821 -3.4042 -3.0337  1.4160
  547MOL0     H73831   5.117   9.608   5.607 -1.8609 -2.2275  0.1698
  547MOL0     H73832   5.053   9.424   5.476 -4.1114  5.3757  0.0584
  547MOL0     H73833   4.938   9.274   5.260  1.1152  3.7632 -0.7382
  547MOL0     H73834   5.068   9.246   5.365  2.6517  3.3578 -0.5298
  547MOL0     H73835   5.189   9.117   5.184  0.5221  2.3176  5.3454
  547MOL0     H73836   5.048   9.128   5.083  0.9454  1.3616  0.3177
  547MOL0     H73837   4.920   9.003   5.211 -0.9223 -0.6540  1.8204
  547MOL0     H73838   5.036   9.004   5.351  0.4764  0.7027 -1.0934
  547MOL0     H73839   5.190   8.876   5.223  0.3479 -3.5891 -0.8081
  547MOL0     H73840   5.038   8.795   5.239  1.7499 -2.7825 -1.8562
  547MOL0     H73841   5.078   8.802   4.832 -0.6526  0.4197  0.6896
  547MOL0     H73842   5.196   9.618   5.123 -0.2580  2.3290 -0.0183
  547MOL0     H73843   5.413   9.850   5.254 -0.1475  0.8398  0.2032
  547MOL0     H73844   5.302   9.834   5.120 -1.9819  1.9973  0.1213
  547MOL0     H73845   5.263   9.933   5.257  0.9540  1.7707 -4.2089
  548MOL0     O73846   2.892  10.073   1.385 -0.3188  0.2160 -0.7223
  548MOL0     C73847   2.885  10.191   1.355  0.2267  0.1473  0.5534
  548MOL0     O73848   2.941  10.295   1.426  0.1950  0.3339  0.0575
  548MOL0     C73849   2.969  10.268   1.560  0.2869  0.0199  0.1860
  548MOL0     C73850   3.092  10.207   1.577 -0.2549 -0.0292 -0.4433
  548MOL0     C73851   3.126  10.167   1.704 -1.4314 -1.0743  0.4088
  548MOL0     C73852   3.049  10.209   1.820  0.3618 -0.0739 -0.6204
  548MOL0     O73853   3.084  10.195   1.953  1.2310  0.9352  1.0121
  548MOL0     C73854   3.223  10.154   1.988  0.5152  0.3557 -0.5341
  548MOL0     C73855   3.235  10.106   2.135 -0.0986  0.7264 -0.8235
  548MOL0     C73856   3.326   9.977   2.151  0.3908  0.3595  0.0395
  548MOL0     C73857   3.344   9.940   2.296 -0.0296  0.1348 -0.0061
  548MOL0     C73858   3.421  10.046   2.394  0.7893 -0.1004  0.5206
  548MOL0     C73859   3.438   9.998   2.542 -0.0600 -0.4448 -0.9433
  548MOL0     C73860   3.512  10.098   2.632 -0.3689  0.0664 -0.6746
  548MOL0     C73861   3.454  10.234   2.636 -0.1164 -0.5429 -0.9834
  548MOL0     N73862   3.475  10.297   2.762  0.5516  0.1973  0.2744
  548MOL0     C73863   3.391  10.305   2.872  0.0612 -0.5706  0.6676
  548MOL0     C73864   3.467  10.378   2.960  0.5986 -0.3236 -0.9160
  548MOL0     C73865   3.408  10.422   3.093 -0.1742 -0.1447 -0.7478
  548MOL0     C73866   3.373  10.571   3.095  0.4440  0.7326  0.7782
  548MOL0     C73867   3.466  10.680   3.143  0.1604  0.6747 -0.3711
  548MOL0     C73868   3.530  10.678   3.276 -0.2404  0.7092  0.2440
  548MOL0     O73869   3.583  10.805   3.315 -0.1662 -0.0712 -0.0135
  548MOL0     C73870   3.692  10.816   3.387  0.0011 -0.6389 -0.7402
  548MOL0     C73871   3.774  10.924   3.382 -0.8791 -0.1860 -0.8177
  548MOL0     C73872   3.879  10.929   3.468 -0.1990 -0.0256  0.2618
  548MOL0     C73873   3.903  10.824   3.567  0.0057  0.2195 -0.9311
  548MOL0     C73874   4.018  10.827   3.660  0.5793  0.4923 -0.4066
  548MOL0     O73875   4.026  10.718   3.749 -0.0720  0.8211  0.2413
  548MOL0     C73876   4.142  10.698   3.825  0.5817  0.1318  0.9799
  548MOL0     C73877   4.217  10.807   3.876 -0.0142 -0.0770  0.2776
  548MOL0     C73878   4.346  10.791   3.929 -0.6086  0.5592 -0.2058
  548MOL0     C73879   4.380  10.660   3.961  1.1506 -0.1501 -0.5344
  548MOL0     O73880   4.500  10.639   4.028  0.7062 -0.4854 -0.3744
  548MOL0     C73881   4.515  10.529   4.111 -0.1880 -0.4409 -0.3629
  548MOL0     C73882   4.417  10.520   4.238  0.0172 -0.1637  0.0009
  548MOL0     C73883   4.416  10.377   4.287 -0.3716 -0.3454 -0.3638
  548MOL0     C73884   4.442  10.371   4.437 -0.1152 -0.5825 -0.5425
  548MOL0     C73885   4.598  10.359   4.475  0.7278  0.2304 -0.2341
  548MOL0     C73886   4.627  10.363   4.625 -0.2884 -0.0594 -0.3698
  548MOL0     C73887   4.548  10.255   4.702  0.0002 -0.8275  0.3373
  548MOL0     C73888   4.587  10.239   4.844 -0.4300 -0.0044 -0.3410
  548MOL0    Cl73889   4.546  10.068   4.888  0.1181 -0.0801  0.0551
  548MOL0     C73890   4.305  10.554   3.913  0.5080  0.0184  0.7619
  548MOL0     C73891   4.191  10.573   3.841  0.1556  0.4153 -0.1720
  548MOL0     O73892   4.095  10.917   3.642  0.1685  0.4254 -0.5219
  548MOL0     C73893   3.817  10.720   3.573 -1.5709  0.1845 -0.5586
  548MOL0     C73894   3.713  10.717   3.484 -0.9758  0.0114 -0.4677
  548MOL0     N73895   3.585  10.412   2.912 -0.1747  0.5828  0.7261
  548MOL0     N73896   3.595  10.353   2.800 -0.2081  0.1962 -0.4059
  548MOL0     C73897   2.925  10.268   1.797 -0.3765 -0.0371  0.4118
  548MOL0     C73898   2.885  10.302   1.669 -0.0186 -0.7139 -0.1408
  548MOL0     C73899   2.838  10.217   1.215 -0.7750 -0.3820 -0.8230
  548MOL0     C73900   2.935  10.279   1.130  0.3273 -0.3019 -0.4444
  548MOL0     C73901   2.892  10.324   1.003  0.6410 -0.4917 -1.1699
  548MOL0     C73902   2.756  10.298   0.960 -0.8650 -0.4802 -0.2245
  548MOL0     O73903   2.701  10.325   0.835  0.3124 -0.2143 -0.0080
  548MOL0     C73904   2.784  10.299   0.717 -0.5133  0.6935  0.1794
  548MOL0     C73905   2.728  10.159   0.655  0.3724  0.2052  0.8738
  548MOL0     C73906   2.577  10.154   0.640  0.4079  0.1941  0.2042
  548MOL0     C73907   2.538  10.058   0.525  0.2762  0.9423  0.6065
  548MOL0     C73908   2.404   9.995   0.554 -0.2374 -0.9035 -0.5080
  548MOL0     C73909   2.297   9.949   0.581 -0.0536 -0.5332  0.5324
  548MOL0     C73910   2.673  10.240   1.050 -0.3391  0.0146  0.0261
  548MOL0     C73911   2.714  10.190   1.175  0.4770  0.2789 -0.1711
  548MOL0     C73912   2.617  10.115   1.266  0.3690 -0.7843  0.0961
  548MOL0     H73913   3.150  10.164   1.495 -0.3344 -3.7328  1.2198
  548MOL0     H73914   3.213  10.103   1.714  1.2744  2.5258  2.3087
  548MOL0     H73915   3.247  10.063   1.931 -2.4488 -1.6381  1.1387
  548MOL0     H73916   3.290  10.238   1.969 -0.0320  0.8670 -0.2464
  548MOL0     H73917   3.143  10.065   2.178  2.0629 -2.3403  1.3652
  548MOL0     H73918   3.268  10.194   2.192 -3.0503  0.5275  1.4514
  548MOL0     H73919   3.429   9.991   2.115 -0.2767 -0.2384 -2.2828
  548MOL0     H73920   3.277   9.904   2.087  3.7806 -0.7643 -1.4989
  548MOL0     H73921   3.251   9.900   2.338  0.1975 -0.9239 -0.4720
  548MOL0     H73922   3.408   9.851   2.290 -0.8949 -0.6306  1.3451
  548MOL0     H73923   3.522  10.052   2.353  0.2156  0.4770 -0.8552
  548MOL0     H73924   3.364  10.139   2.396 -0.9870 -1.1490  1.3376
  548MOL0     H73925   3.347   9.958   2.588  0.3260 -1.3233 -0.9167
  548MOL0     H73926   3.505   9.912   2.543  2.0150  1.1008  0.0024
  548MOL0     H73927   3.616  10.096   2.600 -0.2521 -1.0420 -0.2715
  548MOL0     H73928   3.521  10.058   2.733 -0.4373  0.8801 -0.3389
  548MOL0     H73929   3.488  10.290   2.549  1.9232 -1.1152 -0.6140
  548MOL0     H73930   3.347  10.230   2.617  0.0015  1.7328 -2.5326
  548MOL0     H73931   3.286  10.279   2.888  0.6980 -2.4538  2.2059
  548MOL0     H73932   3.316  10.376   3.130  1.0410  1.2498  4.8867
  548MOL0     H73933   3.488  10.396   3.163  1.2631 -3.0260 -3.2214
  548MOL0     H73934   3.341  10.594   2.993  2.3552  2.5714  0.5403
  548MOL0     H73935   3.280  10.572   3.152 -2.1334  1.0455 -2.9990
  548MOL0     H73936   3.405  10.771   3.148 -0.7862  0.0542 -0.3138
  548MOL0     H73937   3.551  10.689   3.075 -0.1058  2.3514 -0.5286
  548MOL0     H73938   3.604  10.597   3.277  1.1365  1.9065  2.3374
  548MOL0     H73939   3.452  10.646   3.346  0.5717  0.2449  0.9614
  548MOL0     H73940   3.763  11.004   3.309 -0.3434  0.3773 -0.2942
  548MOL0     H73941   3.938  11.020   3.462  0.4719 -0.4730 -0.0458
  548MOL0     H73942   4.188  10.911   3.865 -0.7499 -0.2506  0.5250
  548MOL0     H73943   4.424  10.862   3.957  1.4740 -2.1740  1.4626
  548MOL0     H73944   4.492  10.452   4.037  0.8183  0.8037 -2.0514
  548MOL0     H73945   4.617  10.523   4.149 -1.3166  0.7128  3.2613
  548MOL0     H73946   4.464  10.583   4.314  0.4695  0.2548 -0.6185
  548MOL0     H73947   4.317  10.554   4.210  0.0112 -0.6752 -0.6215
  548MOL0     H73948   4.308  10.363   4.283 -1.3660  4.3959  2.2166
  548MOL0     H73949   4.466  10.303   4.224  0.7592  0.7776 -0.8315
  548MOL0     H73950   4.390  10.288   4.485  1.7124 -0.2795  2.2393
  548MOL0     H73951   4.386  10.454   4.480 -1.2028 -1.1348 -0.8568
  548MOL0     H73952   4.664  10.431   4.427  2.0844 -1.2923 -0.7373
  548MOL0     H73953   4.628  10.260   4.441  0.1282 -0.1616  0.3420
  548MOL0     H73954   4.733  10.350   4.644 -1.0252 -3.3405  2.5040
  548MOL0     H73955   4.598  10.463   4.660  2.1606  1.4095 -2.2310
  548MOL0     H73956   4.552  10.160   4.649 -3.5659 -1.9918  1.8103
  548MOL0     H73957   4.439  10.262   4.709  0.0744 -1.4105  3.3964
  548MOL0     H73958   4.689  10.271   4.869  0.8442 -1.9245 -2.6457
  548MOL0     H73959   4.527  10.311   4.900  0.0521  0.5174 -0.4856
  548MOL0     H73960   4.332  10.453   3.945  1.0571  0.0882  0.5224
  548MOL0     H73961   4.142  10.484   3.804  3.7257 -2.1021  0.5924
  548MOL0     H73962   3.839  10.646   3.649  2.3336  3.4908  1.9916
  548MOL0     H73963   3.648  10.630   3.498  1.6050 -1.9725 -0.0208
  548MOL0     H73964   2.852  10.305   1.868 -0.6472  0.7942 -0.2767
  548MOL0     H73965   2.785  10.344   1.659  0.6266  1.4645  1.5773
  548MOL0     H73966   3.036  10.296   1.166  0.8635 -0.8062 -1.6545
  548MOL0     H73967   2.959  10.368   0.929  1.4648 -0.5590 -0.4878
  548MOL0     H73968   2.890  10.288   0.740  0.2921  0.7286 -3.0609
  548MOL0     H73969   2.776  10.386   0.650 -0.9910 -0.7852 -1.7786
  548MOL0     H73970   2.751  10.080   0.728 -1.5554 -0.7685  0.4971
  548MOL0     H73971   2.772  10.137   0.557 -0.5605  5.5454 -1.0274
  548MOL0     H73972   2.538  10.254   0.617  1.5868  0.3635 -1.2967
  548MOL0     H73973   2.530  10.137   0.737  0.9073  1.2168  0.6400
  548MOL0     H73974   2.540  10.108   0.427  0.3727 -2.2536 -1.1505
  548MOL0     H73975   2.614   9.987   0.492 -0.6224  0.2824 -0.1051
  548MOL0     H73976   2.214   9.889   0.614 -0.6398 -2.6653 -3.9902
  548MOL0     H73977   2.573  10.228   1.009 -0.9506  2.1418  0.8146
  548MOL0     H73978   2.599  10.169   1.359 -0.8342 -0.4254 -0.3238
  548MOL0     H73979   2.517  10.111   1.221 -0.1038 -0.5010  1.0817
  548MOL0     H73980   2.651  10.016   1.298  1.7063 -0.4960 -0.3902
  549MOL0     O73981   0.530   5.981   8.196 -0.4670  0.0392 -0.2405
  549MOL0     C73982   0.657   6.001   8.211 -0.8942  0.2451  0.1875
  549MOL0     O73983   0.745   5.931   8.293  0.0472  0.3807 -0.8153
  549MOL0     C73984   0.690   5.829   8.363  0.0477  0.3354  0.3202
  549MOL0     C73985   0.661   5.836   8.494 -0.6585  0.0623 -0.3778
  549MOL0     C73986   0.584   5.738   8.567 -0.1757  0.2057 -0.1386
  549MOL0     C73987   0.544   5.626   8.505  0.1752 -0.2019 -0.6911
  549MOL0     O73988   0.471   5.531   8.567 -1.0686  0.6254 -0.2202
  549MOL0     C73989   0.421   5.552   8.699  0.5255  0.1198 -0.9468
  549MOL0     C73990   0.321   5.441   8.732  0.4423  0.5131 -0.0799
  549MOL0     C73991   0.179   5.459   8.667 -0.1219  0.5127 -0.5814
  549MOL0     C73992   0.087   5.342   8.700 -1.3497  0.5753  0.1356
  549MOL0     C73993  -0.051   5.333   8.624 -0.1787  0.1951  0.1756
  549MOL0     C73994  -0.135   5.201   8.644 -0.3967  0.0648 -0.7990
  549MOL0     C73995  -0.074   5.078   8.580  0.1433  0.9498  0.7653
  549MOL0     C73996  -0.175   4.967   8.558  0.7220  0.1348 -0.0252
  549MOL0     N73997  -0.217   4.902   8.689 -0.0064 -0.0848 -0.1685
  549MOL0     C73998  -0.140   4.856   8.799 -0.3287  0.0617 -0.1411
  549MOL0     C73999  -0.225   4.801   8.882 -0.7839  0.8401 -0.4773
  549MOL0     C74000  -0.183   4.755   9.019  0.5715 -0.3915 -0.3923
  549MOL0     C74001  -0.296   4.656   9.078  0.2749  0.2326 -0.3283
  549MOL0     C74002  -0.264   4.620   9.221  0.4700 -0.0205 -0.0639
  549MOL0     C74003  -0.396   4.540   9.259 -0.3253  0.8765  0.1722
  549MOL0     O74004  -0.368   4.449   9.362 -0.2340  0.2529  0.7989
  549MOL0     C74005  -0.384   4.497   9.489 -0.5148 -0.1725  0.2485
  549MOL0     C74006  -0.379   4.626   9.534 -0.1903 -0.7261 -0.9266
  549MOL0     C74007  -0.393   4.656   9.667  0.2225  0.0481  0.2367
  549MOL0     C74008  -0.427   4.553   9.761  0.8848 -0.5160  0.1396
  549MOL0     C74009  -0.451   4.591   9.894  0.0611  0.0195 -0.8185
  549MOL0     O74010  -0.485   4.485   9.984  0.1360 -0.7923  0.0685
  549MOL0     C74011  -0.486   4.492  10.117  0.1348 -0.0730 -0.4524
  549MOL0     C74012  -0.541   4.599  10.191 -0.1956  0.2886 -0.3809
  549MOL0     C74013  -0.551   4.586  10.331 -0.0220  0.9989 -0.1463
  549MOL0     C74014  -0.484   4.480  10.402  0.1169  0.8352  0.4361
  549MOL0     O74015  -0.485   4.471  10.538 -0.0295  0.8198  0.4435
  549MOL0     C74016  -0.499   4.344  10.602  0.0681  0.4775 -0.8115
  549MOL0     C74017  -0.566   4.364  10.737  0.7996 -0.6573  0.2553
  549MOL0     C74018  -0.716   4.408  10.723  0.9438 -0.0975 -0.7375
  549MOL0     C74019  -0.781   4.436  10.858  0.2233 -0.5617  0.2630
  549MOL0     C74020  -0.918   4.506  10.858 -0.0138  0.0298  0.0153
  549MOL0     C74021  -1.016   4.463  10.753  0.5666 -0.6066  0.2806
  549MOL0     C74022  -1.059   4.324  10.779 -0.3100 -0.2563 -0.6211
  549MOL0     C74023  -1.166   4.284  10.671 -0.7066 -0.0311 -0.5456
  549MOL0    Cl74024  -1.105   4.242  10.509 -0.2631  0.0169 -0.1294
  549MOL0     C74025  -0.423   4.380  10.320  0.2173 -0.1023  0.6864
  549MOL0     C74026  -0.432   4.375  10.183  0.6141 -0.3192  1.0867
  549MOL0     O74027  -0.430   4.713   9.921 -0.8131  0.3505  0.1131
  549MOL0     C74028  -0.439   4.421   9.717  0.1589 -0.1164 -0.9706
  549MOL0     C74029  -0.413   4.402   9.581 -0.4053  0.9476 -0.1325
  549MOL0     N74030  -0.340   4.794   8.816  0.1626  0.5253  0.9143
  549MOL0     N74031  -0.341   4.860   8.709  0.8497 -0.7086 -0.0214
  549MOL0     C74032   0.583   5.608   8.372 -0.9596 -0.2053  0.2810
  549MOL0     C74033   0.654   5.703   8.301 -0.0800 -0.7355  0.3840
  549MOL0     C74034   0.715   6.097   8.111  0.3509 -0.3004  1.0049
  549MOL0     C74035   0.843   6.066   8.053  0.4999  0.1876  0.1703
  549MOL0     C74036   0.900   6.152   7.949 -0.2129  0.4842  0.4469
  549MOL0     C74037   0.825   6.256   7.898 -0.5055  0.5324 -0.0722
  549MOL0     O74038   0.860   6.342   7.792 -0.4833 -0.0699  0.2840
  549MOL0     C74039   0.912   6.476   7.834  0.3616  1.4564  0.2729
  549MOL0     C74040   1.066   6.499   7.820  0.0128 -0.0389 -0.5543
  549MOL0     C74041   1.131   6.433   7.698 -0.2395  0.3930 -0.3195
  549MOL0     C74042   1.053   6.455   7.563  0.0503 -0.2712 -1.3933
  549MOL0     C74043   1.081   6.349   7.462  1.1841 -0.0218  0.1889
  549MOL0     C74044   1.105   6.286   7.366 -0.2783  0.1616 -0.6343
  549MOL0     C74045   0.699   6.284   7.948 -0.4574 -0.8746  0.3344
  549MOL0     C74046   0.639   6.211   8.056 -0.2863  0.1383  0.8710
  549MOL0     C74047   0.507   6.258   8.103 -0.8559  0.3337  0.2748
  549MOL0     H74048   0.687   5.931   8.538 -1.6535  0.3319 -0.3496
  549MOL0     H74049   0.551   5.753   8.669  0.1912 -4.2522  0.8382
  549MOL0     H74050   0.501   5.545   8.773  0.2495 -2.3193 -0.8162
  549MOL0     H74051   0.382   5.654   8.706  3.2792  1.1503  0.4376
  549MOL0     H74052   0.321   5.438   8.842 -1.0500 -1.3553 -0.0807
  549MOL0     H74053   0.357   5.343   8.701 -0.2556  0.9557 -2.5351
  549MOL0     H74054   0.181   5.481   8.559 -0.8014  1.6371 -0.3894
  549MOL0     H74055   0.127   5.539   8.721 -0.8208 -0.8018  0.7583
  549MOL0     H74056   0.131   5.242   8.691  2.5900  1.9668  1.7318
  549MOL0     H74057   0.069   5.347   8.808 -0.5775 -1.1911  0.3930
  549MOL0     H74058  -0.099   5.423   8.662 -0.4226  1.0334 -1.9614
  549MOL0     H74059  -0.027   5.348   8.518  3.7526  1.7511  1.1023
  549MOL0     H74060  -0.166   5.196   8.748 -2.3670  2.4157 -1.1783
  549MOL0     H74061  -0.228   5.218   8.588  0.4601  1.8198 -1.7825
  549MOL0     H74062   0.004   5.041   8.646  0.6080  0.2610 -0.1387
  549MOL0     H74063  -0.021   5.104   8.488  1.8371 -4.2830 -0.0447
  549MOL0     H74064  -0.261   4.998   8.497 -0.3297 -0.9975  0.8219
  549MOL0     H74065  -0.124   4.890   8.500  1.3298 -0.3422  1.1045
  549MOL0     H74066  -0.033   4.869   8.813  0.1291 -0.1268 -2.9239
  549MOL0     H74067  -0.091   4.696   9.010  0.2828 -1.2548  1.7580
  549MOL0     H74068  -0.163   4.841   9.084  0.4805 -0.4738 -0.2554
  549MOL0     H74069  -0.393   4.707   9.075  0.1086 -0.1258 -0.9738
  549MOL0     H74070  -0.310   4.569   9.014  0.4502 -0.8236  1.0319
  549MOL0     H74071  -0.234   4.705   9.283  0.9929  0.3771 -0.8457
  549MOL0     H74072  -0.180   4.551   9.203 -2.3604 -3.3986 -1.5518
  549MOL0     H74073  -0.430   4.478   9.175 -0.9525 -0.6927  1.5210
  549MOL0     H74074  -0.482   4.602   9.283 -2.8478 -2.6339  1.1129
  549MOL0     H74075  -0.347   4.702   9.463 -2.2825 -1.2623 -2.5449
  549MOL0     H74076  -0.368   4.760   9.688 -0.2956  0.3634 -0.6475
  549MOL0     H74077  -0.602   4.671  10.137 -2.5759 -1.1396  0.2317
  549MOL0     H74078  -0.609   4.664  10.379 -0.7180  1.4465 -1.6408
  549MOL0     H74079  -0.553   4.270  10.544 -2.6845  1.8202 -0.1261
  549MOL0     H74080  -0.398   4.303  10.613  0.5128  1.9438  1.2847
  549MOL0     H74081  -0.563   4.268  10.788 -2.4065 -0.2813  1.3784
  549MOL0     H74082  -0.513   4.437  10.800  1.0197 -0.3125 -0.3226
  549MOL0     H74083  -0.722   4.498  10.661  0.9370  0.1971 -0.3160
  549MOL0     H74084  -0.770   4.337  10.660  2.7944 -1.2008 -1.1470
  549MOL0     H74085  -0.709   4.497  10.913  0.3357  0.6784 -1.1926
  549MOL0     H74086  -0.802   4.341  10.907 -2.7129 -0.4825 -0.6442
  549MOL0     H74087  -0.887   4.611  10.848 -0.1287  0.0812  0.1906
  549MOL0     H74088  -0.971   4.510  10.954  2.7914  0.1110  1.6594
  549MOL0     H74089  -1.095   4.539  10.761  2.1769  1.3551 -1.2506
  549MOL0     H74090  -0.981   4.475  10.650 -0.1454 -1.5656 -0.0843
  549MOL0     H74091  -1.100   4.324  10.880  0.7261  0.8046 -0.1768
  549MOL0     H74092  -0.971   4.260  10.778  3.1216  3.9926 -0.8989
  549MOL0     H74093  -1.219   4.193  10.702  0.1825 -0.4578 -0.2585
  549MOL0     H74094  -1.234   4.369  10.661 -1.1410 -0.4392 -1.1172
  549MOL0     H74095  -0.394   4.289  10.372  1.3137  0.3443  0.8801
  549MOL0     H74096  -0.398   4.285  10.133 -1.4641 -1.3780  1.4770
  549MOL0     H74097  -0.456   4.344   9.792  0.4007  1.4896  0.8097
  549MOL0     H74098  -0.408   4.298   9.551  3.0222  1.0233 -0.1703
  549MOL0     H74099   0.570   5.508   8.331 -2.4858 -0.1816  0.6230
  549MOL0     H74100   0.687   5.686   8.199  4.7563 -1.4897  1.8291
  549MOL0     H74101   0.904   5.981   8.082  0.2513 -0.0708 -0.0516
  549MOL0     H74102   0.999   6.137   7.908 -0.7266 -0.7146 -0.4529
  549MOL0     H74103   0.900   6.483   7.942  1.5306  0.9986  0.4454
  549MOL0     H74104   0.862   6.562   7.787 -0.0415  1.3987  0.5910
  549MOL0     H74105   1.108   6.462   7.913 -1.4313 -3.2304 -1.0603
  549MOL0     H74106   1.095   6.605   7.823  2.2033 -0.6022  1.4270
  549MOL0     H74107   1.128   6.326   7.721  1.8590  0.4840  0.6480
  549MOL0     H74108   1.239   6.449   7.688  0.2209 -2.8075 -1.8106
  549MOL0     H74109   0.947   6.461   7.589  0.9246 -1.3762  3.3412
  549MOL0     H74110   1.077   6.556   7.529  2.3477  0.2613  1.3792
  549MOL0     H74111   1.130   6.221   7.285  1.7563  0.6051 -0.4102
  549MOL0     H74112   0.636   6.350   7.888  2.4124  1.6896 -0.1089
  549MOL0     H74113   0.422   6.264   8.034 -0.7039  0.3608  0.0916
  549MOL0     H74114   0.488   6.212   8.201  0.6434  1.1344  0.9805
  549MOL0     H74115   0.527   6.362   8.131 -0.9870  0.6345 -0.7042
  550MOL0     O74116   6.647  10.136   2.254 -0.4872 -0.5475  0.0963
  550MOL0     C74117   6.766  10.171   2.260 -0.3240 -0.6048  1.2571
  550MOL0     O74118   6.809  10.276   2.337 -0.6311 -0.3584  0.3152
  550MOL0     C74119   6.740  10.322   2.450  0.4772  0.2425  0.1254
  550MOL0     C74120   6.775  10.281   2.580  0.0126 -0.7180 -0.1367
  550MOL0     C74121   6.700  10.341   2.692 -0.5896 -0.3427  0.1174
  550MOL0     C74122   6.613  10.448   2.665 -0.4376  0.2510  0.2516
  550MOL0     O74123   6.553  10.506   2.777 -0.5164 -0.3227 -0.5586
  550MOL0     C74124   6.481  10.632   2.756 -0.8948  0.3955 -0.5124
  550MOL0     C74125   6.432  10.689   2.897 -1.0236  0.6979 -0.3762
  550MOL0     C74126   6.362  10.818   2.901 -0.9195 -0.0094 -0.1702
  550MOL0     C74127   6.212  10.810   2.860 -0.5992  0.2912 -0.0599
  550MOL0     C74128   6.167  10.928   2.771  1.0284 -0.3407 -0.4315
  550MOL0     C74129   6.197  11.062   2.828  0.0402 -0.6743  1.4361
  550MOL0     C74130   6.134  11.177   2.751 -0.5410 -0.2416 -0.3630
  550MOL0     C74131   5.992  11.176   2.702  0.0706 -0.4662 -0.1861
  550MOL0     N74132   5.933  11.304   2.673 -1.0304  0.1221 -0.9254
  550MOL0     C74133   5.904  11.389   2.781 -0.0293  0.6806  0.2248
  550MOL0     C74134   5.857  11.497   2.717  0.0647  0.5180 -0.6634
  550MOL0     C74135   5.810  11.632   2.775  0.7851 -0.1053 -0.1935
  550MOL0     C74136   5.705  11.615   2.881  0.0836  0.7208 -0.2666
  550MOL0     C74137   5.626  11.743   2.908  0.5725  0.6472 -0.1512
  550MOL0     C74138   5.503  11.716   2.987 -0.1186  0.0878 -0.1158
  550MOL0     O74139   5.422  11.839   2.976  0.1766 -0.4256 -0.5890
  550MOL0     C74140   5.421  11.916   3.090  0.9400 -0.2183  0.3033
  550MOL0     C74141   5.503  12.024   3.095 -0.7657  0.7031  0.2107
  550MOL0     C74142   5.503  12.103   3.210 -0.2340  0.9051 -0.9539
  550MOL0     C74143   5.420  12.071   3.323  0.2014 -0.2147 -0.0427
  550MOL0     C74144   5.430  12.145   3.454 -0.2660 -0.0541 -1.0251
  550MOL0     O74145   5.548  12.207   3.483  0.1126 -0.1245 -0.1420
  550MOL0     C74146   5.565  12.260   3.612 -0.3029 -0.1583  0.2984
  550MOL0     C74147   5.544  12.187   3.730  0.7195  0.9156  0.0580
  550MOL0     C74148   5.592  12.231   3.854 -0.0304 -0.7521  0.2398
  550MOL0     C74149   5.644  12.362   3.852  0.1884 -0.3583  0.2563
  550MOL0     O74150   5.695  12.436   3.953 -0.4287  0.1488 -0.2167
  550MOL0     C74151   5.748  12.360   4.063  0.0109 -0.6786  0.3767
  550MOL0     C74152   5.865  12.252   4.041 -0.5337  0.4706 -0.0016
  550MOL0     C74153   5.882  12.153   4.157 -0.1099 -0.2968 -0.1454
  550MOL0     C74154   6.016  12.083   4.175 -0.3066 -0.2933  0.2641
  550MOL0     C74155   5.985  11.977   4.285  0.0951 -0.4161  0.2302
  550MOL0     C74156   6.117  11.890   4.301  0.8955 -0.2935 -0.3687
  550MOL0     C74157   6.119  11.819   4.439  0.1770  0.6807  0.6471
  550MOL0     C74158   6.256  11.751   4.481 -0.1088 -0.2109  0.3888
  550MOL0    Cl74159   6.289  11.616   4.367 -0.6183  0.3030 -0.2490
  550MOL0     C74160   5.640  12.444   3.735  0.3416 -0.0064 -0.2485
  550MOL0     C74161   5.605  12.390   3.617 -0.0279  0.0927  0.4572
  550MOL0     O74162   5.343  12.120   3.542 -0.7130 -0.3227  0.6637
  550MOL0     C74163   5.326  11.964   3.305  1.0213 -0.7908 -0.8359
  550MOL0     C74164   5.324  11.891   3.188 -0.5749 -0.7182  0.2378
  550MOL0     N74165   5.842  11.474   2.585  0.7392  0.0680  0.0220
  550MOL0     N74166   5.902  11.362   2.552  0.7037 -0.2149  0.2359
  550MOL0     C74167   6.600  10.495   2.537  0.4563 -0.6221 -0.1783
  550MOL0     C74168   6.655  10.428   2.433  0.2755  0.6270  0.2798
  550MOL0     C74169   6.862  10.108   2.157  1.0636  0.8054 -0.9924
  550MOL0     C74170   6.978  10.177   2.136  0.6755 -0.5699 -0.3177
  550MOL0     C74171   7.069  10.133   2.040  0.3735 -0.1296 -0.2035
  550MOL0     C74172   7.043  10.025   1.958  0.0030  0.0174 -0.7330
  550MOL0     O74173   7.131  10.003   1.858 -0.8754 -0.6727  0.4404
  550MOL0     C74174   7.135  10.071   1.737  0.3583 -0.3437 -0.5416
  550MOL0     C74175   7.263  10.156   1.756  0.6715  0.2722  0.0787
  550MOL0     C74176   7.391  10.068   1.775  1.1211  0.3088 -0.6524
  550MOL0     C74177   7.520  10.148   1.751  0.4434 -0.1028  0.6707
  550MOL0     C74178   7.554  10.250   1.849  0.2424  0.2711 -0.1845
  550MOL0     C74179   7.564  10.331   1.938  0.7228  0.9571 -0.9638
  550MOL0     C74180   6.927   9.948   1.980  0.8271  0.2069  1.1065
  550MOL0     C74181   6.839   9.982   2.089  0.4665 -1.1965 -0.6751
  550MOL0     C74182   6.707   9.916   2.075  0.0232 -0.2805 -0.8757
  550MOL0     H74183   6.853  10.206   2.589  0.1173 -0.3768  2.5467
  550MOL0     H74184   6.729  10.316   2.794  0.5993  1.0532  0.1467
  550MOL0     H74185   6.556  10.708   2.731 -0.4868 -0.4283 -1.9459
  550MOL0     H74186   6.392  10.629   2.692  0.3071  3.0145 -2.5111
  550MOL0     H74187   6.525  10.707   2.953 -0.2462  1.6401 -1.8960
  550MOL0     H74188   6.377  10.613   2.952  0.6619  0.3146  0.8544
  550MOL0     H74189   6.421  10.891   2.845 -2.2252 -0.4774 -2.2564
  550MOL0     H74190   6.360  10.867   2.999 -0.2212  1.4000 -0.8427
  550MOL0     H74191   6.192  10.719   2.803  1.7053 -1.4809  1.7827
  550MOL0     H74192   6.144  10.809   2.945 -2.1968 -1.5964 -1.2895
  550MOL0     H74193   6.215  10.931   2.673  1.6412  2.1822 -0.1335
  550MOL0     H74194   6.060  10.912   2.755  0.0526  1.5965  3.0127
  550MOL0     H74195   6.173  11.074   2.934 -2.2920 -0.3147  0.9341
  550MOL0     H74196   6.303  11.085   2.827  0.3052 -1.8413  1.4329
  550MOL0     H74197   6.190  11.194   2.658 -0.0868 -1.2409 -0.2894
  550MOL0     H74198   6.155  11.264   2.813 -1.1797 -0.2684 -0.1040
  550MOL0     H74199   5.984  11.113   2.613 -0.5602 -1.4692  0.5583
  550MOL0     H74200   5.935  11.134   2.786 -0.4202  4.9259  2.5912
  550MOL0     H74201   5.902  11.380   2.889 -2.7089 -0.1244  0.1827
  550MOL0     H74202   5.902  11.679   2.811  1.4873 -0.9201 -0.8709
  550MOL0     H74203   5.766  11.688   2.691 -0.1494 -1.3782 -0.5910
  550MOL0     H74204   5.629  11.539   2.860  0.7212 -0.9032  2.6697
  550MOL0     H74205   5.748  11.585   2.978 -3.7869  0.5367  1.5674
  550MOL0     H74206   5.598  11.783   2.810  4.1385  2.2067 -0.6645
  550MOL0     H74207   5.682  11.824   2.955 -1.2684  1.8165  0.1289
  550MOL0     H74208   5.531  11.700   3.091  1.5620 -2.2708 -0.8599
  550MOL0     H74209   5.457  11.622   2.955 -1.2067  0.8443 -0.8426
  550MOL0     H74210   5.576  12.042   3.016  0.6645 -1.4102  0.9512
  550MOL0     H74211   5.573  12.184   3.225 -1.4746  2.1362 -1.6284
  550MOL0     H74212   5.508  12.085   3.717  0.4905  1.1323 -1.0407
  550MOL0     H74213   5.595  12.160   3.936  2.4298  2.5335  3.3253
  550MOL0     H74214   5.800  12.434   4.124  0.1815 -2.9073  3.1656
  550MOL0     H74215   5.669  12.321   4.128  0.1349 -3.1143 -0.7911
  550MOL0     H74216   5.863  12.181   3.957 -0.9253 -2.4099  2.3039
  550MOL0     H74217   5.954  12.315   4.029 -0.2703  0.0533 -0.3047
  550MOL0     H74218   5.851  12.213   4.243  1.4757  0.4425 -0.0499
  550MOL0     H74219   5.816  12.068   4.139  3.7172 -3.6399  0.2068
  550MOL0     H74220   6.095  12.153   4.201  0.4030 -1.7736  2.3359
  550MOL0     H74221   6.058  12.042   4.083  1.2116  0.6466  0.5165
  550MOL0     H74222   5.894  11.918   4.269 -0.6759  1.0759 -1.1049
  550MOL0     H74223   5.974  12.032   4.379 -1.6209  1.3604 -0.9435
  550MOL0     H74224   6.121  11.825   4.213 -2.0648 -2.6328  1.0617
  550MOL0     H74225   6.195  11.968   4.304 -0.9135  1.7160 -2.2297
  550MOL0     H74226   6.040  11.743   4.442 -1.6747  2.4431 -0.5465
  550MOL0     H74227   6.104  11.894   4.517  1.9068 -0.7809  2.4882
  550MOL0     H74228   6.330  11.832   4.482 -0.7842  0.4567 -0.7198
  550MOL0     H74229   6.235  11.714   4.581  0.2985  1.9203  1.3224
  550MOL0     H74230   5.671  12.548   3.746 -0.2802  0.2556 -0.8837
  550MOL0     H74231   5.594  12.438   3.521  1.9582  1.8066  1.0138
  550MOL0     H74232   5.248  11.941   3.377  0.0183 -1.3694 -2.0698
  550MOL0     H74233   5.249  11.818   3.163 -0.1283 -0.7705 -0.9925
  550MOL0     H74234   6.540  10.584   2.522  1.8610  0.8505  2.1831
  550MOL0     H74235   6.635  10.466   2.333 -1.1161 -1.6567 -0.3664
  550MOL0     H74236   7.001  10.254   2.210 -0.3816 -0.2407 -0.3118
  550MOL0     H74237   7.157  10.197   2.044 -1.4198  2.6802 -1.9335
  550MOL0     H74238   7.050  10.139   1.725  1.0795  0.1792 -3.7541
  550MOL0     H74239   7.136   9.998   1.656  1.2095 -1.4462  0.4212
  550MOL0     H74240   7.245  10.223   1.840 -2.3724 -0.0079 -0.2349
  550MOL0     H74241   7.260  10.219   1.666 -1.9335 -0.9164 -0.7665
  550MOL0     H74242   7.395   9.978   1.713  1.9381 -3.0231  3.7066
  550MOL0     H74243   7.391  10.030   1.878  0.9152  0.0339 -0.7552
  550MOL0     H74244   7.602  10.076   1.739  0.2805 -1.0287  4.0649
  550MOL0     H74245   7.523  10.209   1.660  0.5262 -0.7324  0.2466
  550MOL0     H74246   7.570  10.409   2.011 -0.1188  1.2278 -1.1719
  550MOL0     H74247   6.907   9.875   1.903  0.7774  0.0389  1.2768
  550MOL0     H74248   6.623   9.978   2.044 -0.3821  2.1217  4.0138
  550MOL0     H74249   6.702   9.831   2.006 -2.1392 -1.8210  1.0172
  550MOL0     H74250   6.677   9.867   2.168 -0.3273  2.3776  0.4904
  551MOL0     O74251  10.405   4.874   6.352  0.1918 -0.7289  0.0823
  551MOL0     C74252  10.456   4.961   6.424 -0.0173 -0.1785  0.1492
  551MOL0     O74253  10.471   4.947   6.556 -0.7395 -0.2815 -0.0312
  551MOL0     C74254  10.451   4.824   6.607 -0.1738 -0.2438  1.1173
  551MOL0     C74255  10.539   4.715   6.572  0.7320  0.0607  0.0302
  551MOL0     C74256  10.508   4.585   6.614  0.4989  0.6093  0.4088
  551MOL0     C74257  10.396   4.560   6.694  0.9036 -0.3312  0.4079
  551MOL0     O74258  10.363   4.431   6.715 -0.0778  0.4993  0.8907
  551MOL0     C74259  10.347   4.393   6.855 -0.5141  0.8900 -0.0975
  551MOL0     C74260  10.283   4.250   6.862  0.0719  0.5656 -0.0768
  551MOL0     C74261  10.382   4.129   6.899 -1.0883  0.5736 -0.0553
  551MOL0     C74262  10.331   3.987   6.856 -0.3160 -0.8488 -0.2854
  551MOL0     C74263  10.200   3.951   6.924  0.2718  0.1481 -0.0482
  551MOL0     C74264  10.224   3.912   7.070  0.4727 -0.3426 -0.0962
  551MOL0     C74265  10.091   3.942   7.151  0.2508  0.4863 -0.2064
  551MOL0     C74266  10.117   3.964   7.299 -0.2463  0.0117  0.8428
  551MOL0     N74267  10.151   3.828   7.360 -0.2035 -0.1187 -0.0175
  551MOL0     C74268  10.063   3.733   7.419 -0.5446  0.8474 -0.4081
  551MOL0     C74269  10.131   3.623   7.454 -0.4883  1.0041  0.2107
  551MOL0     C74270  10.062   3.511   7.533  0.3563  0.1015 -0.3231
  551MOL0     C74271  10.139   3.463   7.654  0.4888  0.5035 -0.7558
  551MOL0     C74272  10.224   3.332   7.628 -0.7998  0.6764 -0.5701
  551MOL0     C74273  10.298   3.303   7.763 -0.9954  0.1219 -0.2498
  551MOL0     O74274  10.381   3.412   7.807 -0.1242  0.9330 -0.2876
  551MOL0     C74275  10.440   3.388   7.925 -0.6072  0.0677  0.0679
  551MOL0     C74276  10.555   3.461   7.955 -0.3159 -0.1155  0.8626
  551MOL0     C74277  10.639   3.448   8.067 -0.6801 -0.2204  0.0298
  551MOL0     C74278  10.609   3.335   8.148 -0.6478 -0.2674  0.4083
  551MOL0     C74279  10.689   3.322   8.277  0.4150  0.4288  0.7913
  551MOL0     O74280  10.658   3.209   8.355  0.3659 -0.1712  0.3036
  551MOL0     C74281  10.684   3.223   8.490  1.1343 -0.7773 -0.1953
  551MOL0     C74282  10.652   3.350   8.556 -0.0493  0.3052  0.4992
  551MOL0     C74283  10.681   3.363   8.696  0.1904  0.1908 -0.1464
  551MOL0     C74284  10.714   3.248   8.775 -0.5972  0.1938 -0.3284
  551MOL0     O74285  10.740   3.256   8.915 -0.2961  0.0599  0.1626
  551MOL0     C74286  10.614   3.280   8.982  0.0918  0.1576 -0.2006
  551MOL0     C74287  10.636   3.253   9.131 -0.5574 -0.0163 -1.3789
  551MOL0     C74288  10.650   3.109   9.176 -0.8415 -0.3609  0.2570
  551MOL0     C74289  10.779   3.036   9.135  0.8176  0.3960 -0.2754
  551MOL0     C74290  10.793   2.907   9.229  0.4182 -0.0821 -0.2501
  551MOL0     C74291  10.913   2.818   9.186  0.8755 -0.0924  0.0105
  551MOL0     C74292  10.907   2.677   9.247 -0.0833  0.1694 -0.2871
  551MOL0     C74293  10.788   2.586   9.210 -0.2509 -0.5035 -0.5582
  551MOL0    Cl74294  10.836   2.425   9.274 -0.5358 -0.0720 -0.1590
  551MOL0     C74295  10.735   3.129   8.716 -0.1765  1.5256 -0.3634
  551MOL0     C74296  10.726   3.114   8.574 -0.2437 -1.1593 -0.1195
  551MOL0     O74297  10.765   3.417   8.314  0.3562  0.6294 -0.0071
  551MOL0     C74298  10.497   3.265   8.124 -0.5367 -0.6339 -0.4469
  551MOL0     C74299  10.415   3.293   8.020 -0.6428  0.5700 -0.4783
  551MOL0     N74300  10.265   3.644   7.409  0.0684  0.5557 -1.1039
  551MOL0     N74301  10.273   3.770   7.360  0.3344  0.9723 -0.6696
  551MOL0     C74302  10.312   4.668   6.721 -0.2367  0.0698 -0.1235
  551MOL0     C74303  10.338   4.794   6.661  0.2197  0.4594 -1.0129
  551MOL0     C74304  10.486   5.094   6.371 -0.5051 -0.3862 -0.0474
  551MOL0     C74305  10.529   5.096   6.231 -0.4122  0.5101  0.6678
  551MOL0     C74306  10.604   5.202   6.183  0.4019 -0.4971 -0.2515
  551MOL0     C74307  10.604   5.319   6.257  1.2133 -0.5560 -0.3178
  551MOL0     O74308  10.657   5.440   6.211 -0.3407  0.6030  0.8921
  551MOL0     C74309  10.764   5.440   6.125 -0.8217 -0.1963  0.1884
  551MOL0     C74310  10.853   5.554   6.151  0.2786  0.7435 -0.0473
  551MOL0     C74311  10.787   5.687   6.106  0.9930 -0.4464 -0.6307
  551MOL0     C74312  10.866   5.797   6.148  0.3294  0.7588 -1.6559
  551MOL0     C74313  10.879   5.817   6.292 -0.4986  0.2518 -0.1128
  551MOL0     C74314  10.891   5.839   6.415 -0.0950 -0.1577 -0.0659
  551MOL0     C74315  10.547   5.325   6.386 -0.0480  0.2310 -0.6200
  551MOL0     C74316  10.484   5.216   6.443  0.7983 -0.3808  0.0036
  551MOL0     C74317  10.433   5.233   6.579 -0.5730  0.1038 -0.2033
  551MOL0     H74318  10.611   4.732   6.492 -2.5247  2.4224 -2.6676
  551MOL0     H74319  10.585   4.513   6.588  1.1062 -0.1546  3.8245
  551MOL0     H74320  10.446   4.387   6.900 -0.2594 -2.3458 -0.8069
  551MOL0     H74321  10.280   4.465   6.903 -4.4124 -1.2144 -1.8891
  551MOL0     H74322  10.228   4.239   6.768  0.6785  1.1895 -0.5206
  551MOL0     H74323  10.206   4.242   6.939  1.5820 -1.0725  1.3465
  551MOL0     H74324  10.392   4.134   7.008  1.5342  0.4891 -0.2480
  551MOL0     H74325  10.479   4.147   6.853 -0.0471 -2.0880  0.9033
  551MOL0     H74326  10.322   3.984   6.747  0.3965 -5.0893 -0.4201
  551MOL0     H74327  10.414   3.918   6.876 -1.9209 -3.5550 -2.2061
  551MOL0     H74328  10.131   4.036   6.917  2.2568  1.8688  0.3210
  551MOL0     H74329  10.168   3.871   6.856  4.4946  1.2295 -3.8435
  551MOL0     H74330  10.256   3.807   7.076  0.0796 -0.4576  0.0158
  551MOL0     H74331  10.300   3.969   7.125  1.0999 -1.9452  0.7841
  551MOL0     H74332  10.015   3.864   7.139  1.3817 -0.9992  1.6892
  551MOL0     H74333  10.047   4.034   7.111 -1.1063 -0.4919 -1.0531
  551MOL0     H74334  10.202   4.032   7.313  0.2580 -0.2757 -0.5950
  551MOL0     H74335  10.025   4.006   7.340  1.0612  3.4012  0.6237
  551MOL0     H74336   9.959   3.751   7.447 -1.0793 -2.3150  0.0136
  551MOL0     H74337   9.963   3.534   7.573  0.6194 -0.7511  0.8572
  551MOL0     H74338  10.050   3.431   7.459  1.9788 -0.7702  0.3217
  551MOL0     H74339  10.202   3.546   7.688 -0.1896  1.9420 -2.8170
  551MOL0     H74340  10.071   3.433   7.734 -0.4879  2.9390 -0.5863
  551MOL0     H74341  10.295   3.360   7.550  1.7725 -0.8747  1.0643
  551MOL0     H74342  10.177   3.240   7.593  1.7432 -0.7991 -0.3309
  551MOL0     H74343  10.364   3.216   7.751  0.2135  1.0419 -0.4311
  551MOL0     H74344  10.219   3.272   7.833  1.6987 -2.7593  1.8326
  551MOL0     H74345  10.583   3.534   7.879  0.5875  0.1990  1.4790
  551MOL0     H74346  10.727   3.506   8.090 -1.7614  1.4207  0.1729
  551MOL0     H74347  10.630   3.440   8.499 -0.1723 -1.1039 -1.8275
  551MOL0     H74348  10.684   3.463   8.737  2.4521  0.6249 -1.2427
  551MOL0     H74349  10.582   3.384   8.974  1.1927  0.8121  2.6158
  551MOL0     H74350  10.534   3.217   8.941 -1.9070  3.5296 -1.8719
  551MOL0     H74351  10.727   3.304   9.162  0.0406  0.8581 -4.2550
  551MOL0     H74352  10.548   3.279   9.189 -0.4776 -2.0672 -0.2173
  551MOL0     H74353  10.641   3.101   9.285 -0.1632 -0.8471  0.2804
  551MOL0     H74354  10.563   3.050   9.146 -2.6867  2.4699 -0.4018
  551MOL0     H74355  10.868   3.098   9.149  0.3105  0.7327  1.7587
  551MOL0     H74356  10.776   3.011   9.029  2.9346  2.8908 -1.0290
  551MOL0     H74357  10.702   2.846   9.230  1.8178 -2.4374  3.8087
  551MOL0     H74358  10.810   2.954   9.326  0.7201 -0.1661 -0.2605
  551MOL0     H74359  10.891   2.813   9.079 -2.6706 -1.5561  0.6456
  551MOL0     H74360  11.009   2.862   9.214  1.8400 -0.4464 -2.4939
  551MOL0     H74361  10.907   2.670   9.356 -2.5808  1.5827 -0.1159
  551MOL0     H74362  11.002   2.639   9.210 -0.1981  1.5188 -2.1200
  551MOL0     H74363  10.688   2.609   9.250 -0.4788  0.9497 -1.8604
  551MOL0     H74364  10.793   2.585   9.101 -1.5889  0.2431 -0.6485
  551MOL0     H74365  10.771   3.047   8.778 -0.0283  2.7953  1.2866
  551MOL0     H74366  10.743   3.019   8.526  1.8607 -1.1133  0.4585
  551MOL0     H74367  10.480   3.187   8.196  1.0051 -2.1913 -1.6763
  551MOL0     H74368  10.316   3.247   8.021  0.3191 -1.6464  0.9245
  551MOL0     H74369  10.223   4.641   6.777  0.5829 -1.1176  0.6539
  551MOL0     H74370  10.253   4.860   6.676  0.7080  1.3014 -1.8764
  551MOL0     H74371  10.528   5.011   6.163 -1.2840  0.6508  0.4995
  551MOL0     H74372  10.660   5.194   6.090  2.7083  0.6411  0.9473
  551MOL0     H74373  10.722   5.454   6.025  0.4934 -1.9001 -0.6413
  551MOL0     H74374  10.821   5.347   6.127 -3.1733 -1.7342  0.2994
  551MOL0     H74375  10.942   5.535   6.091 -1.6269 -0.6533 -2.6491
  551MOL0     H74376  10.867   5.551   6.260 -0.0134  2.3301  0.0742
  551MOL0     H74377  10.681   5.699   6.131  1.9420  1.7630  3.1324
  551MOL0     H74378  10.793   5.680   5.997 -0.5297 -0.1173 -0.7468
  551MOL0     H74379  10.966   5.784   6.105  1.9838  2.7567  1.2224
  551MOL0     H74380  10.817   5.882   6.102 -1.7845  0.1562 -0.6542
  551MOL0     H74381  10.899   5.872   6.516  2.5662  0.6809 -0.4732
  551MOL0     H74382  10.545   5.425   6.429 -1.9985  0.4297 -1.0675
  551MOL0     H74383  10.463   5.324   6.632 -1.1024 -0.2118  0.6575
  551MOL0     H74384  10.323   5.227   6.573 -0.6379 -0.2337  1.0364
  551MOL0     H74385  10.469   5.155   6.646  1.1374  2.7164  2.1627
  552MOL0     O74386   8.064   4.093   5.789 -0.2056  0.3384  0.9224
  552MOL0     C74387   8.162   4.172   5.791 -0.6766 -0.2451 -0.7402
  552MOL0     O74388   8.280   4.162   5.865 -0.1105  0.5261  0.1147
  552MOL0     C74389   8.298   4.063   5.946  0.5218 -0.0529  0.1290
  552MOL0     C74390   8.336   4.088   6.071  0.4055  0.1919 -0.1307
  552MOL0     C74391   8.363   3.985   6.163  0.6578 -0.2048  0.2933
  552MOL0     C74392   8.358   3.845   6.122  0.3992 -0.6643 -0.9048
  552MOL0     O74393   8.404   3.742   6.199 -0.3886  0.2621 -0.8367
  552MOL0     C74394   8.534   3.760   6.254 -0.2146 -0.4778  0.2782
  552MOL0     C74395   8.555   3.674   6.368  0.2243 -0.1573 -0.6662
  552MOL0     C74396   8.445   3.660   6.473 -0.4615  0.4747 -0.6454
  552MOL0     C74397   8.411   3.781   6.558  0.3384  0.3966  0.3964
  552MOL0     C74398   8.534   3.854   6.621  1.2372  0.0053  0.1624
  552MOL0     C74399   8.616   3.763   6.707 -0.1423  0.4318  0.4698
  552MOL0     C74400   8.566   3.708   6.839  0.1270 -0.2420  0.0225
  552MOL0     C74401   8.630   3.574   6.874  0.6569 -0.5169 -0.7478
  552MOL0     N74402   8.560   3.471   6.795 -0.1382  0.3029 -1.0328
  552MOL0     C74403   8.428   3.435   6.813  1.0515 -0.0276  0.5407
  552MOL0     C74404   8.410   3.328   6.734  0.7577  0.1426  1.0187
  552MOL0     C74405   8.279   3.254   6.714 -0.0798 -0.0894  0.1990
  552MOL0     C74406   8.200   3.309   6.595  0.1946 -0.3839  0.2935
  552MOL0     C74407   8.279   3.331   6.468 -0.6510  0.5392  0.1867
  552MOL0     C74408   8.300   3.210   6.380  0.1129 -0.3249 -0.4806
  552MOL0     O74409   8.173   3.146   6.334 -0.7411  1.1357  0.7259
  552MOL0     C74410   8.176   3.027   6.273 -0.8703  0.3513  1.5256
  552MOL0     C74411   8.052   2.983   6.234 -0.2933  1.1379  1.1153
  552MOL0     C74412   8.036   2.863   6.160 -0.6793  0.5835 -0.7773
  552MOL0     C74413   8.152   2.791   6.128  0.0925 -0.0236  0.2487
  552MOL0     C74414   8.138   2.665   6.054 -0.2350 -0.0639 -0.3780
  552MOL0     O74415   8.007   2.639   6.003 -0.8332  0.2188 -0.0007
  552MOL0     C74416   7.977   2.513   5.980  0.5139 -0.2860 -0.1635
  552MOL0     C74417   7.887   2.491   5.881  0.3462  0.3077 -0.6294
  552MOL0     C74418   7.841   2.364   5.845 -0.5482  1.1808 -0.9894
  552MOL0     C74419   7.886   2.256   5.920  0.2564  0.8563  1.1176
  552MOL0     O74420   7.845   2.127   5.899 -0.7117  0.6604  0.6727
  552MOL0     C74421   7.723   2.116   5.829 -0.1040 -0.0208 -0.0501
  552MOL0     C74422   7.683   1.972   5.847 -0.2055  0.1046  0.0841
  552MOL0     C74423   7.771   1.863   5.786  0.1946  0.8129 -0.2965
  552MOL0     C74424   7.754   1.717   5.842  0.2879  0.4322 -0.3266
  552MOL0     C74425   7.606   1.658   5.848 -0.1061 -0.7130  0.9789
  552MOL0     C74426   7.585   1.511   5.903 -0.1576  0.8917  0.3310
  552MOL0     C74427   7.438   1.480   5.934  0.5023  0.3550 -1.1016
  552MOL0     C74428   7.433   1.351   6.005 -0.2132 -0.4919 -0.0031
  552MOL0    Cl74429   7.258   1.296   6.023 -0.1789  0.1541 -0.3266
  552MOL0     C74430   7.978   2.274   6.022 -0.9730 -0.4935  0.1979
  552MOL0     C74431   8.014   2.403   6.056 -0.0638  0.5995  0.8202
  552MOL0     O74432   8.235   2.589   6.039  0.7578 -0.0584  0.7308
  552MOL0     C74433   8.283   2.837   6.177  0.6582  0.9042  0.5233
  552MOL0     C74434   8.286   2.955   6.251  0.3602  0.6217 -0.0124
  552MOL0     N74435   8.533   3.308   6.670  0.1259  0.0020  0.4570
  552MOL0     N74436   8.619   3.384   6.711 -0.0731  0.9041 -0.3033
  552MOL0     C74437   8.323   3.827   5.986 -0.3917  0.8577  0.4281
  552MOL0     C74438   8.288   3.927   5.904 -0.9702 -0.7252 -0.0344
  552MOL0     C74439   8.147   4.298   5.720  0.3331  0.0200  0.0691
  552MOL0     C74440   8.095   4.283   5.588  0.4552 -0.2020  0.1506
  552MOL0     C74441   8.064   4.396   5.516  0.3662  0.6688 -0.5991
  552MOL0     C74442   8.085   4.524   5.565  0.4140 -0.4612  0.1316
  552MOL0     O74443   8.062   4.642   5.491 -0.6826  1.1085 -0.6943
  552MOL0     C74444   8.050   4.626   5.353 -0.9114 -0.8935 -0.8156
  552MOL0     C74445   8.186   4.658   5.292  0.0357  0.0354 -0.5308
  552MOL0     C74446   8.286   4.537   5.310 -0.6672 -0.2680 -0.5221
  552MOL0     C74447   8.387   4.543   5.202  0.0392 -0.1451  0.9082
  552MOL0     C74448   8.510   4.464   5.244 -0.3767 -0.5068  1.1978
  552MOL0     C74449   8.597   4.380   5.252  0.0556  0.3081  0.3038
  552MOL0     C74450   8.129   4.537   5.696  0.0440 -1.0440  0.6269
  552MOL0     C74451   8.166   4.429   5.772  0.2084  1.2453 -0.3459
  552MOL0     C74452   8.211   4.442   5.916 -0.2459 -0.9135 -1.0248
  552MOL0     H74453   8.347   4.194   6.093  1.2761 -0.2046  1.5411
  552MOL0     H74454   8.398   4.017   6.260 -2.5169  0.3955  1.3602
  552MOL0     H74455   8.610   3.743   6.177  0.7565  1.2017  0.8053
  552MOL0     H74456   8.544   3.863   6.289 -1.7716 -0.6304  1.2394
  552MOL0     H74457   8.646   3.711   6.417 -0.7099  0.6649  0.5056
  552MOL0     H74458   8.582   3.573   6.336  2.6520  0.0902  0.3188
  552MOL0     H74459   8.476   3.576   6.536 -2.9899  0.2352  0.4051
  552MOL0     H74460   8.354   3.631   6.420 -0.6687 -0.6108  0.2467
  552MOL0     H74461   8.366   3.856   6.492  0.7315 -1.8990 -2.7117
  552MOL0     H74462   8.347   3.748   6.640 -1.7080 -0.1671 -1.3329
  552MOL0     H74463   8.599   3.892   6.543  0.5380  1.1271  0.1043
  552MOL0     H74464   8.492   3.930   6.688 -1.1642 -1.1140  0.0321
  552MOL0     H74465   8.663   3.685   6.647  2.5505  1.6466  0.8221
  552MOL0     H74466   8.702   3.825   6.734 -2.1377  1.7507  4.7041
  552MOL0     H74467   8.458   3.699   6.832  0.2008 -0.0147 -2.2524
  552MOL0     H74468   8.598   3.786   6.909  2.7581 -1.2347  0.0358
  552MOL0     H74469   8.735   3.582   6.844  1.2814  1.3998  1.6291
  552MOL0     H74470   8.623   3.567   6.983  1.2770  1.8231 -0.4954
  552MOL0     H74471   8.364   3.491   6.881  1.3048 -0.0800  0.8252
  552MOL0     H74472   8.310   3.150   6.699 -2.3464 -1.3745  3.2429
  552MOL0     H74473   8.224   3.252   6.809  0.6652 -0.7021  0.6283
  552MOL0     H74474   8.117   3.241   6.572  0.1397 -0.3668  0.4401
  552MOL0     H74475   8.167   3.404   6.638  2.1693  1.2439 -1.5036
  552MOL0     H74476   8.375   3.382   6.483  0.3611 -0.0321 -3.3614
  552MOL0     H74477   8.219   3.397   6.405  2.3136  2.3302 -0.9732
  552MOL0     H74478   8.377   3.145   6.422  0.5684 -0.1578 -1.0277
  552MOL0     H74479   8.359   3.230   6.290  0.2817 -1.4736 -0.6475
  552MOL0     H74480   7.963   3.035   6.268 -0.8251  0.6368  0.5100
  552MOL0     H74481   7.944   2.838   6.108  1.0844 -2.2638 -2.8316
  552MOL0     H74482   7.834   2.568   5.826  0.0247  0.5242 -0.0308
  552MOL0     H74483   7.765   2.348   5.769 -2.1222  2.1081  0.3236
  552MOL0     H74484   7.645   2.181   5.868 -0.9613  0.1316 -1.8972
  552MOL0     H74485   7.723   2.145   5.723  1.7823  3.6564  0.7895
  552MOL0     H74486   7.676   1.954   5.955  1.6480  0.1200  0.2555
  552MOL0     H74487   7.583   1.971   5.804  1.0436  2.9483 -3.3418
  552MOL0     H74488   7.741   1.861   5.681 -1.8881 -1.6662  0.2484
  552MOL0     H74489   7.877   1.890   5.797  0.5518 -1.2580  2.1362
  552MOL0     H74490   7.793   1.730   5.943  0.5001  6.6531 -0.8298
  552MOL0     H74491   7.812   1.655   5.773 -0.3699 -2.1177  1.2451
  552MOL0     H74492   7.562   1.664   5.748  3.3223  2.3582 -0.6340
  552MOL0     H74493   7.545   1.727   5.908  1.1419  1.1901  0.1885
  552MOL0     H74494   7.607   1.441   5.822 -0.4733  0.4040  0.6616
  552MOL0     H74495   7.649   1.487   5.988  2.6610 -0.3879 -1.9453
  552MOL0     H74496   7.386   1.471   5.838 -2.0798 -2.4126  0.3942
  552MOL0     H74497   7.388   1.557   5.993  1.7710 -1.1325  2.1768
  552MOL0     H74498   7.499   1.282   5.952  0.8074  1.6099 -1.6792
  552MOL0     H74499   7.473   1.367   6.105  1.0572  2.8683 -0.9062
  552MOL0     H74500   8.009   2.190   6.084 -1.9387  0.1337  1.6024
  552MOL0     H74501   8.060   2.420   6.152 -1.7619 -0.8894  1.9810
  552MOL0     H74502   8.373   2.785   6.146  0.3448  0.2690  0.6578
  552MOL0     H74503   8.385   2.984   6.285  0.8135  1.4495 -1.9088
  552MOL0     H74504   8.330   3.732   5.935  0.3207  1.3710 -0.4556
  552MOL0     H74505   8.270   3.919   5.798  0.8768 -0.9155 -0.3772
  552MOL0     H74506   8.079   4.187   5.539 -2.1035 -0.8229  1.9973
  552MOL0     H74507   8.016   4.391   5.418 -0.2593  2.7363 -0.4472
  552MOL0     H74508   7.991   4.708   5.311  1.1867  0.8599 -0.5588
  552MOL0     H74509   8.003   4.539   5.309 -0.0133 -1.4596 -0.6879
  552MOL0     H74510   8.223   4.755   5.328 -0.7977 -0.9684  3.5056
  552MOL0     H74511   8.163   4.673   5.186  1.1438  0.3135 -0.7484
  552MOL0     H74512   8.230   4.443   5.316 -2.2723  0.7170  1.4033
  552MOL0     H74513   8.343   4.557   5.401  1.8729  2.5910 -2.5585
  552MOL0     H74514   8.343   4.503   5.111  3.0052 -0.0786 -0.6914
  552MOL0     H74515   8.405   4.651   5.193 -1.4482  0.1864  1.5697
  552MOL0     H74516   8.663   4.297   5.265 -2.0362 -1.4927 -0.0360
  552MOL0     H74517   8.148   4.638   5.731  0.2687 -0.1235 -1.9943
  552MOL0     H74518   8.148   4.375   5.975 -1.9840  0.7729 -0.8732
  552MOL0     H74519   8.318   4.428   5.931  0.5707  0.5120 -4.5905
  552MOL0     H74520   8.184   4.540   5.955  0.6189 -1.6129  1.5150
  553MOL0     O74521   1.853   5.611   2.690 -0.0240 -0.8243  0.0502
  553MOL0     C74522   1.873   5.585   2.564 -0.2545 -0.3333  0.1076
  553MOL0     O74523   1.979   5.626   2.488 -0.0969  0.0507 -0.0418
  553MOL0     C74524   2.066   5.724   2.542  0.6804 -0.3509  0.0147
  553MOL0     C74525   2.031   5.860   2.522  0.5509  0.6382 -0.6551
  553MOL0     C74526   2.111   5.965   2.557  1.3725 -0.1252  0.1769
  553MOL0     C74527   2.229   5.940   2.618 -0.2186  0.2491 -0.8019
  553MOL0     O74528   2.318   6.036   2.658  0.6708 -0.2816  0.0181
  553MOL0     C74529   2.302   6.174   2.623  0.7967 -0.1135  0.3726
  553MOL0     C74530   2.385   6.192   2.499 -0.4946 -0.7354  0.1608
  553MOL0     C74531   2.326   6.286   2.398 -0.1111 -0.0572  0.5607
  553MOL0     C74532   2.205   6.220   2.336  0.0800  0.1808  0.4304
  553MOL0     C74533   2.175   6.296   2.207 -0.1979 -0.2960 -0.8106
  553MOL0     C74534   2.063   6.219   2.138 -0.7761 -0.3335 -0.4100
  553MOL0     C74535   2.027   6.296   2.015  0.3265 -0.7579  0.5107
  553MOL0     C74536   1.931   6.222   1.920  0.1430 -0.2967  0.7045
  553MOL0     N74537   1.886   6.298   1.795  0.6546 -0.1210  0.2368
  553MOL0     C74538   1.916   6.287   1.661 -0.9720  0.6271  0.7623
  553MOL0     C74539   1.871   6.404   1.599 -1.2521  0.4651 -0.1157
  553MOL0     C74540   1.900   6.439   1.462  0.9225 -0.0906 -0.0754
  553MOL0     C74541   1.855   6.585   1.431 -0.4145  0.4550 -0.0434
  553MOL0     C74542   1.960   6.673   1.508 -0.2109  0.4524  0.6551
  553MOL0     C74543   1.972   6.819   1.454 -0.6384 -1.0056 -0.2608
  553MOL0     O74544   2.050   6.895   1.544 -0.0030 -0.1501 -0.2901
  553MOL0     C74545   2.006   7.027   1.570 -0.1047  0.6192 -0.6790
  553MOL0     C74546   2.012   7.079   1.705 -0.6307 -0.5295  0.0315
  553MOL0     C74547   1.967   7.205   1.727  1.2564 -0.2245  0.8433
  553MOL0     C74548   1.911   7.291   1.622 -0.1942  0.0436 -0.5070
  553MOL0     C74549   1.863   7.430   1.662 -1.2081 -0.6128 -0.1674
  553MOL0     O74550   1.865   7.476   1.787  0.4525 -0.4334  0.1171
  553MOL0     C74551   1.803   7.593   1.821  0.9958 -0.6593 -0.7120
  553MOL0     C74552   1.800   7.707   1.750 -0.1541 -0.6277  0.6925
  553MOL0     C74553   1.736   7.813   1.809 -1.6314 -0.1727  0.3808
  553MOL0     C74554   1.678   7.807   1.939 -0.4903 -0.7797  0.9388
  553MOL0     O74555   1.614   7.910   2.006  0.3586 -0.2152  0.4681
  553MOL0     C74556   1.593   8.038   1.946 -0.2699  0.4170  0.4486
  553MOL0     C74557   1.478   8.114   2.021 -0.0781  0.4675  0.4209
  553MOL0     C74558   1.345   8.041   2.035 -0.3343 -0.1419  0.3102
  553MOL0     C74559   1.294   8.006   1.895  0.1174 -0.5558  0.7628
  553MOL0     C74560   1.151   7.966   1.865 -0.1801 -0.6925 -1.1775
  553MOL0     C74561   1.037   8.076   1.887 -0.1686  0.2725  0.3682
  553MOL0     C74562   1.082   8.216   1.846 -0.0800  0.3288  0.2665
  553MOL0     C74563   0.955   8.297   1.807 -1.4828  0.1332 -0.0347
  553MOL0    Cl74564   0.848   8.219   1.680  0.6575 -0.2207  0.1234
  553MOL0     C74565   1.674   7.684   2.003  0.5551 -0.3851  0.2685
  553MOL0     C74566   1.744   7.580   1.946  0.5684  0.3479  0.7185
  553MOL0     O74567   1.841   7.503   1.565 -0.0748 -0.1697  1.3327
  553MOL0     C74568   1.927   7.245   1.492 -0.6642 -0.1496  0.4536
  553MOL0     C74569   1.964   7.115   1.468 -0.2730 -0.1526  0.1464
  553MOL0     N74570   1.807   6.477   1.700  0.7891  0.1311  0.1612
  553MOL0     N74571   1.809   6.416   1.810 -1.1191  0.4026  0.5107
  553MOL0     C74572   2.267   5.808   2.643  0.2044  0.1928 -1.6032
  553MOL0     C74573   2.192   5.696   2.604 -0.4177  0.3321  0.5192
  553MOL0     C74574   1.756   5.513   2.499  0.7928  0.2115  0.4592
  553MOL0     C74575   1.677   5.420   2.581 -0.9120  0.7634 -0.4048
  553MOL0     C74576   1.556   5.378   2.520 -0.5530  0.4473 -0.4418
  553MOL0     C74577   1.525   5.390   2.390  0.2977  0.4068  1.1032
  553MOL0     O74578   1.413   5.343   2.324 -0.3578  0.0351 -0.3079
  553MOL0     C74579   1.307   5.282   2.408 -0.4598  0.2939 -0.4586
  553MOL0     C74580   1.301   5.132   2.363 -0.1234  0.7317 -0.0418
  553MOL0     C74581   1.409   5.038   2.432  0.1440 -0.9254  0.6914
  553MOL0     C74582   1.385   5.009   2.583 -0.2102  0.2513  0.6724
  553MOL0     C74583   1.508   5.038   2.650 -0.7639 -0.9006 -0.8607
  553MOL0     C74584   1.615   5.053   2.707  1.0684 -0.4337  0.1421
  553MOL0     C74585   1.612   5.450   2.310  0.4191 -0.4319  0.5596
  553MOL0     C74586   1.724   5.521   2.358 -0.1558  0.4642 -0.0342
  553MOL0     C74587   1.798   5.612   2.252 -0.4167  0.5457 -1.1039
  553MOL0     H74588   1.929   5.869   2.488 -0.5981 -4.5387  0.6214
  553MOL0     H74589   2.078   6.068   2.549  2.1424 -0.0120 -2.8754
  553MOL0     H74590   2.201   6.209   2.601  0.8041 -0.0245  0.4803
  553MOL0     H74591   2.343   6.236   2.704  0.5766 -1.4574  1.5608
  553MOL0     H74592   2.406   6.096   2.451  0.6687  0.5196 -2.0202
  553MOL0     H74593   2.491   6.218   2.506 -0.7203  0.7348 -1.2910
  553MOL0     H74594   2.407   6.305   2.327  1.0993  0.0404  1.9251
  553MOL0     H74595   2.295   6.383   2.438  1.5163  1.8345 -2.4348
  553MOL0     H74596   2.231   6.118   2.306  1.6790  0.4992  0.6609
  553MOL0     H74597   2.116   6.224   2.400 -1.1216  1.5843 -1.2536
  553MOL0     H74598   2.126   6.390   2.231 -2.7612 -1.1510 -2.2568
  553MOL0     H74599   2.262   6.305   2.141 -0.0141  1.2152 -0.3869
  553MOL0     H74600   2.098   6.118   2.112 -1.5200  0.0316 -3.1980
  553MOL0     H74601   1.975   6.195   2.197 -1.0904 -4.4449 -2.1770
  553MOL0     H74602   2.110   6.341   1.959  0.1287 -1.9471 -0.7934
  553MOL0     H74603   1.970   6.386   2.038  1.5144  0.0246  0.5110
  553MOL0     H74604   1.981   6.131   1.886 -0.8071  0.2842 -2.5740
  553MOL0     H74605   1.840   6.186   1.970  0.2755 -2.3965 -0.4163
  553MOL0     H74606   1.988   6.212   1.630  0.9161  0.8105  4.1933
  553MOL0     H74607   2.006   6.422   1.443  1.5550 -0.0917  2.9853
  553MOL0     H74608   1.826   6.394   1.395  0.8704  0.6283 -0.5086
  553MOL0     H74609   1.844   6.610   1.325 -2.2569 -0.1901 -0.0408
  553MOL0     H74610   1.756   6.600   1.475  0.1348  1.0613  1.0177
  553MOL0     H74611   2.057   6.624   1.499 -1.6898 -2.6246  0.3439
  553MOL0     H74612   1.943   6.665   1.616 -0.4717 -0.8875  0.5265
  553MOL0     H74613   1.875   6.869   1.447 -0.6429 -0.9827 -0.0600
  553MOL0     H74614   2.021   6.827   1.357  1.9011  1.3889  1.0682
  553MOL0     H74615   2.053   7.015   1.782 -2.8705 -2.2370 -0.0972
  553MOL0     H74616   1.965   7.242   1.829  1.8603  1.2138  0.3614
  553MOL0     H74617   1.849   7.708   1.653 -0.9660 -2.2824  0.2277
  553MOL0     H74618   1.739   7.910   1.761  0.4438 -0.2892  0.1757
  553MOL0     H74619   1.685   8.096   1.946  1.1749 -1.6016 -2.6715
  553MOL0     H74620   1.567   8.022   1.841 -0.5233  1.9520  0.2518
  553MOL0     H74621   1.508   8.130   2.125 -2.5910 -2.0280  1.6412
  553MOL0     H74622   1.452   8.204   1.965 -1.6189 -1.1413 -1.5904
  553MOL0     H74623   1.348   7.963   2.112  2.8502 -1.6061 -1.0902
  553MOL0     H74624   1.276   8.119   2.069 -0.0120  1.5030 -2.5124
  553MOL0     H74625   1.362   7.924   1.870  0.5764  0.1501 -0.3654
  553MOL0     H74626   1.316   8.088   1.825 -1.2201 -1.4273 -0.7403
  553MOL0     H74627   1.123   7.885   1.933 -1.1842 -0.5490 -1.4165
  553MOL0     H74628   1.150   7.931   1.761 -0.3260  1.4909 -1.9766
  553MOL0     H74629   0.953   8.034   1.830  1.3268 -1.1421 -0.8987
  553MOL0     H74630   1.002   8.074   1.991 -2.1483 -0.6207 -0.2689
  553MOL0     H74631   1.149   8.215   1.760 -1.8803  0.9860 -1.2179
  553MOL0     H74632   1.145   8.256   1.926 -0.7672 -4.0180  3.3496
  553MOL0     H74633   0.903   8.325   1.899 -0.9955  1.8168 -0.2448
  553MOL0     H74634   0.992   8.394   1.774 -2.7794  0.8979  0.6509
  553MOL0     H74635   1.605   7.666   2.084 -0.1351 -4.1450 -0.9397
  553MOL0     H74636   1.735   7.491   2.007 -1.2726 -0.0690 -0.0889
  553MOL0     H74637   1.904   7.305   1.404  2.9872  0.6957 -0.1065
  553MOL0     H74638   1.977   7.063   1.374  1.6016 -2.3447  1.5054
  553MOL0     H74639   2.364   5.793   2.689 -1.6801  2.3309  3.9566
  553MOL0     H74640   2.232   5.597   2.619  0.4120  0.5433 -0.1933
  553MOL0     H74641   1.691   5.408   2.687 -0.5302  1.8457 -0.3185
  553MOL0     H74642   1.491   5.334   2.595  0.3472  0.9297  0.6631
  553MOL0     H74643   1.215   5.333   2.378 -1.2475  0.1185  1.4795
  553MOL0     H74644   1.314   5.289   2.517  0.5552 -0.3089 -0.4730
  553MOL0     H74645   1.320   5.128   2.256  0.0332 -2.5157  0.0119
  553MOL0     H74646   1.200   5.088   2.366  0.2183 -0.3048 -2.1778
  553MOL0     H74647   1.505   5.088   2.418  0.0068 -0.6951  0.5642
  553MOL0     H74648   1.409   4.938   2.388  0.3832 -0.9915  0.8423
  553MOL0     H74649   1.301   5.070   2.619 -0.2859 -0.1850  1.2596
  553MOL0     H74650   1.370   4.904   2.608  0.3553  0.7421  3.4280
  553MOL0     H74651   1.703   5.089   2.756  0.0345  1.3255  0.7723
  553MOL0     H74652   1.578   5.449   2.207 -1.6217  0.7830  1.1710
  553MOL0     H74653   1.721   5.652   2.185 -1.0781 -0.6061 -1.0607
  553MOL0     H74654   1.858   5.696   2.286 -0.7067  1.0098 -1.7164
  553MOL0     H74655   1.867   5.547   2.197 -1.0114 -1.3933  0.3054
  554MOL0     O74656   6.675   5.563   9.756  0.3131 -1.1699 -0.3748
  554MOL0     C74657   6.714   5.684   9.736  0.5593  0.7796 -0.0146
  554MOL0     O74658   6.754   5.737   9.617  0.3863 -0.4359 -0.2058
  554MOL0     C74659   6.755   5.661   9.511 -0.1720 -0.3572 -0.7492
  554MOL0     C74660   6.870   5.653   9.427 -0.3739 -0.6629  0.2485
  554MOL0     C74661   6.852   5.598   9.300  0.9859  0.5334  0.0271
  554MOL0     C74662   6.732   5.536   9.261  0.0239  0.4084  0.5191
  554MOL0     O74663   6.719   5.497   9.132 -0.3433  0.1367 -1.5093
  554MOL0     C74664   6.596   5.500   9.078  0.8720 -0.5890  2.0445
  554MOL0     C74665   6.614   5.542   8.933 -0.0095  0.4528  0.2497
  554MOL0     C74666   6.480   5.506   8.858  0.3701 -0.5216  0.6495
  554MOL0     C74667   6.482   5.585   8.720  0.0433 -0.3577 -0.0771
  554MOL0     C74668   6.354   5.536   8.653  0.8392  0.0994  0.1409
  554MOL0     C74669   6.325   5.590   8.513  0.7588 -0.8038  0.1404
  554MOL0     C74670   6.371   5.496   8.399 -0.6949 -0.0768 -0.1344
  554MOL0     C74671   6.352   5.580   8.262  0.5142  0.7395 -0.0504
  554MOL0     N74672   6.420   5.540   8.140 -0.0699 -0.8949  0.8629
  554MOL0     C74673   6.417   5.414   8.083 -0.0315 -0.3654  0.3464
  554MOL0     C74674   6.492   5.419   7.972  0.5768  1.1549  0.3673
  554MOL0     C74675   6.541   5.317   7.877 -0.6358 -0.6147 -0.0842
  554MOL0     C74676   6.614   5.211   7.967 -0.9135 -0.0169  0.1613
  554MOL0     C74677   6.626   5.073   7.893  0.9317  0.7263  0.7107
  554MOL0     C74678   6.641   4.965   7.999 -0.9876  0.2768 -0.2114
  554MOL0     O74679   6.767   4.976   8.068 -0.4033 -0.1535 -0.7619
  554MOL0     C74680   6.887   4.981   8.004 -0.0651  0.1385  0.1132
  554MOL0     C74681   6.910   4.946   7.870  0.2451 -0.4483  0.1072
  554MOL0     C74682   7.039   4.955   7.819  0.0804 -0.5510  0.4293
  554MOL0     C74683   7.148   5.002   7.900 -0.5459 -0.4898  0.5169
  554MOL0     C74684   7.289   5.024   7.849  0.6448 -1.4108  0.6174
  554MOL0     O74685   7.396   5.026   7.934  0.3493 -0.2628 -0.6318
  554MOL0     C74686   7.532   5.016   7.895  0.2212 -0.4048  0.3710
  554MOL0     C74687   7.620   5.028   8.005 -1.0766 -0.1324 -0.3786
  554MOL0     C74688   7.759   5.007   8.002  0.3989 -0.2195  0.1478
  554MOL0     C74689   7.813   4.972   7.882 -0.1183 -0.6103 -0.2320
  554MOL0     O74690   7.947   4.963   7.884 -0.4168 -0.4890 -0.1995
  554MOL0     C74691   8.035   4.975   7.764 -0.2291 -0.3739 -0.5150
  554MOL0     C74692   8.116   4.843   7.763  0.0229  0.2382 -0.7226
  554MOL0     C74693   8.242   4.832   7.855  0.0986 -0.4879  0.7110
  554MOL0     C74694   8.249   4.722   7.954 -0.0611 -0.1674 -0.4707
  554MOL0     C74695   8.379   4.745   8.032 -0.0259  0.2931  0.3318
  554MOL0     C74696   8.405   4.623   8.117 -0.6595 -0.5914 -0.2078
  554MOL0     C74697   8.544   4.623   8.188  0.1377  0.1294  0.0408
  554MOL0     C74698   8.559   4.499   8.272 -0.5759 -0.1016  0.3765
  554MOL0    Cl74699   8.517   4.337   8.194  0.3198  0.5862  0.7537
  554MOL0     C74700   7.730   4.955   7.767  1.2322 -0.0301  0.2615
  554MOL0     C74701   7.588   4.961   7.777  0.3993 -0.2215  0.8435
  554MOL0     O74702   7.298   5.031   7.732 -0.7044 -0.0773  1.3690
  554MOL0     C74703   7.117   5.035   8.032  0.8176  0.1388 -0.5172
  554MOL0     C74704   6.992   5.032   8.084  0.2845 -0.3174  0.3606
  554MOL0     N74705   6.536   5.544   7.961 -0.2350  0.2879 -0.9856
  554MOL0     N74706   6.502   5.618   8.060 -1.0323 -0.1917 -0.3271
  554MOL0     C74707   6.624   5.519   9.354 -0.2259  0.0929  0.3691
  554MOL0     C74708   6.631   5.597   9.473  0.2673  0.8652  0.3894
  554MOL0     C74709   6.751   5.768   9.847 -0.0915  0.1093  0.3197
  554MOL0     C74710   6.875   5.827   9.842  0.4623  0.1905 -0.0709
  554MOL0     C74711   6.927   5.890   9.959 -0.4551 -0.1162 -1.4137
  554MOL0     C74712   6.853   5.888  10.077 -1.2967 -0.3090 -0.1083
  554MOL0     O74713   6.898   5.954  10.186  0.2276 -0.3374  0.2612
  554MOL0     C74714   6.926   5.874  10.299 -0.2015  0.9813  0.1658
  554MOL0     C74715   7.082   5.871  10.320 -0.1819  0.2569  0.0559
  554MOL0     C74716   7.155   6.009  10.321 -0.1368 -0.2568 -0.4431
  554MOL0     C74717   7.284   5.992  10.386  0.7765  0.3839 -0.4695
  554MOL0     C74718   7.379   6.108  10.396  0.0221 -0.4102  0.5361
  554MOL0     C74719   7.439   6.214  10.408 -0.0554  0.3666  0.1639
  554MOL0     C74720   6.730   5.826  10.079  0.1460  0.1512 -0.0497
  554MOL0     C74721   6.677   5.761   9.964 -0.0112  0.5884 -0.2830
  554MOL0     C74722   6.540   5.689   9.980  0.0229 -0.5988 -0.4491
  554MOL0     H74723   6.964   5.697   9.461  0.0293  0.5574 -2.1789
  554MOL0     H74724   6.929   5.594   9.223 -1.8194  0.0353 -2.9728
  554MOL0     H74725   6.560   5.397   9.073 -1.5691  0.2114  1.8922
  554MOL0     H74726   6.525   5.561   9.133  0.6035 -0.0979  1.1743
  554MOL0     H74727   6.694   5.496   8.874 -2.6842  0.5820 -3.8768
  554MOL0     H74728   6.647   5.646   8.928  1.8273 -0.0542  1.0133
  554MOL0     H74729   6.394   5.543   8.914 -1.4293  0.6465 -2.5980
  554MOL0     H74730   6.474   5.398   8.843  0.4708 -0.2404 -1.9348
  554MOL0     H74731   6.491   5.693   8.733 -2.3540 -0.3534  2.2940
  554MOL0     H74732   6.568   5.566   8.656 -0.8003 -2.7832 -0.5939
  554MOL0     H74733   6.354   5.427   8.647  3.2907 -0.0088  1.1076
  554MOL0     H74734   6.273   5.572   8.717  0.3540  0.8115 -0.8402
  554MOL0     H74735   6.217   5.605   8.509  0.3552 -2.2930  2.8079
  554MOL0     H74736   6.376   5.686   8.502 -0.6679 -0.3000 -3.1458
  554MOL0     H74737   6.307   5.407   8.398 -2.9330  1.3391  2.8176
  554MOL0     H74738   6.479   5.479   8.401 -0.6315  0.2261  3.2457
  554MOL0     H74739   6.251   5.586   8.223  1.6698  0.9683 -3.2761
  554MOL0     H74740   6.372   5.685   8.285 -3.1956  1.6241 -0.2307
  554MOL0     H74741   6.373   5.321   8.116  2.1723 -2.6659 -2.6798
  554MOL0     H74742   6.453   5.274   7.830  0.4606 -2.8883 -0.1612
  554MOL0     H74743   6.601   5.356   7.794  1.1713 -0.2667  1.3058
  554MOL0     H74744   6.716   5.246   7.988 -0.1152 -0.9689 -1.8075
  554MOL0     H74745   6.570   5.187   8.064 -3.1691 -1.1742 -1.0823
  554MOL0     H74746   6.705   5.073   7.818  1.9784 -3.0764  1.5873
  554MOL0     H74747   6.535   5.052   7.835  2.0435  0.2109 -0.8916
  554MOL0     H74748   6.644   4.866   7.953 -1.6342  0.4111 -0.5446
  554MOL0     H74749   6.559   4.958   8.070  0.8151 -2.3365  1.8119
  554MOL0     H74750   6.826   4.912   7.810 -0.1430  0.0279  0.3678
  554MOL0     H74751   7.050   4.926   7.715 -1.3544 -0.0228  0.1023
  554MOL0     H74752   7.578   5.065   8.098  1.9678 -1.0917  1.5346
  554MOL0     H74753   7.801   5.047   8.094 -1.0244  1.5792  0.0748
  554MOL0     H74754   7.973   4.975   7.674 -1.8743  2.9618  0.4463
  554MOL0     H74755   8.096   5.066   7.765 -2.4964  1.2666  1.3969
  554MOL0     H74756   8.050   4.757   7.776  2.3708 -1.8998 -2.1216
  554MOL0     H74757   8.151   4.834   7.660  1.7337 -1.2460 -0.0570
  554MOL0     H74758   8.325   4.841   7.785  0.1144  2.1195  0.9873
  554MOL0     H74759   8.244   4.923   7.916 -0.5055 -1.3109  2.0180
  554MOL0     H74760   8.266   4.626   7.904 -1.8130  0.3103 -2.0873
  554MOL0     H74761   8.161   4.701   8.016  0.9028  0.8109  1.3251
  554MOL0     H74762   8.357   4.834   8.093 -3.6035 -2.2658  3.2213
  554MOL0     H74763   8.468   4.756   7.970  1.2791 -1.0670  1.8718
  554MOL0     H74764   8.331   4.619   8.197  0.1073 -1.0495  0.5106
  554MOL0     H74765   8.401   4.534   8.054  0.4278 -1.1158  0.4332
  554MOL0     H74766   8.556   4.710   8.253  0.9008 -0.1617  0.3036
  554MOL0     H74767   8.621   4.635   8.112  2.5939 -0.5705  2.2758
  554MOL0     H74768   8.664   4.494   8.301 -0.3285 -2.5636 -0.6562
  554MOL0     H74769   8.493   4.512   8.358 -1.6426  0.2740 -0.4722
  554MOL0     H74770   7.764   4.903   7.678  0.7806 -1.0311  0.6589
  554MOL0     H74771   7.525   4.936   7.693 -1.0609 -2.0463  2.3884
  554MOL0     H74772   7.189   5.068   8.106  0.2235  0.8883 -0.2669
  554MOL0     H74773   6.983   5.053   8.190  3.7726  0.9046  0.5717
  554MOL0     H74774   6.535   5.467   9.321  1.3942 -1.5636 -1.7390
  554MOL0     H74775   6.541   5.603   9.534 -0.2798 -4.9479  0.7010
  554MOL0     H74776   6.942   5.804   9.759 -1.2732  0.1745 -1.5334
  554MOL0     H74777   7.021   5.945   9.960 -2.2580  3.2828  0.5967
  554MOL0     H74778   6.885   5.775  10.283 -0.2928  1.2388 -1.2514
  554MOL0     H74779   6.889   5.912  10.395  0.9669  0.2620  0.9344
  554MOL0     H74780   7.126   5.814  10.237 -3.3478  1.9224 -3.0094
  554MOL0     H74781   7.083   5.832  10.422 -3.6099  1.6287  0.7369
  554MOL0     H74782   7.094   6.085  10.370  0.0539 -2.3200  3.3846
  554MOL0     H74783   7.171   6.031  10.215 -1.5038  0.2847 -0.5515
  554MOL0     H74784   7.271   5.963  10.491  0.6568  3.6766  0.5457
  554MOL0     H74785   7.343   5.913  10.339 -0.7078 -1.2247  0.2632
  554MOL0     H74786   7.484   6.310  10.420 -0.9198  0.5908  2.0997
  554MOL0     H74787   6.665   5.827  10.166 -1.8283  1.4809 -1.4501
  554MOL0     H74788   6.492   5.674   9.883  1.8421 -0.2001 -1.4441
  554MOL0     H74789   6.526   5.596  10.035 -1.2929 -0.1032  0.0853
  554MOL0     H74790   6.479   5.759  10.038  0.1625  0.0340 -1.0473
  555MOL0     O74791   6.809   0.247   0.152 -0.0916  0.1401  0.0298
  555MOL0     C74792   6.751   0.350   0.188  0.0575 -0.1100 -0.4502
  555MOL0     O74793   6.687   0.437   0.095  0.6323 -0.6426 -0.7480
  555MOL0     C74794   6.679   0.401  -0.033 -0.8245  0.0268  0.0642
  555MOL0     C74795   6.562   0.441  -0.098 -0.4851 -0.4148 -0.4124
  555MOL0     C74796   6.547   0.441  -0.237  1.5619 -1.1147 -0.8728
  555MOL0     C74797   6.649   0.387  -0.316  0.4081  0.2378 -1.1579
  555MOL0     O74798   6.652   0.384  -0.452  0.2714 -0.2699 -0.4052
  555MOL0     C74799   6.542   0.446  -0.516  1.2181 -0.2058 -0.7084
  555MOL0     C74800   6.548   0.430  -0.673  0.7845 -0.1537 -1.0042
  555MOL0     C74801   6.465   0.317  -0.729  0.5067  0.4182  0.8535
  555MOL0     C74802   6.321   0.366  -0.763 -1.0211  0.6678 -0.5805
  555MOL0     C74803   6.223   0.252  -0.776 -1.1790 -0.9836  0.6461
  555MOL0     C74804   6.205   0.152  -0.662 -0.2431 -0.2633 -0.6080
  555MOL0     C74805   6.153   0.221  -0.532  0.6368  0.3718 -0.3106
  555MOL0     C74806   6.169   0.119  -0.419  0.7270  0.0611  0.3548
  555MOL0     N74807   6.126   0.178  -0.285 -0.0651 -0.8899  0.2215
  555MOL0     C74808   6.106   0.316  -0.232 -0.1739  0.6866  0.5601
  555MOL0     C74809   6.063   0.290  -0.108 -0.3658  0.3342 -1.1965
  555MOL0     C74810   6.042   0.391  -0.003  0.3727 -0.3310  0.6338
  555MOL0     C74811   6.156   0.407   0.086  0.5039 -0.6194 -1.0197
  555MOL0     C74812   6.196   0.557   0.102  0.9595  1.3649  0.2314
  555MOL0     C74813   6.311   0.570   0.195 -0.0657  0.0980  0.1132
  555MOL0     O74814   6.406   0.662   0.130  1.0770  0.1093  0.2825
  555MOL0     C74815   6.398   0.799   0.140 -0.2765  0.0524 -0.5354
  555MOL0     C74816   6.311   0.864   0.239 -0.5723  0.4588  0.4699
  555MOL0     C74817   6.319   0.998   0.268  0.3361 -0.2649  1.1126
  555MOL0     C74818   6.399   1.083   0.188  0.4354 -0.1899 -0.1608
  555MOL0     C74819   6.402   1.220   0.214 -0.2098  0.0575  0.1082
  555MOL0     O74820   6.407   1.250   0.346  0.4841  0.3698 -0.5182
  555MOL0     C74821   6.363   1.369   0.387 -0.2322 -0.7774 -0.0408
  555MOL0     C74822   6.252   1.428   0.333  0.1600  0.0074 -0.6319
  555MOL0     C74823   6.195   1.546   0.381  0.6949  0.1744 -0.2670
  555MOL0     C74824   6.255   1.605   0.495 -0.6408  0.5496  0.4780
  555MOL0     O74825   6.220   1.723   0.541 -0.3800 -0.1874  0.7313
  555MOL0     C74826   6.097   1.730   0.597  0.0795  0.2674  0.7890
  555MOL0     C74827   6.065   1.881   0.593  0.0684 -0.1198 -0.4564
  555MOL0     C74828   6.167   1.958   0.678  0.4754 -0.1162  0.0645
  555MOL0     C74829   6.137   2.106   0.653 -0.0605  0.6511 -0.5893
  555MOL0     C74830   6.169   2.201   0.774 -0.0049 -0.3349  0.0208
  555MOL0     C74831   6.162   2.347   0.718  0.0348 -0.7108 -0.1491
  555MOL0     C74832   6.149   2.456   0.822  0.9939  0.3914  1.1679
  555MOL0     C74833   6.286   2.466   0.893  0.2225 -0.6574  0.0665
  555MOL0    Cl74834   6.262   2.584   1.027  0.1470  0.2132 -0.2979
  555MOL0     C74835   6.374   1.550   0.553 -0.5637  0.6588 -0.3611
  555MOL0     C74836   6.425   1.434   0.491  0.5732 -0.0989 -1.0673
  555MOL0     O74837   6.406   1.299   0.126 -0.2463 -1.0389 -0.4761
  555MOL0     C74838   6.479   1.023   0.080 -0.1632 -0.3497 -0.1474
  555MOL0     C74839   6.471   0.886   0.060 -0.1818 -0.3251 -0.5302
  555MOL0     N74840   6.054   0.159  -0.080 -0.8703  0.7393  0.0364
  555MOL0     N74841   6.086   0.096  -0.190  0.6615 -0.5338 -0.5427
  555MOL0     C74842   6.766   0.348  -0.254 -0.6797 -0.3971  0.3907
  555MOL0     C74843   6.784   0.349  -0.117  1.0392 -0.2841 -0.0368
  555MOL0     C74844   6.721   0.388   0.333 -0.5966 -0.8779  0.3925
  555MOL0     C74845   6.635   0.498   0.355 -0.0706  0.0072 -0.2874
  555MOL0     C74846   6.628   0.548   0.484 -0.1586  0.1090 -0.0860
  555MOL0     C74847   6.686   0.489   0.599  0.6986 -0.0824 -1.1785
  555MOL0     O74848   6.652   0.547   0.718  0.3255  0.3848 -0.2454
  555MOL0     C74849   6.659   0.473   0.836  0.2626 -0.4764  0.0664
  555MOL0     C74850   6.538   0.393   0.878  1.0759  0.0770 -0.3750
  555MOL0     C74851   6.430   0.487   0.938  0.0439  0.4441  0.6731
  555MOL0     C74852   6.445   0.542   1.079 -0.3927 -0.0987 -0.7150
  555MOL0     C74853   6.548   0.646   1.087 -0.0354 -0.2383  0.0179
  555MOL0     C74854   6.619   0.743   1.087  0.7250  0.4638  0.0359
  555MOL0     C74855   6.756   0.369   0.570 -0.5358  0.7190 -0.4663
  555MOL0     C74856   6.786   0.327   0.436  0.1728 -0.4046  0.2244
  555MOL0     C74857   6.882   0.219   0.426 -0.2717 -0.6534 -0.5711
  555MOL0     H74858   6.491   0.479  -0.025 -1.0236  0.5512 -1.4121
  555MOL0     H74859   6.448   0.478  -0.261 -0.3443 -3.3108  2.6442
  555MOL0     H74860   6.450   0.398  -0.483 -0.2437  2.6752 -0.2389
  555MOL0     H74861   6.534   0.553  -0.492 -0.4349 -0.8159  1.9353
  555MOL0     H74862   6.655   0.431  -0.696  1.8032 -1.4106  2.9165
  555MOL0     H74863   6.503   0.508  -0.735  1.3614 -0.9558 -2.5171
  555MOL0     H74864   6.466   0.240  -0.651 -0.1996 -0.2295  0.2491
  555MOL0     H74865   6.505   0.273  -0.821 -0.0118  4.7398 -1.7023
  555MOL0     H74866   6.295   0.451  -0.699 -1.3756 -0.0372  0.2355
  555MOL0     H74867   6.321   0.413  -0.862  2.1329 -0.0554 -1.0339
  555MOL0     H74868   6.130   0.309  -0.790 -0.1222  0.7569  0.4333
  555MOL0     H74869   6.253   0.200  -0.868 -0.5806 -1.2215  0.9762
  555MOL0     H74870   6.130   0.082  -0.701  0.8197 -0.7846 -1.7724
  555MOL0     H74871   6.300   0.100  -0.645  1.2413  2.7129  1.0865
  555MOL0     H74872   6.046   0.237  -0.546  0.2514  1.8475  3.2321
  555MOL0     H74873   6.200   0.316  -0.506 -0.8295  0.9785  0.2314
  555MOL0     H74874   6.126   0.020  -0.437 -0.6175  0.2380  2.2833
  555MOL0     H74875   6.276   0.100  -0.411  0.7909 -1.2144 -2.3382
  555MOL0     H74876   6.100   0.410  -0.285 -1.6652 -0.4944 -1.5349
  555MOL0     H74877   6.022   0.489  -0.047  1.0657 -0.7380 -0.6132
  555MOL0     H74878   5.952   0.360   0.052 -1.2106 -0.2710 -1.7789
  555MOL0     H74879   6.122   0.368   0.183 -0.7705 -0.2194 -1.2853
  555MOL0     H74880   6.242   0.344   0.061  0.4048 -0.6215 -1.3563
  555MOL0     H74881   6.105   0.603   0.140 -0.4843 -1.0942 -0.0141
  555MOL0     H74882   6.221   0.591   0.001 -0.7229  4.0261  0.6149
  555MOL0     H74883   6.363   0.475   0.214  0.6518 -0.6074 -4.3977
  555MOL0     H74884   6.283   0.608   0.294  4.0676 -0.4209  1.7287
  555MOL0     H74885   6.240   0.811   0.302 -0.4019  2.6306  2.6737
  555MOL0     H74886   6.272   1.027   0.362  0.8086  2.2398  0.6580
  555MOL0     H74887   6.203   1.379   0.250  0.4204  0.0396 -0.8076
  555MOL0     H74888   6.115   1.591   0.324  1.5240 -1.1414 -2.5693
  555MOL0     H74889   6.020   1.683   0.536 -0.6237  0.1517  1.7474
  555MOL0     H74890   6.091   1.691   0.699 -1.1980 -0.9339  0.2795
  555MOL0     H74891   6.061   1.909   0.488 -1.8356 -2.3462 -1.0517
  555MOL0     H74892   5.966   1.895   0.637  0.9500 -0.2378  1.7357
  555MOL0     H74893   6.153   1.930   0.783  0.5624 -0.8474 -0.1075
  555MOL0     H74894   6.269   1.952   0.638  0.3865  1.7452 -0.5004
  555MOL0     H74895   6.031   2.128   0.642 -0.2854  0.1259  0.4495
  555MOL0     H74896   6.196   2.131   0.564  1.7047 -3.4674 -0.7952
  555MOL0     H74897   6.267   2.185   0.818  0.0202 -0.6781 -0.1521
  555MOL0     H74898   6.100   2.199   0.858  3.0937  2.3480  2.8911
  555MOL0     H74899   6.258   2.364   0.669  1.1382 -2.2792  1.3572
  555MOL0     H74900   6.081   2.352   0.645 -1.0151 -1.7496  0.8917
  555MOL0     H74901   6.066   2.436   0.890  0.3617 -2.7056 -0.3009
  555MOL0     H74902   6.137   2.547   0.762 -1.2087 -2.3016 -2.9329
  555MOL0     H74903   6.317   2.372   0.938  1.5133 -0.7516 -0.9433
  555MOL0     H74904   6.366   2.491   0.823 -0.8226 -0.4290 -1.1021
  555MOL0     H74905   6.428   1.597   0.633  0.7300 -0.7322 -0.3703
  555MOL0     H74906   6.519   1.395   0.529  1.7915  0.8485 -2.9364
  555MOL0     H74907   6.537   1.091   0.019  2.2080 -0.7374  1.5478
  555MOL0     H74908   6.542   0.837  -0.006  0.7002 -1.8153  1.4291
  555MOL0     H74909   6.854   0.318  -0.309  1.1575  1.6357  2.0603
  555MOL0     H74910   6.872   0.308  -0.069 -1.2951 -3.7134  1.7995
  555MOL0     H74911   6.585   0.539   0.268  0.0136  0.1068 -0.2886
  555MOL0     H74912   6.566   0.636   0.494 -2.2041 -1.2399 -0.3198
  555MOL0     H74913   6.702   0.529   0.920  2.0547 -2.1777  0.3560
  555MOL0     H74914   6.731   0.392   0.824 -0.1010 -0.7054 -0.5855
  555MOL0     H74915   6.559   0.314   0.951 -3.8038  0.0196  1.3474
  555MOL0     H74916   6.492   0.346   0.790 -0.2414 -2.0132  1.3050
  555MOL0     H74917   6.334   0.436   0.930  1.9850 -3.3092 -1.7543
  555MOL0     H74918   6.421   0.573   0.871  0.8720 -1.0868 -1.5241
  555MOL0     H74919   6.346   0.581   1.104  0.2402  0.3634  1.2387
  555MOL0     H74920   6.458   0.462   1.152 -0.2136  1.2595  0.8140
  555MOL0     H74921   6.670   0.837   1.080  2.9244 -0.6862 -0.3499
  555MOL0     H74922   6.799   0.321   0.657 -5.0834  0.7848  2.1352
  555MOL0     H74923   6.834   0.136   0.373 -0.4820 -0.7598 -0.2164
  555MOL0     H74924   6.974   0.252   0.376 -2.1608 -2.1971 -5.7219
  555MOL0     H74925   6.907   0.175   0.522 -1.3647  1.1387  0.5893
  556MOL0     O74926   8.474   2.900   7.642  0.1720 -0.4545  0.7215
  556MOL0     C74927   8.421   2.883   7.533 -0.9225 -0.8683 -0.1904
  556MOL0     O74928   8.378   2.982   7.443 -0.3277 -0.0370  0.1089
  556MOL0     C74929   8.433   3.111   7.456  0.9941  0.8272  0.5955
  556MOL0     C74930   8.568   3.125   7.422 -0.3365  1.3882  0.4803
  556MOL0     C74931   8.630   3.246   7.441 -0.5021 -0.2151  0.0225
  556MOL0     C74932   8.562   3.349   7.504  0.2524  0.0665 -0.7882
  556MOL0     O74933   8.641   3.462   7.521 -0.2967 -0.0250 -0.2614
  556MOL0     C74934   8.578   3.583   7.563  0.0021 -0.9544  0.3742
  556MOL0     C74935   8.665   3.703   7.575  0.2178  0.2192 -0.9118
  556MOL0     C74936   8.781   3.684   7.675 -0.5780  0.1561  0.7375
  556MOL0     C74937   8.864   3.810   7.689  0.5778  0.3432  0.4362
  556MOL0     C74938   9.001   3.780   7.753  0.0440 -0.3345 -0.1773
  556MOL0     C74939   9.057   3.919   7.769 -0.0524  1.5110  0.3703
  556MOL0     C74940   9.194   3.930   7.837 -0.0613  0.9478  0.3396
  556MOL0     C74941   9.226   4.075   7.861  0.1742 -1.1521  0.1437
  556MOL0     N74942   9.246   4.156   7.738  0.0436 -0.2440 -0.3339
  556MOL0     C74943   9.350   4.134   7.648 -0.3845  0.5933 -0.1171
  556MOL0     C74944   9.330   4.237   7.564  0.7465  0.0707 -0.3711
  556MOL0     C74945   9.421   4.275   7.464 -0.0524  0.0534  0.2748
  556MOL0     C74946   9.522   4.377   7.516  0.2801  0.5515  0.1431
  556MOL0     C74947   9.652   4.390   7.434  0.0318  0.2239  0.2293
  556MOL0     C74948   9.767   4.448   7.518  0.4187  0.9856  0.4375
  556MOL0     O74949   9.851   4.525   7.437  0.3917 -0.3911  0.5074
  556MOL0     C74950   9.961   4.583   7.503 -0.5083  0.9817  0.7059
  556MOL0     C74951  10.035   4.656   7.427  0.3421  0.2861  0.5571
  556MOL0     C74952  10.140   4.736   7.478 -0.6302 -0.3141 -0.8444
  556MOL0     C74953  10.184   4.717   7.610  0.1012 -0.3021 -0.1159
  556MOL0     C74954  10.313   4.768   7.660 -0.0401  0.1739  0.2595
  556MOL0     O74955  10.396   4.811   7.564  0.6346 -0.2688  1.3138
  556MOL0     C74956  10.492   4.902   7.599  0.4014  0.0019  0.5139
  556MOL0     C74957  10.604   4.882   7.687  0.3629  0.8200 -0.3204
  556MOL0     C74958  10.705   4.977   7.682 -0.2072  0.1579  0.3369
  556MOL0     C74959  10.697   5.095   7.605  0.3656  0.4506 -0.1944
  556MOL0     O74960  10.799   5.184   7.601 -0.1063 -0.8522 -0.4867
  556MOL0     C74961  10.774   5.295   7.693  0.4191 -0.4190 -0.1455
  556MOL0     C74962  10.898   5.391   7.688 -0.5115 -0.7761 -0.2805
  556MOL0     C74963  10.897   5.481   7.820 -0.3088  0.5498 -0.0858
  556MOL0     C74964  11.003   5.441   7.918 -1.1587  0.2861  0.0258
  556MOL0     C74965  11.148   5.472   7.865 -0.4291 -0.1569  0.6091
  556MOL0     C74966  11.234   5.352   7.907 -0.8371 -0.1285 -0.1989
  556MOL0     C74967  11.255   5.361   8.058 -0.2901 -0.0867  0.0654
  556MOL0     C74968  11.347   5.248   8.103 -0.0941 -0.0053 -0.2285
  556MOL0    Cl74969  11.348   5.245   8.282  0.3596 -0.5808  0.4040
  556MOL0     C74970  10.580   5.114   7.528 -0.1214  0.5219 -0.2335
  556MOL0     C74971  10.483   5.026   7.532  0.7618 -0.5870  0.3571
  556MOL0     O74972  10.341   4.771   7.782  0.0719 -0.1356  0.1485
  556MOL0     C74973  10.114   4.622   7.689  0.4712 -0.0574  0.4525
  556MOL0     C74974  10.001   4.556   7.633  0.3333 -0.3548  0.0847
  556MOL0     N74975   9.211   4.312   7.582 -0.7752  0.5698  1.0951
  556MOL0     N74976   9.165   4.258   7.694 -0.2942  0.2011  0.7562
  556MOL0     C74977   8.418   3.340   7.527 -1.0358 -0.5132 -0.0193
  556MOL0     C74978   8.355   3.218   7.492  0.4047 -0.4181 -0.3008
  556MOL0     C74979   8.405   2.743   7.475 -0.3915 -0.2787 -0.7656
  556MOL0     C74980   8.340   2.726   7.348  0.0060  0.5961  0.5287
  556MOL0     C74981   8.307   2.593   7.314  0.9303 -0.7300  0.1866
  556MOL0     C74982   8.364   2.485   7.377 -0.3666 -1.1632 -0.5411
  556MOL0     O74983   8.349   2.358   7.323  0.3553  0.8439 -0.9303
  556MOL0     C74984   8.242   2.319   7.234  0.4195 -0.4788 -0.2699
  556MOL0     C74985   8.290   2.322   7.100  0.0722 -0.5174  0.6119
  556MOL0     C74986   8.397   2.211   7.068  0.1864  1.1023  0.9116
  556MOL0     C74987   8.450   2.248   6.921 -0.7196  0.0692  0.6897
  556MOL0     C74988   8.594   2.280   6.919 -0.4184  0.2207 -0.4506
  556MOL0     C74989   8.713   2.305   6.899 -0.0528  0.0105 -0.3209
  556MOL0     C74990   8.436   2.504   7.492  0.8695 -0.6644  0.4911
  556MOL0     C74991   8.457   2.634   7.548  0.3381  0.6801  0.2421
  556MOL0     C74992   8.548   2.633   7.673  0.4135 -0.5346  0.0639
  556MOL0     H74993   8.622   3.045   7.371 -0.9831  1.6976 -0.7176
  556MOL0     H74994   8.735   3.249   7.415  0.2198 -2.8786  2.1752
  556MOL0     H74995   8.500   3.606   7.490  1.2083  0.1680 -0.6002
  556MOL0     H74996   8.530   3.571   7.661 -0.8010  2.1787  0.4619
  556MOL0     H74997   8.608   3.785   7.621  1.6657  1.5923 -1.4625
  556MOL0     H74998   8.694   3.736   7.475  3.6655  3.5440  0.9163
  556MOL0     H74999   8.846   3.606   7.634 -1.8242  0.9581 -3.2072
  556MOL0     H75000   8.735   3.651   7.768 -2.5750 -0.5191 -0.4323
  556MOL0     H75001   8.869   3.863   7.593  4.6177  0.2758  0.4785
  556MOL0     H75002   8.800   3.862   7.761 -4.4372 -2.5174 -1.4542
  556MOL0     H75003   9.000   3.728   7.849  0.0946 -0.6698 -0.3564
  556MOL0     H75004   9.047   3.718   7.676  0.4272 -2.7616  1.8784
  556MOL0     H75005   9.063   3.969   7.671  0.5980 -1.5348 -1.2565
  556MOL0     H75006   8.985   3.977   7.827 -0.6664 -0.0189  1.1841
  556MOL0     H75007   9.267   3.872   7.779  0.1006  0.1915  1.2658
  556MOL0     H75008   9.178   3.876   7.931 -2.6043  1.3426  0.2176
  556MOL0     H75009   9.151   4.137   7.911 -0.9577  0.8755 -3.6982
  556MOL0     H75010   9.320   4.064   7.916 -0.3040 -2.6946  0.7229
  556MOL0     H75011   9.432   4.066   7.666 -1.8964 -1.1785  0.3768
  556MOL0     H75012   9.487   4.192   7.438 -0.0485  0.7110 -2.0580
  556MOL0     H75013   9.376   4.312   7.371 -0.8557  0.4434  0.8096
  556MOL0     H75014   9.470   4.473   7.519 -2.5341 -0.8624 -0.6410
  556MOL0     H75015   9.551   4.339   7.614  4.5676 -0.7081 -1.3679
  556MOL0     H75016   9.629   4.462   7.356 -1.9683  0.6815  1.1797
  556MOL0     H75017   9.680   4.293   7.390 -1.5269  0.0467 -0.4185
  556MOL0     H75018   9.804   4.356   7.564  0.1525  1.2977  1.3014
  556MOL0     H75019   9.722   4.510   7.596  3.8682  1.7082  2.0515
  556MOL0     H75020  10.002   4.673   7.325 -1.8578 -2.3870  0.7048
  556MOL0     H75021  10.195   4.808   7.418 -1.1142 -0.5853 -1.6148
  556MOL0     H75022  10.613   4.789   7.742 -2.1242  1.2336  0.9330
  556MOL0     H75023  10.788   4.951   7.746  0.4684  0.4302 -0.4106
  556MOL0     H75024  10.679   5.333   7.656  0.4627 -3.4941 -3.9797
  556MOL0     H75025  10.776   5.249   7.793  2.8019  0.3699  0.2567
  556MOL0     H75026  10.990   5.334   7.674  0.8217  1.5668 -1.8135
  556MOL0     H75027  10.897   5.445   7.593  0.4041  0.2712  0.2911
  556MOL0     H75028  10.919   5.585   7.793  1.2738 -0.3182 -2.5341
  556MOL0     H75029  10.796   5.484   7.861 -0.5023  0.6869 -0.5606
  556MOL0     H75030  10.995   5.332   7.929  0.8972 -0.1677 -2.0608
  556MOL0     H75031  11.002   5.496   8.012 -0.8659 -1.6046  1.2002
  556MOL0     H75032  11.176   5.573   7.895  1.1083  0.3686 -2.2433
  556MOL0     H75033  11.152   5.469   7.755 -0.3154  0.7059  0.5838
  556MOL0     H75034  11.196   5.259   7.863  1.7116 -0.2740 -2.4158
  556MOL0     H75035  11.332   5.361   7.858 -0.4729 -0.8521  0.3833
  556MOL0     H75036  11.163   5.337   8.111 -0.6759  0.1597 -0.4876
  556MOL0     H75037  11.295   5.463   8.069 -0.8145  0.3948 -2.0051
  556MOL0     H75038  11.304   5.150   8.077 -0.1010 -0.4911  1.4743
  556MOL0     H75039  11.452   5.250   8.071  0.1116  0.4355  0.4568
  556MOL0     H75040  10.565   5.197   7.458  0.1025  1.6454  1.0059
  556MOL0     H75041  10.394   5.043   7.472 -0.0887  0.7366  1.8993
  556MOL0     H75042  10.145   4.592   7.789 -1.4841 -1.8196  0.5989
  556MOL0     H75043   9.947   4.478   7.686  0.1305  0.1211  0.5892
  556MOL0     H75044   8.353   3.419   7.564 -5.0266 -3.7418  0.6709
  556MOL0     H75045   8.250   3.205   7.514  0.4070  1.5706  1.1082
  556MOL0     H75046   8.308   2.807   7.283  0.1233  1.0925  1.0801
  556MOL0     H75047   8.252   2.592   7.220  0.1426 -0.7571  0.6449
  556MOL0     H75048   8.162   2.393   7.244  2.1844  1.3345  1.3392
  556MOL0     H75049   8.208   2.218   7.261 -0.6914  0.2373  1.1448
  556MOL0     H75050   8.335   2.420   7.081  3.7326 -1.8104  1.8052
  556MOL0     H75051   8.209   2.306   7.028  0.0018 -0.6561  0.7236
  556MOL0     H75052   8.345   2.116   7.083 -1.4675  1.8396  0.1248
  556MOL0     H75053   8.486   2.213   7.132  1.7254  0.4858 -1.0780
  556MOL0     H75054   8.428   2.160   6.859 -3.3306  1.6809 -0.8374
  556MOL0     H75055   8.394   2.329   6.873 -1.4241 -2.5604 -3.4932
  556MOL0     H75056   8.819   2.322   6.896 -0.2440  1.1559 -1.1350
  556MOL0     H75057   8.476   2.416   7.543 -0.1668 -2.0638 -1.0091
  556MOL0     H75058   8.515   2.680   7.766  0.4074 -0.1583 -0.1283
  556MOL0     H75059   8.574   2.536   7.716 -0.6982  0.3542  2.9976
  556MOL0     H75060   8.640   2.684   7.644 -0.6053  0.7954 -0.9545
  557MOL0     O75061   9.013   7.996   0.351 -0.8118  0.0100 -0.9479
  557MOL0     C75062   9.109   7.919   0.330  0.5942  0.5695 -0.4188
  557MOL0     O75063   9.229   7.951   0.282 -0.1960 -0.3657  0.2231
  557MOL0     C75064   9.282   8.076   0.272  0.2504  0.2802 -0.7574
  557MOL0     C75065   9.257   8.172   0.358 -0.0179 -0.5739 -0.6739
  557MOL0     C75066   9.326   8.293   0.352  0.0196 -0.2897  0.0244
  557MOL0     C75067   9.429   8.319   0.258  1.1383  1.3417  0.7656
  557MOL0     O75068   9.483   8.446   0.260 -0.5621  0.1154  0.0868
  557MOL0     C75069   9.560   8.474   0.142 -0.0833  0.2189  0.3218
  557MOL0     C75070   9.590   8.620   0.149 -0.2983 -0.4234  0.2703
  557MOL0     C75071   9.716   8.649   0.240 -0.1879 -0.8685  0.6526
  557MOL0     C75072   9.845   8.573   0.202 -0.2968 -0.0588 -0.8784
  557MOL0     C75073   9.948   8.563   0.318  1.4353  0.4749 -0.3518
  557MOL0     C75074  10.069   8.480   0.299 -0.2274 -0.0842  0.4319
  557MOL0     C75075  10.142   8.491   0.427  0.4488 -0.3752 -0.6935
  557MOL0     C75076  10.275   8.413   0.435 -0.2849 -0.3496 -0.3747
  557MOL0     N75077  10.321   8.423   0.575  0.1520  0.5119 -0.0270
  557MOL0     C75078  10.286   8.341   0.686  0.0158  0.4352 -0.5425
  557MOL0     C75079  10.361   8.391   0.786 -0.5651  0.0797 -0.3321
  557MOL0     C75080  10.355   8.337   0.930  0.5871  0.0192  0.6472
  557MOL0     C75081  10.491   8.351   1.003  0.4559  0.0267 -0.7350
  557MOL0     C75082  10.612   8.275   0.940 -0.1752 -0.8002  0.4912
  557MOL0     C75083  10.744   8.328   0.969  0.6961  0.2343 -0.0332
  557MOL0     O75084  10.829   8.243   0.893 -0.6803 -0.1833  0.8646
  557MOL0     C75085  10.967   8.244   0.896  0.3644  0.3473  0.8328
  557MOL0     C75086  11.034   8.154   0.808 -0.2864 -0.2425 -0.8775
  557MOL0     C75087  11.176   8.151   0.801  1.0657  0.3408  1.4185
  557MOL0     C75088  11.251   8.232   0.879  0.0061 -0.4905 -0.9642
  557MOL0     C75089  11.400   8.219   0.882 -0.3008  0.2222 -0.4466
  557MOL0     O75090  11.456   8.170   0.770 -0.5522 -0.0510 -0.1766
  557MOL0     C75091  11.595   8.149   0.758 -0.3885 -0.3320  0.6464
  557MOL0     C75092  11.670   8.112   0.867  0.3416  0.2898  0.4855
  557MOL0     C75093  11.810   8.091   0.851  0.2043 -0.3414  0.2049
  557MOL0     C75094  11.873   8.098   0.721 -0.2146  0.0377 -0.2341
  557MOL0     O75095  12.005   8.054   0.697  1.1386 -0.6496  0.3653
  557MOL0     C75096  12.103   8.108   0.791 -0.4653 -0.3747  0.5069
  557MOL0     C75097  12.245   8.081   0.731  0.0666 -0.1725  0.0521
  557MOL0     C75098  12.352   8.137   0.817 -0.1647  0.5651  0.1924
  557MOL0     C75099  12.501   8.123   0.768  0.3801  0.3245 -0.4053
  557MOL0     C75100  12.590   8.144   0.897  0.6613 -0.4038 -0.0800
  557MOL0     C75101  12.734   8.151   0.872 -0.3355  0.1412  0.2648
  557MOL0     C75102  12.812   8.179   1.009  0.6484  0.1731  0.0251
  557MOL0     C75103  12.936   8.255   0.986 -0.1129  0.9042 -0.6608
  557MOL0    Cl75104  12.879   8.425   0.946 -0.5220 -0.7672 -0.1962
  557MOL0     C75105  11.801   8.141   0.612 -0.3715  0.1498 -0.3920
  557MOL0     C75106  11.661   8.173   0.640  0.2585 -0.2877 -0.1356
  557MOL0     O75107  11.460   8.266   0.978  0.1817  0.1262 -0.8846
  557MOL0     C75108  11.186   8.321   0.964 -0.0420 -1.0011 -0.6825
  557MOL0     C75109  11.047   8.329   0.974 -1.5919 -0.1358  0.4759
  557MOL0     N75110  10.437   8.496   0.741 -0.3480 -0.3355 -1.0540
  557MOL0     N75111  10.405   8.523   0.617 -0.1449  0.3150  0.1393
  557MOL0     C75112   9.450   8.216   0.164 -0.1490 -0.0054  0.5219
  557MOL0     C75113   9.382   8.091   0.172  0.4254 -0.6855  0.2426
  557MOL0     C75114   9.084   7.772   0.346 -1.0669  0.3181  0.9751
  557MOL0     C75115   8.957   7.735   0.397  0.3880 -0.1744 -0.3583
  557MOL0     C75116   8.917   7.603   0.430 -0.4231  0.6703  0.9208
  557MOL0     C75117   9.002   7.508   0.399 -1.4300  0.6735  0.2939
  557MOL0     O75118   8.959   7.381   0.412  0.4050  0.1756 -0.1621
  557MOL0     C75119   9.020   7.257   0.375  0.0565 -0.4974  0.1032
  557MOL0     C75120   8.913   7.146   0.365 -0.5519 -0.1508 -0.0490
  557MOL0     C75121   8.793   7.180   0.284 -0.7199 -0.2548  0.8105
  557MOL0     C75122   8.698   7.054   0.272  0.8806  0.6369 -0.2020
  557MOL0     C75123   8.630   7.013   0.401 -0.4126 -1.2272  0.6765
  557MOL0     C75124   8.573   6.990   0.505  0.2666  0.0198 -0.9106
  557MOL0     C75125   9.133   7.533   0.361  0.5124  0.3873  0.8683
  557MOL0     C75126   9.170   7.663   0.324 -0.1404  0.6923 -0.1983
  557MOL0     C75127   9.307   7.684   0.258  0.5676  0.4399  0.5233
  557MOL0     H75128   9.181   8.151   0.433 -0.1456 -0.6548 -0.8235
  557MOL0     H75129   9.315   8.370   0.427 -1.0054 -0.4457  0.0468
  557MOL0     H75130   9.650   8.412   0.127  1.1252  1.9285  0.2194
  557MOL0     H75131   9.514   8.475   0.043  2.1210  0.4388 -0.7605
  557MOL0     H75132   9.510   8.682   0.192  3.0119  3.2319  1.8067
  557MOL0     H75133   9.617   8.655   0.049 -1.1734 -2.4985 -0.7478
  557MOL0     H75134   9.685   8.636   0.344 -2.0040 -0.6262  0.1693
  557MOL0     H75135   9.727   8.757   0.226  1.2886 -1.4481 -5.6999
  557MOL0     H75136   9.833   8.468   0.174  0.1968 -0.3359 -0.0846
  557MOL0     H75137   9.889   8.618   0.112  3.0969  2.3103  1.7344
  557MOL0     H75138   9.973   8.664   0.353  0.7889  0.6591 -0.4261
  557MOL0     H75139   9.891   8.519   0.401 -0.3232 -1.9713 -2.6976
  557MOL0     H75140  10.031   8.379   0.279 -1.4041 -0.0977  2.4482
  557MOL0     H75141  10.133   8.504   0.214 -0.1896 -0.5094  0.3382
  557MOL0     H75142  10.076   8.469   0.511 -0.4164  1.0445 -0.9605
  557MOL0     H75143  10.171   8.595   0.441  3.4518 -1.3693  1.4224
  557MOL0     H75144  10.266   8.308   0.405 -3.5421 -0.4697  0.6806
  557MOL0     H75145  10.348   8.458   0.366  0.7162  0.3177  1.0642
  557MOL0     H75146  10.220   8.256   0.696 -0.1921  0.4718 -1.5010
  557MOL0     H75147  10.271   8.385   0.980 -0.8594 -0.0352 -1.6163
  557MOL0     H75148  10.333   8.230   0.917 -0.3070  0.2013  0.6114
  557MOL0     H75149  10.501   8.460   1.011 -2.0077  0.3226 -0.7537
  557MOL0     H75150  10.483   8.313   1.106  2.0002  3.5764  0.8528
  557MOL0     H75151  10.592   8.264   0.833 -0.9837 -2.4404  0.7880
  557MOL0     H75152  10.620   8.176   0.987  1.5369 -0.5431  0.8090
  557MOL0     H75153  10.784   8.319   1.071  1.4804  0.7773 -0.2838
  557MOL0     H75154  10.750   8.431   0.933 -1.1572  0.4535  0.1853
  557MOL0     H75155  10.983   8.084   0.744  1.3302 -2.1768 -0.1546
  557MOL0     H75156  11.229   8.076   0.742 -0.0987  1.7704 -1.6633
  557MOL0     H75157  11.640   8.097   0.971 -1.2286 -0.8846 -0.0946
  557MOL0     H75158  11.872   8.062   0.935  1.0344 -0.9250 -0.5919
  557MOL0     H75159  12.071   8.212   0.799 -1.9203 -0.3728 -3.1952
  557MOL0     H75160  12.097   8.069   0.893  0.1167  2.0123  1.5232
  557MOL0     H75161  12.251   7.972   0.728 -1.1986 -0.2418 -1.9075
  557MOL0     H75162  12.259   8.112   0.627  0.1802 -0.2007  0.0585
  557MOL0     H75163  12.348   8.240   0.854  1.0385  1.4346 -1.9739
  557MOL0     H75164  12.335   8.081   0.910 -0.4316 -0.5026 -0.4822
  557MOL0     H75165  12.525   8.192   0.687  2.6723 -0.1399 -0.2062
  557MOL0     H75166  12.506   8.017   0.742 -1.5858 -0.0107  0.3906
  557MOL0     H75167  12.565   8.067   0.970  0.4115 -1.6715 -1.4557
  557MOL0     H75168  12.547   8.235   0.940  2.5281  0.3031  0.4034
  557MOL0     H75169  12.776   8.069   0.813  1.9613  2.1777 -1.0985
  557MOL0     H75170  12.744   8.237   0.805  0.7479 -1.1567 -1.3128
  557MOL0     H75171  12.833   8.090   1.068  2.6500 -0.2057 -1.1534
  557MOL0     H75172  12.750   8.229   1.084  0.2513 -1.9673  1.1898
  557MOL0     H75173  12.998   8.247   1.076 -2.5099 -3.2703  0.8866
  557MOL0     H75174  12.987   8.210   0.900  0.5269 -2.4893  1.3063
  557MOL0     H75175  11.867   8.147   0.527  0.5298 -1.6886  0.1370
  557MOL0     H75176  11.614   8.202   0.546  2.2414  0.1464 -1.0418
  557MOL0     H75177  11.244   8.393   1.021  1.7832 -1.7856 -1.4601
  557MOL0     H75178  11.006   8.402   1.043 -2.0968  1.5856 -1.5449
  557MOL0     H75179   9.531   8.223   0.091 -2.0317 -0.1529 -1.6966
  557MOL0     H75180   9.410   8.010   0.105 -3.3994 -0.8364 -1.4327
  557MOL0     H75181   8.883   7.811   0.420 -0.1756 -1.1599  1.3299
  557MOL0     H75182   8.819   7.575   0.467  0.2126 -0.2832  1.9678
  557MOL0     H75183   9.096   7.235   0.451 -2.5189 -0.3956  2.8898
  557MOL0     H75184   9.071   7.267   0.279  1.2899  3.4434  0.9954
  557MOL0     H75185   8.890   7.126   0.470  0.0783 -0.9884 -0.0581
  557MOL0     H75186   8.959   7.055   0.327 -0.0775 -0.5017  1.3166
  557MOL0     H75187   8.823   7.205   0.182  0.3755  2.8279  1.7850
  557MOL0     H75188   8.750   7.269   0.330 -1.7119  0.1559 -0.8231
  557MOL0     H75189   8.620   7.072   0.198  0.2304  1.3517  0.6388
  557MOL0     H75190   8.761   6.971   0.236 -3.5458 -1.1826 -4.9844
  557MOL0     H75191   8.522   6.982   0.599  0.0473 -1.7924 -1.1440
  557MOL0     H75192   9.202   7.449   0.350  0.1455 -0.1652  2.4437
  557MOL0     H75193   9.299   7.723   0.156 -1.8362  0.9877  0.8673
  557MOL0     H75194   9.358   7.758   0.320 -0.1258  0.3402  1.2258
  557MOL0     H75195   9.353   7.585   0.251 -0.5251 -0.1999  1.9755
  558MOL0     O75196   7.862   8.814   7.197 -0.7945 -0.5355 -0.0777
  558MOL0     C75197   7.905   8.845   7.086 -0.2406  0.8498  0.3481
  558MOL0     O75198   7.837   8.923   6.991 -0.1400  0.3381  0.1683
  558MOL0     C75199   7.721   8.989   7.023 -0.5721 -0.7785 -0.8334
  558MOL0     C75200   7.596   8.935   7.008  0.5404 -0.7640 -0.3711
  558MOL0     C75201   7.477   8.996   7.056 -0.7223 -0.3297 -0.2716
  558MOL0     C75202   7.488   9.116   7.127  0.1440 -0.8151 -0.0211
  558MOL0     O75203   7.388   9.166   7.206  0.0189  0.7536  0.2688
  558MOL0     C75204   7.256   9.100   7.193  0.0258  0.1193  0.1511
  558MOL0     C75205   7.191   9.156   7.071 -0.1261 -1.1164  0.9048
  558MOL0     C75206   7.043   9.150   7.074  0.7458 -0.0685  0.4153
  558MOL0     C75207   6.973   9.208   6.956 -0.2769 -1.8443  0.3198
  558MOL0     C75208   6.999   9.138   6.823 -0.4925 -0.2205 -0.1911
  558MOL0     C75209   6.971   9.206   6.691  0.7393  0.9338 -0.2564
  558MOL0     C75210   7.039   9.343   6.683  0.0373  0.0265  0.7307
  558MOL0     C75211   7.057   9.393   6.539  0.1428  0.9925  0.5815
  558MOL0     N75212   7.132   9.525   6.535 -0.1539  0.4790  0.2325
  558MOL0     C75213   7.239   9.563   6.467  0.6470 -0.5654  0.6059
  558MOL0     C75214   7.255   9.702   6.488  0.0553  0.4997  0.5697
  558MOL0     C75215   7.384   9.776   6.438  1.1329  1.1041  0.9905
  558MOL0     C75216   7.458   9.814   6.561 -0.2260 -0.4908 -1.2517
  558MOL0     C75217   7.608   9.848   6.522  0.0405  0.0552 -1.0671
  558MOL0     C75218   7.701   9.882   6.642  0.6537  0.3481  0.3850
  558MOL0     O75219   7.818   9.956   6.600  0.8931  0.0870 -0.3500
  558MOL0     C75220   7.892  10.000   6.709 -0.2023  0.7896 -0.0143
  558MOL0     C75221   8.024   9.960   6.730 -0.2545  0.9031 -0.4353
  558MOL0     C75222   8.103  10.005   6.837 -0.5536 -0.2617 -0.2291
  558MOL0     C75223   8.051  10.104   6.925 -0.4062  0.7284 -0.5555
  558MOL0     C75224   8.140  10.168   7.021  0.1295 -0.2897 -1.3791
  558MOL0     O75225   8.271  10.134   7.026 -0.5636  0.0113 -0.6597
  558MOL0     C75226   8.351  10.237   7.069  0.3514 -0.0921  0.7034
  558MOL0     C75227   8.336  10.376   7.051 -0.7232 -0.4467 -0.3819
  558MOL0     C75228   8.439  10.468   7.075  0.7036 -0.9836  0.6790
  558MOL0     C75229   8.561  10.423   7.116 -0.8479  0.7170 -0.4084
  558MOL0     O75230   8.679  10.504   7.121  0.6985  0.4636 -0.2057
  558MOL0     C75231   8.661  10.643   7.122 -0.6526 -0.4757 -0.1942
  558MOL0     C75232   8.618  10.695   7.260 -0.6169  0.2077  0.4945
  558MOL0     C75233   8.599  10.850   7.269  0.7389 -0.6470 -0.5361
  558MOL0     C75234   8.746  10.914   7.257  0.3922  0.3469  0.1597
  558MOL0     C75235   8.723  11.065   7.260  0.1016 -0.2927 -0.3279
  558MOL0     C75236   8.681  11.137   7.388 -0.3642  1.5553 -0.1102
  558MOL0     C75237   8.803  11.172   7.474 -1.3371  0.4246 -0.0332
  558MOL0     C75238   8.878  11.304   7.430  0.2228  0.4075  0.1278
  558MOL0    Cl75239   8.990  11.371   7.558  0.3182  0.0954  0.0913
  558MOL0     C75240   8.576  10.286   7.138  0.3774 -0.3127  0.4546
  558MOL0     C75241   8.472  10.191   7.121  0.8814 -0.6938  0.3030
  558MOL0     O75242   8.086  10.261   7.089  0.0747  0.4066  0.1776
  558MOL0     C75243   7.917  10.139   6.912  0.4757 -1.4595 -0.2866
  558MOL0     C75244   7.837  10.088   6.801  0.2191 -0.0318  0.2222
  558MOL0     N75245   7.149   9.741   6.564  0.3880  0.0078  0.4898
  558MOL0     N75246   7.083   9.634   6.595 -0.2809  0.4938 -0.0359
  558MOL0     C75247   7.616   9.172   7.139  0.2211 -0.5725  0.6164
  558MOL0     C75248   7.732   9.110   7.083  0.6703  0.3685 -0.8101
  558MOL0     C75249   8.037   8.781   7.047  0.5694 -0.1375 -0.6574
  558MOL0     C75250   8.045   8.639   7.062 -0.0458  0.0381 -0.1345
  558MOL0     C75251   8.158   8.571   7.007  0.3231 -0.5422  0.5816
  558MOL0     C75252   8.262   8.645   6.953  0.0859  0.2371  1.0337
  558MOL0     O75253   8.375   8.592   6.891  0.2900 -0.4911 -0.2991
  558MOL0     C75254   8.384   8.445   6.895 -0.6349  0.3546 -0.0520
  558MOL0     C75255   8.522   8.409   6.855 -1.2107 -0.2106 -0.4545
  558MOL0     C75256   8.549   8.451   6.705  0.7368 -0.4178  0.1991
  558MOL0     C75257   8.693   8.430   6.670  0.3646 -0.0288  0.3501
  558MOL0     C75258   8.702   8.286   6.645 -0.3484 -0.2955  0.0120
  558MOL0     C75259   8.706   8.166   6.627 -0.0193  0.2426 -0.6372
  558MOL0     C75260   8.248   8.791   6.953  0.5039  0.9659 -0.3875
  558MOL0     C75261   8.132   8.857   6.988  0.3938  0.1967 -0.0407
  558MOL0     C75262   8.131   9.008   6.973  0.7027  0.5116  0.2114
  558MOL0     H75263   7.594   8.839   6.959 -1.0756  0.3310 -2.6194
  558MOL0     H75264   7.387   8.936   7.050  1.3489 -3.5748 -2.2229
  558MOL0     H75265   7.250   8.992   7.181  1.2135 -0.2724  2.5835
  558MOL0     H75266   7.193   9.120   7.280  0.4898  2.9871 -0.0700
  558MOL0     H75267   7.225   9.101   6.982 -1.2045  0.6059 -0.6524
  558MOL0     H75268   7.206   9.263   7.052 -1.1850 -1.2958 -1.3246
  558MOL0     H75269   6.998   9.192   7.164  0.7058  1.0994 -0.1392
  558MOL0     H75270   7.025   9.042   7.063 -1.8173  0.4989 -1.8575
  558MOL0     H75271   6.864   9.208   6.970 -0.5240 -2.4254 -1.3361
  558MOL0     H75272   6.994   9.314   6.940 -0.3396 -1.6938  1.1803
  558MOL0     H75273   7.107   9.119   6.823 -0.2677  0.6082  2.6041
  558MOL0     H75274   6.943   9.044   6.820 -1.0632  0.1248 -1.6840
  558MOL0     H75275   7.007   9.145   6.607 -1.9992  1.0812 -1.6657
  558MOL0     H75276   6.863   9.202   6.675  1.0785 -0.4579 -2.8422
  558MOL0     H75277   7.142   9.349   6.720 -0.1814  1.7670  1.1472
  558MOL0     H75278   6.967   9.414   6.725 -2.1733 -0.5339 -1.8719
  558MOL0     H75279   7.113   9.315   6.486 -3.2174 -2.8650  2.1601
  558MOL0     H75280   6.963   9.409   6.486  0.0542  0.2384  0.5030
  558MOL0     H75281   7.311   9.508   6.406 -0.4812 -3.1054  1.4016
  558MOL0     H75282   7.441   9.724   6.361  0.2867  2.9531 -0.9883
  558MOL0     H75283   7.344   9.863   6.384 -0.0919  0.2091  0.4180
  558MOL0     H75284   7.408   9.899   6.609 -1.1082 -2.5097  1.6449
  558MOL0     H75285   7.457   9.735   6.636 -1.7846  0.6974  0.0596
  558MOL0     H75286   7.596   9.939   6.463  2.1825  1.2431  0.2173
  558MOL0     H75287   7.648   9.781   6.445 -1.5164 -1.1252 -0.9098
  558MOL0     H75288   7.726   9.790   6.696  0.1748  0.6050  1.0664
  558MOL0     H75289   7.640   9.947   6.705  1.7859 -0.3788  2.3388
  558MOL0     H75290   8.073   9.878   6.678  2.0498  0.1662  2.6435
  558MOL0     H75291   8.208   9.977   6.844  0.1412  2.2555  0.7269
  558MOL0     H75292   8.239  10.398   7.006 -1.8879 -1.9194  1.2756
  558MOL0     H75293   8.417  10.573   7.060  0.2894 -1.3026 -1.2188
  558MOL0     H75294   8.749  10.687   7.073  1.3443 -2.2083  1.6190
  558MOL0     H75295   8.584  10.674   7.050 -0.1059 -0.7990 -0.9291
  558MOL0     H75296   8.523  10.647   7.284  1.6788 -4.0625  2.0539
  558MOL0     H75297   8.697  10.669   7.332  0.4490  0.7047 -0.4560
  558MOL0     H75298   8.530  10.877   7.188 -1.2597 -3.8935 -0.0668
  558MOL0     H75299   8.560  10.889   7.364 -0.2306  2.5291 -2.0768
  558MOL0     H75300   8.791  10.891   7.159  1.8691  0.5317  0.7806
  558MOL0     H75301   8.822  10.892   7.332  2.0463  1.8958 -0.9942
  558MOL0     H75302   8.652  11.087   7.180 -0.8096  0.9075  0.7787
  558MOL0     H75303   8.820  11.104   7.226  0.0969  0.8417  0.8808
  558MOL0     H75304   8.628  11.231   7.370  0.4531  1.5998 -2.7116
  558MOL0     H75305   8.617  11.071   7.446  0.9117 -0.9815 -1.4244
  558MOL0     H75306   8.872  11.087   7.478 -1.6789  0.1989  3.0654
  558MOL0     H75307   8.782  11.196   7.578  2.2398  5.2827 -0.0624
  558MOL0     H75308   8.917  11.286   7.330 -1.0807 -2.7276  0.0615
  558MOL0     H75309   8.805  11.385   7.421  0.0323  0.1210 -1.0413
  558MOL0     H75310   8.678  10.254   7.157 -0.3364 -3.6319 -0.4755
  558MOL0     H75311   8.486  10.085   7.141 -0.7756 -0.8050  1.1117
  558MOL0     H75312   7.866  10.213   6.973 -0.9939 -1.6237 -1.2621
  558MOL0     H75313   7.736  10.124   6.784  0.7472  0.3035 -2.9061
  558MOL0     H75314   7.644   9.265   7.187  2.1576  0.0917 -1.6011
  558MOL0     H75315   7.831   9.152   7.094  0.6980  0.3784 -1.0890
  558MOL0     H75316   7.965   8.575   7.098 -1.8940  1.7535 -0.9553
  558MOL0     H75317   8.147   8.465   6.983  0.3138 -0.3988 -0.0585
  558MOL0     H75318   8.317   8.393   6.827  0.6701 -1.7536  0.1728
  558MOL0     H75319   8.370   8.396   6.992 -1.8079 -0.7120 -0.7395
  558MOL0     H75320   8.544   8.303   6.864 -0.0280  0.1000  0.5815
  558MOL0     H75321   8.594   8.463   6.918  0.6310 -1.0051 -1.7794
  558MOL0     H75322   8.519   8.555   6.687 -0.5406 -1.2015 -2.7901
  558MOL0     H75323   8.486   8.391   6.638  3.0418  0.8062 -3.3257
  558MOL0     H75324   8.718   8.486   6.579  2.6259 -2.7778 -0.8763
  558MOL0     H75325   8.745   8.468   6.758  2.1694 -2.8224  0.6234
  558MOL0     H75326   8.718   8.060   6.627  3.5700  0.5087  1.6896
  558MOL0     H75327   8.319   8.852   6.898  1.8894  0.8769  1.1910
  558MOL0     H75328   8.221   9.051   7.017 -0.3155  3.7958 -0.6166
  558MOL0     H75329   8.130   9.041   6.868 -3.4690 -4.2916 -1.6881
  558MOL0     H75330   8.037   9.051   7.011 -0.8780 -1.5765 -1.0954
  559MOL0     O75331   8.088   5.881   4.726  0.3593 -0.1227 -0.0341
  559MOL0     C75332   7.987   5.913   4.670  0.5496 -0.2772 -0.3476
  559MOL0     O75333   7.973   5.959   4.538 -0.6319 -0.8279  0.9111
  559MOL0     C75334   8.082   5.932   4.463  0.2175  0.2867  0.9039
  559MOL0     C75335   8.134   5.796   4.438  0.1499  0.4382  0.2448
  559MOL0     C75336   8.244   5.780   4.349 -0.4885  0.8147 -0.1598
  559MOL0     C75337   8.287   5.885   4.275 -0.5592  0.9971 -0.6833
  559MOL0     O75338   8.359   5.853   4.170 -1.2753  0.1606  0.8416
  559MOL0     C75339   8.426   5.959   4.089 -0.2658  0.2487  0.8915
  559MOL0     C75340   8.540   5.901   3.995 -0.1832  0.8946 -0.7101
  559MOL0     C75341   8.492   5.759   3.926  0.3631 -0.5918 -0.7442
  559MOL0     C75342   8.614   5.681   3.864 -0.1418  0.0239  0.0621
  559MOL0     C75343   8.645   5.757   3.730 -0.0713  0.2261 -0.7171
  559MOL0     C75344   8.716   5.667   3.636  0.3310  0.1907  0.1471
  559MOL0     C75345   8.746   5.744   3.509 -0.2671 -0.1569  0.2052
  559MOL0     C75346   8.785   5.660   3.396 -0.7913 -1.2022 -0.3201
  559MOL0     N75347   8.910   5.586   3.417  0.4510  0.2934  0.3314
  559MOL0     C75348   8.923   5.476   3.497 -0.1549 -0.1389 -0.2125
  559MOL0     C75349   9.040   5.427   3.458 -0.4110  1.0850  0.6767
  559MOL0     C75350   9.116   5.297   3.493  0.0123  0.5578  0.5072
  559MOL0     C75351   9.252   5.330   3.551  0.2858 -0.6005 -0.8788
  559MOL0     C75352   9.230   5.416   3.675 -0.3045  0.1324  0.4116
  559MOL0     C75353   9.357   5.410   3.772  0.3065 -0.4049  0.2906
  559MOL0     O75354   9.318   5.496   3.884  0.1617  0.2057  0.8888
  559MOL0     C75355   9.243   5.456   3.991  0.0730  0.7203 -0.4932
  559MOL0     C75356   9.212   5.549   4.081  1.2622 -0.7471  0.4390
  559MOL0     C75357   9.109   5.528   4.175  1.0513 -0.0528  0.2360
  559MOL0     C75358   9.055   5.403   4.187 -0.7042  0.6795 -0.3760
  559MOL0     C75359   8.964   5.359   4.305  0.1278 -0.5474 -1.3445
  559MOL0     O75360   8.983   5.428   4.433  0.1530 -0.6336 -0.1630
  559MOL0     C75361   8.915   5.381   4.544 -1.6078 -0.0259  0.5478
  559MOL0     C75362   8.773   5.380   4.549 -0.2248  0.2063 -0.0878
  559MOL0     C75363   8.709   5.344   4.672  0.6308 -0.5031 -0.2455
  559MOL0     C75364   8.783   5.322   4.789 -0.0688 -0.1097  0.0117
  559MOL0     O75365   8.714   5.288   4.904 -0.5360 -0.7655 -0.3274
  559MOL0     C75366   8.577   5.343   4.919  0.3444  0.2822 -0.9304
  559MOL0     C75367   8.523   5.336   5.059  0.2201 -0.2818 -0.1910
  559MOL0     C75368   8.594   5.442   5.147  0.5615 -0.4857 -0.2485
  559MOL0     C75369   8.740   5.403   5.177 -0.1562  0.6374 -0.0759
  559MOL0     C75370   8.797   5.437   5.326 -0.4005  0.2051  0.1739
  559MOL0     C75371   8.746   5.577   5.369  0.8938  0.9567  0.8638
  559MOL0     C75372   8.817   5.697   5.304  0.2819  0.0362 -0.4777
  559MOL0     C75373   8.760   5.826   5.345 -0.0446  0.1026 -0.7020
  559MOL0    Cl75374   8.833   5.967   5.255  0.3269 -0.4292  0.2001
  559MOL0     C75375   8.922   5.336   4.790 -1.4712  0.7323  0.3170
  559MOL0     C75376   8.993   5.372   4.668  0.4123 -0.4302 -0.2316
  559MOL0     O75377   8.890   5.271   4.282  0.3088  0.2770 -0.5237
  559MOL0     C75378   9.103   5.296   4.102 -1.1508  0.4434 -0.4422
  559MOL0     C75379   9.195   5.323   4.002  0.4968 -0.2587 -0.2764
  559MOL0     N75380   9.102   5.511   3.361  0.5924  0.2505  0.8541
  559MOL0     N75381   9.020   5.601   3.334 -0.4494 -0.3552 -0.0626
  559MOL0     C75382   8.241   6.014   4.299 -0.4105  0.6352 -0.9732
  559MOL0     C75383   8.148   6.034   4.400  0.2432 -0.4441 -0.2056
  559MOL0     C75384   7.866   5.918   4.769 -0.0485  0.0197 -0.3377
  559MOL0     C75385   7.890   5.890   4.904 -0.7534  0.9469  0.5289
  559MOL0     C75386   7.790   5.911   5.001  0.4480 -0.2517 -0.5141
  559MOL0     C75387   7.662   5.959   4.967 -1.0893  0.0321 -0.4535
  559MOL0     O75388   7.559   5.987   5.048 -0.4351 -0.6036 -0.8589
  559MOL0     C75389   7.585   6.008   5.188 -2.0391 -0.2391  0.8032
  559MOL0     C75390   7.480   6.100   5.255  0.1849 -0.7013  0.0323
  559MOL0     C75391   7.335   6.073   5.218 -0.0495  0.6488  0.4966
  559MOL0     C75392   7.229   6.185   5.228  0.3345  0.0700  0.0939
  559MOL0     C75393   7.219   6.242   5.360  0.0523 -0.8880  0.4795
  559MOL0     C75394   7.210   6.276   5.477 -0.7972 -0.7049  0.3309
  559MOL0     C75395   7.635   5.968   4.826 -1.0443  1.0676 -0.7433
  559MOL0     C75396   7.732   5.954   4.725 -0.1123  0.2981  0.6332
  559MOL0     C75397   7.685   5.983   4.590 -0.0556 -0.6559 -0.2299
  559MOL0     H75398   8.075   5.713   4.476 -0.3462  1.8094  2.7098
  559MOL0     H75399   8.291   5.683   4.339  1.2566  1.4958  1.0466
  559MOL0     H75400   8.361   6.017   4.023  0.1169 -1.5396 -1.1707
  559MOL0     H75401   8.473   6.028   4.160 -0.4952  2.9336 -1.4108
  559MOL0     H75402   8.628   5.892   4.059 -1.4031 -1.6980  0.7691
  559MOL0     H75403   8.559   5.981   3.922  1.1450  0.5398 -0.7760
  559MOL0     H75404   8.426   5.770   3.840  0.8725  2.1554 -0.8722
  559MOL0     H75405   8.446   5.694   4.001 -2.0594  1.2897 -0.4734
  559MOL0     H75406   8.705   5.690   3.924 -0.2088 -2.1445  0.5577
  559MOL0     H75407   8.584   5.577   3.852 -1.6228  0.6778 -2.5680
  559MOL0     H75408   8.557   5.799   3.680 -0.9386  0.2807  0.8227
  559MOL0     H75409   8.719   5.835   3.750  0.8858 -0.6385 -0.7941
  559MOL0     H75410   8.808   5.621   3.674  0.3282  0.9537  1.1036
  559MOL0     H75411   8.645   5.585   3.626 -1.5632  1.9513 -2.0662
  559MOL0     H75412   8.824   5.819   3.523  0.4959 -1.2455  2.1548
  559MOL0     H75413   8.656   5.792   3.468  0.9296  0.6397 -1.6258
  559MOL0     H75414   8.704   5.587   3.390 -1.7203 -0.2341  0.1609
  559MOL0     H75415   8.793   5.730   3.312  1.0148  0.9798  1.5451
  559MOL0     H75416   8.854   5.434   3.570 -0.1069  0.0782 -0.0387
  559MOL0     H75417   9.056   5.233   3.558  2.1857  1.1799  3.2953
  559MOL0     H75418   9.119   5.243   3.398  1.3757 -2.2612  2.0082
  559MOL0     H75419   9.308   5.238   3.568 -0.9799 -1.6905 -2.2577
  559MOL0     H75420   9.303   5.389   3.474  0.1883 -3.3864 -3.2550
  559MOL0     H75421   9.138   5.384   3.726 -1.1355  0.6372 -0.7330
  559MOL0     H75422   9.214   5.516   3.634  2.5550 -0.7612 -3.4263
  559MOL0     H75423   9.440   5.460   3.722  0.4942  1.3789  2.2945
  559MOL0     H75424   9.392   5.312   3.805  1.2192 -0.5377 -0.9891
  559MOL0     H75425   9.263   5.642   4.058  3.9609 -2.2051  0.1167
  559MOL0     H75426   9.059   5.606   4.232 -0.4103 -0.0713 -0.9744
  559MOL0     H75427   8.723   5.393   4.454 -2.9568  0.7000  1.3310
  559MOL0     H75428   8.603   5.324   4.666  0.5744  0.1636 -1.7015
  559MOL0     H75429   8.576   5.449   4.890 -1.4583  1.1201  1.7992
  559MOL0     H75430   8.516   5.285   4.850  0.2053 -1.6053  0.6943
  559MOL0     H75431   8.417   5.366   5.062  0.3995  0.3307  0.5002
  559MOL0     H75432   8.518   5.230   5.085 -0.1029 -0.6517 -1.6542
  559MOL0     H75433   8.579   5.545   5.114  0.9327 -0.7482 -1.2842
  559MOL0     H75434   8.552   5.438   5.248  0.9858 -2.0040 -0.1102
  559MOL0     H75435   8.809   5.438   5.099  0.3825  0.9473  0.5266
  559MOL0     H75436   8.737   5.294   5.172  0.3378  0.5518  1.0859
  559MOL0     H75437   8.905   5.437   5.343 -0.4292  0.5750  0.3610
  559MOL0     H75438   8.754   5.365   5.397  1.7915 -0.7782  0.5977
  559MOL0     H75439   8.638   5.589   5.354  1.2228  0.0103 -3.3857
  559MOL0     H75440   8.773   5.579   5.475  1.6476 -1.6209  0.7756
  559MOL0     H75441   8.806   5.690   5.195 -2.3738  0.5228 -0.3177
  559MOL0     H75442   8.924   5.679   5.313  0.1230 -1.2402 -0.8899
  559MOL0     H75443   8.651   5.820   5.341 -0.0208 -2.1677  0.4860
  559MOL0     H75444   8.797   5.829   5.448  3.6349  1.9262 -1.9250
  559MOL0     H75445   8.955   5.318   4.892 -4.9703 -1.7640  1.2036
  559MOL0     H75446   9.097   5.401   4.683  0.0978  0.7411 -0.2027
  559MOL0     H75447   9.077   5.191   4.101  3.0027 -0.7756 -1.9667
  559MOL0     H75448   9.216   5.243   3.931  0.8642  0.3141 -0.8195
  559MOL0     H75449   8.284   6.098   4.246  0.4391 -0.2946 -1.8006
  559MOL0     H75450   8.120   6.136   4.427  1.4709 -0.3186  0.6680
  559MOL0     H75451   7.990   5.862   4.937 -0.7614 -0.1169 -0.3069
  559MOL0     H75452   7.808   5.891   5.106  0.0817  2.2236  0.0837
  559MOL0     H75453   7.686   6.050   5.191 -0.7285 -2.7506 -2.2395
  559MOL0     H75454   7.584   5.910   5.237  1.1015 -0.2475  1.0706
  559MOL0     H75455   7.507   6.203   5.231  0.7882 -1.0781 -0.9671
  559MOL0     H75456   7.489   6.089   5.364 -1.7194 -1.7325  0.1400
  559MOL0     H75457   7.296   6.000   5.290  0.2121  1.7216  1.7560
  559MOL0     H75458   7.339   6.026   5.119  1.2896  0.9905  0.3715
  559MOL0     H75459   7.250   6.266   5.157 -0.9854 -1.3754 -2.0959
  559MOL0     H75460   7.132   6.146   5.195  0.0876 -0.7267  1.6935
  559MOL0     H75461   7.191   6.298   5.580  2.6779  0.8568  0.7824
  559MOL0     H75462   7.532   5.985   4.795 -1.0307 -1.6588 -2.7480
  559MOL0     H75463   7.721   5.903   4.524 -0.4223 -2.9873  2.2013
  559MOL0     H75464   7.576   5.986   4.586 -0.0899 -0.6515  0.5599
  559MOL0     H75465   7.729   6.080   4.566  0.6062 -1.0024 -0.4525
  560MOL0     O75466   6.249   4.136  10.426 -0.2568  0.3467 -0.4122
  560MOL0     C75467   6.273   4.153  10.551  0.6256 -0.9250 -0.0012
  560MOL0     O75468   6.335   4.067  10.639  0.2336 -0.1404  0.2728
  560MOL0     C75469   6.425   3.981  10.576 -0.3130 -0.8284  0.4104
  560MOL0     C75470   6.408   3.856  10.511  1.2124  0.8721 -0.8417
  560MOL0     C75471   6.510   3.763  10.486  0.3795 -0.8043 -0.0681
  560MOL0     C75472   6.643   3.791  10.531 -0.7585  0.1599 -0.5351
  560MOL0     O75473   6.745   3.699  10.508 -0.9081 -0.0881 -0.7028
  560MOL0     C75474   6.810   3.715  10.384 -1.3128  0.3092  0.6360
  560MOL0     C75475   6.956   3.758  10.413 -0.1027 -0.8977 -0.0981
  560MOL0     C75476   7.066   3.658  10.430 -0.2313  0.4231 -0.2396
  560MOL0     C75477   7.206   3.719  10.451 -0.1969 -0.6137  0.2185
  560MOL0     C75478   7.270   3.793  10.327  0.1076 -0.2666  0.0720
  560MOL0     C75479   7.382   3.715  10.256  0.4103 -0.4710 -0.3411
  560MOL0     C75480   7.344   3.674  10.111 -0.4295 -0.7269 -0.4760
  560MOL0     C75481   7.219   3.581  10.088 -0.3572 -0.6237 -0.4464
  560MOL0     N75482   7.185   3.585   9.947 -1.3838 -0.8204  0.4138
  560MOL0     C75483   7.116   3.681   9.879  0.5215 -0.4836 -0.7110
  560MOL0     C75484   7.089   3.624   9.760  0.0369  0.2848  0.3606
  560MOL0     C75485   7.008   3.678   9.648  0.1217  0.3209 -0.1787
  560MOL0     C75486   6.861   3.688   9.698  0.1366  0.2689  0.2942
  560MOL0     C75487   6.768   3.694   9.579 -0.3108 -0.1375  0.4489
  560MOL0     C75488   6.634   3.743   9.631 -0.0205  0.0165  0.6976
  560MOL0     O75489   6.563   3.632   9.682  0.4320  0.1106  0.6068
  560MOL0     C75490   6.436   3.659   9.731  0.2927 -0.7422  0.1631
  560MOL0     C75491   6.374   3.559   9.802 -0.4503 -0.1632 -0.4252
  560MOL0     C75492   6.252   3.582   9.865  0.2907 -0.2430 -0.3475
  560MOL0     C75493   6.191   3.710   9.870  0.4919  0.3584  0.5145
  560MOL0     C75494   6.079   3.737   9.955 -0.0932  0.0519  0.7423
  560MOL0     O75495   6.007   3.855   9.936  0.0803 -0.1888  0.9370
  560MOL0     C75496   5.935   3.884  10.048 -0.3799  0.3426 -1.0989
  560MOL0     C75497   5.986   3.978  10.137  0.5437 -0.7255  0.4277
  560MOL0     C75498   5.930   4.006  10.258  0.1628  0.4114  0.0648
  560MOL0     C75499   5.809   3.943  10.290  0.0997  0.0432  0.7288
  560MOL0     O75500   5.759   3.958  10.420 -0.0202  0.4960  0.3204
  560MOL0     C75501   5.765   4.085  10.504  0.0884 -0.0465  0.2368
  560MOL0     C75502   5.716   4.055  10.646 -0.4273  0.0976 -0.6471
  560MOL0     C75503   5.779   4.146  10.748 -0.2469 -0.3606 -0.3109
  560MOL0     C75504   5.717   4.101  10.883  0.8242 -0.2108  1.0402
  560MOL0     C75505   5.795   4.155  11.009 -0.4714  0.9969  0.2841
  560MOL0     C75506   5.736   4.086  11.131 -0.6153  0.1099 -0.1489
  560MOL0     C75507   5.722   4.172  11.254  0.3294 -0.1979 -0.0759
  560MOL0     C75508   5.607   4.276  11.254  0.0100  0.0977 -1.0199
  560MOL0    Cl75509   5.462   4.175  11.263 -0.2060 -0.1255  0.3572
  560MOL0     C75510   5.750   3.857  10.196  1.1396 -0.5090  0.0639
  560MOL0     C75511   5.814   3.819  10.079  0.4260 -0.6594 -0.5312
  560MOL0     O75512   6.061   3.652  10.044 -0.7338 -0.2757 -0.7141
  560MOL0     C75513   6.263   3.813   9.806  0.5827  0.2587 -0.8514
  560MOL0     C75514   6.385   3.793   9.741 -0.5335 -0.2281  0.1249
  560MOL0     N75515   7.144   3.495   9.752 -0.9106  0.7853  0.8124
  560MOL0     N75516   7.211   3.482   9.862 -0.5718  0.4349 -0.1823
  560MOL0     C75517   6.670   3.920  10.581  0.0251  1.3534  0.2337
  560MOL0     C75518   6.564   4.015  10.609  0.0757 -0.2245 -0.5452
  560MOL0     C75519   6.218   4.280  10.608 -0.2525 -0.1443  0.8128
  560MOL0     C75520   6.145   4.274  10.730 -1.1147 -0.1613  0.8212
  560MOL0     C75521   6.081   4.388  10.786 -0.2708 -0.1385 -0.6408
  560MOL0     C75522   6.088   4.510  10.720  0.4958 -0.5384  0.2388
  560MOL0     O75523   6.022   4.604  10.805  0.4426 -0.0872  0.7920
  560MOL0     C75524   6.002   4.731  10.755  0.2889  0.1107  0.3937
  560MOL0     C75525   6.125   4.834  10.784  0.4891 -0.4481  0.4834
  560MOL0     C75526   6.163   4.840  10.935 -1.0186 -0.1615 -0.0110
  560MOL0     C75527   6.294   4.908  10.969 -1.4275  0.0450 -1.2714
  560MOL0     C75528   6.416   4.857  10.911  0.4333 -0.3462  0.5349
  560MOL0     C75529   6.519   4.816  10.858  0.2678 -0.4202  1.5312
  560MOL0     C75530   6.166   4.518  10.601 -0.1066 -0.2217 -0.0077
  560MOL0     C75531   6.232   4.408  10.543  0.6902  0.1648 -0.0527
  560MOL0     C75532   6.318   4.416  10.420  0.0822  0.8192 -0.0921
  560MOL0     H75533   6.308   3.821  10.488 -0.2189  2.6977  2.0915
  560MOL0     H75534   6.479   3.670  10.439 -2.4502  0.6449 -1.3405
  560MOL0     H75535   6.806   3.633  10.312 -1.5824  1.2659 -0.4714
  560MOL0     H75536   6.762   3.796  10.327 -1.2782 -0.0442  0.0916
  560MOL0     H75537   6.942   3.816  10.505  2.8566  0.4402 -0.3657
  560MOL0     H75538   6.989   3.837  10.345 -0.6058  0.2220  0.9149
  560MOL0     H75539   7.067   3.591  10.344  2.0152 -1.1407  0.9039
  560MOL0     H75540   7.048   3.586  10.510  2.5042 -0.4429 -0.2920
  560MOL0     H75541   7.195   3.781  10.540  2.6505  1.4249 -0.7003
  560MOL0     H75542   7.271   3.637  10.483  0.9499 -1.1093 -2.9669
  560MOL0     H75543   7.190   3.818  10.257 -2.5182 -2.7669  1.9488
  560MOL0     H75544   7.311   3.886  10.367 -0.3244 -0.1055  0.1374
  560MOL0     H75545   7.476   3.772  10.262  0.4690 -0.6346  0.5182
  560MOL0     H75546   7.409   3.620  10.303 -3.1834 -2.7358 -2.4384
  560MOL0     H75547   7.430   3.617  10.074  0.7996  0.4830  0.4051
  560MOL0     H75548   7.329   3.769  10.059  1.5543  1.4900  2.6789
  560MOL0     H75549   7.226   3.477  10.121  0.2088 -1.4319 -2.9019
  560MOL0     H75550   7.132   3.626  10.137 -1.8987 -2.0671 -1.7371
  560MOL0     H75551   7.073   3.774   9.912  0.3646 -1.5709  2.4387
  560MOL0     H75552   7.062   3.771   9.625  4.2138 -1.9640 -0.9347
  560MOL0     H75553   7.022   3.605   9.567 -1.3368  0.3023 -0.4329
  560MOL0     H75554   6.828   3.593   9.742  0.2212 -0.5582 -1.3435
  560MOL0     H75555   6.848   3.770   9.768 -0.4394 -0.1721  0.7104
  560MOL0     H75556   6.764   3.600   9.522 -2.9415  0.6453 -0.8183
  560MOL0     H75557   6.808   3.770   9.511  1.2443 -1.4646 -0.1714
  560MOL0     H75558   6.582   3.784   9.544 -1.3510  1.4920  2.1338
  560MOL0     H75559   6.645   3.824   9.703 -2.4816  0.9138  0.1464
  560MOL0     H75560   6.426   3.465   9.817  1.6988  1.1501  0.7421
  560MOL0     H75561   6.210   3.500   9.922  2.3068 -2.1261 -1.4180
  560MOL0     H75562   6.081   4.020  10.104 -0.9680  3.2434  0.5396
  560MOL0     H75563   5.973   4.061  10.341  0.5572  0.3354 -0.0912
  560MOL0     H75564   5.870   4.113  10.514 -0.3555  1.0762  2.6422
  560MOL0     H75565   5.704   4.167  10.465  1.4288  2.2208  2.5722
  560MOL0     H75566   5.609   4.036  10.663 -0.0877 -5.4601 -2.5546
  560MOL0     H75567   5.750   3.952  10.662 -2.8538 -0.9086 -1.4029
  560MOL0     H75568   5.886   4.127  10.759 -0.3301 -1.8878 -1.8328
  560MOL0     H75569   5.762   4.252  10.730 -1.3015 -0.3253  0.7351
  560MOL0     H75570   5.695   3.995  10.895 -1.8770 -0.0843 -1.6171
  560MOL0     H75571   5.618   4.146  10.885  0.7101 -0.3573 -0.4003
  560MOL0     H75572   5.794   4.264  10.998  2.5403  1.1589  0.8716
  560MOL0     H75573   5.902   4.133  11.000 -0.0859  2.0737  1.7817
  560MOL0     H75574   5.632   4.070  11.100 -1.1538  1.7220  0.6695
  560MOL0     H75575   5.780   3.988  11.148  0.1129  0.4893  0.2084
  560MOL0     H75576   5.816   4.219  11.286  0.5459 -1.8671  1.9723
  560MOL0     H75577   5.704   4.102  11.337  0.9513 -3.4007 -2.4630
  560MOL0     H75578   5.617   4.344  11.339  2.3517 -2.2897  0.7373
  560MOL0     H75579   5.612   4.343  11.167  1.5401 -0.0963 -1.1041
  560MOL0     H75580   5.663   3.800  10.229  3.1124 -3.3335  0.7624
  560MOL0     H75581   5.760   3.747  10.019 -4.5782  2.5832 -0.4710
  560MOL0     H75582   6.220   3.912   9.795  0.1768  0.5367  2.2264
  560MOL0     H75583   6.430   3.884   9.703 -3.0498  0.4692 -1.4449
  560MOL0     H75584   6.771   3.960  10.583  0.5874  0.5199 -3.5443
  560MOL0     H75585   6.599   4.102  10.661 -1.8907 -0.8604  2.0570
  560MOL0     H75586   6.133   4.184  10.789 -2.0312  1.3263  3.0806
  560MOL0     H75587   6.017   4.388  10.874 -2.1621 -1.9975 -1.9300
  560MOL0     H75588   5.913   4.768  10.806  0.9518 -1.3082  2.7424
  560MOL0     H75589   5.980   4.727  10.648 -0.3684 -3.9375  0.5478
  560MOL0     H75590   6.101   4.933  10.746 -0.4152 -0.9506 -0.3026
  560MOL0     H75591   6.213   4.796  10.731  2.3511  2.4511  1.2771
  560MOL0     H75592   6.158   4.743  10.985 -0.7535  1.1003  2.6171
  560MOL0     H75593   6.076   4.890  10.979 -0.9565  0.1132 -0.1982
  560MOL0     H75594   6.278   5.013  10.944  1.1644  0.4442 -1.5286
  560MOL0     H75595   6.312   4.903  11.077  0.3141 -1.3652 -1.5759
  560MOL0     H75596   6.616   4.791  10.822  0.1826  1.1424  0.0853
  560MOL0     H75597   6.166   4.609  10.543 -0.0582  0.1710  0.5996
  560MOL0     H75598   6.405   4.352  10.434  0.3887  1.6872  2.5295
  560MOL0     H75599   6.265   4.387  10.328 -1.2649  2.6473  0.0626
  560MOL0     H75600   6.351   4.518  10.400 -1.8719  1.0917 -2.4517
  561MOL0     O75601   4.243   4.644  11.243  0.7983  0.2691  0.3179
  561MOL0     C75602   4.239   4.727  11.337  0.3047 -0.7289  0.7883
  561MOL0     O75603   4.197   4.706  11.455 -0.0994  0.0696 -0.7574
  561MOL0     C75604   4.176   4.579  11.499 -0.0396 -0.0134 -0.2730
  561MOL0     C75605   4.276   4.477  11.490  0.1427  0.2466 -0.4583
  561MOL0     C75606   4.252   4.353  11.545 -0.9793 -0.2989 -0.3825
  561MOL0     C75607   4.140   4.334  11.631  0.0568 -0.0448  0.7954
  561MOL0     O75608   4.140   4.225  11.713  0.1491  0.3888 -0.3915
  561MOL0     C75609   4.030   4.134  11.694  0.2695  0.5954 -0.9868
  561MOL0     C75610   4.074   3.998  11.639  0.6871 -0.8590  0.0027
  561MOL0     C75611   4.185   3.943  11.732  0.8591 -0.1625  0.0159
  561MOL0     C75612   4.208   3.798  11.705 -0.0383  0.0755 -0.7080
  561MOL0     C75613   4.343   3.749  11.751  0.0092 -0.2869  0.3342
  561MOL0     C75614   4.348   3.595  11.750 -0.8991  0.0884 -0.1254
  561MOL0     C75615   4.488   3.534  11.720  0.4201  0.4830 -0.6868
  561MOL0     C75616   4.533   3.443  11.833  0.0083  0.1490  1.0407
  561MOL0     N75617   4.476   3.300  11.819 -0.0659  1.1224 -1.0523
  561MOL0     C75618   4.384   3.233  11.897 -0.4143  0.0508 -0.4814
  561MOL0     C75619   4.391   3.098  11.877  0.0568 -0.4307 -0.3543
  561MOL0     C75620   4.303   2.991  11.934  0.1070  0.3496 -0.1479
  561MOL0     C75621   4.352   2.966  12.086 -0.1973  0.9432  0.7456
  561MOL0     C75622   4.467   2.855  12.093 -0.0950 -0.5914  0.5187
  561MOL0     C75623   4.559   2.839  12.223  0.3319 -0.9754 -0.0363
  561MOL0     O75624   4.626   2.713  12.214 -0.4593  0.6383  0.0582
  561MOL0     C75625   4.690   2.668  12.325 -1.0044 -0.5519 -0.9167
  561MOL0     C75626   4.733   2.535  12.335 -0.3462 -0.5378  0.1659
  561MOL0     C75627   4.818   2.496  12.438 -0.1360  1.0911 -0.4663
  561MOL0     C75628   4.860   2.586  12.539 -0.2853 -0.5855  0.3570
  561MOL0     C75629   4.942   2.536  12.654  0.1943  0.0075  0.1913
  561MOL0     O75630   4.998   2.620  12.744  0.2984 -0.0635 -0.5213
  561MOL0     C75631   5.043   2.562  12.862  0.3971  0.4514 -0.2545
  561MOL0     C75632   4.973   2.571  12.991  0.4081  0.0301 -1.4388
  561MOL0     C75633   5.022   2.522  13.111 -0.7740 -0.3507 -0.1293
  561MOL0     C75634   5.155   2.471  13.108 -1.1299  1.1561 -0.3868
  561MOL0     O75635   5.219   2.413  13.217  0.1117 -0.3812 -0.6003
  561MOL0     C75636   5.163   2.434  13.345  1.7170 -0.9385  0.2715
  561MOL0     C75637   5.239   2.378  13.462  0.8115  0.2639 -0.7234
  561MOL0     C75638   5.388   2.418  13.472 -0.7187  0.2205 -0.2856
  561MOL0     C75639   5.409   2.574  13.470 -0.0289 -0.9806  0.2255
  561MOL0     C75640   5.560   2.591  13.519 -0.1718 -0.6527 -0.0197
  561MOL0     C75641   5.575   2.577  13.675 -0.1299 -1.0896 -0.2108
  561MOL0     C75642   5.719   2.561  13.724  0.8443  0.3158 -0.5476
  561MOL0     C75643   5.762   2.413  13.718  0.8153 -0.2911 -0.3005
  561MOL0    Cl75644   5.807   2.362  13.548  0.0128  0.1625 -0.0922
  561MOL0     C75645   5.232   2.466  12.982 -0.5483 -0.1967 -0.2297
  561MOL0     C75646   5.174   2.510  12.860  0.1304 -0.2133  0.3265
  561MOL0     O75647   4.945   2.417  12.668  0.1698  0.3531 -0.1111
  561MOL0     C75648   4.806   2.715  12.534 -0.3591  0.4890  0.4149
  561MOL0     C75649   4.725   2.752  12.433  0.2088  0.0927  0.5760
  561MOL0     N75650   4.511   3.079  11.803  0.0039 -0.4407  0.2314
  561MOL0     N75651   4.558   3.200  11.769 -0.4134  0.2953 -0.6906
  561MOL0     C75652   4.045   4.433  11.638 -0.0170  0.6506 -0.2697
  561MOL0     C75653   4.059   4.554  11.568 -0.0428  0.3532  0.2887
  561MOL0     C75654   4.262   4.876  11.308 -0.0006 -0.5079  0.3569
  561MOL0     C75655   4.214   4.966  11.402 -0.8514  0.6801  0.0238
  561MOL0     C75656   4.228   5.106  11.394 -0.1696  0.4436 -1.1950
  561MOL0     C75657   4.266   5.155  11.266 -0.1726  0.2619  0.4693
  561MOL0     O75658   4.280   5.285  11.249 -0.6310 -0.4051 -0.2906
  561MOL0     C75659   4.167   5.379  11.256  0.8517 -0.3088  0.0703
  561MOL0     C75660   4.143   5.428  11.109 -0.3574 -0.4391 -0.8942
  561MOL0     C75661   4.029   5.523  11.114 -0.1533 -0.1773  0.8377
  561MOL0     C75662   4.005   5.585  10.976  0.1542 -0.0714  0.1979
  561MOL0     C75663   3.997   5.483  10.873  0.1478 -0.1778  0.4021
  561MOL0     C75664   3.989   5.408  10.784 -0.2920 -0.7969  0.7413
  561MOL0     C75665   4.302   5.071  11.165  0.6747  0.1870  0.0410
  561MOL0     C75666   4.307   4.931  11.186  0.3604  0.4217 -0.5101
  561MOL0     C75667   4.338   4.853  11.063  0.6063 -0.9160 -0.6118
  561MOL0     H75668   4.363   4.505  11.433  1.4288  0.9677  1.7488
  561MOL0     H75669   4.319   4.268  11.547  0.2748  0.6576  0.4875
  561MOL0     H75670   3.990   4.122  11.795 -1.5153  2.0411 -1.4723
  561MOL0     H75671   3.947   4.173  11.634 -2.1605  1.3194  2.4798
  561MOL0     H75672   4.119   4.026  11.543  0.0978  0.9287  0.2053
  561MOL0     H75673   3.991   3.929  11.626 -1.2395  1.8523 -4.5915
  561MOL0     H75674   4.156   3.956  11.836  1.4172  0.3568  0.1161
  561MOL0     H75675   4.278   4.000  11.718  0.1821  1.0116  0.1488
  561MOL0     H75676   4.128   3.737  11.748  1.5550 -0.8904  1.0770
  561MOL0     H75677   4.211   3.782  11.597  2.4444 -0.5075 -0.6330
  561MOL0     H75678   4.411   3.803  11.684 -1.5998 -0.7507 -1.7692
  561MOL0     H75679   4.353   3.783  11.855 -1.6547 -2.3406  1.2307
  561MOL0     H75680   4.303   3.554  11.841 -4.3285  1.3665 -1.0998
  561MOL0     H75681   4.279   3.558  11.673 -1.8970 -1.3651  1.4032
  561MOL0     H75682   4.564   3.612  11.728  2.7353 -1.4886 -2.0468
  561MOL0     H75683   4.479   3.477  11.627 -1.2409 -1.8601  0.7769
  561MOL0     H75684   4.642   3.441  11.834  0.0568 -0.4248 -0.9616
  561MOL0     H75685   4.489   3.479  11.926 -0.6441  0.7094  0.5250
  561MOL0     H75686   4.311   3.269  11.968 -1.5927 -3.6434  0.4335
  561MOL0     H75687   4.195   3.006  11.944 -0.5125 -3.7327  1.1777
  561MOL0     H75688   4.322   2.902  11.872  2.1692  0.8124 -0.2426
  561MOL0     H75689   4.385   3.064  12.124  1.9411  0.1833  0.9867
  561MOL0     H75690   4.268   2.929  12.145 -1.7069  0.0380 -1.8327
  561MOL0     H75691   4.538   2.874  12.013 -2.2742  0.1726 -1.3590
  561MOL0     H75692   4.428   2.756  12.068 -1.8451  0.5788 -1.7986
  561MOL0     H75693   4.486   2.827  12.303  1.0139 -0.6722  0.6376
  561MOL0     H75694   4.622   2.927  12.236 -0.2000 -0.4725 -0.7624
  561MOL0     H75695   4.706   2.475  12.249 -3.4581  0.7191  0.1423
  561MOL0     H75696   4.851   2.393  12.443  1.9582  1.4911 -3.4940
  561MOL0     H75697   4.877   2.622  12.991 -0.7051 -1.8004  1.1177
  561MOL0     H75698   4.962   2.536  13.200  1.1573 -0.6412  1.2978
  561MOL0     H75699   5.145   2.541  13.358 -0.2291 -0.5669 -3.9268
  561MOL0     H75700   5.072   2.374  13.353  1.1547 -0.2589 -0.7872
  561MOL0     H75701   5.185   2.392  13.556  0.8334 -0.0859 -0.6578
  561MOL0     H75702   5.229   2.270  13.450 -4.9799  0.4778 -0.5071
  561MOL0     H75703   5.443   2.377  13.558 -2.4953  0.3050  0.9513
  561MOL0     H75704   5.438   2.391  13.379 -1.9350  0.4896 -1.0489
  561MOL0     H75705   5.349   2.639  13.533  1.8253  0.2885  0.7274
  561MOL0     H75706   5.385   2.618  13.372  2.3714  0.2323  0.1333
  561MOL0     H75707   5.596   2.692  13.499  0.5654 -0.3607  2.4886
  561MOL0     H75708   5.626   2.519  13.470  0.1650 -1.5593  1.7334
  561MOL0     H75709   5.519   2.651  13.733 -0.0003  0.0530 -1.5145
  561MOL0     H75710   5.530   2.479  13.696 -3.0668 -0.5949 -3.3527
  561MOL0     H75711   5.726   2.597  13.826 -2.2931 -0.5015  0.0595
  561MOL0     H75712   5.790   2.616  13.662 -0.3152  2.0651 -0.3774
  561MOL0     H75713   5.847   2.407  13.786 -1.4430 -1.2802  2.6801
  561MOL0     H75714   5.677   2.351  13.749  0.3045 -0.2033 -1.4678
  561MOL0     H75715   5.332   2.425  12.984  0.5516  2.2987 -0.6365
  561MOL0     H75716   5.232   2.500  12.769  0.0631 -1.5074  0.4132
  561MOL0     H75717   4.837   2.790  12.607  2.8480  1.5146 -1.7721
  561MOL0     H75718   4.692   2.855  12.426 -1.2445 -0.4503 -4.7806
  561MOL0     H75719   3.954   4.412  11.695 -0.8656  2.6702 -0.8198
  561MOL0     H75720   3.978   4.627  11.568 -1.0136 -0.6593 -1.6062
  561MOL0     H75721   4.175   4.924  11.494  1.8304  2.2418  2.0280
  561MOL0     H75722   4.205   5.176  11.473  0.5043 -0.7457  0.1085
  561MOL0     H75723   4.173   5.460  11.328  0.0608  2.1486 -2.4362
  561MOL0     H75724   4.072   5.332  11.280  0.0957  0.8830 -0.4951
  561MOL0     H75725   4.114   5.332  11.066 -1.5556 -1.5539  2.0816
  561MOL0     H75726   4.231   5.452  11.048 -0.6437 -2.3617 -2.1403
  561MOL0     H75727   4.049   5.601  11.188  0.7947  0.1699  0.2281
  561MOL0     H75728   3.936   5.473  11.142 -2.0331  1.1576 -2.4714
  561MOL0     H75729   3.909   5.637  10.972  1.2452  2.0458  0.3635
  561MOL0     H75730   4.090   5.648  10.950  0.3163  2.2562  5.2374
  561MOL0     H75731   3.970   5.335  10.708  0.7302  0.4284 -0.7683
  561MOL0     H75732   4.334   5.115  11.071  0.6142  1.5524  0.6412
  561MOL0     H75733   4.364   4.751  11.092 -0.7110 -1.0996 -0.0206
  561MOL0     H75734   4.247   4.840  11.004  0.1809 -0.9728  0.0501
  561MOL0     H75735   4.414   4.901  11.001  3.5233 -0.0850  3.2473
  562MOL0     O75736   9.151   8.185   8.443  0.2115  0.0218 -0.3737
  562MOL0     C75737   9.216   8.243   8.352  0.9229 -0.6273 -0.6663
  562MOL0     O75738   9.320   8.318   8.373 -0.5917 -0.2090 -0.6615
  562MOL0     C75739   9.330   8.381   8.498 -0.5751 -0.1648  0.1084
  562MOL0     C75740   9.366   8.518   8.482 -0.8487  0.0418 -0.2026
  562MOL0     C75741   9.371   8.602   8.598  0.2581  0.3349  0.5825
  562MOL0     C75742   9.363   8.551   8.728 -0.4501  0.5600  0.1667
  562MOL0     O75743   9.350   8.629   8.827  0.1631 -0.4443 -0.1106
  562MOL0     C75744   9.386   8.765   8.830  0.2454 -0.5345 -0.6599
  562MOL0     C75745   9.345   8.828   8.968  0.0351 -0.4107  0.3781
  562MOL0     C75746   9.198   8.791   8.999 -0.4150  0.0342  0.1733
  562MOL0     C75747   9.186   8.655   9.078  0.1448 -0.1887  0.4867
  562MOL0     C75748   9.037   8.590   9.070 -0.4402 -0.3610 -0.2538
  562MOL0     C75749   9.027   8.498   9.183  0.2534  0.2478  0.7403
  562MOL0     C75750   8.899   8.415   9.168  0.8859 -0.4581 -0.8019
  562MOL0     C75751   8.831   8.375   9.303  0.5081  0.7044 -0.1544
  562MOL0     N75752   8.791   8.491   9.390 -0.3929 -0.9788 -0.1535
  562MOL0     C75753   8.793   8.621   9.349 -0.4133  0.5162  0.0379
  562MOL0     C75754   8.820   8.699   9.456 -0.1134  0.1663  0.6096
  562MOL0     C75755   8.832   8.840   9.460 -0.2385 -0.5117 -0.1080
  562MOL0     C75756   8.714   8.903   9.527  1.2896  1.2528 -0.2742
  562MOL0     C75757   8.738   9.052   9.558 -0.8421  1.0005 -0.0013
  562MOL0     C75758   8.629   9.107   9.646  0.1199  0.2837 -0.1184
  562MOL0     O75759   8.621   9.051   9.778  0.4029  0.1871 -0.1484
  562MOL0     C75760   8.504   9.070   9.844 -0.7122  0.8841  0.4828
  562MOL0     C75761   8.462   8.978   9.937  0.6595  0.1176 -1.2805
  562MOL0     C75762   8.346   9.002  10.017  0.4177  0.1812 -0.1392
  562MOL0     C75763   8.261   9.109   9.977 -1.0833  0.0720  0.4392
  562MOL0     C75764   8.142   9.114  10.059 -0.6191 -0.3416 -0.8895
  562MOL0     O75765   8.070   9.230  10.043 -0.1784 -0.3031 -0.6430
  562MOL0     C75766   7.940   9.237  10.104  0.0390 -0.8456  1.0442
  562MOL0     C75767   7.905   9.336  10.201  0.0323  0.5827 -0.3600
  562MOL0     C75768   7.782   9.343  10.265  0.3785 -0.7584 -0.4533
  562MOL0     C75769   7.685   9.244  10.237  0.7129  0.0489 -1.2989
  562MOL0     O75770   7.575   9.229  10.309  0.5663 -0.6115  0.3508
  562MOL0     C75771   7.502   9.350  10.335 -0.3173  0.8151  1.4678
  562MOL0     C75772   7.415   9.324  10.460 -0.5918 -0.8020  0.6678
  562MOL0     C75773   7.335   9.448  10.504  0.6497  1.3775 -0.1322
  562MOL0     C75774   7.425   9.564  10.559 -0.1944 -0.2361  0.5357
  562MOL0     C75775   7.346   9.690  10.582 -0.2036 -0.1225  0.4698
  562MOL0     C75776   7.444   9.806  10.615  1.2864  0.6064  0.1519
  562MOL0     C75777   7.366   9.944  10.628 -0.1675  0.1346 -1.1911
  562MOL0     C75778   7.271   9.956  10.755 -0.4957  0.4329  0.4180
  562MOL0    Cl75779   7.378   9.969  10.904  0.1630 -0.5048 -0.1272
  562MOL0     C75780   7.717   9.140  10.145  0.1402  0.1615  0.1317
  562MOL0     C75781   7.839   9.142  10.075  0.3560  0.5081 -0.6344
  562MOL0     O75782   8.110   9.027  10.140 -0.1898  0.3731  0.0293
  562MOL0     C75783   8.294   9.187   9.871 -0.0419  0.1341 -0.7512
  562MOL0     C75784   8.414   9.163   9.800 -0.3854 -0.1951 -0.5211
  562MOL0     N75785   8.839   8.620   9.564 -0.2917 -0.5234 -0.0774
  562MOL0     N75786   8.820   8.495   9.524  0.0902 -0.1738  0.4288
  562MOL0     C75787   9.346   8.415   8.734 -0.5380  0.8509  0.3211
  562MOL0     C75788   9.343   8.326   8.625 -0.7460 -0.9520 -0.6823
  562MOL0     C75789   9.167   8.217   8.217  0.5544 -0.6826  1.0908
  562MOL0     C75790   9.095   8.103   8.187  0.4470  0.6504  0.5950
  562MOL0     C75791   9.049   8.077   8.057 -0.4011 -0.0163 -0.5449
  562MOL0     C75792   9.089   8.151   7.955  0.0620 -0.0279  0.5104
  562MOL0     O75793   9.024   8.117   7.845 -0.8938  0.2444  0.0755
  562MOL0     C75794   9.022   8.217   7.740  0.1985 -0.3898 -0.7816
  562MOL0     C75795   8.923   8.157   7.637 -0.2259 -1.0978 -0.8159
  562MOL0     C75796   8.792   8.128   7.710 -0.0238 -0.1631 -0.7066
  562MOL0     C75797   8.667   8.131   7.621  0.3475 -0.4061 -0.3332
  562MOL0     C75798   8.668   8.018   7.531 -0.4109  0.5831  0.4429
  562MOL0     C75799   8.638   7.921   7.457 -0.2508  0.1930 -0.1737
  562MOL0     C75800   9.170   8.265   7.984 -0.1509  0.3249 -0.5296
  562MOL0     C75801   9.216   8.299   8.112  0.2761 -0.1981  0.4608
  562MOL0     C75802   9.307   8.429   8.114 -0.2711  0.9477 -0.5681
  562MOL0     H75803   9.388   8.547   8.380 -2.2273 -1.6955 -1.0644
  562MOL0     H75804   9.377   8.708   8.578 -2.6046  1.4202  4.3560
  562MOL0     H75805   9.493   8.774   8.808  0.5710  0.6391  1.1972
  562MOL0     H75806   9.338   8.827   8.753  1.5211  1.3958  0.0123
  562MOL0     H75807   9.380   8.932   8.960  2.2192 -1.1703 -0.9063
  562MOL0     H75808   9.410   8.803   9.053 -3.7184 -1.0234  3.3306
  562MOL0     H75809   9.134   8.795   8.910 -0.7798  0.7102  0.4567
  562MOL0     H75810   9.156   8.868   9.064 -4.5058 -2.8663  1.3985
  562MOL0     H75811   9.242   8.581   9.020 -0.4221  1.3333 -2.1481
  562MOL0     H75812   9.234   8.669   9.175  0.6356  0.9476  0.0924
  562MOL0     H75813   8.961   8.669   9.071 -0.8666 -0.7698  0.2327
  562MOL0     H75814   9.023   8.527   8.982 -1.8284  2.5867 -2.3236
  562MOL0     H75815   9.106   8.423   9.189 -2.3568 -3.1500 -2.5060
  562MOL0     H75816   9.032   8.557   9.276  4.1082  1.0090  0.2132
  562MOL0     H75817   8.914   8.322   9.113 -1.1500 -1.4505  0.2238
  562MOL0     H75818   8.827   8.479   9.116  0.7241 -1.1541 -1.4505
  562MOL0     H75819   8.744   8.313   9.277 -0.7610  0.7657  3.4411
  562MOL0     H75820   8.905   8.326   9.368 -0.2835  0.8376  0.8781
  562MOL0     H75821   8.786   8.648   9.244  1.8671 -2.8368 -1.1478
  562MOL0     H75822   8.920   8.871   9.515  1.0233  0.2295 -2.4277
  562MOL0     H75823   8.829   8.892   9.364 -0.4702 -0.4765 -0.0848
  562MOL0     H75824   8.630   8.899   9.458 -0.4978 -1.3501  1.8784
  562MOL0     H75825   8.686   8.851   9.619 -1.3990  0.9457 -1.1752
  562MOL0     H75826   8.749   9.110   9.466 -3.9235 -1.7723 -2.3936
  562MOL0     H75827   8.833   9.053   9.612 -0.6392  0.3216 -0.3335
  562MOL0     H75828   8.538   9.089   9.587  0.2039  1.5829 -0.6687
  562MOL0     H75829   8.636   9.215   9.663 -2.0117  1.0767 -3.2706
  562MOL0     H75830   8.522   8.895   9.975  2.3199  2.2101  0.9742
  562MOL0     H75831   8.328   8.953  10.112  0.3480  2.0497  0.8608
  562MOL0     H75832   7.976   9.412  10.233  0.3537 -0.2804  1.1072
  562MOL0     H75833   7.760   9.399  10.356  0.8363 -1.0151 -0.1862
  562MOL0     H75834   7.563   9.440  10.336 -1.0580  1.4014 -0.7315
  562MOL0     H75835   7.429   9.368  10.255 -0.6147  0.6114  1.6915
  562MOL0     H75836   7.348   9.238  10.448  0.2408 -1.4456  0.4695
  562MOL0     H75837   7.480   9.308  10.547  0.5604  2.7662  0.6090
  562MOL0     H75838   7.287   9.489  10.415  0.0855  0.7810 -0.1142
  562MOL0     H75839   7.260   9.435  10.582 -0.0047  2.0115 -0.6468
  562MOL0     H75840   7.503   9.587  10.485  1.5982 -0.1974  2.3667
  562MOL0     H75841   7.478   9.531  10.648 -1.8933 -1.5297  1.1232
  562MOL0     H75842   7.271   9.671  10.659  0.3690 -3.0860  0.4158
  562MOL0     H75843   7.290   9.699  10.488 -2.1882 -0.5946  1.5543
  562MOL0     H75844   7.493   9.777  10.708  3.1526  1.8837 -0.3843
  562MOL0     H75845   7.520   9.819  10.538 -0.0357  1.9196 -1.0144
  562MOL0     H75846   7.309   9.968  10.538  0.4135  0.3040 -1.5164
  562MOL0     H75847   7.448  10.016  10.634  0.3181 -0.3483 -1.8554
  562MOL0     H75848   7.205  10.043  10.764  1.3869  2.2172 -1.7052
  562MOL0     H75849   7.211   9.866  10.747  2.0207 -1.2827 -0.5503
  562MOL0     H75850   7.639   9.065  10.141 -0.8058  1.0730  1.0883
  562MOL0     H75851   7.860   9.050  10.021 -2.5310 -1.2067  0.9303
  562MOL0     H75852   8.239   9.271   9.830  0.1018  0.5265 -0.1430
  562MOL0     H75853   8.426   9.230   9.715 -1.6056 -1.3735 -1.6764
  562MOL0     H75854   9.337   8.373   8.834  1.8645 -0.4915  0.0453
  562MOL0     H75855   9.344   8.222   8.654  1.8194 -0.5484  1.0409
  562MOL0     H75856   9.072   8.020   8.253 -2.9354 -0.3081 -1.5475
  562MOL0     H75857   8.993   7.986   8.034 -1.9191  0.3031  1.5584
  562MOL0     H75858   9.122   8.229   7.697  0.3084 -0.1014 -0.4500
  562MOL0     H75859   8.979   8.311   7.777  2.1219  0.5564 -0.8252
  562MOL0     H75860   8.965   8.068   7.590 -3.5009 -1.6175 -3.0788
  562MOL0     H75861   8.899   8.240   7.569 -1.3656 -0.9307 -0.2244
  562MOL0     H75862   8.760   8.174   7.805  1.1274 -3.1429  1.2822
  562MOL0     H75863   8.804   8.028   7.752  0.8009  0.7750  1.4424
  562MOL0     H75864   8.580   8.114   7.685 -1.0314  1.8792 -1.4920
  562MOL0     H75865   8.660   8.234   7.586 -0.2971  0.4402  2.1066
  562MOL0     H75866   8.604   7.839   7.396  3.0893 -1.9207  0.5141
  562MOL0     H75867   9.196   8.322   7.896  1.6261  1.4890  0.6845
  562MOL0     H75868   9.400   8.417   8.171  0.9961 -3.0368 -3.1163
  562MOL0     H75869   9.323   8.470   8.014 -1.0742  0.6936 -0.8087
  562MOL0     H75870   9.242   8.503   8.162 -1.4853  0.6045 -1.6359
  563MOL0     O75871   8.668   0.562   5.290  0.0386  0.4278 -0.4729
  563MOL0     C75872   8.739   0.488   5.236 -0.8807 -0.5115 -0.2349
  563MOL0     O75873   8.749   0.356   5.253 -0.3238  0.1089 -0.3383
  563MOL0     C75874   8.646   0.286   5.319 -0.8578  0.6295  0.6501
  563MOL0     C75875   8.535   0.246   5.245 -0.8988  0.7594 -0.2414
  563MOL0     C75876   8.433   0.160   5.291 -1.0210  0.2613  0.2955
  563MOL0     C75877   8.430   0.111   5.427  0.6717 -0.7303  0.0673
  563MOL0     O75878   8.338   0.022   5.481 -0.0111  0.7998 -0.4515
  563MOL0     C75879   8.340  -0.106   5.424 -0.0012 -0.0036 -0.0615
  563MOL0     C75880   8.196  -0.149   5.403  0.9828  0.2435 -0.7444
  563MOL0     C75881   8.194  -0.277   5.315 -0.7104  0.7885  0.0449
  563MOL0     C75882   8.064  -0.299   5.249  0.4296 -0.4262  0.1168
  563MOL0     C75883   8.049  -0.420   5.149 -1.5698  0.5986  0.0542
  563MOL0     C75884   7.906  -0.477   5.144  0.2080  0.3810  0.0210
  563MOL0     C75885   7.888  -0.604   5.031 -0.1334 -0.7780 -0.6229
  563MOL0     C75886   7.921  -0.548   4.885  0.4958  0.5567  0.0752
  563MOL0     N75887   7.820  -0.447   4.838 -0.2484 -0.0236 -0.2696
  563MOL0     C75888   7.844  -0.318   4.822 -0.2428  0.1747  1.2675
  563MOL0     C75889   7.750  -0.263   4.735 -0.3160 -0.9408  0.7991
  563MOL0     C75890   7.741  -0.112   4.688 -0.9315 -0.8471 -0.4780
  563MOL0     C75891   7.731  -0.088   4.541 -1.1564  0.2201  0.0080
  563MOL0     C75892   7.699   0.056   4.511  0.3205 -0.0715  0.5519
  563MOL0     C75893   7.635   0.074   4.375 -0.3986  0.0280 -0.2100
  563MOL0     O75894   7.611   0.215   4.359 -0.2040  0.3476 -0.5074
  563MOL0     C75895   7.530   0.261   4.264  0.8770 -0.0388  0.4111
  563MOL0     C75896   7.496   0.399   4.256 -0.7324 -0.2728 -0.7686
  563MOL0     C75897   7.420   0.448   4.150  0.3938 -0.0244  1.0674
  563MOL0     C75898   7.351   0.358   4.068  1.1526  0.5723 -0.2088
  563MOL0     C75899   7.262   0.399   3.955  0.6171 -0.4357  0.2283
  563MOL0     O75900   7.228   0.297   3.866 -0.1890 -0.3257  0.0732
  563MOL0     C75901   7.150   0.325   3.752  0.8249  0.2429  0.1670
  563MOL0     C75902   7.181   0.424   3.650 -0.2676 -0.0227 -0.3395
  563MOL0     C75903   7.100   0.441   3.543  0.6404 -1.7610 -0.1460
  563MOL0     C75904   6.975   0.375   3.526 -0.1521 -0.6542  0.4573
  563MOL0     O75905   6.885   0.398   3.426  0.5960 -0.0043 -0.4024
  563MOL0     C75906   6.851   0.537   3.417  0.0871  0.4385  0.4020
  563MOL0     C75907   6.871   0.589   3.271 -0.2394  0.3709  1.0176
  563MOL0     C75908   6.764   0.527   3.165  0.2992  0.3077  0.6013
  563MOL0     C75909   6.659   0.632   3.129  0.3437  0.3719 -0.3061
  563MOL0     C75910   6.537   0.580   3.039  0.5487  0.1535  0.3779
  563MOL0     C75911   6.472   0.443   3.084 -0.4419  0.3931  0.0770
  563MOL0     C75912   6.426   0.445   3.227  0.0545 -0.7447  0.3626
  563MOL0     C75913   6.304   0.361   3.253  0.4956  0.5161 -0.2274
  563MOL0    Cl75914   6.308   0.326   3.429 -0.0442 -0.5864 -0.4333
  563MOL0     C75915   6.947   0.269   3.620  0.2902  0.1532  0.2196
  563MOL0     C75916   7.041   0.239   3.724  0.5816 -0.7076  1.1049
  563MOL0     O75917   7.225   0.518   3.942  0.0782 -0.2378  0.3335
  563MOL0     C75918   7.388   0.224   4.074 -0.0148 -0.5967 -0.2107
  563MOL0     C75919   7.474   0.175   4.173  0.0735 -0.6408 -0.2666
  563MOL0     N75920   7.667  -0.370   4.697 -0.1416 -0.0137 -0.6564
  563MOL0     N75921   7.716  -0.479   4.762  0.0754 -0.5601  0.6321
  563MOL0     C75922   8.544   0.146   5.502  1.0640 -0.1304  0.6589
  563MOL0     C75923   8.643   0.230   5.451 -0.1778  0.4659  0.0779
  563MOL0     C75924   8.814   0.522   5.109 -0.1457 -0.5532 -0.4907
  563MOL0     C75925   8.912   0.429   5.067  0.5993  0.2115 -0.7260
  563MOL0     C75926   8.968   0.436   4.941 -0.6734  0.2035  0.3370
  563MOL0     C75927   8.946   0.553   4.865  0.1954  0.0906  0.7873
  563MOL0     O75928   9.015   0.574   4.753  0.9769  0.9538  0.5389
  563MOL0     C75929   9.129   0.661   4.756  0.3983 -0.0121 -0.3124
  563MOL0     C75930   9.224   0.599   4.651  0.1719 -0.3191 -0.2723
  563MOL0     C75931   9.283   0.467   4.691  0.4422 -0.4880  0.2168
  563MOL0     C75932   9.365   0.457   4.817 -1.5780 -0.2580 -0.0276
  563MOL0     C75933   9.487   0.370   4.805 -0.2070 -0.0180  0.9988
  563MOL0     C75934   9.593   0.305   4.791 -0.9796 -0.6966 -0.2126
  563MOL0     C75935   8.872   0.658   4.918 -0.5231  0.0955 -1.0441
  563MOL0     C75936   8.801   0.636   5.036 -0.3655 -0.3198 -0.5151
  563MOL0     C75937   8.715   0.746   5.067  0.6154  0.0553 -0.2423
  563MOL0     H75938   8.519   0.275   5.141  0.3707 -0.7042 -0.8762
  563MOL0     H75939   8.351   0.140   5.223 -0.9452  3.1920 -0.7844
  563MOL0     H75940   8.387  -0.100   5.326 -2.2472 -0.0985 -1.2057
  563MOL0     H75941   8.389  -0.175   5.493  0.9405  1.7492  1.1155
  563MOL0     H75942   8.153  -0.064   5.349 -2.6090  0.1035  1.5416
  563MOL0     H75943   8.141  -0.162   5.496  0.9586  0.2799 -0.7538
  563MOL0     H75944   8.236  -0.361   5.372 -0.4722  1.8204  1.4317
  563MOL0     H75945   8.264  -0.270   5.232  0.8227 -3.6620  0.6880
  563MOL0     H75946   7.986  -0.297   5.326 -0.5439  0.9593 -0.8483
  563MOL0     H75947   8.044  -0.209   5.189 -0.8118 -0.1930  0.8329
  563MOL0     H75948   8.083  -0.396   5.048  0.3415  0.9941  0.7330
  563MOL0     H75949   8.111  -0.499   5.193 -3.1262  0.6996  2.6730
  563MOL0     H75950   7.882  -0.513   5.244 -0.8226 -1.1154 -0.7229
  563MOL0     H75951   7.843  -0.390   5.122  2.2103  1.9830  0.2847
  563MOL0     H75952   7.785  -0.634   5.051 -0.6230  1.8275  1.3439
  563MOL0     H75953   7.952  -0.690   5.051  0.4819  0.3375  3.0241
  563MOL0     H75954   8.024  -0.512   4.875  1.6366 -1.7601  2.3821
  563MOL0     H75955   7.909  -0.627   4.810  1.0916 -2.0706  2.5957
  563MOL0     H75956   7.920  -0.266   4.879 -0.3095  0.8178  0.7783
  563MOL0     H75957   7.649  -0.068   4.727  0.7405  1.0419  1.5857
  563MOL0     H75958   7.817  -0.042   4.724 -0.3741 -0.9381 -1.4339
  563MOL0     H75959   7.818  -0.125   4.485 -1.0972 -1.0212  0.8734
  563MOL0     H75960   7.643  -0.147   4.513 -1.4335 -0.0309  1.3362
  563MOL0     H75961   7.789   0.117   4.516 -0.7762  1.6387  0.1809
  563MOL0     H75962   7.633   0.097   4.589  1.4448  2.3547  0.2947
  563MOL0     H75963   7.544   0.013   4.373  0.2677 -0.9688 -0.5666
  563MOL0     H75964   7.701   0.035   4.297 -0.4431 -2.8615  1.0875
  563MOL0     H75965   7.543   0.467   4.326 -0.7981 -2.5292  1.6631
  563MOL0     H75966   7.417   0.555   4.129  0.0637 -0.0656  0.9067
  563MOL0     H75967   7.271   0.484   3.652  0.7947 -1.5743  0.2325
  563MOL0     H75968   7.132   0.519   3.475 -1.6300 -0.5575  0.0633
  563MOL0     H75969   6.746   0.544   3.447  0.6935  0.0389  2.8467
  563MOL0     H75970   6.907   0.598   3.489  2.1618 -1.3730  0.4123
  563MOL0     H75971   6.861   0.698   3.269  1.8436  0.8607 -5.3782
  563MOL0     H75972   6.967   0.576   3.220 -0.3669  2.5900  0.0695
  563MOL0     H75973   6.798   0.486   3.069 -2.2147 -1.1504  0.2522
  563MOL0     H75974   6.728   0.440   3.219  2.7449  0.6024  2.9214
  563MOL0     H75975   6.708   0.711   3.072 -0.4118  1.5308  0.5954
  563MOL0     H75976   6.621   0.662   3.227  1.9802 -2.7200  1.4371
  563MOL0     H75977   6.561   0.578   2.933 -0.0540 -0.7744  0.2516
  563MOL0     H75978   6.454   0.651   3.042 -1.7610 -2.1950 -2.3123
  563MOL0     H75979   6.385   0.427   3.020  0.5870 -0.7758 -1.0892
  563MOL0     H75980   6.544   0.361   3.074 -1.4417 -0.3562 -1.3318
  563MOL0     H75981   6.390   0.542   3.262 -2.2035 -1.7314  0.9650
  563MOL0     H75982   6.506   0.412   3.294  0.6029 -2.8049 -1.1944
  563MOL0     H75983   6.215   0.411   3.214  2.5128  4.2013 -0.4746
  563MOL0     H75984   6.305   0.266   3.199 -2.1041  1.0916 -1.4701
  563MOL0     H75985   6.851   0.221   3.601 -0.3282  1.5471 -0.3120
  563MOL0     H75986   7.006   0.161   3.791 -1.1630 -1.5818 -0.7086
  563MOL0     H75987   7.364   0.154   3.995 -0.3799 -1.7622  0.8951
  563MOL0     H75988   7.515   0.075   4.168  0.7218 -0.4100  0.3718
  563MOL0     H75989   8.550   0.098   5.599  0.5306 -3.0856 -0.6532
  563MOL0     H75990   8.720   0.255   5.524 -0.2508 -0.9592  0.6676
  563MOL0     H75991   8.941   0.346   5.130 -0.4062 -0.2902 -0.9198
  563MOL0     H75992   9.023   0.351   4.901 -0.6846  0.9946 -1.4831
  563MOL0     H75993   9.167   0.673   4.858  0.1342  1.0497 -0.3260
  563MOL0     H75994   9.104   0.762   4.723 -0.8483  0.7072  2.4964
  563MOL0     H75995   9.310   0.665   4.635  0.8258 -0.1206  3.1990
  563MOL0     H75996   9.164   0.592   4.560  0.9061  1.5719 -0.9640
  563MOL0     H75997   9.348   0.441   4.606 -0.9156 -2.3555 -0.3077
  563MOL0     H75998   9.198   0.398   4.699 -1.1946  1.2509 -1.2857
  563MOL0     H75999   9.394   0.561   4.839  0.8150 -1.3977  3.0424
  563MOL0     H76000   9.318   0.412   4.905  1.4427 -3.0351  0.3741
  563MOL0     H76001   9.682   0.246   4.788 -1.6286 -2.2904  4.2019
  563MOL0     H76002   8.862   0.746   4.856  1.4287  2.6526  2.0052
  563MOL0     H76003   8.737   0.803   5.157 -1.6772  0.8999 -0.1442
  563MOL0     H76004   8.704   0.822   4.989 -1.6440  2.3273  2.1178
  563MOL0     H76005   8.617   0.697   5.070 -0.3938  1.9454 -1.0094
  564MOL0     O76006   2.189   5.652   4.660 -0.1270 -0.1971  0.8404
  564MOL0     C76007   2.138   5.621   4.547  0.0181  0.2233 -0.4702
  564MOL0     O76008   2.200   5.525   4.465 -0.7081  0.3761  0.3270
  564MOL0     C76009   2.248   5.406   4.516 -0.7920 -0.3796  0.0759
  564MOL0     C76010   2.233   5.344   4.648  0.3255  0.8945  0.0669
  564MOL0     C76011   2.293   5.215   4.677  0.6165 -0.1473  0.4201
  564MOL0     C76012   2.376   5.153   4.575  0.0416 -0.8877 -0.6123
  564MOL0     O76013   2.436   5.032   4.601 -0.3273 -0.3933  0.4202
  564MOL0     C76014   2.539   5.006   4.501 -0.3864 -0.5642  0.4312
  564MOL0     C76015   2.613   4.885   4.553  0.2746  0.5248 -0.5838
  564MOL0     C76016   2.539   4.744   4.537  1.7113 -0.0828 -0.4824
  564MOL0     C76017   2.605   4.646   4.437  0.6370 -1.0342 -0.4029
  564MOL0     C76018   2.552   4.503   4.445  0.0439  0.0059  0.2684
  564MOL0     C76019   2.621   4.409   4.337  0.1220 -0.7573 -0.9509
  564MOL0     C76020   2.572   4.267   4.324 -0.3527 -0.3558  0.4659
  564MOL0     C76021   2.638   4.200   4.200 -1.0173 -0.4498 -0.2242
  564MOL0     N76022   2.574   4.065   4.202 -0.7271 -0.3874  0.3420
  564MOL0     C76023   2.476   4.019   4.123 -1.0303 -0.7591  0.3709
  564MOL0     C76024   2.447   3.902   4.159 -0.0076 -0.2870  0.2338
  564MOL0     C76025   2.334   3.827   4.092 -0.6154  0.2813 -0.5744
  564MOL0     C76026   2.207   3.887   4.042  0.4925 -0.3614  0.2043
  564MOL0     C76027   2.102   3.781   4.013 -1.2544  0.9642  0.4226
  564MOL0     C76028   1.993   3.835   3.923  0.8291  0.8675  0.1391
  564MOL0     O76029   1.933   3.941   3.997 -0.0389 -0.2186  0.2443
  564MOL0     C76030   1.845   4.040   3.943  0.8705 -0.2276 -0.0689
  564MOL0     C76031   1.782   4.038   3.822  0.4416 -1.2387  1.0225
  564MOL0     C76032   1.686   4.131   3.787 -0.9596  0.7471  0.0074
  564MOL0     C76033   1.634   4.221   3.886 -0.4113 -0.0770  0.0763
  564MOL0     C76034   1.518   4.306   3.854 -0.3720  0.0395 -1.3042
  564MOL0     O76035   1.499   4.329   3.717  1.0107  0.2532  0.2787
  564MOL0     C76036   1.382   4.376   3.659 -0.1804  0.8662  0.7020
  564MOL0     C76037   1.269   4.407   3.731  0.2712  0.4447 -0.2620
  564MOL0     C76038   1.160   4.472   3.666  0.1658 -0.9255  0.3038
  564MOL0     C76039   1.167   4.492   3.529 -0.0892 -0.0181 -0.0328
  564MOL0     O76040   1.045   4.546   3.483 -0.2758 -0.0176  0.6338
  564MOL0     C76041   1.025   4.562   3.346 -0.8723 -0.0869 -0.1729
  564MOL0     C76042   1.058   4.713   3.311  0.2808  0.3745 -0.0038
  564MOL0     C76043   0.958   4.805   3.348  0.3429 -0.6734  0.2495
  564MOL0     C76044   0.832   4.814   3.249 -0.9095  0.8518 -0.3626
  564MOL0     C76045   0.704   4.743   3.287 -0.5550 -0.0416 -0.1255
  564MOL0     C76046   0.590   4.764   3.196 -0.1726 -0.7087 -0.1490
  564MOL0     C76047   0.538   4.919   3.203  0.6083  0.5242  0.3167
  564MOL0     C76048   0.434   4.945   3.091 -0.3512 -0.6601  0.3009
  564MOL0    Cl76049   0.381   5.114   3.119 -0.1082 -0.3112  0.0096
  564MOL0     C76050   1.275   4.432   3.458  0.4388 -0.2152  0.2476
  564MOL0     C76051   1.388   4.382   3.522 -0.6498 -0.9135  0.2629
  564MOL0     O76052   1.450   4.343   3.949  0.6066  0.1517  0.6297
  564MOL0     C76053   1.691   4.218   4.010  0.4350 -0.0789 -0.0046
  564MOL0     C76054   1.802   4.133   4.041 -0.0823 -0.4219  0.1962
  564MOL0     N76055   2.538   3.859   4.247 -0.0495 -0.4852 -0.4348
  564MOL0     N76056   2.615   3.954   4.273 -0.2354 -0.8027 -0.2842
  564MOL0     C76057   2.371   5.210   4.444 -0.6202  0.5249 -0.1939
  564MOL0     C76058   2.316   5.332   4.425  0.0566 -0.2178  0.1771
  564MOL0     C76059   2.018   5.698   4.507 -0.0250  0.4525 -0.2957
  564MOL0     C76060   1.982   5.804   4.594  0.0468 -0.6673 -0.1481
  564MOL0     C76061   1.870   5.880   4.570  0.0447 -1.0208  0.6055
  564MOL0     C76062   1.786   5.857   4.463  1.0673 -0.5206  0.7248
  564MOL0     O76063   1.690   5.947   4.416 -0.6729 -0.3426 -0.5222
  564MOL0     C76064   1.691   6.087   4.462  0.6416 -0.4114 -0.1702
  564MOL0     C76065   1.635   6.098   4.601  0.2623 -0.4641 -0.8295
  564MOL0     C76066   1.501   6.189   4.619 -0.0406  0.1539  0.5407
  564MOL0     C76067   1.392   6.151   4.513  1.0140  1.1737 -0.5478
  564MOL0     C76068   1.268   6.232   4.527 -0.0368  0.5402 -0.5604
  564MOL0     C76069   1.152   6.264   4.549  0.4445  0.5011 -1.3027
  564MOL0     C76070   1.825   5.766   4.369  0.2228  1.0553 -0.4132
  564MOL0     C76071   1.928   5.670   4.393 -1.2502 -0.0422 -1.2427
  564MOL0     C76072   1.934   5.549   4.300 -1.1323  0.2770  0.2715
  564MOL0     H76073   2.160   5.399   4.706  0.8381  1.8521 -0.1706
  564MOL0     H76074   2.285   5.169   4.776  0.4419  0.1481  0.5461
  564MOL0     H76075   2.501   4.980   4.402  0.1321  1.8821 -0.4744
  564MOL0     H76076   2.612   5.084   4.481  0.0690 -0.7103  1.4693
  564MOL0     H76077   2.635   4.914   4.656  0.8373  1.5329 -0.9718
  564MOL0     H76078   2.711   4.875   4.506  0.5720 -2.4104  0.4681
  564MOL0     H76079   2.433   4.751   4.508  0.4982  0.3234  3.4608
  564MOL0     H76080   2.548   4.703   4.638  1.4845  5.5163  2.1904
  564MOL0     H76081   2.603   4.690   4.337  2.9404  1.3219  0.4761
  564MOL0     H76082   2.710   4.648   4.471 -0.2318  4.3050  3.1816
  564MOL0     H76083   2.564   4.468   4.549 -1.0836  0.8488  0.7016
  564MOL0     H76084   2.446   4.510   4.418  0.6793 -1.2272 -2.9186
  564MOL0     H76085   2.612   4.460   4.240  1.0690  0.9916 -0.1545
  564MOL0     H76086   2.724   4.421   4.370 -0.0402 -1.9073  0.0059
  564MOL0     H76087   2.467   4.284   4.298  0.1776  1.3686 -0.7238
  564MOL0     H76088   2.574   4.210   4.417 -3.0353  1.2178  1.6239
  564MOL0     H76089   2.618   4.255   4.108 -0.8046  0.6463  0.3670
  564MOL0     H76090   2.747   4.201   4.203 -0.9370  1.0634 -1.9477
  564MOL0     H76091   2.424   4.069   4.042  2.2494 -0.8014 -1.9751
  564MOL0     H76092   2.388   3.754   4.031  1.2977  1.6222 -0.5516
  564MOL0     H76093   2.291   3.753   4.161 -0.2865  1.2163  0.6594
  564MOL0     H76094   2.160   3.945   4.122  1.9235 -0.8953  1.4911
  564MOL0     H76095   2.231   3.941   3.950  1.8643 -0.5683  0.4254
  564MOL0     H76096   2.068   3.731   4.104  0.4594 -0.6071  0.2590
  564MOL0     H76097   2.151   3.707   3.950  2.9389  2.4399  1.5987
  564MOL0     H76098   1.910   3.763   3.922 -1.0732  2.8937  1.1429
  564MOL0     H76099   2.031   3.860   3.824  1.5300  0.5731  0.3288
  564MOL0     H76100   1.820   3.967   3.749 -0.5866 -1.2905  0.5203
  564MOL0     H76101   1.644   4.141   3.687 -1.8420 -0.9853  0.1704
  564MOL0     H76102   1.258   4.379   3.835 -2.8844  2.8568  0.1767
  564MOL0     H76103   1.077   4.515   3.722 -0.0365  0.1872 -0.8089
  564MOL0     H76104   1.078   4.497   3.275  0.2911  0.7465 -0.0861
  564MOL0     H76105   0.917   4.546   3.331 -1.1215  1.2133  0.1348
  564MOL0     H76106   1.152   4.753   3.352  1.0579  2.8350 -3.6913
  564MOL0     H76107   1.074   4.708   3.203 -0.8672 -2.8792 -0.1234
  564MOL0     H76108   0.926   4.780   3.449  2.0684 -2.6773  0.3767
  564MOL0     H76109   1.003   4.905   3.353 -2.3816  0.7238 -1.0260
  564MOL0     H76110   0.860   4.773   3.152 -1.4595  0.2878 -0.2885
  564MOL0     H76111   0.802   4.920   3.255 -0.7315  0.8331  1.9284
  564MOL0     H76112   0.682   4.749   3.394 -1.6180 -3.5557 -0.0300
  564MOL0     H76113   0.713   4.637   3.263 -4.3417 -0.6511  0.5849
  564MOL0     H76114   0.609   4.736   3.092  0.6694  0.0659 -0.2176
  564MOL0     H76115   0.517   4.691   3.233  2.1919 -2.1948  1.8823
  564MOL0     H76116   0.622   4.983   3.175  1.6531 -2.7537 -5.8913
  564MOL0     H76117   0.494   4.933   3.302  1.4895 -4.6622  1.7753
  564MOL0     H76118   0.481   4.937   2.993 -1.6383  1.9184 -0.6301
  564MOL0     H76119   0.354   4.870   3.099 -0.5526 -0.4794  0.0093
  564MOL0     H76120   1.268   4.444   3.350  2.3497  0.9829  0.2016
  564MOL0     H76121   1.480   4.367   3.466  2.0134  1.7298  3.5557
  564MOL0     H76122   1.657   4.276   4.094  1.0302 -2.8120  2.2836
  564MOL0     H76123   1.833   4.128   4.145 -2.9976 -1.3165  1.1122
  564MOL0     H76124   2.423   5.167   4.359 -1.8401  1.1828 -1.3021
  564MOL0     H76125   2.314   5.355   4.319 -1.9895  3.5812  0.8874
  564MOL0     H76126   2.047   5.820   4.679  2.0054 -3.2055 -1.0163
  564MOL0     H76127   1.854   5.956   4.646  1.1884  0.1940 -0.3133
  564MOL0     H76128   1.637   6.156   4.395 -2.0016 -0.2353  1.9838
  564MOL0     H76129   1.797   6.112   4.471  0.6330 -0.3313 -0.2885
  564MOL0     H76130   1.712   6.156   4.655  0.5777 -2.1954  0.6747
  564MOL0     H76131   1.626   6.002   4.653  2.5294 -0.2572  0.0676
  564MOL0     H76132   1.511   6.298   4.613 -2.3685  0.4449  0.8490
  564MOL0     H76133   1.468   6.169   4.722  1.4005  2.4159  1.5128
  564MOL0     H76134   1.432   6.169   4.413 -2.4042 -0.5424 -2.4248
  564MOL0     H76135   1.359   6.047   4.520  0.3683  1.4354  0.4642
  564MOL0     H76136   1.051   6.296   4.559  1.2168  2.2859  2.6442
  564MOL0     H76137   1.756   5.749   4.287  0.4959  1.8091 -0.8100
  564MOL0     H76138   1.878   5.468   4.348 -0.9884  0.6766  1.1361
  564MOL0     H76139   1.905   5.549   4.194  0.0155  0.1534 -0.0627
  564MOL0     H76140   2.041   5.525   4.291 -0.4125  3.5896 -2.0582
  565MOL0     O76141   2.660   8.309  10.358 -1.0220  0.1739  0.1263
  565MOL0     C76142   2.686   8.312  10.236 -0.4227  0.2667  0.2686
  565MOL0     O76143   2.737   8.422  10.161 -0.1438  0.5679 -0.1048
  565MOL0     C76144   2.775   8.535  10.231  0.6479 -0.5166 -0.1777
  565MOL0     C76145   2.906   8.584  10.224  0.2729 -0.5894  0.0342
  565MOL0     C76146   2.934   8.713  10.274 -0.1182 -0.5079  0.3574
  565MOL0     C76147   2.837   8.801  10.308 -0.0315  0.3810 -0.1766
  565MOL0     O76148   2.862   8.940  10.330 -0.0867  0.3221 -0.1113
  565MOL0     C76149   2.767   9.023  10.262 -0.1342  0.1797 -0.1512
  565MOL0     C76150   2.786   9.170  10.319 -0.5909  0.0115 -0.1586
  565MOL0     C76151   2.936   9.225  10.320 -0.3959  0.1603 -0.1021
  565MOL0     C76152   2.941   9.313  10.455 -0.4429 -0.3467  0.0183
  565MOL0     C76153   3.083   9.350  10.465  0.2246 -0.8039 -0.4179
  565MOL0     C76154   3.088   9.473  10.553 -1.3475  0.8883 -0.3664
  565MOL0     C76155   3.239   9.518  10.564 -1.3961  0.0776 -0.3072
  565MOL0     C76156   3.251   9.652  10.631  0.4763 -0.4345 -0.1093
  565MOL0     N76157   3.204   9.653  10.773 -0.7053  0.3138  0.1167
  565MOL0     C76158   3.256   9.590  10.882 -0.1291 -0.2246  0.1066
  565MOL0     C76159   3.167   9.624  10.981 -0.7591 -0.2936  0.2129
  565MOL0     C76160   3.167   9.592  11.128  1.1395  0.6069  0.1552
  565MOL0     C76161   3.279   9.666  11.195  0.4375 -0.3532  0.0156
  565MOL0     C76162   3.341   9.582  11.302  0.9096 -0.1337 -0.9579
  565MOL0     C76163   3.436   9.472  11.247 -0.3301 -0.4702 -0.6544
  565MOL0     O76164   3.543   9.523  11.157  0.6285 -0.7862  0.4494
  565MOL0     C76165   3.669   9.555  11.214  1.0152  1.1892 -0.8411
  565MOL0     C76166   3.673   9.601  11.342  0.1919  0.4519  0.1137
  565MOL0     C76167   3.784   9.682  11.389 -0.1365  1.1618 -0.3488
  565MOL0     C76168   3.897   9.666  11.313 -0.4994 -0.4336 -0.2606
  565MOL0     C76169   4.023   9.720  11.360  0.2929  0.4999 -0.0525
  565MOL0     O76170   4.093   9.774  11.262 -0.5774  0.0836  0.0133
  565MOL0     C76171   4.216   9.829  11.296 -0.1647  0.8181 -0.2028
  565MOL0     C76172   4.334   9.793  11.236  0.2127  0.6390 -0.3932
  565MOL0     C76173   4.455   9.868  11.255  0.1886  0.5946 -0.7339
  565MOL0     C76174   4.457   9.983  11.336 -0.9767  0.1317  0.1494
  565MOL0     O76175   4.568  10.051  11.385  0.2722  0.1491  0.1443
  565MOL0     C76176   4.687   9.972  11.401  0.7328  0.3088  0.8785
  565MOL0     C76177   4.788  10.041  11.491 -0.5872 -0.4686 -0.4308
  565MOL0     C76178   4.743  10.056  11.628  0.7318 -0.2358 -0.0123
  565MOL0     C76179   4.848  10.141  11.701 -0.2201  0.0629 -0.2309
  565MOL0     C76180   4.831  10.138  11.857  0.2411 -0.0052 -0.1532
  565MOL0     C76181   4.954  10.164  11.944  0.1005 -0.4489  0.3454
  565MOL0     C76182   4.913  10.131  12.090  0.3384  0.0863 -0.6669
  565MOL0     C76183   4.807  10.221  12.141 -0.0978  0.5255 -0.2967
  565MOL0    Cl76184   4.649  10.153  12.135 -0.2856 -0.2134  0.1543
  565MOL0     C76185   4.332  10.024  11.372 -0.4396  0.3923  1.0854
  565MOL0     C76186   4.213   9.953  11.358 -0.1904  0.2745 -0.3341
  565MOL0     O76187   4.049   9.704  11.477 -0.0022 -0.2424  0.9473
  565MOL0     C76188   3.898   9.593  11.198 -0.5308 -0.4176 -0.6628
  565MOL0     C76189   3.788   9.551  11.139  1.2578  0.3451 -0.3377
  565MOL0     N76190   3.073   9.711  10.928 -0.1404  0.4517  0.6800
  565MOL0     N76191   3.086   9.726  10.805 -0.8271 -0.7704 -0.2232
  565MOL0     C76192   2.704   8.748  10.315  0.8395  1.0307 -0.9234
  565MOL0     C76193   2.676   8.616  10.288 -0.3588  0.1923 -0.0164
  565MOL0     C76194   2.637   8.196  10.148 -0.4309  0.0227  0.1229
  565MOL0     C76195   2.527   8.221  10.071 -0.5189 -0.5731  0.1619
  565MOL0     C76196   2.478   8.133   9.981 -0.3525 -0.5139 -1.0975
  565MOL0     C76197   2.534   8.010   9.963 -1.2263  0.5347 -0.0621
  565MOL0     O76198   2.480   7.929   9.865  0.4051  0.7272 -0.1592
  565MOL0     C76199   2.460   7.789   9.905 -0.2269  0.7158 -0.7070
  565MOL0     C76200   2.364   7.722   9.807 -0.0990 -0.1207 -0.8472
  565MOL0     C76201   2.376   7.740   9.672 -0.4834 -0.1069  0.5200
  565MOL0     C76202   2.288   7.648   9.593  0.9458  0.6731 -0.0050
  565MOL0     C76203   2.255   7.510   9.644 -0.0162 -0.1196  0.0440
  565MOL0     C76204   2.247   7.401   9.702  1.1987 -0.5628 -0.5452
  565MOL0     C76205   2.646   7.983  10.050 -0.1385 -0.0338  0.8080
  565MOL0     C76206   2.692   8.071  10.142 -0.2321 -0.3540 -0.1275
  565MOL0     C76207   2.819   8.042  10.208  0.0947 -0.5473  0.5528
  565MOL0     H76208   2.986   8.533  10.172  2.3268  1.3955  1.0712
  565MOL0     H76209   3.035   8.755  10.272  0.9881 -2.9770  0.4259
  565MOL0     H76210   2.759   9.009  10.154 -4.0832  0.6947 -0.0896
  565MOL0     H76211   2.664   8.997  10.288  0.2550  1.7550  3.5743
  565MOL0     H76212   2.738   9.176  10.417  0.5823  1.2860  0.3695
  565MOL0     H76213   2.726   9.232  10.252  3.4268 -0.6690 -4.9737
  565MOL0     H76214   2.947   9.285  10.229 -6.1915  1.2500 -0.4951
  565MOL0     H76215   3.007   9.143  10.323 -0.0860  0.2516 -2.9725
  565MOL0     H76216   2.880   9.401  10.433  1.4159  0.5133 -2.0946
  565MOL0     H76217   2.905   9.261  10.544 -1.0562  2.8943  1.8352
  565MOL0     H76218   3.139   9.271  10.516  2.2389  0.5935 -0.3535
  565MOL0     H76219   3.126   9.353  10.365 -3.6858 -2.9675 -2.4327
  565MOL0     H76220   3.031   9.548  10.497  1.9754  3.1181 -1.0471
  565MOL0     H76221   3.042   9.442  10.647 -2.5087 -1.5199 -1.6293
  565MOL0     H76222   3.270   9.524  10.459  1.8279 -1.9972  0.3762
  565MOL0     H76223   3.303   9.456  10.628 -1.7871  1.2089  1.2243
  565MOL0     H76224   3.357   9.679  10.634 -0.5780  4.5470  3.0917
  565MOL0     H76225   3.203   9.730  10.572  1.6125 -0.8053 -1.6148
  565MOL0     H76226   3.342   9.525  10.890  0.7510  1.0328  1.1998
  565MOL0     H76227   3.066   9.617  11.160  0.3582  0.6829 -2.1250
  565MOL0     H76228   3.179   9.483  11.131 -1.7926  0.2241  0.9101
  565MOL0     H76229   3.356   9.688  11.120  0.9877 -3.5331 -0.4874
  565MOL0     H76230   3.242   9.763  11.230  1.4554  1.0158 -2.4669
  565MOL0     H76231   3.277   9.524  11.369  2.5994 -2.2346 -1.0689
  565MOL0     H76232   3.404   9.643  11.367  0.9930  0.8580 -1.9300
  565MOL0     H76233   3.383   9.408  11.175 -3.6033  1.4510 -0.1766
  565MOL0     H76234   3.478   9.408  11.324 -1.3308  0.0197  0.3244
  565MOL0     H76235   3.594   9.601  11.415  0.3243 -0.8221  0.2754
  565MOL0     H76236   3.802   9.737  11.481  1.2849  2.6108 -1.4394
  565MOL0     H76237   4.354   9.702  11.181  2.3142  1.5597 -1.2802
  565MOL0     H76238   4.546   9.815  11.229 -0.2274 -1.8271  2.1791
  565MOL0     H76239   4.670   9.873  11.444  6.4538 -0.0563  3.2043
  565MOL0     H76240   4.732   9.970  11.302 -0.5432 -1.2684  0.2847
  565MOL0     H76241   4.878   9.981  11.477 -0.3213 -0.2608  0.3337
  565MOL0     H76242   4.797  10.140  11.447 -1.6037 -0.4147 -0.5276
  565MOL0     H76243   4.643  10.100  11.637  1.8187  2.5744 -0.4822
  565MOL0     H76244   4.735   9.955  11.670  0.9071  1.1396  3.7415
  565MOL0     H76245   4.848  10.244  11.665 -0.5114 -0.2157 -1.0438
  565MOL0     H76246   4.945  10.093  11.690  1.3370  2.0745  3.1399
  565MOL0     H76247   4.802  10.035  11.878  2.6027 -0.5328  0.8989
  565MOL0     H76248   4.746  10.206  11.872 -0.5130 -0.2620 -2.7151
  565MOL0     H76249   5.029  10.089  11.918  0.9185  1.4265 -3.4464
  565MOL0     H76250   4.987  10.268  11.931  0.5118 -0.7120 -0.8680
  565MOL0     H76251   5.007  10.143  12.144  1.9292  0.3244 -3.3054
  565MOL0     H76252   4.883  10.026  12.102 -1.0311  0.7514  2.2956
  565MOL0     H76253   4.851  10.241  12.239  1.7635  0.5784 -1.0959
  565MOL0     H76254   4.805  10.316  12.087  1.2247  0.5688 -0.3042
  565MOL0     H76255   4.326  10.106  11.443  0.9657  0.2056  1.4529
  565MOL0     H76256   4.119   9.988  11.398 -0.7642 -2.8478  1.3419
  565MOL0     H76257   3.988   9.571  11.141 -0.5198  0.6379 -1.0770
  565MOL0     H76258   3.803   9.488  11.052 -2.7510 -0.1796 -0.8106
  565MOL0     H76259   2.631   8.813  10.361  2.5440  3.5833 -1.5836
  565MOL0     H76260   2.582   8.563  10.294 -0.4701 -0.2806 -3.7434
  565MOL0     H76261   2.476   8.315  10.090  4.1717  2.4262 -0.4220
  565MOL0     H76262   2.392   8.169   9.926 -0.7162  4.8305  2.2291
  565MOL0     H76263   2.425   7.774  10.008  1.5744 -1.3456 -0.3362
  565MOL0     H76264   2.550   7.728   9.892 -0.7857 -0.6905  1.6099
  565MOL0     H76265   2.270   7.757   9.853  0.4078 -1.6771  1.5675
  565MOL0     H76266   2.363   7.617   9.837 -0.6356 -0.7054 -2.7786
  565MOL0     H76267   2.482   7.717   9.653 -0.5065 -2.8863  3.0245
  565MOL0     H76268   2.364   7.844   9.642 -1.3992 -1.2320 -3.7683
  565MOL0     H76269   2.200   7.712   9.587  0.3737  0.0172  1.0816
  565MOL0     H76270   2.327   7.637   9.491 -1.3037  2.0332 -1.0724
  565MOL0     H76271   2.238   7.305   9.748 -2.4979 -1.1470 -2.1715
  565MOL0     H76272   2.690   7.884  10.035  0.2215  0.1564  0.5772
  565MOL0     H76273   2.882   8.131  10.216 -0.9235  0.3306 -0.7907
  565MOL0     H76274   2.811   8.002  10.310  4.8365  0.4143  1.5521
  565MOL0     H76275   2.868   7.956  10.161 -0.8436 -1.9409  2.0060
  566MOL0     O76276   8.615   2.567  11.458 -0.1766  0.3939  0.1745
  566MOL0     C76277   8.624   2.440  11.456  0.2453 -0.0381  0.7309
  566MOL0     O76278   8.575   2.369  11.349 -0.1102  1.0590 -0.0172
  566MOL0     C76279   8.484   2.426  11.267 -0.8543  0.5490 -0.0913
  566MOL0     C76280   8.524   2.539  11.191  0.0707  0.1816  1.1579
  566MOL0     C76281   8.443   2.584  11.093  0.0143  0.3096  0.0705
  566MOL0     C76282   8.317   2.522  11.071 -0.4041 -0.0950  0.7760
  566MOL0     O76283   8.239   2.557  10.969  0.6250  0.8442  0.9299
  566MOL0     C76284   8.290   2.633  10.861 -0.2060 -0.7489 -0.9764
  566MOL0     C76285   8.172   2.677  10.765  0.3184 -0.0590  0.5547
  566MOL0     C76286   8.155   2.577  10.650 -1.2833  0.3007 -0.3665
  566MOL0     C76287   8.045   2.629  10.553  0.5640  0.2487 -1.1320
  566MOL0     C76288   8.014   2.522  10.445  0.4474 -0.5162  0.4462
  566MOL0     C76289   7.917   2.582  10.338 -0.2571  0.7492 -0.4752
  566MOL0     C76290   7.934   2.515  10.200 -1.5047  0.6535 -0.5688
  566MOL0     C76291   7.856   2.380  10.199  1.0986  0.1142  0.2907
  566MOL0     N76292   7.709   2.400  10.193  0.1033 -0.1076 -0.2597
  566MOL0     C76293   7.655   2.476  10.092 -0.8440 -0.1441  0.1614
  566MOL0     C76294   7.521   2.468  10.126  0.6495 -0.4647 -0.0897
  566MOL0     C76295   7.395   2.519  10.055 -0.0809  0.4401 -0.0353
  566MOL0     C76296   7.384   2.675  10.065  0.5108 -0.0412  1.6695
  566MOL0     C76297   7.352   2.737  10.205 -0.3579  0.3416  0.3606
  566MOL0     C76298   7.272   2.652  10.305 -0.1876 -0.9104  0.0592
  566MOL0     O76299   7.253   2.727  10.425  0.0787  0.2294 -0.6513
  566MOL0     C76300   7.360   2.769  10.499 -0.7245  0.0968  0.0695
  566MOL0     C76301   7.338   2.876  10.586 -0.7233  0.2700 -0.4563
  566MOL0     C76302   7.440   2.931  10.665 -0.4979  0.2464  0.0074
  566MOL0     C76303   7.572   2.882  10.644  0.2120  0.8518  0.1806
  566MOL0     C76304   7.687   2.939  10.722  0.0579  0.7680 -0.2930
  566MOL0     O76305   7.791   2.857  10.743  0.4121  0.1529 -0.5006
  566MOL0     C76306   7.887   2.901  10.831 -0.2978  0.0329  0.0727
  566MOL0     C76307   7.993   2.977  10.777  0.2153 -0.6605  0.0274
  566MOL0     C76308   8.097   3.018  10.854 -0.2648 -0.1109 -0.0994
  566MOL0     C76309   8.094   2.992  10.996  0.5758  0.3588  0.1876
  566MOL0     O76310   8.188   3.021  11.080 -0.5948 -0.0359 -0.0602
  566MOL0     C76311   8.216   3.162  11.080  0.1930  0.1843  0.3944
  566MOL0     C76312   8.274   3.173  11.221 -0.4599  0.2820  0.5016
  566MOL0     C76313   8.365   3.299  11.241 -0.1782  0.1569  0.8419
  566MOL0     C76314   8.439   3.280  11.374 -0.1062  0.4385 -0.7003
  566MOL0     C76315   8.519   3.407  11.392 -0.1508  1.2922  0.7377
  566MOL0     C76316   8.433   3.491  11.490  0.3808  0.1397 -0.2725
  566MOL0     C76317   8.424   3.645  11.469 -0.0746 -0.2241 -0.1667
  566MOL0     C76318   8.540   3.723  11.516 -0.0003 -0.2637 -0.0793
  566MOL0    Cl76319   8.545   3.726  11.699 -0.1930  0.0104 -0.4811
  566MOL0     C76320   7.978   2.921  11.048 -0.3834 -0.6833  0.6231
  566MOL0     C76321   7.880   2.874  10.960  0.1928 -1.0711 -0.1251
  566MOL0     O76322   7.671   3.053  10.771  0.6351  0.3277  0.2008
  566MOL0     C76323   7.593   2.776  10.550 -0.3228  0.4165 -0.0057
  566MOL0     C76324   7.486   2.712  10.492  0.5837 -0.3678  0.0959
  566MOL0     N76325   7.499   2.397  10.243  0.6613 -0.3781  0.4266
  566MOL0     N76326   7.615   2.358  10.283 -0.2243  0.6582  0.9517
  566MOL0     C76327   8.275   2.415  11.151  0.3352 -0.9371  0.6531
  566MOL0     C76328   8.360   2.359  11.245 -0.1205 -0.8102  0.8563
  566MOL0     C76329   8.688   2.366  11.567  0.2338  0.3912  0.0098
  566MOL0     C76330   8.662   2.227  11.580 -0.4128 -0.4153  0.1502
  566MOL0     C76331   8.696   2.146  11.694 -0.6817 -0.5548 -0.9515
  566MOL0     C76332   8.766   2.205  11.793 -0.1397  0.2897  0.3032
  566MOL0     O76333   8.800   2.122  11.894 -0.1252 -0.3240  0.6585
  566MOL0     C76334   8.909   2.161  11.976  0.0579  0.4955  0.2550
  566MOL0     C76335   8.983   2.038  12.020 -0.1531 -0.3710  0.5676
  566MOL0     C76336   8.892   1.943  12.094  0.4230 -0.3188  0.3714
  566MOL0     C76337   8.890   1.938  12.247 -0.0298 -0.3686 -1.3042
  566MOL0     C76338   9.035   1.909  12.296 -0.0716 -0.1752  0.4675
  566MOL0     C76339   9.144   1.916  12.340  0.0663 -0.6823 -0.0616
  566MOL0     C76340   8.787   2.348  11.788 -0.3215 -0.3297  0.1603
  566MOL0     C76341   8.759   2.431  11.674  0.0123 -0.1242  0.3641
  566MOL0     C76342   8.779   2.585  11.681 -0.3020  0.2904  0.8292
  566MOL0     H76343   8.618   2.593  11.195 -1.5978  3.6997 -1.8392
  566MOL0     H76344   8.483   2.673  11.045 -1.9604  0.2039 -1.9886
  566MOL0     H76345   8.334   2.718  10.912 -0.4312 -0.5319 -1.1432
  566MOL0     H76346   8.366   2.588  10.796  0.3081  1.4705 -2.0185
  566MOL0     H76347   8.201   2.775  10.726  0.4417 -0.1388  0.4443
  566MOL0     H76348   8.079   2.684  10.822 -1.4588 -1.7252 -1.9102
  566MOL0     H76349   8.139   2.472  10.676  0.9192  0.2184  0.8895
  566MOL0     H76350   8.253   2.575  10.601  0.3215 -3.9134  2.4358
  566MOL0     H76351   7.957   2.641  10.616  3.9069  0.4387  4.1268
  566MOL0     H76352   8.076   2.725  10.511 -1.1258  1.0649 -0.6153
  566MOL0     H76353   8.109   2.493  10.399 -0.5405 -1.5462 -1.0390
  566MOL0     H76354   7.970   2.428  10.480 -0.5534  0.5002  2.0414
  566MOL0     H76355   7.813   2.581  10.371  0.4632  2.3124  2.0828
  566MOL0     H76356   7.951   2.682  10.310  0.0220  0.8675  0.2580
  566MOL0     H76357   8.039   2.493  10.178 -1.0353  0.6024  1.5816
  566MOL0     H76358   7.902   2.576  10.115  1.0621  1.5749 -0.9794
  566MOL0     H76359   7.881   2.327  10.107  0.6123  1.3208 -0.5663
  566MOL0     H76360   7.880   2.306  10.275  1.0598 -0.5567 -0.3387
  566MOL0     H76361   7.705   2.524  10.008  2.0023 -2.7249  0.2384
  566MOL0     H76362   7.401   2.495   9.948  0.2870 -0.5029  0.1854
  566MOL0     H76363   7.304   2.469  10.090  0.1422 -2.0377 -2.5647
  566MOL0     H76364   7.481   2.712  10.029  0.8157 -0.4632  2.0513
  566MOL0     H76365   7.312   2.712   9.992  0.2437 -2.6835  0.4934
  566MOL0     H76366   7.305   2.835  10.194  1.0220  0.9192 -0.8713
  566MOL0     H76367   7.447   2.765  10.251  2.7308 -2.3726 -3.6554
  566MOL0     H76368   7.317   2.556  10.329  1.5738  0.2241  1.5809
  566MOL0     H76369   7.171   2.644  10.263 -1.3677  2.7380  1.7609
  566MOL0     H76370   7.236   2.912  10.589 -0.7065  0.2620  0.4781
  566MOL0     H76371   7.421   3.009  10.738  1.3942 -1.2314  2.2188
  566MOL0     H76372   8.004   3.002  10.672 -3.1670  2.5397  0.2250
  566MOL0     H76373   8.185   3.072  10.821  1.5151 -2.5840  0.2522
  566MOL0     H76374   8.294   3.191  11.010  1.1777  2.9119  2.4336
  566MOL0     H76375   8.133   3.230  11.062  0.4003  0.2749 -0.2279
  566MOL0     H76376   8.196   3.181  11.297 -1.2585  0.7426 -0.3365
  566MOL0     H76377   8.342   3.093  11.251  0.3501  0.6655 -0.2554
  566MOL0     H76378   8.433   3.288  11.156 -1.2175 -2.1953  0.2354
  566MOL0     H76379   8.313   3.395  11.243 -4.5852 -1.9687  1.6043
  566MOL0     H76380   8.500   3.190  11.378 -2.9519 -1.5753  0.2738
  566MOL0     H76381   8.380   3.257  11.463  0.2180 -1.8865 -1.0231
  566MOL0     H76382   8.526   3.461  11.297  0.9675 -0.9150 -0.5044
  566MOL0     H76383   8.617   3.384  11.434  1.4868 -0.7081 -3.5767
  566MOL0     H76384   8.331   3.451  11.486 -1.0639  3.3530  1.3041
  566MOL0     H76385   8.450   3.476  11.597 -1.7200 -0.8070 -0.0199
  566MOL0     H76386   8.336   3.672  11.527  0.7559 -3.0270  2.7169
  566MOL0     H76387   8.402   3.673  11.366  0.3522  0.6961 -0.0201
  566MOL0     H76388   8.633   3.696  11.465  2.3317  4.0071  1.3938
  566MOL0     H76389   8.535   3.827  11.482  0.8159 -1.1173 -3.1282
  566MOL0     H76390   7.978   2.894  11.153 -1.1553 -0.0335  0.7949
  566MOL0     H76391   7.791   2.827  11.001 -0.2927 -0.2353 -0.1955
  566MOL0     H76392   7.696   2.742  10.545 -0.6970 -1.2605  2.2722
  566MOL0     H76393   7.507   2.614  10.451  0.2196  0.6366 -2.6686
  566MOL0     H76394   8.187   2.355  11.130  1.1513 -1.7671 -0.5659
  566MOL0     H76395   8.331   2.268  11.296 -0.1994 -1.1745  0.1692
  566MOL0     H76396   8.597   2.175  11.511 -0.8461 -0.6366  0.7208
  566MOL0     H76397   8.666   2.043  11.706 -0.6774 -0.2344  3.8100
  566MOL0     H76398   8.862   2.209  12.063  0.4177  0.0775  0.6874
  566MOL0     H76399   8.985   2.220  11.925  0.7604 -1.3861 -0.9716
  566MOL0     H76400   9.074   2.060  12.078  0.4481 -3.1129  0.7870
  566MOL0     H76401   9.022   1.979  11.936 -2.3664 -2.4155  0.8787
  566MOL0     H76402   8.925   1.846  12.054  0.0426  1.2141 -4.2286
  566MOL0     H76403   8.791   1.962  12.057 -0.3225 -3.2608  0.6519
  566MOL0     H76404   8.848   2.031  12.287 -0.1560 -0.9187 -0.1186
  566MOL0     H76405   8.833   1.854  12.287  0.6326  0.2584  1.1203
  566MOL0     H76406   9.246   1.912  12.373  0.0050  1.9280  0.6907
  566MOL0     H76407   8.839   2.402  11.866  2.5779  0.0642 -1.8896
  566MOL0     H76408   8.821   2.625  11.774  0.2242  1.8336 -0.0368
  566MOL0     H76409   8.857   2.617  11.611  0.3211 -0.6068  1.0890
  566MOL0     H76410   8.696   2.649  11.650 -0.1085 -0.6394 -1.8484
  567MOL0     O76411   2.883   6.282   7.747 -0.3186 -0.3601  0.6497
  567MOL0     C76412   2.977   6.254   7.669  0.1571  0.4619 -1.3317
  567MOL0     O76413   2.965   6.225   7.533 -0.0082  0.1641 -0.2365
  567MOL0     C76414   2.839   6.203   7.494  1.0447 -0.5983  0.3363
  567MOL0     C76415   2.777   6.083   7.509 -0.8847  0.5371  0.7078
  567MOL0     C76416   2.650   6.074   7.456 -0.7794  0.7799 -0.4387
  567MOL0     C76417   2.589   6.182   7.382  0.7103 -0.0656  0.3039
  567MOL0     O76418   2.458   6.185   7.352  0.1300  0.8367  0.2463
  567MOL0     C76419   2.372   6.085   7.406 -0.7967  0.5423  0.0287
  567MOL0     C76420   2.295   6.135   7.522 -0.4796  0.1092 -0.2570
  567MOL0     C76421   2.182   6.230   7.480 -0.6735  0.6751  0.4934
  567MOL0     C76422   2.115   6.289   7.607  0.0100 -0.6365  0.3686
  567MOL0     C76423   2.134   6.446   7.610 -0.7269 -1.1402  0.0042
  567MOL0     C76424   2.094   6.526   7.484  0.1965  0.4291 -0.8582
  567MOL0     C76425   2.077   6.676   7.494  0.4012  0.4335  0.0622
  567MOL0     C76426   2.191   6.747   7.552  0.1229 -0.7914  0.0840
  567MOL0     N76427   2.305   6.741   7.454 -0.1058 -0.5900  0.6288
  567MOL0     C76428   2.361   6.839   7.372 -0.0170  1.2172  0.0658
  567MOL0     C76429   2.482   6.802   7.338 -0.2089  0.1491  0.3871
  567MOL0     C76430   2.581   6.885   7.266 -0.8206  1.0183  0.4535
  567MOL0     C76431   2.696   6.931   7.347 -0.4539 -0.0194 -0.7990
  567MOL0     C76432   2.803   6.832   7.404 -0.3998  0.2351  0.2470
  567MOL0     C76433   2.829   6.727   7.298  0.5706  0.4564 -0.8279
  567MOL0     O76434   2.946   6.643   7.320  0.6138 -0.3784  0.0608
  567MOL0     C76435   2.967   6.538   7.238  0.4891  0.6835  0.3243
  567MOL0     C76436   3.073   6.458   7.284  0.0094  1.0879  0.5740
  567MOL0     C76437   3.089   6.335   7.222 -0.8011  0.4574 -0.0450
  567MOL0     C76438   3.014   6.293   7.108 -0.4942  0.5661  0.0396
  567MOL0     C76439   3.031   6.159   7.043 -0.4955 -0.0240  1.0318
  567MOL0     O76440   3.099   6.065   7.104 -0.7656  0.3336  0.1538
  567MOL0     C76441   3.132   5.939   7.055  0.0203 -0.2907  0.7437
  567MOL0     C76442   3.117   5.901   6.918 -0.5450  0.8605  0.4259
  567MOL0     C76443   3.173   5.772   6.879 -0.4729 -0.4317 -0.0352
  567MOL0     C76444   3.238   5.685   6.964 -0.5437 -0.3175  0.2889
  567MOL0     O76445   3.266   5.565   6.912  0.4610  0.6759 -0.6029
  567MOL0     C76446   3.273   5.463   7.010 -0.4539 -0.3293  0.6006
  567MOL0     C76447   3.269   5.331   6.927  0.4092 -0.4653  0.3767
  567MOL0     C76448   3.131   5.299   6.851 -0.1183 -0.6855  0.3825
  567MOL0     C76449   3.115   5.376   6.715  0.1099 -1.0185  0.1063
  567MOL0     C76450   3.021   5.313   6.613  0.3696 -0.1394  0.6552
  567MOL0     C76451   3.053   5.365   6.475  0.2827  0.4026 -0.3206
  567MOL0     C76452   2.960   5.324   6.355  1.0195  0.5741  0.2513
  567MOL0     C76453   2.999   5.182   6.307 -0.2090 -0.1177 -0.3894
  567MOL0    Cl76454   2.948   5.155   6.148 -0.2102  0.1477  0.2178
  567MOL0     C76455   3.250   5.727   7.101  0.0081 -0.0318 -0.5606
  567MOL0     C76456   3.200   5.852   7.139  0.4359  0.1180  0.0142
  567MOL0     O76457   2.999   6.157   6.929  0.2770  0.1897 -0.3766
  567MOL0     C76458   2.925   6.386   7.054  0.9503 -0.0216  0.2168
  567MOL0     C76459   2.906   6.510   7.120  0.7096  0.1545 -0.0525
  567MOL0     N76460   2.494   6.678   7.386 -0.9686  0.5469 -0.9569
  567MOL0     N76461   2.399   6.643   7.458 -0.0942  0.4738  0.1342
  567MOL0     C76462   2.653   6.303   7.365  1.0255  0.3890 -0.5071
  567MOL0     C76463   2.781   6.311   7.420 -0.8227  0.3525  0.1503
  567MOL0     C76464   3.111   6.267   7.712 -0.4516  0.6897  0.1572
  567MOL0     C76465   3.207   6.268   7.615 -0.1195  0.7409  0.2922
  567MOL0     C76466   3.348   6.289   7.646  0.7055 -0.9157  0.7707
  567MOL0     C76467   3.384   6.318   7.777  0.8795  0.5806  0.1793
  567MOL0     O76468   3.511   6.356   7.813 -0.7053 -0.3234 -1.0349
  567MOL0     C76469   3.610   6.387   7.711  0.8868  1.0451  0.1903
  567MOL0     C76470   3.745   6.423   7.768 -0.8064  0.3700  0.0911
  567MOL0     C76471   3.745   6.518   7.887 -0.0316  0.1081  0.8135
  567MOL0     C76472   3.711   6.450   8.023 -0.4819  0.4492  0.4064
  567MOL0     C76473   3.812   6.344   8.062  0.0240  0.4600  0.3774
  567MOL0     C76474   3.894   6.248   8.072  0.5502  0.0870  0.3086
  567MOL0     C76475   3.297   6.295   7.877  0.7178 -0.2871 -0.3796
  567MOL0     C76476   3.158   6.290   7.854 -0.6925  0.3037 -0.0751
  567MOL0     C76477   3.071   6.274   7.972  0.0792 -0.1357 -0.2437
  567MOL0     H76478   2.828   6.009   7.569  0.4843  0.1085 -0.9058
  567MOL0     H76479   2.597   5.982   7.478  1.2976 -0.1047  1.2838
  567MOL0     H76480   2.297   6.047   7.335 -0.5640  0.0147  0.0611
  567MOL0     H76481   2.414   5.986   7.425 -1.1591  0.4160  0.1958
  567MOL0     H76482   2.368   6.175   7.592 -0.7483 -2.1276  1.4140
  567MOL0     H76483   2.251   6.047   7.570  0.2214 -2.1421 -3.4106
  567MOL0     H76484   2.108   6.177   7.420  0.0491 -1.6344  1.5355
  567MOL0     H76485   2.235   6.307   7.423 -0.4569 -1.0513 -1.7693
  567MOL0     H76486   2.015   6.245   7.620  1.2466 -3.5265  0.9677
  567MOL0     H76487   2.170   6.247   7.691  2.8726  1.3776 -0.3550
  567MOL0     H76488   2.070   6.471   7.695  2.7888 -1.1812  2.8752
  567MOL0     H76489   2.237   6.476   7.626 -1.0666  1.1226 -1.5624
  567MOL0     H76490   2.155   6.503   7.396 -1.0770 -3.1418 -0.9653
  567MOL0     H76491   1.995   6.484   7.463 -0.7803  1.0635  2.0072
  567MOL0     H76492   1.985   6.693   7.551  0.0280 -1.3132  0.0307
  567MOL0     H76493   2.066   6.711   7.391 -0.6182 -0.3081 -0.1020
  567MOL0     H76494   2.150   6.848   7.562  0.7424 -0.5164 -0.1544
  567MOL0     H76495   2.224   6.708   7.649  3.8497  1.4138 -0.1086
  567MOL0     H76496   2.305   6.930   7.350 -2.0503 -0.7182 -3.7367
  567MOL0     H76497   2.609   6.837   7.172 -0.8996  4.4203 -1.4859
  567MOL0     H76498   2.526   6.974   7.234 -1.9103  0.9820  2.1260
  567MOL0     H76499   2.745   7.008   7.288  0.2322 -1.4009 -2.0851
  567MOL0     H76500   2.657   6.969   7.442  2.2706  1.8997 -0.3374
  567MOL0     H76501   2.772   6.783   7.497 -0.8022  4.3199  2.5263
  567MOL0     H76502   2.890   6.895   7.423  0.1126 -0.3329 -0.1747
  567MOL0     H76503   2.819   6.782   7.204 -0.4158 -2.7399 -2.7595
  567MOL0     H76504   2.740   6.663   7.294 -0.0260  1.3178 -1.7171
  567MOL0     H76505   3.128   6.500   7.368  0.5762  0.8734  0.3094
  567MOL0     H76506   3.161   6.265   7.261  2.0869  2.0924 -2.0363
  567MOL0     H76507   3.067   5.962   6.843 -0.1243  1.3020  0.4953
  567MOL0     H76508   3.158   5.739   6.776 -2.1757  3.3920 -1.1552
  567MOL0     H76509   3.367   5.463   7.065  0.5585  1.1101 -1.0118
  567MOL0     H76510   3.214   5.466   7.102  1.0065  0.4680  1.5490
  567MOL0     H76511   3.344   5.327   6.847 -2.3297 -0.8114 -2.3755
  567MOL0     H76512   3.288   5.252   7.000 -0.0657 -1.0356 -0.1069
  567MOL0     H76513   3.131   5.191   6.834 -2.2527 -0.1087 -5.2183
  567MOL0     H76514   3.051   5.336   6.916 -0.4754  0.5784 -0.7342
  567MOL0     H76515   3.206   5.381   6.655 -1.6245  1.8509 -2.5859
  567MOL0     H76516   3.077   5.478   6.729 -3.0987 -1.6472 -2.6922
  567MOL0     H76517   2.922   5.347   6.644  0.7438 -1.9694  4.4631
  567MOL0     H76518   3.021   5.204   6.622 -1.7900 -0.1876  0.4684
  567MOL0     H76519   3.034   5.473   6.479 -1.6699  0.0579  0.9227
  567MOL0     H76520   3.156   5.336   6.453  1.7017  1.6048  3.7712
  567MOL0     H76521   2.980   5.379   6.263 -1.0934  1.5485  0.3216
  567MOL0     H76522   2.853   5.330   6.376  1.0104 -0.4646  0.5712
  567MOL0     H76523   3.109   5.179   6.300 -0.0408  2.5935 -0.0281
  567MOL0     H76524   2.958   5.106   6.373  1.2508 -1.5333 -1.0416
  567MOL0     H76525   3.302   5.662   7.169  1.8238  0.2550 -1.6156
  567MOL0     H76526   3.207   5.885   7.243 -2.0260 -3.2100  1.3935
  567MOL0     H76527   2.855   6.364   6.974  1.3705 -0.3683 -0.0553
  567MOL0     H76528   2.824   6.565   7.075 -0.7840 -2.5159 -0.8250
  567MOL0     H76529   2.600   6.393   7.337  0.7267  2.1582  4.6001
  567MOL0     H76530   2.831   6.405   7.401 -1.4443  0.4592 -1.0225
  567MOL0     H76531   3.179   6.251   7.511 -0.0836  1.0897  0.2251
  567MOL0     H76532   3.411   6.296   7.558 -2.8042  1.7273 -1.8113
  567MOL0     H76533   3.579   6.474   7.652 -3.8030 -0.2763  0.3185
  567MOL0     H76534   3.631   6.305   7.641  2.2331  3.1777 -2.0845
  567MOL0     H76535   3.808   6.468   7.690 -1.0457 -1.4068 -1.1876
  567MOL0     H76536   3.794   6.330   7.795 -1.8228  0.1963  1.4065
  567MOL0     H76537   3.677   6.599   7.861 -0.3400  0.6672  3.1089
  567MOL0     H76538   3.846   6.559   7.890 -1.8731  5.4684  0.0011
  567MOL0     H76539   3.701   6.518   8.108  0.3824  2.6320 -1.1448
  567MOL0     H76540   3.607   6.415   8.019 -0.7297  1.2384 -1.0951
  567MOL0     H76541   3.968   6.173   8.086  0.3931  0.2906  2.5390
  567MOL0     H76542   3.325   6.296   7.982 -0.6722 -1.9871  0.0622
  567MOL0     H76543   3.038   6.170   7.979  0.4258 -0.2159  0.2603
  567MOL0     H76544   3.133   6.292   8.060 -0.8161 -1.0485  0.6088
  567MOL0     H76545   2.986   6.342   7.979  2.9226  3.6963  0.0249
  568MOL0     O76546   4.046   0.929   6.727  0.1726 -0.4021  0.6680
  568MOL0     C76547   4.067   0.899   6.848  1.0166 -0.9641 -0.7064
  568MOL0     O76548   4.046   0.776   6.908  0.5890  0.7236 -0.2079
  568MOL0     C76549   3.970   0.678   6.853 -0.4668 -0.1581  0.2586
  568MOL0     C76550   3.874   0.700   6.752 -0.2403 -0.0043  0.5299
  568MOL0     C76551   3.796   0.586   6.714 -0.8875  0.5267  0.3999
  568MOL0     C76552   3.819   0.458   6.773  0.1698 -0.6054  0.2194
  568MOL0     O76553   3.732   0.353   6.741  0.0248  0.3838  0.3240
  568MOL0     C76554   3.784   0.220   6.727  0.7352  0.9792  0.6152
  568MOL0     C76555   3.774   0.140   6.851 -0.3007 -0.1033 -0.3570
  568MOL0     C76556   3.641   0.151   6.910  0.0504  0.0414 -1.2952
  568MOL0     C76557   3.639   0.071   7.028  1.0509 -0.1669 -0.8859
  568MOL0     C76558   3.517   0.095   7.100  0.1818  0.7089 -0.2406
  568MOL0     C76559   3.508  -0.007   7.220  0.1756  0.2107 -0.5011
  568MOL0     C76560   3.369   0.025   7.286  0.2942 -0.2331 -0.1499
  568MOL0     C76561   3.237  -0.006   7.225  0.0441  1.3108  0.5733
  568MOL0     N76562   3.219  -0.152   7.220  0.2391  0.3478 -0.1045
  568MOL0     C76563   3.135  -0.224   7.300 -0.0607  0.1497 -0.2825
  568MOL0     C76564   3.169  -0.352   7.274 -0.1635  0.0377  1.0920
  568MOL0     C76565   3.102  -0.460   7.351 -0.2511 -0.4021 -0.1135
  568MOL0     C76566   3.116  -0.583   7.267  1.0248  0.1613  0.2266
  568MOL0     C76567   3.068  -0.701   7.361  0.1992  1.3719 -0.6701
  568MOL0     C76568   3.083  -0.827   7.273  0.4757 -0.2339 -0.0175
  568MOL0     O76569   2.985  -0.826   7.157 -0.5945  0.1604 -0.1009
  568MOL0     C76570   2.900  -0.940   7.170  0.0578 -0.2405  0.2366
  568MOL0     C76571   2.952  -1.069   7.158 -0.7452 -0.5191  0.1293
  568MOL0     C76572   2.866  -1.178   7.196  0.1018 -0.5787  0.1868
  568MOL0     C76573   2.731  -1.165   7.235 -0.4504 -0.0689  0.5091
  568MOL0     C76574   2.657  -1.281   7.260  0.1946 -0.8873 -0.4927
  568MOL0     O76575   2.712  -1.402   7.239  0.3849 -0.5155 -1.0095
  568MOL0     C76576   2.636  -1.522   7.250 -0.4091 -1.3311  0.2172
  568MOL0     C76577   2.539  -1.550   7.350 -0.2754  0.0469 -0.0362
  568MOL0     C76578   2.479  -1.676   7.356  0.9694 -0.2090 -1.0136
  568MOL0     C76579   2.516  -1.763   7.253  0.0349 -0.0477  0.0156
  568MOL0     O76580   2.452  -1.884   7.268 -0.3880  0.1564 -0.1480
  568MOL0     C76581   2.538  -2.001   7.258 -0.2855  0.6191 -0.6907
  568MOL0     C76582   2.576  -2.061   7.397 -0.7057 -0.4550  0.2778
  568MOL0     C76583   2.463  -2.083   7.503  0.2830  0.8169 -0.0377
  568MOL0     C76584   2.380  -2.218   7.483 -0.5902 -1.1936 -0.1792
  568MOL0     C76585   2.257  -2.241   7.573 -0.1211 -0.0186  0.0340
  568MOL0     C76586   2.179  -2.370   7.552  0.0324  0.0103 -0.1796
  568MOL0     C76587   2.274  -2.498   7.538 -0.1220 -0.5501  0.0804
  568MOL0     C76588   2.207  -2.630   7.578  0.0823  0.1595  0.1254
  568MOL0    Cl76589   2.321  -2.765   7.561 -0.0771  0.1010 -0.4735
  568MOL0     C76590   2.589  -1.731   7.141 -1.0497 -0.4274  1.2471
  568MOL0     C76591   2.658  -1.606   7.139  0.5857 -0.0225  0.5953
  568MOL0     O76592   2.539  -1.253   7.299 -0.2470 -0.1271  0.3611
  568MOL0     C76593   2.684  -1.037   7.246  0.1181 -0.6035  0.2304
  568MOL0     C76594   2.769  -0.923   7.216  1.1395 -0.5215  0.1530
  568MOL0     N76595   3.260  -0.355   7.167  0.3331 -0.6482  0.9828
  568MOL0     N76596   3.305  -0.234   7.153  0.7249  0.3815 -0.4097
  568MOL0     C76597   3.918   0.446   6.871 -0.1258 -0.2164 -0.9316
  568MOL0     C76598   4.002   0.552   6.905 -0.2070  0.2959  1.3369
  568MOL0     C76599   4.101   1.002   6.953  0.4654  0.2008  0.0768
  568MOL0     C76600   4.206   0.969   7.046 -0.1584 -0.9039  0.7054
  568MOL0     C76601   4.248   1.065   7.133 -0.2095 -0.0493  0.1162
  568MOL0     C76602   4.183   1.188   7.143 -1.0093  0.7236  0.4921
  568MOL0     O76603   4.219   1.293   7.225 -0.1443 -0.6720  0.0117
  568MOL0     C76604   4.293   1.258   7.348  0.2760  0.3667 -0.3084
  568MOL0     C76605   4.292   1.361   7.457 -0.8783  0.4218 -0.1587
  568MOL0     C76606   4.367   1.488   7.413 -0.0046  0.4061  0.0074
  568MOL0     C76607   4.374   1.609   7.515 -0.0962 -0.7360 -0.6088
  568MOL0     C76608   4.451   1.726   7.478 -0.2381 -0.2582  0.8131
  568MOL0     C76609   4.494   1.838   7.434  0.1394 -0.0322 -0.1759
  568MOL0     C76610   4.085   1.217   7.051 -0.0590  0.0199  0.4455
  568MOL0     C76611   4.036   1.119   6.962  0.4634 -0.3113 -0.4111
  568MOL0     C76612   3.905   1.143   6.893 -0.2959 -0.2360  0.2940
  568MOL0     H76613   3.855   0.799   6.714 -2.6136 -0.4234  0.4724
  568MOL0     H76614   3.715   0.572   6.643 -0.5943 -2.3495  0.5404
  568MOL0     H76615   3.727   0.175   6.645  3.9866  1.9414 -2.4214
  568MOL0     H76616   3.886   0.236   6.690  0.1396  2.0324 -0.6398
  568MOL0     H76617   3.853   0.162   6.923 -1.8534 -2.0350  2.1073
  568MOL0     H76618   3.799   0.035   6.831 -0.5743 -0.7047  2.1503
  568MOL0     H76619   3.569   0.106   6.841 -1.7015  0.4293  0.1960
  568MOL0     H76620   3.604   0.252   6.930  1.1435  0.0197  1.2287
  568MOL0     H76621   3.657  -0.036   7.009  0.9736 -0.1417 -1.0976
  568MOL0     H76622   3.716   0.100   7.100 -0.6860 -1.1892  1.5284
  568MOL0     H76623   3.497   0.200   7.123  3.1658  1.0421  1.3790
  568MOL0     H76624   3.435   0.071   7.033  1.2999  0.2050 -1.4681
  568MOL0     H76625   3.521  -0.108   7.180  0.3241  1.1734 -3.0669
  568MOL0     H76626   3.578   0.000   7.304 -0.4555 -2.4148  0.3259
  568MOL0     H76627   3.372   0.134   7.290  3.0196 -0.2584  0.9970
  568MOL0     H76628   3.362  -0.017   7.387  0.3687 -2.2273 -0.9198
  568MOL0     H76629   3.154   0.033   7.285 -3.3062 -1.2620 -2.0046
  568MOL0     H76630   3.236   0.044   7.128  4.3980 -0.2248 -0.4795
  568MOL0     H76631   3.055  -0.191   7.366 -1.4949 -0.8070 -1.4520
  568MOL0     H76632   3.157  -0.470   7.446 -0.9632 -1.9931  0.1621
  568MOL0     H76633   2.995  -0.444   7.366 -0.4077 -1.4041 -0.0816
  568MOL0     H76634   3.060  -0.583   7.173  2.5283 -4.4210 -0.9536
  568MOL0     H76635   3.220  -0.593   7.237  1.0784  1.9305 -0.2492
  568MOL0     H76636   2.961  -0.684   7.372  0.1205 -0.3691  2.2175
  568MOL0     H76637   3.118  -0.711   7.458 -1.2268  0.0165 -0.0372
  568MOL0     H76638   3.078  -0.923   7.325 -2.7675 -0.8778 -1.2757
  568MOL0     H76639   3.186  -0.826   7.235  1.1519  2.1283  1.5858
  568MOL0     H76640   3.047  -1.083   7.106 -2.9037  0.5897 -4.6686
  568MOL0     H76641   2.896  -1.282   7.190  0.2589 -0.5571  0.5832
  568MOL0     H76642   2.519  -1.488   7.437 -1.9727  2.8983 -2.2919
  568MOL0     H76643   2.423  -1.710   7.442  0.8788 -0.7390 -1.2755
  568MOL0     H76644   2.489  -2.081   7.201 -0.9226 -0.9313  1.8580
  568MOL0     H76645   2.632  -1.978   7.209 -0.1009 -1.0112 -1.1680
  568MOL0     H76646   2.635  -2.152   7.384 -0.0275 -0.1040  0.8656
  568MOL0     H76647   2.652  -1.991   7.431 -1.4171 -0.8218  2.8876
  568MOL0     H76648   2.504  -2.087   7.604 -3.5223  2.8499  1.7809
  568MOL0     H76649   2.397  -1.996   7.502  0.5864  1.1170  2.1086
  568MOL0     H76650   2.458  -2.294   7.493  0.2653 -0.1966  1.0469
  568MOL0     H76651   2.341  -2.218   7.381 -0.7713  2.6249 -0.2814
  568MOL0     H76652   2.183  -2.163   7.556  0.2924  0.5259  0.7158
  568MOL0     H76653   2.296  -2.240   7.675 -2.8058  3.0996  1.1885
  568MOL0     H76654   2.124  -2.382   7.645  3.6221 -3.5942  1.8056
  568MOL0     H76655   2.121  -2.360   7.460 -0.0399 -0.8700 -0.2361
  568MOL0     H76656   2.356  -2.474   7.607 -1.5514  1.9208  1.0654
  568MOL0     H76657   2.312  -2.501   7.435  1.7857  1.9896  0.5888
  568MOL0     H76658   2.175  -2.613   7.681  1.0103 -3.3106  1.1123
  568MOL0     H76659   2.127  -2.659   7.510  0.0914  1.0625 -0.2900
  568MOL0     H76660   2.601  -1.798   7.057 -5.2116  0.0816  0.0024
  568MOL0     H76661   2.727  -1.567   7.065 -0.0787 -0.4480 -0.2677
  568MOL0     H76662   2.580  -1.011   7.265  0.4019  0.9460 -0.1704
  568MOL0     H76663   2.737  -0.827   7.256  1.6566 -0.0701 -0.4884
  568MOL0     H76664   3.935   0.348   6.915  1.1015  1.3397  2.4044
  568MOL0     H76665   4.081   0.541   6.978 -1.3004 -0.8385  2.4268
  568MOL0     H76666   4.253   0.872   7.036 -0.2409 -0.7482 -1.9673
  568MOL0     H76667   4.339   1.060   7.192  0.4610 -0.0489 -0.8807
  568MOL0     H76668   4.393   1.228   7.316 -0.7473 -0.8923 -2.5504
  568MOL0     H76669   4.247   1.174   7.400 -3.8202  2.7403  0.3387
  568MOL0     H76670   4.340   1.319   7.546 -1.5977 -1.1209 -0.4653
  568MOL0     H76671   4.187   1.378   7.483 -2.4379 -2.1557 -3.8728
  568MOL0     H76672   4.324   1.521   7.318  0.8298  0.8913 -0.2059
  568MOL0     H76673   4.473   1.464   7.403  0.0098  0.3717  0.2468
  568MOL0     H76674   4.269   1.636   7.529 -0.9496 -4.0590  0.2025
  568MOL0     H76675   4.400   1.578   7.617 -3.0793 -2.2945 -0.1942
  568MOL0     H76676   4.521   1.937   7.404 -2.7269  0.4500 -1.5242
  568MOL0     H76677   4.037   1.314   7.058 -1.8442 -0.7680 -0.4196
  568MOL0     H76678   3.829   1.174   6.965  0.5105 -0.7161  1.3913
  568MOL0     H76679   3.913   1.218   6.814 -1.2979 -1.7683 -1.3601
  568MOL0     H76680   3.872   1.056   6.835 -2.3126 -1.5362  3.1661
  569MOL0     O76681   4.210   4.366   3.599 -1.1432 -0.1300  0.4074
  569MOL0     C76682   4.210   4.238   3.586 -0.0102  0.4578 -0.3810
  569MOL0     O76683   4.221   4.145   3.682  0.4889 -0.6960 -0.0956
  569MOL0     C76684   4.246   4.182   3.810 -0.7881  0.0264  0.4624
  569MOL0     C76685   4.153   4.159   3.905  0.2428 -0.0961 -1.0151
  569MOL0     C76686   4.178   4.220   4.028  0.2433 -0.7454 -0.3876
  569MOL0     C76687   4.290   4.294   4.065 -0.6269  0.9266  0.0963
  569MOL0     O76688   4.298   4.350   4.196 -0.4232 -1.0436 -0.5650
  569MOL0     C76689   4.178   4.361   4.286  1.1530  0.9583  0.1357
  569MOL0     C76690   4.226   4.423   4.414 -0.0633  1.1618  0.3631
  569MOL0     C76691   4.111   4.434   4.513 -0.3693 -0.7301 -0.1493
  569MOL0     C76692   4.149   4.442   4.656  0.0637 -0.3094 -0.1076
  569MOL0     C76693   4.036   4.520   4.738 -0.1990  0.6234 -0.3101
  569MOL0     C76694   4.074   4.536   4.883  1.2012  0.2724 -0.5392
  569MOL0     C76695   4.174   4.650   4.907  0.3662 -1.1301 -1.1761
  569MOL0     C76696   4.220   4.661   5.052  0.1788 -0.0011 -0.2437
  569MOL0     N76697   4.314   4.762   5.085 -0.2389 -0.2900  0.9223
  569MOL0     C76698   4.303   4.899   5.070  0.2331  0.3782  0.8265
  569MOL0     C76699   4.413   4.951   5.125  0.0149 -0.5111 -0.1793
  569MOL0     C76700   4.454   5.093   5.152 -0.1183  0.7467  0.0926
  569MOL0     C76701   4.352   5.176   5.220  0.4152 -0.1022 -1.2028
  569MOL0     C76702   4.329   5.167   5.371  0.0050 -0.5266  0.0945
  569MOL0     C76703   4.318   5.014   5.413  0.5216  0.7596 -0.0191
  569MOL0     O76704   4.299   4.984   5.557 -0.2271 -0.1829 -0.8915
  569MOL0     C76705   4.285   4.859   5.598  0.0926 -0.0944  0.6241
  569MOL0     C76706   4.199   4.850   5.699  0.1297  0.4978 -0.4974
  569MOL0     C76707   4.157   4.725   5.747  0.7537 -0.9650  0.8659
  569MOL0     C76708   4.204   4.612   5.689  0.2011 -0.2002  0.2841
  569MOL0     C76709   4.167   4.481   5.742 -0.5810  0.8046  0.7276
  569MOL0     O76710   4.055   4.467   5.825 -0.2626  0.2781 -0.1033
  569MOL0     C76711   4.068   4.358   5.909  0.0759 -0.4846  1.0381
  569MOL0     C76712   4.137   4.377   6.024  0.3759  0.5058  0.2405
  569MOL0     C76713   4.129   4.281   6.126 -0.1731  0.4265  0.4361
  569MOL0     C76714   4.061   4.162   6.106 -0.0683 -0.0090  0.1174
  569MOL0     O76715   4.055   4.077   6.215 -0.0532  0.3042 -0.8561
  569MOL0     C76716   4.046   3.932   6.186  0.1104  0.3280 -0.0872
  569MOL0     C76717   4.162   3.859   6.258 -0.4380 -0.1730  0.3612
  569MOL0     C76718   4.174   3.711   6.211  0.1406 -0.2978  0.2530
  569MOL0     C76719   4.315   3.652   6.244  0.3491  0.1085 -0.4223
  569MOL0     C76720   4.336   3.649   6.405  0.9962  0.2541  0.4686
  569MOL0     C76721   4.428   3.554   6.459 -0.7284 -0.4699 -0.0004
  569MOL0     C76722   4.568   3.571   6.406 -0.6134  0.2542 -0.2284
  569MOL0     C76723   4.651   3.451   6.460 -0.6824  0.8462  0.6516
  569MOL0    Cl76724   4.828   3.443   6.414 -0.0851  0.0443  0.0100
  569MOL0     C76725   3.986   4.148   5.990 -0.2434 -0.1694 -0.2919
  569MOL0     C76726   3.977   4.251   5.899 -1.5187  0.2510  0.0458
  569MOL0     O76727   4.236   4.384   5.699  0.7127 -0.4681 -0.4148
  569MOL0     C76728   4.276   4.626   5.570 -0.2310  0.4457  0.2431
  569MOL0     C76729   4.334   4.744   5.533  0.5905  0.0548  0.4025
  569MOL0     N76730   4.492   4.843   5.181  0.1682  0.1487  0.6152
  569MOL0     N76731   4.421   4.733   5.167 -0.2150 -0.2949  0.0690
  569MOL0     C76732   4.384   4.325   3.969  0.0584  0.4178  0.1742
  569MOL0     C76733   4.361   4.268   3.833 -0.3644 -0.6559 -0.8094
  569MOL0     C76734   4.210   4.195   3.445  1.5219  0.3340 -0.2048
  569MOL0     C76735   4.326   4.148   3.394  0.0807  0.7176 -0.1942
  569MOL0     C76736   4.325   4.104   3.259 -0.1597 -0.9487 -0.9122
  569MOL0     C76737   4.212   4.124   3.179 -0.1767  0.2677  0.5710
  569MOL0     O76738   4.214   4.078   3.047  0.1967  0.0716 -0.0079
  569MOL0     C76739   4.146   4.151   2.941  0.4080  0.6170 -0.2662
  569MOL0     C76740   4.145   4.075   2.812 -0.5019  0.0804  0.5594
  569MOL0     C76741   4.105   4.142   2.681 -0.0997  0.9915 -0.0763
  569MOL0     C76742   4.099   4.045   2.571  0.3829 -0.5823 -0.3647
  569MOL0     C76743   4.101   4.106   2.441 -0.0832  1.0914  0.5247
  569MOL0     C76744   4.117   4.173   2.334 -0.1496  1.2912  0.1312
  569MOL0     C76745   4.090   4.159   3.242  0.3878 -0.2163  0.7363
  569MOL0     C76746   4.084   4.199   3.369 -0.3793 -0.4166 -0.5524
  569MOL0     C76747   3.954   4.244   3.434 -0.6069  0.3487  0.7664
  569MOL0     H76748   4.066   4.098   3.884 -0.0436 -0.5561  1.2898
  569MOL0     H76749   4.103   4.221   4.106 -0.7731 -0.9244 -1.3319
  569MOL0     H76750   4.105   4.430   4.242 -1.3323 -0.5161  1.6874
  569MOL0     H76751   4.133   4.262   4.295 -1.0717  1.7959 -0.8031
  569MOL0     H76752   4.269   4.524   4.407 -1.2875  1.5707 -2.1121
  569MOL0     H76753   4.294   4.346   4.452 -3.0189 -1.7287  0.1665
  569MOL0     H76754   4.041   4.353   4.492  1.0892 -2.6287  1.8943
  569MOL0     H76755   4.075   4.530   4.475 -0.0376 -0.9732 -1.1307
  569MOL0     H76756   4.150   4.341   4.698 -1.3329 -0.6905 -0.9328
  569MOL0     H76757   4.243   4.495   4.677  0.1736 -0.6269  0.2068
  569MOL0     H76758   4.012   4.611   4.682 -0.6077 -1.0645 -3.1197
  569MOL0     H76759   3.947   4.456   4.734  0.3659 -0.2393  0.4475
  569MOL0     H76760   3.983   4.553   4.942  0.8083  0.1593 -1.1088
  569MOL0     H76761   4.105   4.439   4.923 -2.0093  0.0028  1.7640
  569MOL0     H76762   4.108   4.737   4.900 -0.3795 -1.5826 -0.0265
  569MOL0     H76763   4.252   4.648   4.830  2.3830  2.6954  0.4437
  569MOL0     H76764   4.139   4.653   5.124 -1.1929 -1.0611 -1.8319
  569MOL0     H76765   4.273   4.566   5.070 -0.3345  0.0647  1.8966
  569MOL0     H76766   4.229   4.955   5.013  1.1827  0.1303 -0.6916
  569MOL0     H76767   4.544   5.087   5.215  0.7978  0.1853 -1.2418
  569MOL0     H76768   4.477   5.151   5.062  0.7235 -0.3027 -0.3767
  569MOL0     H76769   4.366   5.280   5.190  2.1221 -0.5244 -1.9718
  569MOL0     H76770   4.254   5.148   5.180  1.1039 -1.5839 -1.9378
  569MOL0     H76771   4.244   5.228   5.403 -0.9491 -0.4041 -2.4650
  569MOL0     H76772   4.424   5.215   5.399 -0.8014  1.0863  0.1393
  569MOL0     H76773   4.409   4.966   5.377  0.8164  2.6610 -2.0280
  569MOL0     H76774   4.222   4.972   5.381 -2.6698  1.5864  6.6189
  569MOL0     H76775   4.139   4.925   5.749 -0.0837 -1.2792  2.0687
  569MOL0     H76776   4.088   4.742   5.830 -0.6852 -0.0355 -0.4627
  569MOL0     H76777   4.195   4.468   6.038  3.4585 -1.2109 -0.3954
  569MOL0     H76778   4.175   4.301   6.222  0.2600  0.3319  0.2513
  569MOL0     H76779   3.944   3.905   6.215  0.9152 -3.3989 -0.2053
  569MOL0     H76780   4.063   3.904   6.081 -1.1345 -4.1002  0.7123
  569MOL0     H76781   4.255   3.904   6.221 -1.7777  0.9087 -1.9451
  569MOL0     H76782   4.156   3.869   6.366  0.1617  2.1422  0.2409
  569MOL0     H76783   4.099   3.656   6.270 -1.2539  1.1692 -0.0746
  569MOL0     H76784   4.166   3.718   6.102  3.9144  3.0484 -0.0443
  569MOL0     H76785   4.395   3.713   6.202 -0.1968 -0.2756 -2.1041
  569MOL0     H76786   4.328   3.552   6.202  2.9914  0.4547 -0.5680
  569MOL0     H76787   4.241   3.627   6.455  0.1036 -0.1557 -1.3137
  569MOL0     H76788   4.368   3.750   6.433 -3.3018  1.8708  0.4310
  569MOL0     H76789   4.439   3.561   6.568  2.5388 -1.9143 -0.1175
  569MOL0     H76790   4.396   3.450   6.450 -0.9382 -0.5805  1.7609
  569MOL0     H76791   4.618   3.656   6.453  2.0723 -1.8676  1.0304
  569MOL0     H76792   4.582   3.574   6.298  1.7597  0.0738  0.0099
  569MOL0     H76793   4.652   3.444   6.569  3.3868 -0.1969  0.7102
  569MOL0     H76794   4.605   3.364   6.412  2.8232  0.4963 -2.5068
  569MOL0     H76795   3.917   4.066   5.972 -1.4857  0.5145  1.1022
  569MOL0     H76796   3.907   4.237   5.817 -1.8679  1.4185  0.1270
  569MOL0     H76797   4.322   4.542   5.519 -0.2890  2.5927 -3.7244
  569MOL0     H76798   4.404   4.754   5.451 -0.1364 -0.3378 -0.2792
  569MOL0     H76799   4.467   4.392   3.990  2.0445 -1.7934 -0.2550
  569MOL0     H76800   4.428   4.297   3.753  1.3448 -3.2191 -0.4185
  569MOL0     H76801   4.423   4.137   3.441  0.0362  2.5411  0.3927
  569MOL0     H76802   4.416   4.056   3.223 -2.4172 -4.7475 -2.2410
  569MOL0     H76803   4.188   4.251   2.927 -1.5951  1.1803 -3.0501
  569MOL0     H76804   4.046   4.163   2.982  0.3240 -0.7931 -0.0081
  569MOL0     H76805   4.072   3.994   2.823 -3.4489  2.7656  2.6502
  569MOL0     H76806   4.247   4.040   2.796  0.2207  1.8305  1.1891
  569MOL0     H76807   4.172   4.227   2.670  2.2416 -0.8914 -1.4513
  569MOL0     H76808   4.004   4.182   2.695 -0.0849  1.2432 -0.6358
  569MOL0     H76809   4.170   3.962   2.584 -0.7583 -2.2666 -3.6730
  569MOL0     H76810   3.994   4.013   2.568 -0.0178  0.1426  2.9444
  569MOL0     H76811   4.143   4.230   2.248 -0.2809  2.1717  0.6653
  569MOL0     H76812   3.990   4.140   3.204 -0.6996  2.8960  1.7241
  569MOL0     H76813   3.933   4.215   3.537  1.2732  0.8403  1.3269
  569MOL0     H76814   3.954   4.354   3.438 -2.9422  0.4364  0.1103
  569MOL0     H76815   3.878   4.216   3.360  1.1556 -1.9383 -0.2934
  570MOL0     O76816   4.555   5.469   9.937  0.5478 -0.1336  0.2198
  570MOL0     C76817   4.529   5.575   9.891  0.0886 -0.8490 -1.2724
  570MOL0     O76818   4.418   5.612   9.823  0.2801  0.1415 -0.9614
  570MOL0     C76819   4.313   5.523   9.790  0.9606 -0.2316  0.4791
  570MOL0     C76820   4.275   5.521   9.656 -0.1130  0.2810  0.2343
  570MOL0     C76821   4.172   5.433   9.618  0.4956 -0.5319 -0.0947
  570MOL0     C76822   4.109   5.343   9.706  0.7635 -0.8464 -0.6870
  570MOL0     O76823   4.010   5.261   9.661 -0.0614 -0.0493  0.2617
  570MOL0     C76824   4.045   5.119   9.655 -1.2093 -0.0437  0.8555
  570MOL0     C76825   3.918   5.032   9.613 -0.6506  0.8880 -0.6114
  570MOL0     C76826   3.854   5.098   9.486  0.5289  0.5016 -0.3047
  570MOL0     C76827   3.926   5.064   9.357  0.3120  0.1165 -0.9641
  570MOL0     C76828   3.889   5.140   9.240  0.0690  0.0316 -0.0839
  570MOL0     C76829   3.990   5.112   9.126 -0.0555 -1.3905 -0.8570
  570MOL0     C76830   3.965   5.190   8.995  0.8568 -0.1521  0.7172
  570MOL0     C76831   3.824   5.163   8.936  0.1724 -0.9163  0.4618
  570MOL0     N76832   3.830   5.124   8.802  0.5925 -0.6716  0.6613
  570MOL0     C76833   3.885   5.194   8.698  0.0605  0.4570 -1.1520
  570MOL0     C76834   3.908   5.105   8.600 -0.6216  1.2065  0.2709
  570MOL0     C76835   3.962   5.127   8.457  0.4483 -0.2046  0.0332
  570MOL0     C76836   4.094   5.058   8.430 -0.5181 -0.4065  1.5119
  570MOL0     C76837   4.167   5.103   8.298 -0.1250 -0.8616 -0.7547
  570MOL0     C76838   4.318   5.119   8.305 -0.0310  0.5639 -0.1088
  570MOL0     O76839   4.386   5.021   8.392 -0.0315  0.0471 -0.5480
  570MOL0     C76840   4.520   5.036   8.381 -0.4926 -0.3604  1.1869
  570MOL0     C76841   4.596   5.152   8.394  0.5456 -0.5272 -0.5900
  570MOL0     C76842   4.732   5.169   8.350  0.4829  0.9149  0.3517
  570MOL0     C76843   4.799   5.072   8.269  0.0625  1.3869 -0.3522
  570MOL0     C76844   4.932   5.089   8.220 -0.0028 -0.0004  0.5537
  570MOL0     O76845   4.982   5.216   8.227 -0.8755 -0.6218 -0.2224
  570MOL0     C76846   5.111   5.242   8.200 -0.4027  0.2521 -0.6770
  570MOL0     C76847   5.202   5.263   8.295  0.4620 -0.2548  0.1542
  570MOL0     C76848   5.329   5.295   8.257 -0.0838  0.0294  0.6485
  570MOL0     C76849   5.375   5.298   8.124  0.8005 -0.1614  0.3463
  570MOL0     O76850   5.503   5.336   8.111 -0.4977  0.3557  0.8259
  570MOL0     C76851   5.560   5.399   7.993 -0.0371 -1.1668  0.1651
  570MOL0     C76852   5.502   5.546   7.992  0.1054  0.4059 -1.0173
  570MOL0     C76853   5.578   5.635   7.880  0.4458 -0.9492 -0.5890
  570MOL0     C76854   5.722   5.678   7.924 -0.2496 -1.1518  0.2727
  570MOL0     C76855   5.830   5.695   7.805  0.7164 -0.9222 -0.2436
  570MOL0     C76856   5.973   5.693   7.854 -0.2364 -0.7216 -0.4662
  570MOL0     C76857   6.071   5.650   7.738  0.1429 -1.8221 -0.0565
  570MOL0     C76858   6.161   5.540   7.786  0.1238  1.3860 -0.0613
  570MOL0    Cl76859   6.291   5.496   7.662 -0.6299  0.2577  0.1780
  570MOL0     C76860   5.276   5.266   8.031 -0.8578  0.9407  0.0275
  570MOL0     C76861   5.150   5.224   8.066 -0.2346 -0.7392  0.3037
  570MOL0     O76862   4.994   4.993   8.180  0.2196 -0.0431 -1.1357
  570MOL0     C76863   4.720   4.948   8.258  0.2899  0.2610  0.3247
  570MOL0     C76864   4.585   4.936   8.306 -0.4913  1.2399 -0.3846
  570MOL0     N76865   3.883   4.976   8.647  0.0577 -0.7264  0.7519
  570MOL0     N76866   3.829   4.996   8.766  0.0800  1.0676  0.0697
  570MOL0     C76867   4.144   5.343   9.840  0.1094  0.5197  0.2221
  570MOL0     C76868   4.249   5.433   9.873 -0.6929 -0.0036 -1.1600
  570MOL0     C76869   4.627   5.681   9.904 -0.4587 -0.0228  0.4609
  570MOL0     C76870   4.635   5.783   9.805  0.0784  0.6185  0.1906
  570MOL0     C76871   4.733   5.880   9.807  0.1458  0.1141  0.2458
  570MOL0     C76872   4.828   5.875   9.901  0.1068 -0.4005  0.6546
  570MOL0     O76873   4.923   5.973   9.906 -0.2659 -0.2690  0.3414
  570MOL0     C76874   4.892   6.066   9.999  0.5883 -1.1631  0.6461
  570MOL0     C76875   4.974   6.202   9.960  0.4039  0.7461  0.6207
  570MOL0     C76876   4.908   6.326  10.022  0.4246  0.4754  1.2316
  570MOL0     C76877   5.015   6.423  10.076 -0.6564 -0.3118 -0.3082
  570MOL0     C76878   5.093   6.362  10.183 -0.2291 -0.2758  0.5205
  570MOL0     C76879   5.152   6.320  10.278  0.3772  0.6781 -0.2571
  570MOL0     C76880   4.843   5.762   9.979  0.2789 -0.3596  0.3214
  570MOL0     C76881   4.739   5.670   9.985 -0.0358 -0.0481 -0.4289
  570MOL0     C76882   4.758   5.564  10.091 -0.4128  0.2809 -0.2311
  570MOL0     H76883   4.316   5.581   9.575 -2.5476  0.2483 -1.1150
  570MOL0     H76884   4.142   5.441   9.514 -0.3677 -0.5334  0.1547
  570MOL0     H76885   4.130   5.104   9.588  0.5905  0.0386  3.0228
  570MOL0     H76886   4.079   5.087   9.754 -0.0214 -3.9059 -0.6096
  570MOL0     H76887   3.842   5.033   9.691 -0.9821  2.2608 -0.9123
  570MOL0     H76888   3.934   4.924   9.611 -2.3635  0.4801  2.1083
  570MOL0     H76889   3.841   5.205   9.501  1.5831  0.7045 -0.7326
  570MOL0     H76890   3.754   5.061   9.464  0.1004  2.6437 -2.3389
  570MOL0     H76891   4.034   5.073   9.368  0.4965 -1.2574 -1.4201
  570MOL0     H76892   3.915   4.956   9.345  1.5565 -0.1387 -0.0286
  570MOL0     H76893   3.783   5.124   9.217 -0.2931 -0.2792  1.6901
  570MOL0     H76894   3.894   5.241   9.281 -1.0186 -0.6159  1.7733
  570MOL0     H76895   4.094   5.132   9.153 -0.4548  1.3051 -1.0720
  570MOL0     H76896   3.991   5.007   9.096  0.6397 -0.7803 -3.2428
  570MOL0     H76897   4.045   5.165   8.926  1.1702 -0.0366  1.0377
  570MOL0     H76898   3.984   5.297   9.001 -1.0489  0.2510  0.1969
  570MOL0     H76899   3.767   5.096   9.001 -0.6420  1.8463  2.8018
  570MOL0     H76900   3.771   5.259   8.939  1.8449  0.0540  0.6395
  570MOL0     H76901   3.903   5.301   8.702  0.1622  0.4420 -1.2166
  570MOL0     H76902   3.882   5.089   8.393 -2.7039 -1.4812  4.2798
  570MOL0     H76903   3.963   5.237   8.449 -0.5606  0.4925  5.4283
  570MOL0     H76904   4.167   5.093   8.504  0.7167 -1.9510  1.0722
  570MOL0     H76905   4.061   4.954   8.430  0.5487 -0.7793  0.1135
  570MOL0     H76906   4.115   5.191   8.260 -0.2158 -0.9068 -0.7344
  570MOL0     H76907   4.150   5.019   8.229 -0.5079 -1.1111 -0.3573
  570MOL0     H76908   4.344   5.220   8.337 -0.8897  0.9095 -0.4845
  570MOL0     H76909   4.359   5.107   8.205 -2.6147 -0.4045 -1.1210
  570MOL0     H76910   4.541   5.227   8.450  1.2168 -0.1305 -0.4444
  570MOL0     H76911   4.786   5.250   8.398  1.7883  0.1428  0.2436
  570MOL0     H76912   5.153   5.258   8.392  2.4950 -1.7738  1.1731
  570MOL0     H76913   5.405   5.320   8.330 -0.9147 -0.8260  1.8286
  570MOL0     H76914   5.664   5.426   8.015 -0.7669 -0.1587  2.6515
  570MOL0     H76915   5.542   5.355   7.894 -2.6873  1.0820 -0.4623
  570MOL0     H76916   5.395   5.538   7.968  0.1837  0.2322 -1.3144
  570MOL0     H76917   5.503   5.580   8.096 -3.2818 -0.4303 -0.6046
  570MOL0     H76918   5.581   5.585   7.783  1.3593  3.3605 -3.0154
  570MOL0     H76919   5.518   5.724   7.862  1.0078 -0.9248 -2.5809
  570MOL0     H76920   5.770   5.613   7.997  1.2659  1.0954  1.4009
  570MOL0     H76921   5.708   5.773   7.976 -1.0413 -1.6613  1.0065
  570MOL0     H76922   5.815   5.781   7.739 -1.0119 -0.2033  1.0083
  570MOL0     H76923   5.815   5.609   7.739 -3.6797 -3.2448  3.2915
  570MOL0     H76924   5.992   5.787   7.907 -1.9546 -1.9133  2.5114
  570MOL0     H76925   5.973   5.617   7.934 -1.4889  0.5470  0.7990
  570MOL0     H76926   6.131   5.734   7.702 -0.8019 -1.1631 -0.1285
  570MOL0     H76927   6.015   5.622   7.648  1.6922  0.5086 -1.8640
  570MOL0     H76928   6.196   5.564   7.886  1.4296 -0.2492 -0.0823
  570MOL0     H76929   6.105   5.446   7.799  0.9677  0.8237 -0.4295
  570MOL0     H76930   5.311   5.257   7.929 -0.4866  0.8151  0.1660
  570MOL0     H76931   5.090   5.186   7.984  0.2585 -1.5788  0.3164
  570MOL0     H76932   4.764   4.868   8.199 -1.4301  0.7546 -1.7517
  570MOL0     H76933   4.523   4.850   8.281  0.7488  0.9840 -2.8112
  570MOL0     H76934   4.116   5.277   9.923  1.1947 -1.8908 -1.2105
  570MOL0     H76935   4.265   5.444   9.980 -6.5114 -1.3028  0.2346
  570MOL0     H76936   4.580   5.786   9.712 -0.1250 -2.1448  0.1174
  570MOL0     H76937   4.729   5.946   9.721 -3.5506  0.0294  0.2084
  570MOL0     H76938   4.932   6.024  10.092  4.1418 -0.6702 -0.4980
  570MOL0     H76939   4.785   6.076  10.015  0.6253  1.0938 -0.1148
  570MOL0     H76940   4.977   6.205   9.851 -0.9439 -1.1483  0.4868
  570MOL0     H76941   5.079   6.183   9.986  1.2787  1.3452 -2.1156
  570MOL0     H76942   4.844   6.306  10.108 -2.3580  2.6735 -0.1502
  570MOL0     H76943   4.852   6.377   9.943 -2.3113 -1.5175  1.7513
  570MOL0     H76944   5.095   6.454  10.008  1.2307 -0.7294  1.5959
  570MOL0     H76945   4.963   6.508  10.121 -1.6630 -1.4350  0.7099
  570MOL0     H76946   5.204   6.294  10.368 -4.0875  1.3864  2.8736
  570MOL0     H76947   4.931   5.744  10.040 -0.2252  3.2858  2.4364
  570MOL0     H76948   4.668   5.545  10.151 -2.3515 -0.4351 -3.1123
  570MOL0     H76949   4.787   5.475  10.034 -0.4343  1.3839 -2.0411
  570MOL0     H76950   4.832   5.598  10.163 -1.0774  0.3967  0.4105
  571MOL0     O76951   8.713   3.559   5.827  0.5739 -0.1423  0.4580
  571MOL0     C76952   8.622   3.580   5.746  0.1269  0.8402  0.2158
  571MOL0     O76953   8.526   3.478   5.723 -0.3523 -0.7395  0.3089
  571MOL0     C76954   8.549   3.397   5.622  0.2766  0.0992  1.1887
  571MOL0     C76955   8.499   3.269   5.634  1.0594 -0.5430  1.0460
  571MOL0     C76956   8.522   3.169   5.527  0.1520 -0.6060  0.4125
  571MOL0     C76957   8.581   3.208   5.409 -0.2294 -0.1827  0.0043
  571MOL0     O76958   8.614   3.130   5.295  0.5067 -0.3876 -0.4058
  571MOL0     C76959   8.580   2.992   5.269 -0.8379 -0.0871  0.9943
  571MOL0     C76960   8.436   2.988   5.234  0.2993  0.4602  0.0902
  571MOL0     C76961   8.412   3.014   5.078 -1.0447  0.5407 -0.0547
  571MOL0     C76962   8.462   2.892   4.995 -0.0300 -0.4706  1.3827
  571MOL0     C76963   8.402   2.883   4.850  0.9031  0.0490  0.0028
  571MOL0     C76964   8.441   2.753   4.780  1.1365 -0.4142 -0.5342
  571MOL0     C76965   8.365   2.741   4.646  0.3334  0.3829  0.0956
  571MOL0     C76966   8.367   2.600   4.589  0.1840  0.1513 -0.2121
  571MOL0     N76967   8.364   2.600   4.441 -0.1049  0.6260  0.7225
  571MOL0     C76968   8.261   2.643   4.363 -0.0068 -0.5978 -0.3680
  571MOL0     C76969   8.323   2.667   4.245 -0.3138  0.3264 -0.7184
  571MOL0     C76970   8.266   2.725   4.122 -0.0983 -0.3270  0.7209
  571MOL0     C76971   8.352   2.845   4.079  0.2680 -0.2267  0.9253
  571MOL0     C76972   8.309   2.906   3.943  0.3027  0.2049  0.3465
  571MOL0     C76973   8.166   2.948   3.952  0.4351 -0.4464  0.8776
  571MOL0     O76974   8.133   3.033   4.059 -0.1763  0.1523 -0.2212
  571MOL0     C76975   8.005   3.028   4.093  0.2629  0.0755 -0.1971
  571MOL0     C76976   7.966   3.038   4.226 -0.0575 -0.7099  0.6638
  571MOL0     C76977   7.836   3.025   4.267 -0.6492 -0.9685  0.7483
  571MOL0     C76978   7.732   3.015   4.179 -1.1673  0.1587 -0.3180
  571MOL0     C76979   7.593   3.002   4.221 -0.4577  0.3280  1.2007
  571MOL0     O76980   7.573   3.007   4.356 -0.3623 -0.4277 -0.2751
  571MOL0     C76981   7.447   3.012   4.407 -0.3634  0.4087 -1.1844
  571MOL0     C76982   7.384   2.890   4.422  0.2695  0.4274 -0.1085
  571MOL0     C76983   7.256   2.897   4.461 -0.2263 -0.6185  0.0072
  571MOL0     C76984   7.189   3.008   4.500 -1.1767 -0.3991  0.5883
  571MOL0     O76985   7.052   2.997   4.534 -0.0346  0.1220  0.5481
  571MOL0     C76986   6.969   3.110   4.566 -0.2659  0.2028 -0.4903
  571MOL0     C76987   6.827   3.082   4.579  0.9505  0.1119 -0.4971
  571MOL0     C76988   6.795   3.049   4.719 -0.5068  0.5075 -0.0309
  571MOL0     C76989   6.649   2.994   4.738 -0.0989  0.0296  0.5165
  571MOL0     C76990   6.625   2.952   4.889  0.3265  0.2290  0.7402
  571MOL0     C76991   6.607   3.069   4.988 -0.3847  0.2290 -0.1910
  571MOL0     C76992   6.583   3.029   5.131  1.2988  0.5981  0.8688
  571MOL0     C76993   6.605   3.149   5.226 -0.2081 -0.3414  0.2100
  571MOL0    Cl76994   6.777   3.194   5.232  0.3941 -0.4620 -0.2278
  571MOL0     C76995   7.256   3.127   4.486 -0.1920 -0.2898  0.4496
  571MOL0     C76996   7.384   3.133   4.440 -0.0386 -0.4954  0.0456
  571MOL0     O76997   7.508   2.976   4.132 -0.2603  0.1902 -1.3926
  571MOL0     C76998   7.759   3.028   4.042 -0.6448  1.2550  0.7568
  571MOL0     C76999   7.894   3.025   4.000  0.5435  0.2049  0.2479
  571MOL0     N77000   8.451   2.632   4.248  0.0915  0.2632 -0.4133
  571MOL0     N77001   8.480   2.600   4.367 -0.7649  0.5871  0.3609
  571MOL0     C77002   8.616   3.342   5.391 -0.3181  0.1526 -0.2446
  571MOL0     C77003   8.609   3.430   5.492 -0.1426  0.4362 -0.7040
  571MOL0     C77004   8.604   3.711   5.686  0.1122  0.1775  0.7478
  571MOL0     C77005   8.482   3.743   5.631 -0.2082  0.9065 -0.0001
  571MOL0     C77006   8.454   3.865   5.578 -0.2452  0.4907  0.2942
  571MOL0     C77007   8.562   3.960   5.568  0.0679 -0.0280  0.5149
  571MOL0     O77008   8.540   4.080   5.518 -0.2360 -0.1318  0.5729
  571MOL0     C77009   8.453   4.164   5.591  0.0065 -0.3506  0.0912
  571MOL0     C77010   8.536   4.256   5.690 -0.4651 -0.3565  0.5615
  571MOL0     C77011   8.641   4.348   5.624 -1.0897  0.4672  0.1717
  571MOL0     C77012   8.745   4.429   5.713 -0.2973 -0.4035 -0.0931
  571MOL0     C77013   8.832   4.518   5.627  1.0239  0.8339 -0.1160
  571MOL0     C77014   8.896   4.581   5.539 -0.7416  0.6302 -0.3060
  571MOL0     C77015   8.685   3.925   5.610 -0.7669 -0.7267  0.5102
  571MOL0     C77016   8.711   3.803   5.672  1.2809  0.8268 -0.2986
  571MOL0     C77017   8.851   3.785   5.740 -0.2581  0.3985  0.8480
  571MOL0     H77018   8.455   3.241   5.729 -1.4400  1.1262  0.4738
  571MOL0     H77019   8.491   3.066   5.520 -0.0643 -0.6985  2.2687
  571MOL0     H77020   8.639   2.948   5.187  1.8297 -0.4808  2.9576
  571MOL0     H77021   8.611   2.943   5.362  3.1855 -0.5479 -0.3918
  571MOL0     H77022   8.389   3.065   5.295  0.4789  2.4873 -2.1816
  571MOL0     H77023   8.403   2.886   5.258  0.0985  0.4777 -0.1073
  571MOL0     H77024   8.466   3.103   5.044  1.2726 -1.0555 -0.8118
  571MOL0     H77025   8.305   3.028   5.062 -1.3820 -0.6704  0.9409
  571MOL0     H77026   8.571   2.893   4.990 -0.0732  0.2560 -0.1235
  571MOL0     H77027   8.439   2.798   5.044  1.6241 -3.0824 -2.3499
  571MOL0     H77028   8.294   2.895   4.851  0.4948 -2.8277 -1.2172
  571MOL0     H77029   8.439   2.961   4.781  1.4696 -2.0000 -2.1482
  571MOL0     H77030   8.546   2.760   4.751  1.5467  2.2069  1.2329
  571MOL0     H77031   8.428   2.673   4.853 -1.7707  1.3950  1.0984
  571MOL0     H77032   8.410   2.812   4.576  1.4762 -0.4122  0.0021
  571MOL0     H77033   8.258   2.764   4.647  0.4766  1.6034 -2.8710
  571MOL0     H77034   8.459   2.555   4.626 -0.2299 -1.5498 -1.1576
  571MOL0     H77035   8.289   2.534   4.628  1.4903  1.2308  4.9929
  571MOL0     H77036   8.156   2.656   4.388  0.0192 -1.3924  0.1873
  571MOL0     H77037   8.257   2.641   4.052  1.5271 -0.0182  0.0962
  571MOL0     H77038   8.172   2.770   4.156  0.3212 -0.0257  1.5066
  571MOL0     H77039   8.359   2.925   4.153  3.5114  0.3651  0.1218
  571MOL0     H77040   8.459   2.821   4.075  0.6825  0.1606  5.1635
  571MOL0     H77041   8.311   2.826   3.869 -2.6020 -1.7730  2.1852
  571MOL0     H77042   8.376   2.987   3.914  0.6390  0.4746  1.7953
  571MOL0     H77043   8.101   2.860   3.949 -1.9329  1.2056  0.8593
  571MOL0     H77044   8.145   2.996   3.855  1.2980  3.6757  2.5317
  571MOL0     H77045   8.053   3.040   4.290 -0.0699  1.0140  0.6798
  571MOL0     H77046   7.814   3.025   4.373  3.1086 -2.4725  1.6880
  571MOL0     H77047   7.436   2.800   4.390 -2.3894 -0.3375 -2.6388
  571MOL0     H77048   7.185   2.816   4.477 -1.0961  0.1657  0.2442
  571MOL0     H77049   7.005   3.165   4.653 -4.3520  3.3401 -0.4578
  571MOL0     H77050   6.990   3.180   4.484 -0.9462  1.7031  0.5691
  571MOL0     H77051   6.774   3.176   4.558 -2.6602 -1.6464  0.0401
  571MOL0     H77052   6.796   3.003   4.511 -2.4500  0.4929  0.4265
  571MOL0     H77053   6.866   2.970   4.745  0.6208  1.3320 -0.5461
  571MOL0     H77054   6.816   3.137   4.780 -3.0243 -0.2137  2.0804
  571MOL0     H77055   6.631   2.918   4.662 -2.5027  3.5016 -2.7574
  571MOL0     H77056   6.588   3.081   4.711  1.6259  0.3318 -3.0253
  571MOL0     H77057   6.699   2.880   4.926  2.2160 -0.0190 -3.0457
  571MOL0     H77058   6.530   2.898   4.879  0.3300  0.4800 -0.8196
  571MOL0     H77059   6.701   3.124   4.985 -0.3257  0.0850 -1.7177
  571MOL0     H77060   6.521   3.130   4.957 -1.5103 -1.7537 -1.1839
  571MOL0     H77061   6.636   2.935   5.145  0.8217  0.1723 -0.0379
  571MOL0     H77062   6.476   3.007   5.125  1.4986 -0.3697  0.6221
  571MOL0     H77063   6.541   3.231   5.194  1.4404  0.8387 -0.1927
  571MOL0     H77064   6.595   3.113   5.329  1.0026 -2.3373 -0.3136
  571MOL0     H77065   7.209   3.220   4.514  0.4749  0.6070 -1.2865
  571MOL0     H77066   7.441   3.225   4.433 -1.6494  0.5807  0.6420
  571MOL0     H77067   7.674   3.023   3.976  0.5720  1.3362 -0.8772
  571MOL0     H77068   7.930   3.036   3.899 -0.6559  2.6300  0.0088
  571MOL0     H77069   8.644   3.381   5.293 -0.2480 -3.3111 -1.7436
  571MOL0     H77070   8.631   3.534   5.469  1.9769  0.1541 -0.1113
  571MOL0     H77071   8.396   3.679   5.648  0.8276 -1.1127 -1.9518
  571MOL0     H77072   8.351   3.897   5.561  0.8954  2.5338 -3.9742
  571MOL0     H77073   8.389   4.098   5.651 -0.9491  2.3559  2.2915
  571MOL0     H77074   8.385   4.230   5.536  3.0401  3.6060  0.6332
  571MOL0     H77075   8.574   4.187   5.766  0.8267 -0.2760  0.0241
  571MOL0     H77076   8.469   4.321   5.747 -2.2395 -0.0661 -1.7364
  571MOL0     H77077   8.589   4.422   5.563 -0.2658 -0.3049 -1.5162
  571MOL0     H77078   8.693   4.277   5.560 -1.2521 -0.2407  0.8089
  571MOL0     H77079   8.681   4.479   5.786 -2.7164 -3.8215  0.4249
  571MOL0     H77080   8.796   4.354   5.774 -2.4702 -1.8577  0.0908
  571MOL0     H77081   8.960   4.639   5.476  2.3277  0.9483  2.8067
  571MOL0     H77082   8.765   3.998   5.604 -0.1224 -1.4967 -0.8505
  571MOL0     H77083   8.904   3.706   5.686  1.6765  1.1693  1.5043
  571MOL0     H77084   8.908   3.877   5.721  0.4613 -0.0719  0.6961
  571MOL0     H77085   8.842   3.774   5.849 -2.6669  0.7682  0.7279
  572MOL0     O77086   3.221   0.371   8.121 -0.0690  0.5346 -0.1771
  572MOL0     C77087   3.279   0.271   8.070  0.2574 -1.0026 -0.1540
  572MOL0     O77088   3.216   0.149   8.042 -0.5175  0.5501  1.0604
  572MOL0     C77089   3.085   0.141   8.075  0.2203  0.7161  0.3145
  572MOL0     C77090   2.999   0.093   7.975  0.0245 -1.3071  0.3236
  572MOL0     C77091   2.861   0.098   7.997  0.2439 -0.5194 -0.5212
  572MOL0     C77092   2.806   0.131   8.124  0.4641  0.7080  0.4800
  572MOL0     O77093   2.665   0.150   8.133  0.1506  0.3333 -0.4136
  572MOL0     C77094   2.608   0.164   8.268  0.5939  0.0888  0.5055
  572MOL0     C77095   2.597   0.309   8.313 -0.4491  0.9597  0.1567
  572MOL0     C77096   2.508   0.407   8.219  0.1068 -0.1300  0.6075
  572MOL0     C77097   2.367   0.416   8.251 -0.1399  0.4447 -0.9547
  572MOL0     C77098   2.285   0.452   8.121  1.1187 -0.3013  0.2113
  572MOL0     C77099   2.129   0.458   8.130  0.4693 -0.7633  0.3208
  572MOL0     C77100   2.060   0.487   8.000  0.6543 -0.5242  0.3243
  572MOL0     C77101   1.915   0.524   8.018 -0.5319 -0.5083 -0.7579
  572MOL0     N77102   1.843   0.568   7.891 -0.7501  0.1000 -0.1383
  572MOL0     C77103   1.880   0.674   7.808 -0.1992  0.8392  0.1483
  572MOL0     C77104   1.823   0.645   7.693  0.5753 -0.2709 -0.1933
  572MOL0     C77105   1.827   0.745   7.585  0.3812 -0.1031  0.3320
  572MOL0     C77106   1.694   0.821   7.563  0.0243  0.6282  0.5698
  572MOL0     C77107   1.726   0.923   7.448  0.5965  0.4247  0.8720
  572MOL0     C77108   1.602   0.987   7.402 -0.3316 -0.7348  0.7486
  572MOL0     O77109   1.628   1.077   7.291  0.0637  0.1198 -0.6967
  572MOL0     C77110   1.529   1.141   7.236  0.2376  0.3253  0.0550
  572MOL0     C77111   1.567   1.228   7.136 -0.2525  0.7479 -0.1420
  572MOL0     C77112   1.482   1.310   7.065  0.8731 -1.0461 -0.2028
  572MOL0     C77113   1.339   1.288   7.074  0.2782 -0.3994 -0.4257
  572MOL0     C77114   1.250   1.371   6.985  0.4804 -0.0354 -0.5572
  572MOL0     O77115   1.110   1.373   7.007 -0.2086  0.5826 -0.3770
  572MOL0     C77116   1.029   1.461   6.939  0.7082 -0.0788 -0.6710
  572MOL0     C77117   0.904   1.486   7.003 -0.0786  0.0716 -0.3338
  572MOL0     C77118   0.808   1.576   6.961 -0.5947  0.7122 -0.4311
  572MOL0     C77119   0.826   1.649   6.844  0.2668 -0.7581  0.1008
  572MOL0     O77120   0.751   1.757   6.818  0.0590 -0.0928  0.1479
  572MOL0     C77121   0.628   1.728   6.751  0.3303  0.1545 -0.4043
  572MOL0     C77122   0.642   1.726   6.596 -0.1675  0.3905  0.3445
  572MOL0     C77123   0.523   1.671   6.520 -0.4232  0.0618  0.2973
  572MOL0     C77124   0.530   1.727   6.372 -0.2105 -0.3744 -1.3369
  572MOL0     C77125   0.413   1.700   6.279 -0.3397 -0.1620 -0.5016
  572MOL0     C77126   0.401   1.554   6.229 -1.4815 -0.6564 -0.4754
  572MOL0     C77127   0.309   1.536   6.109 -0.8397 -0.0490 -0.0028
  572MOL0     C77128   0.224   1.410   6.130 -0.0175  0.2912  0.0814
  572MOL0    Cl77129   0.325   1.266   6.107  0.3798 -0.1544  0.1165
  572MOL0     C77130   0.950   1.624   6.780 -0.6665 -0.0254 -0.1443
  572MOL0     C77131   1.049   1.527   6.817  0.0214  0.2803  0.4074
  572MOL0     O77132   1.310   1.442   6.902  0.4194  0.3655 -0.1403
  572MOL0     C77133   1.293   1.190   7.172 -0.0818  0.7594  0.5358
  572MOL0     C77134   1.389   1.117   7.249  0.6465  0.0682 -0.4941
  572MOL0     N77135   1.744   0.535   7.700  0.1924 -0.2682  0.4609
  572MOL0     N77136   1.748   0.506   7.826  0.0259  0.5059  0.3658
  572MOL0     C77137   2.898   0.158   8.223  0.6503 -0.2950 -0.8712
  572MOL0     C77138   3.032   0.167   8.201  0.4195  0.3316 -0.3565
  572MOL0     C77139   3.415   0.297   8.027  0.2415  0.4653  0.5573
  572MOL0     C77140   3.477   0.182   7.968 -0.2819 -0.8254 -0.1686
  572MOL0     C77141   3.604   0.188   7.923 -0.3179  0.3512  0.5449
  572MOL0     C77142   3.675   0.303   7.929 -1.0978 -0.6959 -0.5616
  572MOL0     O77143   3.808   0.314   7.896 -0.9446  0.0640  0.3618
  572MOL0     C77144   3.884   0.193   7.852  0.4976 -0.2614 -0.4311
  572MOL0     C77145   4.025   0.223   7.838 -1.3571  0.7424 -0.4226
  572MOL0     C77146   4.064   0.316   7.723  0.0486 -0.0565  1.1286
  572MOL0     C77147   4.213   0.361   7.733  0.2797 -1.4140  0.1192
  572MOL0     C77148   4.303   0.258   7.756 -0.1528 -0.1414  0.5659
  572MOL0     C77149   4.395   0.190   7.787  0.2477 -0.8391  0.1664
  572MOL0     C77150   3.618   0.421   7.992  0.1320 -0.1012  0.3088
  572MOL0     C77151   3.488   0.418   8.024 -0.6590 -0.2037  0.1722
  572MOL0     C77152   3.422   0.545   8.067 -0.0463 -0.4540  0.4303
  572MOL0     H77153   3.055   0.074   7.884  4.5281 -1.2161  2.7581
  572MOL0     H77154   2.786   0.082   7.919 -0.3403 -0.8629  0.0937
  572MOL0     H77155   2.503   0.135   8.265  0.3396  0.4376  3.1131
  572MOL0     H77156   2.663   0.113   8.349 -0.0970 -2.3643 -0.4877
  572MOL0     H77157   2.694   0.353   8.338  0.1136 -1.6200  3.1160
  572MOL0     H77158   2.536   0.305   8.404 -3.3490 -1.3061 -1.7164
  572MOL0     H77159   2.514   0.359   8.121  0.3848 -1.7900  1.4176
  572MOL0     H77160   2.563   0.502   8.219 -0.1768  0.1136  3.5594
  572MOL0     H77161   2.341   0.316   8.288  1.9125  0.5502  1.0725
  572MOL0     H77162   2.356   0.485   8.335  0.6524  0.3412 -0.7580
  572MOL0     H77163   2.316   0.550   8.083 -4.5540  1.1494 -1.7525
  572MOL0     H77164   2.309   0.379   8.043 -1.3427 -2.7453  1.5519
  572MOL0     H77165   2.087   0.359   8.149 -1.7586  0.1634  0.5678
  572MOL0     H77166   2.095   0.520   8.214 -0.0679  1.7230 -1.5861
  572MOL0     H77167   2.071   0.414   7.919 -2.4196  0.3683 -1.0760
  572MOL0     H77168   2.101   0.584   7.969  1.2632 -0.9304 -0.1831
  572MOL0     H77169   1.865   0.442   8.071  0.3408 -1.6780 -1.6912
  572MOL0     H77170   1.905   0.613   8.081 -0.7209  0.4506 -2.0873
  572MOL0     H77171   1.952   0.755   7.817 -0.4599  1.5999 -3.3451
  572MOL0     H77172   1.906   0.817   7.609  0.4955 -0.6263  1.6588
  572MOL0     H77173   1.856   0.689   7.496  0.3980 -1.8105  1.3568
  572MOL0     H77174   1.612   0.755   7.530  0.9802 -1.1174  1.5583
  572MOL0     H77175   1.657   0.880   7.647 -1.1649 -0.8465  1.1419
  572MOL0     H77176   1.770   0.871   7.363  1.0134 -0.6225  1.6992
  572MOL0     H77177   1.797   1.001   7.475  0.8295  1.4905 -2.4484
  572MOL0     H77178   1.562   1.048   7.484  1.4407  1.1918  0.2726
  572MOL0     H77179   1.528   0.909   7.381 -1.7398  0.1820  2.0577
  572MOL0     H77180   1.671   1.260   7.135 -0.0471  0.1234  0.4256
  572MOL0     H77181   1.523   1.378   6.992 -0.4568 -3.0619 -3.0120
  572MOL0     H77182   0.881   1.435   7.096 -2.8110  2.1582  0.2578
  572MOL0     H77183   0.718   1.591   7.020  0.5039 -3.5878  2.9198
  572MOL0     H77184   0.590   1.634   6.794  0.5057 -0.0978 -0.7929
  572MOL0     H77185   0.559   1.803   6.790  0.6799 -0.1684  0.9133
  572MOL0     H77186   0.661   1.827   6.558  0.6024 -0.8411 -2.8432
  572MOL0     H77187   0.731   1.668   6.571  0.2037  1.4112 -0.8082
  572MOL0     H77188   0.522   1.561   6.524  0.5090 -0.0952 -2.0190
  572MOL0     H77189   0.434   1.711   6.569 -2.4060 -1.3442 -1.9026
  572MOL0     H77190   0.621   1.705   6.315 -1.4468 -0.0951 -3.5434
  572MOL0     H77191   0.525   1.835   6.382  1.3354 -0.3648 -0.2000
  572MOL0     H77192   0.415   1.767   6.192 -1.1804 -2.2236 -2.1900
  572MOL0     H77193   0.317   1.723   6.327  0.8708  4.3346  0.2447
  572MOL0     H77194   0.505   1.531   6.201  0.0881  3.1342  1.4866
  572MOL0     H77195   0.369   1.491   6.312 -2.7245 -0.2095 -0.6055
  572MOL0     H77196   0.371   1.536   6.019  2.2544  0.4832  1.9645
  572MOL0     H77197   0.246   1.625   6.106 -0.9113 -0.1143 -2.1821
  572MOL0     H77198   0.188   1.396   6.233  0.8006 -2.5521  0.0771
  572MOL0     H77199   0.134   1.405   6.068  0.2895 -1.8350 -0.2667
  572MOL0     H77200   0.969   1.675   6.686  1.1310 -1.0405 -0.3629
  572MOL0     H77201   1.135   1.510   6.753 -2.0544 -0.2575 -2.4704
  572MOL0     H77202   1.188   1.180   7.198 -0.1674 -0.6562 -0.2590
  572MOL0     H77203   1.357   1.035   7.312  3.3296 -0.5295  0.2169
  572MOL0     H77204   2.866   0.189   8.322  0.0414 -2.9918 -0.1588
  572MOL0     H77205   3.095   0.215   8.275 -1.3087  0.9441  0.7870
  572MOL0     H77206   3.420   0.093   7.942  1.0095 -1.2517 -1.7639
  572MOL0     H77207   3.657   0.098   7.895  0.5373  0.7965  0.6946
  572MOL0     H77208   3.844   0.147   7.761  2.4629 -0.9442 -0.9909
  572MOL0     H77209   3.865   0.113   7.924 -2.5642  0.1041 -0.6997
  572MOL0     H77210   4.068   0.126   7.813  0.6931  0.7856  2.4371
  572MOL0     H77211   4.081   0.260   7.924  1.2181  0.0199 -1.6736
  572MOL0     H77212   4.004   0.408   7.728 -1.0952 -0.7464  0.5140
  572MOL0     H77213   4.043   0.276   7.623 -1.9053 -3.0618  2.5824
  572MOL0     H77214   4.238   0.414   7.641 -1.2025 -2.2221 -0.7859
  572MOL0     H77215   4.233   0.429   7.817  1.2791 -0.4233 -0.8810
  572MOL0     H77216   4.474   0.125   7.820 -0.0444 -2.4235 -1.9995
  572MOL0     H77217   3.676   0.512   7.994 -0.0294 -0.0149  1.4370
  572MOL0     H77218   3.322   0.559   8.027  1.8468  2.6918 -3.8984
  572MOL0     H77219   3.401   0.539   8.174  0.2789 -0.0972  0.5177
  572MOL0     H77220   3.496   0.621   8.040  0.6348 -1.2123  0.1143
  573MOL0     O77221  10.062   4.197   7.594  0.2504  0.0569  0.3266
  573MOL0     C77222  10.181   4.220   7.605  0.1961 -0.7029 -0.8389
  573MOL0     O77223  10.264   4.154   7.692  0.0294 -0.0632 -0.0625
  573MOL0     C77224  10.209   4.049   7.757  0.5023  0.3889  0.0235
  573MOL0     C77225  10.182   4.055   7.896 -0.5470 -0.2748  0.4423
  573MOL0     C77226  10.117   3.958   7.968 -1.1050  0.7313 -0.1165
  573MOL0     C77227  10.076   3.839   7.902 -0.5488  0.4022  0.1283
  573MOL0     O77228  10.029   3.745   7.988  0.2141  0.2859  0.2404
  573MOL0     C77229  10.036   3.611   7.944 -0.5445  0.6921 -0.7362
  573MOL0     C77230   9.993   3.503   8.047  1.4091  0.2258  1.2454
  573MOL0     C77231  10.092   3.458   8.141 -0.6487 -0.2157 -0.6669
  573MOL0     C77232  10.071   3.322   8.211 -0.5390 -0.4585 -0.0169
  573MOL0     C77233  10.190   3.291   8.302 -0.2982 -0.0443 -0.6397
  573MOL0     C77234  10.143   3.227   8.431 -0.1032 -1.7407  0.3856
  573MOL0     C77235  10.260   3.168   8.494 -0.2359  0.4023 -0.5212
  573MOL0     C77236  10.252   3.106   8.637 -0.1168 -0.1941  0.0396
  573MOL0     N77237  10.174   2.977   8.633 -0.0991 -0.1595 -0.0387
  573MOL0     C77238  10.213   2.859   8.569  0.1102  0.2750  0.3127
  573MOL0     C77239  10.134   2.767   8.623 -0.0574  0.7926  0.1182
  573MOL0     C77240  10.162   2.618   8.615  0.2242  0.4895  0.5273
  573MOL0     C77241  10.220   2.556   8.742 -0.2142  0.4089 -0.5452
  573MOL0     C77242  10.193   2.406   8.751 -0.1652  0.9027  0.4301
  573MOL0     C77243  10.053   2.347   8.746 -0.0785 -0.1552 -0.1678
  573MOL0     O77244  10.067   2.205   8.713  0.4911  0.6814 -0.4005
  573MOL0     C77245   9.951   2.136   8.702  0.3700  0.6275  0.7385
  573MOL0     C77246   9.955   2.017   8.636 -0.1262  0.8699 -0.1255
  573MOL0     C77247   9.845   1.938   8.615  0.1460 -0.0181 -0.6454
  573MOL0     C77248   9.712   1.989   8.638 -1.0366  0.3832  1.0466
  573MOL0     C77249   9.581   1.928   8.604 -0.2320 -0.4670 -1.6419
  573MOL0     O77250   9.585   1.811   8.534 -0.6205 -0.4918 -0.0309
  573MOL0     C77251   9.479   1.741   8.491  0.8795 -0.0180  0.4046
  573MOL0     C77252   9.507   1.666   8.372 -0.1902 -0.0907 -0.2996
  573MOL0     C77253   9.406   1.594   8.298 -0.1910  0.1335  0.1469
  573MOL0     C77254   9.272   1.601   8.345  0.1887 -0.0392 -0.9516
  573MOL0     O77255   9.186   1.546   8.262  0.1733  0.3853  0.3129
  573MOL0     C77256   9.080   1.479   8.340  0.5279  1.1757  0.7749
  573MOL0     C77257   9.018   1.361   8.266  0.0151  0.4263 -0.1674
  573MOL0     C77258   8.873   1.384   8.242 -0.9822  0.0327  0.0261
  573MOL0     C77259   8.819   1.260   8.176  0.0581 -0.5094  0.7832
  573MOL0     C77260   8.694   1.306   8.096 -0.6872 -0.7943  1.1738
  573MOL0     C77261   8.617   1.178   8.066 -0.1803 -1.0911 -0.1413
  573MOL0     C77262   8.475   1.213   7.996 -0.5468 -0.6398 -1.5395
  573MOL0     C77263   8.378   1.081   7.989 -0.4632 -0.8951  0.3795
  573MOL0    Cl77264   8.388   1.029   7.820 -0.3730  0.0043  0.0474
  573MOL0     C77265   9.239   1.685   8.462 -0.5510  0.5785  0.1443
  573MOL0     C77266   9.352   1.741   8.537  0.4114  0.1611 -0.0000
  573MOL0     O77267   9.479   1.983   8.641  0.7124  0.6265  0.9137
  573MOL0     C77268   9.713   2.103   8.712 -0.4561 -0.3542  0.9348
  573MOL0     C77269   9.829   2.173   8.743  0.6285 -1.2721  0.8094
  573MOL0     N77270  10.036   2.822   8.699 -0.9561 -0.5315  0.5952
  573MOL0     N77271  10.051   2.954   8.692  0.6010  0.1458 -0.1748
  573MOL0     C77272  10.099   3.829   7.761 -0.4916 -0.1755 -0.2093
  573MOL0     C77273  10.168   3.930   7.691  0.6661 -1.1176  0.6799
  573MOL0     C77274  10.240   4.317   7.512  0.5287 -0.1453 -0.4751
  573MOL0     C77275  10.191   4.321   7.373  1.1378 -0.3529  0.0786
  573MOL0     C77276  10.249   4.390   7.271 -0.6553 -0.4522 -0.1314
  573MOL0     C77277  10.376   4.444   7.304  0.3064  0.5754  0.2431
  573MOL0     O77278  10.445   4.499   7.197 -0.0598  0.4693  0.3834
  573MOL0     C77279  10.584   4.510   7.210  0.0307 -0.5501 -0.8038
  573MOL0     C77280  10.634   4.657   7.262 -0.1704 -0.1769  0.5555
  573MOL0     C77281  10.675   4.746   7.146 -0.3442 -0.0404 -0.0603
  573MOL0     C77282  10.557   4.773   7.047 -0.1530 -0.7347  0.6496
  573MOL0     C77283  10.454   4.848   7.111  0.2217 -0.2933 -0.3672
  573MOL0     C77284  10.387   4.923   7.180 -0.8160 -0.8760 -0.4240
  573MOL0     C77285  10.413   4.461   7.435 -0.5270  0.7658 -1.0548
  573MOL0     C77286  10.361   4.387   7.541  0.3149 -0.0494 -0.4757
  573MOL0     C77287  10.422   4.395   7.681  0.8233 -0.1015 -0.4457
  573MOL0     H77288  10.214   4.150   7.938  1.0762  0.2608 -1.7945
  573MOL0     H77289  10.113   3.969   8.076 -1.1121 -0.3575  0.0105
  573MOL0     H77290   9.978   3.604   7.852 -0.8774  4.0023 -0.9159
  573MOL0     H77291  10.139   3.585   7.918  0.5984  4.1487 -0.2302
  573MOL0     H77292   9.954   3.423   7.982  0.2541  0.8482  1.1394
  573MOL0     H77293   9.904   3.538   8.099 -0.0343 -0.6512 -0.5115
  573MOL0     H77294  10.085   3.542   8.210 -2.3590 -1.5439  0.8524
  573MOL0     H77295  10.193   3.461   8.098  0.1460  3.0425  1.1188
  573MOL0     H77296   9.971   3.319   8.257 -1.3744  2.6224 -1.3719
  573MOL0     H77297  10.068   3.246   8.132 -1.7391 -2.5990  1.9702
  573MOL0     H77298  10.251   3.222   8.243  0.4921  1.4993 -1.7207
  573MOL0     H77299  10.254   3.373   8.337  0.8400 -1.8259  1.7976
  573MOL0     H77300  10.098   3.296   8.502 -0.3814 -0.4026 -1.0449
  573MOL0     H77301  10.067   3.152   8.406 -0.3972 -0.6002 -2.5780
  573MOL0     H77302  10.341   3.242   8.492  0.1203  0.0284 -0.1406
  573MOL0     H77303  10.294   3.095   8.419  2.1832  3.2050 -2.4053
  573MOL0     H77304  10.351   3.087   8.679 -0.5460  0.2274  1.3051
  573MOL0     H77305  10.208   3.183   8.702  0.6349 -1.6973  2.4848
  573MOL0     H77306  10.290   2.852   8.494 -0.4442 -0.2249 -0.2211
  573MOL0     H77307  10.072   2.562   8.588  1.1978 -0.0001 -1.9836
  573MOL0     H77308  10.236   2.595   8.538  0.5255  1.9458  0.3521
  573MOL0     H77309  10.327   2.571   8.758 -0.1334 -2.1561  2.2483
  573MOL0     H77310  10.183   2.597   8.837 -0.2087 -1.5728  0.3889
  573MOL0     H77311  10.243   2.381   8.845  3.2562 -1.2519 -1.7234
  573MOL0     H77312  10.259   2.350   8.684  1.3323 -1.7494  3.7674
  573MOL0     H77313  10.003   2.384   8.656 -0.6409 -2.6027 -0.9379
  573MOL0     H77314  10.002   2.374   8.838  3.2232  2.9002  0.9738
  573MOL0     H77315  10.044   1.978   8.586  0.1646  1.3895 -0.0232
  573MOL0     H77316   9.854   1.847   8.556  2.6905 -0.3403  0.1047
  573MOL0     H77317   9.606   1.667   8.328 -0.3944 -3.0837 -1.0024
  573MOL0     H77318   9.425   1.553   8.199  0.1167  0.9228 -0.1247
  573MOL0     H77319   9.120   1.442   8.435  1.0237 -0.5555 -0.0680
  573MOL0     H77320   9.004   1.555   8.361  0.9842  2.5273 -1.9694
  573MOL0     H77321   9.071   1.347   8.171  0.0409 -3.1494  0.2360
  573MOL0     H77322   9.033   1.269   8.322 -1.0709  0.4775  0.2285
  573MOL0     H77323   8.829   1.410   8.339 -0.2001  1.1430  0.1004
  573MOL0     H77324   8.871   1.470   8.174  1.1787  2.4599  2.7620
  573MOL0     H77325   8.784   1.192   8.254 -1.7358 -0.2001  0.2813
  573MOL0     H77326   8.883   1.217   8.098 -0.1077  1.3621 -0.4618
  573MOL0     H77327   8.716   1.367   8.007 -0.6308 -0.2585  1.5487
  573MOL0     H77328   8.630   1.369   8.158 -0.8119 -0.0791  0.3439
  573MOL0     H77329   8.668   1.113   7.995  2.7516  1.1767 -0.2915
  573MOL0     H77330   8.594   1.120   8.156  1.4513  1.7713  2.3428
  573MOL0     H77331   8.488   1.252   7.895  1.2564  0.1595 -1.0393
  573MOL0     H77332   8.419   1.284   8.057  0.3322  0.9928 -2.5716
  573MOL0     H77333   8.421   1.006   8.056 -0.9896  1.2202  3.2602
  573MOL0     H77334   8.279   1.112   8.024  0.5860  1.1654  1.7126
  573MOL0     H77335   9.135   1.685   8.495  0.3877 -1.3613  3.6270
  573MOL0     H77336   9.313   1.801   8.619  1.3194  0.4932  0.2056
  573MOL0     H77337   9.625   2.142   8.761 -0.1499  1.2653  0.2460
  573MOL0     H77338   9.808   2.259   8.805  0.2327 -1.8218  1.4567
  573MOL0     H77339  10.074   3.735   7.715  3.6421 -2.3366  1.4037
  573MOL0     H77340  10.185   3.918   7.584  2.1074  1.8278  0.4819
  573MOL0     H77341  10.094   4.281   7.348  0.6821 -0.4541  1.9151
  573MOL0     H77342  10.193   4.411   7.180 -1.1180  2.5851  0.7535
  573MOL0     H77343  10.625   4.497   7.109  0.2449 -1.4828 -0.5977
  573MOL0     H77344  10.620   4.427   7.270  0.8149 -0.4821 -1.1640
  573MOL0     H77345  10.705   4.641   7.344 -0.0378  0.9973  0.6874
  573MOL0     H77346  10.551   4.708   7.311  0.8841  0.9060  1.2653
  573MOL0     H77347  10.748   4.689   7.088  1.0125  0.8459  0.7139
  573MOL0     H77348  10.714   4.836   7.194  0.9585  0.2107 -1.5165
  573MOL0     H77349  10.594   4.827   6.959 -1.5388 -1.1458 -0.2112
  573MOL0     H77350  10.504   4.687   7.005 -1.0907  0.6080 -1.0550
  573MOL0     H77351  10.340   4.999   7.238 -2.1737  0.1666 -2.7410
  573MOL0     H77352  10.493   4.525   7.470 -1.8103  1.1388  1.4095
  573MOL0     H77353  10.509   4.461   7.684  1.2046 -0.6237  0.4911
  573MOL0     H77354  10.347   4.441   7.746 -1.2195 -0.4893 -2.4036
  573MOL0     H77355  10.451   4.299   7.723 -4.1089 -1.5341  0.2786
  574MOL0     O77356   1.088   7.617   8.159 -0.0436 -0.0086  0.2738
  574MOL0     C77357   1.109   7.712   8.239 -0.9648  0.5312  0.0566
  574MOL0     O77358   1.194   7.699   8.355  0.2877 -0.6819  0.0478
  574MOL0     C77359   1.253   7.577   8.396 -0.1572 -1.1086  0.8121
  574MOL0     C77360   1.231   7.448   8.350  0.1992  0.4888 -0.0103
  574MOL0     C77361   1.303   7.335   8.406 -1.3495 -0.2143 -0.2410
  574MOL0     C77362   1.393   7.352   8.514  0.2754  0.3654 -0.7580
  574MOL0     O77363   1.455   7.253   8.592  0.4228 -0.4709  0.1881
  574MOL0     C77364   1.428   7.116   8.547 -0.0385 -0.2623 -0.9014
  574MOL0     C77365   1.289   7.064   8.584 -0.1194 -0.2246 -0.8461
  574MOL0     C77366   1.270   6.930   8.522 -0.5245 -0.9472 -0.2825
  574MOL0     C77367   1.156   6.844   8.591 -0.3784 -0.3355 -0.2600
  574MOL0     C77368   1.029   6.919   8.626  0.9493  0.2028 -0.3971
  574MOL0     C77369   0.938   6.961   8.508  0.4827  0.8292  0.5482
  574MOL0     C77370   0.886   6.836   8.431 -0.7807 -0.9616 -0.0141
  574MOL0     C77371   0.767   6.882   8.349  0.0238 -0.0394 -0.3787
  574MOL0     N77372   0.644   6.857   8.423 -0.5944 -1.5360 -0.5467
  574MOL0     C77373   0.591   6.922   8.532 -0.5544 -0.0220 -0.5012
  574MOL0     C77374   0.503   6.836   8.582 -0.5303 -0.3302 -0.5368
  574MOL0     C77375   0.416   6.849   8.698  0.5142  0.0896 -0.6502
  574MOL0     C77376   0.471   6.943   8.804 -0.2755  1.2089 -0.7070
  574MOL0     C77377   0.360   6.976   8.912 -0.0527 -0.1031 -0.1573
  574MOL0     C77378   0.326   6.867   8.998  0.6573  0.4898  0.3104
  574MOL0     O77379   0.240   6.902   9.108 -0.0001  0.1167 -0.1792
  574MOL0     C77380   0.273   6.815   9.209 -0.9586 -0.7016 -0.0120
  574MOL0     C77381   0.219   6.690   9.201  0.1607  1.3209 -0.3397
  574MOL0     C77382   0.261   6.593   9.292 -1.1051  0.0322  0.5392
  574MOL0     C77383   0.364   6.614   9.381  0.2556  1.0738  0.1050
  574MOL0     C77384   0.426   6.495   9.450  0.7432  0.2409 -0.8188
  574MOL0     O77385   0.555   6.506   9.475  0.3829 -0.7218  0.2316
  574MOL0     C77386   0.626   6.394   9.513  0.0907  0.4869 -1.0182
  574MOL0     C77387   0.741   6.418   9.589 -0.5531 -0.8123 -0.8664
  574MOL0     C77388   0.834   6.327   9.620  0.6210  0.3375  0.6093
  574MOL0     C77389   0.816   6.196   9.576 -0.2040 -0.1127  0.2785
  574MOL0     O77390   0.904   6.107   9.619 -0.8671  0.7117  0.1610
  574MOL0     C77391   0.889   5.969   9.577  0.2853  0.2071  0.7689
  574MOL0     C77392   0.989   5.867   9.635 -0.4400  0.7580 -0.1600
  574MOL0     C77393   0.958   5.719   9.594  0.7807 -0.4841 -0.2066
  574MOL0     C77394   1.026   5.617   9.685 -0.4942  0.6846  0.4248
  574MOL0     C77395   0.974   5.470   9.655 -0.5276 -0.4318 -1.2381
  574MOL0     C77396   0.964   5.439   9.506  0.1802 -0.8804  0.4509
  574MOL0     C77397   0.956   5.282   9.483  0.0314  0.0269  0.3969
  574MOL0     C77398   0.987   5.227   9.341 -1.4149  0.1914  0.1448
  574MOL0    Cl77399   0.855   5.276   9.227  0.1149  0.4777 -0.3822
  574MOL0     C77400   0.705   6.175   9.491  1.1376 -0.1131  0.4152
  574MOL0     C77401   0.604   6.261   9.462 -0.8067 -0.0563 -0.2970
  574MOL0     O77402   0.357   6.401   9.488  0.3502  1.2238  0.9559
  574MOL0     C77403   0.417   6.737   9.389  0.2635 -0.1481  0.3589
  574MOL0     C77404   0.372   6.845   9.306  1.1672  0.3260  0.0812
  574MOL0     N77405   0.492   6.733   8.497  0.0185  0.3182  0.2719
  574MOL0     N77406   0.581   6.744   8.417 -1.0024  0.3790 -0.1380
  574MOL0     C77407   1.406   7.484   8.560  0.0693  1.3155  0.1223
  574MOL0     C77408   1.353   7.597   8.499  0.3740  0.5104  0.4162
  574MOL0     C77409   1.031   7.843   8.208  0.6908  1.1732  0.6240
  574MOL0     C77410   0.908   7.879   8.278 -0.0149 -0.2507  0.1865
  574MOL0     C77411   0.832   7.978   8.221 -0.0100 -0.4850 -0.0204
  574MOL0     C77412   0.879   8.061   8.119  0.5162  0.3074  0.9020
  574MOL0     O77413   0.814   8.161   8.051  0.2958 -0.5795 -0.3062
  574MOL0     C77414   0.683   8.199   8.106 -0.2671  0.5810  0.9571
  574MOL0     C77415   0.625   8.338   8.045  0.4024 -0.5271 -0.4007
  574MOL0     C77416   0.591   8.334   7.895  0.9089  0.4553 -0.3481
  574MOL0     C77417   0.535   8.463   7.840  0.7269 -0.5410 -0.7934
  574MOL0     C77418   0.537   8.468   7.693  0.5835 -0.5139  0.5980
  574MOL0     C77419   0.523   8.479   7.573 -0.3279  0.0826 -1.3718
  574MOL0     C77420   1.008   8.035   8.067  1.0291  0.4219 -1.0057
  574MOL0     C77421   1.073   7.921   8.095 -0.4086  0.2899 -0.7869
  574MOL0     C77422   1.202   7.889   8.014  1.4931  0.4982  0.0492
  574MOL0     H77423   1.141   7.424   8.294 -0.1945  0.3760  0.6631
  574MOL0     H77424   1.273   7.239   8.367 -2.9465  0.9299 -1.9872
  574MOL0     H77425   1.433   7.108   8.438 -1.2661  1.0943 -1.0819
  574MOL0     H77426   1.503   7.053   8.596 -0.4946 -0.6116 -0.6478
  574MOL0     H77427   1.217   7.129   8.533  2.3725  2.1463 -1.5958
  574MOL0     H77428   1.271   7.075   8.691 -1.2095 -1.5467 -0.8661
  574MOL0     H77429   1.357   6.868   8.547  1.8891  2.6782  0.9913
  574MOL0     H77430   1.264   6.930   8.413 -0.0924 -0.9635 -0.3056
  574MOL0     H77431   1.127   6.757   8.531  0.7965 -1.3936  0.6578
  574MOL0     H77432   1.206   6.800   8.678 -1.2917  0.9856  0.9677
  574MOL0     H77433   0.983   6.845   8.693  1.0412 -0.2448 -0.8195
  574MOL0     H77434   1.046   7.007   8.688 -0.8271 -1.5447  2.8891
  574MOL0     H77435   0.870   7.031   8.557  2.9649  3.4098  0.6020
  574MOL0     H77436   0.997   7.028   8.446 -2.0503  2.0054 -0.7176
  574MOL0     H77437   0.877   6.747   8.493  5.8544 -1.8849  0.3556
  574MOL0     H77438   0.970   6.829   8.360 -1.1909  3.2025 -1.1869
  574MOL0     H77439   0.764   6.987   8.318 -2.5034 -0.0504 -0.3681
  574MOL0     H77440   0.771   6.825   8.256  0.0640  2.2015 -1.7996
  574MOL0     H77441   0.627   7.017   8.570 -3.3525  1.2176 -0.7371
  574MOL0     H77442   0.315   6.881   8.672  0.4130  1.2160  0.9354
  574MOL0     H77443   0.405   6.749   8.739  1.6825 -1.0400 -2.9358
  574MOL0     H77444   0.559   6.892   8.846 -2.4183 -2.4390 -0.1519
  574MOL0     H77445   0.488   7.039   8.756  0.7930  1.3966  0.0096
  574MOL0     H77446   0.277   7.032   8.870  1.5233  1.3614 -1.4572
  574MOL0     H77447   0.398   7.049   8.984 -2.2088  0.0076  0.9253
  574MOL0     H77448   0.422   6.821   9.022  1.3150  0.2946 -2.3630
  574MOL0     H77449   0.285   6.795   8.927  2.5860 -0.1197 -0.2332
  574MOL0     H77450   0.140   6.670   9.128 -0.3534 -0.9205  0.7306
  574MOL0     H77451   0.220   6.492   9.291  1.8666 -1.3598  2.6045
  574MOL0     H77452   0.762   6.517   9.629 -0.6688 -0.8047 -0.8216
  574MOL0     H77453   0.922   6.348   9.679 -0.6910 -0.3142  2.9778
  574MOL0     H77454   0.791   5.933   9.607 -0.8950  2.9298  0.4468
  574MOL0     H77455   0.888   5.963   9.468 -2.3324  0.2635  0.7274
  574MOL0     H77456   1.092   5.891   9.606 -0.3158  1.0810  0.5275
  574MOL0     H77457   0.988   5.872   9.745 -0.0399 -0.7403 -0.0711
  574MOL0     H77458   0.854   5.699   9.620  1.0245 -0.7701  0.5608
  574MOL0     H77459   0.980   5.711   9.487 -1.0618 -0.0270 -0.6603
  574MOL0     H77460   0.995   5.630   9.789 -1.4844  1.2015  0.0757
  574MOL0     H77461   1.135   5.615   9.679 -0.4158  0.0847  1.7342
  574MOL0     H77462   0.885   5.465   9.718  1.6557  1.4684  2.2547
  574MOL0     H77463   1.052   5.407   9.699 -0.3037  2.8146  3.8029
  574MOL0     H77464   0.879   5.487   9.458  3.1497 -0.3692 -5.1331
  574MOL0     H77465   1.053   5.479   9.457  0.3888  2.1462  2.9321
  574MOL0     H77466   0.854   5.255   9.512  0.1533 -0.6062  0.2487
  574MOL0     H77467   1.023   5.234   9.554  1.1315 -1.2305 -1.4063
  574MOL0     H77468   1.081   5.272   9.306 -2.0674  0.0338 -1.9850
  574MOL0     H77469   0.991   5.118   9.333  3.1358  0.3053 -2.6659
  574MOL0     H77470   0.716   6.076   9.448 -0.4123 -0.0606 -0.1621
  574MOL0     H77471   0.516   6.243   9.402 -0.8228 -0.1518 -0.2448
  574MOL0     H77472   0.496   6.760   9.460 -1.1623 -1.0641  2.3245
  574MOL0     H77473   0.409   6.947   9.305 -0.3098  1.0945  4.3369
  574MOL0     H77474   1.456   7.491   8.657  2.0418 -2.3430 -0.4475
  574MOL0     H77475   1.375   7.695   8.541  2.2076  0.2323  0.1951
  574MOL0     H77476   0.876   7.809   8.354  2.5553  0.4341  2.0631
  574MOL0     H77477   0.740   8.018   8.263 -0.2041  1.8754 -2.4162
  574MOL0     H77478   0.697   8.217   8.213  0.5686 -0.1992  0.9856
  574MOL0     H77479   0.602   8.126   8.094  1.1346 -1.1345  1.4701
  574MOL0     H77480   0.701   8.416   8.053  2.4625 -2.0046 -3.3268
  574MOL0     H77481   0.545   8.363   8.115 -0.5738 -3.3156 -0.3900
  574MOL0     H77482   0.524   8.252   7.869  1.7041  0.4086 -2.4344
  574MOL0     H77483   0.688   8.315   7.847  0.9345 -0.0393 -0.1043
  574MOL0     H77484   0.435   8.481   7.880  1.9715  5.3480  0.6052
  574MOL0     H77485   0.574   8.559   7.875 -3.7257  2.3391 -2.7865
  574MOL0     H77486   0.520   8.493   7.466  0.1449 -0.7931 -1.5089
  574MOL0     H77487   1.048   8.095   7.986 -0.8419 -0.0693 -2.3418
  574MOL0     H77488   1.270   7.973   8.032  1.1698  0.4955  1.4017
  574MOL0     H77489   1.259   7.804   8.053  3.2748  1.2953 -0.7114
  574MOL0     H77490   1.180   7.866   7.909 -0.2604 -2.6056  0.9462
  575MOL0     O77491   1.827  11.115   1.975 -1.1208  0.2222  0.2252
  575MOL0     C77492   1.909  11.207   1.939  0.5336  0.6890 -0.3017
  575MOL0     O77493   1.882  11.334   1.948  0.6758  0.0339 -0.0193
  575MOL0     C77494   1.754  11.380   1.983  0.9006  0.0935 -0.9768
  575MOL0     C77495   1.716  11.410   2.113  0.4250 -1.3360  0.0506
  575MOL0     C77496   1.581  11.446   2.141 -0.0610 -1.4423 -0.4292
  575MOL0     C77497   1.486  11.450   2.045  2.1669  0.6035  0.0771
  575MOL0     O77498   1.351  11.472   2.069 -0.4237 -0.9343  0.4182
  575MOL0     C77499   1.311  11.504   2.205 -0.0969  0.3508 -0.0016
  575MOL0     C77500   1.158  11.532   2.206 -0.9662  0.3324 -1.1765
  575MOL0     C77501   1.145  11.684   2.211  0.3454  0.7202 -0.3228
  575MOL0     C77502   1.015  11.726   2.282  0.1801  0.1140  0.1148
  575MOL0     C77503   0.956  11.865   2.247  0.3482 -0.7829 -0.5501
  575MOL0     C77504   0.927  11.884   2.091  0.6693  0.1252 -0.5546
  575MOL0     C77505   0.879  12.035   2.070 -0.0606 -0.0458 -0.6355
  575MOL0     C77506   0.747  12.042   1.988 -0.2169  0.3937 -1.2629
  575MOL0     N77507   0.761  12.016   1.849  0.3684  0.4141 -0.6117
  575MOL0     C77508   0.866  12.012   1.766 -0.9088 -0.3045  0.8966
  575MOL0     C77509   0.814  11.995   1.647  0.2961 -0.8104 -1.0091
  575MOL0     C77510   0.895  11.997   1.518 -0.0632  0.4147  0.2806
  575MOL0     C77511   0.902  11.855   1.461  0.6222 -1.0926  0.1560
  575MOL0     C77512   1.015  11.847   1.363  1.3205  0.6201  0.7054
  575MOL0     C77513   1.148  11.872   1.408 -0.3301 -0.5914  0.7158
  575MOL0     O77514   1.170  11.782   1.510  0.0443 -0.3952 -0.0007
  575MOL0     C77515   1.239  11.835   1.622  0.0742  0.1230  0.5908
  575MOL0     C77516   1.232  11.749   1.740 -0.2344 -0.8648 -1.0285
  575MOL0     C77517   1.286  11.793   1.858 -0.8949  0.0648 -0.5491
  575MOL0     C77518   1.371  11.905   1.863 -0.6868 -0.6970  0.0170
  575MOL0     C77519   1.446  11.924   1.985  0.0947  0.9585 -0.4353
  575MOL0     O77520   1.412  11.868   2.107 -0.1500 -0.2358 -0.1010
  575MOL0     C77521   1.513  11.845   2.199 -0.4880 -0.2658  0.4130
  575MOL0     C77522   1.634  11.779   2.179  0.0961 -0.0985  1.0276
  575MOL0     C77523   1.725  11.755   2.284  0.8110  0.0956  1.3255
  575MOL0     C77524   1.700  11.801   2.414  0.9084  1.0856  0.2200
  575MOL0     O77525   1.774  11.763   2.522  0.0719  0.1455 -0.0679
  575MOL0     C77526   1.918  11.741   2.525 -0.2897 -0.8950  0.1112
  575MOL0     C77527   2.000  11.845   2.450 -0.5053  0.8236  0.7806
  575MOL0     C77528   2.145  11.822   2.476  0.0690 -0.0527 -0.4834
  575MOL0     C77529   2.232  11.913   2.391  0.5019 -0.0167  0.7925
  575MOL0     C77530   2.382  11.884   2.421  0.1396 -0.1206  0.3751
  575MOL0     C77531   2.442  11.970   2.533 -0.4939 -0.3419  0.9157
  575MOL0     C77532   2.589  11.920   2.558 -0.8395 -0.6621  0.4141
  575MOL0     C77533   2.684  11.963   2.448 -0.4028  0.3964  0.4595
  575MOL0    Cl77534   2.802  12.075   2.515 -0.1327  0.4926  0.0117
  575MOL0     C77535   1.569  11.858   2.437 -0.8290  0.9316  0.3617
  575MOL0     C77536   1.485  11.887   2.330 -0.0667 -0.2132  0.3405
  575MOL0     O77537   1.539  12.001   1.979 -0.0773  0.4575 -0.6111
  575MOL0     C77538   1.387  11.985   1.744  0.0750 -0.4275  0.1970
  575MOL0     C77539   1.311  11.949   1.633  1.0027  0.3310  0.8824
  575MOL0     N77540   0.682  11.950   1.659 -0.9307 -0.2635  0.8707
  575MOL0     N77541   0.643  11.982   1.775 -0.7153 -0.5066  1.1270
  575MOL0     C77542   1.523  11.430   1.915  0.2209  0.0261 -0.0568
  575MOL0     C77543   1.657  11.389   1.886  0.3606  0.0362 -0.0297
  575MOL0     C77544   2.025  11.173   1.859 -0.3562  0.0416  0.6030
  575MOL0     C77545   1.999  11.086   1.749  0.7668  0.0299 -0.1572
  575MOL0     C77546   2.098  11.047   1.657 -0.0773  0.0519  0.9990
  575MOL0     C77547   2.226  11.107   1.668  0.6354 -0.2109 -0.3280
  575MOL0     O77548   2.329  11.085   1.587 -0.0113  0.2503  0.0278
  575MOL0     C77549   2.334  10.981   1.491 -0.8200 -0.3358 -0.0250
  575MOL0     C77550   2.327  10.844   1.553  0.7319  0.1806  0.0169
  575MOL0     C77551   2.339  10.723   1.460 -0.7158 -0.1481 -0.1010
  575MOL0     C77552   2.318  10.585   1.519  0.4165  0.4789  0.8853
  575MOL0     C77553   2.417  10.566   1.631 -0.3545 -0.3904 -0.3709
  575MOL0     C77554   2.516  10.544   1.700 -0.0093 -0.6797 -0.0908
  575MOL0     C77555   2.255  11.196   1.779 -0.0781  0.5458  0.6495
  575MOL0     C77556   2.156  11.233   1.869 -0.4076  0.4302  0.4258
  575MOL0     C77557   2.207  11.329   1.975 -0.4761 -1.1929  0.2656
  575MOL0     H77558   1.783  11.394   2.196 -0.4655  0.5425  1.1924
  575MOL0     H77559   1.567  11.443   2.248  0.1513 -0.3007 -0.3646
  575MOL0     H77560   1.322  11.415   2.268  0.7294  0.1815 -0.3655
  575MOL0     H77561   1.363  11.592   2.244 -1.0387  1.8953 -2.0567
  575MOL0     H77562   1.126  11.491   2.302  1.7787 -0.9951 -0.7291
  575MOL0     H77563   1.105  11.488   2.121 -3.1376  1.5536 -0.5172
  575MOL0     H77564   1.133  11.716   2.107  0.1946  3.8076  0.5637
  575MOL0     H77565   1.231  11.724   2.267 -0.8524 -1.7983  3.7434
  575MOL0     H77566   0.939  11.650   2.262  0.4540  0.1288 -1.0777
  575MOL0     H77567   1.024  11.717   2.391 -0.9304  0.8869  0.2911
  575MOL0     H77568   0.862  11.880   2.301 -1.4804 -1.9838 -3.1831
  575MOL0     H77569   1.021  11.949   2.273  1.2207 -2.1399  2.0441
  575MOL0     H77570   1.014  11.857   2.030  1.1777 -1.8637  0.9456
  575MOL0     H77571   0.852  11.815   2.051 -0.4862  2.7163 -3.3220
  575MOL0     H77572   0.954  12.085   2.007 -1.1775 -1.1532 -2.9627
  575MOL0     H77573   0.874  12.087   2.166  1.9606  1.1077 -1.0996
  575MOL0     H77574   0.682  11.962   2.022  0.7857 -0.3652 -1.0756
  575MOL0     H77575   0.682  12.130   1.984 -2.0984 -0.9568 -1.5419
  575MOL0     H77576   0.969  12.033   1.794 -1.0241 -0.2931  1.3268
  575MOL0     H77577   0.850  12.051   1.434 -0.1394  0.4937  0.3730
  575MOL0     H77578   0.996  12.035   1.537  1.2737 -2.6060 -0.0499
  575MOL0     H77579   0.914  11.777   1.537 -0.3895 -0.8970  0.5248
  575MOL0     H77580   0.806  11.833   1.415 -0.4941 -0.3023  1.9775
  575MOL0     H77581   1.004  11.911   1.275  3.2737  0.9873  0.6860
  575MOL0     H77582   1.007  11.747   1.320 -1.4946  1.1139 -0.1734
  575MOL0     H77583   1.165  11.977   1.433  1.4040 -1.0075  1.3806
  575MOL0     H77584   1.207  11.844   1.321  0.6170  2.3472  0.2888
  575MOL0     H77585   1.174  11.658   1.728  0.5345 -1.5337  0.1892
  575MOL0     H77586   1.264  11.742   1.951  3.2699  0.8769  1.1169
  575MOL0     H77587   1.644  11.734   2.081 -1.9183  1.0807  0.2164
  575MOL0     H77588   1.822  11.713   2.261  0.2557 -0.8373  0.5764
  575MOL0     H77589   1.953  11.733   2.628  0.1154  0.1690  0.0752
  575MOL0     H77590   1.937  11.648   2.472  3.2391 -0.3807  0.2133
  575MOL0     H77591   1.972  11.847   2.344 -2.8487 -1.5714  1.2521
  575MOL0     H77592   1.981  11.943   2.494 -0.4114 -0.2842  3.4548
  575MOL0     H77593   2.151  11.841   2.583 -0.8852  1.7952 -0.7098
  575MOL0     H77594   2.182  11.720   2.461 -0.2561 -0.6584  2.3356
  575MOL0     H77595   2.216  12.015   2.426 -3.7715 -0.7162  1.5001
  575MOL0     H77596   2.220  11.909   2.282 -2.0097 -3.5938  1.0062
  575MOL0     H77597   2.440  11.905   2.331 -2.2970 -0.0475 -1.2752
  575MOL0     H77598   2.391  11.778   2.447 -1.4196 -0.0761  1.1713
  575MOL0     H77599   2.433  12.075   2.503 -3.0535 -0.8072 -0.1705
  575MOL0     H77600   2.391  11.952   2.628  0.7145 -1.5850  1.3563
  575MOL0     H77601   2.582  11.810   2.560  0.0694 -0.8079 -1.9368
  575MOL0     H77602   2.628  11.955   2.654 -1.9215 -1.4702  1.1776
  575MOL0     H77603   2.747  11.881   2.411 -1.0731 -1.9413  4.0533
  575MOL0     H77604   2.632  12.006   2.361 -1.6310 -0.9253  0.5063
  575MOL0     H77605   1.555  11.889   2.541  1.4037  1.1576  0.6367
  575MOL0     H77606   1.390  11.939   2.339 -0.9115 -1.6350 -0.1247
  575MOL0     H77607   1.456  12.069   1.735 -2.7074  2.1373  0.9078
  575MOL0     H77608   1.353  12.007   1.551  2.5351 -0.7340  0.8559
  575MOL0     H77609   1.456  11.462   1.836 -0.0505  3.4828  1.4019
  575MOL0     H77610   1.684  11.352   1.787  1.5286  0.6524  0.0438
  575MOL0     H77611   1.905  11.037   1.728 -0.8361  1.2433  3.4164
  575MOL0     H77612   2.071  10.975   1.580  3.4638 -1.8024  1.3115
  575MOL0     H77613   2.425  10.988   1.431  0.1200  0.6154  1.4266
  575MOL0     H77614   2.246  10.997   1.428 -0.9700  3.6221  0.9257
  575MOL0     H77615   2.232  10.825   1.603  0.3947 -2.7055 -1.5126
  575MOL0     H77616   2.412  10.838   1.622  2.5964  0.8301 -2.1255
  575MOL0     H77617   2.439  10.721   1.415  1.3555 -2.9979  3.9707
  575MOL0     H77618   2.267  10.732   1.378  0.2760  2.1239 -0.8064
  575MOL0     H77619   2.215  10.576   1.553  0.3974 -1.3837  0.4054
  575MOL0     H77620   2.337  10.508   1.444 -0.4526  2.7794 -1.8689
  575MOL0     H77621   2.599  10.517   1.762 -0.6570 -0.8208  0.7331
  575MOL0     H77622   2.353  11.242   1.782 -0.0046  0.5702 -1.0043
  575MOL0     H77623   2.302  11.284   2.005 -0.6452 -1.5015  0.3508
  575MOL0     H77624   2.224  11.427   1.930 -2.1347 -1.1486 -0.3564
  575MOL0     H77625   2.149  11.338   2.067 -1.2523  0.2627 -0.3285
  576MOL0     O77626   7.514   1.615   7.756  0.1002 -0.3924 -0.5650
  576MOL0     C77627   7.572   1.579   7.859  0.3239 -0.8410 -0.2577
  576MOL0     O77628   7.520   1.492   7.944  0.3505  0.1077  0.7161
  576MOL0     C77629   7.421   1.402   7.901  0.4631 -0.3850 -1.1403
  576MOL0     C77630   7.308   1.386   7.989  0.0718  0.9741  0.0832
  576MOL0     C77631   7.208   1.309   7.952 -0.3156  0.3062  0.2189
  576MOL0     C77632   7.213   1.238   7.830 -1.0316  0.3625  0.3952
  576MOL0     O77633   7.106   1.162   7.793  0.4267 -0.5239  0.2126
  576MOL0     C77634   7.012   1.231   7.717 -0.1646  0.5016  0.1440
  576MOL0     C77635   6.881   1.154   7.720  0.4720 -0.4017  0.2998
  576MOL0     C77636   6.782   1.225   7.621 -1.2033  0.4805  1.0732
  576MOL0     C77637   6.641   1.163   7.631  0.1916 -0.6215  0.6476
  576MOL0     C77638   6.565   1.147   7.493 -0.3004 -0.3582 -0.2678
  576MOL0     C77639   6.435   1.069   7.512  0.7209  0.7299 -0.9426
  576MOL0     C77640   6.398   1.003   7.370  1.2145  0.2155 -0.5174
  576MOL0     C77641   6.290   0.892   7.368  0.3087 -0.2060 -0.3239
  576MOL0     N77642   6.153   0.923   7.388  0.4009  0.3069 -0.4473
  576MOL0     C77643   6.079   0.915   7.506  0.4390  0.0584  0.1322
  576MOL0     C77644   5.958   0.956   7.474 -0.0983 -0.7349 -0.3496
  576MOL0     C77645   5.845   0.965   7.571 -0.8362 -0.2627  0.2252
  576MOL0     C77646   5.846   1.116   7.630 -1.2109  0.5885 -0.8750
  576MOL0     C77647   5.773   1.125   7.761 -0.6378  0.2534 -0.5263
  576MOL0     C77648   5.620   1.094   7.743 -0.0269  0.0095  0.5840
  576MOL0     O77649   5.567   1.215   7.682 -0.6032  1.1591  0.5406
  576MOL0     C77650   5.438   1.224   7.628  0.3938 -0.2977  0.1606
  576MOL0     C77651   5.334   1.128   7.655 -0.2724 -0.7888  0.9605
  576MOL0     C77652   5.208   1.125   7.585  0.5039  0.4390  0.6856
  576MOL0     C77653   5.178   1.233   7.489  0.1227  0.5515  0.1352
  576MOL0     C77654   5.059   1.221   7.400  0.0160 -0.2929  0.2679
  576MOL0     O77655   5.046   1.331   7.316 -0.0871 -0.6255  0.8719
  576MOL0     C77656   4.955   1.332   7.212  0.6109 -0.0965  0.8146
  576MOL0     C77657   4.824   1.276   7.221 -0.7504 -0.7259 -0.4925
  576MOL0     C77658   4.731   1.286   7.117 -0.6743  0.5488 -0.6530
  576MOL0     C77659   4.773   1.353   6.997  0.9678 -0.4842 -0.0307
  576MOL0     O77660   4.691   1.380   6.893 -0.3040 -0.2277 -0.3036
  576MOL0     C77661   4.582   1.288   6.862 -0.7173 -0.4708  0.1563
  576MOL0     C77662   4.506   1.333   6.739 -0.9807  0.8868  0.6788
  576MOL0     C77663   4.589   1.292   6.608 -0.5290  0.5348  0.7393
  576MOL0     C77664   4.496   1.312   6.487  0.2102  0.0874 -0.1512
  576MOL0     C77665   4.570   1.296   6.357 -0.2115  0.1342  0.1001
  576MOL0     C77666   4.606   1.149   6.334  0.4749 -0.5259  0.0491
  576MOL0     C77667   4.675   1.131   6.189 -0.9446  0.3346  0.0646
  576MOL0     C77668   4.656   0.986   6.145  1.0732  0.1216 -0.6218
  576MOL0    Cl77669   4.750   0.942   5.999  0.3364  0.4630  0.3322
  576MOL0     C77670   4.906   1.399   6.982  0.3721  0.2952  0.2038
  576MOL0     C77671   4.991   1.387   7.095  0.1491 -0.9239  0.0828
  576MOL0     O77672   5.001   1.112   7.385 -0.2930  0.9576  0.7093
  576MOL0     C77673   5.285   1.322   7.459 -1.2026  0.7970 -0.4252
  576MOL0     C77674   5.410   1.318   7.526  0.0410  0.1111  0.4506
  576MOL0     N77675   5.961   0.972   7.337  0.6434 -0.1354  0.9464
  576MOL0     N77676   6.069   0.953   7.282 -0.5852 -0.3057  0.1450
  576MOL0     C77677   7.327   1.248   7.743  0.3878 -1.3639  0.0401
  576MOL0     C77678   7.431   1.334   7.780  0.2377  0.9271 -0.0696
  576MOL0     C77679   7.690   1.655   7.900  0.4173 -0.6273 -0.3858
  576MOL0     C77680   7.698   1.680   8.040  0.5431 -1.2256 -0.1395
  576MOL0     C77681   7.808   1.750   8.092  0.6972 -0.2478 -1.0263
  576MOL0     C77682   7.909   1.794   8.009  0.2403  0.1481  0.7306
  576MOL0     O77683   8.012   1.864   8.058  0.1139  0.0423 -0.4627
  576MOL0     C77684   8.001   2.010   8.038 -0.2108  0.5027 -1.1260
  576MOL0     C77685   7.921   2.057   8.156  0.0066  0.3818  1.1078
  576MOL0     C77686   7.991   2.013   8.288 -0.0801 -0.2299 -0.1909
  576MOL0     C77687   7.914   2.055   8.412  0.6757 -0.3965  0.3947
  576MOL0     C77688   7.909   2.208   8.434 -0.0091  0.5114  0.4607
  576MOL0     C77689   7.912   2.335   8.434  0.1070  1.1608 -0.2699
  576MOL0     C77690   7.899   1.771   7.876 -1.0393 -0.9665  0.2753
  576MOL0     C77691   7.801   1.700   7.816 -0.0009  0.8366 -0.3162
  576MOL0     C77692   7.814   1.681   7.669 -0.6245 -0.1289 -0.6145
  576MOL0     H77693   7.307   1.420   8.092  3.0792 -0.1141  0.5786
  576MOL0     H77694   7.127   1.307   8.025  0.4229 -2.7079  1.0793
  576MOL0     H77695   6.996   1.336   7.741 -0.2215  0.3359  0.8406
  576MOL0     H77696   7.040   1.212   7.613 -3.0358 -3.1241 -0.1963
  576MOL0     H77697   6.833   1.164   7.817 -1.6744 -1.2180 -0.6200
  576MOL0     H77698   6.895   1.048   7.698 -0.1257 -0.1626 -1.3890
  576MOL0     H77699   6.807   1.222   7.515 -2.4999 -0.1258  0.7633
  576MOL0     H77700   6.770   1.328   7.656  1.5344  1.1742  0.2159
  576MOL0     H77701   6.648   1.059   7.664 -0.1295 -0.9199 -0.2132
  576MOL0     H77702   6.574   1.214   7.701 -2.9315 -1.8239 -1.2581
  576MOL0     H77703   6.560   1.251   7.460  3.5173  1.0386  2.7935
  576MOL0     H77704   6.628   1.078   7.436 -2.2731 -4.0142  1.6469
  576MOL0     H77705   6.420   1.005   7.600  0.8194  3.3136  1.0778
  576MOL0     H77706   6.356   1.142   7.531  0.4645  0.6194 -1.5722
  576MOL0     H77707   6.489   0.962   7.325  0.0373  0.9665 -3.9091
  576MOL0     H77708   6.367   1.084   7.304 -1.5493 -1.0057 -0.8557
  576MOL0     H77709   6.302   0.838   7.274  0.9960 -2.3390  0.9162
  576MOL0     H77710   6.313   0.820   7.447  0.0442  2.7591  2.6798
  576MOL0     H77711   6.114   0.896   7.607  0.3365  2.8092  0.7723
  576MOL0     H77712   5.751   0.950   7.518 -0.2150  1.2154 -1.3989
  576MOL0     H77713   5.866   0.885   7.643  0.2980  0.4693  0.7463
  576MOL0     H77714   5.950   1.149   7.638 -0.8266 -0.7792  0.2344
  576MOL0     H77715   5.809   1.188   7.557 -1.7816 -0.8151 -2.0234
  576MOL0     H77716   5.790   1.225   7.803  0.1812  1.1248 -2.7762
  576MOL0     H77717   5.821   1.057   7.832 -1.5149 -0.0001 -0.1598
  576MOL0     H77718   5.576   1.073   7.841  0.9800  1.5618  1.4062
  576MOL0     H77719   5.605   1.007   7.678  0.1327  1.8415 -2.0790
  576MOL0     H77720   5.341   1.050   7.731  0.6521 -1.0935  0.5832
  576MOL0     H77721   5.150   1.042   7.624  1.9026 -0.7447  0.3193
  576MOL0     H77722   4.791   1.231   7.314  2.0861  0.0693  1.0208
  576MOL0     H77723   4.634   1.241   7.134 -0.4010 -0.0988 -0.7827
  576MOL0     H77724   4.615   1.183   6.852 -1.6830 -0.7022 -0.7704
  576MOL0     H77725   4.511   1.292   6.944  3.6579  0.7188  4.3557
  576MOL0     H77726   4.403   1.297   6.731 -1.7768  2.9731  0.8913
  576MOL0     H77727   4.493   1.441   6.744 -2.1468  0.8284 -0.4602
  576MOL0     H77728   4.672   1.361   6.591 -0.7529  1.7846  3.9981
  576MOL0     H77729   4.631   1.193   6.624 -1.2883  0.2508  1.0540
  576MOL0     H77730   4.449   1.411   6.494 -1.0947 -0.6062  2.7348
  576MOL0     H77731   4.416   1.238   6.491  1.9238 -1.8030  0.9962
  576MOL0     H77732   4.662   1.356   6.363  1.1595 -1.9432  1.2737
  576MOL0     H77733   4.508   1.327   6.273 -2.2447 -4.8318 -0.6032
  576MOL0     H77734   4.674   1.112   6.411  2.9716  3.4363  0.0290
  576MOL0     H77735   4.521   1.080   6.334 -0.0840  0.1294  1.2767
  576MOL0     H77736   4.783   1.143   6.193 -0.6575 -2.1657  1.8532
  576MOL0     H77737   4.651   1.204   6.111  1.9017 -0.5637 -1.7885
  576MOL0     H77738   4.700   0.930   6.227  2.7529  1.0191 -0.8656
  576MOL0     H77739   4.552   0.959   6.127  1.1393 -0.4524 -0.1876
  576MOL0     H77740   4.949   1.451   6.897  1.7492 -2.2295 -0.7643
  576MOL0     H77741   5.086   1.438   7.098 -0.4453  0.2607 -0.1987
  576MOL0     H77742   5.287   1.392   7.376  0.9725  1.7399  0.3351
  576MOL0     H77743   5.485   1.387   7.487  2.5368 -1.8528  1.5015
  576MOL0     H77744   7.333   1.209   7.642 -0.3295  0.7620 -0.8879
  576MOL0     H77745   7.515   1.342   7.712  1.2087  0.3233  1.0250
  576MOL0     H77746   7.627   1.651   8.117 -2.7543 -0.0862 -2.5147
  576MOL0     H77747   7.813   1.755   8.200 -1.9941  4.2118 -0.8553
  576MOL0     H77748   7.933   2.026   7.954 -2.2931 -0.7282  0.2103
  576MOL0     H77749   8.098   2.061   8.034  0.1455  0.6207  3.6540
  576MOL0     H77750   7.822   2.010   8.158  0.4579 -0.6085  0.9358
  576MOL0     H77751   7.919   2.166   8.161  1.0262  0.4792 -0.1427
  576MOL0     H77752   8.086   2.067   8.293 -1.3795  2.0717  2.3001
  576MOL0     H77753   8.020   1.908   8.287  2.9072  0.4979  0.2573
  576MOL0     H77754   7.820   2.000   8.420  1.0589 -1.2015 -0.5148
  576MOL0     H77755   7.963   2.024   8.505 -0.7073  3.9996  2.9466
  576MOL0     H77756   7.920   2.442   8.436 -0.0087  1.1783 -0.6215
  576MOL0     H77757   7.982   1.807   7.817  0.8778 -3.2585  1.3657
  576MOL0     H77758   7.733   1.619   7.630 -1.6496  1.1931 -0.6630
  576MOL0     H77759   7.814   1.777   7.618 -3.4741  0.4188  0.2197
  576MOL0     H77760   7.895   1.609   7.658 -0.2032 -0.0359  1.4143
  577MOL0     O77761   6.568   1.498   2.008 -0.2512 -0.0421 -0.1395
  577MOL0     C77762   6.615   1.606   1.965  0.4927  0.6764 -1.0795
  577MOL0     O77763   6.649   1.628   1.829  0.7998  0.6933 -0.1509
  577MOL0     C77764   6.641   1.528   1.743 -0.0351  0.1239 -0.2242
  577MOL0     C77765   6.757   1.503   1.663  0.5686  0.1706  0.9203
  577MOL0     C77766   6.746   1.411   1.555 -0.4642  0.1313 -0.1806
  577MOL0     C77767   6.620   1.354   1.523 -0.0651 -0.4057 -0.5288
  577MOL0     O77768   6.605   1.262   1.425 -0.2572 -0.1533 -0.0724
  577MOL0     C77769   6.467   1.241   1.373  0.9458 -0.5758 -0.4674
  577MOL0     C77770   6.462   1.211   1.227  0.3359  0.3974 -0.7504
  577MOL0     C77771   6.504   1.312   1.124 -0.0189 -0.2329 -1.1991
  577MOL0     C77772   6.444   1.454   1.150  0.4181 -0.6293 -0.7418
  577MOL0     C77773   6.458   1.544   1.018  0.2299 -0.4286  0.0011
  577MOL0     C77774   6.438   1.698   1.044 -0.8699 -0.8993 -0.1556
  577MOL0     C77775   6.401   1.771   0.914 -0.1191  0.8657  0.2421
  577MOL0     C77776   6.449   1.916   0.917 -0.5573  0.5186  0.3782
  577MOL0     N77777   6.586   1.955   0.966  0.2230  0.2514 -0.1337
  577MOL0     C77778   6.698   1.901   0.920  0.3804 -0.5296 -0.3397
  577MOL0     C77779   6.793   1.943   1.007  0.5481 -1.2886 -0.3320
  577MOL0     C77780   6.933   1.913   1.007 -0.1448 -0.2410 -1.3028
  577MOL0     C77781   6.932   1.755   1.055 -0.2875  0.5504 -1.0200
  577MOL0     C77782   6.925   1.742   1.204  0.5453 -0.1438 -0.4703
  577MOL0     C77783   6.923   1.597   1.257  0.5629 -0.2987  0.2351
  577MOL0     O77784   7.022   1.518   1.186  0.9503 -0.3126 -0.7515
  577MOL0     C77785   7.014   1.381   1.192 -0.1166 -0.1679 -1.1597
  577MOL0     C77786   6.897   1.313   1.174  0.9437  0.7815  0.2879
  577MOL0     C77787   6.874   1.178   1.192 -0.6344 -0.5822  0.4145
  577MOL0     C77788   6.988   1.101   1.218  0.0301 -0.3779  0.0376
  577MOL0     C77789   6.978   0.957   1.260  0.2416 -0.2209  0.1758
  577MOL0     O77790   7.094   0.888   1.289 -0.4165 -0.8902  0.4659
  577MOL0     C77791   7.097   0.752   1.317  0.3004  0.1302  0.8482
  577MOL0     C77792   7.218   0.691   1.294  0.4334 -0.1039  0.2602
  577MOL0     C77793   7.238   0.558   1.327  0.1669  0.0918 -0.7082
  577MOL0     C77794   7.128   0.482   1.386  0.5327  0.7312  0.3638
  577MOL0     O77795   7.158   0.350   1.416 -0.5790  0.9355  0.0678
  577MOL0     C77796   7.080   0.235   1.376  0.4667  0.2654 -0.1106
  577MOL0     C77797   7.018   0.161   1.495  0.9685 -0.2530 -0.3187
  577MOL0     C77798   6.929   0.243   1.589  0.5357  0.7970  1.0866
  577MOL0     C77799   6.785   0.262   1.518 -0.5650  0.6971 -0.8618
  577MOL0     C77800   6.700   0.341   1.611  0.5680 -0.5661 -0.7566
  577MOL0     C77801   6.564   0.387   1.561  0.3974 -0.5054  0.1819
  577MOL0     C77802   6.479   0.273   1.496 -0.1625  0.4474  0.1896
  577MOL0     C77803   6.323   0.299   1.477  0.0616 -0.2569  0.4428
  577MOL0    Cl77804   6.312   0.440   1.368 -0.0287  0.5754  0.2160
  577MOL0     C77805   7.007   0.547   1.417  0.2478 -0.3016  0.0686
  577MOL0     C77806   6.989   0.681   1.379  0.1711 -0.0802 -0.5717
  577MOL0     O77807   6.873   0.903   1.231  0.4614 -0.5585  0.0966
  577MOL0     C77808   7.108   1.167   1.232 -0.4178  0.3426 -0.6435
  577MOL0     C77809   7.127   1.308   1.221  0.2194  0.3074  0.7532
  577MOL0     N77810   6.730   2.033   1.098 -0.8655 -0.5657 -0.3620
  577MOL0     N77811   6.609   2.031   1.076 -0.2505 -0.7274  0.5643
  577MOL0     C77812   6.513   1.375   1.614  0.1069  0.6350  0.0797
  577MOL0     C77813   6.520   1.459   1.717 -0.2942 -0.6971 -0.4525
  577MOL0     C77814   6.614   1.725   2.060 -0.5363 -0.8661 -0.9271
  577MOL0     C77815   6.572   1.847   2.006  1.5288 -0.3838 -0.6918
  577MOL0     C77816   6.580   1.965   2.078  0.3893  0.8844  0.0286
  577MOL0     C77817   6.615   1.954   2.217  0.2581 -0.8117 -0.7634
  577MOL0     O77818   6.622   2.068   2.303 -0.5920 -0.5258  0.1705
  577MOL0     C77819   6.515   2.165   2.276 -0.4073  0.4912 -0.4820
  577MOL0     C77820   6.522   2.283   2.374  0.4956  0.8143 -0.0475
  577MOL0     C77821   6.514   2.246   2.518 -0.5956  0.2777 -0.1730
  577MOL0     C77822   6.405   2.143   2.562  0.9000  0.9812  0.0125
  577MOL0     C77823   6.436   2.103   2.697  0.1532  0.1737 -0.3766
  577MOL0     C77824   6.449   2.066   2.812  0.6817  0.5781 -0.6840
  577MOL0     C77825   6.654   1.837   2.275 -0.0142  0.7922  0.1004
  577MOL0     C77826   6.655   1.723   2.192  0.2597 -0.6174 -0.2519
  577MOL0     C77827   6.690   1.589   2.252 -0.0864 -0.1963 -0.2791
  577MOL0     H77828   6.851   1.554   1.677  1.4408 -1.2744  0.5451
  577MOL0     H77829   6.827   1.401   1.483  1.2182  3.1507  1.0745
  577MOL0     H77830   6.432   1.160   1.438  1.0851  1.7838  2.8425
  577MOL0     H77831   6.384   1.309   1.397 -0.2462 -1.9331 -0.5614
  577MOL0     H77832   6.361   1.184   1.195 -0.3353 -0.9700  2.2126
  577MOL0     H77833   6.523   1.121   1.231  0.3210  0.2825  4.8294
  577MOL0     H77834   6.466   1.279   1.027 -3.3503  0.6966 -0.3315
  577MOL0     H77835   6.613   1.323   1.125  0.2208 -2.2717 -0.7460
  577MOL0     H77836   6.340   1.470   1.180  0.0693  0.6479 -2.4361
  577MOL0     H77837   6.494   1.496   1.237 -1.2739 -1.5965  0.7770
  577MOL0     H77838   6.562   1.530   0.986  0.6714  0.4979  0.9822
  577MOL0     H77839   6.380   1.519   0.946 -0.8673  3.1352 -0.1917
  577MOL0     H77840   6.353   1.706   1.111 -3.1369  0.9319 -3.0124
  577MOL0     H77841   6.524   1.743   1.094 -1.0733 -0.4508 -0.2068
  577MOL0     H77842   6.293   1.767   0.901 -0.2508 -3.6130  1.2944
  577MOL0     H77843   6.443   1.709   0.835  1.6048  1.6540  0.4798
  577MOL0     H77844   6.423   1.951   0.817 -0.4775  2.9191  1.1476
  577MOL0     H77845   6.385   1.949   1.000  1.2668 -1.8713  2.9061
  577MOL0     H77846   6.722   1.819   0.853  1.1314 -1.3519  0.8868
  577MOL0     H77847   6.966   1.919   0.903  0.0479 -2.7463 -1.4475
  577MOL0     H77848   6.988   1.979   1.076 -2.0264 -0.7141  0.7536
  577MOL0     H77849   6.846   1.701   1.013  1.3644 -0.0214 -3.9273
  577MOL0     H77850   7.026   1.708   1.025  0.1962  0.4249  0.6264
  577MOL0     H77851   6.835   1.797   1.231 -0.7346 -3.2645  2.3249
  577MOL0     H77852   7.007   1.802   1.243 -1.4110  0.9647  2.1937
  577MOL0     H77853   6.824   1.563   1.225  1.7037 -0.5882 -3.4374
  577MOL0     H77854   6.925   1.596   1.366  1.3178 -3.6637  0.2887
  577MOL0     H77855   6.811   1.375   1.150  0.4663 -0.5102 -1.5635
  577MOL0     H77856   6.779   1.128   1.181 -0.7200 -1.2291  3.1672
  577MOL0     H77857   7.313   0.739   1.269 -0.1141 -0.1912 -2.2705
  577MOL0     H77858   7.335   0.510   1.328  0.6822  1.1074  0.4005
  577MOL0     H77859   7.022   0.270   1.291  1.7233  2.3796 -0.1642
  577MOL0     H77860   7.145   0.160   1.330 -2.3052 -2.1686 -0.3552
  577MOL0     H77861   6.956   0.081   1.454 -1.4561  2.1023 -1.5453
  577MOL0     H77862   7.097   0.129   1.563  1.6979  2.9753  0.5265
  577MOL0     H77863   6.926   0.189   1.684  1.8415  0.5614  1.0145
  577MOL0     H77864   6.976   0.337   1.619  4.1666  0.2062 -1.9571
  577MOL0     H77865   6.755   0.159   1.494  0.3732 -0.2268  1.6105
  577MOL0     H77866   6.793   0.312   1.421 -1.9306 -0.4125 -1.5877
  577MOL0     H77867   6.757   0.431   1.634 -0.3464  0.2500 -1.6382
  577MOL0     H77868   6.686   0.278   1.700 -1.2673 -1.1578 -1.4290
  577MOL0     H77869   6.496   0.435   1.632  1.3890  3.1453 -1.1247
  577MOL0     H77870   6.576   0.464   1.484 -2.2198 -0.4699 -0.2736
  577MOL0     H77871   6.487   0.183   1.558  2.7713  0.4595 -0.0419
  577MOL0     H77872   6.524   0.244   1.401 -1.1051 -0.6960  0.0639
  577MOL0     H77873   6.271   0.216   1.428  0.3650  1.9091 -4.1757
  577MOL0     H77874   6.271   0.322   1.570  0.3629  2.0794  0.0994
  577MOL0     H77875   6.937   0.486   1.474  0.3912 -0.4614  0.0750
  577MOL0     H77876   6.903   0.729   1.425  0.0252 -1.7089  0.9435
  577MOL0     H77877   7.188   1.108   1.275 -2.7881 -1.7478  1.1820
  577MOL0     H77878   7.222   1.360   1.221  0.3706  0.0378  0.1324
  577MOL0     H77879   6.417   1.327   1.600  0.9453 -0.4630 -2.8306
  577MOL0     H77880   6.431   1.477   1.777 -0.1526 -1.5555  0.0250
  577MOL0     H77881   6.536   1.869   1.906 -3.2438 -1.3258  0.5652
  577MOL0     H77882   6.564   2.058   2.024 -0.8833 -0.0454 -1.2554
  577MOL0     H77883   6.421   2.110   2.279  0.9311 -1.9245  0.9892
  577MOL0     H77884   6.515   2.205   2.174  1.7877  4.7339  0.9562
  577MOL0     H77885   6.440   2.351   2.352  0.5613 -0.3307 -4.9855
  577MOL0     H77886   6.619   2.332   2.359  2.4913 -1.9083  2.6871
  577MOL0     H77887   6.496   2.341   2.570 -2.0613 -1.1165  2.0828
  577MOL0     H77888   6.613   2.209   2.546 -1.2928 -1.3351  0.3054
  577MOL0     H77889   6.305   2.182   2.540  0.8698 -1.2961 -5.3148
  577MOL0     H77890   6.398   2.049   2.507 -2.7786  0.3698  1.2425
  577MOL0     H77891   6.465   2.002   2.896 -2.5618 -0.9610 -1.0749
  577MOL0     H77892   6.667   1.828   2.383 -1.8309  0.2159  0.2988
  577MOL0     H77893   6.777   1.549   2.199  0.5093  1.4385 -0.5913
  577MOL0     H77894   6.705   1.596   2.360 -3.4048  1.7081  0.1766
  577MOL0     H77895   6.607   1.520   2.238  0.7191 -1.4673  0.9273
  578MOL0     O77896   4.271   7.339   0.715  0.9407 -1.1452  0.0556
  578MOL0     C77897   4.248   7.230   0.764  0.0992 -0.5278 -0.5273
  578MOL0     O77898   4.251   7.205   0.903 -0.7486 -0.5263 -0.8020
  578MOL0     C77899   4.295   7.305   0.980 -0.0154 -1.1665  0.6882
  578MOL0     C77900   4.420   7.316   1.048 -0.2387 -1.0541 -0.9041
  578MOL0     C77901   4.451   7.428   1.141  0.5965 -0.3322  1.2727
  578MOL0     C77902   4.364   7.542   1.157 -0.7462  0.0562  0.9748
  578MOL0     O77903   4.409   7.664   1.206 -0.0005 -0.2368  0.1397
  578MOL0     C77904   4.534   7.683   1.273  0.7326 -1.0512 -0.2809
  578MOL0     C77905   4.557   7.833   1.301  0.4363  0.1480  0.6752
  578MOL0     C77906   4.453   7.886   1.390 -0.2849 -0.9621  0.2784
  578MOL0     C77907   4.501   7.900   1.536  0.1977 -0.2535  0.1272
  578MOL0     C77908   4.384   7.911   1.627 -0.4137  0.8152  0.0120
  578MOL0     C77909   4.354   8.057   1.658  0.7040  0.8276  0.4874
  578MOL0     C77910   4.212   8.084   1.721  0.3526  0.0599 -0.6409
  578MOL0     C77911   4.098   8.053   1.630  0.4821 -0.6469  0.6684
  578MOL0     N77912   3.965   8.051   1.696  0.0128 -1.2343  0.4367
  578MOL0     C77913   3.901   8.165   1.750  0.5110 -0.4969  1.0728
  578MOL0     C77914   3.822   8.110   1.840  0.1444  0.1586  0.1336
  578MOL0     C77915   3.733   8.176   1.936 -0.7989 -0.2332 -0.3577
  578MOL0     C77916   3.599   8.101   1.966 -0.2840 -1.1063 -0.5420
  578MOL0     C77917   3.513   8.183   2.067  0.6371  1.1050 -0.7807
  578MOL0     C77918   3.367   8.137   2.081  0.2113  0.5282  0.1548
  578MOL0     O77919   3.307   8.109   1.951 -0.4206  0.6834 -0.5153
  578MOL0     C77920   3.255   8.212   1.879 -0.2358  0.2474 -0.7667
  578MOL0     C77921   3.227   8.339   1.920  0.1309  0.3517 -0.0589
  578MOL0     C77922   3.167   8.438   1.835 -0.3861  1.2490  0.6431
  578MOL0     C77923   3.133   8.388   1.705 -0.3827 -0.5179 -0.2143
  578MOL0     C77924   3.085   8.496   1.613 -0.5183  0.5902  0.1618
  578MOL0     O77925   3.104   8.623   1.648 -0.0971  0.1755 -0.4046
  578MOL0     C77926   3.025   8.731   1.606 -1.2502 -0.2055  0.4554
  578MOL0     C77927   3.054   8.849   1.680  1.2014  1.0600  0.7875
  578MOL0     C77928   2.963   8.949   1.664  0.3927 -0.6190 -0.1617
  578MOL0     C77929   2.843   8.933   1.593  0.2643  0.3614  0.1909
  578MOL0     O77930   2.752   9.039   1.573  0.4636  1.1265  0.2759
  578MOL0     C77931   2.723   9.108   1.700 -0.5410  0.4053 -0.2361
  578MOL0     C77932   2.610   9.202   1.678  0.6657  0.1347  0.1992
  578MOL0     C77933   2.569   9.268   1.820 -0.3617  0.0176 -0.0636
  578MOL0     C77934   2.488   9.396   1.785  0.0262  0.4519  0.5896
  578MOL0     C77935   2.428   9.473   1.906  0.1233  0.0476 -0.2842
  578MOL0     C77936   2.344   9.385   2.000 -1.7151  0.1766  0.8654
  578MOL0     C77937   2.251   9.472   2.092 -0.5637  0.0292  0.2811
  578MOL0     C77938   2.268   9.420   2.233  0.2965  0.0463  0.8253
  578MOL0    Cl77939   2.426   9.477   2.316  0.0474  0.6684  0.0966
  578MOL0     C77940   2.822   8.818   1.520  0.2483 -0.2752 -0.8881
  578MOL0     C77941   2.916   8.725   1.518 -0.4895  0.1808 -0.4173
  578MOL0     O77942   3.058   8.455   1.494 -0.0902  0.2217  0.5960
  578MOL0     C77943   3.155   8.249   1.670 -0.4472 -0.3104 -0.0484
  578MOL0     C77944   3.226   8.169   1.762 -0.1086  0.0735 -0.4713
  578MOL0     N77945   3.849   7.977   1.862 -0.5149 -0.0128  0.3135
  578MOL0     N77946   3.924   7.949   1.766  0.1094 -0.6382  0.3034
  578MOL0     C77947   4.245   7.534   1.076 -0.3640 -0.0082 -0.3112
  578MOL0     C77948   4.208   7.418   1.005  0.5041  0.6804  0.6413
  578MOL0     C77949   4.207   7.113   0.675 -0.5388  0.9048 -0.1639
  578MOL0     C77950   4.176   7.141   0.544 -0.1660 -0.1885 -0.2645
  578MOL0     C77951   4.144   7.046   0.449  0.3565 -0.8752 -0.0500
  578MOL0     C77952   4.146   6.912   0.486 -1.1203 -0.9220  0.1977
  578MOL0     O77953   4.095   6.813   0.408  0.6461 -0.1913 -0.8548
  578MOL0     C77954   4.143   6.801   0.272  1.2041 -0.5507 -0.4436
  578MOL0     C77955   4.283   6.758   0.272 -0.4170  0.0483  0.1375
  578MOL0     C77956   4.348   6.723   0.142 -0.6879  0.9929 -0.6679
  578MOL0     C77957   4.495   6.675   0.151 -0.7831 -0.7233  0.3350
  578MOL0     C77958   4.488   6.549   0.217 -0.3111  0.4314  0.6710
  578MOL0     C77959   4.484   6.446   0.276  0.6665 -0.0493 -0.5778
  578MOL0     C77960   4.175   6.886   0.620  0.3227  1.2095  0.5741
  578MOL0     C77961   4.207   6.983   0.711 -0.7361 -0.3149 -0.4708
  578MOL0     C77962   4.238   6.939   0.852  0.1654  0.0060 -0.0803
  578MOL0     H77963   4.502   7.247   1.032 -1.3111 -2.3079 -1.1436
  578MOL0     H77964   4.552   7.425   1.182  0.4010 -0.5776  1.7469
  578MOL0     H77965   4.525   7.627   1.367  1.2960  2.4713  2.0320
  578MOL0     H77966   4.611   7.627   1.219  1.1051 -2.3755  1.5357
  578MOL0     H77967   4.547   7.891   1.208 -3.6069  0.3149  1.0191
  578MOL0     H77968   4.655   7.846   1.347  0.0092 -0.9331  1.9617
  578MOL0     H77969   4.361   7.827   1.394 -3.1953  3.1919  1.0550
  578MOL0     H77970   4.422   7.983   1.348  0.6011 -1.4965 -1.7134
  578MOL0     H77971   4.557   7.810   1.563  0.8366  0.0613 -0.1197
  578MOL0     H77972   4.568   7.986   1.528 -2.2543  1.8059  0.4385
  578MOL0     H77973   4.305   7.850   1.582  0.8566  0.1374 -1.3751
  578MOL0     H77974   4.410   7.862   1.721 -0.3724  0.8201  0.0030
  578MOL0     H77975   4.423   8.110   1.724  1.9211 -0.3106  0.1539
  578MOL0     H77976   4.346   8.100   1.558 -0.6158  0.4832  0.4310
  578MOL0     H77977   4.210   8.185   1.763  1.7373 -0.7467  1.5652
  578MOL0     H77978   4.191   8.015   1.803 -0.4238  0.4057 -0.5396
  578MOL0     H77979   4.096   8.130   1.553  1.5918 -2.3901 -1.1887
  578MOL0     H77980   4.093   7.957   1.577  1.0976  0.2103 -1.0071
  578MOL0     H77981   3.923   8.264   1.713 -2.6513  0.4685  1.4973
  578MOL0     H77982   3.788   8.187   2.030 -1.5985  0.4117  0.0394
  578MOL0     H77983   3.710   8.277   1.900 -1.4049 -0.0182  0.6053
  578MOL0     H77984   3.558   8.075   1.868  3.1466  0.5368 -2.6388
  578MOL0     H77985   3.631   8.011   2.018  1.4509 -1.8926 -2.7601
  578MOL0     H77986   3.514   8.292   2.057  0.4238  1.1730 -0.1191
  578MOL0     H77987   3.555   8.153   2.163 -0.3322 -0.4522 -0.8106
  578MOL0     H77988   3.303   8.207   2.137  0.2738  2.6028 -2.1875
  578MOL0     H77989   3.354   8.040   2.130 -3.1503 -0.6645 -2.6646
  578MOL0     H77990   3.239   8.369   2.024 -0.3397  1.6259 -0.3537
  578MOL0     H77991   3.155   8.541   1.865 -2.2631  1.1937  0.2233
  578MOL0     H77992   3.120   8.865   1.765  1.2067  1.5528  0.6979
  578MOL0     H77993   2.994   9.044   1.709 -1.2427  0.7488 -1.7766
  578MOL0     H77994   2.693   9.030   1.770 -0.6521  2.2152  1.8163
  578MOL0     H77995   2.812   9.159   1.738 -0.0566 -2.1471  2.3065
  578MOL0     H77996   2.630   9.275   1.599 -1.0252 -0.5401 -0.9126
  578MOL0     H77997   2.520   9.153   1.640  0.1891  1.3465 -0.2905
  578MOL0     H77998   2.501   9.200   1.873  1.0902 -0.7051  0.9408
  578MOL0     H77999   2.659   9.296   1.875  1.8163  0.4356 -3.5147
  578MOL0     H78000   2.404   9.355   1.728 -0.2484 -1.8164  2.4544
  578MOL0     H78001   2.555   9.459   1.726  0.9561  1.4852  2.6602
  578MOL0     H78002   2.376   9.562   1.870 -0.5101  0.1327  0.8107
  578MOL0     H78003   2.520   9.511   1.953  0.9297 -2.5590  0.4227
  578MOL0     H78004   2.283   9.315   1.941  1.3248 -1.2634 -0.8347
  578MOL0     H78005   2.410   9.318   2.057 -0.9520 -0.2074 -0.4123
  578MOL0     H78006   2.149   9.470   2.053 -1.3427  1.4640  2.0739
  578MOL0     H78007   2.289   9.574   2.099  4.7007 -1.7106  3.3424
  578MOL0     H78008   2.180   9.462   2.283 -2.6664 -4.2671 -0.1605
  578MOL0     H78009   2.255   9.312   2.241  1.2006 -0.2143 -0.8168
  578MOL0     H78010   2.731   8.800   1.464  0.8275 -3.3420 -1.0056
  578MOL0     H78011   2.897   8.635   1.460  2.4086 -1.1287  0.4691
  578MOL0     H78012   3.131   8.211   1.572  0.3885  1.3550 -0.9438
  578MOL0     H78013   3.257   8.075   1.719  3.2425  0.7369  0.2254
  578MOL0     H78014   4.189   7.627   1.077  2.2604  1.6658 -0.5643
  578MOL0     H78015   4.110   7.408   0.958  1.2490 -2.4297 -0.5083
  578MOL0     H78016   4.173   7.241   0.502 -0.4433 -0.0240  0.1420
  578MOL0     H78017   4.105   7.076   0.353  0.6730  1.3212  0.4569
  578MOL0     H78018   4.135   6.899   0.223  0.3981  0.7978  2.1933
  578MOL0     H78019   4.080   6.726   0.223  2.7725 -0.9538 -1.9537
  578MOL0     H78020   4.290   6.674   0.342 -1.1482  0.3341  0.5785
  578MOL0     H78021   4.329   6.848   0.314  0.0146  0.6466 -1.5362
  578MOL0     H78022   4.336   6.811   0.079 -2.3312 -0.7872 -3.0076
  578MOL0     H78023   4.297   6.648   0.081 -1.4474  1.7681 -1.0067
  578MOL0     H78024   4.543   6.663   0.054  0.8598  0.2199  0.9901
  578MOL0     H78025   4.555   6.736   0.219 -0.0865 -1.4095  0.3380
  578MOL0     H78026   4.465   6.364   0.342  2.0479  0.6258  0.7022
  578MOL0     H78027   4.154   6.782   0.645 -1.5914  1.1100 -1.1637
  578MOL0     H78028   4.161   6.955   0.928  0.5315  0.9020  0.1257
  578MOL0     H78029   4.248   6.832   0.868 -1.3934  0.1524  2.4362
  578MOL0     H78030   4.338   6.980   0.872  0.3716 -0.3723 -0.3323
  579MOL0     O78031   0.126   6.007   2.485  0.5212 -0.2856  0.0247
  579MOL0     C78032   0.167   6.100   2.563  0.4368 -0.3282 -0.4586
  579MOL0     O78033   0.191   6.098   2.700  0.3158 -0.8740  0.0640
  579MOL0     C78034   0.225   5.986   2.771  0.1700  0.7427 -0.7177
  579MOL0     C78035   0.257   5.984   2.908  0.2427  1.1798 -0.2919
  579MOL0     C78036   0.290   5.862   2.978  0.2048 -0.0685  0.7977
  579MOL0     C78037   0.294   5.741   2.910 -0.0288 -0.4382  0.4517
  579MOL0     O78038   0.361   5.630   2.946  0.2431 -0.0650 -0.9991
  579MOL0     C78039   0.415   5.627   3.079 -0.0620  0.2324 -0.6331
  579MOL0     C78040   0.487   5.492   3.095 -0.6500 -0.2038  0.1359
  579MOL0     C78041   0.534   5.454   3.238  0.2467  0.3071 -0.6062
  579MOL0     C78042   0.653   5.540   3.267  0.1775 -0.6857 -0.0766
  579MOL0     C78043   0.686   5.537   3.414 -0.3228 -0.6523  0.1984
  579MOL0     C78044   0.817   5.611   3.431  0.4785  0.1031 -0.8273
  579MOL0     C78045   0.876   5.580   3.572  0.2267 -0.3199  1.1036
  579MOL0     C78046   0.984   5.677   3.613 -0.5239  0.0655  0.7948
  579MOL0     N78047   1.036   5.653   3.758  0.1104 -0.6250  0.4559
  579MOL0     C78048   0.986   5.560   3.845  0.2885  0.3896 -0.3529
  579MOL0     C78049   1.040   5.596   3.964  0.4135  0.2384  0.4203
  579MOL0     C78050   1.010   5.517   4.083  0.0897  0.3069  0.2701
  579MOL0     C78051   0.860   5.533   4.126  0.6950 -0.3447  1.1051
  579MOL0     C78052   0.821   5.458   4.257  0.0692 -0.2281  0.1403
  579MOL0     C78053   0.854   5.308   4.256  0.9476 -0.2356  0.3794
  579MOL0     O78054   0.752   5.240   4.330 -0.0310  0.2788 -0.3724
  579MOL0     C78055   0.638   5.203   4.255  0.1003  0.7844  0.3983
  579MOL0     C78056   0.545   5.110   4.299 -0.9941  0.0735 -0.2237
  579MOL0     C78057   0.440   5.062   4.222  0.2342  1.1808 -0.2306
  579MOL0     C78058   0.415   5.126   4.099  0.5881 -0.1696 -0.4416
  579MOL0     C78059   0.293   5.088   4.017  0.2201 -0.5302 -0.3407
  579MOL0     O78060   0.205   4.996   4.068 -0.0782 -0.5702  0.3686
  579MOL0     C78061   0.135   4.912   3.977 -0.2175  0.0210  0.6684
  579MOL0     C78062   0.176   4.777   3.957  0.1328  0.0595 -0.6670
  579MOL0     C78063   0.104   4.684   3.872  0.4344 -0.0785 -0.5044
  579MOL0     C78064   0.004   4.734   3.791  0.3931 -0.3703  0.3753
  579MOL0     O78065  -0.069   4.662   3.698  0.6458  0.0688  0.1229
  579MOL0     C78066  -0.054   4.524   3.684  0.2664  0.4206  0.1693
  579MOL0     C78067  -0.141   4.474   3.568 -0.3232  0.1196  0.0231
  579MOL0     C78068  -0.271   4.421   3.609 -0.0133 -1.2923 -0.7915
  579MOL0     C78069  -0.328   4.339   3.492  0.9808  0.0763  0.1871
  579MOL0     C78070  -0.471   4.293   3.535  0.4455 -0.5528 -0.9142
  579MOL0     C78071  -0.554   4.256   3.411  0.5750  0.5250  0.3511
  579MOL0     C78072  -0.531   4.112   3.356 -0.4119 -0.1064  0.4336
  579MOL0     C78073  -0.652   4.041   3.296 -0.3477  1.2022 -0.9337
  579MOL0    Cl78074  -0.631   3.871   3.265 -0.3103  0.0298  0.7315
  579MOL0     C78075  -0.024   4.874   3.800 -0.1978 -0.1611 -0.6366
  579MOL0     C78076   0.036   4.962   3.886  1.0090 -0.2161 -0.0549
  579MOL0     O78077   0.273   5.152   3.913 -0.1492 -0.5777  0.4578
  579MOL0     C78078   0.497   5.225   4.054  0.0454  0.6017 -0.8860
  579MOL0     C78079   0.616   5.255   4.128  0.6758 -0.1778 -0.6554
  579MOL0     N78080   1.090   5.723   3.953  0.1198  0.2987 -0.1816
  579MOL0     N78081   1.096   5.749   3.834 -0.1655  0.1609 -0.3317
  579MOL0     C78082   0.259   5.743   2.777  0.0644 -0.8345 -0.4247
  579MOL0     C78083   0.225   5.854   2.706  0.0457 -0.0929 -0.8291
  579MOL0     C78084   0.185   6.238   2.494  0.0098  0.3679 -0.7422
  579MOL0     C78085   0.140   6.248   2.356 -0.4733  0.1796 -0.5973
  579MOL0     C78086   0.144   6.365   2.285  0.0623  0.4619 -0.5700
  579MOL0     C78087   0.200   6.478   2.347  0.5028 -0.4249  0.5630
  579MOL0     O78088   0.204   6.603   2.301  0.5320 -1.1432  1.2691
  579MOL0     C78089   0.173   6.641   2.168 -0.3016  0.2373  0.2007
  579MOL0     C78090   0.089   6.765   2.159  1.6082  0.0280 -0.6615
  579MOL0     C78091   0.042   6.780   2.016  0.7130  0.0912  0.4216
  579MOL0     C78092  -0.024   6.920   1.983  0.3608  0.2163 -0.8668
  579MOL0     C78093  -0.152   6.931   2.055 -1.4117  0.2756 -0.2883
  579MOL0     C78094  -0.263   6.922   2.092  0.0900 -0.3376 -0.0809
  579MOL0     C78095   0.239   6.475   2.483 -0.7822  0.4443 -0.6749
  579MOL0     C78096   0.237   6.356   2.562 -0.5349 -0.3038  0.3022
  579MOL0     C78097   0.271   6.378   2.713 -0.4603  0.5585 -0.4125
  579MOL0     H78098   0.265   6.080   2.957  1.6636  3.0173 -3.7692
  579MOL0     H78099   0.316   5.867   3.083  2.3929 -3.7787  0.6095
  579MOL0     H78100   0.485   5.711   3.076  0.8636 -0.4916 -0.0071
  579MOL0     H78101   0.342   5.647   3.157 -2.9304 -0.6154 -2.9212
  579MOL0     H78102   0.581   5.503   3.040  0.4325  0.1063  1.9734
  579MOL0     H78103   0.426   5.411   3.053  0.6006 -0.7510 -0.6839
  579MOL0     H78104   0.557   5.347   3.241 -2.0253 -0.2127  1.1007
  579MOL0     H78105   0.449   5.467   3.306 -2.2171  1.1667 -3.6222
  579MOL0     H78106   0.728   5.501   3.196  1.6108  2.2562 -0.3423
  579MOL0     H78107   0.635   5.639   3.224  2.4925 -0.1501  0.0109
  579MOL0     H78108   0.603   5.583   3.467 -1.6911  0.4279 -2.6585
  579MOL0     H78109   0.678   5.434   3.450 -0.9152 -1.1385 -1.2587
  579MOL0     H78110   0.882   5.556   3.363 -0.5315  0.0351 -1.7681
  579MOL0     H78111   0.822   5.717   3.405 -1.8559  0.6384  0.5975
  579MOL0     H78112   0.900   5.473   3.569 -1.9221 -0.8402 -0.4804
  579MOL0     H78113   0.797   5.602   3.644 -1.3500  2.2170 -1.1819
  579MOL0     H78114   1.061   5.657   3.539 -1.6760 -4.6389  0.5846
  579MOL0     H78115   0.948   5.779   3.595  0.5395  0.0672 -1.7562
  579MOL0     H78116   0.933   5.468   3.820  0.1990  0.5698 -0.8379
  579MOL0     H78117   1.045   5.414   4.078  2.1533  1.0041 -0.4699
  579MOL0     H78118   1.067   5.555   4.169  2.3182  0.6341 -1.2669
  579MOL0     H78119   0.853   5.639   4.152 -2.1233 -1.1372  4.2395
  579MOL0     H78120   0.793   5.512   4.042 -0.2321 -0.3364  1.8288
  579MOL0     H78121   0.718   5.494   4.264  0.9023  2.5163 -0.3161
  579MOL0     H78122   0.875   5.494   4.345 -2.6064  0.4675  1.5881
  579MOL0     H78123   0.942   5.284   4.317  0.0582  1.1083  2.2961
  579MOL0     H78124   0.858   5.261   4.158 -0.1722 -0.3313  0.3687
  579MOL0     H78125   0.563   5.076   4.400 -1.7448  2.7179  0.8568
  579MOL0     H78126   0.376   4.982   4.257  0.9082  0.7987  0.1464
  579MOL0     H78127   0.260   4.741   4.016  3.3488 -0.1380 -4.8569
  579MOL0     H78128   0.114   4.576   3.877 -1.3653 -0.2389  0.9925
  579MOL0     H78129   0.049   4.495   3.664 -1.0316 -5.0413 -0.1895
  579MOL0     H78130  -0.070   4.475   3.781  3.0784 -1.1041 -0.0392
  579MOL0     H78131  -0.155   4.547   3.488 -3.4257 -1.6421 -1.2163
  579MOL0     H78132  -0.097   4.388   3.518 -0.6806  0.0049 -0.0942
  579MOL0     H78133  -0.252   4.366   3.702 -0.4710  0.8707  0.6662
  579MOL0     H78134  -0.339   4.504   3.632  2.2747  1.3487 -2.8520
  579MOL0     H78135  -0.266   4.250   3.480 -1.1339 -1.7339  1.7101
  579MOL0     H78136  -0.341   4.400   3.402 -1.0412 -0.3184  0.1633
  579MOL0     H78137  -0.534   4.369   3.582  0.7482 -1.5482  1.2462
  579MOL0     H78138  -0.461   4.211   3.607 -0.1671  1.5165  1.6961
  579MOL0     H78139  -0.658   4.264   3.444  0.5390  1.2746  0.0867
  579MOL0     H78140  -0.538   4.329   3.331  5.0854 -2.6506 -2.0832
  579MOL0     H78141  -0.490   4.060   3.443  0.6081  2.4662  1.5814
  579MOL0     H78142  -0.461   4.123   3.273 -0.3847  3.8108  0.8135
  579MOL0     H78143  -0.738   4.061   3.361 -0.8723  4.7672 -2.4787
  579MOL0     H78144  -0.679   4.092   3.204 -2.5385  1.7813 -0.0398
  579MOL0     H78145  -0.102   4.911   3.735 -1.5164 -3.7605 -1.2834
  579MOL0     H78146  -0.000   5.064   3.897 -2.2566 -1.3057  0.5063
  579MOL0     H78147   0.471   5.265   3.957 -0.4020  1.9175 -0.2452
  579MOL0     H78148   0.675   5.338   4.090  1.8327 -0.4453  0.5110
  579MOL0     H78149   0.226   5.646   2.740 -0.0535 -1.3250  0.8935
  579MOL0     H78150   0.185   5.838   2.606 -0.8369  1.8011 -0.8294
  579MOL0     H78151   0.102   6.164   2.298 -0.7035  0.2382 -0.5341
  579MOL0     H78152   0.111   6.368   2.182 -2.9717 -1.6152  0.2070
  579MOL0     H78153   0.128   6.556   2.114  3.0645 -1.1357 -0.6793
  579MOL0     H78154   0.269   6.662   2.121 -0.2053  0.5412  0.5357
  579MOL0     H78155   0.140   6.856   2.190 -0.9945  1.3696  0.0231
  579MOL0     H78156  -0.001   6.764   2.221 -0.8767  0.8474 -3.9223
  579MOL0     H78157  -0.031   6.706   1.982 -0.0026  1.8453 -2.2718
  579MOL0     H78158   0.128   6.765   1.949 -0.7353  1.4941 -1.8878
  579MOL0     H78159   0.038   7.005   2.011  1.7740 -1.0308 -0.0499
  579MOL0     H78160  -0.040   6.928   1.875  0.2459 -0.7522 -0.9341
  579MOL0     H78161  -0.363   6.896   2.121 -0.1201  0.6836  0.1544
  579MOL0     H78162   0.271   6.562   2.539  1.4328 -1.7375  1.6430
  579MOL0     H78163   0.312   6.474   2.747  0.5763 -0.0053 -0.0228
  579MOL0     H78164   0.178   6.358   2.767 -0.3965 -1.0833 -0.8706
  579MOL0     H78165   0.342   6.298   2.737 -2.5405 -2.1208 -2.4912
  580MOL0     O78166   0.694   3.539   0.124  0.3762  0.0263  0.4458
  580MOL0     C78167   0.792   3.482   0.161  0.1915  0.1634 -0.2716
  580MOL0     O78168   0.904   3.535   0.231 -0.0979  0.4371  0.6456
  580MOL0     C78169   0.903   3.670   0.262  0.0227  0.0623  0.6291
  580MOL0     C78170   1.006   3.743   0.215 -0.1537 -0.1585 -0.2190
  580MOL0     C78171   1.002   3.879   0.231 -1.1166  0.1892  0.3735
  580MOL0     C78172   0.896   3.938   0.309  0.0357  0.2663  0.3788
  580MOL0     O78173   0.881   4.074   0.340 -0.1845  0.2365  0.3878
  580MOL0     C78174   0.984   4.167   0.295  0.2716  0.1692 -0.5862
  580MOL0     C78175   0.943   4.302   0.358  0.4589  0.8483 -0.1656
  580MOL0     C78176   1.045   4.372   0.453  0.3615 -0.4917  0.4180
  580MOL0     C78177   1.035   4.348   0.599  0.3570  0.2136  0.0520
  580MOL0     C78178   0.897   4.381   0.666 -0.6491 -0.5045  0.5355
  580MOL0     C78179   0.899   4.364   0.814 -0.5723  0.1740  0.8228
  580MOL0     C78180   0.757   4.373   0.879 -0.8952 -0.7417  0.0282
  580MOL0     C78181   0.773   4.368   1.032  0.5394  0.1264  0.4689
  580MOL0     N78182   0.635   4.352   1.083  0.0818 -0.5267 -0.8332
  580MOL0     C78183   0.553   4.243   1.068  0.4117  0.4466  0.1396
  580MOL0     C78184   0.439   4.273   1.136  0.1141 -0.3062 -0.1838
  580MOL0     C78185   0.326   4.177   1.129 -0.1358 -0.5074 -0.3918
  580MOL0     C78186   0.280   4.146   1.263  0.8061  0.2320  0.1344
  580MOL0     C78187   0.387   4.091   1.361 -0.4711 -0.2955  0.8948
  580MOL0     C78188   0.418   3.943   1.337 -0.4421 -0.2668 -0.7102
  580MOL0     O78189   0.511   3.877   1.419  0.2729  0.2795  0.2909
  580MOL0     C78190   0.553   3.752   1.369  0.0203  0.5041  0.1540
  580MOL0     C78191   0.584   3.642   1.455  0.1327  0.1643 -1.0394
  580MOL0     C78192   0.627   3.520   1.419 -0.4976  0.2153  1.2936
  580MOL0     C78193   0.657   3.503   1.278  0.0633 -1.2014 -0.5109
  580MOL0     C78194   0.686   3.369   1.224  0.3439  0.4155 -0.3608
  580MOL0     O78195   0.637   3.340   1.108 -0.1325  0.2609  0.0496
  580MOL0     C78196   0.700   3.255   1.025 -1.0036  0.3997  0.5200
  580MOL0     C78197   0.640   3.228   0.908 -0.1540 -0.5244  0.3058
  580MOL0     C78198   0.678   3.132   0.815  0.3000  0.0733 -1.2438
  580MOL0     C78199   0.799   3.057   0.835  0.3568  0.9910  0.2146
  580MOL0     O78200   0.859   2.973   0.744  0.2198  0.7480  0.0595
  580MOL0     C78201   0.779   2.895   0.654 -0.0744 -0.3360 -0.2297
  580MOL0     C78202   0.814   2.745   0.679 -0.1452  0.3038  0.7073
  580MOL0     C78203   0.758   2.646   0.586 -0.2381  0.9699  0.2076
  580MOL0     C78204   0.629   2.586   0.634  0.1192 -0.6597 -0.2187
  580MOL0     C78205   0.598   2.461   0.551 -0.6206  0.4306 -0.1737
  580MOL0     C78206   0.462   2.417   0.590  0.4268 -0.8401  0.3061
  580MOL0     C78207   0.456   2.329   0.718  0.3976 -0.3069 -0.1974
  580MOL0     C78208   0.308   2.319   0.756  0.7568  0.9658 -0.4929
  580MOL0    Cl78209   0.285   2.203   0.904  0.2753 -0.0051 -0.4808
  580MOL0     C78210   0.872   3.084   0.950  0.6614  0.6254 -0.4824
  580MOL0     C78211   0.825   3.188   1.044 -1.0627  1.2071  0.4499
  580MOL0     O78212   0.748   3.290   1.305 -0.9787 -0.2610 -0.0920
  580MOL0     C78213   0.632   3.608   1.185 -1.0019 -0.1979  0.4853
  580MOL0     C78214   0.585   3.726   1.232  0.3442  0.5419 -0.1079
  580MOL0     N78215   0.451   4.402   1.196  0.6810 -0.9448  0.8094
  580MOL0     N78216   0.564   4.438   1.157 -0.6628 -0.6506 -0.4797
  580MOL0     C78217   0.799   3.864   0.361 -0.1486  0.1760  0.2687
  580MOL0     C78218   0.793   3.721   0.331  0.3195  0.0706  0.2628
  580MOL0     C78219   0.799   3.342   0.145 -0.8237  0.2184  0.5928
  580MOL0     C78220   0.841   3.259   0.254  0.7205  0.4541 -0.2252
  580MOL0     C78221   0.842   3.116   0.252 -0.5502 -0.5734 -0.6637
  580MOL0     C78222   0.828   3.056   0.125 -0.3200  0.3266 -0.9945
  580MOL0     O78223   0.819   2.921   0.117 -0.4309  0.1907 -0.0142
  580MOL0     C78224   0.938   2.861   0.067 -0.8176 -0.0744  0.3101
  580MOL0     C78225   0.913   2.820  -0.079  0.4504  0.2096  0.3786
  580MOL0     C78226   0.789   2.735  -0.093  0.1080 -0.9461 -0.5109
  580MOL0     C78227   0.751   2.702  -0.240  0.5643 -0.4937  0.3505
  580MOL0     C78228   0.645   2.597  -0.224  0.6452 -0.4644  0.2740
  580MOL0     C78229   0.572   2.499  -0.210 -0.1125  0.2605  0.2420
  580MOL0     C78230   0.790   3.141   0.015  0.6392 -0.1622 -1.1166
  580MOL0     C78231   0.779   3.274   0.019  0.4189 -0.3652  0.3941
  580MOL0     C78232   0.719   3.348  -0.106  0.0486 -0.1820 -0.2693
  580MOL0     H78233   1.085   3.701   0.154 -0.9830 -1.0404 -0.7057
  580MOL0     H78234   1.081   3.939   0.185 -1.4036 -0.4512 -1.0147
  580MOL0     H78235   1.085   4.144   0.331  0.7745  0.1590 -1.9425
  580MOL0     H78236   0.971   4.179   0.187 -1.1721  0.4921 -0.3962
  580MOL0     H78237   0.848   4.300   0.412 -0.2892  1.6439 -1.3915
  580MOL0     H78238   0.936   4.367   0.270  3.9091 -0.4319 -1.5640
  580MOL0     H78239   1.028   4.479   0.439 -2.4902 -1.2366 -3.8163
  580MOL0     H78240   1.146   4.347   0.422  0.4151  0.4367 -0.1941
  580MOL0     H78241   1.031   4.239   0.604  1.5022  0.0817 -1.3075
  580MOL0     H78242   1.116   4.386   0.663 -0.9853  1.5276  1.0167
  580MOL0     H78243   0.872   4.486   0.650  2.2365  0.4174  1.5453
  580MOL0     H78244   0.815   4.322   0.623  1.3287 -2.2674 -1.0118
  580MOL0     H78245   0.939   4.266   0.844  0.8369  0.8597  1.2254
  580MOL0     H78246   0.970   4.433   0.861 -0.1032 -0.1294  0.5633
  580MOL0     H78247   0.691   4.291   0.848 -0.7151 -0.9466  0.1847
  580MOL0     H78248   0.714   4.468   0.846 -0.0542  0.3711  2.0139
  580MOL0     H78249   0.823   4.277   1.066 -1.7147 -0.6196  2.0299
  580MOL0     H78250   0.822   4.456   1.074 -3.2695  3.5144 -1.4570
  580MOL0     H78251   0.574   4.150   1.016  0.4988  0.4533  0.1629
  580MOL0     H78252   0.242   4.215   1.071 -1.2547 -2.3916 -0.0785
  580MOL0     H78253   0.350   4.082   1.081 -2.4314 -0.8792 -0.8756
  580MOL0     H78254   0.240   4.235   1.311 -1.1661 -1.8971  2.7354
  580MOL0     H78255   0.199   4.073   1.255 -0.3374  1.4043  0.6862
  580MOL0     H78256   0.349   4.093   1.464 -0.7441 -0.3432  0.7959
  580MOL0     H78257   0.479   4.148   1.347 -1.8862  1.6706 -1.0475
  580MOL0     H78258   0.442   3.946   1.230 -0.5131  0.3921 -0.7116
  580MOL0     H78259   0.320   3.897   1.354 -1.9832  1.6036 -3.7435
  580MOL0     H78260   0.580   3.655   1.562  2.5663 -0.8363 -0.7632
  580MOL0     H78261   0.624   3.430   1.480 -3.0335  0.3335  1.4673
  580MOL0     H78262   0.550   3.282   0.879 -0.6483 -1.7612 -0.5649
  580MOL0     H78263   0.610   3.119   0.731 -1.9827 -2.1848  0.7766
  580MOL0     H78264   0.673   2.924   0.659  0.3658  1.9766 -2.2119
  580MOL0     H78265   0.803   2.935   0.555  0.5430 -1.9977 -0.7704
  580MOL0     H78266   0.923   2.742   0.669  0.1063 -2.7245  2.7712
  580MOL0     H78267   0.795   2.713   0.782 -1.9641 -0.5921  0.1432
  580MOL0     H78268   0.733   2.692   0.491  0.8496 -1.0971 -1.1701
  580MOL0     H78269   0.831   2.566   0.569  0.0717  1.4582 -0.7687
  580MOL0     H78270   0.544   2.655   0.622  1.1189  0.3459 -2.0955
  580MOL0     H78271   0.653   2.566   0.738  0.7419  0.7466 -0.0611
  580MOL0     H78272   0.680   2.391   0.565  2.3431  3.5242 -0.6701
  580MOL0     H78273   0.600   2.498   0.449 -0.3061 -1.7507 -1.0091
  580MOL0     H78274   0.405   2.509   0.596 -0.7458 -1.3517 -1.9266
  580MOL0     H78275   0.417   2.371   0.501  0.2356 -0.5025  0.2253
  580MOL0     H78276   0.505   2.368   0.808 -2.5926  1.1387  0.9487
  580MOL0     H78277   0.497   2.229   0.699  0.7363  0.0438 -1.4045
  580MOL0     H78278   0.268   2.421   0.765  0.2767  0.8019 -0.7451
  580MOL0     H78279   0.260   2.275   0.668 -0.1440  1.0884 -0.0728
  580MOL0     H78280   0.970   3.038   0.956  0.0454 -0.9602 -1.9774
  580MOL0     H78281   0.894   3.216   1.123  1.2094 -2.4241  0.0201
  580MOL0     H78282   0.673   3.596   1.085 -0.9888  3.9911 -0.2047
  580MOL0     H78283   0.577   3.805   1.158  1.1972 -0.2534 -1.0906
  580MOL0     H78284   0.741   3.926   0.428  2.5162  3.2486 -0.0155
  580MOL0     H78285   0.710   3.667   0.374 -0.2359  0.4816 -0.2786
  580MOL0     H78286   0.855   3.299   0.354  2.1262 -0.2858 -0.1108
  580MOL0     H78287   0.861   3.065   0.345 -0.3507  1.8289  0.7095
  580MOL0     H78288   0.958   2.765   0.115  1.6538  0.4591  0.5028
  580MOL0     H78289   1.030   2.920   0.077 -0.1184 -1.1355  0.3952
  580MOL0     H78290   1.003   2.770  -0.116 -0.4260 -0.7800 -0.4859
  580MOL0     H78291   0.905   2.911  -0.140 -1.4064 -1.0041 -1.3291
  580MOL0     H78292   0.704   2.780  -0.042 -1.4132 -2.9751 -1.1545
  580MOL0     H78293   0.804   2.631  -0.060 -0.0323 -1.3310 -1.6400
  580MOL0     H78294   0.713   2.796  -0.283  1.0749 -0.3425  0.2239
  580MOL0     H78295   0.832   2.669  -0.306  3.7694  1.4512  3.0031
  580MOL0     H78296   0.519   2.407  -0.195  0.1043  0.3324  1.5745
  580MOL0     H78297   0.772   3.096  -0.081  1.8708 -1.5911 -0.7193
  580MOL0     H78298   0.755   3.291  -0.192  0.1145 -0.6434  0.0558
  580MOL0     H78299   0.611   3.333  -0.111 -0.2995  2.2346 -0.9785
  580MOL0     H78300   0.754   3.451  -0.111 -0.4761 -0.0224 -0.6783
  581MOL0     O78301   4.018   8.495   1.735  0.2765  0.6967  0.3448
  581MOL0     C78302   4.038   8.581   1.821 -0.2154 -0.6844 -0.4482
  581MOL0     O78303   4.117   8.571   1.929  0.2157  0.0917  0.0334
  581MOL0     C78304   4.232   8.510   1.921 -0.2392 -0.8331  0.4530
  581MOL0     C78305   4.309   8.502   1.801 -0.1207  0.7632  0.0342
  581MOL0     C78306   4.420   8.418   1.803 -0.4417  0.4760 -0.4728
  581MOL0     C78307   4.453   8.333   1.907 -0.7417  0.4598  0.1020
  581MOL0     O78308   4.553   8.230   1.888 -0.2776 -0.5507  0.0593
  581MOL0     C78309   4.576   8.127   1.975 -0.2769 -0.0685 -0.4374
  581MOL0     C78310   4.718   8.078   1.960 -0.2487 -0.1292 -0.2297
  581MOL0     C78311   4.748   7.998   1.835 -0.0286  0.0948  0.3994
  581MOL0     C78312   4.890   7.947   1.820 -0.8444  0.1239  0.3830
  581MOL0     C78313   4.890   7.845   1.701 -0.6159 -0.4018  0.0324
  581MOL0     C78314   5.031   7.769   1.680  0.2118  0.3608 -0.1878
  581MOL0     C78315   5.132   7.856   1.623 -0.3627  0.3463  0.7314
  581MOL0     C78316   5.266   7.801   1.629 -0.5389 -0.0532  0.7296
  581MOL0     N78317   5.284   7.667   1.572 -0.1452  0.3919  0.1249
  581MOL0     C78318   5.294   7.636   1.444 -0.7954  0.0061 -0.4957
  581MOL0     C78319   5.283   7.506   1.432  0.5523  0.7301  0.1128
  581MOL0     C78320   5.296   7.419   1.312  0.3694 -0.9623  0.2635
  581MOL0     C78321   5.434   7.356   1.305  0.2905 -0.3068 -0.2181
  581MOL0     C78322   5.446   7.217   1.230 -0.9297 -0.9086  0.2200
  581MOL0     C78323   5.529   7.247   1.090  0.7368  1.0889 -1.0247
  581MOL0     O78324   5.663   7.302   1.128 -0.2816 -0.1160 -0.0274
  581MOL0     C78325   5.765   7.211   1.146 -0.0953 -0.3962 -0.3959
  581MOL0     C78326   5.776   7.111   1.054  0.4657  0.0325 -0.1648
  581MOL0     C78327   5.870   7.019   1.076 -0.0338  0.5719  0.6893
  581MOL0     C78328   5.945   7.007   1.194 -1.1031 -0.9972  0.6613
  581MOL0     C78329   6.037   6.889   1.214  0.8477 -0.1244  0.9966
  581MOL0     O78330   6.073   6.809   1.105  0.8507  0.3253  0.5491
  581MOL0     C78331   6.170   6.709   1.141  0.9066 -0.8058  0.2952
  581MOL0     C78332   6.125   6.578   1.147 -0.2575 -0.2245 -0.6796
  581MOL0     C78333   6.213   6.473   1.161  0.0416  0.5210  0.7591
  581MOL0     C78334   6.347   6.497   1.175  0.1730 -0.5893  0.1391
  581MOL0     O78335   6.443   6.417   1.202  1.1006  0.5654  0.0123
  581MOL0     C78336   6.423   6.278   1.196 -0.3118  0.2092  0.2629
  581MOL0     C78337   6.396   6.236   1.341  0.1871  0.1343 -0.0394
  581MOL0     C78338   6.340   6.090   1.339 -0.6451  0.2302  0.7433
  581MOL0     C78339   6.293   6.024   1.473  1.0466 -0.7393  0.5784
  581MOL0     C78340   6.403   6.009   1.569  0.2031  0.5910 -0.5628
  581MOL0     C78341   6.370   5.892   1.680  0.3194 -0.6083 -0.5638
  581MOL0     C78342   6.487   5.878   1.772  0.3290  0.0429 -0.9128
  581MOL0     C78343   6.457   5.774   1.875 -0.0293 -0.9086 -0.5059
  581MOL0    Cl78344   6.590   5.789   1.981 -0.2384 -0.3711 -0.3428
  581MOL0     C78345   6.393   6.637   1.176 -0.3471  0.1661  0.3270
  581MOL0     C78346   6.304   6.738   1.150 -0.4904  0.4017  0.0431
  581MOL0     O78347   6.075   6.866   1.325 -1.1195 -0.1411 -0.8394
  581MOL0     C78348   5.930   7.104   1.291  0.4958 -0.3978  0.3606
  581MOL0     C78349   5.846   7.210   1.261 -0.0460  0.1854  0.0274
  581MOL0     N78350   5.259   7.453   1.563  0.1872  0.3204  0.3859
  581MOL0     N78351   5.249   7.554   1.643 -0.4972 -0.8973 -0.5136
  581MOL0     C78352   4.378   8.348   2.030  0.1824 -0.6847  0.1041
  581MOL0     C78353   4.264   8.441   2.035 -0.2456  0.6383  0.0672
  581MOL0     C78354   3.968   8.709   1.784 -0.4573  0.2008  0.2421
  581MOL0     C78355   3.837   8.696   1.727  0.6376  1.1609 -0.3241
  581MOL0     C78356   3.772   8.809   1.690 -0.1836 -0.9643 -0.2139
  581MOL0     C78357   3.826   8.936   1.688  0.2077 -0.4868  1.1821
  581MOL0     O78358   3.756   9.039   1.632 -0.7245  0.1910 -0.4879
  581MOL0     C78359   3.839   9.146   1.581 -0.3319 -0.5617 -0.6954
  581MOL0     C78360   3.775   9.235   1.485  0.0542  0.4977  0.7314
  581MOL0     C78361   3.647   9.309   1.547 -1.2642 -0.7526 -0.1850
  581MOL0     C78362   3.677   9.409   1.662 -0.2784 -0.9857 -0.4037
  581MOL0     C78363   3.766   9.516   1.618  0.4188  1.1663 -0.3667
  581MOL0     C78364   3.821   9.619   1.582  0.5156  0.3278 -1.1240
  581MOL0     C78365   3.948   8.950   1.752 -0.1006  1.0922  0.6809
  581MOL0     C78366   4.020   8.842   1.806 -0.6265 -0.0883 -0.3046
  581MOL0     C78367   4.150   8.873   1.891 -0.5351  0.2579  0.5658
  581MOL0     H78368   4.284   8.550   1.707  3.2027 -3.1936 -3.2634
  581MOL0     H78369   4.477   8.409   1.711  0.8522 -2.7509  0.4876
  581MOL0     H78370   4.566   8.170   2.075 -0.2400  0.5384 -0.6924
  581MOL0     H78371   4.501   8.049   1.956 -1.7697  1.3991 -0.8655
  581MOL0     H78372   4.739   8.008   2.041  4.1116  2.2138  0.9695
  581MOL0     H78373   4.783   8.162   1.984  1.4316 -1.4607  0.0308
  581MOL0     H78374   4.730   8.059   1.746  1.2845 -0.2702 -0.1534
  581MOL0     H78375   4.681   7.912   1.827  0.8455 -0.4740 -1.7266
  581MOL0     H78376   4.963   8.026   1.798 -0.1150  0.0373  2.3115
  581MOL0     H78377   4.934   7.911   1.914 -1.4435  2.3011  1.5740
  581MOL0     H78378   4.819   7.764   1.722 -0.6254 -0.0423  1.4712
  581MOL0     H78379   4.868   7.894   1.606  0.0708 -0.5107 -0.1831
  581MOL0     H78380   5.069   7.732   1.776  1.0434  4.0502  1.0973
  581MOL0     H78381   5.019   7.682   1.615  1.0757 -0.1627  0.3339
  581MOL0     H78382   5.143   7.951   1.676  0.4964  2.0479 -2.2390
  581MOL0     H78383   5.120   7.876   1.516  1.1322 -1.6906  0.0933
  581MOL0     H78384   5.337   7.864   1.576  0.4037 -1.8190 -0.1995
  581MOL0     H78385   5.293   7.786   1.735 -2.1844 -1.5502  0.9777
  581MOL0     H78386   5.312   7.708   1.365  2.7748 -0.8595 -0.6516
  581MOL0     H78387   5.223   7.338   1.323 -1.4817  0.7631  1.2805
  581MOL0     H78388   5.270   7.472   1.220 -3.5141 -2.5710  0.2566
  581MOL0     H78389   5.511   7.425   1.270  1.5551 -1.6986 -0.2519
  581MOL0     H78390   5.457   7.338   1.410  0.5759 -2.1322 -0.5734
  581MOL0     H78391   5.352   7.164   1.211 -1.2360  0.0853 -1.1865
  581MOL0     H78392   5.520   7.154   1.281  2.6830  1.7653 -1.3173
  581MOL0     H78393   5.483   7.325   1.029  0.5509  1.7521 -0.0496
  581MOL0     H78394   5.531   7.154   1.032  1.7596 -1.6540  2.9672
  581MOL0     H78395   5.721   7.109   0.960 -0.2594  0.9071  0.2238
  581MOL0     H78396   5.887   6.947   0.996  1.5201  2.4145 -0.7320
  581MOL0     H78397   6.022   6.546   1.142 -0.1937 -0.4028 -0.9003
  581MOL0     H78398   6.169   6.380   1.128  2.4647 -0.8211  1.0355
  581MOL0     H78399   6.343   6.238   1.132  0.2857 -0.0402 -0.3391
  581MOL0     H78400   6.510   6.217   1.170 -0.0530 -0.1021  1.7821
  581MOL0     H78401   6.493   6.231   1.390  1.0362 -2.6166 -1.7339
  581MOL0     H78402   6.327   6.298   1.398 -1.9805 -1.5791 -0.6682
  581MOL0     H78403   6.254   6.087   1.271  3.0688 -0.7061 -4.5171
  581MOL0     H78404   6.427   6.035   1.303  1.1719  0.9002  3.7919
  581MOL0     H78405   6.247   5.927   1.453 -0.7858 -0.1554  1.7313
  581MOL0     H78406   6.212   6.078   1.523 -1.2483 -3.2155 -0.2493
  581MOL0     H78407   6.435   6.105   1.611  6.5074 -1.6217  0.7814
  581MOL0     H78408   6.482   5.980   1.498 -0.7782  1.6413 -2.1624
  581MOL0     H78409   6.283   5.932   1.734 -0.0041  2.4297 -3.0430
  581MOL0     H78410   6.332   5.802   1.633 -2.3014  1.3521 -2.5054
  581MOL0     H78411   6.498   5.971   1.829  0.7098 -2.6737  4.0370
  581MOL0     H78412   6.576   5.854   1.713  1.7409  0.2787  1.0436
  581MOL0     H78413   6.361   5.795   1.924  0.1402  1.2441 -0.9948
  581MOL0     H78414   6.446   5.673   1.833 -0.4070 -0.8809 -0.4741
  581MOL0     H78415   6.498   6.660   1.183 -0.1357 -0.4912 -0.6536
  581MOL0     H78416   6.349   6.835   1.133 -1.6381  0.8059 -0.8302
  581MOL0     H78417   5.990   7.100   1.381  2.1736 -1.0440 -0.7369
  581MOL0     H78418   5.829   7.291   1.331  0.0598  0.7598 -0.5998
  581MOL0     H78419   4.402   8.286   2.116 -1.2643  0.8217  1.6390
  581MOL0     H78420   4.201   8.439   2.123 -1.9850  0.8501 -1.1296
  581MOL0     H78421   3.794   8.596   1.723  2.0483  0.5760 -2.5011
  581MOL0     H78422   3.672   8.790   1.652  0.2150 -3.1654 -0.2893
  581MOL0     H78423   3.906   9.085   1.520 -3.0760 -3.7945 -0.7436
  581MOL0     H78424   3.884   9.204   1.662 -3.7702  0.8283  0.4003
  581MOL0     H78425   3.743   9.174   1.400 -1.3644  1.0040  0.8675
  581MOL0     H78426   3.836   9.307   1.431 -0.3133 -1.3544 -2.4258
  581MOL0     H78427   3.573   9.237   1.582  0.1211 -2.4398 -0.5300
  581MOL0     H78428   3.611   9.373   1.466  1.7552 -3.1022 -3.7844
  581MOL0     H78429   3.585   9.458   1.695 -0.1849 -2.7447  2.9575
  581MOL0     H78430   3.720   9.351   1.744  0.2985 -0.9156 -0.6548
  581MOL0     H78431   3.866   9.702   1.532  2.4069 -1.2766 -2.2251
  581MOL0     H78432   3.988   9.050   1.766 -2.9428  2.5520 -0.7609
  581MOL0     H78433   4.166   8.979   1.910 -0.3385  0.3623 -0.1504
  581MOL0     H78434   4.143   8.824   1.989  1.7233 -2.7817 -0.6121
  581MOL0     H78435   4.237   8.841   1.833 -0.1798 -0.3498  1.4022
  582MOL0     O78436   0.964   0.645  10.426 -0.2924 -0.0880  0.5338
  582MOL0     C78437   0.966   0.738  10.349  0.7601  0.7136  0.6361
  582MOL0     O78438   1.070   0.767  10.269  0.0488  0.1216  0.2849
  582MOL0     C78439   1.166   0.667  10.247 -0.5141 -0.3228  0.1539
  582MOL0     C78440   1.152   0.570  10.144  0.0633 -0.4117 -0.8169
  582MOL0     C78441   1.238   0.454  10.135 -0.2912 -0.9147 -0.8183
  582MOL0     C78442   1.349   0.441  10.223  0.3423 -0.5460  0.5742
  582MOL0     O78443   1.419   0.334  10.201  0.0842  0.1326  0.2670
  582MOL0     C78444   1.530   0.312  10.287  0.1791 -0.3650 -0.9833
  582MOL0     C78445   1.631   0.217  10.228  0.4380 -0.4392  0.0378
  582MOL0     C78446   1.680   0.286  10.096 -0.3080 -0.6923 -0.1089
  582MOL0     C78447   1.789   0.386  10.129  0.3818  0.0912  0.3223
  582MOL0     C78448   1.819   0.480  10.008 -0.6435  0.0002 -0.0780
  582MOL0     C78449   1.843   0.396   9.889  0.2094 -0.0534 -0.0956
  582MOL0     C78450   1.914   0.460   9.769  0.0652  1.0994 -0.6431
  582MOL0     C78451   1.946   0.351   9.664  0.1283 -0.3771 -0.1987
  582MOL0     N78452   2.062   0.389   9.589  0.2972 -0.9511 -0.8469
  582MOL0     C78453   2.183   0.342   9.632  0.8345  0.0212  0.3085
  582MOL0     C78454   2.263   0.376   9.525 -1.2371 -0.4398 -0.0482
  582MOL0     C78455   2.415   0.352   9.514 -0.2009 -0.9799 -0.3388
  582MOL0     C78456   2.492   0.439   9.606  0.5211 -0.0637  0.9355
  582MOL0     C78457   2.635   0.416   9.578 -0.2638  0.5669 -0.3103
  582MOL0     C78458   2.698   0.277   9.586  0.1570 -0.4419  0.3639
  582MOL0     O78459   2.698   0.242   9.727 -0.6123 -0.5272  0.5078
  582MOL0     C78460   2.768   0.123   9.744 -0.3112  0.2729 -0.4443
  582MOL0     C78461   2.850   0.056   9.650  0.4985  0.2515 -0.2767
  582MOL0     C78462   2.919  -0.065   9.667  0.1232 -0.8046 -0.3988
  582MOL0     C78463   2.893  -0.131   9.792 -0.1335 -0.0831  0.5378
  582MOL0     C78464   2.960  -0.263   9.819  0.2387 -0.7234 -0.8584
  582MOL0     O78465   2.918  -0.340   9.932  0.5316 -0.8283  1.0205
  582MOL0     C78466   2.953  -0.467   9.936  0.2121  0.4415 -0.8211
  582MOL0     C78467   3.087  -0.504   9.948  0.5715 -0.7496 -0.2137
  582MOL0     C78468   3.127  -0.635   9.966  0.8334  0.1545 -0.2187
  582MOL0     C78469   3.026  -0.746   9.974 -0.1615 -0.3006 -0.0933
  582MOL0     O78470   3.050  -0.882   9.978  0.2910  0.0757 -0.3106
  582MOL0     C78471   3.185  -0.920   9.948  0.0258  0.2599 -0.4490
  582MOL0     C78472   3.194  -1.071   9.948  0.3664  0.8564  0.6478
  582MOL0     C78473   3.331  -1.132   9.910 -0.7665  0.8190 -0.1742
  582MOL0     C78474   3.312  -1.271   9.861  0.2279  0.2258 -1.4379
  582MOL0     C78475   3.261  -1.362   9.979 -0.1239 -0.3044  0.3340
  582MOL0     C78476   3.272  -1.507   9.954 -0.9165  0.5032 -0.3519
  582MOL0     C78477   3.149  -1.540   9.866  0.4574  0.8196 -0.2211
  582MOL0     C78478   3.015  -1.571   9.931 -0.2669  0.3148 -0.3522
  582MOL0    Cl78479   2.873  -1.569   9.821 -0.1767  0.3192 -0.3280
  582MOL0     C78480   2.895  -0.704   9.963  0.2240 -0.5162  0.8586
  582MOL0     C78481   2.858  -0.570   9.936 -0.4579  0.2455 -0.5317
  582MOL0     O78482   3.052  -0.295   9.744 -0.3820 -0.2221 -0.4314
  582MOL0     C78483   2.815  -0.071   9.892 -0.6672  0.4103  0.0881
  582MOL0     C78484   2.757   0.054   9.870 -1.2187 -0.5265  0.2951
  582MOL0     N78485   2.181   0.449   9.431  0.3229 -0.0738 -0.2608
  582MOL0     N78486   2.064   0.443   9.473  0.7534 -0.6001  0.3302
  582MOL0     C78487   1.369   0.541  10.318 -0.2375 -1.2052  0.8983
  582MOL0     C78488   1.277   0.651  10.333 -0.3009 -0.7062  0.0747
  582MOL0     C78489   0.844   0.820  10.328  0.5000  0.0825  0.8241
  582MOL0     C78490   0.866   0.954  10.311  0.9244 -1.3093  0.7433
  582MOL0     C78491   0.757   1.044  10.284  0.4765  0.5211 -0.5019
  582MOL0     C78492   0.636   0.987  10.282 -0.3543 -0.0638 -0.2636
  582MOL0     O78493   0.542   1.080  10.244  0.2337 -0.2886 -0.3615
  582MOL0     C78494   0.407   1.045  10.257  0.0525  0.2482  0.0430
  582MOL0     C78495   0.354   1.037  10.402 -0.0156 -0.3464  0.4280
  582MOL0     C78496   0.414   1.152  10.488 -0.2194 -0.9673  1.1342
  582MOL0     C78497   0.376   1.153  10.638  0.1671  0.2473 -0.0931
  582MOL0     C78498   0.253   1.236  10.658  0.1960  0.3890  0.6332
  582MOL0     C78499   0.150   1.299  10.671  0.3743  0.8298  0.2772
  582MOL0     C78500   0.607   0.851  10.309  0.2647  0.0875 -0.6592
  582MOL0     C78501   0.710   0.761  10.327  0.3798  0.1865  0.4340
  582MOL0     C78502   0.672   0.616  10.352  0.8040  0.0336  1.1341
  582MOL0     H78503   1.074   0.590  10.072 -3.0147  0.2865  2.4253
  582MOL0     H78504   1.222   0.378  10.059 -0.3002 -1.2466 -0.4839
  582MOL0     H78505   1.590   0.399  10.315  0.1078 -1.0615  1.5670
  582MOL0     H78506   1.488   0.280  10.383  0.8204  1.5823 -0.0057
  582MOL0     H78507   1.574   0.130  10.196 -3.7508  2.4190 -0.9739
  582MOL0     H78508   1.713   0.192  10.297 -1.1822 -1.4916  1.6739
  582MOL0     H78509   1.598   0.339  10.048 -1.8197  2.2799  4.9107
  582MOL0     H78510   1.718   0.201  10.039 -1.2963 -0.1827 -1.5659
  582MOL0     H78511   1.769   0.453  10.213 -0.0334 -1.9847  1.9564
  582MOL0     H78512   1.879   0.330  10.157  0.3695 -0.5078 -0.7651
  582MOL0     H78513   1.740   0.548   9.974  0.1567 -0.0891 -2.2353
  582MOL0     H78514   1.898   0.545  10.044  0.2785 -1.1192 -0.0348
  582MOL0     H78515   1.892   0.302   9.917 -3.0910 -2.0737 -0.4608
  582MOL0     H78516   1.742   0.361   9.863  0.6359 -0.0355 -1.9035
  582MOL0     H78517   2.007   0.506   9.803  0.3546 -0.8937  1.5287
  582MOL0     H78518   1.843   0.534   9.731  3.7795  5.2332 -0.3725
  582MOL0     H78519   1.964   0.248   9.695  3.1757  0.3969  0.9518
  582MOL0     H78520   1.859   0.354   9.598 -0.1750  0.6088  0.2272
  582MOL0     H78521   2.204   0.277   9.717  0.2173  1.4807  1.6190
  582MOL0     H78522   2.436   0.249   9.541 -2.5248 -0.9803  1.8340
  582MOL0     H78523   2.443   0.368   9.409  0.3997 -1.2183 -0.2148
  582MOL0     H78524   2.472   0.545   9.588 -1.9360 -0.9091 -2.0901
  582MOL0     H78525   2.468   0.420   9.711  1.2028  4.0437  2.0426
  582MOL0     H78526   2.696   0.476   9.646  0.5727 -2.0367  1.3549
  582MOL0     H78527   2.663   0.445   9.476  3.6538 -3.4792 -0.6847
  582MOL0     H78528   2.794   0.290   9.536 -0.2041  2.6822  0.2707
  582MOL0     H78529   2.646   0.196   9.534 -0.0967  1.7291 -3.1194
  582MOL0     H78530   2.871   0.093   9.551 -0.7855 -1.5117 -1.2593
  582MOL0     H78531   2.987  -0.094   9.588 -0.3092  0.1325 -1.1414
  582MOL0     H78532   3.168  -0.433   9.935 -1.3762  1.2180 -2.5102
  582MOL0     H78533   3.230  -0.665   9.982 -0.2561 -3.0234  1.5954
  582MOL0     H78534   3.215  -0.878   9.851  1.4711  4.6013  1.6019
  582MOL0     H78535   3.261  -0.895  10.023 -0.2648 -3.7336  1.3742
  582MOL0     H78536   3.158  -1.098  10.048 -2.6993  1.8612 -0.0629
  582MOL0     H78537   3.114  -1.109   9.884  0.9317  2.0582 -0.8117
  582MOL0     H78538   3.366  -1.079   9.822  0.4002 -0.5163 -0.5523
  582MOL0     H78539   3.404  -1.126   9.991 -1.3137  0.7385  0.3374
  582MOL0     H78540   3.409  -1.309   9.826  1.3750  3.5072 -2.1835
  582MOL0     H78541   3.253  -1.282   9.769 -0.8791  0.3668 -0.7578
  582MOL0     H78542   3.159  -1.332  10.003  0.9536  4.5029 -0.0853
  582MOL0     H78543   3.324  -1.335  10.064  2.2611 -3.0302 -0.4107
  582MOL0     H78544   3.372  -1.539   9.923 -1.4993 -1.9164  0.0450
  582MOL0     H78545   3.259  -1.554  10.052 -0.9707  4.7530  1.9365
  582MOL0     H78546   3.166  -1.633   9.810 -2.5700  0.5696 -0.9235
  582MOL0     H78547   3.138  -1.462   9.790  1.9582  0.5980 -0.6930
  582MOL0     H78548   3.033  -1.665   9.983  1.5781 -0.2624 -1.9214
  582MOL0     H78549   2.991  -1.486   9.997  1.1533  1.0644 -0.7532
  582MOL0     H78550   2.819  -0.781   9.949  0.0160 -0.0544 -0.7622
  582MOL0     H78551   2.757  -0.544   9.907 -1.6856 -3.0651  0.2164
  582MOL0     H78552   2.808  -0.123   9.986 -0.4095 -2.6914 -1.4819
  582MOL0     H78553   2.693   0.094   9.948  0.2346  1.8115  0.4087
  582MOL0     H78554   1.443   0.544  10.398 -0.0854 -0.6626  0.7410
  582MOL0     H78555   1.310   0.713  10.416  0.4267 -0.2381 -0.5455
  582MOL0     H78556   0.961   1.005  10.306 -0.8404  2.2920  0.5217
  582MOL0     H78557   0.766   1.150  10.263 -0.8134  0.3481 -2.1416
  582MOL0     H78558   0.385   0.954  10.200  3.0684 -0.6032  0.0860
  582MOL0     H78559   0.347   1.124  10.211 -0.2106 -0.0157 -0.0663
  582MOL0     H78560   0.384   0.939  10.440  0.9325 -0.2486 -0.0343
  582MOL0     H78561   0.247   1.056  10.394  0.3670  1.5523 -0.7218
  582MOL0     H78562   0.390   1.248  10.442  0.5699 -2.3098 -2.4357
  582MOL0     H78563   0.523   1.146  10.483 -0.0837 -1.2258  3.3802
  582MOL0     H78564   0.345   1.056  10.678 -0.3816  1.4814  2.7810
  582MOL0     H78565   0.458   1.196  10.697 -0.0887  0.7094 -0.0647
  582MOL0     H78566   0.061   1.352  10.700 -0.1388  1.1549 -1.7152
  582MOL0     H78567   0.509   0.805  10.307  0.3728 -0.1997  0.0718
  582MOL0     H78568   0.700   0.559  10.263 -0.3500 -1.0859  1.4653
  582MOL0     H78569   0.731   0.582  10.438  0.7675 -1.1240  0.7166
  582MOL0     H78570   0.568   0.597  10.379  0.8767  1.4386  2.5465
  583MOL0     O78571   6.204   9.146   5.134 -0.3942 -0.3352 -0.7331
  583MOL0     C78572   6.090   9.199   5.128 -0.5781 -0.0756  0.0388
  583MOL0     O78573   5.978   9.123   5.099  0.3793 -0.5529  0.0639
  583MOL0     C78574   5.998   8.990   5.075 -0.5796 -0.5466 -0.3337
  583MOL0     C78575   6.034   8.903   5.178  0.4452  0.0260  0.1463
  583MOL0     C78576   6.052   8.766   5.153  0.3886  0.4982  0.2408
  583MOL0     C78577   6.047   8.719   5.028 -0.1965 -0.0292 -0.1176
  583MOL0     O78578   6.097   8.598   4.993 -0.1273 -0.5902 -0.1667
  583MOL0     C78579   6.108   8.486   5.090 -0.2790 -0.9222 -0.0343
  583MOL0     C78580   6.097   8.351   5.008 -0.6261 -0.1301  0.0257
  583MOL0     C78581   6.151   8.228   5.088  0.8364 -1.1077 -0.2854
  583MOL0     C78582   6.118   8.092   5.035  0.9715  0.2279  0.3446
  583MOL0     C78583   6.204   7.994   5.100 -0.0654 -0.0491  0.0808
  583MOL0     C78584   6.165   7.841   5.067 -0.3338 -0.5803  0.3665
  583MOL0     C78585   6.023   7.808   5.121 -0.0780  0.3884 -0.8110
  583MOL0     C78586   5.987   7.664   5.105 -0.2249 -0.3600 -0.1347
  583MOL0     N78587   6.058   7.603   4.986 -0.2518 -1.2662 -0.5972
  583MOL0     C78588   6.169   7.523   5.009 -0.7177 -0.2264 -0.7564
  583MOL0     C78589   6.176   7.439   4.899 -0.5938 -0.2958 -0.6880
  583MOL0     C78590   6.282   7.331   4.894  1.4259  0.4551  0.3663
  583MOL0     C78591   6.405   7.381   4.809  0.5796 -0.5100  0.2554
  583MOL0     C78592   6.495   7.269   4.755  0.6081 -0.5326 -0.4423
  583MOL0     C78593   6.411   7.180   4.660  1.3650 -0.5149 -0.2512
  583MOL0     O78594   6.491   7.097   4.576  0.1564  0.6438  0.8453
  583MOL0     C78595   6.424   7.008   4.486  1.0668  1.5896 -0.8742
  583MOL0     C78596   6.295   6.961   4.506 -0.4380  0.3355  0.3774
  583MOL0     C78597   6.215   6.887   4.421 -0.2655 -0.5996  0.5724
  583MOL0     C78598   6.280   6.841   4.307 -0.8613  0.7000 -0.3591
  583MOL0     C78599   6.214   6.764   4.201 -0.6987 -0.1566  0.4550
  583MOL0     O78600   6.295   6.674   4.132  0.4152  0.0283 -0.4124
  583MOL0     C78601   6.220   6.594   4.051  0.3596 -0.2656 -1.0329
  583MOL0     C78602   6.168   6.629   3.929 -0.2556 -0.7985 -0.6485
  583MOL0     C78603   6.082   6.553   3.864  0.3815 -0.1032 -0.5491
  583MOL0     C78604   6.075   6.418   3.892  0.4220 -0.3847 -0.0345
  583MOL0     O78605   5.988   6.354   3.803 -0.0269 -0.4304 -0.6030
  583MOL0     C78606   6.049   6.227   3.764 -0.5770 -0.5398  0.0021
  583MOL0     C78607   5.965   6.144   3.662 -0.8100  0.8090  0.8275
  583MOL0     C78608   5.939   6.235   3.530 -0.6249  0.4767 -0.3743
  583MOL0     C78609   5.802   6.306   3.544 -0.0742  0.4072 -0.2550
  583MOL0     C78610   5.779   6.377   3.416 -0.2600  0.1411  0.4651
  583MOL0     C78611   5.632   6.428   3.427 -0.6281  0.5357  0.9508
  583MOL0     C78612   5.587   6.534   3.317  0.8912  0.9966  0.5201
  583MOL0     C78613   5.625   6.491   3.174  0.2139 -0.1935  0.8289
  583MOL0    Cl78614   5.511   6.569   3.065  0.3448  0.1340  0.4329
  583MOL0     C78615   6.132   6.372   4.009 -0.6201  0.3114 -0.0129
  583MOL0     C78616   6.202   6.459   4.093 -0.0165 -0.6370  0.4314
  583MOL0     O78617   6.090   6.779   4.198  0.0759 -0.5404  0.2118
  583MOL0     C78618   6.417   6.886   4.290  0.8372 -0.7922 -0.7188
  583MOL0     C78619   6.485   6.964   4.379  0.4450 -0.2803 -0.4000
  583MOL0     N78620   6.075   7.477   4.813  0.0351  0.4038 -0.3836
  583MOL0     N78621   5.997   7.555   4.874 -0.5249  0.0370  0.5274
  583MOL0     C78622   6.025   8.809   4.920  0.3689  0.5520 -0.4979
  583MOL0     C78623   5.990   8.941   4.940 -0.3942  0.6006  0.3037
  583MOL0     C78624   6.068   9.343   5.146  1.1846  0.6110 -0.5104
  583MOL0     C78625   5.940   9.393   5.181  0.2242 -0.6417  0.7245
  583MOL0     C78626   5.926   9.528   5.181  0.9399 -0.3653  0.0022
  583MOL0     C78627   6.020   9.624   5.146  0.2125  0.2038  0.8247
  583MOL0     O78628   5.985   9.753   5.138  0.4456  0.1125 -0.2939
  583MOL0     C78629   6.003   9.807   5.010  0.1491 -0.0831 -0.1224
  583MOL0     C78630   5.924   9.943   4.993 -0.3510 -0.2967  0.2698
  583MOL0     C78631   5.949  10.044   5.116 -0.1697  0.2480 -0.7474
  583MOL0     C78632   6.089  10.090   5.145  0.8053  0.9559  0.4279
  583MOL0     C78633   6.145  10.164   5.031 -1.0285 -0.8825 -0.9097
  583MOL0     C78634   6.176  10.236   4.929 -0.7057  1.3770  0.3700
  583MOL0     C78635   6.140   9.577   5.106  0.0818  0.0495 -1.0016
  583MOL0     C78636   6.167   9.438   5.099  1.0187 -0.5333  0.2215
  583MOL0     C78637   6.293   9.398   5.029  0.5448 -0.4705  0.4385
  583MOL0     H78638   6.057   8.939   5.278 -0.1315  0.9529 -0.0448
  583MOL0     H78639   6.094   8.700   5.229 -0.8779 -2.1167 -1.2013
  583MOL0     H78640   6.208   8.482   5.134 -0.6320 -2.0862  0.7205
  583MOL0     H78641   6.026   8.499   5.161 -0.4428 -3.6818  0.4144
  583MOL0     H78642   6.171   8.358   4.927  2.6765  2.7764  2.9631
  583MOL0     H78643   5.993   8.331   4.980 -1.4382  0.0630  2.6634
  583MOL0     H78644   6.117   8.244   5.191  1.2771  1.4135 -0.4722
  583MOL0     H78645   6.259   8.242   5.100  1.0905 -3.2766  0.3691
  583MOL0     H78646   6.014   8.080   5.067  2.1919 -0.9895  4.4935
  583MOL0     H78647   6.127   8.078   4.927 -1.1525 -0.7270  0.2377
  583MOL0     H78648   6.308   8.008   5.069 -0.5304 -0.2851 -1.6996
  583MOL0     H78649   6.193   7.999   5.209  1.2481 -0.2121  0.2352
  583MOL0     H78650   6.174   7.826   4.959 -1.2421  0.0842  0.1876
  583MOL0     H78651   6.224   7.774   5.129 -0.8402 -0.2940  1.1734
  583MOL0     H78652   5.953   7.876   5.072  1.3806  1.3971 -1.5690
  583MOL0     H78653   6.027   7.823   5.230 -3.4274  0.3396 -0.5685
  583MOL0     H78654   6.028   7.613   5.193  1.5550 -1.2151 -1.3987
  583MOL0     H78655   5.879   7.647   5.099 -0.7294  2.6261 -0.7654
  583MOL0     H78656   6.225   7.527   5.102 -3.2647 -2.8487  1.0699
  583MOL0     H78657   6.306   7.319   5.000 -0.5871  1.7705  1.0216
  583MOL0     H78658   6.232   7.237   4.869  1.0327 -0.4579  3.9828
  583MOL0     H78659   6.366   7.448   4.732 -0.6510  1.7309  2.6407
  583MOL0     H78660   6.471   7.448   4.865  0.4512  0.0209 -0.2149
  583MOL0     H78661   6.524   7.212   4.844 -0.2493 -0.8031 -0.3257
  583MOL0     H78662   6.583   7.319   4.714 -1.8359  3.2330 -1.5902
  583MOL0     H78663   6.351   7.237   4.589  2.0516 -2.0574 -2.1320
  583MOL0     H78664   6.355   7.121   4.733  0.6981  1.9556  1.3726
  583MOL0     H78665   6.228   6.986   4.588  0.0263  3.8842 -0.1706
  583MOL0     H78666   6.114   6.882   4.460  1.3420 -0.6838  5.3472
  583MOL0     H78667   6.188   6.727   3.887  2.7809 -1.0034  0.1184
  583MOL0     H78668   6.044   6.591   3.769  2.5948  0.2756 -1.3450
  583MOL0     H78669   6.148   6.234   3.720 -0.7539  1.7083 -0.1252
  583MOL0     H78670   6.060   6.173   3.859  0.3188  0.5908  0.5598
  583MOL0     H78671   6.027   6.058   3.638 -0.4271 -0.0451  4.2898
  583MOL0     H78672   5.874   6.091   3.693 -1.8454  2.6158  1.0490
  583MOL0     H78673   6.031   6.290   3.511 -0.0795 -0.6439 -1.0884
  583MOL0     H78674   5.931   6.174   3.439  0.8965 -0.3914  0.0462
  583MOL0     H78675   5.798   6.380   3.624 -1.0905 -1.3760  1.4466
  583MOL0     H78676   5.724   6.230   3.561 -0.2621  0.1645 -1.9961
  583MOL0     H78677   5.789   6.322   3.322 -1.5949 -0.4979  0.6736
  583MOL0     H78678   5.845   6.464   3.407 -1.3116  0.6804 -4.8370
  583MOL0     H78679   5.564   6.343   3.419  3.1910 -2.7624  0.0656
  583MOL0     H78680   5.620   6.470   3.528 -1.3262  1.0812  0.6551
  583MOL0     H78681   5.620   6.636   3.339  0.3896  0.8577  2.1076
  583MOL0     H78682   5.477   6.537   3.317  0.7400  0.1465  3.7307
  583MOL0     H78683   5.727   6.526   3.154  0.1683  0.8364  2.2363
  583MOL0     H78684   5.616   6.383   3.159 -0.9063  0.3885 -5.7888
  583MOL0     H78685   6.102   6.277   4.052 -3.5152  1.6953  1.3120
  583MOL0     H78686   6.246   6.423   4.185 -0.1685  0.7890  1.0981
  583MOL0     H78687   6.466   6.872   4.195 -0.6380 -0.2589 -1.5800
  583MOL0     H78688   6.590   6.985   4.363  1.3915 -4.5541 -0.8925
  583MOL0     H78689   6.022   8.773   4.818  1.2843  0.0065 -0.3548
  583MOL0     H78690   5.963   9.004   4.855  1.6117 -0.4700 -1.2277
  583MOL0     H78691   5.848   9.335   5.183 -1.0120  1.0788 -1.6009
  583MOL0     H78692   5.830   9.572   5.208  0.6927 -0.1708 -1.1325
  583MOL0     H78693   5.979   9.737   4.930  0.0874  3.1980 -3.2293
  583MOL0     H78694   6.109   9.826   4.986  0.4328 -1.9689 -0.5480
  583MOL0     H78695   5.819   9.925   4.967 -0.5422  2.6602 -1.4167
  583MOL0     H78696   5.963   9.986   4.900 -1.8955 -0.0629 -0.3045
  583MOL0     H78697   5.906  10.014   5.212 -1.2114  1.1865 -0.9013
  583MOL0     H78698   5.890  10.135   5.105  1.1023  1.3023  0.7228
  583MOL0     H78699   6.083  10.163   5.227  0.0524 -0.4271  1.6542
  583MOL0     H78700   6.158  10.011   5.175 -1.4655 -0.6875  1.6446
  583MOL0     H78701   6.198  10.284   4.835 -0.1521  1.2447  0.4300
  583MOL0     H78702   6.219   9.647   5.081  0.8472 -0.0523  0.8951
  583MOL0     H78703   6.331   9.475   4.961  3.0044 -2.1379 -0.1932
  583MOL0     H78704   6.371   9.371   5.101  0.0211 -1.6771  0.5823
  583MOL0     H78705   6.279   9.311   4.964  1.8394  0.2573 -0.8769
  584MOL0     O78706   7.479   5.491   7.967 -0.2380  0.1368 -0.0641
  584MOL0     C78707   7.443   5.474   7.852  0.6179 -0.5722  0.0204
  584MOL0     O78708   7.526   5.442   7.745  0.7376 -0.0211 -0.1231
  584MOL0     C78709   7.663   5.448   7.782 -0.8517  0.0865  1.0065
  584MOL0     C78710   7.713   5.332   7.837  1.0050  0.7700  0.3686
  584MOL0     C78711   7.849   5.317   7.861  0.8284 -0.1441  0.4473
  584MOL0     C78712   7.937   5.423   7.836  0.0715 -0.2970 -0.3864
  584MOL0     O78713   8.072   5.411   7.843 -0.2967 -0.3055 -0.2576
  584MOL0     C78714   8.125   5.312   7.931 -1.1329 -0.9933  1.1181
  584MOL0     C78715   8.276   5.336   7.945 -0.6532  0.9299 -0.0335
  584MOL0     C78716   8.323   5.225   8.050  0.7849  0.7094 -0.4223
  584MOL0     C78717   8.468   5.192   8.059 -0.0043 -0.0468 -0.8310
  584MOL0     C78718   8.555   5.300   8.110 -0.4692  0.4067 -0.2246
  584MOL0     C78719   8.503   5.366   8.234  1.0891 -1.0656  1.0353
  584MOL0     C78720   8.619   5.454   8.297 -0.9711 -0.1768 -0.5643
  584MOL0     C78721   8.671   5.573   8.208 -0.3920 -0.9693 -0.7207
  584MOL0     N78722   8.577   5.689   8.216 -0.2448  0.9007  0.4935
  584MOL0     C78723   8.501   5.741   8.113 -0.3388  0.0527  0.6168
  584MOL0     C78724   8.463   5.863   8.152  0.6186  0.3782  0.0073
  584MOL0     C78725   8.395   5.967   8.069 -0.0278  0.8659  0.1095
  584MOL0     C78726   8.496   6.029   7.968 -0.0557 -0.3182 -0.1160
  584MOL0     C78727   8.457   6.023   7.823  0.5081 -0.1283 -0.2827
  584MOL0     C78728   8.353   6.132   7.790  0.2757 -0.7975  0.0584
  584MOL0     O78729   8.244   6.125   7.880 -0.0516  0.0186 -0.3290
  584MOL0     C78730   8.118   6.179   7.850 -0.2437  0.6730 -0.0644
  584MOL0     C78731   8.025   6.181   7.948 -0.1555 -0.2316 -0.0551
  584MOL0     C78732   7.897   6.234   7.929  0.4094 -0.7574 -0.0572
  584MOL0     C78733   7.853   6.275   7.805 -0.0550 -0.5390  0.3336
  584MOL0     C78734   7.712   6.310   7.782  0.3318 -0.2025 -0.1817
  584MOL0     O78735   7.630   6.275   7.890  0.3275 -0.2907 -0.3703
  584MOL0     C78736   7.496   6.266   7.869 -0.1516 -0.6633  0.9289
  584MOL0     C78737   7.445   6.236   7.742  0.4209 -0.4858  0.9974
  584MOL0     C78738   7.311   6.243   7.724 -0.7921 -0.1955 -0.3465
  584MOL0     C78739   7.214   6.284   7.823 -0.8442  0.7902 -0.1537
  584MOL0     O78740   7.084   6.292   7.783 -0.1696 -0.0244  0.8978
  584MOL0     C78741   7.005   6.395   7.832 -0.9919 -0.3997  0.0052
  584MOL0     C78742   6.897   6.435   7.732  1.1227  0.5663  0.5448
  584MOL0     C78743   6.786   6.329   7.730 -1.3604  0.0599  0.2075
  584MOL0     C78744   6.647   6.368   7.667 -0.1654  0.1810 -0.6459
  584MOL0     C78745   6.542   6.260   7.658  0.0153 -0.6158 -0.1991
  584MOL0     C78746   6.518   6.168   7.780  0.7460 -0.9428  0.8557
  584MOL0     C78747   6.437   6.044   7.720 -1.0641 -0.8608  0.2245
  584MOL0     C78748   6.383   5.951   7.819  0.7893  0.2707 -0.0459
  584MOL0    Cl78749   6.283   6.043   7.940 -0.3867 -0.2285  0.1013
  584MOL0     C78750   7.273   6.309   7.951  0.2363 -0.5388  0.3528
  584MOL0     C78751   7.410   6.297   7.975 -0.1882 -0.1581  0.0880
  584MOL0     O78752   7.690   6.400   7.704  0.4008 -0.0259 -0.0612
  584MOL0     C78753   7.953   6.289   7.702  0.4973  0.0327  0.0012
  584MOL0     C78754   8.085   6.241   7.733 -0.0645 -0.7340  0.3777
  584MOL0     N78755   8.523   5.892   8.281 -0.5063 -0.4252  0.6689
  584MOL0     N78756   8.600   5.790   8.304 -0.4789 -0.2625 -0.0941
  584MOL0     C78757   7.885   5.542   7.779 -1.1990  0.8905 -0.0796
  584MOL0     C78758   7.747   5.556   7.755 -0.0377 -0.5270  0.8578
  584MOL0     C78759   7.291   5.492   7.834  0.2321  0.5900  0.9222
  584MOL0     C78760   7.242   5.521   7.703  0.2603 -0.1789 -0.2390
  584MOL0     C78761   7.104   5.536   7.671  1.1422  0.1820  1.1412
  584MOL0     C78762   7.015   5.509   7.774  0.3545  0.2682 -0.0757
  584MOL0     O78763   6.877   5.525   7.771  0.6116 -0.7694 -0.1016
  584MOL0     C78764   6.812   5.577   7.651  0.4211  0.1869  0.0187
  584MOL0     C78765   6.781   5.472   7.540 -0.0806 -0.0865  0.2259
  584MOL0     C78766   6.656   5.508   7.459  0.0532 -0.1152 -0.3334
  584MOL0     C78767   6.629   5.415   7.334  0.3332  0.5977  0.1504
  584MOL0     C78768   6.715   5.454   7.218 -0.3117  0.3156 -0.0369
  584MOL0     C78769   6.783   5.490   7.120 -0.5506  1.9160  1.0559
  584MOL0     C78770   7.058   5.469   7.901 -0.4787 -0.3708  0.5343
  584MOL0     C78771   7.196   5.466   7.936  0.1193  0.5643  0.4349
  584MOL0     C78772   7.229   5.429   8.079 -0.5147 -0.0586  0.3319
  584MOL0     H78773   7.633   5.265   7.865  0.1436  1.4804 -0.3206
  584MOL0     H78774   7.883   5.228   7.912  3.4635 -0.8910 -2.3545
  584MOL0     H78775   8.068   5.319   8.024 -1.8456  0.8628  0.5922
  584MOL0     H78776   8.110   5.212   7.889 -3.4413  0.0180 -0.6873
  584MOL0     H78777   8.285   5.439   7.980  0.7956  0.5582  0.7495
  584MOL0     H78778   8.336   5.327   7.854  2.2271 -1.8599  1.9343
  584MOL0     H78779   8.272   5.131   8.025  0.0303  0.3812  2.0232
  584MOL0     H78780   8.282   5.249   8.149 -2.6321  0.0977 -1.5527
  584MOL0     H78781   8.481   5.102   8.121  2.4899 -0.6868 -2.1506
  584MOL0     H78782   8.506   5.180   7.957  3.4132  3.6465 -0.2435
  584MOL0     H78783   8.653   5.257   8.132 -0.6437  0.3527  0.4948
  584MOL0     H78784   8.559   5.375   8.032 -1.0849 -0.8340 -1.4926
  584MOL0     H78785   8.418   5.432   8.214  2.5480  0.1926 -1.4830
  584MOL0     H78786   8.465   5.292   8.306  0.4998  0.4819  2.3707
  584MOL0     H78787   8.699   5.385   8.325 -0.9347  0.4358  0.9610
  584MOL0     H78788   8.585   5.514   8.383 -0.4394 -0.3003 -0.2636
  584MOL0     H78789   8.770   5.599   8.246 -0.6752  0.5143 -0.9230
  584MOL0     H78790   8.683   5.546   8.102  3.3797  2.0971 -1.3089
  584MOL0     H78791   8.477   5.697   8.016  1.5211 -3.2837  1.5246
  584MOL0     H78792   8.305   5.925   8.023 -0.5353  1.1057  0.8615
  584MOL0     H78793   8.358   6.046   8.134  0.8152 -0.8364  2.8242
  584MOL0     H78794   8.513   6.131   8.002 -2.0974  0.0805 -0.1710
  584MOL0     H78795   8.594   5.980   7.976  0.7049  1.1385 -0.2581
  584MOL0     H78796   8.414   5.931   7.784 -0.8858  2.0531 -4.4040
  584MOL0     H78797   8.552   6.034   7.769 -1.8602 -0.6540 -5.0719
  584MOL0     H78798   8.330   6.124   7.683  4.0872  2.9438 -1.3370
  584MOL0     H78799   8.399   6.232   7.790 -3.0193  0.9061  2.8135
  584MOL0     H78800   8.046   6.134   8.044  1.5314 -1.8656 -1.1580
  584MOL0     H78801   7.832   6.225   8.015 -0.2792 -2.3516 -0.7066
  584MOL0     H78802   7.508   6.208   7.658 -0.4118 -3.1165  1.1586
  584MOL0     H78803   7.272   6.225   7.624 -0.2432 -0.9477 -0.4272
  584MOL0     H78804   6.971   6.360   7.930 -3.2663 -2.3823 -1.3916
  584MOL0     H78805   7.063   6.485   7.854  0.2087 -0.9766 -0.7167
  584MOL0     H78806   6.840   6.525   7.759 -0.3616  0.8402 -3.0373
  584MOL0     H78807   6.941   6.454   7.634  1.6900 -0.3325  0.6197
  584MOL0     H78808   6.824   6.235   7.691  6.3163  2.2956  0.7498
  584MOL0     H78809   6.764   6.313   7.836 -0.4436 -1.4919  0.1779
  584MOL0     H78810   6.675   6.399   7.566  2.5803 -0.0516 -0.0287
  584MOL0     H78811   6.593   6.448   7.719 -0.8101  0.7675 -2.1692
  584MOL0     H78812   6.561   6.196   7.572 -0.4299 -0.0156 -0.7540
  584MOL0     H78813   6.449   6.309   7.627 -0.8825 -1.0752  1.5968
  584MOL0     H78814   6.614   6.121   7.805  1.5507  0.8069  1.1718
  584MOL0     H78815   6.496   6.222   7.872  0.6113 -1.7673  1.3201
  584MOL0     H78816   6.503   5.981   7.660 -2.1363 -1.0221 -0.8239
  584MOL0     H78817   6.366   6.079   7.645  0.8787 -1.3089 -1.9182
  584MOL0     H78818   6.342   5.866   7.765  1.3052  0.3539 -0.5829
  584MOL0     H78819   6.470   5.903   7.865  1.9403  0.7422 -1.6305
  584MOL0     H78820   7.212   6.344   8.033  0.0419 -0.7562  0.3026
  584MOL0     H78821   7.453   6.314   8.073  1.2546 -4.7032  0.4912
  584MOL0     H78822   7.944   6.332   7.603 -0.4907  2.7018  1.1618
  584MOL0     H78823   8.157   6.230   7.652 -2.0674 -0.5741 -1.5131
  584MOL0     H78824   7.949   5.629   7.767 -0.3530  0.3323  0.2805
  584MOL0     H78825   7.693   5.632   7.700 -0.5292 -1.6082 -0.2174
  584MOL0     H78826   7.306   5.538   7.617  0.9433  2.6169  0.7342
  584MOL0     H78827   7.061   5.552   7.573 -1.1489 -1.9216  1.7011
  584MOL0     H78828   6.863   5.662   7.606  0.9454  0.1132  0.4615
  584MOL0     H78829   6.711   5.607   7.681 -0.7632 -3.0936 -0.2339
  584MOL0     H78830   6.755   5.374   7.581  1.6190 -0.0458  1.5619
  584MOL0     H78831   6.866   5.469   7.471  2.0586  0.9179  2.6214
  584MOL0     H78832   6.677   5.609   7.423  1.2744 -0.8838 -1.8625
  584MOL0     H78833   6.567   5.498   7.522 -2.2805  1.2324 -3.1796
  584MOL0     H78834   6.654   5.312   7.359 -0.9976  0.5362  1.3285
  584MOL0     H78835   6.524   5.403   7.307 -0.1943 -4.5218  3.3009
  584MOL0     H78836   6.839   5.514   7.032  1.3216 -1.8992  1.0216
  584MOL0     H78837   6.980   5.448   7.974 -0.9033  0.0217  0.2001
  584MOL0     H78838   7.260   5.511   8.144 -0.3122 -0.4150  0.6912
  584MOL0     H78839   7.136   5.391   8.121 -0.1587 -0.1499  1.0510
  584MOL0     H78840   7.305   5.350   8.085  1.9637  1.6859 -3.5074
  585MOL0     O78841   2.999   6.829   2.110 -0.0520 -0.7964 -0.1394
  585MOL0     C78842   2.901   6.787   2.054 -0.1043 -0.8390  0.9411
  585MOL0     O78843   2.775   6.829   2.067  0.4000 -0.7645 -0.0506
  585MOL0     C78844   2.743   6.959   2.113  0.8246  0.5420  0.1284
  585MOL0     C78845   2.823   7.068   2.090 -1.2705  0.1049  0.4179
  585MOL0     C78846   2.780   7.193   2.142  0.0765  0.2148 -0.1852
  585MOL0     C78847   2.646   7.206   2.192  0.3869 -0.6533  0.2260
  585MOL0     O78848   2.597   7.321   2.252 -0.2224 -0.0242 -0.4054
  585MOL0     C78849   2.682   7.387   2.348  0.3299 -0.1938 -0.6196
  585MOL0     C78850   2.673   7.541   2.315 -0.4549  0.9548  0.0178
  585MOL0     C78851   2.761   7.567   2.191  0.1451  0.7046 -0.2270
  585MOL0     C78852   2.742   7.714   2.143 -0.4760 -0.9301 -0.9606
  585MOL0     C78853   2.861   7.748   2.048 -0.3337 -0.7005  0.3678
  585MOL0     C78854   2.999   7.692   2.072  0.6572  0.7355  0.5213
  585MOL0     C78855   3.095   7.752   1.962  0.0618 -0.0595  0.6245
  585MOL0     C78856   3.240   7.709   1.953  1.0203  0.1327 -0.8655
  585MOL0     N78857   3.331   7.743   2.067 -0.0509 -0.5030  0.0051
  585MOL0     C78858   3.470   7.730   2.064 -0.7041 -0.8015  1.2982
  585MOL0     C78859   3.516   7.784   2.177  0.3578 -0.3113 -0.1661
  585MOL0     C78860   3.654   7.782   2.234 -0.7503  0.6352 -0.4354
  585MOL0     C78861   3.665   7.644   2.312  0.3997 -0.4970 -0.0682
  585MOL0     C78862   3.811   7.610   2.340 -0.1859  0.3638  0.3712
  585MOL0     C78863   3.863   7.550   2.213 -0.1301  0.6542 -0.4792
  585MOL0     O78864   3.980   7.490   2.266 -0.2413  1.2182 -0.1890
  585MOL0     C78865   4.008   7.363   2.244 -0.1335  0.8318  0.8873
  585MOL0     C78866   4.017   7.305   2.115 -0.6950  0.5215 -0.0957
  585MOL0     C78867   4.065   7.171   2.099 -0.4301  0.5529  0.1414
  585MOL0     C78868   4.101   7.097   2.216 -0.6599 -0.2338  0.5320
  585MOL0     C78869   4.180   6.966   2.194  1.3806  0.1307 -0.9575
  585MOL0     O78870   4.289   6.948   2.279  0.1203 -0.5703  0.0150
  585MOL0     C78871   4.371   6.842   2.258  0.2579 -0.5510  0.1472
  585MOL0     C78872   4.447   6.801   2.369 -0.8836 -0.2916  0.1771
  585MOL0     C78873   4.546   6.695   2.349 -0.9432  0.1402 -0.9610
  585MOL0     C78874   4.561   6.623   2.235 -1.0231 -0.8486 -0.3015
  585MOL0     O78875   4.654   6.530   2.205 -0.9399 -0.0298  0.5130
  585MOL0     C78876   4.698   6.448   2.314 -0.7605  0.3857 -0.7714
  585MOL0     C78877   4.804   6.355   2.263 -0.0626 -0.9010 -0.9707
  585MOL0     C78878   4.892   6.305   2.379 -0.3507  0.2942 -0.4807
  585MOL0     C78879   4.929   6.415   2.484  0.5792 -0.0440 -0.3697
  585MOL0     C78880   5.045   6.360   2.571  1.5378 -0.1578 -0.1500
  585MOL0     C78881   5.054   6.449   2.685 -0.4857 -0.4629 -0.5985
  585MOL0     C78882   5.157   6.415   2.786 -0.9602 -0.6896  1.0176
  585MOL0     C78883   5.090   6.334   2.899  1.2616  1.1766  0.4166
  585MOL0    Cl78884   4.958   6.427   2.968 -0.6147 -0.5481 -0.4566
  585MOL0     C78885   4.497   6.671   2.128 -0.4622  0.7431  0.2712
  585MOL0     C78886   4.400   6.773   2.131 -1.3234  0.4861  0.0929
  585MOL0     O78887   4.134   6.879   2.126  0.0593  0.1327 -0.4343
  585MOL0     C78888   4.091   7.152   2.352 -0.0431 -0.8962  0.3385
  585MOL0     C78889   4.041   7.284   2.352 -0.3975 -0.1938  0.0644
  585MOL0     N78890   3.402   7.810   2.254 -0.1176 -0.6010  0.1313
  585MOL0     N78891   3.298   7.782   2.191  0.4672 -0.5867 -0.1110
  585MOL0     C78892   2.563   7.091   2.199 -0.0851 -0.0266  0.6882
  585MOL0     C78893   2.612   6.972   2.158  0.0756 -0.2220 -0.2072
  585MOL0     C78894   2.917   6.674   1.952 -0.4529 -1.3908 -0.1594
  585MOL0     C78895   3.047   6.648   1.901 -1.3100  0.6125 -0.9646
  585MOL0     C78896   3.062   6.549   1.806  0.0550  0.5570 -0.9142
  585MOL0     C78897   2.952   6.483   1.747 -0.2988 -0.1835 -1.5728
  585MOL0     O78898   2.988   6.401   1.648 -1.0126  0.5985  1.3361
  585MOL0     C78899   2.898   6.298   1.600  0.1724  0.8820 -0.2426
  585MOL0     C78900   2.973   6.206   1.503 -0.9702 -0.0220  0.0006
  585MOL0     C78901   2.988   6.260   1.363 -0.4110  0.6116  0.0551
  585MOL0     C78902   3.076   6.156   1.286  0.1983  0.6384  0.3237
  585MOL0     C78903   2.993   6.036   1.262  0.0656  0.2241 -0.1004
  585MOL0     C78904   2.914   5.948   1.242 -0.3277  0.8095  0.4262
  585MOL0     C78905   2.827   6.510   1.800  1.6982  0.0149  0.0084
  585MOL0     C78906   2.810   6.597   1.902  1.7272  0.2360  1.0899
  585MOL0     C78907   2.670   6.595   1.960 -0.4603  0.5639  0.2224
  585MOL0     H78908   2.927   7.070   2.059 -0.8127  0.5192  1.9012
  585MOL0     H78909   2.861   7.265   2.138  0.0730  0.1762 -3.1111
  585MOL0     H78910   2.628   7.361   2.440 -4.4958  0.8846 -2.8263
  585MOL0     H78911   2.787   7.360   2.360  0.8218  1.4030 -1.1080
  585MOL0     H78912   2.711   7.600   2.399  1.8840  0.0439 -0.3309
  585MOL0     H78913   2.574   7.582   2.293 -2.3037 -2.7918  0.4363
  585MOL0     H78914   2.735   7.512   2.100  4.0639  0.6018 -1.4535
  585MOL0     H78915   2.862   7.558   2.230 -0.8107  0.6401  2.4657
  585MOL0     H78916   2.648   7.732   2.089 -1.8490  1.4283  1.8987
  585MOL0     H78917   2.735   7.780   2.230  2.3728  1.3959 -2.3218
  585MOL0     H78918   2.822   7.720   1.950  0.5797  0.6383 -0.3905
  585MOL0     H78919   2.867   7.857   2.041 -1.5761 -0.7390 -3.3408
  585MOL0     H78920   3.034   7.735   2.166  0.3059  0.1409  0.9287
  585MOL0     H78921   2.997   7.583   2.075 -0.4578  0.7035 -0.5598
  585MOL0     H78922   3.089   7.857   1.990 -1.1669  0.7529 -2.3001
  585MOL0     H78923   3.061   7.749   1.858  2.0158  2.7297 -0.2197
  585MOL0     H78924   3.233   7.601   1.936 -1.1699 -0.2537  1.7850
  585MOL0     H78925   3.289   7.746   1.863  0.7742 -1.5775 -1.7474
  585MOL0     H78926   3.537   7.691   1.988 -1.9276  0.3611 -0.4405
  585MOL0     H78927   3.732   7.789   2.158  1.5555  2.3886  1.9220
  585MOL0     H78928   3.669   7.869   2.298  0.1611  1.1211 -1.2869
  585MOL0     H78929   3.612   7.641   2.407 -0.5505 -0.1314 -0.5720
  585MOL0     H78930   3.615   7.568   2.250 -0.2102  2.2823 -3.3183
  585MOL0     H78931   3.813   7.538   2.422  0.2780  1.8393  1.7098
  585MOL0     H78932   3.872   7.700   2.354  3.4397 -1.6075 -1.5426
  585MOL0     H78933   3.884   7.616   2.129  0.4504  1.8768  0.5820
  585MOL0     H78934   3.794   7.473   2.180 -0.7502  1.2974 -0.7115
  585MOL0     H78935   3.993   7.365   2.027  0.2026  0.2354 -0.5443
  585MOL0     H78936   4.077   7.117   2.006  1.4586 -1.2515  1.3510
  585MOL0     H78937   4.416   6.837   2.466 -1.2232 -0.3726  0.1028
  585MOL0     H78938   4.606   6.657   2.432  2.0897 -0.5577 -3.2930
  585MOL0     H78939   4.737   6.517   2.390 -1.1769 -1.8734  1.6431
  585MOL0     H78940   4.622   6.388   2.365  0.3398  0.3483  0.8995
  585MOL0     H78941   4.749   6.277   2.210 -1.5543 -0.3028 -0.3756
  585MOL0     H78942   4.874   6.406   2.196  1.4055 -3.0239 -1.1374
  585MOL0     H78943   4.835   6.220   2.419 -0.6692  0.0641 -1.3996
  585MOL0     H78944   4.992   6.281   2.341  0.7501  3.0994  0.4026
  585MOL0     H78945   4.839   6.435   2.543  0.6715  4.1083 -1.3358
  585MOL0     H78946   4.965   6.507   2.436 -0.3969  1.5582  1.7638
  585MOL0     H78947   5.137   6.365   2.512  0.5775  2.5622 -1.5438
  585MOL0     H78948   5.004   6.260   2.591 -1.1853  0.1791 -3.1292
  585MOL0     H78949   5.075   6.546   2.640 -2.3101  0.8136  1.0917
  585MOL0     H78950   4.951   6.451   2.724  0.0267 -1.1561  0.8709
  585MOL0     H78951   5.204   6.506   2.823 -0.2984 -1.6884  2.7562
  585MOL0     H78952   5.238   6.356   2.741  3.3301  3.9717  1.7179
  585MOL0     H78953   5.048   6.242   2.856 -0.9372  1.1015  2.5416
  585MOL0     H78954   5.157   6.306   2.982  1.8567  5.3287  1.5503
  585MOL0     H78955   4.514   6.639   2.026 -1.9662  0.1356  0.1919
  585MOL0     H78956   4.365   6.798   2.031  1.6945  1.0930 -0.9005
  585MOL0     H78957   4.147   7.110   2.436  0.0909 -0.5081  0.4456
  585MOL0     H78958   4.039   7.344   2.442 -0.3654  1.5872 -1.0675
  585MOL0     H78959   2.461   7.092   2.236 -0.3237  0.3086  0.0371
  585MOL0     H78960   2.551   6.883   2.163  1.8668 -1.7333 -2.8111
  585MOL0     H78961   3.134   6.710   1.921  1.3021 -0.8792 -5.9431
  585MOL0     H78962   3.165   6.534   1.776 -0.2470 -0.6358 -1.4190
  585MOL0     H78963   2.811   6.345   1.555  0.2174 -0.1235 -1.4335
  585MOL0     H78964   2.861   6.244   1.687 -0.6259  1.9080  0.0775
  585MOL0     H78965   2.908   6.118   1.505  0.3428 -1.0252  1.2544
  585MOL0     H78966   3.067   6.182   1.554 -0.2817  2.8928  0.2636
  585MOL0     H78967   3.050   6.350   1.365  0.0823  0.2650  0.6663
  585MOL0     H78968   2.887   6.276   1.325 -0.1544 -0.5759 -1.2404
  585MOL0     H78969   3.106   6.203   1.192  2.6349  0.4055  0.9181
  585MOL0     H78970   3.166   6.130   1.343 -1.5202 -0.6249  2.6308
  585MOL0     H78971   2.855   5.859   1.231  0.7061  0.3197 -1.7120
  585MOL0     H78972   2.739   6.449   1.784  1.7470 -0.3652  1.0829
  585MOL0     H78973   2.669   6.582   2.068 -3.0667 -1.8885  0.0188
  585MOL0     H78974   2.616   6.688   1.937  3.0591  3.2215  1.7381
  585MOL0     H78975   2.607   6.514   1.922 -2.9426  2.4869 -0.0593
  586MOL0     O78976   5.390   5.146   7.706  0.4946  0.0580 -0.7088
  586MOL0     C78977   5.314   5.092   7.621 -0.9390 -0.0003  0.8651
  586MOL0     O78978   5.221   5.151   7.540 -0.6114 -0.6048 -0.2353
  586MOL0     C78979   5.202   5.283   7.562  0.1927 -0.8924  0.1332
  586MOL0     C78980   5.284   5.392   7.512  0.2314  0.5416  0.7172
  586MOL0     C78981   5.255   5.524   7.544  0.6323  0.2044 -0.4735
  586MOL0     C78982   5.159   5.549   7.640 -0.2169 -0.0472  1.2510
  586MOL0     O78983   5.114   5.676   7.660  0.8630  0.4795  0.1299
  586MOL0     C78984   5.159   5.785   7.586 -0.6435 -1.6446  0.8078
  586MOL0     C78985   5.099   5.922   7.633  0.3089 -0.8467  0.0553
  586MOL0     C78986   5.169   6.043   7.562  0.7115 -0.2913 -0.9089
  586MOL0     C78987   5.129   6.183   7.602  0.0901 -0.7139  0.2148
  586MOL0     C78988   5.212   6.300   7.566 -0.1727  0.3621 -0.3416
  586MOL0     C78989   5.165   6.423   7.644 -1.3029  0.3071  0.3826
  586MOL0     C78990   5.274   6.530   7.639  0.9602 -0.6107 -0.0087
  586MOL0     C78991   5.303   6.590   7.498 -0.0023  0.1694  0.1604
  586MOL0     N78992   5.388   6.700   7.508 -0.8150 -0.0562  0.3406
  586MOL0     C78993   5.361   6.809   7.584  0.9775 -0.9167 -0.4723
  586MOL0     C78994   5.482   6.868   7.589  0.8604  0.3191  0.6352
  586MOL0     C78995   5.529   6.974   7.687  0.2249  0.1313 -0.4180
  586MOL0     C78996   5.432   7.090   7.693  0.1422 -0.5307 -0.0741
  586MOL0     C78997   5.467   7.202   7.790 -0.7442  0.4601  0.2224
  586MOL0     C78998   5.601   7.283   7.744  0.6897  0.9559  0.5659
  586MOL0     O78999   5.577   7.353   7.622 -0.5267  0.6176 -0.3247
  586MOL0     C79000   5.510   7.475   7.612  0.2542 -0.1663  0.2859
  586MOL0     C79001   5.478   7.564   7.721  0.9810 -0.1996  0.9735
  586MOL0     C79002   5.409   7.682   7.694  0.8730 -0.6141  0.1313
  586MOL0     C79003   5.351   7.704   7.563 -0.2358  0.0287  0.6436
  586MOL0     C79004   5.263   7.821   7.528  0.5399  0.7714 -0.6175
  586MOL0     O79005   5.228   7.842   7.403 -0.1543  0.4821  0.7875
  586MOL0     C79006   5.186   7.966   7.365 -0.1603 -0.2654 -0.7092
  586MOL0     C79007   5.057   8.005   7.396  0.0406 -0.1097 -0.2169
  586MOL0     C79008   5.005   8.125   7.358 -0.2021 -1.1605 -0.0093
  586MOL0     C79009   5.087   8.220   7.294  0.9445 -0.3973  0.5052
  586MOL0     O79010   5.026   8.345   7.264 -0.8509 -0.2114 -0.1854
  586MOL0     C79011   5.100   8.447   7.192 -0.1137 -0.2026  0.6255
  586MOL0     C79012   5.012   8.546   7.134  0.6234 -0.5307  0.2310
  586MOL0     C79013   4.945   8.639   7.233 -0.4430  0.0294  0.9463
  586MOL0     C79014   4.817   8.699   7.166  0.5983 -0.0803  1.0680
  586MOL0     C79015   4.748   8.807   7.257  0.2239  0.2003 -1.2375
  586MOL0     C79016   4.617   8.860   7.189 -0.4998  0.7839 -0.2048
  586MOL0     C79017   4.544   8.950   7.293 -0.3268  0.5456  0.4161
  586MOL0     C79018   4.602   9.091   7.319  0.1105  0.4201 -0.1618
  586MOL0    Cl79019   4.538   9.201   7.194 -0.1389 -0.2431  0.3819
  586MOL0     C79020   5.219   8.182   7.265  0.0024 -0.8532 -0.0548
  586MOL0     C79021   5.268   8.054   7.313 -0.1190 -0.2389 -0.2154
  586MOL0     O79022   5.239   7.899   7.623 -0.2929  1.4313  0.6215
  586MOL0     C79023   5.385   7.612   7.457 -0.8147 -0.0107  0.4912
  586MOL0     C79024   5.460   7.505   7.487 -0.0000 -0.2326  0.0365
  586MOL0     N79025   5.577   6.802   7.510  0.2185 -0.0724  0.4461
  586MOL0     N79026   5.514   6.700   7.460 -0.0992  0.0827 -0.2736
  586MOL0     C79027   5.081   5.449   7.688 -0.4445  0.0764  0.5142
  586MOL0     C79028   5.107   5.314   7.657 -0.3967 -0.4941 -0.5994
  586MOL0     C79029   5.332   4.943   7.616  0.6549  0.1818  0.7743
  586MOL0     C79030   5.343   4.878   7.485 -0.7949 -0.9906  1.5248
  586MOL0     C79031   5.388   4.746   7.471 -0.0276  0.6297 -0.5405
  586MOL0     C79032   5.396   4.670   7.587 -0.2130  0.1390 -0.5703
  586MOL0     O79033   5.447   4.541   7.583 -0.0111 -0.1171  0.7488
  586MOL0     C79034   5.403   4.440   7.672  0.1550  0.3605  0.5586
  586MOL0     C79035   5.508   4.325   7.700 -0.4300  0.0187  0.5475
  586MOL0     C79036   5.512   4.229   7.568  0.5770  0.0406 -1.5899
  586MOL0     C79037   5.592   4.099   7.593 -0.4340  0.0915  0.2319
  586MOL0     C79038   5.586   4.009   7.478 -0.1045  0.6320  0.1233
  586MOL0     C79039   5.563   3.932   7.392 -0.3605 -0.8680 -0.0346
  586MOL0     C79040   5.366   4.727   7.715 -0.8036 -0.9516 -0.0292
  586MOL0     C79041   5.340   4.860   7.729  1.2597  0.4795 -0.2173
  586MOL0     C79042   5.319   4.908   7.868  0.4324 -0.6141  0.1756
  586MOL0     H79043   5.361   5.357   7.444  0.5757  1.0037  0.8666
  586MOL0     H79044   5.323   5.604   7.518  0.5665  0.4868  0.1889
  586MOL0     H79045   5.268   5.792   7.600  0.4971 -4.2356 -4.2898
  586MOL0     H79046   5.135   5.777   7.480 -1.5989  2.1451  0.6205
  586MOL0     H79047   5.100   5.933   7.742 -1.9664 -1.7015  0.2308
  586MOL0     H79048   4.993   5.924   7.604 -0.1190  2.6731  1.3713
  586MOL0     H79049   5.167   6.036   7.453  1.1758 -2.3734 -0.8200
  586MOL0     H79050   5.273   6.030   7.592  0.4568 -0.3711 -0.0392
  586MOL0     H79051   5.027   6.200   7.565  0.3552  0.4454 -0.0075
  586MOL0     H79052   5.123   6.188   7.711 -3.1875 -0.2906  0.1366
  586MOL0     H79053   5.311   6.281   7.607 -0.5516  1.1405  1.0102
  586MOL0     H79054   5.208   6.325   7.459 -1.3809  1.5157 -0.0613
  586MOL0     H79055   5.071   6.448   7.595 -2.8193 -3.6864  0.9129
  586MOL0     H79056   5.157   6.390   7.748  2.9607 -2.2799  0.1469
  586MOL0     H79057   5.372   6.494   7.673 -0.0189 -2.2295  1.2665
  586MOL0     H79058   5.251   6.611   7.709  3.5970 -2.2320  2.9981
  586MOL0     H79059   5.344   6.503   7.445  2.8396 -0.3348  2.8806
  586MOL0     H79060   5.213   6.635   7.455  0.3937  0.6160 -0.2121
  586MOL0     H79061   5.274   6.832   7.644  0.3968 -2.3112 -0.7338
  586MOL0     H79062   5.527   6.922   7.783 -0.3261  2.2460  0.7758
  586MOL0     H79063   5.635   6.995   7.669  0.1077  2.1910  0.9542
  586MOL0     H79064   5.416   7.126   7.591 -0.2875 -0.2336  0.0966
  586MOL0     H79065   5.333   7.059   7.728  0.4369  1.0991  2.5038
  586MOL0     H79066   5.493   7.156   7.886  0.4139  2.1934  0.7931
  586MOL0     H79067   5.390   7.278   7.803 -0.4559  0.7921  0.0052
  586MOL0     H79068   5.678   7.205   7.734 -0.4514 -0.3194  1.3364
  586MOL0     H79069   5.645   7.356   7.812  2.3458 -0.3614  0.9878
  586MOL0     H79070   5.505   7.545   7.825  2.6698  4.2415  1.5539
  586MOL0     H79071   5.390   7.750   7.777 -0.5072  0.4389 -1.0089
  586MOL0     H79072   4.989   7.941   7.451 -1.5743  2.7131  1.2682
  586MOL0     H79073   4.901   8.142   7.385 -0.4816 -3.6985  0.7736
  586MOL0     H79074   5.178   8.494   7.254 -2.3559  1.6077  2.2344
  586MOL0     H79075   5.155   8.416   7.102  2.4181  1.1836  1.5804
  586MOL0     H79076   5.076   8.605   7.067 -0.5270 -1.6457 -1.9790
  586MOL0     H79077   4.945   8.486   7.071  0.4565 -1.8934  1.6625
  586MOL0     H79078   4.916   8.581   7.320  1.8194 -4.9691 -1.2235
  586MOL0     H79079   5.022   8.713   7.255 -0.0947  0.2382 -0.8341
  586MOL0     H79080   4.748   8.617   7.143  3.5979 -2.6555  0.5805
  586MOL0     H79081   4.855   8.740   7.072  0.9667 -3.5305 -0.4653
  586MOL0     H79082   4.818   8.886   7.287  0.3418  1.1341 -3.7068
  586MOL0     H79083   4.727   8.757   7.352 -0.4894 -0.1366 -1.5657
  586MOL0     H79084   4.636   8.930   7.107  4.0123  1.9500  1.5512
  586MOL0     H79085   4.550   8.780   7.155 -1.0072  0.6374  1.0844
  586MOL0     H79086   4.557   8.905   7.392  1.4251  0.1067  0.0128
  586MOL0     H79087   4.444   8.966   7.252 -0.4333 -1.0547 -0.0407
  586MOL0     H79088   4.577   9.135   7.416 -1.1545 -1.7825  0.5757
  586MOL0     H79089   4.711   9.085   7.308 -0.1352 -0.5868 -2.6833
  586MOL0     H79090   5.293   8.256   7.238  1.0915 -0.3724  3.5950
  586MOL0     H79091   5.373   8.033   7.293  0.5436  2.5551 -0.0022
  586MOL0     H79092   5.335   7.623   7.361  0.5618  0.0814 -0.2305
  586MOL0     H79093   5.474   7.436   7.404  2.4997  2.3780 -1.9005
  586MOL0     H79094   5.008   5.479   7.763 -1.1692  3.0753 -1.1794
  586MOL0     H79095   5.041   5.238   7.698  0.2400 -1.4311 -1.2603
  586MOL0     H79096   5.331   4.935   7.394  0.4183 -0.2670  1.7979
  586MOL0     H79097   5.407   4.695   7.377 -0.7174  1.8946 -1.3993
  586MOL0     H79098   5.305   4.395   7.650  0.6905  0.1266 -1.5806
  586MOL0     H79099   5.390   4.474   7.775 -2.2731  1.1842  0.0485
  586MOL0     H79100   5.467   4.268   7.783 -2.5246 -2.0538 -1.7350
  586MOL0     H79101   5.609   4.363   7.716 -0.5650  1.0765 -0.8935
  586MOL0     H79102   5.556   4.283   7.483  0.4062  1.3486 -0.8773
  586MOL0     H79103   5.413   4.196   7.536  1.3519 -2.2996 -1.7510
  586MOL0     H79104   5.693   4.121   7.626 -0.3050 -4.6032  3.8856
  586MOL0     H79105   5.552   4.048   7.681  0.2399 -0.1849  0.3777
  586MOL0     H79106   5.536   3.880   7.303 -0.4034 -2.1751  0.7301
  586MOL0     H79107   5.387   4.679   7.810 -0.2583  2.7463  1.9004
  586MOL0     H79108   5.409   4.920   7.929  1.4310  3.3673 -1.8121
  586MOL0     H79109   5.270   5.005   7.866 -2.1095 -1.7988 -0.0131
  586MOL0     H79110   5.240   4.844   7.910 -1.2146  0.2530 -1.4701
  587MOL0     O79111   5.293   3.853   9.260 -0.0135 -0.8433  0.1147
  587MOL0     C79112   5.280   3.870   9.139 -0.6002  0.1243  0.2427
  587MOL0     O79113   5.204   3.977   9.087 -0.2742  0.2559 -0.0269
  587MOL0     C79114   5.159   4.073   9.179 -0.0606  0.3293  0.1439
  587MOL0     C79115   5.073   4.046   9.278 -0.5430 -0.4091 -0.0928
  587MOL0     C79116   5.041   4.154   9.356  0.5763  0.8758  0.3431
  587MOL0     C79117   5.080   4.282   9.340 -0.3697  1.5256 -0.3226
  587MOL0     O79118   5.015   4.366   9.421  0.0342 -0.6980  0.1081
  587MOL0     C79119   5.010   4.496   9.382  0.4679 -0.3661  0.1810
  587MOL0     C79120   4.896   4.562   9.476 -1.0627 -0.6474  0.0576
  587MOL0     C79121   4.914   4.535   9.621  1.0900  0.3043 -0.3898
  587MOL0     C79122   4.861   4.655   9.711  0.9789  0.7222  0.5133
  587MOL0     C79123   4.924   4.793   9.670  0.1670 -0.7632 -0.1648
  587MOL0     C79124   4.888   4.886   9.785 -0.5963 -0.7300  0.1116
  587MOL0     C79125   4.936   5.023   9.753 -0.9914  0.7100  0.4856
  587MOL0     C79126   4.943   5.095   9.887  0.0153 -0.2735  0.7335
  587MOL0     N79127   5.001   5.231   9.877  0.9746  0.0537 -0.9497
  587MOL0     C79128   5.143   5.253   9.862 -0.3991  0.3314  1.2408
  587MOL0     C79129   5.162   5.376   9.834 -0.7670 -0.3523  0.4779
  587MOL0     C79130   5.287   5.448   9.826  0.7107 -0.5751  0.9743
  587MOL0     C79131   5.285   5.581   9.912 -0.0657  0.6654  0.3482
  587MOL0     C79132   5.424   5.650   9.901 -0.0001  0.6757  0.2647
  587MOL0     C79133   5.433   5.793   9.956  0.3595  0.4421  0.3033
  587MOL0     O79134   5.428   5.874   9.841  0.6234 -0.1631  0.5009
  587MOL0     C79135   5.441   6.015   9.858  0.2780 -0.7228  0.4655
  587MOL0     C79136   5.353   6.094   9.934  0.2753  0.3347 -0.5453
  587MOL0     C79137   5.386   6.222   9.954  0.2904  0.0681 -0.8058
  587MOL0     C79138   5.490   6.287   9.880  0.1039  0.1795  0.1679
  587MOL0     C79139   5.523   6.428   9.892 -0.7379 -0.3761 -0.2983
  587MOL0     O79140   5.470   6.491   9.998 -0.2784 -0.3400 -1.0872
  587MOL0     C79141   5.499   6.626  10.008  0.4469 -1.3993  0.3421
  587MOL0     C79142   5.400   6.712   9.946  0.1857 -0.2320  0.0313
  587MOL0     C79143   5.407   6.853   9.937 -0.2790 -0.2340  0.4254
  587MOL0     C79144   5.512   6.905  10.015  1.0557 -0.0683  0.7457
  587MOL0     O79145   5.536   7.046  10.050 -0.2588  0.1266  0.7031
  587MOL0     C79146   5.453   7.151   9.991 -0.7249  0.0980 -0.5809
  587MOL0     C79147   5.526   7.209   9.882  0.7477  0.3987 -0.6578
  587MOL0     C79148   5.442   7.309   9.804 -0.3625 -0.5846 -0.2343
  587MOL0     C79149   5.500   7.350   9.667  0.5801  0.5297 -0.4296
  587MOL0     C79150   5.401   7.438   9.589 -0.2995  0.1114  0.1339
  587MOL0     C79151   5.452   7.459   9.450 -0.0589 -0.0593 -0.1051
  587MOL0     C79152   5.355   7.527   9.357  0.3731  0.0773  0.9111
  587MOL0     C79153   5.427   7.562   9.219 -0.2094  0.7418 -0.2603
  587MOL0    Cl79154   5.313   7.589   9.089 -0.1647 -0.1329  0.1398
  587MOL0     C79155   5.596   6.825  10.084 -0.3499 -0.5326  0.4633
  587MOL0     C79156   5.600   6.692  10.077 -0.3223  0.7941 -0.1222
  587MOL0     O79157   5.586   6.483   9.799 -0.1962  0.1088  0.8725
  587MOL0     C79158   5.557   6.215   9.784 -0.2551  1.2272 -0.0202
  587MOL0     C79159   5.535   6.079   9.779 -0.2455 -0.6898  0.5656
  587MOL0     N79160   5.040   5.434   9.817 -0.6689 -1.1224 -0.8551
  587MOL0     N79161   4.937   5.351   9.846 -0.2801  0.1240 -0.4518
  587MOL0     C79162   5.188   4.302   9.254 -0.0167  0.1866  0.4493
  587MOL0     C79163   5.219   4.200   9.165  1.4579  0.4480  0.2233
  587MOL0     C79164   5.355   3.788   9.036  0.5385 -0.7336 -0.1995
  587MOL0     C79165   5.310   3.797   8.904 -0.6444  0.3719 -0.1814
  587MOL0     C79166   5.358   3.722   8.800 -0.2645 -0.1354 -0.0415
  587MOL0     C79167   5.463   3.631   8.831  0.0940 -0.4584 -0.1294
  587MOL0     O79168   5.526   3.575   8.722  0.1906 -0.5220 -0.1020
  587MOL0     C79169   5.666   3.592   8.711  0.7031  0.0071  0.6352
  587MOL0     C79170   5.730   3.542   8.583  0.6998 -0.1243 -0.8370
  587MOL0     C79171   5.656   3.592   8.461 -0.6095  0.4633 -1.4304
  587MOL0     C79172   5.711   3.514   8.338 -0.0212 -0.5628 -1.1444
  587MOL0     C79173   5.844   3.558   8.316 -0.9094  0.0932 -0.5569
  587MOL0     C79174   5.949   3.618   8.277  0.2655 -0.1254  0.0626
  587MOL0     C79175   5.513   3.630   8.969  0.3326 -0.2329  1.3038
  587MOL0     C79176   5.463   3.705   9.070 -0.9541 -0.0774  0.0561
  587MOL0     C79177   5.530   3.694   9.211  0.1587  0.2320  0.1982
  587MOL0     H79178   5.029   3.949   9.299 -2.3391  0.8817  2.7440
  587MOL0     H79179   4.952   4.144   9.418  0.3273 -0.2773 -0.1753
  587MOL0     H79180   5.109   4.541   9.386 -0.3261  2.4277 -4.4085
  587MOL0     H79181   4.970   4.499   9.280 -2.5060  2.1540  1.2674
  587MOL0     H79182   4.796   4.524   9.452 -1.1083 -0.3924 -0.1595
  587MOL0     H79183   4.900   4.669   9.455 -3.5440 -0.6822 -0.9560
  587MOL0     H79184   5.016   4.524   9.657  0.5613 -1.7878  0.6496
  587MOL0     H79185   4.856   4.443   9.637 -1.4325  1.4277 -2.2892
  587MOL0     H79186   4.754   4.677   9.697  1.1682  0.5615 -1.5349
  587MOL0     H79187   4.888   4.630   9.814  1.3041  1.7001  0.6789
  587MOL0     H79188   5.033   4.791   9.660  0.0626 -3.6138 -1.8796
  587MOL0     H79189   4.880   4.839   9.581 -2.9876 -0.7159  1.3021
  587MOL0     H79190   4.780   4.891   9.800 -0.4291  0.8849  1.0426
  587MOL0     H79191   4.937   4.854   9.877  3.0488  0.0924 -1.3850
  587MOL0     H79192   4.870   5.064   9.677 -1.2970 -0.5361  0.0568
  587MOL0     H79193   5.037   5.015   9.711 -1.1011 -1.1569  0.4916
  587MOL0     H79194   4.837   5.094   9.914 -0.6815  0.8727 -1.6645
  587MOL0     H79195   4.994   5.040   9.966  2.0053 -2.6507 -2.0116
  587MOL0     H79196   5.223   5.181   9.873  0.9804  0.8440 -3.3426
  587MOL0     H79197   5.374   5.395   9.864  0.1618 -0.2776  2.7161
  587MOL0     H79198   5.292   5.470   9.719  1.9538  1.3577  1.3880
  587MOL0     H79199   5.212   5.652   9.870 -0.0137  1.5679  1.7119
  587MOL0     H79200   5.254   5.563  10.015 -2.2724 -0.5286 -0.4466
  587MOL0     H79201   5.443   5.651   9.793  2.7392  2.5748  0.6624
  587MOL0     H79202   5.501   5.592   9.953 -0.3494  2.4515  2.9309
  587MOL0     H79203   5.529   5.801  10.007  0.6030  0.1264 -0.1025
  587MOL0     H79204   5.349   5.823  10.019 -1.0598  0.0553 -1.3359
  587MOL0     H79205   5.267   6.062   9.992 -0.1153 -1.0325 -1.8184
  587MOL0     H79206   5.324   6.282  10.020 -1.1358 -2.9048  0.7602
  587MOL0     H79207   5.322   6.656   9.895  0.1142 -1.1062  1.0694
  587MOL0     H79208   5.342   6.927   9.891  2.4287  0.7629 -2.1016
  587MOL0     H79209   5.353   7.110   9.973 -2.2242  2.4074  1.6970
  587MOL0     H79210   5.438   7.232  10.063  1.8676  0.6020 -0.5338
  587MOL0     H79211   5.609   7.269   9.921  0.2475  1.9972 -1.9551
  587MOL0     H79212   5.544   7.132   9.807  1.1311  1.9673 -2.2372
  587MOL0     H79213   5.339   7.276   9.795 -0.5921 -1.2989  3.5345
  587MOL0     H79214   5.418   7.392   9.871 -2.6259 -0.7943 -0.6955
  587MOL0     H79215   5.516   7.260   9.608  3.6637  0.2971  0.6348
  587MOL0     H79216   5.593   7.401   9.690  0.4616 -0.5519  2.9427
  587MOL0     H79217   5.393   7.536   9.638 -2.4680  0.3986 -0.6730
  587MOL0     H79218   5.304   7.387   9.584 -1.1025  1.5607  0.1816
  587MOL0     H79219   5.547   7.513   9.440  0.0622 -0.3305 -0.4609
  587MOL0     H79220   5.478   7.364   9.403 -3.4666 -1.5681  0.7784
  587MOL0     H79221   5.299   7.611   9.400 -2.5563 -1.9773  1.4296
  587MOL0     H79222   5.276   7.452   9.345 -0.9206  1.4833  0.3545
  587MOL0     H79223   5.482   7.656   9.227  2.3952 -0.5680 -1.4661
  587MOL0     H79224   5.498   7.482   9.194 -1.8693 -1.3835  1.3768
  587MOL0     H79225   5.678   6.874  10.135  1.2347  0.1793 -2.5345
  587MOL0     H79226   5.678   6.633  10.123 -0.2442  1.1128  0.1494
  587MOL0     H79227   5.636   6.265   9.729  0.0351 -0.0941 -0.8277
  587MOL0     H79228   5.599   6.014   9.720 -3.3294 -4.7654  1.2788
  587MOL0     H79229   5.225   4.404   9.247  0.5005  0.1587  2.2556
  587MOL0     H79230   5.277   4.200   9.074  1.5957 -1.5375  0.2698
  587MOL0     H79231   5.232   3.865   8.868 -0.5560  0.2893 -0.5272
  587MOL0     H79232   5.338   3.759   8.700 -1.7849 -0.8589 -0.0274
  587MOL0     H79233   5.716   3.526   8.782  0.8853 -0.9627 -0.3689
  587MOL0     H79234   5.686   3.698   8.728  0.3715  0.2978 -0.6876
  587MOL0     H79235   5.712   3.434   8.587 -1.7804  0.2707  1.6799
  587MOL0     H79236   5.836   3.569   8.583  0.2380  2.0175 -2.6109
  587MOL0     H79237   5.680   3.698   8.454  1.7358 -0.0938 -2.6914
  587MOL0     H79238   5.548   3.573   8.471 -0.8484  1.1128 -2.5678
  587MOL0     H79239   5.697   3.407   8.359  1.2093 -0.2117  1.8043
  587MOL0     H79240   5.651   3.545   8.252  1.1805  2.8524 -0.9107
  587MOL0     H79241   6.045   3.654   8.247  0.8148 -1.0157  0.6975
  587MOL0     H79242   5.603   3.572   8.989  2.2089  0.6296 -3.4757
  587MOL0     H79243   5.581   3.787   9.239  0.7341  0.3896 -1.3201
  587MOL0     H79244   5.452   3.678   9.287  0.2745  1.1635  0.5281
  587MOL0     H79245   5.604   3.614   9.223 -0.0536  0.0217  0.1096
  588MOL0     O79246   1.860  10.903  11.138  0.0127 -0.6658 -0.4794
  588MOL0     C79247   1.776  10.826  11.092 -1.2810  0.0924  0.3090
  588MOL0     O79248   1.800  10.728  11.007 -0.3656  0.0592  0.7045
  588MOL0     C79249   1.924  10.676  10.984 -0.2372  0.4980 -0.1783
  588MOL0     C79250   1.949  10.641  10.846 -1.2046 -0.0868 -0.4734
  588MOL0     C79251   2.061  10.567  10.805 -0.0585  0.3508 -0.1991
  588MOL0     C79252   2.157  10.541  10.898  0.8406 -0.2697  0.3303
  588MOL0     O79253   2.275  10.486  10.856  0.4099  0.6125  0.1793
  588MOL0     C79254   2.295  10.344  10.890  0.4611 -0.1265 -0.2298
  588MOL0     C79255   2.405  10.291  10.804  0.3734  1.1085  0.7566
  588MOL0     C79256   2.545  10.361  10.833  0.0440  0.0641  0.3149
  588MOL0     C79257   2.643  10.267  10.758  0.3788  0.0195 -0.7986
  588MOL0     C79258   2.783  10.321  10.772 -0.1467 -1.0660 -0.2663
  588MOL0     C79259   2.890  10.225  10.707 -0.1013 -0.6139  0.1847
  588MOL0     C79260   2.894  10.092  10.784  0.4104 -0.7223 -0.6768
  588MOL0     C79261   2.962  10.088  10.916  0.8138 -0.8037 -0.2329
  588MOL0     N79262   3.093  10.152  10.901  0.1722 -0.1768  0.3804
  588MOL0     C79263   3.207  10.093  10.850 -0.0333 -0.1566 -0.0908
  588MOL0     C79264   3.302  10.188  10.873  0.5589 -0.3903 -0.1825
  588MOL0     C79265   3.450  10.183  10.833  0.3161 -0.2777  0.9250
  588MOL0     C79266   3.494  10.068  10.733 -0.3596 -1.6451 -0.6699
  588MOL0     C79267   3.551   9.951  10.814 -0.2376 -0.2450  0.2858
  588MOL0     C79268   3.691   9.974  10.874 -0.6806 -0.0813 -0.9576
  588MOL0     O79269   3.781   9.937  10.766  0.2296  0.0330 -0.3457
  588MOL0     C79270   3.913   9.938  10.784  0.9244 -0.7336 -0.5254
  588MOL0     C79271   4.000  10.028  10.717 -0.3502  0.0964 -0.1356
  588MOL0     C79272   4.135  10.027  10.760 -0.4479  0.0678 -0.5122
  588MOL0     C79273   4.188   9.938  10.854 -0.8506  1.3744  0.0310
  588MOL0     C79274   4.337   9.918  10.843  0.2258 -0.3963  0.4448
  588MOL0     O79275   4.387   9.796  10.866 -0.7308 -0.8929 -0.5367
  588MOL0     C79276   4.515   9.777  10.837  0.1183 -0.1211 -0.0260
  588MOL0     C79277   4.561   9.684  10.744 -0.3527 -0.4790 -0.2908
  588MOL0     C79278   4.695   9.664  10.712  0.0077  0.0281 -0.1012
  588MOL0     C79279   4.796   9.726  10.790  1.1671 -0.0687 -0.5510
  588MOL0     O79280   4.934   9.706  10.771  0.4123 -0.8755  0.2147
  588MOL0     C79281   5.040   9.735  10.859 -0.1404  0.7276  0.7139
  588MOL0     C79282   5.053   9.604  10.942 -0.6471 -0.0705 -0.4854
  588MOL0     C79283   5.157   9.614  11.046  0.7594  0.6962  0.4902
  588MOL0     C79284   5.155   9.509  11.161  0.1958  0.2912  1.0562
  588MOL0     C79285   5.170   9.354  11.118  0.3443  0.2197  0.2824
  588MOL0     C79286   5.164   9.263  11.246  0.1607  0.3031  0.0884
  588MOL0     C79287   5.148   9.117  11.190  0.1655 -0.5423  0.0331
  588MOL0     C79288   5.004   9.089  11.166  0.9855 -0.1121 -0.6737
  588MOL0    Cl79289   4.908   9.086  11.320 -0.0596 -0.0374 -0.2397
  588MOL0     C79290   4.752   9.810  10.894  0.0887  0.1158 -0.1235
  588MOL0     C79291   4.610   9.846  10.911 -0.0610  0.3842  0.1597
  588MOL0     O79292   4.408  10.016  10.809 -0.1566 -0.3327 -0.4045
  588MOL0     C79293   4.101   9.850  10.914 -0.1822  0.8328 -0.4075
  588MOL0     C79294   3.965   9.856  10.889  0.3758  0.1120  0.5282
  588MOL0     N79295   3.240  10.294  10.927  0.7032  1.0298  0.6926
  588MOL0     N79296   3.117  10.281  10.940  0.1128  0.4642 -0.2229
  588MOL0     C79297   2.136  10.573  11.031 -0.8299 -0.2589  1.1215
  588MOL0     C79298   2.028  10.640  11.073 -0.0802  0.0635 -1.2026
  588MOL0     C79299   1.635  10.865  11.124 -0.1965  0.0722  0.3593
  588MOL0     C79300   1.533  10.784  11.075  0.5296  0.9073 -0.8046
  588MOL0     C79301   1.393  10.820  11.088 -0.5791 -0.0604  0.4954
  588MOL0     C79302   1.362  10.923  11.167 -0.2488 -0.2063 -0.7443
  588MOL0     O79303   1.230  10.937  11.187 -0.3824  0.4361 -0.5087
  588MOL0     C79304   1.180  11.058  11.255  1.1698  0.8661 -0.4908
  588MOL0     C79305   1.021  11.064  11.248  0.3758  0.2758  0.8287
  588MOL0     C79306   0.955  10.964  11.327 -0.6664  0.9171  0.8204
  588MOL0     C79307   0.807  10.956  11.315  0.9020 -0.0988  0.5932
  588MOL0     C79308   0.756  10.898  11.191 -0.2446 -0.4187 -0.2001
  588MOL0     C79309   0.724  10.843  11.093  0.1276 -0.7793 -0.0043
  588MOL0     C79310   1.455  11.016  11.202 -0.2935 -0.2588 -0.3523
  588MOL0     C79311   1.598  10.995  11.183 -0.1960 -0.5167 -0.3275
  588MOL0     C79312   1.695  11.109  11.209  0.1911  0.3309  0.3508
  588MOL0     H79313   1.884  10.670  10.763  0.4927 -2.7946 -2.9382
  588MOL0     H79314   2.095  10.541  10.705  0.8533 -0.0494  0.2083
  588MOL0     H79315   2.305  10.336  10.999  2.7801  1.0739 -0.2898
  588MOL0     H79316   2.198  10.301  10.863 -1.1951  3.9866 -1.6071
  588MOL0     H79317   2.383  10.293  10.697 -1.4722  1.3237  1.1134
  588MOL0     H79318   2.416  10.187  10.837 -1.2495 -0.0071 -1.8547
  588MOL0     H79319   2.570  10.361  10.939  6.0919  2.2342 -0.6869
  588MOL0     H79320   2.548  10.464  10.797  0.0034 -0.4466 -1.2735
  588MOL0     H79321   2.636  10.172  10.811 -0.6998  1.0117  0.9072
  588MOL0     H79322   2.604  10.245  10.658 -1.3786 -0.4841 -0.0336
  588MOL0     H79323   2.784  10.413  10.714 -4.9682 -2.7706 -3.6930
  588MOL0     H79324   2.809  10.343  10.876  0.5949 -1.4666 -0.3535
  588MOL0     H79325   2.866  10.197  10.604  0.7502 -0.8923  0.0553
  588MOL0     H79326   2.989  10.270  10.699 -0.8856  1.9126  3.1820
  588MOL0     H79327   2.951  10.019  10.726  0.5520 -2.2491  1.2840
  588MOL0     H79328   2.796  10.045  10.795 -0.4907  1.1981 -0.0254
  588MOL0     H79329   2.909  10.139  10.997  0.9966 -2.3333  0.8973
  588MOL0     H79330   2.974   9.986  10.954 -1.7642 -0.1949  2.5877
  588MOL0     H79331   3.210   9.991  10.813 -2.4385  0.7000 -3.0073
  588MOL0     H79332   3.478  10.276  10.782  0.4155 -1.1011 -0.5753
  588MOL0     H79333   3.499  10.167  10.930  1.3867 -0.7608  0.3178
  588MOL0     H79334   3.417  10.054  10.656 -0.1533  0.4502 -1.3212
  588MOL0     H79335   3.578  10.114  10.680 -0.6358  2.0683  1.7632
  588MOL0     H79336   3.563   9.862  10.751 -2.9124  0.4109 -1.3262
  588MOL0     H79337   3.480   9.936  10.895  0.3096  2.1759  1.2903
  588MOL0     H79338   3.714   9.914  10.963 -1.7533  0.5222 -0.2538
  588MOL0     H79339   3.700  10.080  10.901  3.4922 -0.8433  1.4813
  588MOL0     H79340   3.961  10.098  10.644  2.2564 -1.9894 -3.8956
  588MOL0     H79341   4.198  10.098  10.708 -1.8818  1.4815 -0.3960
  588MOL0     H79342   4.495   9.617  10.689  0.9388 -2.0888  0.0331
  588MOL0     H79343   4.719   9.594  10.633 -3.3762 -1.0923 -0.2824
  588MOL0     H79344   5.135   9.745  10.806 -0.5962  1.5477  0.0306
  588MOL0     H79345   5.026   9.828  10.915 -0.3555  0.0650  1.7841
  588MOL0     H79346   4.954   9.574  10.978 -0.1449 -0.0367  0.9883
  588MOL0     H79347   5.087   9.524  10.875  1.5602 -0.0784  0.5529
  588MOL0     H79348   5.255   9.606  10.997  1.0142  1.6011  0.8311
  588MOL0     H79349   5.151   9.711  11.097 -1.3014  1.2965 -0.7762
  588MOL0     H79350   5.064   9.519  11.221  0.4379  0.5430  1.3844
  588MOL0     H79351   5.238   9.518  11.231  1.1430  1.6419 -0.1936
  588MOL0     H79352   5.262   9.341  11.060  1.3143  3.6885  0.7780
  588MOL0     H79353   5.084   9.335  11.055  0.6539 -0.0511 -0.0600
  588MOL0     H79354   5.262   9.271  11.295  1.0185  2.5815 -1.7819
  588MOL0     H79355   5.083   9.287  11.314  0.7700 -0.8549  1.2537
  588MOL0     H79356   5.187   9.035  11.251  0.7825  1.7051  2.9102
  588MOL0     H79357   5.210   9.116  11.100  3.6515  1.3622  2.1847
  588MOL0     H79358   4.965   9.169  11.102 -0.1841 -0.6853 -0.7016
  588MOL0     H79359   4.987   8.993  11.117 -0.7376 -1.3772  2.1823
  588MOL0     H79360   4.829   9.860  10.951 -0.1477  0.2186  0.1131
  588MOL0     H79361   4.578   9.911  10.992  0.0082  0.0885  0.4252
  588MOL0     H79362   4.137   9.764  10.970 -6.0468 -2.0916 -0.3689
  588MOL0     H79363   3.915   9.767  10.926  2.2385 -1.8877 -1.4523
  588MOL0     H79364   2.227  10.559  11.089  1.2293  1.9956 -1.3267
  588MOL0     H79365   2.023  10.670  11.178  1.1331 -0.0305 -1.1070
  588MOL0     H79366   1.544  10.690  11.024  2.0445 -3.3775  6.0965
  588MOL0     H79367   1.318  10.750  11.052  0.5130  0.1017 -2.3206
  588MOL0     H79368   1.224  11.143  11.202  1.4385  0.5647 -0.7536
  588MOL0     H79369   1.207  11.061  11.361 -0.8266 -0.2912  0.1190
  588MOL0     H79370   1.006  11.045  11.141 -0.4818  3.5411  0.2539
  588MOL0     H79371   0.995  11.171  11.248  2.1103  0.7442  1.0079
  588MOL0     H79372   0.985  10.978  11.431 -0.4264 -2.2040  1.2652
  588MOL0     H79373   0.998  10.867  11.299  2.5630  1.8942  1.9437
  588MOL0     H79374   0.767  10.888  11.391  0.4450 -2.5576 -1.7175
  588MOL0     H79375   0.766  11.057  11.323  2.3426  0.4329  1.6539
  588MOL0     H79376   0.707  10.785  11.004  1.1440 -2.4209  0.8130
  588MOL0     H79377   1.431  11.112  11.248 -0.6123  0.7817 -2.5624
  588MOL0     H79378   1.642  11.205  11.216  0.7051  0.5548  1.2242
  588MOL0     H79379   1.761  11.075  11.288  3.3338  0.3997 -2.0395
  588MOL0     H79380   1.761  11.124  11.123  1.2849 -2.5974  0.5692
  589MOL0     O79381   3.112   6.173   6.197  0.0391  0.4301 -0.3705
  589MOL0     C79382   3.117   6.291   6.163  1.7055 -0.5897  0.7467
  589MOL0     O79383   3.123   6.318   6.032 -0.0482 -0.2297 -0.0255
  589MOL0     C79384   3.108   6.225   5.936  1.1584  0.1684  0.1117
  589MOL0     C79385   3.030   6.263   5.822  1.0032 -0.1670  0.0959
  589MOL0     C79386   3.011   6.172   5.712 -0.5013 -0.0981 -0.6001
  589MOL0     C79387   3.067   6.047   5.713 -0.6827 -0.6424  0.4759
  589MOL0     O79388   3.048   5.969   5.594  0.7486 -0.6588 -0.5148
  589MOL0     C79389   3.134   6.015   5.486 -1.1153 -0.1058 -0.3367
  589MOL0     C79390   3.131   5.931   5.366 -0.2048 -0.1472  0.0730
  589MOL0     C79391   3.219   5.808   5.373 -0.2393 -0.6103 -0.0998
  589MOL0     C79392   3.213   5.726   5.237  0.0703 -0.5709 -0.1839
  589MOL0     C79393   3.292   5.769   5.111  0.1749 -0.5800 -0.4407
  589MOL0     C79394   3.433   5.836   5.124  0.7861  0.6209 -0.2295
  589MOL0     C79395   3.533   5.718   5.147 -0.0347 -0.6776  0.5791
  589MOL0     C79396   3.674   5.781   5.139  0.4415  0.7152  0.5949
  589MOL0     N79397   3.692   5.853   5.014  0.1379  0.7236 -0.1881
  589MOL0     C79398   3.714   5.793   4.896  0.3516 -1.2272  1.1517
  589MOL0     C79399   3.719   5.904   4.810 -0.2076  0.0396 -0.2308
  589MOL0     C79400   3.729   5.873   4.663 -0.4566  0.4840  1.1104
  589MOL0     C79401   3.647   5.954   4.571 -0.2382 -0.5509  0.9139
  589MOL0     C79402   3.697   5.945   4.426  0.5108 -0.0362  0.1538
  589MOL0     C79403   3.589   6.004   4.334  0.5414  1.1542  0.7779
  589MOL0     O79404   3.481   5.905   4.325  0.3753 -0.3643  0.3763
  589MOL0     C79405   3.357   5.952   4.281  0.0154 -0.0967  0.7796
  589MOL0     C79406   3.330   6.073   4.220 -0.8386 -0.7298 -0.3865
  589MOL0     C79407   3.196   6.107   4.189 -0.1255 -0.3630  0.5954
  589MOL0     C79408   3.090   6.016   4.196 -1.1380 -0.0183 -0.5987
  589MOL0     C79409   2.950   6.057   4.152 -1.0231 -0.7500 -0.1238
  589MOL0     O79410   2.931   6.175   4.087  0.1252  0.6882 -0.1122
  589MOL0     C79411   2.796   6.203   4.052 -0.3969  0.5365  0.4214
  589MOL0     C79412   2.703   6.117   3.981 -0.2834  1.2996 -0.4213
  589MOL0     C79413   2.569   6.157   3.975 -0.1038 -0.4636  0.2173
  589MOL0     C79414   2.525   6.282   4.023  0.9619 -0.9493  1.1652
  589MOL0     O79415   2.400   6.322   3.979 -0.0010 -0.1562  0.6764
  589MOL0     C79416   2.305   6.373   4.081  0.6076  0.3422 -0.0502
  589MOL0     C79417   2.245   6.506   4.044 -1.0649  0.5923 -0.1950
  589MOL0     C79418   2.359   6.611   4.042  0.1415  0.4197 -0.9206
  589MOL0     C79419   2.316   6.755   4.063 -0.0454 -1.3636 -0.8468
  589MOL0     C79420   2.375   6.847   3.946  0.4365  0.0752 -0.1190
  589MOL0     C79421   2.336   6.995   3.951 -0.1717 -0.2995  0.3730
  589MOL0     C79422   2.401   7.090   4.053 -0.9541 -0.4627 -0.3227
  589MOL0     C79423   2.357   7.235   4.030  0.5425 -0.0940 -0.0469
  589MOL0    Cl79424   2.497   7.326   4.066  0.4848  0.0408 -0.6373
  589MOL0     C79425   2.616   6.371   4.093  1.2608  0.9043 -0.0310
  589MOL0     C79426   2.745   6.323   4.111 -1.6832 -0.1132  1.6800
  589MOL0     O79427   2.870   5.967   4.167  0.0284  0.6393  0.8327
  589MOL0     C79428   3.121   5.887   4.246 -0.1239  0.0416 -0.7119
  589MOL0     C79429   3.248   5.852   4.292 -1.6780 -0.0453  0.0523
  589MOL0     N79430   3.694   6.012   4.885  0.2396  0.1395 -0.0405
  589MOL0     N79431   3.688   5.985   5.007 -0.7452  0.2146  0.6050
  589MOL0     C79432   3.161   6.014   5.823  0.7647 -1.0011  0.0315
  589MOL0     C79433   3.174   6.101   5.931 -0.4027 -0.4833  0.6010
  589MOL0     C79434   3.117   6.389   6.271 -0.4668 -0.4399 -0.5301
  589MOL0     C79435   3.153   6.516   6.244 -0.8677  0.2629 -0.5430
  589MOL0     C79436   3.155   6.617   6.339 -0.1110 -0.0982  0.1583
  589MOL0     C79437   3.116   6.604   6.465  0.8238 -0.4687 -0.4912
  589MOL0     O79438   3.115   6.717   6.550 -0.2799  0.3882 -0.0185
  589MOL0     C79439   3.059   6.706   6.678  0.4823  0.6891  0.4548
  589MOL0     C79440   2.912   6.729   6.657  0.6785  0.2017 -0.2349
  589MOL0     C79441   2.834   6.694   6.786  1.3768  0.3480  0.5370
  589MOL0     C79442   2.695   6.631   6.749 -0.0766  0.0463  0.1122
  589MOL0     C79443   2.615   6.618   6.864  0.6225 -0.4447  0.1354
  589MOL0     C79444   2.565   6.617   6.971 -0.4743 -0.4843  0.2525
  589MOL0     C79445   3.081   6.471   6.504 -0.1210  0.4788 -0.0365
  589MOL0     C79446   3.074   6.367   6.412 -0.0190  0.8995 -0.1495
  589MOL0     C79447   3.010   6.232   6.462  0.2680  0.3771  0.6060
  589MOL0     H79448   2.974   6.355   5.812  1.1532 -0.0756  0.0890
  589MOL0     H79449   2.938   6.196   5.635 -0.0111 -0.4180 -1.1670
  589MOL0     H79450   3.104   6.117   5.461  0.4198  1.0977  2.2614
  589MOL0     H79451   3.237   6.016   5.523 -0.0141  2.2047 -3.0406
  589MOL0     H79452   3.170   5.993   5.285  0.0908 -0.5137 -0.0669
  589MOL0     H79453   3.029   5.898   5.346 -0.3549 -0.3995  1.1740
  589MOL0     H79454   3.194   5.736   5.451  0.8393  0.1385  0.9683
  589MOL0     H79455   3.323   5.838   5.390  0.4660 -2.4031 -0.9862
  589MOL0     H79456   3.264   5.634   5.264  2.2456  0.1674 -1.5424
  589MOL0     H79457   3.108   5.711   5.208  0.1857 -1.6447 -0.0803
  589MOL0     H79458   3.296   5.678   5.049 -1.6439 -2.2816  1.7681
  589MOL0     H79459   3.227   5.837   5.056 -0.4700  0.9366  2.0202
  589MOL0     H79460   3.448   5.898   5.035  0.4683  3.7378  1.7120
  589MOL0     H79461   3.440   5.908   5.206 -1.1988  1.3251 -0.6167
  589MOL0     H79462   3.519   5.640   5.071  2.8976  0.1889 -0.9923
  589MOL0     H79463   3.522   5.654   5.235  2.4666 -2.8944 -0.5835
  589MOL0     H79464   3.681   5.857   5.217 -0.3650  1.7599 -0.3113
  589MOL0     H79465   3.751   5.704   5.132  0.3530  0.7711 -3.7400
  589MOL0     H79466   3.720   5.687   4.876 -3.2627 -1.6648  1.7221
  589MOL0     H79467   3.831   5.903   4.637 -0.1001 -2.5532 -1.7732
  589MOL0     H79468   3.726   5.766   4.641  1.0900  0.9349 -1.8855
  589MOL0     H79469   3.542   5.923   4.575 -0.7284  0.7071 -0.8630
  589MOL0     H79470   3.635   6.058   4.602 -2.1209 -0.1123 -1.0008
  589MOL0     H79471   3.720   5.843   4.394 -1.0442 -0.1605 -0.6720
  589MOL0     H79472   3.787   6.003   4.402 -0.9204  2.2051 -0.1425
  589MOL0     H79473   3.637   6.030   4.239 -2.2747  2.7830 -0.3232
  589MOL0     H79474   3.552   6.096   4.381 -1.5748  1.9156 -2.1138
  589MOL0     H79475   3.404   6.151   4.201  0.7701 -1.5443  2.1264
  589MOL0     H79476   3.176   6.208   4.155 -0.0250 -0.1780  1.0776
  589MOL0     H79477   2.741   6.026   3.934  0.5656  1.9896 -1.1093
  589MOL0     H79478   2.495   6.090   3.933 -1.8003  2.4841 -1.9301
  589MOL0     H79479   2.225   6.299   4.089  1.5280 -0.5680  1.1491
  589MOL0     H79480   2.359   6.375   4.176  2.4847 -0.4996 -1.0440
  589MOL0     H79481   2.180   6.508   3.956 -1.8903  2.5544  0.3973
  589MOL0     H79482   2.181   6.530   4.129 -0.7779 -5.0878  2.0169
  589MOL0     H79483   2.425   6.584   4.125  1.6715 -0.5828 -2.3990
  589MOL0     H79484   2.433   6.600   3.962  0.9437 -1.9821  0.0550
  589MOL0     H79485   2.364   6.791   4.155 -2.1702 -0.7085  0.0602
  589MOL0     H79486   2.210   6.778   4.073  0.6266  2.4026 -1.0778
  589MOL0     H79487   2.343   6.797   3.854  1.4394 -0.2465 -0.2991
  589MOL0     H79488   2.483   6.842   3.958  0.2275  0.4055  2.3397
  589MOL0     H79489   2.356   7.033   3.851 -4.3073 -1.7562 -1.2150
  589MOL0     H79490   2.228   7.012   3.963 -0.1927 -0.8600  1.1193
  589MOL0     H79491   2.507   7.075   4.030 -0.1091 -0.6734  3.1862
  589MOL0     H79492   2.371   7.052   4.151 -3.4038  1.1313 -0.3630
  589MOL0     H79493   2.328   7.255   3.927 -1.5820 -0.8348  0.3514
  589MOL0     H79494   2.272   7.252   4.097 -1.5641 -4.3317 -1.3158
  589MOL0     H79495   2.584   6.469   4.124 -0.3987  0.6119 -0.7354
  589MOL0     H79496   2.823   6.369   4.170 -1.5516 -0.4578  1.7762
  589MOL0     H79497   3.041   5.813   4.249 -0.5115  0.4309 -1.3368
  589MOL0     H79498   3.273   5.753   4.327  1.0225  0.2885 -0.6451
  589MOL0     H79499   3.205   5.916   5.808  2.1826 -0.7075  1.9098
  589MOL0     H79500   3.234   6.068   6.015  0.4731 -2.2280 -0.6347
  589MOL0     H79501   3.198   6.522   6.145  1.1592 -0.4033  0.2858
  589MOL0     H79502   3.192   6.713   6.305 -1.2069  0.9087  1.7094
  589MOL0     H79503   3.093   6.786   6.745  3.4787  0.4378 -0.6081
  589MOL0     H79504   3.087   6.613   6.730 -0.1958  1.4232  2.2319
  589MOL0     H79505   2.888   6.667   6.570  3.7078  0.2241 -1.2130
  589MOL0     H79506   2.892   6.833   6.634 -2.8205  0.5719  3.4404
  589MOL0     H79507   2.816   6.785   6.843 -0.8607  0.1623  0.2238
  589MOL0     H79508   2.880   6.623   6.856  0.6739 -4.0735 -3.0341
  589MOL0     H79509   2.631   6.700   6.692 -1.0287 -0.5203  0.4684
  589MOL0     H79510   2.720   6.542   6.691  0.0971 -0.5697  1.1119
  589MOL0     H79511   2.503   6.629   7.058  1.2227  0.7736  1.3402
  589MOL0     H79512   3.048   6.454   6.606  1.4963 -3.0720  0.0358
  589MOL0     H79513   3.093   6.164   6.485  1.0471  1.3876  0.8622
  589MOL0     H79514   2.969   6.246   6.562  0.7927 -1.8734  1.1839
  589MOL0     H79515   2.932   6.185   6.401  1.1054  1.0305 -1.0556
  590MOL0     O79516   7.019   1.187   7.051  0.9481  0.2963  0.7920
  590MOL0     C79517   7.002   1.107   7.141 -0.2074  0.0643 -0.6202
  590MOL0     O79518   6.890   1.098   7.215  0.3719 -0.6232  0.3293
  590MOL0     C79519   6.766   1.145   7.162  0.0821  0.5295 -0.4822
  590MOL0     C79520   6.716   1.267   7.190 -0.1230 -0.0268 -0.2358
  590MOL0     C79521   6.586   1.311   7.153 -0.2611  0.2121 -1.1027
  590MOL0     C79522   6.501   1.228   7.078  0.3349 -0.3793 -0.2204
  590MOL0     O79523   6.380   1.272   7.053 -0.4130  0.0859  0.1568
  590MOL0     C79524   6.292   1.213   6.952 -0.4243  0.6461 -0.0610
  590MOL0     C79525   6.161   1.285   6.930  0.0957  0.2210  0.7258
  590MOL0     C79526   6.195   1.434   6.889  0.5100  0.0919  0.2223
  590MOL0     C79527   6.071   1.523   6.874  0.3195  1.0004 -0.6244
  590MOL0     C79528   6.099   1.671   6.884  0.0964  0.1240  0.7591
  590MOL0     C79529   5.975   1.755   6.870  0.0635 -0.9372  0.0888
  590MOL0     C79530   5.886   1.754   6.989  0.2880 -0.2602 -1.0289
  590MOL0     C79531   5.776   1.866   6.978 -0.6792  0.8222  0.0326
  590MOL0     N79532   5.695   1.862   7.101  0.3833  0.6583  0.8746
  590MOL0     C79533   5.584   1.782   7.132 -1.3638 -0.1675 -0.1017
  590MOL0     C79534   5.559   1.801   7.258 -0.1826 -1.0006 -0.2563
  590MOL0     C79535   5.474   1.707   7.335 -0.6814 -0.4065  0.3438
  590MOL0     C79536   5.431   1.766   7.472 -0.5055  0.3425 -0.0444
  590MOL0     C79537   5.536   1.738   7.587 -0.8187 -0.1854 -0.3750
  590MOL0     C79538   5.486   1.790   7.727 -0.3127 -0.3148 -0.7617
  590MOL0     O79539   5.361   1.730   7.756 -0.2345  0.0608 -0.5363
  590MOL0     C79540   5.352   1.615   7.835  0.0698 -1.1953 -0.5950
  590MOL0     C79541   5.416   1.594   7.957 -0.1060 -1.2905  0.8408
  590MOL0     C79542   5.412   1.467   8.014 -1.4856 -0.6875 -0.5730
  590MOL0     C79543   5.328   1.369   7.968  0.1747 -0.8430  1.1692
  590MOL0     C79544   5.317   1.250   8.036  0.2973  0.8911 -0.8735
  590MOL0     O79545   5.191   1.189   8.036 -0.4131  0.0772 -0.1375
  590MOL0     C79546   5.168   1.071   8.094 -0.4767  0.5205  0.1345
  590MOL0     C79547   5.203   1.043   8.224 -0.6452 -0.1683  0.2212
  590MOL0     C79548   5.189   0.919   8.284  0.5306  0.0177 -0.0251
  590MOL0     C79549   5.114   0.821   8.213 -0.4049  0.5099 -0.4143
  590MOL0     O79550   5.083   0.695   8.256 -0.3630 -0.0470  0.3871
  590MOL0     C79551   5.057   0.650   8.394  0.6154 -0.5419  0.2190
  590MOL0     C79552   5.165   0.557   8.459 -0.5913 -0.6458 -0.8262
  590MOL0     C79553   5.132   0.405   8.443 -0.1802 -0.5287 -0.5348
  590MOL0     C79554   5.223   0.312   8.516  0.0697  0.8141  0.1978
  590MOL0     C79555   5.194   0.176   8.476  1.0604  0.3561  0.5303
  590MOL0     C79556   5.255   0.060   8.547 -0.2547 -0.5977  0.0136
  590MOL0     C79557   5.412   0.071   8.541  0.4079 -0.7331 -0.5280
  590MOL0     C79558   5.479   0.056   8.400  0.5606 -0.5715 -0.2040
  590MOL0    Cl79559   5.659   0.056   8.402 -0.1457  0.1399  0.5403
  590MOL0     C79560   5.064   0.849   8.080  0.0398 -1.0108 -0.3973
  590MOL0     C79561   5.099   0.976   8.023  0.2898  0.4908 -0.3205
  590MOL0     O79562   5.414   1.199   8.093 -0.5552 -0.6255  0.5865
  590MOL0     C79563   5.257   1.391   7.851  0.1432 -0.3653 -0.1356
  590MOL0     C79564   5.274   1.516   7.777 -0.0376  1.1952 -1.1957
  590MOL0     N79565   5.630   1.923   7.293 -0.5840  0.8763  0.3085
  590MOL0     N79566   5.708   1.956   7.198  0.7624  0.7685 -0.1834
  590MOL0     C79567   6.553   1.100   7.040 -0.6694 -0.0050 -0.4312
  590MOL0     C79568   6.680   1.055   7.093 -0.3135 -0.5236  0.6375
  590MOL0     C79569   7.121   1.066   7.204 -0.0361 -0.6131  0.3691
  590MOL0     C79570   7.121   1.080   7.341 -0.3763  0.0957 -1.2367
  590MOL0     C79571   7.238   1.052   7.426 -0.0704  0.5949 -0.3039
  590MOL0     C79572   7.351   1.024   7.349 -0.4058 -0.6818 -0.5055
  590MOL0     O79573   7.470   1.010   7.408  0.3310 -0.2213  0.2281
  590MOL0     C79574   7.508   0.869   7.439  0.0270 -0.3021 -0.4553
  590MOL0     C79575   7.619   0.861   7.546 -0.1788  0.2986 -0.4046
  590MOL0     C79576   7.637   0.718   7.600  0.0354 -0.3969  0.4925
  590MOL0     C79577   7.754   0.712   7.697 -0.0680 -0.1893  0.1007
  590MOL0     C79578   7.706   0.768   7.828  0.1699  0.3545  0.3221
  590MOL0     C79579   7.677   0.813   7.936  0.5060 -0.7000  0.4344
  590MOL0     C79580   7.351   1.022   7.204 -0.6084  1.1005  0.5791
  590MOL0     C79581   7.239   1.038   7.128 -0.1361  0.1483 -0.3359
  590MOL0     C79582   7.231   1.008   6.978  0.2446  0.3494 -0.0515
  590MOL0     H79583   6.764   1.338   7.257  0.3704 -0.9569  0.4232
  590MOL0     H79584   6.552   1.410   7.180  1.8077  0.5913  0.3814
  590MOL0     H79585   6.341   1.212   6.853 -4.6232  2.6588 -2.4415
  590MOL0     H79586   6.264   1.112   6.981 -2.9910  0.6238 -2.2349
  590MOL0     H79587   6.098   1.288   7.020  0.3373  0.1411  0.9003
  590MOL0     H79588   6.097   1.237   6.855  0.2737  0.6311  0.3090
  590MOL0     H79589   6.245   1.434   6.791 -0.5108 -2.4039 -0.3615
  590MOL0     H79590   6.251   1.480   6.971  0.6156 -1.4941  1.0637
  590MOL0     H79591   6.016   1.503   6.782  1.4224 -2.8737 -0.6075
  590MOL0     H79592   6.000   1.498   6.954 -1.9489  3.8042 -1.5803
  590MOL0     H79593   6.154   1.694   6.976 -0.7830  4.3302  0.4538
  590MOL0     H79594   6.176   1.703   6.814 -1.7436 -1.5525 -2.2349
  590MOL0     H79595   6.007   1.858   6.854  0.7248 -1.3001 -1.0060
  590MOL0     H79596   5.916   1.723   6.784 -1.7978 -2.5302  1.8582
  590MOL0     H79597   5.948   1.789   7.071 -1.8271  2.4863 -0.4538
  590MOL0     H79598   5.851   1.650   6.994 -0.4951 -0.0699 -2.1488
  590MOL0     H79599   5.825   1.964   6.981 -2.1017  1.5587 -0.0451
  590MOL0     H79600   5.717   1.844   6.889  0.4688 -1.4792 -0.2486
  590MOL0     H79601   5.543   1.695   7.081 -0.4613  0.2126 -1.5350
  590MOL0     H79602   5.382   1.683   7.282  0.2029 -1.0233 -0.9505
  590MOL0     H79603   5.535   1.616   7.336 -0.4393 -0.2442  0.7186
  590MOL0     H79604   5.413   1.873   7.454 -2.0832  0.0540 -0.3629
  590MOL0     H79605   5.346   1.709   7.509  0.7919  0.0376  2.7290
  590MOL0     H79606   5.623   1.795   7.553  0.9342 -2.5512 -0.1041
  590MOL0     H79607   5.557   1.631   7.594 -2.2759 -0.4064  1.4119
  590MOL0     H79608   5.464   1.895   7.708 -0.6160 -0.3623 -0.6685
  590MOL0     H79609   5.562   1.770   7.804  1.1440 -0.4978 -2.1951
  590MOL0     H79610   5.462   1.681   8.001 -3.8503  3.2326 -3.1421
  590MOL0     H79611   5.478   1.460   8.101 -3.1867  1.2137  0.9781
  590MOL0     H79612   5.256   1.120   8.279 -2.0218  0.8357  0.2078
  590MOL0     H79613   5.238   0.907   8.380  1.6664 -1.3061 -0.7306
  590MOL0     H79614   5.036   0.742   8.449  0.5686 -1.0576  1.0782
  590MOL0     H79615   4.965   0.591   8.396 -1.1417  2.0047  2.8547
  590MOL0     H79616   5.267   0.582   8.427  1.1186 -3.3880  1.8258
  590MOL0     H79617   5.161   0.564   8.568  0.9696  1.4240 -0.8272
  590MOL0     H79618   5.034   0.397   8.492  1.6455  0.3766  3.7407
  590MOL0     H79619   5.116   0.372   8.340 -0.1688  0.2589 -0.8003
  590MOL0     H79620   5.214   0.323   8.625  1.3274 -2.0395  0.6886
  590MOL0     H79621   5.330   0.325   8.495  0.3015 -1.3005 -0.1298
  590MOL0     H79622   5.214   0.166   8.369 -2.4522 -0.6068 -0.1504
  590MOL0     H79623   5.086   0.160   8.486  1.2945 -2.0377  0.0155
  590MOL0     H79624   5.230   0.073   8.653 -0.9519 -0.5246 -0.1564
  590MOL0     H79625   5.213  -0.027   8.496 -1.2763  1.7766 -3.5039
  590MOL0     H79626   5.446  -0.015   8.599 -0.6020  0.0145  1.2428
  590MOL0     H79627   5.447   0.163   8.589 -2.3127 -0.0893  0.4292
  590MOL0     H79628   5.432  -0.027   8.346 -0.2336 -1.1754  1.3356
  590MOL0     H79629   5.445   0.144   8.345  2.5414  0.0417 -0.5133
  590MOL0     H79630   5.037   0.763   8.020  6.5052 -1.2991 -3.7677
  590MOL0     H79631   5.092   1.008   7.920  2.3018  0.1154 -0.6193
  590MOL0     H79632   5.182   1.323   7.814  1.6803 -1.1326 -2.0056
  590MOL0     H79633   5.231   1.521   7.677 -4.6613 -1.0397  0.3634
  590MOL0     H79634   6.488   1.036   6.983 -1.3761  0.4966 -0.1959
  590MOL0     H79635   6.716   0.955   7.071 -4.3766 -2.1935  0.5258
  590MOL0     H79636   7.032   1.078   7.403  0.5318 -4.3470  0.3636
  590MOL0     H79637   7.251   1.052   7.533  2.2314 -4.6136 -0.2964
  590MOL0     H79638   7.550   0.812   7.356 -0.0546 -1.4254  0.2498
  590MOL0     H79639   7.420   0.815   7.478  1.0223 -1.4035  0.3401
  590MOL0     H79640   7.594   0.918   7.636  1.0752 -1.9113  1.4587
  590MOL0     H79641   7.715   0.893   7.505 -0.3010  1.2798  0.0505
  590MOL0     H79642   7.650   0.636   7.528 -1.2542 -0.6975  0.5810
  590MOL0     H79643   7.546   0.702   7.658 -1.0047 -0.2973 -1.0345
  590MOL0     H79644   7.776   0.607   7.718  2.2614  0.6811  2.4673
  590MOL0     H79645   7.847   0.754   7.659  0.1655 -1.5300 -0.8848
  590MOL0     H79646   7.647   0.845   8.034 -2.1068  1.8484 -1.0134
  590MOL0     H79647   7.449   1.002   7.162  0.2429  0.7707  2.6487
  590MOL0     H79648   7.297   0.925   6.952 -1.1523 -0.9321  0.3237
  590MOL0     H79649   7.130   0.988   6.940  0.9716 -3.1299 -0.5268
  590MOL0     H79650   7.265   1.090   6.914 -1.4527  0.5308 -0.7759
  591MOL0     O79651  10.572  10.748   7.322  0.5940 -0.0606  0.4539
  591MOL0     C79652  10.531  10.790   7.215 -0.1193  0.2309  0.2217
  591MOL0     O79653  10.610  10.781   7.099  0.3032 -0.9499  0.2274
  591MOL0     C79654  10.734  10.738   7.118  0.4581 -0.4243  0.5372
  591MOL0     C79655  10.763  10.610   7.164 -0.0184  0.0359  0.7105
  591MOL0     C79656  10.898  10.571   7.172  0.5204 -0.3410 -0.0585
  591MOL0     C79657  10.998  10.650   7.117  0.3322  0.6712 -0.4101
  591MOL0     O79658  11.135  10.629   7.115 -0.0460  0.4120  0.8244
  591MOL0     C79659  11.185  10.549   7.227 -0.1002 -0.0551 -0.9677
  591MOL0     C79660  11.197  10.392   7.201 -0.9457  0.5147  0.4500
  591MOL0     C79661  11.323  10.368   7.118 -0.4247  0.2463 -0.3192
  591MOL0     C79662  11.356  10.225   7.074 -0.3935  0.0297 -0.3868
  591MOL0     C79663  11.488  10.210   6.999  0.2260  0.7169  0.2038
  591MOL0     C79664  11.546  10.080   6.970 -1.0909  0.7857  1.0756
  591MOL0     C79665  11.653  10.081   6.852  0.5815  0.3052  0.4828
  591MOL0     C79666  11.655   9.942   6.784 -0.4929 -0.5672  0.0737
  591MOL0     N79667  11.661   9.833   6.886  0.2297 -0.0431 -0.1309
  591MOL0     C79668  11.753   9.808   6.982 -0.1982  0.4589 -0.3422
  591MOL0     C79669  11.739   9.684   7.026 -1.1434 -0.4575  1.3611
  591MOL0     C79670  11.826   9.618   7.134 -0.2976 -0.4283  0.4168
  591MOL0     C79671  11.738   9.601   7.261 -0.2635  0.6803  0.4487
  591MOL0     C79672  11.815   9.526   7.364  0.4727  0.6631 -0.2400
  591MOL0     C79673  11.720   9.485   7.482 -0.4401 -0.2123 -0.4457
  591MOL0     O79674  11.783   9.382   7.567  0.2358 -0.2815  0.1661
  591MOL0     C79675  11.692   9.289   7.614  0.7746 -0.1645  0.4368
  591MOL0     C79676  11.645   9.297   7.752  0.2369  0.8403  0.8993
  591MOL0     C79677  11.569   9.195   7.807 -0.5447 -0.4185 -0.2621
  591MOL0     C79678  11.527   9.085   7.725 -0.4397 -0.0961 -0.6351
  591MOL0     C79679  11.450   8.975   7.782 -0.7221  0.6405  1.8002
  591MOL0     O79680  11.429   8.975   7.918  0.0110 -0.8140 -0.2339
  591MOL0     C79681  11.373   8.873   7.980  0.8669  0.0631  0.6303
  591MOL0     C79682  11.267   8.795   7.942  0.9638 -0.3709  1.0764
  591MOL0     C79683  11.206   8.698   8.022  0.2527  0.0576 -0.9584
  591MOL0     C79684  11.255   8.676   8.153 -0.7130  1.5166 -0.5252
  591MOL0     O79685  11.204   8.573   8.229 -0.5271 -0.1280 -0.6736
  591MOL0     C79686  11.265   8.536   8.352 -1.0729  0.4542  0.4506
  591MOL0     C79687  11.191   8.423   8.402  0.1369 -0.2135 -0.9681
  591MOL0     C79688  11.074   8.477   8.505  0.0300  0.3832 -0.5757
  591MOL0     C79689  10.991   8.378   8.579  0.4000 -0.0826 -0.4173
  591MOL0     C79690  10.876   8.447   8.666  0.3302 -0.3751 -0.2619
  591MOL0     C79691  10.812   8.352   8.768  0.2744 -0.5356  0.7843
  591MOL0     C79692  10.696   8.416   8.840 -0.1689 -1.6221  0.3522
  591MOL0     C79693  10.596   8.337   8.923 -1.0857  0.4008  0.3311
  591MOL0    Cl79694  10.488   8.458   9.005  0.0636  0.1122 -0.2854
  591MOL0     C79695  11.376   8.738   8.185  0.6583 -0.7351 -0.1524
  591MOL0     C79696  11.436   8.823   8.095 -0.3229  0.3474 -0.1206
  591MOL0     O79697  11.430   8.881   7.702  0.3541  0.4579  0.3063
  591MOL0     C79698  11.569   9.080   7.588 -1.2975 -0.2430 -1.5814
  591MOL0     C79699  11.653   9.179   7.540 -0.2897  0.1180 -0.2666
  591MOL0     N79700  11.663   9.620   6.927 -0.5635 -0.0816 -1.2149
  591MOL0     N79701  11.609   9.711   6.857  0.5246 -0.3010  0.8290
  591MOL0     C79702  10.971  10.777   7.073 -0.0957  0.0819  0.3096
  591MOL0     C79703  10.841  10.818   7.058  0.6562 -0.1065 -0.1515
  591MOL0     C79704  10.390  10.841   7.204 -0.0952 -0.2551  0.2791
  591MOL0     C79705  10.348  10.879   7.075 -0.4081  0.0764  0.2219
  591MOL0     C79706  10.226  10.939   7.055  1.6914 -0.6914 -0.2987
  591MOL0     C79707  10.142  10.965   7.167  0.6435 -0.1985  0.3467
  591MOL0     O79708  10.027  11.036   7.144  0.3961  0.6241 -0.4802
  591MOL0     C79709   9.907  11.031   7.234 -0.2955  0.4190  0.5236
  591MOL0     C79710   9.779  11.100   7.177  0.0499 -0.4749 -0.6346
  591MOL0     C79711   9.788  11.252   7.163  0.5362 -1.4073  0.3178
  591MOL0     C79712   9.664  11.326   7.220 -0.0679 -0.5939 -0.9724
  591MOL0     C79713   9.543  11.300   7.143  0.2346  0.2228 -0.5535
  591MOL0     C79714   9.444  11.243   7.092  0.4180 -0.7451  0.5559
  591MOL0     C79715  10.182  10.932   7.292 -1.1339  0.5249 -0.4644
  591MOL0     C79716  10.304  10.860   7.312  0.3418 -0.2206 -0.4475
  591MOL0     C79717  10.347  10.824   7.451  0.1053  0.2858 -0.6574
  591MOL0     H79718  10.684  10.538   7.180 -1.9701  1.9214 -0.0253
  591MOL0     H79719  10.919  10.480   7.227  2.0377  0.8251  1.3920
  591MOL0     H79720  11.284  10.593   7.237 -0.8181  1.4420 -0.0131
  591MOL0     H79721  11.129  10.561   7.321 -0.4300 -1.2401 -0.9947
  591MOL0     H79722  11.115  10.346   7.146 -0.6883 -2.1120  2.0903
  591MOL0     H79723  11.222  10.334   7.290 -0.3555 -1.0377 -0.6927
  591MOL0     H79724  11.407  10.405   7.178 -0.8695 -0.3395  0.6949
  591MOL0     H79725  11.307  10.441   7.038  1.6386  0.2119 -0.8222
  591MOL0     H79726  11.360  10.168   7.167 -0.3233 -0.5668 -0.7535
  591MOL0     H79727  11.273  10.180   7.020  0.6531 -0.8014 -1.3444
  591MOL0     H79728  11.471  10.258   6.902 -2.2622 -1.8144 -0.7534
  591MOL0     H79729  11.563  10.265   7.055  2.4411 -1.2341 -0.6319
  591MOL0     H79730  11.602  10.039   7.055  1.1347 -0.1398 -0.7246
  591MOL0     H79731  11.467  10.008   6.949 -2.0794  2.0037  0.4986
  591MOL0     H79732  11.750  10.116   6.888  0.9034 -1.5501  1.5668
  591MOL0     H79733  11.627  10.154   6.775 -1.0771  0.1821  0.8836
  591MOL0     H79734  11.561   9.932   6.729 -1.0994 -0.5912  1.1024
  591MOL0     H79735  11.742   9.947   6.718 -1.1128  0.1032 -0.7197
  591MOL0     H79736  11.826   9.872   7.032 -0.7229 -1.0935  2.6351
  591MOL0     H79737  11.853   9.519   7.094 -2.4275 -0.4160 -1.2688
  591MOL0     H79738  11.920   9.671   7.154  0.3039 -2.6193  4.2277
  591MOL0     H79739  11.710   9.701   7.295  0.1203  0.8826  0.1768
  591MOL0     H79740  11.640   9.556   7.238 -1.2855  3.4006 -0.9375
  591MOL0     H79741  11.894   9.586   7.408 -0.2677  0.1296  1.9344
  591MOL0     H79742  11.836   9.426   7.323 -1.8786 -0.3103  0.7253
  591MOL0     H79743  11.620   9.454   7.450 -1.0370 -2.0883  2.7649
  591MOL0     H79744  11.700   9.584   7.524 -1.1648 -0.0615 -1.1333
  591MOL0     H79745  11.671   9.383   7.812  1.1401  2.3932 -1.5780
  591MOL0     H79746  11.555   9.195   7.915 -1.8035 -4.6725 -0.2203
  591MOL0     H79747  11.225   8.803   7.842  3.1903 -3.7034 -0.3163
  591MOL0     H79748  11.108   8.653   8.008 -0.1737 -0.0871  1.9007
  591MOL0     H79749  11.371   8.514   8.333 -1.7411 -2.0636 -0.7889
  591MOL0     H79750  11.260   8.619   8.424 -0.2687  1.8037 -0.9809
  591MOL0     H79751  11.154   8.351   8.329 -0.1402 -5.4517  3.6554
  591MOL0     H79752  11.260   8.365   8.463 -0.0163  0.2093 -0.3824
  591MOL0     H79753  11.117   8.538   8.585  0.7601 -2.6100  1.4700
  591MOL0     H79754  11.005   8.527   8.437 -0.8722 -2.6351 -2.0750
  591MOL0     H79755  11.045   8.317   8.652 -0.1504  0.0955  0.1506
  591MOL0     H79756  10.932   8.320   8.507  0.6161 -0.5913 -0.1919
  591MOL0     H79757  10.804   8.506   8.609  0.4853  0.7512  0.6763
  591MOL0     H79758  10.935   8.518   8.724  2.6324 -0.8149 -1.9304
  591MOL0     H79759  10.773   8.272   8.705  1.0682 -0.3877  0.0802
  591MOL0     H79760  10.896   8.310   8.824  1.9911  0.3351 -1.0291
  591MOL0     H79761  10.635   8.472   8.768  1.4067  0.0089  0.2321
  591MOL0     H79762  10.739   8.487   8.911  0.8560 -1.2947 -0.5796
  591MOL0     H79763  10.551   8.262   8.857  0.1857  1.7124 -2.1598
  591MOL0     H79764  10.670   8.300   8.994  0.1098  1.0820 -0.5247
  591MOL0     H79765  11.429   8.728   8.280  1.6834  1.9818 -0.3331
  591MOL0     H79766  11.529   8.877   8.102 -0.7743  0.9301  1.7551
  591MOL0     H79767  11.555   8.998   7.519 -0.3953 -0.4556 -1.5224
  591MOL0     H79768  11.682   9.161   7.437 -0.9763 -1.1331 -0.2565
  591MOL0     H79769  11.047  10.834   7.020 -1.1375  2.2180  0.9743
  591MOL0     H79770  10.814  10.906   7.001  2.4131  2.4052  2.5993
  591MOL0     H79771  10.413  10.864   6.989 -2.8538 -5.5974 -1.0932
  591MOL0     H79772  10.192  10.973   6.958  0.7548 -3.4530 -1.0295
  591MOL0     H79773   9.923  11.063   7.338 -1.1059  0.5010  0.6329
  591MOL0     H79774   9.886  10.924   7.243 -1.3878  0.7631  3.1249
  591MOL0     H79775   9.699  11.080   7.250  1.8008  0.5394  1.6725
  591MOL0     H79776   9.743  11.058   7.082 -0.4756  0.8415 -1.0382
  591MOL0     H79777   9.809  11.273   7.058  0.2769  0.0291  0.5376
  591MOL0     H79778   9.868  11.283   7.230  0.2588 -1.2048  0.5577
  591MOL0     H79779   9.652  11.300   7.326 -1.1389  3.5623  0.1101
  591MOL0     H79780   9.674  11.435   7.216 -2.6080 -0.3411 -4.0453
  591MOL0     H79781   9.359  11.200   7.042 -1.1943  2.6288  0.0704
  591MOL0     H79782  10.111  10.935   7.374 -1.8423 -1.3442 -0.9714
  591MOL0     H79783  10.375  10.721   7.473  1.0153  0.4389 -1.0415
  591MOL0     H79784  10.431  10.888   7.480  1.2882 -1.4779 -0.0080
  591MOL0     H79785  10.267  10.846   7.522  2.1469  1.2315  1.4562
  592MOL0     O79786   8.427  10.932   3.588  0.0953  0.2491  0.3241
  592MOL0     C79787   8.468  10.983   3.478 -0.2269 -0.1579 -1.2027
  592MOL0     O79788   8.407  11.089   3.424 -0.0994 -0.7661  0.0039
  592MOL0     C79789   8.291  11.147   3.465 -0.3354  0.4490  0.3394
  592MOL0     C79790   8.199  11.133   3.576 -0.3559  1.1433  0.3250
  592MOL0     C79791   8.078  11.197   3.586  0.0965  0.3715 -0.0465
  592MOL0     C79792   8.046  11.280   3.477 -0.4278  1.2507  0.2002
  592MOL0     O79793   7.919  11.331   3.474 -0.5959  0.1962 -1.0312
  592MOL0     C79794   7.898  11.458   3.414  0.1808 -0.1091  0.9086
  592MOL0     C79795   7.759  11.495   3.464  0.8338 -0.4584 -0.0187
  592MOL0     C79796   7.759  11.535   3.614  0.2065  0.4046 -0.1942
  592MOL0     C79797   7.614  11.578   3.633  0.6468 -1.0060  0.8699
  592MOL0     C79798   7.587  11.573   3.782 -0.7106 -0.6644  0.1506
  592MOL0     C79799   7.669  11.675   3.859  0.3693 -0.2760  0.0733
  592MOL0     C79800   7.657  11.812   3.792 -0.1349 -0.4207  0.6718
  592MOL0     C79801   7.675  11.918   3.886 -0.2355  0.2794 -0.1801
  592MOL0     N79802   7.808  11.929   3.944  0.1115  0.5762  0.0050
  592MOL0     C79803   7.849  11.851   4.046 -0.3229  0.2853  0.1608
  592MOL0     C79804   7.984  11.851   4.039  0.0721 -0.7813 -0.2171
  592MOL0     C79805   8.062  11.781   4.144 -0.5856  0.0067  0.8304
  592MOL0     C79806   8.046  11.854   4.275 -0.0229  0.3506 -0.7457
  592MOL0     C79807   8.050  12.004   4.277  0.0016 -0.4223  0.5385
  592MOL0     C79808   8.190  12.064   4.252  0.2430  0.7265  0.4220
  592MOL0     O79809   8.182  12.199   4.291 -0.0678 -0.7360  0.2829
  592MOL0     C79810   8.298  12.264   4.325 -0.1793  0.3320 -0.5952
  592MOL0     C79811   8.295  12.360   4.422 -0.7060 -0.1622  0.1535
  592MOL0     C79812   8.414  12.421   4.466  0.0001  0.3479 -0.8490
  592MOL0     C79813   8.541  12.383   4.429  0.0802  0.3739  0.2489
  592MOL0     C79814   8.661  12.456   4.477  0.3272  0.4206 -0.0245
  592MOL0     O79815   8.773  12.474   4.402 -0.2118  0.0333 -0.7950
  592MOL0     C79816   8.887  12.534   4.457  0.1883 -0.3091  0.0982
  592MOL0     C79817   9.014  12.473   4.457  0.2662  0.5295 -0.3331
  592MOL0     C79818   9.131  12.546   4.475  0.5596  0.4893 -0.5027
  592MOL0     C79819   9.132  12.689   4.502 -0.2111  1.2211  0.7887
  592MOL0     O79820   9.241  12.765   4.519  0.3954  0.4337 -0.0591
  592MOL0     C79821   9.371  12.706   4.540  0.2020  0.0227  0.0372
  592MOL0     C79822   9.477  12.810   4.520  0.1899  0.6205 -0.6663
  592MOL0     C79823   9.619  12.752   4.530 -0.4973 -0.3112  0.5167
  592MOL0     C79824   9.723  12.859   4.505  0.2867  0.0578  0.7092
  592MOL0     C79825   9.852  12.821   4.567  0.2631 -0.0323 -0.3416
  592MOL0     C79826   9.964  12.928   4.567  0.8183 -0.3734 -0.3067
  592MOL0     C79827  10.089  12.882   4.645  0.5101  1.0699  0.7697
  592MOL0     C79828  10.190  12.999   4.665  0.1070 -0.6725  0.0819
  592MOL0    Cl79829  10.286  13.041   4.520 -0.2043 -0.2300 -0.4606
  592MOL0     C79830   9.005  12.749   4.496 -0.3994 -0.6162  0.8586
  592MOL0     C79831   8.887  12.673   4.484  0.4480 -0.5037 -0.6012
  592MOL0     O79832   8.643  12.501   4.596  0.5377  0.6836  0.4729
  592MOL0     C79833   8.543  12.283   4.332 -0.6267 -1.2346 -1.0978
  592MOL0     C79834   8.427  12.230   4.275 -0.0082 -0.4339 -0.1523
  592MOL0     N79835   8.028  11.940   3.943  0.0713 -0.5188  0.0282
  592MOL0     N79836   7.922  11.971   3.883 -0.0939 -0.2826 -0.1339
  592MOL0     C79837   8.129  11.288   3.361 -0.0028 -0.1508  0.0094
  592MOL0     C79838   8.255  11.244   3.370 -0.5144  0.5856  0.0339
  592MOL0     C79839   8.589  10.939   3.405  0.0834 -1.2461  0.1338
  592MOL0     C79840   8.659  10.824   3.449 -0.4612  0.4631  0.2680
  592MOL0     C79841   8.780  10.783   3.383  0.2122  0.1952  0.2671
  592MOL0     C79842   8.837  10.860   3.280 -0.3789 -0.5636  1.1213
  592MOL0     O79843   8.950  10.813   3.224  0.4330 -0.2650  0.8845
  592MOL0     C79844   9.023  10.907   3.149 -0.7027 -0.6874  0.3201
  592MOL0     C79845   9.140  10.840   3.084  0.1248  1.5305  0.5313
  592MOL0     C79846   9.253  10.826   3.190  0.3309 -0.4123  0.3877
  592MOL0     C79847   9.366  10.731   3.143 -0.2754 -1.0831 -0.2291
  592MOL0     C79848   9.314  10.593   3.148 -0.6719  0.7634  0.3480
  592MOL0     C79849   9.282  10.470   3.150  0.1692 -0.4960 -0.6383
  592MOL0     C79850   8.765  10.972   3.232 -0.3471  0.4332 -0.5429
  592MOL0     C79851   8.650  11.012   3.295  0.8036 -0.4362 -0.3637
  592MOL0     C79852   8.589  11.144   3.240  0.3114  0.7743 -0.5626
  592MOL0     H79853   8.210  11.060   3.655  0.8276  0.3085 -0.5726
  592MOL0     H79854   8.013  11.201   3.673 -0.1203  1.9910 -0.2392
  592MOL0     H79855   7.968  11.537   3.443 -0.0068  0.2585  0.3537
  592MOL0     H79856   7.901  11.444   3.306 -0.8815  0.5998  0.7786
  592MOL0     H79857   7.687  11.416   3.442 -1.1203  1.1578  0.3419
  592MOL0     H79858   7.740  11.588   3.409  2.6587 -1.5269 -2.6588
  592MOL0     H79859   7.834  11.613   3.632  0.9329 -0.6196  1.3698
  592MOL0     H79860   7.790  11.442   3.662 -1.8034 -0.9783 -1.4067
  592MOL0     H79861   7.595  11.673   3.582  2.2758 -1.3197 -0.3899
  592MOL0     H79862   7.537  11.513   3.589 -2.9007  3.0624  0.3887
  592MOL0     H79863   7.481  11.597   3.795 -0.1083  1.7337  1.1978
  592MOL0     H79864   7.603  11.476   3.831 -0.9419  0.7518  3.2452
  592MOL0     H79865   7.625  11.674   3.959 -1.2984  1.8707 -0.5635
  592MOL0     H79866   7.776  11.652   3.864  0.0136 -1.9887  0.2543
  592MOL0     H79867   7.555  11.821   3.756 -0.7567 -2.4431  1.7561
  592MOL0     H79868   7.722  11.821   3.704 -1.3573  1.8789 -0.0577
  592MOL0     H79869   7.645  12.012   3.838  0.6336  1.0473  0.7427
  592MOL0     H79870   7.599  11.909   3.964 -0.3031 -2.2967 -0.4528
  592MOL0     H79871   7.791  11.815   4.130 -0.8565  0.4154 -0.1485
  592MOL0     H79872   8.035  11.675   4.150  2.5066 -0.8687  0.8895
  592MOL0     H79873   8.162  11.785   4.101 -0.0105  1.8699  2.2177
  592MOL0     H79874   7.944  11.827   4.305  0.1319 -0.2950 -0.7803
  592MOL0     H79875   8.119  11.810   4.345 -3.5585  0.2043  3.2809
  592MOL0     H79876   8.020  12.039   4.377  0.6359  0.7971  0.3289
  592MOL0     H79877   7.993  12.061   4.203 -1.1898 -1.7906  0.3573
  592MOL0     H79878   8.213  12.067   4.145  2.9929  3.2197  0.9798
  592MOL0     H79879   8.265  12.008   4.308 -3.0057 -1.3784  3.0856
  592MOL0     H79880   8.207  12.405   4.467  0.7067  0.9029  1.9735
  592MOL0     H79881   8.408  12.502   4.539  0.0775 -0.9753  0.6814
  592MOL0     H79882   9.024  12.368   4.435  3.1987  0.1509  2.1231
  592MOL0     H79883   9.224  12.491   4.491  0.2227 -0.4789 -1.7780
  592MOL0     H79884   9.376  12.657   4.638 -1.4005  0.4290  0.3578
  592MOL0     H79885   9.385  12.636   4.457 -1.1186  1.7174 -1.7048
  592MOL0     H79886   9.462  12.855   4.421  0.1253  0.1911 -0.8509
  592MOL0     H79887   9.465  12.886   4.598 -1.6117 -0.3458  0.0647
  592MOL0     H79888   9.626  12.719   4.634 -0.3507  0.1362  0.6527
  592MOL0     H79889   9.646  12.674   4.458  0.9677  0.1580  0.5180
  592MOL0     H79890   9.709  12.949   4.567 -0.1764  0.1420  0.4798
  592MOL0     H79891   9.729  12.900   4.404  3.1411  1.4493  1.3427
  592MOL0     H79892   9.899  12.733   4.522 -0.7222 -1.2254  0.8778
  592MOL0     H79893   9.834  12.796   4.672 -0.3995 -0.1341 -0.4782
  592MOL0     H79894   9.997  12.956   4.467  1.9682 -0.6231 -0.0153
  592MOL0     H79895   9.912  13.016   4.607 -4.6330 -1.1987 -4.4202
  592MOL0     H79896  10.138  12.800   4.592 -1.7101  1.0192 -1.3917
  592MOL0     H79897  10.056  12.852   4.745 -3.8267  1.6334 -0.2851
  592MOL0     H79898  10.125  13.083   4.692  1.4855 -0.2035  2.1594
  592MOL0     H79899  10.262  12.966   4.740 -0.0805  0.0807  0.6198
  592MOL0     H79900   8.990  12.855   4.512 -1.4068 -0.5358 -0.4187
  592MOL0     H79901   8.788  12.715   4.475 -0.6260 -2.4540  1.1416
  592MOL0     H79902   8.644  12.263   4.298  0.6409 -0.7812  2.0479
  592MOL0     H79903   8.437  12.157   4.195  0.0831  0.6641 -1.1706
  592MOL0     H79904   8.097  11.325   3.265 -3.9967 -0.4744  1.0161
  592MOL0     H79905   8.338  11.262   3.303  1.7772 -1.5746  2.0731
  592MOL0     H79906   8.620  10.765   3.531 -2.2184  0.1661 -0.7403
  592MOL0     H79907   8.835  10.694   3.413 -1.9312 -0.3284  3.0221
  592MOL0     H79908   9.040  10.998   3.208  0.3013 -1.9871  2.1280
  592MOL0     H79909   8.960  10.950   3.071 -3.6616  1.5807  3.6351
  592MOL0     H79910   9.182  10.889   2.996  3.4255 -2.4472 -0.4400
  592MOL0     H79911   9.096  10.746   3.051  2.2243  0.5714  0.3239
  592MOL0     H79912   9.221  10.793   3.289  2.0361 -2.5681  0.2919
  592MOL0     H79913   9.303  10.922   3.207  1.4125 -0.7553 -0.6851
  592MOL0     H79914   9.402  10.770   3.047  4.5944  0.4383  1.8866
  592MOL0     H79915   9.454  10.739   3.208  0.2115 -0.2060 -0.9575
  592MOL0     H79916   9.233  10.375   3.162  0.5796 -0.6285  0.0821
  592MOL0     H79917   8.797  11.025   3.143  0.2851 -1.0438 -1.2337
  592MOL0     H79918   8.594  11.232   3.304 -0.5399  1.5537 -1.5302
  592MOL0     H79919   8.653  11.167   3.154  1.8359 -1.4413 -0.1096
  592MOL0     H79920   8.485  11.139   3.205 -0.4675 -1.4262  1.7455
  593MOL0     O79921  10.484   7.951   6.039 -0.1333 -0.1828 -0.3748
  593MOL0     C79922  10.383   7.938   6.100  0.3222 -0.2225  0.5745
  593MOL0     O79923  10.256   7.981   6.061 -0.4185  0.2481  0.2477
  593MOL0     C79924  10.240   8.042   5.939 -0.0981  0.5877 -0.0943
  593MOL0     C79925  10.165   7.965   5.852 -0.3541  0.2343  0.7671
  593MOL0     C79926  10.160   7.996   5.716 -0.1007 -0.3251  0.3695
  593MOL0     C79927  10.219   8.106   5.665 -0.1282 -0.3609 -0.3941
  593MOL0     O79928  10.207   8.146   5.534 -0.4364 -0.3461  0.0758
  593MOL0     C79929  10.184   8.066   5.425  0.7053  0.5733 -0.0642
  593MOL0     C79930  10.195   8.131   5.294  0.5467 -0.6852  0.5925
  593MOL0     C79931  10.114   8.266   5.291  0.0290  0.7955 -0.8632
  593MOL0     C79932  10.105   8.322   5.154 -0.9199  0.1968 -0.2084
  593MOL0     C79933  10.232   8.354   5.072 -0.0683  0.1979 -0.5086
  593MOL0     C79934  10.204   8.429   4.944  1.3458  0.2051  0.1049
  593MOL0     C79935  10.115   8.360   4.841 -0.2457  0.7387  0.2386
  593MOL0     C79936  10.090   8.446   4.722 -1.2297 -0.5194  0.2818
  593MOL0     N79937  10.210   8.503   4.647 -0.2551 -0.1802 -0.6716
  593MOL0     C79938  10.247   8.633   4.651  0.3446  0.6561 -0.2799
  593MOL0     C79939  10.363   8.645   4.581  0.8712 -0.5544 -0.0834
  593MOL0     C79940  10.447   8.768   4.563  0.0385 -0.1197  0.7340
  593MOL0     C79941  10.594   8.738   4.583  0.3980  0.3128  0.6036
  593MOL0     C79942  10.638   8.739   4.724 -0.5536 -1.1491 -0.5617
  593MOL0     C79943  10.788   8.759   4.752 -0.1300  0.0661  0.9122
  593MOL0     O79944  10.866   8.658   4.676  0.8843 -0.0098  0.0813
  593MOL0     C79945  10.888   8.540   4.736  0.5497  0.1376  1.3206
  593MOL0     C79946  10.879   8.505   4.864  1.1582 -0.3013 -0.8063
  593MOL0     C79947  10.943   8.389   4.925  0.2670 -0.8097  0.4522
  593MOL0     C79948  10.998   8.291   4.834  1.1826 -0.2746 -1.0324
  593MOL0     C79949  11.039   8.159   4.882 -0.1591  0.1075  0.6050
  593MOL0     O79950  11.091   8.072   4.787  0.4141 -0.5639  0.4853
  593MOL0     C79951  11.141   7.955   4.813 -0.5999 -0.0759  0.0755
  593MOL0     C79952  11.106   7.849   4.728 -0.3738 -1.4700  0.0183
  593MOL0     C79953  11.161   7.724   4.740 -0.8441 -0.0578  0.0360
  593MOL0     C79954  11.247   7.692   4.851  0.2835 -0.1608 -0.4853
  593MOL0     O79955  11.302   7.572   4.886 -0.3894  0.3500  0.0398
  593MOL0     C79956  11.263   7.458   4.818 -0.0791  0.5167 -0.6284
  593MOL0     C79957  11.356   7.342   4.861 -0.2329 -0.1890  0.2993
  593MOL0     C79958  11.316   7.203   4.797 -0.7061 -0.1967  0.8387
  593MOL0     C79959  11.398   7.084   4.839 -0.5506 -0.3950 -0.1096
  593MOL0     C79960  11.345   6.946   4.797  0.2761  0.6403  0.2629
  593MOL0     C79961  11.432   6.840   4.850 -0.5525 -0.8656  0.3055
  593MOL0     C79962  11.367   6.696   4.842  0.1850 -0.4811  0.4379
  593MOL0     C79963  11.391   6.636   4.984  0.4980  0.6081  0.4540
  593MOL0    Cl79964  11.299   6.714   5.112  0.2340  0.2497 -0.2144
  593MOL0     C79965  11.288   7.798   4.929  0.1817 -0.2668 -0.8276
  593MOL0     C79966  11.235   7.924   4.915 -0.3988  0.6583 -0.6085
  593MOL0     O79967  11.010   8.134   4.990 -0.6958 -0.3081 -0.3508
  593MOL0     C79968  11.006   8.326   4.694  0.1481 -0.3081  1.3358
  593MOL0     C79969  10.947   8.444   4.653  0.3884  0.4689  1.2182
  593MOL0     N79970  10.387   8.522   4.526 -0.5211  0.3627 -0.6428
  593MOL0     N79971  10.294   8.443   4.562 -0.1511 -0.5349  0.4972
  593MOL0     C79972  10.290   8.187   5.756 -1.8121  0.7326 -0.4127
  593MOL0     C79973  10.297   8.156   5.893 -1.7457  0.2637  0.1867
  593MOL0     C79974  10.394   7.880   6.233 -0.9554  0.1432 -0.7157
  593MOL0     C79975  10.283   7.811   6.293  1.4344 -0.2469  0.1971
  593MOL0     C79976  10.283   7.764   6.432  0.4865 -0.3824  0.0665
  593MOL0     C79977  10.398   7.781   6.513 -1.0319 -0.6193  0.3698
  593MOL0     O79978  10.414   7.736   6.640  0.0446 -0.0112 -0.5743
  593MOL0     C79979  10.314   7.651   6.706 -0.6837 -0.2967  0.8563
  593MOL0     C79980  10.206   7.731   6.777  0.4379 -0.1564  0.0083
  593MOL0     C79981  10.268   7.779   6.913 -0.1191  0.2732 -0.4018
  593MOL0     C79982  10.151   7.826   7.016 -0.1699  0.3276  0.1881
  593MOL0     C79983  10.110   7.958   6.987 -0.5564 -0.8506  0.1290
  593MOL0     C79984  10.098   8.081   6.978  0.7744  0.0609 -0.3137
  593MOL0     C79985  10.506   7.840   6.447 -0.3372 -0.4353  0.2025
  593MOL0     C79986  10.507   7.896   6.314 -0.1952 -0.0448 -0.5139
  593MOL0     C79987  10.635   7.966   6.268 -0.2047  0.8393 -0.3593
  593MOL0     H79988  10.097   7.883   5.870 -3.6015  2.7036  0.7196
  593MOL0     H79989  10.116   7.912   5.663  0.0537 -0.0850 -0.1454
  593MOL0     H79990  10.241   7.973   5.437 -2.0345 -1.0218  1.7318
  593MOL0     H79991  10.087   8.016   5.435  1.6954 -1.7399 -1.2142
  593MOL0     H79992  10.160   8.063   5.217 -0.6740  3.8059 -3.2657
  593MOL0     H79993  10.300   8.154   5.272  1.3229 -1.1538  3.3336
  593MOL0     H79994  10.167   8.331   5.361 -1.8881  0.8253  0.6260
  593MOL0     H79995  10.011   8.255   5.325 -0.8247  4.9977 -1.5028
  593MOL0     H79996  10.045   8.250   5.097  0.3823 -2.1625  1.2136
  593MOL0     H79997  10.047   8.415   5.163 -0.8975  0.2755 -0.8067
  593MOL0     H79998  10.302   8.404   5.139  0.8826  0.3467 -1.5646
  593MOL0     H79999  10.269   8.252   5.053 -1.4434 -0.0159 -2.2862
  593MOL0     H80000  10.155   8.525   4.960 -3.0464 -1.2255 -2.9575
  593MOL0     H80001  10.297   8.445   4.889 -0.1345  1.0692 -2.2417
  593MOL0     H80002  10.021   8.330   4.888 -1.4346  0.2721 -2.3093
  593MOL0     H80003  10.159   8.267   4.802 -2.2546  1.0834 -3.2808
  593MOL0     H80004  10.036   8.378   4.656 -2.6965  0.1834  0.7000
  593MOL0     H80005  10.014   8.521   4.748 -0.0688 -0.0452  2.6400
  593MOL0     H80006  10.183   8.708   4.695  0.9809  0.9738  0.1112
  593MOL0     H80007  10.417   8.806   4.465 -2.5664 -1.5080  0.9134
  593MOL0     H80008  10.421   8.849   4.631  0.3537 -1.7689  2.9092
  593MOL0     H80009  10.626   8.647   4.533 -0.5210  0.0851  0.3986
  593MOL0     H80010  10.652   8.822   4.544 -0.9899  0.5757 -1.0203
  593MOL0     H80011  10.620   8.637   4.761  0.6152 -2.4944 -3.3855
  593MOL0     H80012  10.577   8.805   4.786 -0.5379 -2.4625  0.9418
  593MOL0     H80013  10.811   8.763   4.859  1.1792 -1.7203  0.7434
  593MOL0     H80014  10.822   8.850   4.703 -0.1989 -0.6509 -0.5260
  593MOL0     H80015  10.836   8.584   4.924 -2.2037 -1.1294 -1.9139
  593MOL0     H80016  10.954   8.378   5.033  0.3122 -0.3475  0.4969
  593MOL0     H80017  11.024   7.864   4.659 -2.1641  2.3359  2.6526
  593MOL0     H80018  11.135   7.651   4.664 -1.3826  0.0107  0.1443
  593MOL0     H80019  11.158   7.435   4.834 -0.8153  3.4399 -0.8111
  593MOL0     H80020  11.282   7.480   4.713  0.2560  1.3291 -0.4061
  593MOL0     H80021  11.457   7.370   4.832 -0.7795  2.9430  1.1017
  593MOL0     H80022  11.354   7.328   4.969 -1.7072 -1.8978  0.1167
  593MOL0     H80023  11.214   7.173   4.821 -0.6097 -0.6848  0.6388
  593MOL0     H80024  11.325   7.207   4.688  3.3211  0.8922  1.0318
  593MOL0     H80025  11.412   7.091   4.947  0.8204 -0.5633 -0.2598
  593MOL0     H80026  11.499   7.088   4.796 -0.0188 -0.3576  1.1191
  593MOL0     H80027  11.340   6.934   4.689  0.1851  0.6731  0.2630
  593MOL0     H80028  11.241   6.942   4.832  0.4898 -0.1358  0.8183
  593MOL0     H80029  11.524   6.839   4.791  0.9847 -0.0455  2.5543
  593MOL0     H80030  11.464   6.875   4.948  0.1534  0.7459 -0.4560
  593MOL0     H80031  11.426   6.639   4.769  1.1244  0.3574  0.5145
  593MOL0     H80032  11.267   6.698   4.799  0.1937  0.6470  0.4416
  593MOL0     H80033  11.354   6.534   5.001  2.0824 -0.0362  0.2514
  593MOL0     H80034  11.498   6.630   5.005  0.5222  0.9672  0.4245
  593MOL0     H80035  11.358   7.786   5.011  1.9491 -2.4393 -2.5306
  593MOL0     H80036  11.264   8.004   4.983 -2.2580  1.8895 -1.1764
  593MOL0     H80037  11.059   8.266   4.621  2.0004  0.6696  1.8090
  593MOL0     H80038  10.959   8.477   4.550  1.8838  0.9335  1.5150
  593MOL0     H80039  10.342   8.272   5.714 -0.1464 -0.5881 -1.1172
  593MOL0     H80040  10.349   8.221   5.964 -0.2924 -2.6604  1.9933
  593MOL0     H80041  10.198   7.795   6.228  2.3206 -0.4340 -0.9519
  593MOL0     H80042  10.200   7.702   6.464  1.7939 -1.2267  2.0483
  593MOL0     H80043  10.369   7.595   6.781  0.0169  0.0320  0.5950
  593MOL0     H80044  10.262   7.589   6.633 -3.3803  2.5805  0.0805
  593MOL0     H80045  10.124   7.664   6.803 -2.3772  2.5776 -1.2668
  593MOL0     H80046  10.167   7.810   6.713  0.5033 -0.5490 -0.5230
  593MOL0     H80047  10.347   7.854   6.900  0.7981 -0.9819 -2.6165
  593MOL0     H80048  10.328   7.700   6.960  4.4424  0.0096 -5.6079
  593MOL0     H80049  10.060   7.765   7.008 -0.6894  1.3064 -3.0978
  593MOL0     H80050  10.173   7.824   7.123 -0.8163 -0.8533  0.3139
  593MOL0     H80051  10.080   8.187   6.988  3.3478  0.6739 -1.2814
  593MOL0     H80052  10.602   7.844   6.498  0.0785 -4.0398 -0.0639
  593MOL0     H80053  10.690   8.011   6.351 -2.0242  1.5979  0.4991
  593MOL0     H80054  10.684   7.885   6.214  0.1878  0.2593  0.8235
  593MOL0     H80055  10.622   8.052   6.202 -1.8027  1.4468  0.6601
  594MOL0     O80056   8.884   3.165   3.384 -0.1411  0.6033 -0.1451
  594MOL0     C80057   8.802   3.081   3.346  0.1160 -0.5319 -0.0293
  594MOL0     O80058   8.733   2.993   3.428  0.7650  0.1156 -0.0823
  594MOL0     C80059   8.758   2.988   3.562  0.2269  1.0510 -0.3219
  594MOL0     C80060   8.831   2.886   3.616 -0.7872  0.1966 -0.5986
  594MOL0     C80061   8.830   2.873   3.760  0.5850  0.1872  0.0093
  594MOL0     C80062   8.784   2.976   3.839  0.1803  0.1085  0.4920
  594MOL0     O80063   8.799   2.970   3.976 -0.0687  0.5759 -0.7406
  594MOL0     C80064   8.875   3.072   4.031  0.5481 -0.6558 -0.2539
  594MOL0     C80065   8.977   3.145   3.943  0.9220 -0.2711 -0.3660
  594MOL0     C80066   9.108   3.199   4.016 -0.1445 -0.1133  0.4367
  594MOL0     C80067   9.206   3.277   3.922  0.9728  0.9097 -0.0553
  594MOL0     C80068   9.328   3.318   4.001  0.0076 -0.4498 -0.9736
  594MOL0     C80069   9.428   3.383   3.913 -0.8187 -0.1885 -0.0297
  594MOL0     C80070   9.536   3.457   4.004 -0.9792 -0.6111  1.0437
  594MOL0     C80071   9.634   3.356   4.070  0.0870  0.2142  0.0940
  594MOL0     N80072   9.705   3.439   4.177  0.3544 -0.3165  0.0896
  594MOL0     C80073   9.686   3.458   4.316  0.5290  0.1208  0.5995
  594MOL0     C80074   9.770   3.555   4.350 -0.7882 -0.0768  1.1236
  594MOL0     C80075   9.743   3.633   4.481  0.8298  0.4498  0.1826
  594MOL0     C80076   9.880   3.678   4.536 -0.5028 -0.0450  0.0109
  594MOL0     C80077   9.869   3.690   4.693  0.3072  0.4962 -0.4029
  594MOL0     C80078   9.783   3.801   4.739  0.8061 -1.1969 -0.6202
  594MOL0     O80079   9.797   3.843   4.875  0.3127  0.2066  0.0841
  594MOL0     C80080   9.783   3.745   4.964  0.0642 -0.5962 -0.2472
  594MOL0     C80081   9.898   3.687   5.022  0.1689  0.1766  1.2249
  594MOL0     C80082   9.888   3.588   5.125  0.0119  0.3584 -0.0860
  594MOL0     C80083   9.762   3.548   5.168  0.2354 -0.2545 -0.5378
  594MOL0     C80084   9.755   3.449   5.273 -0.8845  0.1006  0.2864
  594MOL0     O80085   9.871   3.390   5.333 -0.7850 -0.2632  0.5383
  594MOL0     C80086   9.873   3.283   5.413 -0.4744  0.1433 -0.8110
  594MOL0     C80087   9.927   3.155   5.376  0.4673 -0.8051 -0.4132
  594MOL0     C80088   9.920   3.045   5.454  0.9835  0.0049  0.2597
  594MOL0     C80089   9.839   3.047   5.565 -0.7668  0.5488 -0.2602
  594MOL0     O80090   9.827   2.943   5.652 -0.5087 -0.2290  0.7600
  594MOL0     C80091   9.934   2.873   5.706 -0.4841  0.2702 -1.2165
  594MOL0     C80092   9.893   2.803   5.839  0.1449  0.2153 -0.1441
  594MOL0     C80093   9.851   2.909   5.947  0.1788 -0.1101  0.3900
  594MOL0     C80094   9.785   2.842   6.065  0.0986 -0.5115 -0.3880
  594MOL0     C80095   9.761   2.947   6.173 -0.8364  0.3245 -0.2457
  594MOL0     C80096   9.711   2.885   6.299 -0.5690 -0.1052  0.4605
  594MOL0     C80097   9.664   2.985   6.395 -0.0454 -0.9799  0.3812
  594MOL0     C80098   9.629   2.910   6.522  0.0771 -0.2618 -0.7084
  594MOL0    Cl80099   9.571   3.022   6.639  0.3342 -0.1759 -0.6846
  594MOL0     C80100   9.786   3.171   5.601 -0.1280  1.0394  0.5036
  594MOL0     C80101   9.808   3.287   5.531  0.8007  0.4859  1.1785
  594MOL0     O80102   9.644   3.422   5.312  0.4188  0.3343  0.2263
  594MOL0     C80103   9.649   3.606   5.118  0.0639 -0.2857  0.0038
  594MOL0     C80104   9.656   3.709   5.020  0.5147  0.4807 -0.0302
  594MOL0     N80105   9.853   3.578   4.247  0.4068  0.1648  0.0841
  594MOL0     N80106   9.815   3.512   4.146 -0.2559  0.4137  0.5164
  594MOL0     C80107   8.711   3.076   3.782  0.6003 -0.8832  0.8344
  594MOL0     C80108   8.695   3.078   3.643 -0.3590  1.0236 -0.2135
  594MOL0     C80109   8.798   3.043   3.207 -0.4987 -0.1356 -0.2941
  594MOL0     C80110   8.783   2.902   3.173  0.3554 -0.3652 -0.4711
  594MOL0     C80111   8.789   2.865   3.034 -0.0988 -0.0411 -1.3891
  594MOL0     C80112   8.808   2.956   2.931  0.2102  1.1428 -0.3751
  594MOL0     O80113   8.822   2.909   2.802  0.7369 -0.0727 -0.4971
  594MOL0     C80114   8.860   2.773   2.765  0.1133 -0.3878 -0.6917
  594MOL0     C80115   8.741   2.691   2.705  1.0804  0.6536  0.8258
  594MOL0     C80116   8.786   2.557   2.644 -0.5658 -0.2466  0.0049
  594MOL0     C80117   8.687   2.450   2.604 -0.4357 -0.3207 -0.7524
  594MOL0     C80118   8.558   2.507   2.562  0.3605 -0.8432 -0.3768
  594MOL0     C80119   8.450   2.547   2.518 -0.9125 -1.1860  1.1008
  594MOL0     C80120   8.841   3.082   2.974 -0.3689 -0.6587  0.1226
  594MOL0     C80121   8.835   3.135   3.102  0.3226 -0.3100 -0.6987
  594MOL0     C80122   8.841   3.281   3.128 -1.2111  0.4810  0.4822
  594MOL0     H80123   8.872   2.815   3.545  0.5727  2.0060 -1.7131
  594MOL0     H80124   8.887   2.790   3.801  2.4784  1.1705 -0.4995
  594MOL0     H80125   8.804   3.145   4.070  0.0913 -1.2504  0.0434
  594MOL0     H80126   8.918   3.033   4.124  0.5397 -0.5203 -0.1922
  594MOL0     H80127   8.925   3.233   3.903  2.3737 -0.2967 -2.4811
  594MOL0     H80128   9.013   3.084   3.860  0.0345 -1.2366 -0.0620
  594MOL0     H80129   9.151   3.108   4.058 -2.0204 -0.9022  0.7659
  594MOL0     H80130   9.080   3.267   4.098  1.1045 -1.3933  1.9900
  594MOL0     H80131   9.230   3.217   3.833  0.1603  2.1602 -1.1463
  594MOL0     H80132   9.160   3.365   3.878 -0.0549  0.2120 -0.4182
  594MOL0     H80133   9.298   3.388   4.080 -3.1841 -0.6081 -1.8689
  594MOL0     H80134   9.377   3.239   4.059 -4.4026 -1.1925  2.3110
  594MOL0     H80135   9.467   3.302   3.850 -0.3390  2.0595 -2.8630
  594MOL0     H80136   9.387   3.460   3.847  0.2488 -0.9176 -1.6328
  594MOL0     H80137   9.487   3.518   4.079  2.3815  0.4070  2.5897
  594MOL0     H80138   9.588   3.518   3.930 -0.9762 -1.0940  0.6411
  594MOL0     H80139   9.574   3.276   4.114  1.1830 -1.0322 -0.6242
  594MOL0     H80140   9.711   3.307   4.010  0.9696  0.4445  1.0169
  594MOL0     H80141   9.611   3.418   4.383 -0.6357  2.7045  0.9654
  594MOL0     H80142   9.679   3.720   4.465  0.9442  0.2834 -1.2940
  594MOL0     H80143   9.686   3.572   4.551 -2.9479  2.2580 -1.0308
  594MOL0     H80144   9.968   3.616   4.518  2.4222  2.8112  3.0203
  594MOL0     H80145   9.916   3.773   4.496  0.0109 -0.0944  0.3421
  594MOL0     H80146   9.966   3.701   4.743 -0.5658 -2.2011  2.1898
  594MOL0     H80147   9.824   3.597   4.728  2.6606 -1.0533 -1.2445
  594MOL0     H80148   9.678   3.770   4.729  0.0800  1.2117 -1.0129
  594MOL0     H80149   9.795   3.890   4.677  2.2637 -1.2576 -0.4632
  594MOL0     H80150   9.993   3.733   4.997  1.1892 -1.8471  1.2033
  594MOL0     H80151   9.976   3.552   5.178  1.3203  1.4184 -1.4626
  594MOL0     H80152   9.977   3.155   5.280  2.7997  0.0706  0.7205
  594MOL0     H80153   9.972   2.953   5.431 -2.3274 -1.3903 -2.4481
  594MOL0     H80154   9.974   2.793   5.644 -0.2297  0.4678 -1.3079
  594MOL0     H80155  10.011   2.950   5.714 -3.4807  3.4966 -0.7886
  594MOL0     H80156   9.797   2.754   5.820 -1.2604  1.5593  2.8374
  594MOL0     H80157   9.968   2.727   5.861 -0.9555 -2.0944 -3.5727
  594MOL0     H80158   9.945   2.954   5.981 -0.0993  0.0134  1.0097
  594MOL0     H80159   9.779   2.988   5.921 -1.2235 -0.8703  1.7439
  594MOL0     H80160   9.847   2.756   6.091 -0.6435 -1.1666 -0.7446
  594MOL0     H80161   9.685   2.807   6.037  0.1239 -1.4869  0.6385
  594MOL0     H80162   9.691   3.020   6.133  2.2364  1.9560 -3.2253
  594MOL0     H80163   9.855   3.002   6.186 -0.7595  0.6923 -2.0411
  594MOL0     H80164   9.625   2.828   6.261 -0.9571  1.6325 -1.4984
  594MOL0     H80165   9.790   2.819   6.336  2.6329  1.8728 -2.2535
  594MOL0     H80166   9.570   3.030   6.363 -0.5811 -1.2642  1.5117
  594MOL0     H80167   9.746   3.054   6.419  0.9770 -1.5121 -1.4277
  594MOL0     H80168   9.547   2.838   6.521  1.8306 -2.6794  3.3603
  594MOL0     H80169   9.713   2.864   6.577 -2.4152  0.5467  4.3958
  594MOL0     H80170   9.736   3.174   5.697  0.8499  4.0664  1.0200
  594MOL0     H80171   9.762   3.379   5.566  1.1501  0.8672  0.6319
  594MOL0     H80172   9.551   3.578   5.154 -1.0860  4.3220  1.0979
  594MOL0     H80173   9.563   3.752   4.984 -1.0841  0.4505  3.6064
  594MOL0     H80174   8.656   3.153   3.835  2.3678  1.9237 -1.1469
  594MOL0     H80175   8.629   3.151   3.597 -0.6936 -0.4850 -2.2448
  594MOL0     H80176   8.766   2.820   3.242 -0.3330  0.1794  0.0299
  594MOL0     H80177   8.776   2.759   3.014 -1.3091 -1.3384  4.3162
  594MOL0     H80178   8.897   2.723   2.854  1.7986  0.7724 -0.6859
  594MOL0     H80179   8.944   2.769   2.695 -1.2480 -1.0583 -2.3817
  594MOL0     H80180   8.706   2.742   2.615  0.9844 -2.5302 -1.0887
  594MOL0     H80181   8.661   2.675   2.778 -0.7521 -0.0596 -1.2307
  594MOL0     H80182   8.861   2.513   2.710  3.6391  2.7086 -2.3314
  594MOL0     H80183   8.847   2.580   2.556 -2.1653 -0.5198 -1.2150
  594MOL0     H80184   8.728   2.401   2.515  0.8733  0.5038 -0.6168
  594MOL0     H80185   8.670   2.379   2.686 -2.2853  0.1929 -0.6437
  594MOL0     H80186   8.359   2.589   2.481 -1.3153 -0.6993  2.5663
  594MOL0     H80187   8.865   3.160   2.903 -1.5820  0.4697  0.9139
  594MOL0     H80188   8.802   3.330   3.038 -2.0581  2.0040  1.6380
  594MOL0     H80189   8.783   3.304   3.218  0.1310 -1.3372  1.8837
  594MOL0     H80190   8.948   3.293   3.146 -1.3185 -1.9947  3.6320
  595MOL0     O80191  10.977   5.757  10.803  0.1083 -0.8832 -0.7456
  595MOL0     C80192  10.999   5.774  10.685  0.6499  0.0792  0.5323
  595MOL0     O80193  11.078   5.866  10.623 -0.6760  0.5723 -0.1238
  595MOL0     C80194  11.140   5.962  10.691 -0.0366 -0.2564 -0.5382
  595MOL0     C80195  11.213   5.941  10.801  0.7234  0.0066 -1.3615
  595MOL0     C80196  11.275   6.056  10.854  0.0348  0.1944  0.1706
  595MOL0     C80197  11.245   6.184  10.816 -0.0756  0.9040  0.2919
  595MOL0     O80198  11.313   6.285  10.882 -0.0576 -0.2631  0.2603
  595MOL0     C80199  11.261   6.421  10.901  0.1708  0.1803  0.1405
  595MOL0     C80200  11.369   6.513  10.971 -0.1908  1.0354 -0.2333
  595MOL0     C80201  11.324   6.653  11.009 -0.0839 -1.0258  0.3273
  595MOL0     C80202  11.222   6.648  11.127  0.3571 -1.4741  0.0414
  595MOL0     C80203  11.209   6.779  11.205  0.5442  1.2492  0.9858
  595MOL0     C80204  11.169   6.901  11.121 -0.8012  0.5316 -0.1958
  595MOL0     C80205  11.157   7.027  11.204 -0.4241  1.0781  0.2556
  595MOL0     C80206  11.290   7.088  11.261 -0.7013  0.1866  0.2206
  595MOL0     N80207  11.378   7.107  11.151 -1.0043  0.1442 -0.1988
  595MOL0     C80208  11.513   7.061  11.151  0.1987  0.5225 -0.8201
  595MOL0     C80209  11.580   7.137  11.066 -0.0403 -0.1925 -0.0912
  595MOL0     C80210  11.721   7.139  11.031  0.4387 -0.5633 -0.2961
  595MOL0     C80211  11.760   7.273  10.952 -0.3985 -0.2909 -0.1503
  595MOL0     C80212  11.911   7.260  10.930  0.4836  0.0721  0.3166
  595MOL0     C80213  11.974   7.399  10.927 -0.1359  0.3750 -0.5265
  595MOL0     O80214  11.973   7.443  10.790 -0.0774 -0.4283 -0.7079
  595MOL0     C80215  12.059   7.549  10.762  0.3239  0.4531  0.6980
  595MOL0     C80216  12.135   7.538  10.651 -0.6307 -0.4127 -0.0093
  595MOL0     C80217  12.213   7.646  10.609  0.3736  0.7702  0.0687
  595MOL0     C80218  12.214   7.767  10.673 -0.6292 -0.4214 -0.1860
  595MOL0     C80219  12.300   7.887  10.614  1.0934  0.4216 -0.8880
  595MOL0     O80220  12.247   8.016  10.634  0.2653 -0.3530  0.2913
  595MOL0     C80221  12.310   8.130  10.587  0.5231  0.2975 -0.4871
  595MOL0     C80222  12.400   8.138  10.488  0.5174 -0.1002 -0.2063
  595MOL0     C80223  12.469   8.262  10.471  0.2256  0.4127 -0.2434
  595MOL0     C80224  12.431   8.380  10.529 -0.3470  0.1171  0.3471
  595MOL0     O80225  12.489   8.489  10.470 -0.2588 -0.1698 -0.1225
  595MOL0     C80226  12.447   8.617  10.519 -0.1650  0.6194  0.4316
  595MOL0     C80227  12.496   8.714  10.421 -0.3004 -0.2570  0.7491
  595MOL0     C80228  12.419   8.697  10.283 -0.1419  0.4949  0.3308
  595MOL0     C80229  12.486   8.795  10.185 -0.0641  0.1687 -0.0299
  595MOL0     C80230  12.629   8.745  10.143 -0.8392 -0.2820 -0.5354
  595MOL0     C80231  12.672   8.845  10.032  0.2143  0.3102 -0.2309
  595MOL0     C80232  12.809   8.811   9.984 -0.3703  0.3036 -0.7468
  595MOL0     C80233  12.870   8.917   9.889 -0.4453  1.4037 -0.3280
  595MOL0    Cl80234  12.906   9.069   9.963 -0.1756 -0.4417 -0.2046
  595MOL0     C80235  12.314   8.379  10.607 -0.4119 -0.0091 -1.3702
  595MOL0     C80236  12.263   8.251  10.638 -0.2327 -0.1786 -0.1228
  595MOL0     O80237  12.410   7.847  10.579 -0.0729 -0.0720  0.2589
  595MOL0     C80238  12.130   7.787  10.781  1.5066 -0.1495  0.1437
  595MOL0     C80239  12.054   7.674  10.828  0.1034 -0.8926 -0.1394
  595MOL0     N80240  11.477   7.208  10.992 -0.6184 -0.2602  0.3004
  595MOL0     N80241  11.357   7.186  11.045 -0.3393  0.1805 -0.1001
  595MOL0     C80242  11.162   6.193  10.702  0.1516 -0.0903 -0.3046
  595MOL0     C80243  11.117   6.085  10.634  0.2334 -0.5585  0.1363
  595MOL0     C80244  10.925   5.689  10.595  0.7560  0.0333  0.6746
  595MOL0     C80245  10.914   5.743  10.460 -0.0066 -0.9040  0.2348
  595MOL0     C80246  10.850   5.681  10.359 -0.7316  1.3971  0.1594
  595MOL0     C80247  10.777   5.559  10.382 -0.1336 -0.6307  0.1379
  595MOL0     O80248  10.708   5.507  10.275  0.5367 -0.7996  0.1287
  595MOL0     C80249  10.674   5.369  10.277  1.3683  0.0259 -0.5795
  595MOL0     C80250  10.628   5.345  10.135  0.2742 -0.1089  0.2247
  595MOL0     C80251  10.748   5.309  10.056  0.9883  0.7838 -0.5578
  595MOL0     C80252  10.709   5.317   9.913  0.6092  0.7479  0.7862
  595MOL0     C80253  10.613   5.215   9.868  0.0699 -0.6777  0.1456
  595MOL0     C80254  10.556   5.118   9.826  0.1626 -0.0874 -0.4490
  595MOL0     C80255  10.792   5.502  10.508  0.5218 -0.5862 -0.9190
  595MOL0     C80256  10.868   5.560  10.618  0.1067  0.2489 -0.4548
  595MOL0     C80257  10.876   5.474  10.757 -0.0977 -0.1488 -0.9773
  595MOL0     H80258  11.232   5.840  10.837  1.3386  0.2580 -0.9728
  595MOL0     H80259  11.347   6.040  10.933  0.1439 -1.4077 -0.2212
  595MOL0     H80260  11.258   6.461  10.799  3.2801  2.0721  0.6782
  595MOL0     H80261  11.167   6.418  10.957 -1.3642  2.9425 -2.0245
  595MOL0     H80262  11.467   6.508  10.922  1.1666 -2.0083  2.3524
  595MOL0     H80263  11.397   6.454  11.059 -0.1642 -1.6017 -1.8691
  595MOL0     H80264  11.275   6.698  10.923  1.3063 -0.2315 -0.0703
  595MOL0     H80265  11.412   6.714  11.033  0.2047 -1.0317 -0.6765
  595MOL0     H80266  11.125   6.618  11.087 -0.1123 -2.1341  1.6198
  595MOL0     H80267  11.247   6.561  11.188  3.7332 -0.7230 -0.0462
  595MOL0     H80268  11.132   6.767  11.282  0.7299 -3.5862  0.6896
  595MOL0     H80269  11.305   6.793  11.255  0.3473  2.7742  0.9780
  595MOL0     H80270  11.232   6.918  11.032  0.5340  2.9679  1.1195
  595MOL0     H80271  11.068   6.884  11.082  0.6044  0.4582 -4.3490
  595MOL0     H80272  11.089   7.014  11.289  1.1366  1.0985  1.5802
  595MOL0     H80273  11.120   7.103  11.135 -1.2654  1.0292  0.6364
  595MOL0     H80274  11.265   7.183  11.310 -0.6821 -0.0189  0.6290
  595MOL0     H80275  11.333   7.024  11.337 -1.5261  2.7493  3.0425
  595MOL0     H80276  11.559   6.988  11.217 -1.7985 -0.0975 -0.0556
  595MOL0     H80277  11.776   7.142  11.125 -0.4121 -1.3640  0.2450
  595MOL0     H80278  11.749   7.045  10.982  1.3439 -2.3377  3.2925
  595MOL0     H80279  11.699   7.293  10.864 -0.7878  0.2735  0.2445
  595MOL0     H80280  11.739   7.358  11.018 -0.2033 -1.7918  1.9601
  595MOL0     H80281  11.927   7.205  10.836  1.3658  1.6647 -0.5148
  595MOL0     H80282  11.964   7.214  11.013  2.0914  3.9485  1.6828
  595MOL0     H80283  12.079   7.383  10.955 -1.1641 -1.8623  2.6954
  595MOL0     H80284  11.931   7.473  10.995 -1.5672 -0.8585 -0.0217
  595MOL0     H80285  12.127   7.440  10.605 -5.0453 -0.7070  0.9403
  595MOL0     H80286  12.281   7.628  10.526  3.6299  1.4742  2.3824
  595MOL0     H80287  12.413   8.054  10.422  1.1326 -0.3061  0.1680
  595MOL0     H80288  12.552   8.266  10.402  0.1428  1.1190 -0.3052
  595MOL0     H80289  12.338   8.620  10.524 -0.3573 -2.7764  0.8619
  595MOL0     H80290  12.486   8.634  10.620  0.0771  1.0115  0.2772
  595MOL0     H80291  12.481   8.817  10.455  0.2596 -0.1379  0.6405
  595MOL0     H80292  12.600   8.680  10.419  0.0502 -0.4816 -7.3432
  595MOL0     H80293  12.433   8.597  10.242 -2.3125  0.8478 -1.4179
  595MOL0     H80294  12.313   8.716  10.300 -1.1071 -2.5960 -1.4057
  595MOL0     H80295  12.482   8.899  10.221 -0.7488 -0.7470  2.7464
  595MOL0     H80296  12.428   8.785  10.093 -0.5584 -3.5773  0.5541
  595MOL0     H80297  12.626   8.639  10.115 -0.0738  0.2424 -2.8239
  595MOL0     H80298  12.689   8.745  10.234 -1.2216  2.5351 -0.2072
  595MOL0     H80299  12.605   8.817   9.950  1.0165  0.2245 -0.8768
  595MOL0     H80300  12.658   8.947  10.067  0.6385  0.2345  0.1705
  595MOL0     H80301  12.804   8.711   9.939 -2.1664 -1.2429  2.4934
  595MOL0     H80302  12.874   8.795  10.071 -1.0732 -2.3827 -0.6382
  595MOL0     H80303  12.958   8.875   9.840  0.0263 -2.0977  2.9994
  595MOL0     H80304  12.798   8.942   9.810 -1.1307 -0.1113 -0.2245
  595MOL0     H80305  12.266   8.464  10.654 -1.3967 -1.5778  0.6668
  595MOL0     H80306  12.183   8.247  10.711 -0.2923 -1.6475 -0.2383
  595MOL0     H80307  12.129   7.883  10.831  2.8458  1.4637 -2.6313
  595MOL0     H80308  11.984   7.688  10.909 -0.4463 -0.9666 -0.5929
  595MOL0     H80309  11.134   6.292  10.667 -2.0372 -0.5330  0.0564
  595MOL0     H80310  11.050   6.109  10.552 -0.3862  2.2331  1.3437
  595MOL0     H80311  10.951   5.841  10.433  1.7931 -1.6002  0.0342
  595MOL0     H80312  10.851   5.726  10.260 -0.9483 -0.5417 -0.7804
  595MOL0     H80313  10.599   5.354  10.355  2.9686  0.5718  1.1654
  595MOL0     H80314  10.750   5.292  10.292  0.6495 -1.5081 -3.8343
  595MOL0     H80315  10.587   5.439  10.098 -0.8723 -0.1837  1.2199
  595MOL0     H80316  10.562   5.259  10.121  0.5071 -0.5057  1.4234
  595MOL0     H80317  10.774   5.210  10.094 -1.4478  1.0297  2.0660
  595MOL0     H80318  10.833   5.374  10.077  0.4589  1.6366 -1.0070
  595MOL0     H80319  10.675   5.418   9.889 -1.5499 -0.1457 -0.1181
  595MOL0     H80320  10.804   5.309   9.860  1.0672 -0.6636  1.7535
  595MOL0     H80321  10.500   5.030   9.803 -1.8147  0.4731  1.8458
  595MOL0     H80322  10.741   5.408  10.523 -0.5026  0.1202  0.2460
  595MOL0     H80323  10.977   5.448  10.790 -0.6635  0.5216  1.4936
  595MOL0     H80324  10.831   5.537  10.834  0.1167 -0.9786 -0.1577
  595MOL0     H80325  10.816   5.382  10.760  1.7232 -1.3704  0.5777
  596MOL0     O80326  10.652   2.398   7.660 -0.1334 -0.1005 -0.4817
  596MOL0     C80327  10.766   2.408   7.696 -0.5322  0.3101 -0.4297
  596MOL0     O80328  10.864   2.469   7.622  0.5545 -0.0695 -0.9853
  596MOL0     C80329  10.844   2.554   7.519  0.0003  0.3203  0.0161
  596MOL0     C80330  10.880   2.512   7.390 -0.3668 -0.5101 -0.5499
  596MOL0     C80331  10.869   2.597   7.288 -0.4392  0.1575 -0.5894
  596MOL0     C80332  10.797   2.716   7.301  0.3071 -0.4058  0.3707
  596MOL0     O80333  10.781   2.804   7.192  0.1535 -0.9226 -0.4143
  596MOL0     C80334  10.832   2.760   7.066 -0.3275  0.0979  0.2835
  596MOL0     C80335  10.803   2.856   6.955 -0.1834  0.9720  0.6082
  596MOL0     C80336  10.843   2.796   6.815  0.0590 -0.4847 -0.2249
  596MOL0     C80337  10.816   2.916   6.725  0.7093 -0.7927 -0.4108
  596MOL0     C80338  10.796   2.885   6.580  0.6025 -0.0968 -0.7607
  596MOL0     C80339  10.715   2.989   6.493 -0.5746  0.0540  0.4797
  596MOL0     C80340  10.800   3.111   6.474  0.1251 -0.8480  0.0052
  596MOL0     C80341  10.747   3.181   6.345 -0.0449  0.7859 -0.4781
  596MOL0     N80342  10.805   3.310   6.321 -0.1911 -0.1307  0.4947
  596MOL0     C80343  10.939   3.328   6.288 -0.2272  0.5000  1.2526
  596MOL0     C80344  10.956   3.456   6.273 -0.7972 -0.0376 -0.9355
  596MOL0     C80345  11.082   3.514   6.233 -0.3199  0.1344 -0.6669
  596MOL0     C80346  11.128   3.474   6.099 -0.0817 -0.2466  0.7527
  596MOL0     C80347  11.262   3.534   6.069  0.7640 -0.7413 -0.1559
  596MOL0     C80348  11.381   3.447   6.116 -0.5546 -0.1213  1.0373
  596MOL0     O80349  11.497   3.524   6.083 -0.1283  0.3897  0.4843
  596MOL0     C80350  11.610   3.459   6.040  0.3773 -0.5719 -0.0607
  596MOL0     C80351  11.656   3.335   6.081 -0.4311  0.8702 -0.0396
  596MOL0     C80352  11.788   3.294   6.043  0.0521  0.5742 -0.7043
  596MOL0     C80353  11.852   3.359   5.943  0.0852  0.1186 -0.0122
  596MOL0     C80354  11.974   3.304   5.868  0.2271  1.4572  0.6293
  596MOL0     O80355  12.033   3.190   5.919  0.0542 -0.1080 -0.1140
  596MOL0     C80356  12.149   3.141   5.871 -0.2889  1.5072  0.2020
  596MOL0     C80357  12.265   3.213   5.844 -0.3108  0.7498 -0.4271
  596MOL0     C80358  12.380   3.154   5.786  0.3056  0.1899 -0.3047
  596MOL0     C80359  12.388   3.017   5.754  0.1206  0.1162  0.0691
  596MOL0     O80360  12.478   2.977   5.652 -0.4240 -0.4245  0.3941
  596MOL0     C80361  12.424   2.896   5.539 -0.4073 -0.1065 -0.6170
  596MOL0     C80362  12.388   2.999   5.431  0.8403  0.1534  0.2259
  596MOL0     C80363  12.244   3.065   5.439  0.7887  0.9890  0.3459
  596MOL0     C80364  12.250   3.181   5.344  0.0659  0.0089 -0.4306
  596MOL0     C80365  12.106   3.233   5.323  0.2819 -0.9319  0.0476
  596MOL0     C80366  12.090   3.361   5.234  0.4297  0.5695  0.4109
  596MOL0     C80367  12.109   3.324   5.087  0.4179  1.0946 -0.5489
  596MOL0     C80368  12.087   3.440   4.990  0.4519 -0.3027  0.2806
  596MOL0    Cl80369  12.147   3.402   4.826  0.8013 -0.4440  0.2013
  596MOL0     C80370  12.283   2.936   5.799  0.4015 -0.6075 -0.8463
  596MOL0     C80371  12.166   3.000   5.854  0.4272  0.9043 -0.1152
  596MOL0     O80372  12.021   3.362   5.765 -0.0760  0.8688 -0.2612
  596MOL0     C80373  11.797   3.477   5.896  0.5031  0.6030  0.0858
  596MOL0     C80374  11.682   3.522   5.958  0.5729 -1.1402  0.7326
  596MOL0     N80375  10.836   3.517   6.299  0.4227 -0.1451 -0.7978
  596MOL0     N80376  10.744   3.431   6.329 -0.7452 -0.2203 -0.1486
  596MOL0     C80377  10.755   2.759   7.424  0.8275 -1.3380 -0.8623
  596MOL0     C80378  10.782   2.681   7.539 -0.6004 -0.6994  0.6043
  596MOL0     C80379  10.804   2.355   7.827 -0.3596  0.2120 -0.8542
  596MOL0     C80380  10.937   2.314   7.848  0.4821  0.6131  1.0682
  596MOL0     C80381  10.988   2.279   7.976 -0.5617 -1.0641  0.5927
  596MOL0     C80382  10.898   2.289   8.085 -1.1313 -0.6535  0.9433
  596MOL0     O80383  10.939   2.252   8.209 -0.2709  0.3575  0.1929
  596MOL0     C80384  10.969   2.350   8.309 -0.3863  0.0682  0.2425
  596MOL0     C80385  11.122   2.374   8.312 -0.0155 -0.9102 -0.5356
  596MOL0     C80386  11.172   2.438   8.444 -0.2237  0.3746  0.1522
  596MOL0     C80387  11.321   2.459   8.449 -0.2596 -0.9614 -0.2021
  596MOL0     C80388  11.359   2.595   8.493 -0.6526  0.6105  0.8142
  596MOL0     C80389  11.397   2.712   8.506 -0.3230 -0.6024 -0.0040
  596MOL0     C80390  10.766   2.319   8.069  0.7477  0.2159  0.5145
  596MOL0     C80391  10.718   2.354   7.941  1.1532  0.4791  0.7478
  596MOL0     C80392  10.565   2.380   7.930  0.1019  0.0621 -0.0536
  596MOL0     H80393  10.932   2.421   7.364  0.4097 -0.1282 -0.3805
  596MOL0     H80394  10.913   2.555   7.198 -0.9201  2.5842 -2.0419
  596MOL0     H80395  10.940   2.754   7.058 -0.0475  2.4396  1.3673
  596MOL0     H80396  10.788   2.662   7.046  1.3691 -1.2801  2.7728
  596MOL0     H80397  10.862   2.947   6.971  0.6985  1.0368 -2.3831
  596MOL0     H80398  10.699   2.893   6.958 -0.6038  0.3395 -2.7018
  596MOL0     H80399  10.785   2.705   6.800  0.2661 -0.5724 -0.5008
  596MOL0     H80400  10.948   2.768   6.813  0.3328  0.5118 -2.3394
  596MOL0     H80401  10.726   2.965   6.763  1.4193 -0.8397  1.4222
  596MOL0     H80402  10.898   2.988   6.727  1.4072 -1.5885  0.7964
  596MOL0     H80403  10.899   2.880   6.544 -0.0714  1.0667 -3.1259
  596MOL0     H80404  10.736   2.795   6.569 -1.5577  1.2984 -1.0659
  596MOL0     H80405  10.718   2.944   6.393 -0.2227  1.8432 -0.3555
  596MOL0     H80406  10.612   3.008   6.526  0.2310  2.6433  1.7666
  596MOL0     H80407  10.904   3.081   6.461  1.6490  1.8895  3.9749
  596MOL0     H80408  10.792   3.174   6.563  0.0636 -2.2868  1.0551
  596MOL0     H80409  10.771   3.118   6.259 -0.5971 -0.2538  0.1232
  596MOL0     H80410  10.639   3.184   6.363 -0.0292 -1.9265  0.5378
  596MOL0     H80411  11.019   3.254   6.292 -0.9544 -0.4646 -0.7797
  596MOL0     H80412  11.070   3.622   6.227  1.6045  0.4067 -0.3478
  596MOL0     H80413  11.158   3.488   6.308 -1.2886  0.1449  0.3451
  596MOL0     H80414  11.142   3.365   6.096  1.7266 -0.0397 -0.0194
  596MOL0     H80415  11.051   3.511   6.030  0.6908 -1.0390 -0.5934
  596MOL0     H80416  11.263   3.630   6.122  2.9525  0.4999 -2.2080
  596MOL0     H80417  11.274   3.550   5.961  3.6482 -2.2682 -0.1495
  596MOL0     H80418  11.396   3.355   6.059 -0.0713  0.1021  0.7927
  596MOL0     H80419  11.370   3.421   6.221  0.5795  1.7184  1.6606
  596MOL0     H80420  11.604   3.275   6.155 -1.8402  0.4330 -1.3188
  596MOL0     H80421  11.828   3.206   6.091  0.5843  2.1782  1.9783
  596MOL0     H80422  12.258   3.319   5.865  0.1741  1.1387 -2.0897
  596MOL0     H80423  12.455   3.228   5.762  0.0506  0.5902  0.1065
  596MOL0     H80424  12.491   2.827   5.489 -0.0567  0.7906 -1.4098
  596MOL0     H80425  12.335   2.838   5.566  0.8366 -1.8756 -0.1947
  596MOL0     H80426  12.466   3.075   5.422  1.2215 -0.4288 -1.8917
  596MOL0     H80427  12.404   2.938   5.342  3.7853  0.1686  0.6494
  596MOL0     H80428  12.164   2.996   5.411  0.8068  1.2860 -0.4822
  596MOL0     H80429  12.208   3.102   5.536 -0.8606  1.9875 -0.5896
  596MOL0     H80430  12.301   3.139   5.257  0.8346  1.3622 -0.6639
  596MOL0     H80431  12.313   3.264   5.379  1.2141 -1.2850  0.6752
  596MOL0     H80432  12.063   3.249   5.422  0.6626 -2.9222  0.5734
  596MOL0     H80433  12.046   3.148   5.289  1.0592 -2.3218  1.9956
  596MOL0     H80434  11.985   3.391   5.245 -0.7213 -1.8112 -2.6280
  596MOL0     H80435  12.141   3.448   5.277 -2.2645  1.3627  2.2848
  596MOL0     H80436  12.052   3.234   5.064  0.9524  0.4399  0.6272
  596MOL0     H80437  12.209   3.282   5.075 -1.0307 -2.8864 -0.1024
  596MOL0     H80438  11.983   3.473   4.993  0.6452  0.3880 -0.4663
  596MOL0     H80439  12.157   3.511   5.034  1.5771 -1.5887  0.6629
  596MOL0     H80440  12.273   2.830   5.779 -2.4900 -0.2159 -2.0205
  596MOL0     H80441  12.095   2.926   5.888  0.3647  1.4638  1.0261
  596MOL0     H80442  11.834   3.531   5.809 -1.8287 -0.5777 -1.7819
  596MOL0     H80443  11.651   3.619   5.921  2.6189 -0.2762  1.1078
  596MOL0     H80444  10.696   2.849   7.433 -0.3233 -2.0353 -1.2537
  596MOL0     H80445  10.736   2.720   7.629  0.4581 -0.4105  1.0430
  596MOL0     H80446  11.006   2.292   7.767  0.8492 -2.0008  1.9789
  596MOL0     H80447  11.095   2.261   7.985 -0.1642 -0.8655 -2.6993
  596MOL0     H80448  10.936   2.330   8.411 -0.5920  0.1578  0.1928
  596MOL0     H80449  10.920   2.443   8.281 -1.1313 -1.0317 -2.4381
  596MOL0     H80450  11.144   2.438   8.227 -1.7843  3.7767  2.1558
  596MOL0     H80451  11.190   2.290   8.292  1.8980  1.0198 -2.7002
  596MOL0     H80452  11.150   2.373   8.529  1.9321  1.6658  1.8161
  596MOL0     H80453  11.117   2.531   8.463  0.7527  1.5318 -2.2138
  596MOL0     H80454  11.374   2.388   8.513  1.7088  1.2166  0.7206
  596MOL0     H80455  11.356   2.438   8.348 -2.8983 -1.3337 -1.1075
  596MOL0     H80456  11.440   2.810   8.503 -0.9447 -0.3338 -0.3141
  596MOL0     H80457  10.706   2.335   8.158  1.5876 -2.2843  1.6164
  596MOL0     H80458  10.517   2.316   7.855  1.1351 -1.3541  0.4320
  596MOL0     H80459  10.511   2.347   8.020  2.6226 -0.0317  1.5470
  596MOL0     H80460  10.541   2.485   7.916 -2.6208 -0.2947  1.2077
  597MOL0     O80461  10.068   1.856   5.284  0.1039 -0.6302  0.2907
  597MOL0     C80462   9.991   1.919   5.359  0.4526 -0.1570  0.3782
  597MOL0     O80463   9.875   1.869   5.416 -0.3812  0.2797 -0.1919
  597MOL0     C80464   9.850   1.730   5.406 -0.2444 -1.0347 -1.3350
  597MOL0     C80465   9.748   1.686   5.326  0.0474 -0.3424 -1.0180
  597MOL0     C80466   9.706   1.554   5.333 -0.3447 -0.8886 -0.0089
  597MOL0     C80467   9.769   1.461   5.413 -0.8904  0.8144  0.1687
  597MOL0     O80468   9.730   1.336   5.419  0.4003  0.1615  0.0620
  597MOL0     C80469   9.589   1.303   5.447 -0.7342  0.1304 -0.9206
  597MOL0     C80470   9.577   1.152   5.483 -0.2196  0.4768 -0.2561
  597MOL0     C80471   9.422   1.128   5.513 -0.8691  0.3317  0.0216
  597MOL0     C80472   9.370   1.018   5.424  0.5368  0.2229  0.9155
  597MOL0     C80473   9.214   0.995   5.443  0.7802 -0.8372  0.1630
  597MOL0     C80474   9.172   0.869   5.370 -1.0836 -0.2484  0.9591
  597MOL0     C80475   9.040   0.818   5.431 -0.5940 -0.1629  0.2316
  597MOL0     C80476   8.984   0.704   5.342  0.0402  0.0938 -0.2905
  597MOL0     N80477   9.071   0.599   5.311 -0.7019  0.2748 -0.1906
  597MOL0     C80478   9.071   0.476   5.363 -0.5841  0.3237  0.3899
  597MOL0     C80479   9.181   0.418   5.300 -0.4539 -0.5061 -0.1604
  597MOL0     C80480   9.219   0.270   5.298 -0.1883  0.0869  0.8229
  597MOL0     C80481   9.303   0.222   5.422  0.3582 -0.3607 -0.1104
  597MOL0     C80482   9.279   0.085   5.468 -0.3512  0.5704 -0.3545
  597MOL0     C80483   9.149   0.081   5.552 -0.5323 -0.6997 -0.0205
  597MOL0     O80484   9.027   0.113   5.471 -0.8270  0.4070  0.0777
  597MOL0     C80485   8.938   0.010   5.462  0.9005 -0.0434 -0.1143
  597MOL0     C80486   8.882  -0.042   5.580  0.2284 -0.3381  0.6215
  597MOL0     C80487   8.773  -0.134   5.567  1.0630  0.6511  0.7625
  597MOL0     C80488   8.752  -0.200   5.441 -0.8317 -0.2056  0.0061
  597MOL0     C80489   8.637  -0.302   5.420 -0.2584 -0.1183  0.4302
  597MOL0     O80490   8.638  -0.351   5.298 -0.0184  0.9366 -0.2539
  597MOL0     C80491   8.543  -0.443   5.266 -0.6311  0.0389 -0.6497
  597MOL0     C80492   8.478  -0.413   5.146 -0.7368 -0.1982 -1.0599
  597MOL0     C80493   8.385  -0.494   5.088  0.0601 -1.2299  0.7478
  597MOL0     C80494   8.345  -0.612   5.149 -0.0719 -0.3572  0.4671
  597MOL0     O80495   8.248  -0.697   5.093 -0.6547 -0.5303  0.2565
  597MOL0     C80496   8.291  -0.748   4.958 -0.0707 -0.5445 -0.6759
  597MOL0     C80497   8.337  -0.892   4.971  0.1964 -0.0670 -0.2348
  597MOL0     C80498   8.222  -0.992   4.958  0.2891 -0.0766  0.5362
  597MOL0     C80499   8.176  -1.013   4.810 -0.0214 -0.8451  0.1436
  597MOL0     C80500   8.064  -1.116   4.792 -0.5637  0.2997 -0.4021
  597MOL0     C80501   8.062  -1.235   4.884  0.5798 -1.0306 -0.3807
  597MOL0     C80502   8.188  -1.325   4.864 -0.9946  0.5668  0.3685
  597MOL0     C80503   8.207  -1.399   4.999  0.5880 -0.3963 -0.1992
  597MOL0    Cl80504   8.360  -1.495   4.969 -0.1645  0.3283  0.1577
  597MOL0     C80505   8.417  -0.639   5.265  0.2268 -0.0028  1.2083
  597MOL0     C80506   8.517  -0.563   5.330  0.6596  0.0188  1.0284
  597MOL0     O80507   8.569  -0.331   5.512  0.4526  0.7809  0.1447
  597MOL0     C80508   8.826  -0.156   5.325 -0.1285  0.7944 -0.7406
  597MOL0     C80509   8.918  -0.050   5.333 -1.0047 -0.2060 -0.1325
  597MOL0     N80510   9.249   0.508   5.226 -0.5666 -0.2308 -0.5591
  597MOL0     N80511   9.176   0.611   5.224 -0.0975  0.6673 -1.0148
  597MOL0     C80512   9.878   1.509   5.490 -1.2282 -0.6148  0.3396
  597MOL0     C80513   9.923   1.638   5.486 -0.5284 -0.5287 -0.0925
  597MOL0     C80514  10.024   2.066   5.390  0.6022  0.7333  0.1937
  597MOL0     C80515   9.924   2.141   5.462 -1.4503  0.1353  0.3749
  597MOL0     C80516   9.970   2.272   5.504  0.0959  0.3076 -0.1969
  597MOL0     C80517  10.097   2.326   5.486 -0.1375 -0.0548  0.5846
  597MOL0     O80518  10.116   2.452   5.518  0.6188 -0.5340  0.1326
  597MOL0     C80519  10.238   2.483   5.591  0.7590  0.7318  0.6467
  597MOL0     C80520  10.201   2.604   5.670 -0.4350 -0.1501  0.3790
  597MOL0     C80521  10.321   2.678   5.738  0.5327  0.3872  0.3891
  597MOL0     C80522  10.303   2.832   5.758 -0.0890  0.1008  0.3577
  597MOL0     C80523  10.411   2.865   5.855 -0.6892 -1.1799 -0.3358
  597MOL0     C80524  10.504   2.868   5.932  0.3725 -0.7340  0.4821
  597MOL0     C80525  10.190   2.241   5.426  0.8345 -0.0113  1.4583
  597MOL0     C80526  10.160   2.117   5.369  0.1613 -0.0483 -1.1326
  597MOL0     C80527  10.266   2.056   5.274 -0.3657  0.7480 -1.1353
  597MOL0     H80528   9.685   1.757   5.272 -1.7916  0.6407  2.1702
  597MOL0     H80529   9.623   1.524   5.269 -0.1389  0.3799 -0.8989
  597MOL0     H80530   9.560   1.358   5.538  0.6908  2.5992 -1.8661
  597MOL0     H80531   9.508   1.320   5.377 -2.9927  1.2858  1.7619
  597MOL0     H80532   9.626   1.119   5.575  0.9950 -0.6435 -1.2605
  597MOL0     H80533   9.603   1.081   5.405  0.3895  2.0144 -1.5163
  597MOL0     H80534   9.367   1.221   5.502 -1.4818 -0.0256 -0.0150
  597MOL0     H80535   9.419   1.099   5.619  0.4599  0.1590  0.0344
  597MOL0     H80536   9.378   1.038   5.317 -4.8689  1.4474  0.4777
  597MOL0     H80537   9.415   0.918   5.425 -2.8012 -1.4152  1.4507
  597MOL0     H80538   9.166   0.994   5.541 -0.5141 -0.9007 -0.4557
  597MOL0     H80539   9.176   1.084   5.392  1.4860 -0.4163  0.3618
  597MOL0     H80540   9.169   0.886   5.262 -2.8704  0.7093  1.1134
  597MOL0     H80541   9.246   0.793   5.396  0.9809  0.8856 -1.2129
  597MOL0     H80542   8.966   0.898   5.428 -0.8349 -0.3826 -3.5418
  597MOL0     H80543   9.048   0.773   5.530 -1.0154 -0.3831  0.1657
  597MOL0     H80544   8.903   0.674   5.409  1.2296  1.6759  2.0014
  597MOL0     H80545   8.955   0.743   5.244 -0.4123  2.9141  0.8693
  597MOL0     H80546   8.996   0.422   5.419 -0.7562  0.0910 -0.0684
  597MOL0     H80547   9.120   0.224   5.298 -0.0751 -0.1937 -0.8430
  597MOL0     H80548   9.265   0.256   5.200 -2.4529  4.1559 -1.0821
  597MOL0     H80549   9.409   0.236   5.396 -0.0491  0.9822 -1.1787
  597MOL0     H80550   9.291   0.285   5.510  3.3351 -1.4214  1.2089
  597MOL0     H80551   9.365   0.045   5.523 -0.8069  1.6391  1.1947
  597MOL0     H80552   9.273   0.017   5.382 -0.1866 -0.9360  0.7813
  597MOL0     H80553   9.152   0.158   5.631 -3.5982 -0.0188 -0.4523
  597MOL0     H80554   9.143  -0.016   5.602  0.0395 -0.0846  1.3060
  597MOL0     H80555   8.898   0.009   5.674 -1.1560 -1.7744  1.6900
  597MOL0     H80556   8.714  -0.177   5.648 -1.5727  0.3790 -1.1645
  597MOL0     H80557   8.487  -0.312   5.109 -0.1415  0.1450 -0.0161
  597MOL0     H80558   8.332  -0.459   5.000 -2.1475 -0.7266  2.2015
  597MOL0     H80559   8.206  -0.738   4.890  1.2657  0.0468 -2.3217
  597MOL0     H80560   8.379  -0.696   4.919 -0.4198  1.2993  0.8800
  597MOL0     H80561   8.411  -0.910   4.893  0.9172  0.2794  0.3612
  597MOL0     H80562   8.381  -0.902   5.070 -0.4964  1.1813  0.2239
  597MOL0     H80563   8.255  -1.085   5.005  1.5977 -1.1135 -2.1854
  597MOL0     H80564   8.132  -0.960   5.011  1.2137  2.4909  0.6695
  597MOL0     H80565   8.262  -1.053   4.756  1.9888  2.0894  0.9390
  597MOL0     H80566   8.150  -0.917   4.764  3.4151 -0.6014 -1.5792
  597MOL0     H80567   8.076  -1.161   4.693  1.2013  2.4599 -1.2522
  597MOL0     H80568   7.968  -1.064   4.797 -0.3212  1.3196 -3.8172
  597MOL0     H80569   8.035  -1.211   4.987 -1.2314  2.5038 -1.4969
  597MOL0     H80570   7.968  -1.288   4.861 -0.7679  2.0700 -2.7770
  597MOL0     H80571   8.276  -1.262   4.847  1.1580 -2.9847 -3.5477
  597MOL0     H80572   8.172  -1.391   4.778  0.0404  0.1550  0.4745
  597MOL0     H80573   8.213  -1.334   5.086 -1.4587  0.2467 -0.5064
  597MOL0     H80574   8.121  -1.463   5.019 -1.0623  1.3859 -1.3216
  597MOL0     H80575   8.390  -0.731   5.316 -1.5113  1.1128  2.4016
  597MOL0     H80576   8.562  -0.595   5.424  0.8866 -2.9079  0.0107
  597MOL0     H80577   8.815  -0.194   5.224 -0.4380  0.2516 -0.5084
  597MOL0     H80578   8.954   0.008   5.248  0.8787 -1.1023  0.0051
  597MOL0     H80579   9.944   1.446   5.549  1.3136  0.9290 -0.6790
  597MOL0     H80580  10.000   1.663   5.558  0.3111 -1.1749 -0.7336
  597MOL0     H80581   9.827   2.095   5.480 -2.6903  1.9497 -1.3385
  597MOL0     H80582   9.894   2.345   5.531 -1.6317 -0.7883 -1.8463
  597MOL0     H80583  10.322   2.505   5.525 -0.7163 -0.9046 -1.9467
  597MOL0     H80584  10.275   2.400   5.653  2.7494  0.2865 -1.0590
  597MOL0     H80585  10.120   2.599   5.744 -2.0746 -2.7781 -1.4123
  597MOL0     H80586  10.159   2.673   5.595  3.1384 -0.0791 -1.7828
  597MOL0     H80587  10.409   2.673   5.674  0.4372  2.8356 -0.0296
  597MOL0     H80588  10.332   2.617   5.829  1.5354  2.0849  1.4599
  597MOL0     H80589  10.316   2.879   5.659 -3.4384  0.0469 -0.2273
  597MOL0     H80590  10.205   2.851   5.803  0.3412 -2.1722  2.3968
  597MOL0     H80591  10.575   2.863   6.012 -0.4433  0.7126  1.3297
  597MOL0     H80592  10.283   2.289   5.400 -0.0800 -0.1128 -2.7723
  597MOL0     H80593  10.361   2.107   5.290  0.2174 -0.2941 -1.1243
  597MOL0     H80594  10.275   1.947   5.283  2.3306  0.8626 -1.5492
  597MOL0     H80595  10.230   2.078   5.173 -4.2672 -1.2670 -0.3736
  598MOL0     O80596   6.352   2.265   8.367 -0.1285 -0.3632 -0.4581
  598MOL0     C80597   6.340   2.309   8.253  0.6385  0.1465 -0.0865
  598MOL0     O80598   6.349   2.219   8.148  0.1803 -0.7085  0.7696
  598MOL0     C80599   6.357   2.084   8.172 -0.8272 -0.5133  0.1621
  598MOL0     C80600   6.473   2.021   8.199  0.6831  1.1627  0.2694
  598MOL0     C80601   6.479   1.874   8.217  0.7114  0.1841  0.3476
  598MOL0     C80602   6.372   1.793   8.204  0.4770  0.1326  0.6489
  598MOL0     O80603   6.356   1.654   8.207  0.6429 -0.2640 -0.7498
  598MOL0     C80604   6.459   1.590   8.277  0.1210 -0.0337  0.4135
  598MOL0     C80605   6.388   1.481   8.373 -0.5018  0.7705  0.5564
  598MOL0     C80606   6.305   1.543   8.486  0.4128  0.4673  0.0894
  598MOL0     C80607   6.363   1.659   8.565 -0.2252  0.8205 -0.0203
  598MOL0     C80608   6.269   1.746   8.657 -0.3279  0.3564 -1.3673
  598MOL0     C80609   6.342   1.856   8.733 -0.1501 -0.0815 -1.1706
  598MOL0     C80610   6.376   1.970   8.638  0.4395 -0.1805 -0.5427
  598MOL0     C80611   6.460   2.087   8.699  0.2356  0.1026 -0.5076
  598MOL0     N80612   6.370   2.183   8.770  0.0809 -0.3053 -0.1339
  598MOL0     C80613   6.303   2.284   8.700 -0.0831  0.0267 -0.4954
  598MOL0     C80614   6.227   2.341   8.797  0.8741  0.2404 -0.8209
  598MOL0     C80615   6.120   2.447   8.789  0.4116 -0.4802  1.5047
  598MOL0     C80616   5.979   2.401   8.842 -0.3560 -0.6003 -0.3931
  598MOL0     C80617   5.872   2.515   8.850  0.6479  0.2087  0.2075
  598MOL0     C80618   5.882   2.648   8.781 -0.8804 -0.0642  0.4764
  598MOL0     O80619   5.918   2.633   8.640  0.4266  0.1751  0.2508
  598MOL0     C80620   5.901   2.745   8.568 -0.6810 -0.1706 -0.0281
  598MOL0     C80621   5.937   2.727   8.431 -1.2056  0.1622  0.2233
  598MOL0     C80622   5.927   2.832   8.340  1.0808 -0.2810  0.0407
  598MOL0     C80623   5.870   2.956   8.384  0.4301  0.1158  1.3643
  598MOL0     C80624   5.864   3.075   8.294 -0.8393  0.5372  0.2863
  598MOL0     O80625   5.942   3.070   8.180 -1.3274 -0.1863  0.6773
  598MOL0     C80626   5.892   3.152   8.078 -0.7288  0.2140  0.6123
  598MOL0     C80627   5.941   3.288   8.076  0.3235 -0.7966  0.3098
  598MOL0     C80628   5.879   3.379   7.984 -0.0775 -0.1696 -0.1162
  598MOL0     C80629   5.764   3.329   7.915 -1.1381 -0.0734  0.6599
  598MOL0     O80630   5.696   3.428   7.835 -1.2445  0.2017 -0.8849
  598MOL0     C80631   5.570   3.381   7.766 -1.3233  0.0396  0.0167
  598MOL0     C80632   5.453   3.387   7.866  0.1767 -0.4804  0.2636
  598MOL0     C80633   5.430   3.529   7.905 -0.2090 -1.2772  0.1106
  598MOL0     C80634   5.491   3.565   8.045 -0.2962 -0.6843  0.1916
  598MOL0     C80635   5.501   3.719   8.064 -0.0482  0.2806  0.0675
  598MOL0     C80636   5.358   3.788   8.066  0.8975  0.6038  0.3602
  598MOL0     C80637   5.257   3.735   8.174  0.3239 -0.8125  0.0517
  598MOL0     C80638   5.323   3.700   8.314 -0.4230  0.0285 -0.2559
  598MOL0    Cl80639   5.181   3.651   8.424 -0.2037  0.0539  0.1820
  598MOL0     C80640   5.723   3.199   7.924 -0.6771 -0.4944 -0.3709
  598MOL0     C80641   5.792   3.104   7.996 -0.4700  0.5518  0.0070
  598MOL0     O80642   5.801   3.173   8.338 -0.3953 -0.0987 -0.1324
  598MOL0     C80643   5.822   2.972   8.514 -0.5257  0.2699 -0.1585
  598MOL0     C80644   5.854   2.871   8.607  0.2896 -0.3210 -0.5040
  598MOL0     N80645   6.261   2.288   8.920  0.1020 -0.7216  0.2257
  598MOL0     N80646   6.334   2.185   8.902  0.7025 -0.2876 -0.3284
  598MOL0     C80647   6.257   1.857   8.174  0.3161  0.7888 -0.6865
  598MOL0     C80648   6.244   2.000   8.163  0.1029 -0.3559  0.0329
  598MOL0     C80649   6.321   2.462   8.219 -0.0331  0.1780 -0.3907
  598MOL0     C80650   6.278   2.485   8.093  0.4302  0.1525  1.1278
  598MOL0     C80651   6.248   2.612   8.044 -0.9282  0.0361  0.6819
  598MOL0     C80652   6.264   2.722   8.137  0.9058 -0.4199 -0.2633
  598MOL0     O80653   6.238   2.842   8.083  0.3374 -1.2074 -0.7462
  598MOL0     C80654   6.317   2.951   8.129  0.1701  0.7001  0.0462
  598MOL0     C80655   6.308   3.066   8.022  0.5106 -0.3809  0.4230
  598MOL0     C80656   6.320   3.014   7.876 -0.4881  0.2856  0.8991
  598MOL0     C80657   6.349   3.116   7.777  0.7169 -0.2895 -0.0692
  598MOL0     C80658   6.486   3.163   7.774 -0.0320 -0.2414 -0.8634
  598MOL0     C80659   6.600   3.205   7.796 -0.1233  0.5775  0.1022
  598MOL0     C80660   6.307   2.691   8.266 -0.1695 -0.1151  0.7941
  598MOL0     C80661   6.336   2.563   8.316  0.0169  0.6006  0.3340
  598MOL0     C80662   6.366   2.542   8.456 -0.5224  0.5185 -0.8667
  598MOL0     H80663   6.561   2.084   8.207 -0.2779  2.9003 -1.8155
  598MOL0     H80664   6.577   1.831   8.233  1.2085 -0.0162 -2.7146
  598MOL0     H80665   6.525   1.535   8.209  1.0800  1.4329  0.1006
  598MOL0     H80666   6.536   1.651   8.325  4.0962 -2.5011 -2.2315
  598MOL0     H80667   6.461   1.435   8.440  2.8738  2.3997 -1.7462
  598MOL0     H80668   6.341   1.407   8.306 -1.3980  0.2955  1.6810
  598MOL0     H80669   6.292   1.460   8.557 -0.5306 -1.6097 -2.3689
  598MOL0     H80670   6.205   1.568   8.449 -0.2468  1.1258  2.1566
  598MOL0     H80671   6.446   1.620   8.624  0.0798 -0.8385 -1.4606
  598MOL0     H80672   6.404   1.723   8.486 -0.6919 -0.7861 -1.6451
  598MOL0     H80673   6.188   1.793   8.601 -0.4019  2.1377  0.1362
  598MOL0     H80674   6.220   1.687   8.736  0.2458  2.2563  0.5083
  598MOL0     H80675   6.283   1.894   8.816 -0.5850 -0.5921 -1.2382
  598MOL0     H80676   6.432   1.813   8.779 -0.7752  1.3232  1.5955
  598MOL0     H80677   6.286   1.997   8.582 -0.0017  0.7564  0.5844
  598MOL0     H80678   6.442   1.941   8.555  1.1166 -0.8744  0.2209
  598MOL0     H80679   6.528   2.045   8.774 -1.6739 -3.7231 -0.6411
  598MOL0     H80680   6.516   2.126   8.613  0.3782 -4.8526 -3.0353
  598MOL0     H80681   6.309   2.300   8.593  3.0496 -0.5549 -0.5001
  598MOL0     H80682   6.154   2.528   8.854  0.9548  2.7903 -2.4176
  598MOL0     H80683   6.112   2.482   8.686  0.5592 -0.6843  1.4226
  598MOL0     H80684   5.947   2.326   8.769 -1.1264  0.5540 -1.2795
  598MOL0     H80685   5.987   2.338   8.932  1.0754  0.9958  0.6546
  598MOL0     H80686   5.881   2.536   8.958  1.8365 -3.9886  1.1072
  598MOL0     H80687   5.772   2.474   8.832  0.4880 -0.7059  2.6884
  598MOL0     H80688   5.958   2.701   8.840 -1.6855  1.8020 -0.1144
  598MOL0     H80689   5.794   2.711   8.792  0.3589  2.3871 -2.2601
  598MOL0     H80690   5.973   2.630   8.400 -2.6161 -0.6306  0.9371
  598MOL0     H80691   5.960   2.818   8.237 -0.5824  0.5672 -0.6352
  598MOL0     H80692   6.007   3.310   8.158 -1.8110 -2.0662  2.5214
  598MOL0     H80693   5.913   3.482   7.974 -0.0379 -0.1637  0.0870
  598MOL0     H80694   5.561   3.449   7.681  1.5195  0.5014 -0.0095
  598MOL0     H80695   5.575   3.280   7.723  1.5038 -1.0296  2.5095
  598MOL0     H80696   5.357   3.355   7.825 -0.0898 -2.0618  1.9738
  598MOL0     H80697   5.478   3.323   7.951 -0.9933  0.2196  1.1750
  598MOL0     H80698   5.474   3.589   7.824 -3.1890 -2.7523 -2.8201
  598MOL0     H80699   5.328   3.565   7.915  0.4077 -0.0202  2.6362
  598MOL0     H80700   5.584   3.509   8.047 -0.7556 -1.4698  0.0739
  598MOL0     H80701   5.443   3.521   8.133 -0.5233  1.1667  1.0364
  598MOL0     H80702   5.549   3.755   7.973  1.1471 -0.4255  0.3998
  598MOL0     H80703   5.568   3.754   8.143 -0.0308 -0.0426  0.1975
  598MOL0     H80704   5.384   3.890   8.098  1.7663  0.1822  1.0200
  598MOL0     H80705   5.305   3.792   7.971 -1.9729  0.9734  1.8775
  598MOL0     H80706   5.210   3.643   8.139  0.9126 -0.7706 -0.8977
  598MOL0     H80707   5.180   3.812   8.186 -1.3060 -2.1793 -1.0875
  598MOL0     H80708   5.390   3.615   8.296  3.0967  2.5234  0.0377
  598MOL0     H80709   5.386   3.776   8.362 -1.5741 -0.8228  2.7837
  598MOL0     H80710   5.624   3.175   7.887 -1.0319 -0.6625  0.6745
  598MOL0     H80711   5.762   2.999   7.993  3.4878 -0.8230  1.3551
  598MOL0     H80712   5.778   3.060   8.560  3.8117  1.3812  2.4089
  598MOL0     H80713   5.821   2.880   8.710  0.6567 -0.9438 -0.3290
  598MOL0     H80714   6.171   1.792   8.162 -1.4908  3.0224 -0.3464
  598MOL0     H80715   6.152   2.048   8.131  1.0310  0.9496 -0.7928
  598MOL0     H80716   6.256   2.409   8.019  0.7449  0.0938  1.0919
  598MOL0     H80717   6.221   2.637   7.942 -0.3324  1.2768  0.8066
  598MOL0     H80718   6.422   2.925   8.142 -0.0214  0.5232  1.4294
  598MOL0     H80719   6.277   2.991   8.223 -1.3901 -0.6057 -0.0196
  598MOL0     H80720   6.384   3.139   8.051 -0.0638  0.4821 -0.2285
  598MOL0     H80721   6.207   3.107   8.030  1.6490  2.6942  0.2373
  598MOL0     H80722   6.228   2.959   7.853  0.0681 -1.5355  2.6888
  598MOL0     H80723   6.403   2.943   7.875 -1.2842 -0.6900 -0.7883
  598MOL0     H80724   6.334   3.078   7.676 -3.5580 -3.2213  1.3826
  598MOL0     H80725   6.280   3.199   7.792  1.2441 -0.2232  2.4259
  598MOL0     H80726   6.702   3.223   7.825 -0.1743 -0.3070  0.8842
  598MOL0     H80727   6.318   2.777   8.332 -0.9415  0.5162  0.1213
  598MOL0     H80728   6.271   2.501   8.491 -0.4432  0.3895 -0.8057
  598MOL0     H80729   6.457   2.482   8.462 -1.6589 -1.5041 -2.6101
  598MOL0     H80730   6.370   2.633   8.517 -2.5340  1.0333 -1.4133
  599MOL0     O80731  10.489   6.778   7.537  0.4499 -0.4011 -0.4122
  599MOL0     C80732  10.580   6.739   7.464  1.4897 -0.0947 -0.0126
  599MOL0     O80733  10.663   6.820   7.389 -0.1690  0.1675  0.4290
  599MOL0     C80734  10.637   6.954   7.398 -0.0893 -0.4662  0.6999
  599MOL0     C80735  10.506   7.007   7.382  0.3071 -1.2423 -0.8467
  599MOL0     C80736  10.478   7.145   7.409 -0.5495 -1.1650 -0.5693
  599MOL0     C80737  10.573   7.227   7.459 -0.6839 -0.0301 -0.9756
  599MOL0     O80738  10.532   7.357   7.482  0.4230  0.6372  0.8296
  599MOL0     C80739  10.610   7.437   7.575  0.3588  0.1960  0.6966
  599MOL0     C80740  10.594   7.586   7.552  1.0022  0.2360  0.7599
  599MOL0     C80741  10.452   7.633   7.601 -0.4233 -0.0382  0.7852
  599MOL0     C80742  10.378   7.736   7.516 -0.7166  1.4371  0.1091
  599MOL0     C80743  10.246   7.767   7.587  0.2723 -0.7228  0.3384
  599MOL0     C80744  10.242   7.837   7.723 -0.2015 -0.0015  0.5155
  599MOL0     C80745  10.241   7.990   7.705  0.3961 -0.0603 -0.2088
  599MOL0     C80746  10.265   8.056   7.844  0.5841  0.2191 -0.1891
  599MOL0     N80747  10.234   8.199   7.855 -0.1258  0.3033 -0.1993
  599MOL0     C80748  10.264   8.292   7.761  0.5376  0.6931  0.2510
  599MOL0     C80749  10.185   8.399   7.789 -0.4756  0.0098 -0.0459
  599MOL0     C80750  10.195   8.526   7.706 -0.8153  0.3269  0.0049
  599MOL0     C80751  10.333   8.587   7.738 -0.3796  0.3683  1.3633
  599MOL0     C80752  10.373   8.691   7.619  0.0879  1.0198 -0.1758
  599MOL0     C80753  10.524   8.728   7.640  0.3448 -1.4508 -0.6309
  599MOL0     O80754  10.529   8.790   7.761 -0.0036 -0.2687 -0.0380
  599MOL0     C80755  10.642   8.868   7.793  0.1948  0.3594  0.0361
  599MOL0     C80756  10.664   8.879   7.939 -0.4744  0.5209 -0.3763
  599MOL0     C80757  10.775   8.947   7.980 -0.2426  0.8997  0.3439
  599MOL0     C80758  10.858   9.007   7.876  0.2498 -0.6973 -0.7128
  599MOL0     C80759  10.974   9.090   7.929 -0.2617  0.1603 -0.5656
  599MOL0     O80760  10.998   9.217   7.875  0.7980 -0.0681 -0.5663
  599MOL0     C80761  11.081   9.299   7.950  1.2372 -0.2354  0.3266
  599MOL0     C80762  11.027   9.420   7.974  1.0422  0.1989 -0.2397
  599MOL0     C80763  11.099   9.527   8.025  0.2170 -0.4008 -1.3426
  599MOL0     C80764  11.230   9.510   8.069 -0.8671  0.3349 -1.0865
  599MOL0     O80765  11.305   9.600   8.145 -1.0224 -1.3541  0.3804
  599MOL0     C80766  11.241   9.725   8.167  0.9726 -0.0474  0.4543
  599MOL0     C80767  11.318   9.806   8.277  0.2697  0.8546 -0.6089
  599MOL0     C80768  11.302   9.734   8.413 -0.1309 -1.2325 -0.3029
  599MOL0     C80769  11.197   9.804   8.501  0.4873 -0.2028  0.0711
  599MOL0     C80770  11.144   9.740   8.631 -0.5494  0.7914 -0.1388
  599MOL0     C80771  11.117   9.593   8.614  0.7977  0.2488  0.3402
  599MOL0     C80772  11.021   9.523   8.707  0.3761 -0.2904 -0.6262
  599MOL0     C80773  11.022   9.376   8.712 -0.1773  0.2268 -0.2169
  599MOL0    Cl80774  11.184   9.307   8.775  0.4543 -0.0944  0.0288
  599MOL0     C80775  11.283   9.382   8.060 -0.1732  0.0535 -0.1896
  599MOL0     C80776  11.217   9.283   7.996  0.8365  0.6434 -0.7520
  599MOL0     O80777  11.027   9.052   8.032 -0.1831 -0.5984 -0.9147
  599MOL0     C80778  10.830   9.002   7.740 -0.0950 -0.5641  0.8333
  599MOL0     C80779  10.726   8.928   7.701 -0.1899  0.2310  1.3228
  599MOL0     N80780  10.111   8.363   7.904  0.0100 -0.0085 -0.2957
  599MOL0     N80781  10.140   8.245   7.943 -0.4013  0.1363 -0.4862
  599MOL0     C80782  10.705   7.180   7.465 -0.2734  0.3038  0.1949
  599MOL0     C80783  10.744   7.042   7.441 -0.2147 -0.3818 -0.2742
  599MOL0     C80784  10.622   6.592   7.463  0.1981  0.3765 -0.0250
  599MOL0     C80785  10.755   6.560   7.423  0.4602  0.0267 -0.0661
  599MOL0     C80786  10.795   6.433   7.398  0.2040 -0.2218  0.4287
  599MOL0     C80787  10.705   6.324   7.397 -0.0032  0.3938 -0.6506
  599MOL0     O80788  10.727   6.190   7.369 -0.2001  0.2650 -0.1623
  599MOL0     C80789  10.855   6.140   7.338 -0.0963 -0.9163  0.0049
  599MOL0     C80790  10.885   6.005   7.396 -0.1309  0.4706 -0.2843
  599MOL0     C80791  10.785   5.898   7.339  0.3097  0.0768 -0.1056
  599MOL0     C80792  10.811   5.756   7.396 -0.5317 -0.6231 -0.6169
  599MOL0     C80793  10.918   5.682   7.332  0.3182  0.0953  0.4273
  599MOL0     C80794  11.020   5.617   7.293 -0.5086 -0.6027 -0.5901
  599MOL0     C80795  10.574   6.356   7.433 -0.0201  0.3071 -0.2588
  599MOL0     C80796  10.524   6.487   7.458 -0.2149  0.3668  0.0817
  599MOL0     C80797  10.371   6.500   7.457  0.6106 -0.0179 -1.4098
  599MOL0     H80798  10.429   6.943   7.339  2.1379 -5.6331  1.7792
  599MOL0     H80799  10.375   7.182   7.413 -1.0820 -2.6958  1.2590
  599MOL0     H80800  10.585   7.415   7.679 -1.6907 -1.1290 -0.0076
  599MOL0     H80801  10.715   7.410   7.571 -0.4753 -4.3023  3.0953
  599MOL0     H80802  10.622   7.615   7.450  1.2709  0.0915  0.7929
  599MOL0     H80803  10.662   7.640   7.618  0.4357  0.0189  1.5385
  599MOL0     H80804  10.447   7.657   7.708  1.5874  0.1385  0.8635
  599MOL0     H80805  10.383   7.549   7.616 -2.5335  1.9614  3.2830
  599MOL0     H80806  10.445   7.823   7.511 -0.4370  1.4076  2.3074
  599MOL0     H80807  10.364   7.699   7.414 -4.2579 -1.3565  1.4201
  599MOL0     H80808  10.177   7.819   7.520 -2.0379 -0.2870  2.8536
  599MOL0     H80809  10.185   7.677   7.598  1.7786 -1.9921 -1.1928
  599MOL0     H80810  10.149   7.803   7.771 -0.8241 -0.1090 -0.7389
  599MOL0     H80811  10.325   7.806   7.788 -1.2535 -2.2542  0.8922
  599MOL0     H80812  10.146   8.032   7.670  0.6104  0.8332  0.2436
  599MOL0     H80813  10.318   8.021   7.634  2.5937 -2.3360  0.9903
  599MOL0     H80814  10.197   8.003   7.912  0.4968  1.6796  0.9047
  599MOL0     H80815  10.368   8.038   7.877 -0.0065  0.8961  2.2787
  599MOL0     H80816  10.324   8.291   7.671 -0.5847 -0.7197 -0.5191
  599MOL0     H80817  10.191   8.516   7.597  0.2413  2.5107 -0.2854
  599MOL0     H80818  10.112   8.587   7.741 -1.2172 -0.0606 -0.2602
  599MOL0     H80819  10.322   8.647   7.829 -2.1383  5.0549 -1.5457
  599MOL0     H80820  10.413   8.512   7.735 -0.5705  0.1415 -2.1326
  599MOL0     H80821  10.318   8.786   7.622  1.0420  1.5764  2.7846
  599MOL0     H80822  10.354   8.637   7.526 -1.5955 -1.0491  1.2855
  599MOL0     H80823  10.557   8.803   7.567 -1.6401  0.9013  0.7416
  599MOL0     H80824  10.591   8.642   7.636  3.3195  0.7148 -4.0215
  599MOL0     H80825  10.594   8.834   8.009  0.3358  0.6823  0.5584
  599MOL0     H80826  10.801   8.958   8.085  1.7325  0.7296 -0.1006
  599MOL0     H80827  10.932   9.450   7.931  1.7140  0.9050 -1.2782
  599MOL0     H80828  11.049   9.624   8.034 -1.3278 -1.2850  0.6462
  599MOL0     H80829  11.241   9.780   8.072 -4.8974 -0.7398 -0.3261
  599MOL0     H80830  11.138   9.708   8.197  1.6420  1.4013  4.0248
  599MOL0     H80831  11.424   9.822   8.257  0.9127 -0.4639  1.4134
  599MOL0     H80832  11.264   9.901   8.277  0.0657  0.7432 -1.2767
  599MOL0     H80833  11.272   9.630   8.393 -2.0830 -0.6876 -0.3984
  599MOL0     H80834  11.393   9.749   8.472  0.0796  4.3708 -1.5054
  599MOL0     H80835  11.108   9.812   8.438 -0.9389  0.3507  2.0566
  599MOL0     H80836  11.245   9.899   8.523  4.4889 -2.0690  0.2585
  599MOL0     H80837  11.060   9.801   8.666 -1.0181 -0.8449  1.7588
  599MOL0     H80838  11.213   9.757   8.714 -2.1105  4.2256  0.6319
  599MOL0     H80839  11.079   9.577   8.512  0.1072  1.6092  0.3637
  599MOL0     H80840  11.214   9.542   8.620  0.8648  0.0917 -1.3802
  599MOL0     H80841  10.923   9.557   8.674  0.8546  0.9890 -0.7814
  599MOL0     H80842  11.041   9.547   8.812  1.6378  1.4204 -1.2085
  599MOL0     H80843  10.939   9.338   8.771 -0.3772  0.3552 -0.4160
  599MOL0     H80844  10.998   9.338   8.613 -3.8975  1.4524  0.0629
  599MOL0     H80845  11.376   9.351   8.107  1.3991  1.9432 -1.8522
  599MOL0     H80846  11.259   9.184   7.977 -0.9831 -0.5658  1.0670
  599MOL0     H80847  10.889   9.060   7.671 -0.7545 -0.9268 -0.0480
  599MOL0     H80848  10.705   8.918   7.595  2.5338 -0.1303  0.7374
  599MOL0     H80849  10.784   7.246   7.501 -2.4203  0.8468  4.5614
  599MOL0     H80850  10.846   7.005   7.446  0.3686  0.9780 -1.5601
  599MOL0     H80851  10.820   6.647   7.432 -0.4675  1.0961 -2.6507
  599MOL0     H80852  10.898   6.420   7.366 -0.1122 -1.1258 -0.2689
  599MOL0     H80853  10.927   6.203   7.391 -1.1393  1.7558 -1.5387
  599MOL0     H80854  10.875   6.149   7.231 -0.2084 -2.1006 -0.1337
  599MOL0     H80855  10.878   6.021   7.504 -2.7555  2.3420 -0.6150
  599MOL0     H80856  10.980   5.962   7.363 -1.5016  0.0527 -4.2412
  599MOL0     H80857  10.798   5.882   7.232 -0.5292 -0.5397 -0.1275
  599MOL0     H80858  10.686   5.940   7.362  0.5827  1.5108 -1.3555
  599MOL0     H80859  10.827   5.755   7.504 -1.7184  2.6389 -0.2949
  599MOL0     H80860  10.716   5.703   7.391 -2.3847  1.8887  3.3115
  599MOL0     H80861  11.109   5.581   7.246 -0.4761  2.1719 -2.8847
  599MOL0     H80862  10.500   6.277   7.434 -1.8640  1.9611  1.7309
  599MOL0     H80863  10.343   6.595   7.505  3.0832 -0.2139  0.6565
  599MOL0     H80864  10.317   6.490   7.363 -0.6438 -1.6188 -0.5622
  599MOL0     H80865  10.330   6.427   7.528 -1.3674  2.0953 -0.2512
  600MOL0     O80866   3.027   9.891   7.702 -0.3212 -0.6922 -0.3488
  600MOL0     C80867   2.969   9.960   7.615 -0.0598  0.2033  0.0580
  600MOL0     O80868   2.950   9.930   7.484  0.5744  0.2155  0.2853
  600MOL0     C80869   2.990   9.807   7.450 -0.1205 -0.1857 -0.2891
  600MOL0     C80870   2.898   9.722   7.400 -0.1696 -0.3689 -0.2254
  600MOL0     C80871   2.919   9.583   7.375 -0.3465 -0.0256  1.0150
  600MOL0     C80872   3.049   9.526   7.406  0.2596  1.2087  0.3116
  600MOL0     O80873   3.068   9.395   7.384  0.2487  0.3056 -0.3554
  600MOL0     C80874   3.192   9.337   7.417 -0.6460 -0.2436 -0.2455
  600MOL0     C80875   3.192   9.186   7.394 -0.0755  0.1567 -0.0445
  600MOL0     C80876   3.117   9.108   7.500  1.0145  1.0376 -0.8988
  600MOL0     C80877   3.131   8.962   7.481  0.9863  0.5807 -0.3546
  600MOL0     C80878   3.114   8.877   7.614 -0.8100 -0.8268  0.6401
  600MOL0     C80879   3.162   8.735   7.583 -0.3250 -0.5856 -0.2297
  600MOL0     C80880   3.139   8.652   7.715 -0.9206  0.2498  0.7661
  600MOL0     C80881   3.164   8.495   7.708  0.3385 -0.4259 -0.5387
  600MOL0     N80882   3.308   8.464   7.702  0.5384  0.4195  1.1736
  600MOL0     C80883   3.391   8.475   7.808  0.4782 -0.5298 -0.4019
  600MOL0     C80884   3.514   8.472   7.756 -0.0865  0.4022  0.2742
  600MOL0     C80885   3.641   8.474   7.840 -0.8703 -0.4970 -0.6665
  600MOL0     C80886   3.689   8.619   7.874 -0.5204 -0.3110  0.3692
  600MOL0     C80887   3.602   8.691   7.984  0.8728 -0.5083 -0.9224
  600MOL0     C80888   3.651   8.835   8.018  0.0028  0.3093  0.0235
  600MOL0     O80889   3.695   8.901   7.901 -0.4815  0.6153  0.3359
  600MOL0     C80890   3.623   9.015   7.882 -0.1899  0.0491  0.4474
  600MOL0     C80891   3.490   9.016   7.852 -0.1105 -0.1551 -0.1270
  600MOL0     C80892   3.425   9.133   7.822  0.1865  0.2535  0.1008
  600MOL0     C80893   3.482   9.259   7.848 -0.4969  0.4018 -0.5394
  600MOL0     C80894   3.410   9.387   7.827  0.0860  0.0845 -0.1483
  600MOL0     O80895   3.486   9.504   7.847 -0.3897 -0.2955  0.6854
  600MOL0     C80896   3.430   9.617   7.890  0.1060  0.9978  0.5037
  600MOL0     C80897   3.318   9.684   7.834 -0.3913  0.5529 -0.1170
  600MOL0     C80898   3.251   9.789   7.905  0.7090  0.4734  0.8791
  600MOL0     C80899   3.305   9.832   8.023 -0.1672 -0.8173  0.9671
  600MOL0     O80900   3.247   9.927   8.103  0.3930  0.1820  0.3040
  600MOL0     C80901   3.249   9.896   8.241  1.2420 -0.1507 -0.8189
  600MOL0     C80902   3.126   9.966   8.299 -0.8329  0.5262  1.0524
  600MOL0     C80903   3.143  10.117   8.296 -0.6888 -1.6348  0.3661
  600MOL0     C80904   3.066  10.187   8.416 -0.3632  1.5917 -0.1489
  600MOL0     C80905   2.913  10.175   8.433  0.0708 -0.0626  0.3667
  600MOL0     C80906   2.847  10.200   8.298  0.8932 -0.0740  0.1865
  600MOL0     C80907   2.694  10.219   8.315 -0.1644 -0.9905  0.4280
  600MOL0     C80908   2.608  10.284   8.206 -0.3576  0.9758 -0.1183
  600MOL0    Cl80909   2.642  10.163   8.071  0.6153  0.1114 -0.4446
  600MOL0     C80910   3.420   9.771   8.069  0.1215 -0.0859 -0.3499
  600MOL0     C80911   3.488   9.669   8.005  0.2110 -0.0210  0.0605
  600MOL0     O80912   3.286   9.385   7.804  0.0244 -0.4575 -0.5764
  600MOL0     C80913   3.613   9.258   7.898 -0.5212 -0.4539  0.5244
  600MOL0     C80914   3.679   9.139   7.920 -0.0859 -0.5150 -0.5315
  600MOL0     N80915   3.497   8.439   7.623 -0.4387 -0.1338 -0.3739
  600MOL0     N80916   3.375   8.435   7.588 -0.0211 -0.1105 -0.5286
  600MOL0     C80917   3.150   9.616   7.455 -0.2481 -0.0977  1.2881
  600MOL0     C80918   3.118   9.750   7.476 -0.2108  1.0391  1.4222
  600MOL0     C80919   2.930  10.102   7.662  0.2152  0.1697  0.2304
  600MOL0     C80920   2.849  10.180   7.578 -0.1117  0.5446 -0.2502
  600MOL0     C80921   2.813  10.315   7.603  0.1021  0.6791 -1.0124
  600MOL0     C80922   2.848  10.371   7.729 -0.2177  0.0383  0.0876
  600MOL0     O80923   2.809  10.505   7.748 -0.7861 -0.9680  0.1983
  600MOL0     C80924   2.916  10.595   7.797 -0.0937 -0.2954  0.0581
  600MOL0     C80925   2.858  10.686   7.912  0.1521  0.9770  0.7426
  600MOL0     C80926   2.874  10.615   8.052  0.7878  0.4488  0.4086
  600MOL0     C80927   2.800  10.710   8.151  0.2332 -0.2899  0.1759
  600MOL0     C80928   2.657  10.710   8.106  0.3665  0.5383 -0.2438
  600MOL0     C80929   2.560  10.684   8.050  0.2893  0.7265 -0.4653
  600MOL0     C80930   2.930  10.296   7.811 -0.7711  0.2240 -0.1770
  600MOL0     C80931   2.978  10.168   7.782 -0.8491 -0.7058  0.6465
  600MOL0     C80932   3.064  10.104   7.885  0.2354  0.2367  0.3565
  600MOL0     H80933   2.795   9.757   7.404  0.3120  1.6452  6.1908
  600MOL0     H80934   2.836   9.522   7.340 -0.3456  0.6826 -0.3057
  600MOL0     H80935   3.275   9.393   7.372  0.1462 -0.3911  0.9935
  600MOL0     H80936   3.226   9.348   7.521 -1.1863 -0.4969 -0.0354
  600MOL0     H80937   3.299   9.163   7.390  1.1000  4.5804  1.1723
  600MOL0     H80938   3.153   9.163   7.294 -2.2464 -1.0047  0.9799
  600MOL0     H80939   3.013   9.137   7.520  1.8035  2.8126  1.0868
  600MOL0     H80940   3.161   9.125   7.599  0.5876 -1.3640 -0.2287
  600MOL0     H80941   3.063   8.914   7.409  1.4749  2.0899 -1.8980
  600MOL0     H80942   3.229   8.934   7.441 -0.7429 -2.3953 -3.0417
  600MOL0     H80943   3.184   8.923   7.684 -1.5219  1.5313 -0.0791
  600MOL0     H80944   3.010   8.873   7.649 -0.9923 -0.6312  0.1316
  600MOL0     H80945   3.095   8.701   7.504 -2.0716  1.7207  0.1258
  600MOL0     H80946   3.265   8.730   7.546 -0.1009  2.8305 -0.4261
  600MOL0     H80947   3.035   8.666   7.745 -1.0678 -1.1205  0.9389
  600MOL0     H80948   3.204   8.690   7.795  4.0587 -2.7943 -1.3752
  600MOL0     H80949   3.131   8.449   7.801 -0.2489  1.8787  0.4670
  600MOL0     H80950   3.114   8.450   7.621 -1.4715  1.2532 -0.4345
  600MOL0     H80951   3.371   8.497   7.912  1.1557  0.5291 -0.4759
  600MOL0     H80952   3.641   8.422   7.937  2.5081  2.0612  0.9315
  600MOL0     H80953   3.723   8.427   7.784  1.2147  3.1768 -0.9869
  600MOL0     H80954   3.795   8.624   7.901  1.5253  2.2688 -6.1258
  600MOL0     H80955   3.692   8.681   7.784  0.9462  1.4917  1.5602
  600MOL0     H80956   3.619   8.629   8.072  0.9305  1.6197  0.6502
  600MOL0     H80957   3.499   8.695   7.947  0.8339  0.0328 -0.7678
  600MOL0     H80958   3.723   8.812   8.097  0.5660  1.0554 -0.2731
  600MOL0     H80959   3.571   8.877   8.080  0.8852 -1.4433  2.5023
  600MOL0     H80960   3.443   8.918   7.851  5.1426 -3.0707  0.8541
  600MOL0     H80961   3.322   9.129   7.787 -0.6873  1.3028  2.3467
  600MOL0     H80962   3.270   9.644   7.746  1.6570  0.1876 -1.1269
  600MOL0     H80963   3.163   9.842   7.869 -0.8305  0.6666  4.5132
  600MOL0     H80964   3.228   9.790   8.255  2.8210 -0.8577 -3.2308
  600MOL0     H80965   3.342   9.920   8.294  1.7335  2.0977 -2.5343
  600MOL0     H80966   3.047   9.946   8.226 -0.5398  2.0516  0.2622
  600MOL0     H80967   3.103   9.924   8.397  1.1081 -0.8269  0.9776
  600MOL0     H80968   3.248  10.146   8.300 -0.4200 -2.6096  0.6792
  600MOL0     H80969   3.104  10.170   8.208  0.1035  3.1869  2.5755
  600MOL0     H80970   3.093  10.292   8.411 -1.1337  1.7589 -1.2835
  600MOL0     H80971   3.122  10.138   8.496  2.4450 -0.6313 -3.1833
  600MOL0     H80972   2.871  10.242   8.508  0.4041 -0.1912  0.6694
  600MOL0     H80973   2.893  10.072   8.465  3.2578 -0.0231  3.0645
  600MOL0     H80974   2.888  10.278   8.233 -0.1497 -0.6103 -1.1590
  600MOL0     H80975   2.866  10.110   8.241  0.1866 -0.4518  0.5362
  600MOL0     H80976   2.668  10.284   8.400 -1.4495  1.4745 -1.7135
  600MOL0     H80977   2.651  10.126   8.354 -1.6403 -0.4101  0.2675
  600MOL0     H80978   2.500  10.292   8.219 -0.4683  1.5089 -1.2205
  600MOL0     H80979   2.633  10.386   8.174 -0.5742  0.6305 -1.4746
  600MOL0     H80980   3.469   9.796   8.163  2.2876 -2.4998 -0.7283
  600MOL0     H80981   3.584   9.635   8.041  0.6274  0.5956 -0.4372
  600MOL0     H80982   3.652   9.356   7.920 -0.1600 -0.6045  0.5572
  600MOL0     H80983   3.773   9.158   7.970 -0.2394  1.6409 -0.9677
  600MOL0     H80984   3.252   9.588   7.478  2.0588  2.6541 -3.9689
  600MOL0     H80985   3.201   9.808   7.516  0.7127  0.3883  0.4882
  600MOL0     H80986   2.806  10.140   7.487 -0.2262  1.7314 -0.7415
  600MOL0     H80987   2.737  10.371   7.549  0.9321  3.4964  0.5622
  600MOL0     H80988   2.942  10.660   7.713 -1.7675 -0.5587 -0.6952
  600MOL0     H80989   3.010  10.546   7.824 -1.6588 -3.4061  0.3679
  600MOL0     H80990   2.755  10.699   7.879 -0.5782 -2.2231  1.3849
  600MOL0     H80991   2.905  10.784   7.921  0.3870  0.8775  0.6102
  600MOL0     H80992   2.977  10.595   8.083 -0.0452 -3.0672  1.4459
  600MOL0     H80993   2.810  10.526   8.053 -3.9783  3.5132  1.1635
  600MOL0     H80994   2.798  10.684   8.257  1.4811 -2.6607 -0.3040
  600MOL0     H80995   2.835  10.814   8.146 -1.4203  0.2808 -3.9380
  600MOL0     H80996   2.476  10.657   7.989  0.4265  1.2785 -0.9057
  600MOL0     H80997   2.965  10.349   7.900 -1.0436  1.4747 -0.7873
  600MOL0     H80998   3.017  10.018   7.933 -0.9960 -0.7545 -2.4130
  600MOL0     H80999   3.164  10.081   7.846  1.0597  3.0340  0.5800
  600MOL0     H81000   3.075  10.175   7.967  1.9735 -0.9372  1.1795
  601MOL0     O81001   0.934   4.378   6.912  0.5993 -0.6066  0.2420
  601MOL0     C81002   1.053   4.400   6.889 -0.5948 -0.0823 -0.6677
  601MOL0     O81003   1.132   4.478   6.963  0.7550 -0.0729 -0.2791
  601MOL0     C81004   1.082   4.580   7.043  0.7086 -0.0647  0.6736
  601MOL0     C81005   0.983   4.563   7.144 -0.7134  1.0951 -0.2791
  601MOL0     C81006   0.955   4.663   7.234  0.4408  0.2431  0.4284
  601MOL0     C81007   1.018   4.789   7.211  0.2729  1.2668  0.2032
  601MOL0     O81008   0.956   4.890   7.281 -0.1219 -0.6532  0.1065
  601MOL0     C81009   1.026   4.906   7.413 -0.1982 -0.6228  0.8866
  601MOL0     C81010   1.020   5.059   7.438 -0.5346 -0.0672  0.3396
  601MOL0     C81011   1.107   5.089   7.565  0.1472 -0.0751 -0.7606
  601MOL0     C81012   1.125   5.249   7.581  0.1419 -0.1031  0.1446
  601MOL0     C81013   1.244   5.279   7.665  0.4296  0.4503  0.4234
  601MOL0     C81014   1.269   5.434   7.660 -0.2160  0.5039  0.1763
  601MOL0     C81015   1.314   5.477   7.523 -0.1927 -0.4072  0.1662
  601MOL0     C81016   1.345   5.626   7.507 -1.5303  0.2543 -0.4864
  601MOL0     N81017   1.449   5.687   7.600  0.1775  0.6555  1.2325
  601MOL0     C81018   1.579   5.637   7.613  0.3016  0.1248 -0.2344
  601MOL0     C81019   1.633   5.729   7.698  0.1369  0.6810  0.6514
  601MOL0     C81020   1.778   5.733   7.746 -0.0739 -0.3758  0.2663
  601MOL0     C81021   1.878   5.712   7.630 -0.4354  0.3968  0.2440
  601MOL0     C81022   1.892   5.833   7.537  1.0333  0.2157  0.2559
  601MOL0     C81023   1.992   5.819   7.426 -0.8176 -1.0123  0.1629
  601MOL0     O81024   2.120   5.824   7.487  0.9279  0.9930 -0.1773
  601MOL0     C81025   2.184   5.710   7.470  0.1229  1.0737 -0.1192
  601MOL0     C81026   2.230   5.664   7.347  0.1709 -1.1295  0.5811
  601MOL0     C81027   2.309   5.552   7.337 -0.6756 -0.7195 -0.3228
  601MOL0     C81028   2.341   5.477   7.445  0.4715 -0.2943 -0.4953
  601MOL0     C81029   2.418   5.344   7.428  0.5756 -0.1717  0.0142
  601MOL0     O81030   2.401   5.252   7.524  0.2996  0.5940 -0.7109
  601MOL0     C81031   2.429   5.124   7.485  0.7902  0.0017 -0.6262
  601MOL0     C81032   2.558   5.064   7.496 -0.5441 -0.2641  0.4181
  601MOL0     C81033   2.583   4.930   7.443  0.1256 -0.0068  0.2624
  601MOL0     C81034   2.478   4.862   7.370  0.3148  0.1372 -0.0418
  601MOL0     O81035   2.489   4.742   7.305  0.0716 -0.6725 -0.7647
  601MOL0     C81036   2.591   4.661   7.329 -0.1187 -0.6122 -0.4837
  601MOL0     C81037   2.569   4.531   7.244 -0.4457  0.6292  0.4737
  601MOL0     C81038   2.653   4.420   7.295 -0.4256  0.1803 -1.1547
  601MOL0     C81039   2.627   4.282   7.227  0.1633  0.1084  0.3201
  601MOL0     C81040   2.684   4.287   7.079 -0.4441  0.2909  0.7509
  601MOL0     C81041   2.692   4.147   7.001  0.1759 -0.1725 -0.4983
  601MOL0     C81042   2.549   4.097   6.987  0.1212 -0.4530  0.7839
  601MOL0     C81043   2.532   3.963   6.920 -0.4241  0.1695 -0.4456
  601MOL0    Cl81044   2.647   3.848   6.981 -0.2434  0.7000 -0.1376
  601MOL0     C81045   2.353   4.922   7.364 -0.3547  0.7393 -0.7428
  601MOL0     C81046   2.327   5.051   7.428  0.0169  0.4912 -0.1940
  601MOL0     O81047   2.471   5.323   7.321 -1.1182 -0.3105 -0.0164
  601MOL0     C81048   2.300   5.529   7.574 -0.3156  0.3747 -0.4897
  601MOL0     C81049   2.227   5.648   7.584 -0.5668  0.7699  0.1591
  601MOL0     N81050   1.526   5.812   7.739 -0.7636  0.0804 -0.7138
  601MOL0     N81051   1.417   5.782   7.683 -0.9489  0.2898 -0.0450
  601MOL0     C81052   1.108   4.809   7.101 -0.4579 -1.4326 -0.6430
  601MOL0     C81053   1.138   4.705   7.021 -0.3098 -1.6962 -0.5935
  601MOL0     C81054   1.113   4.318   6.780 -0.1393  0.2969 -0.8254
  601MOL0     C81055   1.256   4.324   6.770 -0.8756  0.2762 -0.2740
  601MOL0     C81056   1.332   4.266   6.669  0.3644  0.3146 -0.0346
  601MOL0     C81057   1.265   4.191   6.570  0.0263 -0.3401  0.0068
  601MOL0     O81058   1.339   4.139   6.468  0.6515 -0.1440  0.4309
  601MOL0     C81059   1.284   4.086   6.348  0.6813 -0.5869  0.4193
  601MOL0     C81060   1.267   4.202   6.251 -0.5156  1.2682  0.3202
  601MOL0     C81061   1.206   4.336   6.304 -0.0798 -0.8514 -0.3497
  601MOL0     C81062   1.162   4.425   6.186 -0.6781 -0.0928 -0.6480
  601MOL0     C81063   1.024   4.386   6.132  0.2527 -0.1770 -0.4098
  601MOL0     C81064   0.913   4.343   6.101 -0.1022 -0.4212 -0.6391
  601MOL0     C81065   1.124   4.187   6.578 -0.6341  0.3855 -0.2051
  601MOL0     C81066   1.045   4.248   6.675  0.0965  0.0087 -0.3756
  601MOL0     C81067   0.893   4.243   6.657 -0.1570 -0.8208  0.0911
  601MOL0     H81068   0.949   4.462   7.162  2.8710 -1.0226 -3.6888
  601MOL0     H81069   0.893   4.648   7.322  1.1758  1.4666  1.1791
  601MOL0     H81070   0.974   4.856   7.495 -0.9747  1.9791  2.0669
  601MOL0     H81071   1.130   4.873   7.404  0.0793  0.7747 -4.0897
  601MOL0     H81072   0.916   5.083   7.464 -1.2818 -2.1476 -0.5432
  601MOL0     H81073   1.051   5.119   7.352 -1.3503  0.9081  0.6952
  601MOL0     H81074   1.209   5.058   7.544 -0.2186  0.2609 -3.5024
  601MOL0     H81075   1.079   5.038   7.657 -0.6791  0.1022 -0.9010
  601MOL0     H81076   1.134   5.288   7.480  0.7784 -3.3369 -1.1623
  601MOL0     H81077   1.026   5.283   7.615  0.5525 -0.0327  1.3127
  601MOL0     H81078   1.227   5.231   7.762 -1.0460  1.9732  0.9609
  601MOL0     H81079   1.332   5.238   7.614 -0.5449  0.2972 -1.2041
  601MOL0     H81080   1.180   5.489   7.693  0.8361  2.2683  0.1697
  601MOL0     H81081   1.349   5.463   7.728  0.5053  3.0894 -1.6017
  601MOL0     H81082   1.234   5.464   7.450  0.3985  2.7336 -1.2089
  601MOL0     H81083   1.402   5.414   7.507 -0.8533 -1.7798  1.6779
  601MOL0     H81084   1.383   5.630   7.404 -1.0946 -0.3083 -0.3533
  601MOL0     H81085   1.262   5.696   7.517 -2.1045 -0.3742 -0.7990
  601MOL0     H81086   1.630   5.551   7.569 -2.2484 -1.2478 -0.7284
  601MOL0     H81087   1.787   5.824   7.806 -0.9377  0.6383 -1.0804
  601MOL0     H81088   1.798   5.641   7.802  0.8171 -1.0867 -1.1499
  601MOL0     H81089   1.976   5.696   7.677  0.1827  2.4543 -0.2538
  601MOL0     H81090   1.847   5.625   7.571  1.1396  0.2128 -0.3835
  601MOL0     H81091   1.917   5.925   7.591  0.0013 -0.0426  1.2003
  601MOL0     H81092   1.794   5.847   7.492  1.6227  0.9959 -0.8317
  601MOL0     H81093   1.985   5.895   7.348 -0.9364 -1.4195 -0.2259
  601MOL0     H81094   1.974   5.737   7.357  1.2499  0.5126 -2.3798
  601MOL0     H81095   2.202   5.728   7.264 -0.2717  1.3675  2.5223
  601MOL0     H81096   2.348   5.533   7.238  1.4479 -0.4399  0.3935
  601MOL0     H81097   2.633   5.122   7.549  0.2883 -2.1120  1.3409
  601MOL0     H81098   2.675   4.871   7.447  1.4077  1.7042 -1.9069
  601MOL0     H81099   2.690   4.706   7.317  1.1259 -1.1427  5.3260
  601MOL0     H81100   2.583   4.624   7.431  0.9205  0.4664  0.0182
  601MOL0     H81101   2.462   4.508   7.235 -0.3462  0.3238  0.0693
  601MOL0     H81102   2.589   4.560   7.141 -2.7072  3.4183  0.6794
  601MOL0     H81103   2.756   4.458   7.291 -0.7732  1.6507  1.4265
  601MOL0     H81104   2.627   4.409   7.401  0.9700 -1.6588 -0.9359
  601MOL0     H81105   2.521   4.257   7.219  0.6043 -1.4195 -1.9943
  601MOL0     H81106   2.686   4.196   7.259  2.2905  1.8508  1.4100
  601MOL0     H81107   2.786   4.326   7.080 -1.0203  1.9297  2.7162
  601MOL0     H81108   2.639   4.364   7.015 -0.5651 -0.2611  0.1593
  601MOL0     H81109   2.749   4.148   6.909  0.2097 -1.6380 -0.5036
  601MOL0     H81110   2.741   4.065   7.055 -0.6635 -0.6235 -0.4041
  601MOL0     H81111   2.507   4.172   6.919 -2.3304 -2.9727 -0.6667
  601MOL0     H81112   2.502   4.102   7.086 -0.7124 -0.8726  0.4148
  601MOL0     H81113   2.428   3.931   6.929 -0.4667 -0.5056 -2.7726
  601MOL0     H81114   2.544   3.980   6.813  0.2606  1.1327 -0.2208
  601MOL0     H81115   2.275   4.867   7.313  0.2517 -0.0176 -0.8649
  601MOL0     H81116   2.229   5.096   7.433  0.4926  1.8015 -1.7865
  601MOL0     H81117   2.341   5.493   7.668  1.2078  3.7658  0.2987
  601MOL0     H81118   2.200   5.693   7.679 -0.3045 -0.9185  1.0773
  601MOL0     H81119   1.134   4.913   7.086 -1.8884 -0.7500  1.2150
  601MOL0     H81120   1.203   4.721   6.936 -0.6695  0.3440 -0.5232
  601MOL0     H81121   1.296   4.377   6.855  0.4393 -1.2795  0.1324
  601MOL0     H81122   1.441   4.268   6.671  0.3495  0.5217  1.1499
  601MOL0     H81123   1.185   4.041   6.359 -0.6405  2.6502  4.4585
  601MOL0     H81124   1.357   4.012   6.314  0.1645 -1.4002  1.0545
  601MOL0     H81125   1.207   4.168   6.166  1.7060  0.2957 -0.9576
  601MOL0     H81126   1.362   4.221   6.201 -1.0171 -2.4994 -2.5465
  601MOL0     H81127   1.288   4.383   6.359 -0.9639 -0.6017  0.7994
  601MOL0     H81128   1.121   4.314   6.370  0.2002 -2.9115 -0.5957
  601MOL0     H81129   1.149   4.524   6.231 -4.8534 -0.9589  0.4914
  601MOL0     H81130   1.237   4.419   6.107  2.4079 -0.9249  2.0878
  601MOL0     H81131   0.817   4.313   6.065 -1.3759  3.3556 -0.7438
  601MOL0     H81132   1.079   4.140   6.491  2.0650  1.9474 -2.6711
  601MOL0     H81133   0.858   4.346   6.664 -0.5802 -0.9710  0.2433
  601MOL0     H81134   0.868   4.192   6.563 -0.3276 -0.3398 -0.1305
  601MOL0     H81135   0.849   4.180   6.735 -1.2293 -1.3807 -0.9279
  602MOL0     O81136  10.444   2.833   6.316  0.0251  0.3607  0.1470
  602MOL0     C81137  10.331   2.823   6.279  0.3965 -0.0437  0.1804
  602MOL0     O81138  10.237   2.924   6.305  0.5773  1.0988  0.6574
  602MOL0     C81139  10.263   3.041   6.368  0.0328  0.2004  0.4647
  602MOL0     C81140  10.356   3.128   6.312  0.5566 -0.5109  0.6485
  602MOL0     C81141  10.369   3.258   6.362  0.4879  0.8868 -0.9794
  602MOL0     C81142  10.304   3.292   6.485 -0.1435 -0.2017  0.2406
  602MOL0     O81143  10.328   3.409   6.542 -0.5661  0.0315 -0.3211
  602MOL0     C81144  10.435   3.491   6.509 -0.3499  0.3217 -0.5837
  602MOL0     C81145  10.445   3.599   6.624 -0.0163  1.2660  0.9907
  602MOL0     C81146  10.428   3.538   6.773  0.7929  0.4764 -0.0898
  602MOL0     C81147  10.536   3.437   6.814 -0.2842 -0.2904 -0.1532
  602MOL0     C81148  10.483   3.360   6.935  0.3009 -0.4940 -0.0159
  602MOL0     C81149  10.549   3.224   6.966  0.1378 -0.6311 -0.4583
  602MOL0     C81150  10.471   3.147   7.077  0.3500  0.4804  0.4630
  602MOL0     C81151  10.473   3.203   7.216  0.6783  0.3050  0.6247
  602MOL0     N81152  10.452   3.099   7.315 -0.4068  0.8355 -0.6077
  602MOL0     C81153  10.409   2.970   7.285  0.2718  0.4173 -0.5749
  602MOL0     C81154  10.414   2.915   7.404 -0.5930  0.1319 -0.7988
  602MOL0     C81155  10.376   2.768   7.421 -0.2122 -0.7639  0.8037
  602MOL0     C81156  10.282   2.761   7.547 -0.3159  1.3897 -1.2185
  602MOL0     C81157  10.203   2.634   7.561  0.3357 -0.6368  1.6010
  602MOL0     C81158  10.269   2.498   7.512  0.1046 -0.1123 -0.3108
  602MOL0     O81159  10.249   2.456   7.379  0.1598 -1.0072  0.1790
  602MOL0     C81160  10.248   2.316   7.365 -0.6229 -0.5291 -0.6554
  602MOL0     C81161  10.163   2.260   7.277  0.2529  0.6941  0.4523
  602MOL0     C81162  10.171   2.129   7.244 -0.0307  0.4190  0.1353
  602MOL0     C81163  10.263   2.039   7.302  0.3051 -0.7496 -0.2316
  602MOL0     C81164  10.274   1.891   7.280  0.4581  0.3195  0.8621
  602MOL0     O81165  10.232   1.848   7.155  0.1949  0.5028  0.4635
  602MOL0     C81166  10.261   1.717   7.113 -0.0931  0.4712 -0.1033
  602MOL0     C81167  10.342   1.698   6.997  0.1927 -0.5740 -0.1234
  602MOL0     C81168  10.374   1.566   6.965 -0.1386 -0.2283 -0.6315
  602MOL0     C81169  10.331   1.453   7.042 -0.3028  0.2036 -0.4260
  602MOL0     O81170  10.372   1.324   7.019 -0.1996  1.0865 -0.0290
  602MOL0     C81171  10.465   1.289   6.911 -0.5138  0.2847 -0.3915
  602MOL0     C81172  10.493   1.138   6.916  0.1665 -0.3708 -0.5076
  602MOL0     C81173  10.533   1.103   7.057  0.3067  0.5618  0.0089
  602MOL0     C81174  10.608   0.963   7.059  0.0966  0.2593  0.2985
  602MOL0     C81175  10.659   0.931   7.205 -0.5328 -0.1960 -0.5793
  602MOL0     C81176  10.552   0.876   7.291 -0.2616  0.4767 -0.5989
  602MOL0     C81177  10.598   0.864   7.436 -0.6810 -0.4146 -0.0023
  602MOL0     C81178  10.612   0.713   7.475 -0.2475  0.9923 -0.3863
  602MOL0    Cl81179  10.781   0.654   7.510 -0.0001  0.0649  0.0158
  602MOL0     C81180  10.245   1.476   7.150 -0.3701 -0.1082  0.1729
  602MOL0     C81181  10.215   1.606   7.187  0.4253  0.2304  0.7053
  602MOL0     O81182  10.329   1.821   7.365 -0.6149  0.6519 -0.0631
  602MOL0     C81183  10.357   2.105   7.382  0.6003  0.0441 -0.5490
  602MOL0     C81184  10.345   2.237   7.411 -1.0560  0.1736  1.0289
  602MOL0     N81185  10.445   3.004   7.504 -0.2651 -0.6684  0.1827
  602MOL0     N81186  10.455   3.119   7.451 -0.4594 -0.1695  0.3809
  602MOL0     C81187  10.219   3.192   6.546  0.8262 -0.8806 -0.3714
  602MOL0     C81188  10.184   3.072   6.477 -0.6167  0.2762 -0.5164
  602MOL0     C81189  10.286   2.706   6.202  0.0136 -0.5874 -0.4261
  602MOL0     C81190  10.148   2.703   6.161  0.6042 -0.6649 -0.1009
  602MOL0     C81191  10.104   2.590   6.093 -0.2093  0.5589 -1.0594
  602MOL0     C81192  10.195   2.501   6.041  0.0641  1.1030 -0.4438
  602MOL0     O81193  10.133   2.392   5.980  0.4233  0.3275  0.4864
  602MOL0     C81194  10.214   2.284   5.939  0.1306  0.3856  0.3072
  602MOL0     C81195  10.117   2.195   5.859 -0.1472 -1.0147 -0.7163
  602MOL0     C81196  10.204   2.092   5.799 -0.7029  0.0884 -0.1914
  602MOL0     C81197  10.118   1.983   5.737 -0.0542 -0.4734 -0.6621
  602MOL0     C81198  10.196   1.890   5.659 -0.0692 -0.6252  0.3129
  602MOL0     C81199  10.272   1.801   5.622 -0.0805  0.3528  0.8594
  602MOL0     C81200  10.332   2.507   6.073 -0.6806 -0.1208 -0.5419
  602MOL0     C81201  10.374   2.597   6.173  0.8584  0.4680  0.0770
  602MOL0     C81202  10.511   2.593   6.211  0.0432 -0.1867  0.2683
  602MOL0     H81203  10.416   3.103   6.225 -1.3996  0.0418 -0.9589
  602MOL0     H81204  10.439   3.330   6.320 -1.2337  2.1692 -1.7536
  602MOL0     H81205  10.530   3.437   6.520 -0.4609  0.0812 -0.8028
  602MOL0     H81206  10.434   3.529   6.407 -0.3967  0.4564 -0.5344
  602MOL0     H81207  10.371   3.676   6.602 -1.0986  0.6080  2.2107
  602MOL0     H81208  10.533   3.660   6.605 -1.6499  2.9231 -1.9353
  602MOL0     H81209  10.329   3.492   6.771 -1.4811  4.8350 -0.7715
  602MOL0     H81210  10.431   3.630   6.832 -0.6778 -0.0446  0.8429
  602MOL0     H81211  10.564   3.368   6.734 -0.5079 -2.7531  1.7415
  602MOL0     H81212  10.631   3.485   6.837 -0.9205  0.2619  1.5009
  602MOL0     H81213  10.475   3.418   7.028 -0.8656 -0.2918 -0.2192
  602MOL0     H81214  10.376   3.340   6.922 -0.1270  1.2229  0.5887
  602MOL0     H81215  10.554   3.165   6.874  1.3024  0.0423 -0.8411
  602MOL0     H81216  10.653   3.240   6.992 -0.3813 -0.2442  1.5360
  602MOL0     H81217  10.529   3.055   7.061  0.0155  0.3105  0.1950
  602MOL0     H81218  10.366   3.123   7.054  0.4459  1.1004 -0.6881
  602MOL0     H81219  10.563   3.261   7.236  0.4106  0.9136  0.1136
  602MOL0     H81220  10.383   3.266   7.219  0.5539  0.2138 -0.6349
  602MOL0     H81221  10.396   2.915   7.192  3.4926  1.0443 -1.5469
  602MOL0     H81222  10.310   2.742   7.337 -1.4053 -3.2460  2.4112
  602MOL0     H81223  10.460   2.699   7.425  0.5826  0.1483  0.3871
  602MOL0     H81224  10.343   2.785   7.635 -0.7401 -1.4772 -0.0354
  602MOL0     H81225  10.216   2.848   7.541 -1.6208  0.7123  1.7215
  602MOL0     H81226  10.121   2.656   7.492  0.1616  2.2238  2.5905
  602MOL0     H81227  10.159   2.622   7.661 -2.8315 -4.6825  0.0334
  602MOL0     H81228  10.231   2.418   7.576 -2.8194 -0.0743 -1.8249
  602MOL0     H81229  10.375   2.510   7.537 -0.1305  1.7203 -0.0693
  602MOL0     H81230  10.102   2.329   7.220 -0.1195 -1.6858 -2.2935
  602MOL0     H81231  10.115   2.085   7.162  0.2428  2.4663 -1.2094
  602MOL0     H81232  10.364   1.791   6.947 -0.1581 -0.7635 -0.6374
  602MOL0     H81233  10.446   1.564   6.884  1.1598  6.2781 -0.2248
  602MOL0     H81234  10.427   1.315   6.811  2.4695 -0.6843 -1.9053
  602MOL0     H81235  10.551   1.357   6.913  1.0346 -1.1594 -4.7494
  602MOL0     H81236  10.396   1.098   6.884 -0.2387 -0.1355  0.4125
  602MOL0     H81237  10.574   1.103   6.850  1.7971 -4.0061  3.0446
  602MOL0     H81238  10.598   1.179   7.103 -0.6724  0.9459  0.7765
  602MOL0     H81239  10.447   1.085   7.121  1.8379 -0.4290  1.9033
  602MOL0     H81240  10.690   0.967   6.986 -0.2886 -3.0959 -0.4580
  602MOL0     H81241  10.560   0.875   7.016 -0.4633 -0.4430  2.2783
  602MOL0     H81242  10.696   1.026   7.246  6.3150 -1.9274 -1.5588
  602MOL0     H81243  10.737   0.855   7.205 -0.0794  0.1801 -3.0197
  602MOL0     H81244  10.465   0.942   7.302  0.7123  1.5134  1.6054
  602MOL0     H81245  10.522   0.784   7.240  0.9711  1.6102 -3.6239
  602MOL0     H81246  10.520   0.906   7.501 -0.3359  2.4704 -1.2710
  602MOL0     H81247  10.692   0.918   7.447 -1.0513  0.1281  0.6227
  602MOL0     H81248  10.556   0.707   7.569 -2.2772 -0.5940 -1.6073
  602MOL0     H81249  10.567   0.656   7.392  0.5985  2.4715 -1.9207
  602MOL0     H81250  10.207   1.385   7.194 -1.5609 -1.7385 -3.8535
  602MOL0     H81251  10.138   1.632   7.259 -0.4752  1.1679 -0.5499
  602MOL0     H81252  10.438   2.055   7.434  2.2461  2.2235 -0.8835
  602MOL0     H81253  10.423   2.292   7.463 -1.1570  1.3539 -0.0198
  602MOL0     H81254  10.154   3.216   6.629  2.5325  1.6588  0.3429
  602MOL0     H81255  10.110   2.999   6.508 -0.2943 -0.9703 -2.4737
  602MOL0     H81256  10.074   2.776   6.191  1.4074  0.6693 -1.1998
  602MOL0     H81257   9.997   2.583   6.075  0.0073  2.3166 -3.6871
  602MOL0     H81258  10.262   2.229   6.020  0.3395  1.2560  0.7827
  602MOL0     H81259  10.289   2.321   5.868 -0.7348  2.3623  0.3548
  602MOL0     H81260  10.054   2.240   5.782 -1.3825 -0.4423  0.5972
  602MOL0     H81261  10.048   2.148   5.930  0.6924 -0.1919  0.7043
  602MOL0     H81262  10.275   2.047   5.869  2.6419  0.8322 -2.8270
  602MOL0     H81263  10.249   2.132   5.707 -4.5037  1.8546 -1.5086
  602MOL0     H81264  10.069   1.931   5.820 -0.9883  0.6346 -0.4872
  602MOL0     H81265  10.035   2.024   5.678 -0.5686  2.2514  1.7171
  602MOL0     H81266  10.347   1.726   5.608 -2.4783 -2.6259  2.6033
  602MOL0     H81267  10.401   2.432   6.036 -2.0682 -1.3236 -0.7792
  602MOL0     H81268  10.572   2.676   6.174  0.0881  0.4273  1.6483
  602MOL0     H81269  10.521   2.593   6.320  0.4589 -3.3919  0.3204
  602MOL0     H81270  10.556   2.502   6.172  3.3741  2.2282 -2.1259
  603MOL0     O81271   4.953   3.637  10.343 -0.2166 -0.0671 -0.2468
  603MOL0     C81272   4.888   3.599  10.440 -0.8143 -0.0518 -0.9940
  603MOL0     O81273   4.841   3.481  10.460  0.4380  0.5967 -0.3111
  603MOL0     C81274   4.865   3.380  10.376 -0.6851  0.9641  1.2202
  603MOL0     C81275   4.761   3.307  10.314 -0.7937 -0.7363  0.2121
  603MOL0     C81276   4.787   3.206  10.243 -1.0755 -0.8748 -0.5605
  603MOL0     C81277   4.918   3.153  10.211 -0.1350  0.5564 -1.1663
  603MOL0     O81278   4.944   3.039  10.133  0.7687 -0.1553 -0.3674
  603MOL0     C81279   4.853   2.936  10.155  0.1803  0.7083  0.8613
  603MOL0     C81280   4.934   2.806  10.116  0.1205 -0.5016 -0.9430
  603MOL0     C81281   4.856   2.674  10.074  0.0186  0.1664 -0.4810
  603MOL0     C81282   4.784   2.624  10.203  0.2015 -0.1560  0.1523
  603MOL0     C81283   4.690   2.519  10.172 -0.0590 -0.3237 -0.4752
  603MOL0     C81284   4.584   2.561  10.079  0.3586 -0.3621  0.4826
  603MOL0     C81285   4.459   2.478  10.112  0.6597  0.4417 -1.4002
  603MOL0     C81286   4.466   2.327  10.081 -0.1656  0.3862 -0.8514
  603MOL0     N81287   4.483   2.281   9.945 -0.2910 -0.0326 -0.4586
  603MOL0     C81288   4.399   2.316   9.840 -0.1768  0.5133  0.5979
  603MOL0     C81289   4.459   2.255   9.730 -0.4800  0.2463  0.5088
  603MOL0     C81290   4.414   2.270   9.581 -0.0172  1.5812 -0.5154
  603MOL0     C81291   4.456   2.144   9.493  0.4596  1.3626  0.5872
  603MOL0     C81292   4.421   2.007   9.546  0.4801 -0.0105 -0.4618
  603MOL0     C81293   4.473   1.897   9.450  0.9677 -0.5254  0.0395
  603MOL0     O81294   4.396   1.906   9.330 -0.4925  0.3184  0.2902
  603MOL0     C81295   4.396   1.811   9.234  0.5121 -0.0622  0.1852
  603MOL0     C81296   4.426   1.680   9.250  0.1697  1.1106 -0.4524
  603MOL0     C81297   4.423   1.599   9.133  1.1107  0.5953  0.7272
  603MOL0     C81298   4.374   1.640   9.008 -0.2926 -0.1391  0.1251
  603MOL0     C81299   4.366   1.541   8.902 -0.2548  0.6947  0.5254
  603MOL0     O81300   4.282   1.567   8.792 -0.0160 -0.4288  0.5937
  603MOL0     C81301   4.264   1.472   8.691 -0.4395 -0.2011 -0.4930
  603MOL0     C81302   4.305   1.498   8.556  0.4549 -0.1342 -0.0622
  603MOL0     C81303   4.308   1.403   8.451  0.0927  0.2919  0.0305
  603MOL0     C81304   4.251   1.273   8.478  0.0667  0.0143  0.7262
  603MOL0     O81305   4.243   1.186   8.368  0.8128  0.0140  0.1413
  603MOL0     C81306   4.276   1.048   8.392  0.8877 -0.5545 -0.1303
  603MOL0     C81307   4.418   1.008   8.438  1.5869 -0.1049  0.2079
  603MOL0     C81308   4.523   1.074   8.339  0.1109  0.7009  0.0884
  603MOL0     C81309   4.560   0.986   8.228  0.6549  0.1432 -0.1866
  603MOL0     C81310   4.638   1.069   8.120  0.2319 -0.0399 -0.0640
  603MOL0     C81311   4.664   0.973   8.001 -0.3519 -0.8425  0.2234
  603MOL0     C81312   4.693   1.058   7.885 -0.2508 -0.6470 -0.6618
  603MOL0     C81313   4.731   0.988   7.754  0.6611 -0.0782 -0.7499
  603MOL0    Cl81314   4.899   0.922   7.780  0.2384 -0.0288 -0.2680
  603MOL0     C81315   4.200   1.245   8.608  0.4482  0.0078  0.6053
  603MOL0     C81316   4.213   1.338   8.716 -0.6415  0.1312  0.2179
  603MOL0     O81317   4.409   1.421   8.919 -0.2171  0.0495  0.4000
  603MOL0     C81318   4.338   1.778   9.000 -0.7749  0.5110 -1.0577
  603MOL0     C81319   4.345   1.862   9.113  0.7235 -0.0699  0.1531
  603MOL0     N81320   4.570   2.186   9.771  0.6895  0.2664 -0.2151
  603MOL0     N81321   4.583   2.202   9.900  0.1639  0.2976 -0.8584
  603MOL0     C81322   5.023   3.217  10.281 -0.7937 -0.0668 -0.1503
  603MOL0     C81323   4.994   3.335  10.358 -0.8063  0.7103  1.6385
  603MOL0     C81324   4.869   3.699  10.553 -0.6453 -0.1543 -0.7030
  603MOL0     C81325   4.937   3.816  10.539 -0.4182 -0.3619  0.2534
  603MOL0     C81326   4.934   3.913  10.636  0.1569 -0.6177 -0.4205
  603MOL0     C81327   4.856   3.900  10.748 -0.2495 -0.7905  0.2006
  603MOL0     O81328   4.860   4.011  10.831  0.5185  0.4634  0.0920
  603MOL0     C81329   4.782   4.014  10.949  0.8352 -0.0403 -0.2063
  603MOL0     C81330   4.633   4.060  10.923  0.3328  0.6296  0.2133
  603MOL0     C81331   4.617   4.209  10.909 -0.1038  0.2757 -0.4229
  603MOL0     C81332   4.687   4.291  11.017  0.3587 -0.0695  0.2942
  603MOL0     C81333   4.583   4.371  11.087 -0.5910 -0.1064  0.3596
  603MOL0     C81334   4.499   4.437  11.144  0.9556  0.5967  0.3612
  603MOL0     C81335   4.790   3.779  10.771 -0.1195  0.8243 -0.3894
  603MOL0     C81336   4.793   3.681  10.674 -0.5961 -0.1725  0.3948
  603MOL0     C81337   4.701   3.572  10.696 -1.0201 -0.8834 -0.5926
  603MOL0     H81338   4.657   3.337  10.314 -0.7069 -0.3669 -0.9430
  603MOL0     H81339   4.710   3.155  10.186 -0.6576 -0.9311 -1.0835
  603MOL0     H81340   4.825   2.933  10.261 -0.1147  1.4164  0.8103
  603MOL0     H81341   4.765   2.943  10.091  0.4000 -1.4852  0.2424
  603MOL0     H81342   5.001   2.781  10.199 -1.3223  0.4559  0.5864
  603MOL0     H81343   4.984   2.833  10.023 -0.7359 -1.8368 -1.8263
  603MOL0     H81344   4.925   2.599  10.036 -0.6563 -0.7883  0.1132
  603MOL0     H81345   4.787   2.690   9.991  0.2095  1.6063 -0.3882
  603MOL0     H81346   4.862   2.589  10.271  0.8091 -0.0833 -0.4979
  603MOL0     H81347   4.730   2.709  10.245 -1.3950 -0.5229 -1.0655
  603MOL0     H81348   4.733   2.430  10.126 -1.0449 -0.3723 -1.3375
  603MOL0     H81349   4.650   2.477  10.265 -0.9727  1.4694 -0.0087
  603MOL0     H81350   4.569   2.669  10.072 -0.9909 -0.6159 -1.9663
  603MOL0     H81351   4.607   2.528   9.977  0.1312  1.5796 -0.2487
  603MOL0     H81352   4.370   2.512  10.059 -1.4207 -2.6985 -0.1654
  603MOL0     H81353   4.432   2.479  10.218  2.7955 -2.9755 -0.6623
  603MOL0     H81354   4.534   2.277  10.151 -0.6256  1.3758  0.3559
  603MOL0     H81355   4.366   2.292  10.107  0.0647  1.5528  2.0888
  603MOL0     H81356   4.326   2.395   9.849 -1.1212  0.1878 -2.7091
  603MOL0     H81357   4.304   2.270   9.575 -0.0187  0.3335 -0.7163
  603MOL0     H81358   4.443   2.369   9.544  1.3519  1.7936  1.0475
  603MOL0     H81359   4.407   2.158   9.396  4.0371  2.0898 -1.2875
  603MOL0     H81360   4.564   2.152   9.475  0.0788  1.3778 -2.1484
  603MOL0     H81361   4.313   2.006   9.564  0.5645  1.4502  0.2454
  603MOL0     H81362   4.466   1.993   9.644  0.5184  0.8670 -0.3492
  603MOL0     H81363   4.463   1.804   9.507  1.2510  0.0842  1.1172
  603MOL0     H81364   4.580   1.916   9.441  1.0934 -0.9214  0.6005
  603MOL0     H81365   4.463   1.631   9.340 -3.5471 -1.2122  0.0394
  603MOL0     H81366   4.445   1.493   9.144 -0.9654 -0.0524 -0.6426
  603MOL0     H81367   4.330   1.602   8.539  0.4738 -0.2233 -0.5956
  603MOL0     H81368   4.343   1.431   8.353  1.2638  1.6483  0.8072
  603MOL0     H81369   4.201   0.996   8.453 -0.8370  0.4818 -1.2901
  603MOL0     H81370   4.251   1.009   8.293  1.2209  2.0682 -1.3296
  603MOL0     H81371   4.441   1.044   8.539 -0.3807  1.1175  0.2796
  603MOL0     H81372   4.429   0.899   8.432 -1.1537 -0.4363 -0.2456
  603MOL0     H81373   4.492   1.170   8.296  3.1184  0.0707 -4.0494
  603MOL0     H81374   4.616   1.090   8.394  0.7396  2.0917 -1.3003
  603MOL0     H81375   4.476   0.932   8.183  0.5584  1.8879 -2.2816
  603MOL0     H81376   4.625   0.906   8.264  3.0700  1.6468 -0.9387
  603MOL0     H81377   4.736   1.109   8.144  0.3039  0.5281 -1.2315
  603MOL0     H81378   4.576   1.153   8.088  1.8958  1.9411  1.6924
  603MOL0     H81379   4.758   0.919   8.017  1.3930  2.0136  0.3328
  603MOL0     H81380   4.593   0.896   7.970  2.4352 -3.2076 -0.6698
  603MOL0     H81381   4.780   1.120   7.906  0.2062 -0.9343 -1.6627
  603MOL0     H81382   4.609   1.123   7.857  0.2797 -1.3423 -4.4287
  603MOL0     H81383   4.660   0.910   7.726  0.5692  0.4809 -2.1719
  603MOL0     H81384   4.724   1.050   7.664  2.3093 -1.3923 -1.8411
  603MOL0     H81385   4.156   1.147   8.621  3.3278 -1.4916 -0.1410
  603MOL0     H81386   4.179   1.304   8.813 -1.0487 -3.4652 -1.0420
  603MOL0     H81387   4.289   1.822   8.914  0.5431 -0.7904 -2.5337
  603MOL0     H81388   4.302   1.961   9.103  2.3677  0.5918 -0.7566
  603MOL0     H81389   5.126   3.187  10.262 -1.4569 -0.6857 -3.2311
  603MOL0     H81390   5.078   3.391  10.399 -1.2892  2.4286  0.3902
  603MOL0     H81391   4.990   3.838  10.446  2.9840 -0.8750  1.9069
  603MOL0     H81392   4.987   4.007  10.624  0.7941 -0.8021  0.8215
  603MOL0     H81393   4.836   4.075  11.023  1.1498  2.6037 -2.4509
  603MOL0     H81394   4.780   3.917  11.000  2.7649  0.8586  1.7516
  603MOL0     H81395   4.565   4.015  10.997  0.4648 -1.2513 -0.7492
  603MOL0     H81396   4.599   4.011  10.831  1.1856 -2.1223  1.2518
  603MOL0     H81397   4.509   4.229  10.907 -0.0559  0.7117  0.5199
  603MOL0     H81398   4.645   4.260  10.817 -3.1565  4.3567  0.6254
  603MOL0     H81399   4.744   4.234  11.092  2.6537 -3.2682 -3.5076
  603MOL0     H81400   4.759   4.349  10.960  0.5810 -1.6492 -1.0881
  603MOL0     H81401   4.412   4.495  11.169  1.5630  1.8438 -0.2984
  603MOL0     H81402   4.735   3.749  10.859  1.5052  0.1869  0.4523
  603MOL0     H81403   4.748   3.474  10.708  0.4524 -0.1217  0.1927
  603MOL0     H81404   4.618   3.596  10.763 -2.0915 -0.1203 -2.1405
  603MOL0     H81405   4.655   3.567  10.597 -2.6189 -0.5849  0.0982
  604MOL0     O81406  10.288   1.463   2.480  0.3487  0.7815  0.4074
  604MOL0     C81407  10.237   1.509   2.374  0.1752 -1.1362 -0.1934
  604MOL0     O81408  10.128   1.586   2.368  0.7588 -0.1707  0.3497
  604MOL0     C81409  10.075   1.632   2.490  0.4585 -0.0975  0.3854
  604MOL0     C81410   9.933   1.619   2.520 -0.5362 -0.1254  0.3937
  604MOL0     C81411   9.885   1.684   2.638  0.0347 -0.2994  0.5349
  604MOL0     C81412   9.962   1.759   2.715  0.4377  0.0306 -0.9889
  604MOL0     O81413   9.908   1.845   2.807  0.6002 -0.2565  0.2871
  604MOL0     C81414   9.830   1.782   2.916 -0.0270 -0.1487 -0.6009
  604MOL0     C81415   9.911   1.748   3.035 -0.3717 -0.2358  0.6587
  604MOL0     C81416   9.841   1.765   3.159 -0.7991 -0.4435 -0.0260
  604MOL0     C81417   9.922   1.735   3.288 -0.2486 -1.1393  0.3010
  604MOL0     C81418   9.951   1.587   3.310  0.4556 -0.6124 -1.1182
  604MOL0     C81419  10.093   1.544   3.291 -0.2054 -0.0391  0.6527
  604MOL0     C81420  10.134   1.411   3.345  0.4969  0.2380  0.8297
  604MOL0     C81421  10.168   1.416   3.499 -0.5628 -0.2898 -0.1671
  604MOL0     N81422  10.296   1.485   3.534 -0.0523 -0.0585 -0.3810
  604MOL0     C81423  10.428   1.459   3.500 -0.7490  0.0717 -0.4247
  604MOL0     C81424  10.490   1.560   3.566  0.2843 -0.2261  0.5727
  604MOL0     C81425  10.640   1.552   3.571 -0.1730 -0.5312 -0.7260
  604MOL0     C81426  10.703   1.626   3.443  0.0961  0.3404  0.3274
  604MOL0     C81427  10.694   1.780   3.442  0.5729  0.1884 -1.4141
  604MOL0     C81428  10.785   1.813   3.328  0.1716 -0.4758 -0.1352
  604MOL0     O81429  10.924   1.778   3.355 -0.6592  0.5063 -0.0056
  604MOL0     C81430  11.017   1.794   3.267 -1.2108 -0.3398  0.3745
  604MOL0     C81431  11.137   1.849   3.316  0.5462  0.1186 -0.3412
  604MOL0     C81432  11.234   1.882   3.233 -1.2671  0.4438 -0.7349
  604MOL0     C81433  11.241   1.838   3.098  1.2921 -0.6102  0.1959
  604MOL0     C81434  11.349   1.875   3.007  0.1226 -1.0955 -0.9754
  604MOL0     O81435  11.444   1.963   3.051 -0.2897  0.5223 -0.4070
  604MOL0     C81436  11.552   1.989   2.980 -0.5522  0.1417  0.3379
  604MOL0     C81437  11.671   1.917   3.006  0.6098 -0.4697 -0.7710
  604MOL0     C81438  11.786   1.959   2.942  0.1294 -0.2724  0.8710
  604MOL0     C81439  11.785   2.069   2.856  0.6765 -0.6760  0.3001
  604MOL0     O81440  11.910   2.116   2.820 -0.4016  0.1180  1.2148
  604MOL0     C81441  11.918   2.215   2.718  0.5292  0.4554  0.4190
  604MOL0     C81442  11.913   2.172   2.569 -0.2685 -0.1084 -0.6797
  604MOL0     C81443  11.783   2.125   2.518  0.1229 -0.0525  0.3732
  604MOL0     C81444  11.807   2.030   2.396  0.0126 -0.6150 -0.3524
  604MOL0     C81445  11.790   2.114   2.265 -0.2104 -0.6353  0.9546
  604MOL0     C81446  11.643   2.154   2.236 -0.2272  1.1884 -0.6897
  604MOL0     C81447  11.584   2.020   2.185 -0.4236 -0.6134 -0.8144
  604MOL0     C81448  11.436   2.038   2.159 -0.0119  1.3870 -0.0070
  604MOL0    Cl81449  11.404   2.172   2.053 -0.1030  0.2401 -0.2100
  604MOL0     C81450  11.664   2.142   2.843  0.4592 -0.4405  0.4105
  604MOL0     C81451  11.547   2.097   2.898 -0.5943  0.2504  0.1584
  604MOL0     O81452  11.339   1.828   2.898 -0.3436  0.2250 -0.5896
  604MOL0     C81453  11.113   1.783   3.055 -0.7619  0.2389 -1.0369
  604MOL0     C81454  11.002   1.765   3.136 -0.4231  0.6911 -0.8953
  604MOL0     N81455  10.406   1.652   3.629  0.6759 -0.6317 -0.8393
  604MOL0     N81456  10.293   1.612   3.592  0.1683  0.1634  0.5056
  604MOL0     C81457  10.096   1.767   2.694  0.8819  0.5285 -0.1509
  604MOL0     C81458  10.152   1.704   2.582 -0.3658  1.1080 -0.6618
  604MOL0     C81459  10.275   1.456   2.235  0.0261 -0.4236 -0.3947
  604MOL0     C81460  10.176   1.457   2.135 -0.3663  0.0019  1.1110
  604MOL0     C81461  10.193   1.405   2.012  1.2262 -0.2357  0.2656
  604MOL0     C81462  10.317   1.344   1.977  0.0190 -0.2281  0.2492
  604MOL0     O81463  10.327   1.289   1.851  0.4037 -0.1480 -0.2114
  604MOL0     C81464  10.319   1.381   1.740 -0.2102  0.5432  0.4443
  604MOL0     C81465  10.453   1.436   1.687  0.2505 -1.0080 -0.3725
  604MOL0     C81466  10.548   1.326   1.651 -0.6280  0.2554  0.1548
  604MOL0     C81467  10.486   1.225   1.557  0.5502 -0.1696  0.4109
  604MOL0     C81468  10.440   1.279   1.424 -0.1517  0.1924  0.4158
  604MOL0     C81469  10.419   1.349   1.330 -0.0731 -0.0815  0.9257
  604MOL0     C81470  10.414   1.325   2.069 -0.9405 -0.3060 -0.1812
  604MOL0     C81471  10.402   1.388   2.194  0.4140  0.1360 -0.4114
  604MOL0     C81472  10.517   1.360   2.291 -0.0689  0.2479 -0.6425
  604MOL0     H81473   9.869   1.568   2.449  0.4304  1.9308 -2.1340
  604MOL0     H81474   9.779   1.673   2.658 -0.0941 -1.2120 -0.5703
  604MOL0     H81475   9.753   1.851   2.949  1.2679 -0.5754  4.0566
  604MOL0     H81476   9.786   1.692   2.871 -0.8627 -0.8240  1.4580
  604MOL0     H81477  10.002   1.810   3.044  2.3122 -3.4378 -1.9281
  604MOL0     H81478   9.944   1.644   3.040 -0.0821 -0.1298  1.0894
  604MOL0     H81479   9.752   1.702   3.155 -1.2251  0.0047  1.6442
  604MOL0     H81480   9.809   1.869   3.152 -2.6896 -1.0944 -3.7759
  604MOL0     H81481  10.018   1.786   3.296  0.4705 -2.5237  0.9162
  604MOL0     H81482   9.857   1.762   3.371  0.4748  2.3707 -0.1248
  604MOL0     H81483   9.925   1.571   3.415 -0.9558  0.3796 -1.2877
  604MOL0     H81484   9.884   1.524   3.252 -2.9117  1.7725 -0.0960
  604MOL0     H81485  10.116   1.522   3.186  4.8454  0.1881  1.4660
  604MOL0     H81486  10.174   1.612   3.321 -0.4811  1.5818 -1.8925
  604MOL0     H81487  10.230   1.392   3.295 -0.7442 -0.6394 -1.4022
  604MOL0     H81488  10.060   1.333   3.325 -0.6752  1.0011  2.0628
  604MOL0     H81489  10.081   1.472   3.533  0.6670  0.0748  2.7826
  604MOL0     H81490  10.164   1.312   3.532 -1.7456 -0.3872 -0.5781
  604MOL0     H81491  10.478   1.368   3.467 -2.1403 -1.2250  0.8975
  604MOL0     H81492  10.671   1.598   3.665 -2.2168  2.9953 -1.5564
  604MOL0     H81493  10.672   1.448   3.567 -2.8051 -1.5700  1.9134
  604MOL0     H81494  10.809   1.602   3.439  0.6221  2.2601  1.5843
  604MOL0     H81495  10.652   1.583   3.356  1.3248 -0.2546 -0.1253
  604MOL0     H81496  10.724   1.814   3.542 -4.5206  0.5721  0.3174
  604MOL0     H81497  10.593   1.822   3.435  1.0595  2.0184  0.9751
  604MOL0     H81498  10.787   1.919   3.298  2.3096  0.2147  2.1148
  604MOL0     H81499  10.745   1.759   3.241  0.6776  0.0149 -0.6860
  604MOL0     H81500  11.151   1.870   3.422  1.7048 -1.0916 -0.2274
  604MOL0     H81501  11.324   1.919   3.281 -0.1653 -3.0695  0.1644
  604MOL0     H81502  11.665   1.840   3.083  1.3315  0.8685  0.6572
  604MOL0     H81503  11.874   1.896   2.946  1.2526  0.0120 -6.1837
  604MOL0     H81504  11.853   2.302   2.731  1.1017  0.4842  3.8854
  604MOL0     H81505  12.018   2.258   2.727 -0.4129  2.4359  2.3425
  604MOL0     H81506  11.954   2.246   2.500  1.9034 -0.1000  0.5217
  604MOL0     H81507  11.989   2.094   2.557  1.5614  1.8418 -2.5818
  604MOL0     H81508  11.720   2.078   2.595  1.2812  0.8292  1.9060
  604MOL0     H81509  11.725   2.211   2.481  1.0007  0.3919  0.0130
  604MOL0     H81510  11.740   1.944   2.410 -0.2849 -0.2562  0.4867
  604MOL0     H81511  11.911   1.999   2.393 -0.6279 -3.0669  0.4618
  604MOL0     H81512  11.825   2.061   2.176 -3.6653  1.4847 -1.9416
  604MOL0     H81513  11.850   2.205   2.279  1.1996 -0.7009 -3.2401
  604MOL0     H81514  11.597   2.197   2.325 -0.8601 -2.6106  0.9879
  604MOL0     H81515  11.652   2.223   2.151 -3.1410  1.6037 -0.7625
  604MOL0     H81516  11.593   1.933   2.251 -2.9410 -0.3108  0.0418
  604MOL0     H81517  11.636   1.986   2.095  1.9879  1.5388 -0.3438
  604MOL0     H81518  11.395   1.953   2.103  2.3634  0.2695 -0.1721
  604MOL0     H81519  11.375   2.040   2.250 -0.9930 -0.9626 -0.5258
  604MOL0     H81520  11.650   2.227   2.777  1.3081 -0.1370  0.6099
  604MOL0     H81521  11.461   2.162   2.902  0.4320  1.6494  3.5188
  604MOL0     H81522  11.108   1.738   2.956  1.4908  0.1516 -1.1616
  604MOL0     H81523  10.914   1.710   3.103 -1.3026  1.1498  0.5749
  604MOL0     H81524  10.156   1.825   2.764  1.3615  0.3589 -0.4196
  604MOL0     H81525  10.260   1.704   2.566 -0.4309 -1.8923 -1.6050
  604MOL0     H81526  10.075   1.496   2.148 -1.2147 -2.2868  1.8714
  604MOL0     H81527  10.127   1.431   1.930  0.0051  2.6242  2.0305
  604MOL0     H81528  10.259   1.466   1.773  0.6406  0.6979  1.6485
  604MOL0     H81529  10.259   1.337   1.659 -0.4682  3.9292 -1.3928
  604MOL0     H81530  10.493   1.497   1.767 -2.1943 -0.4023  0.4796
  604MOL0     H81531  10.439   1.494   1.595  1.6723  0.8908  0.5624
  604MOL0     H81532  10.574   1.272   1.742 -0.4878  0.0081 -0.0309
  604MOL0     H81533  10.637   1.369   1.606  0.4113 -2.2525 -0.3677
  604MOL0     H81534  10.558   1.145   1.536 -2.5143 -3.0997  0.2597
  604MOL0     H81535  10.399   1.172   1.596 -0.5647 -2.4301 -4.3407
  604MOL0     H81536  10.405   1.418   1.250 -3.2338  1.0606  2.2971
  604MOL0     H81537  10.499   1.262   2.044 -1.9905 -1.9646  0.2992
  604MOL0     H81538  10.561   1.262   2.266 -1.8392 -1.6641  2.8923
  604MOL0     H81539  10.594   1.437   2.296  0.7864 -0.6228 -0.0157
  604MOL0     H81540  10.482   1.347   2.393  0.6529  1.0177 -0.2857
  605MOL0     O81541   7.635   6.721   4.477 -0.7458  1.0343 -0.4256
  605MOL0     C81542   7.618   6.840   4.454 -1.1979  0.4839  0.3451
  605MOL0     O81543   7.705   6.932   4.483  1.0399  0.0403 -1.1364
  605MOL0     C81544   7.824   6.886   4.543  0.2584 -1.4679 -0.2094
  605MOL0     C81545   7.852   6.907   4.679  0.0090  0.2293  0.6171
  605MOL0     C81546   7.972   6.866   4.738  0.0909  0.3072 -0.5763
  605MOL0     C81547   8.074   6.803   4.660 -0.3143 -0.2319 -0.2268
  605MOL0     O81548   8.192   6.776   4.730  0.6220 -0.3067 -0.2846
  605MOL0     C81549   8.236   6.639   4.716 -0.2161 -0.4965 -1.4232
  605MOL0     C81550   8.360   6.648   4.626 -0.6653  0.7852  0.2934
  605MOL0     C81551   8.496   6.644   4.701  0.4880 -0.3288  0.2427
  605MOL0     C81552   8.534   6.788   4.749  0.2914  0.3353  0.3708
  605MOL0     C81553   8.678   6.793   4.807 -1.1455 -0.5701  0.7815
  605MOL0     C81554   8.697   6.744   4.954 -0.5667 -0.0154 -0.7846
  605MOL0     C81555   8.841   6.736   5.001  0.3922  0.0453  0.1682
  605MOL0     C81556   8.896   6.869   5.040 -0.8730  0.3042  0.0787
  605MOL0     N81557   8.951   6.943   4.924  0.1981  0.4432  0.2979
  605MOL0     C81558   9.034   6.903   4.818  0.1903  0.0705  0.5563
  605MOL0     C81559   9.008   6.989   4.716  0.1982  0.2216  0.5885
  605MOL0     C81560   9.043   6.971   4.567  0.4517  0.2270 -0.0810
  605MOL0     C81561   8.919   6.914   4.487  0.4003  0.4618 -0.6762
  605MOL0     C81562   8.954   6.839   4.369  0.7853 -0.2591  0.7859
  605MOL0     C81563   8.991   6.919   4.240 -1.1012 -0.1976  0.4713
  605MOL0     O81564   9.082   6.834   4.154 -0.2259  0.2345 -0.2769
  605MOL0     C81565   9.082   6.845   4.017  0.0336 -0.4239 -0.8788
  605MOL0     C81566   9.032   6.959   3.954 -0.1384 -0.4028  0.3210
  605MOL0     C81567   9.053   6.961   3.812  0.1348 -0.6814 -1.2030
  605MOL0     C81568   9.114   6.853   3.740  0.9092 -0.0977  0.2720
  605MOL0     C81569   9.123   6.856   3.596  0.2997 -0.1037  0.1728
  605MOL0     O81570   9.185   6.756   3.522 -0.7781  0.6519  0.0260
  605MOL0     C81571   9.198   6.778   3.392  0.2182  0.3893 -1.1207
  605MOL0     C81572   9.283   6.879   3.340  0.8929 -0.0556 -0.1933
  605MOL0     C81573   9.316   6.890   3.203  1.1887  0.3759 -0.0197
  605MOL0     C81574   9.255   6.802   3.116  0.2374 -0.1001 -0.4456
  605MOL0     O81575   9.268   6.807   2.974 -0.0741  0.2081 -0.3707
  605MOL0     C81576   9.372   6.882   2.913  0.5614 -0.1323  0.8182
  605MOL0     C81577   9.407   6.824   2.774 -0.4964 -0.3892 -0.2852
  605MOL0     C81578   9.409   6.666   2.771 -0.5992  0.4681  0.3754
  605MOL0     C81579   9.413   6.632   2.623  0.4149 -0.5553 -1.0543
  605MOL0     C81580   9.538   6.679   2.542  0.4382 -0.7157  0.6951
  605MOL0     C81581   9.578   6.588   2.431 -0.4679 -0.1331 -0.1338
  605MOL0     C81582   9.588   6.442   2.465 -0.0212  0.0455  0.1594
  605MOL0     C81583   9.661   6.357   2.362  0.3189 -0.2272 -0.0295
  605MOL0    Cl81584   9.590   6.389   2.200 -0.1877  0.5134  0.1617
  605MOL0     C81585   9.171   6.696   3.159  0.0376 -0.1698 -0.0255
  605MOL0     C81586   9.144   6.685   3.294 -0.0256  0.2150 -0.4210
  605MOL0     O81587   9.061   6.945   3.537 -0.4426 -0.4505  0.0404
  605MOL0     C81588   9.155   6.744   3.813 -0.0739  0.7327  1.0127
  605MOL0     C81589   9.138   6.743   3.945 -0.1601  0.7777 -0.7924
  605MOL0     N81590   8.947   7.099   4.768 -0.1877  0.3971  0.5492
  605MOL0     N81591   8.901   7.064   4.881  0.2101  0.8707 -0.0546
  605MOL0     C81592   8.035   6.778   4.529  0.5487  0.5712  0.0677
  605MOL0     C81593   7.913   6.817   4.477 -0.1278  0.1086  0.3298
  605MOL0     C81594   7.497   6.868   4.376 -0.6412 -0.1363  0.7813
  605MOL0     C81595   7.384   6.785   4.378 -0.5168 -0.5461  0.1321
  605MOL0     C81596   7.272   6.809   4.305 -0.3080  0.1919 -0.2283
  605MOL0     C81597   7.256   6.908   4.215  0.7935 -0.4445 -0.0491
  605MOL0     O81598   7.142   6.908   4.126 -0.2267 -0.9021 -0.1555
  605MOL0     C81599   7.143   6.987   4.010 -0.1902 -0.2492 -0.2909
  605MOL0     C81600   7.031   6.946   3.913 -0.1015 -0.6193  1.0569
  605MOL0     C81601   7.041   7.031   3.783 -0.3108  0.0682 -1.1906
  605MOL0     C81602   6.967   7.169   3.788 -0.0611  0.2657  0.7037
  605MOL0     C81603   6.949   7.228   3.657  0.0652  0.0464 -0.2151
  605MOL0     C81604   6.919   7.265   3.541 -0.4308 -0.0674 -0.0573
  605MOL0     C81605   7.357   6.998   4.210 -0.1528  0.6452 -0.0311
  605MOL0     C81606   7.478   6.987   4.291 -0.7917  1.1575 -0.9527
  605MOL0     C81607   7.590   7.083   4.268  0.1930  0.1772  0.3674
  605MOL0     H81608   7.772   6.958   4.732  1.5424  2.2903  1.0947
  605MOL0     H81609   7.983   6.891   4.843 -0.4024  0.3997 -0.5461
  605MOL0     H81610   8.271   6.617   4.818 -1.8619  2.6535 -0.0298
  605MOL0     H81611   8.170   6.561   4.679  0.1134 -0.5987 -1.8065
  605MOL0     H81612   8.344   6.727   4.552 -2.2398  1.5232  1.3709
  605MOL0     H81613   8.367   6.548   4.584  2.3868 -0.4411  3.3064
  605MOL0     H81614   8.571   6.608   4.630 -1.7037 -2.9700 -0.8846
  605MOL0     H81615   8.480   6.573   4.783 -0.3230 -1.1133 -0.5786
  605MOL0     H81616   8.528   6.857   4.665 -1.9594 -0.9270 -0.6085
  605MOL0     H81617   8.468   6.809   4.834  0.8841 -2.7668  1.7843
  605MOL0     H81618   8.744   6.747   4.733 -1.7903  0.2004 -0.2982
  605MOL0     H81619   8.707   6.899   4.810  2.2138 -1.2527 -1.6791
  605MOL0     H81620   8.647   6.806   5.029  0.7400 -1.6680  1.5580
  605MOL0     H81621   8.660   6.642   4.967  0.6207 -0.4426 -0.6613
  605MOL0     H81622   8.898   6.698   4.916 -0.5358 -2.1003  0.4403
  605MOL0     H81623   8.845   6.670   5.088 -1.9276  1.5306  1.5285
  605MOL0     H81624   8.830   6.941   5.089 -0.5702  0.9595 -0.4635
  605MOL0     H81625   8.982   6.852   5.107 -0.9490  1.1447  0.4011
  605MOL0     H81626   9.099   6.817   4.806 -1.4873 -0.9470 -2.3107
  605MOL0     H81627   9.068   7.070   4.527 -0.6796  0.5693  0.0254
  605MOL0     H81628   9.130   6.911   4.539 -2.0330 -2.8296 -1.9042
  605MOL0     H81629   8.859   6.849   4.552  1.0929 -0.7724 -1.2413
  605MOL0     H81630   8.854   6.993   4.449 -2.7563 -2.2244 -1.3488
  605MOL0     H81631   8.869   6.777   4.338  0.2933  0.6920  0.2028
  605MOL0     H81632   9.024   6.757   4.389 -1.2265 -2.5957 -1.0573
  605MOL0     H81633   9.043   7.013   4.263  0.2235 -0.5201 -1.0650
  605MOL0     H81634   8.900   6.946   4.185 -3.0581  1.4384  4.1843
  605MOL0     H81635   8.986   7.043   4.006  0.8951  0.9762 -0.9031
  605MOL0     H81636   9.003   7.045   3.765  0.4415  1.3589  1.8299
  605MOL0     H81637   9.309   6.948   3.420 -1.7204  0.4607  0.2807
  605MOL0     H81638   9.374   6.979   3.181  1.8814  0.7376  2.7961
  605MOL0     H81639   9.335   6.985   2.910 -1.7283 -0.9405 -0.7747
  605MOL0     H81640   9.459   6.873   2.979  0.7329  1.2933  0.8277
  605MOL0     H81641   9.332   6.852   2.700 -1.4938 -2.4890 -0.1293
  605MOL0     H81642   9.503   6.863   2.737  1.2028 -2.7657  1.2781
  605MOL0     H81643   9.495   6.624   2.823  0.7636  0.0381 -2.0746
  605MOL0     H81644   9.321   6.615   2.812 -0.9163 -0.2813 -1.1760
  605MOL0     H81645   9.323   6.676   2.579  0.3378 -1.1112 -1.4664
  605MOL0     H81646   9.397   6.527   2.595 -2.5791 -0.1044 -1.4029
  605MOL0     H81647   9.631   6.677   2.600  1.0696  0.6331 -0.2411
  605MOL0     H81648   9.525   6.782   2.510  1.1495 -0.5223  1.0171
  605MOL0     H81649   9.518   6.612   2.343  1.1400 -3.9686 -2.5189
  605MOL0     H81650   9.678   6.618   2.397 -0.8927  0.4574 -0.8759
  605MOL0     H81651   9.487   6.403   2.477  0.1755 -0.0174  1.7834
  605MOL0     H81652   9.640   6.434   2.561  1.1105 -1.4397 -0.5429
  605MOL0     H81653   9.770   6.372   2.356  0.4971 -1.3987  0.0018
  605MOL0     H81654   9.644   6.254   2.394 -0.0770  0.3730  1.8297
  605MOL0     H81655   9.107   6.637   3.094  1.4207 -1.4911 -0.2621
  605MOL0     H81656   9.086   6.606   3.342  1.0731  0.9383  2.2846
  605MOL0     H81657   9.185   6.648   3.771  3.2717  0.8784  2.7534
  605MOL0     H81658   9.176   6.652   3.991  1.2706  1.0402 -1.3824
  605MOL0     H81659   8.105   6.727   4.463  0.8388  1.4601 -0.3348
  605MOL0     H81660   7.897   6.796   4.371 -0.2485 -2.3036  0.7669
  605MOL0     H81661   7.383   6.696   4.441 -0.6241  2.7700  5.4109
  605MOL0     H81662   7.195   6.732   4.311 -0.8793  0.6982 -0.9232
  605MOL0     H81663   7.240   7.001   3.963 -0.0303  2.3770  0.6749
  605MOL0     H81664   7.114   7.089   4.036  0.7750 -0.1730  0.5355
  605MOL0     H81665   6.930   6.960   3.954 -0.7239 -2.2525  0.1819
  605MOL0     H81666   7.044   6.839   3.899  1.3326 -1.2142  5.4560
  605MOL0     H81667   6.998   6.986   3.693 -1.7299 -0.3917 -0.3273
  605MOL0     H81668   7.147   7.041   3.759 -0.2061 -0.6756 -1.0669
  605MOL0     H81669   6.876   7.157   3.847 -0.1584  2.7009  1.1740
  605MOL0     H81670   7.041   7.231   3.840  1.6706 -0.0079 -1.2814
  605MOL0     H81671   6.904   7.303   3.442 -3.1709  0.7764  0.5776
  605MOL0     H81672   7.351   7.080   4.139  2.3346  0.6365 -0.3322
  605MOL0     H81673   7.570   7.116   4.165 -3.6406 -3.8241 -0.4967
  605MOL0     H81674   7.571   7.167   4.336 -1.5077 -0.1073  0.2921
  605MOL0     H81675   7.688   7.036   4.282 -0.4231 -0.4423  3.4696
  606MOL0     O81676   9.778   6.213   9.082 -0.1796 -0.5338 -0.0876
  606MOL0     C81677   9.706   6.117   9.079 -1.1531 -0.3930 -0.0879
  606MOL0     O81678   9.757   5.988   9.058  0.0923  0.5740  0.1966
  606MOL0     C81679   9.897   5.981   9.062 -0.4116  0.0375  0.7320
  606MOL0     C81680   9.959   5.927   8.943 -0.6562  0.1801 -0.8674
  606MOL0     C81681  10.095   5.923   8.926  0.6449  0.9238  0.1444
  606MOL0     C81682  10.176   5.965   9.025  0.2648 -0.3888 -0.8790
  606MOL0     O81683  10.310   5.973   8.992  0.3694  0.3339 -0.0862
  606MOL0     C81684  10.372   6.103   8.998  0.0122 -0.5574 -0.0084
  606MOL0     C81685  10.522   6.075   9.018  0.0488 -0.3650  0.4081
  606MOL0     C81686  10.576   6.020   8.890  0.0139 -0.6261 -0.5046
  606MOL0     C81687  10.723   6.039   8.879 -0.6379  0.6659  0.1083
  606MOL0     C81688  10.784   6.010   8.746 -0.1076 -0.0464  0.1340
  606MOL0     C81689  10.937   6.028   8.757 -0.2792 -0.0691  1.0054
  606MOL0     C81690  11.020   5.918   8.828 -0.1503 -0.5340  0.0252
  606MOL0     C81691  11.167   5.954   8.815  1.0963 -1.2691  0.1270
  606MOL0     N81692  11.256   5.857   8.886  0.4132 -0.6205  0.5188
  606MOL0     C81693  11.238   5.805   9.004  1.0285 -1.1423  0.2239
  606MOL0     C81694  11.337   5.727   9.036  0.6719  0.3942  0.0413
  606MOL0     C81695  11.361   5.644   9.165  0.0602 -0.2059 -0.3085
  606MOL0     C81696  11.308   5.504   9.132  1.3819  0.1850  0.7541
  606MOL0     C81697  11.415   5.424   9.066 -0.5615  0.1070  0.0005
  606MOL0     C81698  11.360   5.277   9.040 -0.3385 -0.6572  1.2887
  606MOL0     O81699  11.465   5.185   9.032 -0.9592 -0.0962 -0.7239
  606MOL0     C81700  11.531   5.127   9.139  0.0721 -0.7865 -0.3417
  606MOL0     C81701  11.510   5.156   9.275  1.1966 -0.3086  0.7294
  606MOL0     C81702  11.574   5.077   9.372  0.1302  0.8041 -0.3319
  606MOL0     C81703  11.663   4.976   9.333  0.0653  0.8116  0.6310
  606MOL0     C81704  11.719   4.894   9.437 -0.0784  0.1406 -0.3915
  606MOL0     O81705  11.690   4.907   9.568 -0.0334 -0.0116 -0.6745
  606MOL0     C81706  11.670   4.799   9.645  0.0655 -0.5733 -0.1229
  606MOL0     C81707  11.556   4.716   9.624 -0.1659  0.8543  0.0238
  606MOL0     C81708  11.546   4.599   9.704 -0.0023 -0.6414 -0.0451
  606MOL0     C81709  11.627   4.576   9.811  0.4863 -0.0499  0.1011
  606MOL0     O81710  11.593   4.460   9.886 -1.1096  0.0133 -0.2701
  606MOL0     C81711  11.542   4.472  10.019 -0.5807  0.2190 -0.6558
  606MOL0     C81712  11.648   4.441  10.121  0.2071  0.8872 -0.5961
  606MOL0     C81713  11.711   4.307  10.091 -1.3641  0.4524 -0.3085
  606MOL0     C81714  11.823   4.276  10.201 -0.2120 -0.1459  0.9345
  606MOL0     C81715  11.920   4.161  10.179 -0.4216  0.8284  0.3440
  606MOL0     C81716  11.838   4.023  10.168 -0.5145 -0.2651 -0.4136
  606MOL0     C81717  11.943   3.913  10.131 -0.0525 -0.4839  0.3928
  606MOL0     C81718  11.870   3.791  10.084  0.3047  0.4332  0.1396
  606MOL0    Cl81719  11.781   3.808   9.935  0.1283  0.2186  0.0157
  606MOL0     C81720  11.728   4.668   9.840  0.4322  0.2769 -0.7809
  606MOL0     C81721  11.747   4.782   9.758 -0.0266  0.2461 -0.5776
  606MOL0     O81722  11.805   4.805   9.395  0.8421 -0.5351 -0.0567
  606MOL0     C81723  11.702   4.971   9.196 -0.1900  0.1150 -0.6525
  606MOL0     C81724  11.629   5.035   9.103  0.2180 -0.5934  0.6651
  606MOL0     N81725  11.420   5.724   8.921 -0.1754 -0.7333  0.2296
  606MOL0     N81726  11.376   5.808   8.842  0.9213 -0.0938  0.0543
  606MOL0     C81727  10.120   6.001   9.151 -0.2634 -0.9305  0.6637
  606MOL0     C81728   9.985   6.007   9.169  0.5881  0.2961 -0.2381
  606MOL0     C81729   9.565   6.127   9.102 -0.9895 -0.7200  0.8185
  606MOL0     C81730   9.502   6.235   9.046  0.5213  0.3172 -0.3697
  606MOL0     C81731   9.359   6.239   9.051 -0.0203  0.7208  0.6607
  606MOL0     C81732   9.286   6.147   9.116  0.6734  0.1459 -0.7966
  606MOL0     O81733   9.153   6.163   9.118  0.6155 -0.6407  0.1582
  606MOL0     C81734   9.085   6.042   9.105 -0.0892 -0.3432 -0.6414
  606MOL0     C81735   9.095   5.978   8.969  0.2332  0.8283  0.2372
  606MOL0     C81736   8.981   5.879   8.940 -0.2375  0.0329  0.2968
  606MOL0     C81737   8.971   5.853   8.787 -1.1907 -0.6858 -0.5623
  606MOL0     C81738   8.879   5.749   8.759 -0.1437  0.0434  0.2790
  606MOL0     C81739   8.794   5.666   8.762  1.1038  0.2908 -1.1697
  606MOL0     C81740   9.358   6.051   9.182 -0.4638  0.9943  0.3197
  606MOL0     C81741   9.494   6.031   9.170  0.6944  0.7134 -0.6224
  606MOL0     C81742   9.544   5.915   9.249 -0.3061 -0.5055 -0.4273
  606MOL0     H81743   9.896   5.902   8.859 -0.0207 -2.8930 -0.5334
  606MOL0     H81744  10.147   5.909   8.832  1.0552  1.4886  0.2805
  606MOL0     H81745  10.362   6.151   8.901  1.8939 -0.7227 -0.3270
  606MOL0     H81746  10.344   6.156   9.090  2.3498  1.7722 -0.5404
  606MOL0     H81747  10.536   6.002   9.098  0.2727  1.1549  1.7863
  606MOL0     H81748  10.560   6.174   9.044 -4.2744  1.0668  2.0398
  606MOL0     H81749  10.525   6.059   8.801 -0.7520 -0.5992 -0.0633
  606MOL0     H81750  10.546   5.917   8.908  0.7693 -0.4978  1.7001
  606MOL0     H81751  10.751   6.143   8.899  1.4969  0.5460 -1.7717
  606MOL0     H81752  10.758   5.972   8.959 -3.4511 -1.7159 -0.4956
  606MOL0     H81753  10.785   5.907   8.709 -0.1280  0.3678 -1.0566
  606MOL0     H81754  10.741   6.075   8.669  0.3843  1.7662  1.3254
  606MOL0     H81755  10.969   6.006   8.655 -2.6828 -4.4511  0.9714
  606MOL0     H81756  10.956   6.130   8.793  1.4243 -0.0022  0.0199
  606MOL0     H81757  10.993   5.816   8.800 -0.0707 -0.8673  1.1223
  606MOL0     H81758  11.002   5.926   8.936  1.4902 -1.0520  0.3647
  606MOL0     H81759  11.194   5.965   8.709  0.8509  0.8189  0.2255
  606MOL0     H81760  11.188   6.048   8.867  0.3558 -1.9161  1.6505
  606MOL0     H81761  11.147   5.814   9.062 -1.0074  0.0446 -2.9391
  606MOL0     H81762  11.458   5.651   9.215 -1.2014 -0.1313  2.3073
  606MOL0     H81763  11.298   5.676   9.249 -1.9140 -1.1391 -1.3616
  606MOL0     H81764  11.281   5.456   9.227  0.7024  0.3979  0.6789
  606MOL0     H81765  11.218   5.514   9.071  0.6952 -1.4929  1.4288
  606MOL0     H81766  11.502   5.411   9.131 -0.2439 -2.5086 -0.8371
  606MOL0     H81767  11.448   5.473   8.974 -0.7932  1.0056  0.3870
  606MOL0     H81768  11.309   5.269   8.944  3.8018 -0.8910 -1.1128
  606MOL0     H81769  11.288   5.253   9.119  0.6030  0.6020  2.5920
  606MOL0     H81770  11.431   5.222   9.310  1.7159 -0.0365  1.4228
  606MOL0     H81771  11.558   5.085   9.479 -0.5053 -2.3491 -0.0813
  606MOL0     H81772  11.494   4.723   9.536 -2.3272  1.9416  1.5427
  606MOL0     H81773  11.466   4.526   9.690 -1.2017  0.5878  0.1816
  606MOL0     H81774  11.507   4.573  10.040  2.2601  0.8139  1.8421
  606MOL0     H81775  11.466   4.395  10.037 -0.9237 -0.1214 -3.2026
  606MOL0     H81776  11.726   4.517  10.133  2.3014 -1.4881  2.4600
  606MOL0     H81777  11.595   4.435  10.216  0.4460 -1.1291 -0.5520
  606MOL0     H81778  11.632   4.231  10.100  1.0001 -2.2636 -1.1814
  606MOL0     H81779  11.757   4.305   9.992 -0.1730  0.7357  0.2305
  606MOL0     H81780  11.777   4.262  10.300  0.9634 -1.0209  1.3863
  606MOL0     H81781  11.891   4.361  10.193 -1.5835  0.7757 -4.7267
  606MOL0     H81782  11.994   4.159  10.259  1.2525 -0.2479 -1.1480
  606MOL0     H81783  11.978   4.175  10.087 -2.0463  0.2699 -0.8289
  606MOL0     H81784  11.798   4.004  10.268 -0.8224  1.8290 -0.0941
  606MOL0     H81785  11.756   4.033  10.096 -0.8819 -0.6423 -0.0564
  606MOL0     H81786  12.013   3.887  10.211 -1.2175 -4.3999  0.3553
  606MOL0     H81787  12.003   3.948  10.046 -1.7035  2.9851  0.4887
  606MOL0     H81788  11.952   3.722  10.062  0.4478  1.0222 -1.2400
  606MOL0     H81789  11.804   3.749  10.161  1.5213 -0.2371  0.8479
  606MOL0     H81790  11.801   4.646   9.917 -0.0885 -1.1093 -0.6476
  606MOL0     H81791  11.829   4.845   9.790 -1.0535  1.2390  0.2179
  606MOL0     H81792  11.780   4.915   9.145  0.6056  0.2890  0.3240
  606MOL0     H81793  11.639   5.008   8.998 -0.2425  1.1146  0.1392
  606MOL0     H81794  10.193   6.041   9.221 -0.6442  2.3337 -0.6426
  606MOL0     H81795   9.946   6.053   9.258 -1.9562 -2.1775  0.0652
  606MOL0     H81796   9.566   6.315   9.008  1.4859 -0.7000 -0.9317
  606MOL0     H81797   9.315   6.326   9.004  2.0893  1.3420 -0.2760
  606MOL0     H81798   8.982   6.061   9.137  0.7126 -0.2906  2.1251
  606MOL0     H81799   9.111   5.972   9.185 -0.2383  2.8927  2.4370
  606MOL0     H81800   9.195   5.933   8.965  1.2336  2.9299 -0.1823
  606MOL0     H81801   9.109   6.057   8.894  0.7409  0.4262 -0.1087
  606MOL0     H81802   8.886   5.919   8.976 -0.4192 -1.9277  2.2151
  606MOL0     H81803   9.011   5.789   8.994  1.8993 -1.2979 -2.7885
  606MOL0     H81804   8.939   5.943   8.734 -0.9091 -0.3893 -0.2392
  606MOL0     H81805   9.070   5.822   8.753 -1.0316  1.7129 -2.5679
  606MOL0     H81806   8.714   5.597   8.744 -1.5395  2.2544  1.8276
  606MOL0     H81807   9.298   5.983   9.242 -1.8793  0.9066 -1.1238
  606MOL0     H81808   9.526   5.834   9.177 -0.6729  2.0587 -3.4270
  606MOL0     H81809   9.647   5.922   9.286  0.1761  2.2992 -2.0062
  606MOL0     H81810   9.481   5.910   9.338 -0.5137 -3.1695 -0.6292
  607MOL0     O81811   4.387   1.143   5.414 -0.0421  0.7330  0.1977
  607MOL0     C81812   4.406   1.228   5.324 -0.3084  0.3906  0.0865
  607MOL0     O81813   4.524   1.291   5.304 -0.4377 -0.3655  0.1623
  607MOL0     C81814   4.618   1.242   5.392 -0.3823  0.9585 -0.0672
  607MOL0     C81815   4.627   1.295   5.518  0.0217 -0.1819 -0.4931
  607MOL0     C81816   4.725   1.241   5.611 -0.2640  0.1723 -0.1222
  607MOL0     C81817   4.807   1.143   5.571 -0.5734 -0.1254 -0.6773
  607MOL0     O81818   4.905   1.096   5.656  0.7041 -0.3625  0.3037
  607MOL0     C81819   4.992   1.195   5.716  0.6333 -0.3195 -0.4690
  607MOL0     C81820   5.080   1.244   5.609  0.4252  0.5183  0.9531
  607MOL0     C81821   5.218   1.280   5.663 -0.7590  0.1164 -0.8693
  607MOL0     C81822   5.337   1.182   5.653 -0.1100 -0.1383  0.4195
  607MOL0     C81823   5.463   1.225   5.730  0.5219 -0.2590 -0.3465
  607MOL0     C81824   5.444   1.222   5.883 -0.3991 -0.5771 -0.4874
  607MOL0     C81825   5.574   1.270   5.952  0.4564 -0.5831 -0.5166
  607MOL0     C81826   5.553   1.291   6.102  0.0697  0.5916 -0.2555
  607MOL0     N81827   5.684   1.333   6.167 -0.4226  0.0428 -0.2963
  607MOL0     C81828   5.758   1.444   6.143 -0.2425  0.0336  0.4748
  607MOL0     C81829   5.878   1.410   6.199 -0.4621 -1.0378  1.6286
  607MOL0     C81830   6.004   1.497   6.209 -0.1815 -0.5757  0.7712
  607MOL0     C81831   6.098   1.483   6.083  0.5639  0.2739 -0.4932
  607MOL0     C81832   6.142   1.341   6.056 -0.1627 -0.0311  0.0257
  607MOL0     C81833   6.240   1.320   5.936  0.3350  0.2358  1.0169
  607MOL0     O81834   6.358   1.413   5.942  0.0912  0.1497 -0.6923
  607MOL0     C81835   6.472   1.388   5.871  0.0987  0.3713 -0.4918
  607MOL0     C81836   6.500   1.274   5.796  0.2874  0.3818  0.0324
  607MOL0     C81837   6.598   1.265   5.706 -0.2816 -0.8508 -0.2611
  607MOL0     C81838   6.700   1.370   5.704  0.0961 -0.5809 -0.4103
  607MOL0     C81839   6.825   1.364   5.619  0.5738 -0.2209 -0.2449
  607MOL0     O81840   6.921   1.459   5.635  0.2215  0.1564 -0.2963
  607MOL0     C81841   7.028   1.462   5.551 -0.0673 -0.7572 -0.2154
  607MOL0     C81842   7.157   1.431   5.596  0.5620  0.5692 -1.5307
  607MOL0     C81843   7.270   1.451   5.515 -1.1708  1.4292 -0.1581
  607MOL0     C81844   7.264   1.488   5.381  1.1713 -0.4731 -0.3225
  607MOL0     O81845   7.371   1.478   5.297  0.3344  0.9198 -0.0356
  607MOL0     C81846   7.406   1.574   5.198  0.0512 -0.7201 -0.3453
  607MOL0     C81847   7.502   1.680   5.266 -0.4675  0.1549 -0.4060
  607MOL0     C81848   7.413   1.782   5.339  0.9973  0.7226 -0.1289
  607MOL0     C81849   7.511   1.875   5.413 -0.2472 -0.1402 -0.8011
  607MOL0     C81850   7.445   1.983   5.510  0.8487 -0.6864  0.0187
  607MOL0     C81851   7.393   2.104   5.429 -0.4742  0.0786 -0.4601
  607MOL0     C81852   7.369   2.228   5.516 -0.8683 -0.7793 -0.9222
  607MOL0     C81853   7.243   2.219   5.590 -0.0004 -0.5053  0.1496
  607MOL0    Cl81854   7.267   2.128   5.738 -0.0975 -0.0132 -0.3397
  607MOL0     C81855   7.134   1.518   5.331  0.2926  0.3969 -0.2795
  607MOL0     C81856   7.016   1.509   5.413  1.8794 -0.6360 -0.0234
  607MOL0     O81857   6.818   1.280   5.528 -0.6468 -0.2954  0.2314
  607MOL0     C81858   6.684   1.474   5.786 -0.1289 -0.1870  0.4205
  607MOL0     C81859   6.569   1.492   5.863  0.0051 -0.3500 -0.7558
  607MOL0     N81860   5.857   1.292   6.270 -0.0942 -0.9904  0.4262
  607MOL0     N81861   5.753   1.237   6.238  0.0037 -0.1478 -0.7368
  607MOL0     C81862   4.800   1.097   5.442 -0.7073 -0.9237  0.1208
  607MOL0     C81863   4.706   1.150   5.349  0.8452  0.3724 -0.2145
  607MOL0     C81864   4.287   1.265   5.250  0.3319  0.2843  0.0784
  607MOL0     C81865   4.312   1.278   5.112  1.0387  0.0324  0.0472
  607MOL0     C81866   4.210   1.313   5.024  0.1222  0.4896  0.2938
  607MOL0     C81867   4.082   1.334   5.070 -0.5344 -0.2207 -0.0154
  607MOL0     O81868   3.977   1.368   4.987 -0.5997 -0.5453 -0.6923
  607MOL0     C81869   3.900   1.487   5.032  0.1560 -0.4041 -0.3438
  607MOL0     C81870   3.799   1.539   4.930 -1.0404 -0.1390  0.3046
  607MOL0     C81871   3.710   1.420   4.863 -0.6624 -0.5977 -0.8475
  607MOL0     C81872   3.639   1.468   4.736  0.4520  0.8366  0.1444
  607MOL0     C81873   3.533   1.556   4.795 -0.0474 -0.2765  0.7804
  607MOL0     C81874   3.447   1.636   4.835 -0.8203  0.6766 -0.1056
  607MOL0     C81875   4.060   1.326   5.207  0.1283 -0.2031  0.3006
  607MOL0     C81876   4.150   1.280   5.300 -0.9318 -0.2480 -0.5951
  607MOL0     C81877   4.111   1.247   5.445  0.2130  0.2855  0.1335
  607MOL0     H81878   4.559   1.365   5.565  1.3611 -0.3451  1.8433
  607MOL0     H81879   4.728   1.283   5.710 -0.1209  1.8197 -0.7923
  607MOL0     H81880   4.937   1.272   5.772 -1.0897 -0.2341 -2.1820
  607MOL0     H81881   5.059   1.152   5.791  2.4596 -0.2048 -1.9835
  607MOL0     H81882   5.029   1.337   5.582 -3.8212 -2.1537 -1.3472
  607MOL0     H81883   5.090   1.167   5.531  0.7796  1.6344 -0.1336
  607MOL0     H81884   5.213   1.313   5.767 -0.8806 -1.8269 -0.2266
  607MOL0     H81885   5.259   1.364   5.605 -1.0577  1.7083  1.1181
  607MOL0     H81886   5.304   1.084   5.688  1.0330 -1.2213 -1.3435
  607MOL0     H81887   5.359   1.151   5.550 -0.3879 -4.0758  1.3957
  607MOL0     H81888   5.550   1.160   5.718  0.8561  0.3019 -1.0512
  607MOL0     H81889   5.491   1.324   5.692 -2.2412  0.4634 -0.7553
  607MOL0     H81890   5.363   1.288   5.915  1.0924  0.4698  1.3646
  607MOL0     H81891   5.412   1.119   5.903 -3.2140 -0.1605 -2.3710
  607MOL0     H81892   5.599   1.367   5.909 -0.9796 -0.6799 -1.6712
  607MOL0     H81893   5.656   1.203   5.925  0.3814 -2.2702  2.9024
  607MOL0     H81894   5.489   1.379   6.113 -0.9088 -0.0851 -0.5293
  607MOL0     H81895   5.521   1.195   6.140  3.5577 -0.4137  0.5547
  607MOL0     H81896   5.737   1.535   6.088 -0.5615 -2.3063 -3.7167
  607MOL0     H81897   5.968   1.599   6.225 -0.6627 -1.0650  3.0971
  607MOL0     H81898   6.056   1.478   6.303 -2.6676  0.6230  2.4853
  607MOL0     H81899   6.046   1.521   5.995 -0.8614  1.4455  0.7904
  607MOL0     H81900   6.182   1.552   6.092  0.3590  0.4857 -0.1848
  607MOL0     H81901   6.051   1.283   6.035 -1.1660  1.6060 -0.3279
  607MOL0     H81902   6.191   1.299   6.145 -0.6003 -0.0502  0.2635
  607MOL0     H81903   6.186   1.342   5.842 -2.2794  1.6547  2.7128
  607MOL0     H81904   6.274   1.217   5.928 -0.3145  0.1078 -0.5965
  607MOL0     H81905   6.438   1.185   5.800 -0.2971  0.7511 -0.5883
  607MOL0     H81906   6.629   1.173   5.657  1.0072 -2.3358  3.0604
  607MOL0     H81907   7.178   1.395   5.696  0.9902  3.9872 -0.2579
  607MOL0     H81908   7.369   1.448   5.559 -0.8628 -0.0837 -0.9101
  607MOL0     H81909   7.454   1.519   5.116  4.6487 -0.7017  1.9942
  607MOL0     H81910   7.318   1.629   5.162  0.2387  0.2330  0.6214
  607MOL0     H81911   7.582   1.633   5.325 -2.0701 -1.7193  0.4023
  607MOL0     H81912   7.559   1.737   5.192  0.5935 -0.1837  0.1259
  607MOL0     H81913   7.364   1.844   5.264  1.3341  1.9129  0.6046
  607MOL0     H81914   7.339   1.741   5.408 -0.8029  2.0053 -1.2057
  607MOL0     H81915   7.582   1.911   5.339 -0.3795 -2.0804 -1.9482
  607MOL0     H81916   7.570   1.809   5.477 -4.3774 -4.3249 -0.7310
  607MOL0     H81917   7.516   2.022   5.583 -1.2611  1.6596  0.9573
  607MOL0     H81918   7.366   1.939   5.573  3.0235 -0.1265  3.3916
  607MOL0     H81919   7.477   2.136   5.367 -0.9657  1.5973 -0.3775
  607MOL0     H81920   7.311   2.081   5.360  1.0399 -0.3610 -2.2062
  607MOL0     H81921   7.358   2.314   5.450  0.2581 -0.0673 -0.2245
  607MOL0     H81922   7.445   2.252   5.592 -2.1659  0.8653 -0.0788
  607MOL0     H81923   7.213   2.321   5.611 -1.3731 -0.6281 -1.0363
  607MOL0     H81924   7.170   2.174   5.523  1.8584  0.6949 -2.9079
  607MOL0     H81925   7.120   1.548   5.228 -3.2856 -1.4705 -0.4991
  607MOL0     H81926   6.917   1.532   5.376  0.7212 -2.9027  1.4479
  607MOL0     H81927   6.753   1.556   5.769  0.9821 -0.8467  1.5574
  607MOL0     H81928   6.545   1.587   5.909 -0.4875  1.2174 -3.9761
  607MOL0     H81929   4.875   1.027   5.406 -2.0279 -1.6012 -1.4056
  607MOL0     H81930   4.696   1.103   5.252 -1.0043  1.3204 -0.5462
  607MOL0     H81931   4.410   1.270   5.066  0.3544  0.4720 -1.5593
  607MOL0     H81932   4.229   1.313   4.917  1.1341 -3.3942  0.2861
  607MOL0     H81933   3.969   1.567   5.059  1.2944 -1.4709 -0.0027
  607MOL0     H81934   3.841   1.460   5.120  0.0058 -0.1764 -0.3724
  607MOL0     H81935   3.868   1.579   4.855  0.2726 -1.8900  0.5153
  607MOL0     H81936   3.752   1.633   4.960  1.7614  2.0501 -1.5980
  607MOL0     H81937   3.633   1.384   4.932  1.1690 -7.0090 -1.5855
  607MOL0     H81938   3.783   1.342   4.843  0.6734  0.4336 -0.1733
  607MOL0     H81939   3.709   1.519   4.669  0.4753  3.6275  2.1416
  607MOL0     H81940   3.592   1.380   4.691  2.1322  0.4198 -0.8834
  607MOL0     H81941   3.373   1.701   4.876 -1.2287  1.4355 -1.9582
  607MOL0     H81942   3.960   1.343   5.244  1.0130  0.2524  2.6572
  607MOL0     H81943   4.031   1.313   5.476  1.3128  1.8463 -0.2375
  607MOL0     H81944   4.066   1.148   5.456  1.9672 -0.6987 -0.9719
  607MOL0     H81945   4.188   1.251   5.523 -1.4709  1.7414  1.8157
  608MOL0     O81946  10.540  10.440   0.431  0.7608 -0.1687 -0.3748
  608MOL0     C81947  10.575  10.484   0.326 -0.0914  0.0451  1.7253
  608MOL0     O81948  10.508  10.453   0.208 -0.8903  0.1315  0.3455
  608MOL0     C81949  10.408  10.362   0.216 -0.3299 -0.0656 -0.5280
  608MOL0     C81950  10.425  10.228   0.256  0.2679 -0.3971 -0.0397
  608MOL0     C81951  10.322  10.135   0.256 -0.3346  0.2059 -0.3544
  608MOL0     C81952  10.200  10.166   0.206  0.1036 -0.1322 -0.5963
  608MOL0     O81953  10.085  10.091   0.215 -0.6760 -0.1218 -0.0377
  608MOL0     C81954  10.099   9.951   0.177  0.2032 -0.5488 -0.4457
  608MOL0     C81955   9.974   9.897   0.126  0.0592 -0.4723 -0.3693
  608MOL0     C81956   9.925   9.950  -0.001 -0.1097 -0.7143  0.5873
  608MOL0     C81957   9.775   9.915  -0.014 -0.5764 -1.7147  0.4297
  608MOL0     C81958   9.723   9.944  -0.152  0.0454 -0.7900 -0.6211
  608MOL0     C81959   9.579   9.882  -0.180 -0.4700 -0.4087 -0.1515
  608MOL0     C81960   9.559   9.887  -0.333  0.2165  0.1538  0.7803
  608MOL0     C81961   9.407   9.893  -0.360  0.0998  1.1188  0.0478
  608MOL0     N81962   9.349   9.761  -0.337 -0.2109  0.5005  0.4000
  608MOL0     C81963   9.297   9.676  -0.427  0.6997  0.5610  0.5267
  608MOL0     C81964   9.225   9.586  -0.363  0.2008 -0.1550 -0.7328
  608MOL0     C81965   9.144   9.468  -0.415 -0.1936 -0.4909  0.5136
  608MOL0     C81966   9.230   9.342  -0.417 -0.1229  0.4446  0.6827
  608MOL0     C81967   9.148   9.209  -0.385  1.1347  0.1457  1.0649
  608MOL0     C81968   9.245   9.108  -0.332 -0.7119  0.9051 -0.7090
  608MOL0     O81969   9.190   8.981  -0.295  0.0793  0.9029  0.4745
  608MOL0     C81970   9.147   8.885  -0.392 -1.4815 -0.4845  0.5753
  608MOL0     C81971   9.072   8.780  -0.352 -0.0860  0.2853 -0.2521
  608MOL0     C81972   9.027   8.687  -0.444  0.1264 -0.1137  0.4344
  608MOL0     C81973   9.068   8.679  -0.569  0.6494 -0.0264 -0.1695
  608MOL0     C81974   9.009   8.579  -0.661  1.0840 -0.7835  0.3948
  608MOL0     O81975   9.093   8.549  -0.770  0.2936  0.6178  0.8761
  608MOL0     C81976   9.047   8.453  -0.854 -0.3884  0.7325  0.5702
  608MOL0     C81977   9.018   8.499  -0.985  0.3559  0.4936  0.4404
  608MOL0     C81978   8.966   8.410  -1.083 -0.4062 -0.4053 -0.6670
  608MOL0     C81979   8.968   8.273  -1.050  0.7195  0.1471  0.5074
  608MOL0     O81980   8.929   8.178  -1.138  0.6984  0.4778  0.0298
  608MOL0     C81981   8.817   8.218  -1.224 -0.0291 -1.1674 -0.7365
  608MOL0     C81982   8.734   8.088  -1.258  1.1494  0.0585 -0.8845
  608MOL0     C81983   8.813   7.984  -1.348  0.1707  0.2025  0.0181
  608MOL0     C81984   8.834   8.053  -1.482 -0.2013  0.2342  1.0506
  608MOL0     C81985   8.901   7.957  -1.580 -0.7900 -0.2200 -0.4400
  608MOL0     C81986   8.969   8.036  -1.691 -0.2641  0.1828 -0.0011
  608MOL0     C81987   8.889   8.136  -1.777 -0.2862  0.2267  1.0589
  608MOL0     C81988   8.968   8.276  -1.783  0.1711  0.6384 -0.0585
  608MOL0    Cl81989   9.145   8.252  -1.843 -0.0661  0.0388  0.2385
  608MOL0     C81990   8.987   8.228  -0.921 -0.3078  0.5133  0.0347
  608MOL0     C81991   9.034   8.319  -0.822 -0.0961 -0.1331 -0.2055
  608MOL0     O81992   8.890   8.545  -0.642 -0.2274  0.1769 -0.1940
  608MOL0     C81993   9.158   8.784  -0.612 -0.1894 -0.2835 -0.0484
  608MOL0     C81994   9.195   8.889  -0.526 -0.6675 -0.7155 -0.7519
  608MOL0     N81995   9.236   9.610  -0.228 -0.2877  0.3129 -0.0047
  608MOL0     N81996   9.311   9.709  -0.217 -0.3853  0.2853  0.3601
  608MOL0     C81997  10.180  10.298   0.175  0.8420 -0.3194  0.6438
  608MOL0     C81998  10.277  10.403   0.180 -0.1009  0.4505 -0.2889
  608MOL0     C81999  10.683  10.591   0.325 -0.4315 -0.5884  0.3980
  608MOL0     C82000  10.766  10.580   0.440 -0.1989 -0.1677  0.7384
  608MOL0     C82001  10.881  10.660   0.456 -0.3025 -0.2202 -0.3829
  608MOL0     C82002  10.916  10.750   0.352  0.3320  1.0066 -1.5666
  608MOL0     O82003  11.033  10.816   0.341 -0.3717  0.1076 -0.0914
  608MOL0     C82004  11.152  10.741   0.334 -0.6879  0.4752 -1.0930
  608MOL0     C82005  11.221  10.750   0.190 -0.4562  0.4412 -0.1415
  608MOL0     C82006  11.138  10.700   0.074 -0.5102  0.8642  0.5541
  608MOL0     C82007  11.209  10.738  -0.058  0.6677  0.4503 -0.0018
  608MOL0     C82008  11.346  10.686  -0.074  0.2920  0.1650 -0.4644
  608MOL0     C82009  11.456  10.641  -0.086 -0.1715  0.6361 -0.4055
  608MOL0     C82010  10.832  10.767   0.244  0.1027  0.1415 -0.6862
  608MOL0     C82011  10.714  10.689   0.228 -1.1176  0.0933  1.5575
  608MOL0     C82012  10.643  10.707   0.093  1.1122 -0.8173  0.4370
  608MOL0     H82013  10.514  10.184   0.300 -0.5302  0.4553  2.6037
  608MOL0     H82014  10.341  10.036   0.296 -1.7631 -0.8255 -2.1071
  608MOL0     H82015  10.174   9.940   0.098 -0.7421  1.6808 -1.7543
  608MOL0     H82016  10.133   9.890   0.261 -2.1597 -2.1693 -0.5836
  608MOL0     H82017   9.892   9.893   0.199  1.5925  0.1529  1.4536
  608MOL0     H82018  10.000   9.795   0.095 -0.9001 -0.1488 -2.4631
  608MOL0     H82019   9.985   9.902  -0.079  2.6850  0.3379  1.9731
  608MOL0     H82020   9.933  10.059   0.004 -1.3547 -0.5134 -0.8181
  608MOL0     H82021   9.747   9.811   0.006 -1.6823 -1.8116 -1.3936
  608MOL0     H82022   9.728   9.988   0.053  0.3862 -1.5142  0.9029
  608MOL0     H82023   9.723  10.052  -0.166 -3.1060 -0.6437 -0.2737
  608MOL0     H82024   9.785   9.893  -0.226  0.6043  1.6787 -1.9466
  608MOL0     H82025   9.570   9.784  -0.134  0.3108 -0.5005 -0.1832
  608MOL0     H82026   9.500   9.935  -0.126 -0.6242  0.2563 -1.0005
  608MOL0     H82027   9.597   9.795  -0.377 -1.5100 -0.5627  0.7242
  608MOL0     H82028   9.606   9.973  -0.382  2.1754  0.3089  2.8024
  608MOL0     H82029   9.352   9.970  -0.305 -0.9200  0.7133 -0.3860
  608MOL0     H82030   9.405   9.926  -0.464 -1.0435  1.0842  0.0502
  608MOL0     H82031   9.306   9.683  -0.535 -1.2171  2.4415  0.4210
  608MOL0     H82032   9.053   9.453  -0.356  0.6555 -1.0497  1.7405
  608MOL0     H82033   9.116   9.500  -0.515  1.5964 -1.5387 -0.3703
  608MOL0     H82034   9.271   9.332  -0.518 -2.6462 -4.6795 -0.1677
  608MOL0     H82035   9.314   9.363  -0.351  0.9140 -1.3386 -0.0051
  608MOL0     H82036   9.089   9.181  -0.473  1.5893  1.6088  0.2521
  608MOL0     H82037   9.085   9.225  -0.298 -0.6930  1.1316 -0.3777
  608MOL0     H82038   9.288   9.157  -0.244 -0.0258  1.1219 -1.1551
  608MOL0     H82039   9.327   9.103  -0.405  0.1388 -0.2645  0.2798
  608MOL0     H82040   9.048   8.785  -0.247  0.2094 -6.3222  0.5339
  608MOL0     H82041   8.954   8.622  -0.395  0.2346  0.1533  0.9648
  608MOL0     H82042   9.031   8.606  -1.001 -2.2205  1.2729  2.7379
  608MOL0     H82043   8.940   8.454  -1.179  2.4203  1.7587 -0.5595
  608MOL0     H82044   8.746   8.287  -1.178  0.5747 -0.2034 -1.2236
  608MOL0     H82045   8.852   8.271  -1.313 -0.5755  2.5707  1.0758
  608MOL0     H82046   8.708   8.024  -1.173  2.7084 -0.4552 -0.7643
  608MOL0     H82047   8.639   8.112  -1.305  1.3388 -2.4251 -2.6921
  608MOL0     H82048   8.913   7.962  -1.310 -0.8916 -0.1237  2.8532
  608MOL0     H82049   8.759   7.890  -1.365  1.5145 -0.8143  1.1509
  608MOL0     H82050   8.893   8.145  -1.475  0.2037  0.3849 -2.5900
  608MOL0     H82051   8.738   8.074  -1.530 -0.0761  0.1403  0.7617
  608MOL0     H82052   8.829   7.882  -1.614  0.6620 -1.7733 -0.2115
  608MOL0     H82053   8.974   7.893  -1.530 -0.2479  0.8616  0.1912
  608MOL0     H82054   9.065   8.072  -1.652  0.2908 -0.8054 -0.4119
  608MOL0     H82055   8.985   7.959  -1.766  0.2045 -0.7180  0.9876
  608MOL0     H82056   8.788   8.159  -1.742 -0.4721  2.5278 -0.8149
  608MOL0     H82057   8.885   8.104  -1.881  4.0581  1.6642  0.2630
  608MOL0     H82058   8.908   8.338  -1.850 -2.5979 -1.5896  0.1783
  608MOL0     H82059   8.962   8.331  -1.689  1.3659 -1.3641  1.2454
  608MOL0     H82060   8.957   8.124  -0.906  4.6149 -1.2239 -0.1532
  608MOL0     H82061   9.044   8.275  -0.723  1.9641  0.1133 -0.2511
  608MOL0     H82062   9.170   8.796  -0.719  2.9716  1.1670  0.3594
  608MOL0     H82063   9.263   8.965  -0.561  0.6279  1.2005  4.9553
  608MOL0     H82064  10.078  10.316   0.141  0.7649  1.8344  1.8151
  608MOL0     H82065  10.253  10.503   0.145  0.5445  1.1387  1.1564
  608MOL0     H82066  10.755  10.510   0.523  0.4459  1.3493  2.1716
  608MOL0     H82067  10.953  10.636   0.534 -4.0241 -3.9836  2.3722
  608MOL0     H82068  11.128  10.634   0.337  1.5404 -0.0517  1.5164
  608MOL0     H82069  11.221  10.767   0.414 -2.9854  2.1161  0.4769
  608MOL0     H82070  11.311  10.688   0.197 -1.5716 -1.1100  1.1341
  608MOL0     H82071  11.242  10.856   0.173 -1.4320  1.0804  2.2766
  608MOL0     H82072  11.036  10.736   0.063 -0.0690  3.0238  2.6909
  608MOL0     H82073  11.132  10.591   0.080  1.1828  0.5360 -2.0290
  608MOL0     H82074  11.166  10.691  -0.146  3.4556  0.1895 -1.3350
  608MOL0     H82075  11.206  10.846  -0.068 -4.3721  0.4892 -0.2351
  608MOL0     H82076  11.548  10.590  -0.106 -1.2309 -1.0550 -1.2008
  608MOL0     H82077  10.851  10.836   0.163  0.4869  0.4080 -0.3768
  608MOL0     H82078  10.535  10.728   0.096  0.9289 -1.0987 -2.0255
  608MOL0     H82079  10.699  10.777   0.031  0.6946 -1.7285 -1.0230
  608MOL0     H82080  10.643  10.613   0.038  0.3142 -1.0587  0.8269
  609MOL0     O82081   3.808  10.791  10.760 -0.4954 -0.4570 -0.0237
  609MOL0     C82082   3.727  10.697  10.736 -1.5274 -0.1146 -1.0815
  609MOL0     O82083   3.767  10.580  10.680 -0.6418 -0.2913 -0.0005
  609MOL0     C82084   3.907  10.562  10.679 -0.0286 -0.4195 -0.5051
  609MOL0     C82085   3.985  10.604  10.574  0.7677  0.1031  0.3665
  609MOL0     C82086   4.119  10.579  10.564 -0.3700 -0.0989 -0.6779
  609MOL0     C82087   4.192  10.499  10.656  1.2788 -0.3139 -0.3000
  609MOL0     O82088   4.320  10.467  10.630  0.0991 -0.0143 -0.7613
  609MOL0     C82089   4.410  10.460  10.741  0.3895 -0.1816 -0.0509
  609MOL0     C82090   4.556  10.429  10.691  1.4163  0.5702  1.3809
  609MOL0     C82091   4.588  10.286  10.627 -0.0499 -0.6375 -0.6243
  609MOL0     C82092   4.727  10.262  10.592 -0.1771  0.3445 -0.8526
  609MOL0     C82093   4.743  10.103  10.571 -0.5761  0.0416 -1.3903
  609MOL0     C82094   4.889  10.053  10.545 -0.4812  0.2518  0.0062
  609MOL0     C82095   4.898   9.906  10.516 -0.0633  0.4192  0.1020
  609MOL0     C82096   4.874   9.872  10.371  1.0229  0.1909 -0.4290
  609MOL0     N82097   4.994   9.881  10.294 -0.0921  0.3873  0.2934
  609MOL0     C82098   5.002   9.846  10.166  0.2375  0.0578  0.4975
  609MOL0     C82099   5.110   9.909  10.111 -0.5462 -0.9464  0.0722
  609MOL0     C82100   5.143   9.909   9.967 -0.5822 -0.0570 -0.2440
  609MOL0     C82101   5.166   9.767   9.915  0.2484 -0.4757  0.5004
  609MOL0     C82102   5.160   9.765   9.755  0.3893  0.1943 -0.8740
  609MOL0     C82103   5.169   9.625   9.707  0.2193 -0.7440 -0.1362
  609MOL0     O82104   5.200   9.621   9.561 -0.4622  0.7461 -0.3670
  609MOL0     C82105   5.200   9.496   9.492  0.3478 -0.1376  0.1732
  609MOL0     C82106   5.204   9.507   9.353  0.1711  0.8449  0.5903
  609MOL0     C82107   5.198   9.397   9.270 -0.1463 -0.7191  0.4213
  609MOL0     C82108   5.175   9.282   9.332  0.6205 -0.0033  0.0196
  609MOL0     C82109   5.161   9.159   9.238 -0.8654  0.2206  0.8428
  609MOL0     O82110   5.127   9.040   9.285  0.4688 -0.0011 -0.3051
  609MOL0     C82111   5.126   8.935   9.195  0.0421 -0.0148  0.3893
  609MOL0     C82112   5.214   8.921   9.083 -0.3547 -0.1943 -0.3482
  609MOL0     C82113   5.183   8.822   8.985  0.1096  0.1854 -0.1469
  609MOL0     C82114   5.113   8.713   9.016  0.2199  0.9193  0.1727
  609MOL0     O82115   5.121   8.614   8.919  0.0966  0.2719  0.2634
  609MOL0     C82116   5.057   8.483   8.933 -0.5901  0.0148  0.5582
  609MOL0     C82117   5.155   8.366   8.901 -0.1737 -0.2790 -0.1394
  609MOL0     C82118   5.292   8.383   8.977 -0.7270  0.1309  0.3545
  609MOL0     C82119   5.314   8.289   9.093  0.4877  0.0514  0.3198
  609MOL0     C82120   5.465   8.270   9.127  0.0824 -1.2286 -0.4591
  609MOL0     C82121   5.470   8.209   9.269 -0.3548  1.1175 -0.8844
  609MOL0     C82122   5.381   8.092   9.309  0.4369  0.4194  0.3036
  609MOL0     C82123   5.429   8.046   9.439 -0.0640 -0.9532 -0.1396
  609MOL0    Cl82124   5.336   7.912   9.519  0.4301 -0.0109  0.0857
  609MOL0     C82125   5.031   8.716   9.134 -0.4251 -0.0168  0.7162
  609MOL0     C82126   5.042   8.825   9.219 -0.1931 -0.8724 -0.0377
  609MOL0     O82127   5.168   9.193   9.118 -0.0537  0.3472  0.4439
  609MOL0     C82128   5.163   9.267   9.472 -0.3650  0.2278 -0.2517
  609MOL0     C82129   5.170   9.380   9.554  0.8832 -0.0554  0.4587
  609MOL0     N82130   5.178   9.983  10.213 -0.0133  0.3743 -0.7623
  609MOL0     N82131   5.106   9.959  10.321  0.5000  0.8372 -0.2339
  609MOL0     C82132   4.106  10.452  10.757  0.2262 -0.2724  0.4798
  609MOL0     C82133   3.971  10.487  10.768 -0.7587 -0.0738 -1.3943
  609MOL0     C82134   3.583  10.716  10.759  0.6271 -0.2436 -0.6301
  609MOL0     C82135   3.499  10.616  10.718 -0.0687 -0.5426  0.1883
  609MOL0     C82136   3.360  10.621  10.711 -0.2275  0.0007 -0.1266
  609MOL0     C82137   3.293  10.735  10.750 -0.3128  0.1345  1.0270
  609MOL0     O82138   3.162  10.755  10.754 -0.2340  0.4365 -0.2428
  609MOL0     C82139   3.090  10.653  10.819  0.4350  0.2878  0.3678
  609MOL0     C82140   3.028  10.705  10.941  0.5174  0.1402  0.3295
  609MOL0     C82141   2.908  10.625  10.982 -0.0556  0.2426 -0.0910
  609MOL0     C82142   2.837  10.688  11.105  0.2870  0.5279 -0.3172
  609MOL0     C82143   2.900  10.682  11.242 -0.4074  0.3502 -1.1559
  609MOL0     C82144   2.947  10.690  11.351 -0.5572  0.6004  0.2302
  609MOL0     C82145   3.367  10.835  10.805  0.0724  0.3137  1.8605
  609MOL0     C82146   3.515  10.835  10.804 -0.2353 -1.3131 -0.2128
  609MOL0     C82147   3.593  10.948  10.869 -0.2130 -0.7385  0.0373
  609MOL0     H82148   3.930  10.653  10.494 -2.2336 -3.0482  0.2405
  609MOL0     H82149   4.175  10.617  10.479  0.3695  1.2196  0.3602
  609MOL0     H82150   4.416  10.549  10.804  1.2395 -0.3314  0.0794
  609MOL0     H82151   4.379  10.376  10.803  1.8963  0.1063  1.1355
  609MOL0     H82152   4.620  10.451  10.777 -0.6031 -2.3513  3.8226
  609MOL0     H82153   4.568  10.504  10.611  0.7852 -3.5454 -3.0489
  609MOL0     H82154   4.516  10.258  10.549 -2.4596  1.0146  0.8582
  609MOL0     H82155   4.575  10.224  10.716  1.5655  3.0334  2.4410
  609MOL0     H82156   4.736  10.315  10.497 -2.1738  0.0743 -1.2370
  609MOL0     H82157   4.790  10.306  10.669  0.3158 -1.4162 -0.1960
  609MOL0     H82158   4.706  10.050  10.659  0.3065  2.9862  0.8891
  609MOL0     H82159   4.675  10.074  10.490 -3.4850 -1.3484  1.3186
  609MOL0     H82160   4.933  10.098  10.456  0.9609 -1.2822 -0.0918
  609MOL0     H82161   4.945  10.100  10.626  0.5709  1.2066 -1.2243
  609MOL0     H82162   4.822   9.848  10.568 -1.3992  2.6722  0.8178
  609MOL0     H82163   4.993   9.880  10.564  0.3148  1.9714  0.2519
  609MOL0     H82164   4.840   9.768  10.363  3.2296 -0.5169 -1.6217
  609MOL0     H82165   4.791   9.929  10.328  1.4661  0.5531 -0.8200
  609MOL0     H82166   4.928   9.801  10.100 -0.9524  0.5305  1.4732
  609MOL0     H82167   5.053   9.955   9.926 -1.6766 -0.0799  1.9907
  609MOL0     H82168   5.220   9.984   9.947 -0.5446  0.3494  1.3172
  609MOL0     H82169   5.271   9.747   9.937  0.9326  1.4760 -0.7860
  609MOL0     H82170   5.097   9.691   9.954  3.0214 -4.5685 -1.7900
  609MOL0     H82171   5.244   9.824   9.718 -0.7754  2.1715 -0.5310
  609MOL0     H82172   5.065   9.815   9.731 -0.1523  1.2590  2.7649
  609MOL0     H82173   5.086   9.558   9.731  1.0321 -2.2320 -1.2731
  609MOL0     H82174   5.265   9.584   9.742  1.5328  0.5511 -2.0524
  609MOL0     H82175   5.227   9.607   9.319  2.0174 -0.2397 -1.7160
  609MOL0     H82176   5.218   9.409   9.164 -0.3151  0.3828  0.5135
  609MOL0     H82177   5.296   8.991   9.068  0.1854 -0.3107  1.7174
  609MOL0     H82178   5.242   8.815   8.894 -2.9085  0.2693 -2.2376
  609MOL0     H82179   5.018   8.456   9.031 -2.3405  2.4133  0.6210
  609MOL0     H82180   4.972   8.485   8.865 -2.6007  1.4915  2.9608
  609MOL0     H82181   5.099   8.273   8.911  0.5135 -0.8464 -1.3253
  609MOL0     H82182   5.177   8.377   8.794 -2.2026 -0.9966 -0.6848
  609MOL0     H82183   5.367   8.352   8.904 -1.0426  1.6563 -0.6668
  609MOL0     H82184   5.304   8.488   9.005  0.4146 -0.4291  2.0626
  609MOL0     H82185   5.270   8.195   9.058  2.0916 -1.5255  2.3093
  609MOL0     H82186   5.268   8.331   9.183 -0.5166 -1.0065  0.3267
  609MOL0     H82187   5.520   8.364   9.137 -3.7231  1.2204 -0.4241
  609MOL0     H82188   5.516   8.216   9.047 -0.3151 -0.7632 -1.0320
  609MOL0     H82189   5.568   8.161   9.279 -2.5338 -3.5583  0.9246
  609MOL0     H82190   5.442   8.280   9.347  0.7553  0.1843  0.4133
  609MOL0     H82191   5.403   8.015   9.235 -2.4027  1.1027 -1.4060
  609MOL0     H82192   5.275   8.118   9.310 -0.7280 -3.6620 -0.2848
  609MOL0     H82193   5.534   8.015   9.435 -0.5067 -2.6394  0.7296
  609MOL0     H82194   5.443   8.138   9.498 -1.0225  1.2892 -3.1336
  609MOL0     H82195   4.976   8.633   9.176  0.1855  0.0248  1.6082
  609MOL0     H82196   4.990   8.829   9.315 -0.8733 -3.4548 -0.2310
  609MOL0     H82197   5.137   9.168   9.511  1.2268 -0.0176  0.2423
  609MOL0     H82198   5.152   9.364   9.660  0.2027  0.6870  0.4604
  609MOL0     H82199   4.157  10.384  10.824 -1.0402 -1.0288  0.6980
  609MOL0     H82200   3.911  10.444  10.847  2.4206 -2.6251 -0.1068
  609MOL0     H82201   3.542  10.520  10.691 -0.1876 -0.2616 -1.0537
  609MOL0     H82202   3.314  10.524  10.692  0.2820 -0.4047  0.7018
  609MOL0     H82203   3.153  10.571  10.855 -0.3689 -2.4777 -3.7598
  609MOL0     H82204   3.019  10.607  10.749  1.2094 -1.6599  0.8125
  609MOL0     H82205   2.986  10.803  10.914 -1.6965 -1.2500 -1.6451
  609MOL0     H82206   3.099  10.716  11.023 -0.7186 -1.3351  1.6650
  609MOL0     H82207   2.943  10.522  10.999 -0.5046  0.1672  0.4112
  609MOL0     H82208   2.845  10.633  10.894  2.4890  0.1374 -2.0346
  609MOL0     H82209   2.813  10.794  11.089 -1.1242  0.6187  1.8908
  609MOL0     H82210   2.739  10.642  11.113  0.4244  0.0110 -1.4786
  609MOL0     H82211   2.977  10.695  11.453 -2.5469  0.0858  0.8659
  609MOL0     H82212   3.306  10.921  10.833 -1.8938  0.3265 -1.8865
  609MOL0     H82213   3.652  10.899  10.947 -1.7213 -1.0526  1.0160
  609MOL0     H82214   3.656  11.010  10.804 -0.1269  2.2873  2.7686
  609MOL0     H82215   3.531  11.023  10.919  1.8297  0.2992  1.1478
  610MOL0     O82216   9.735   4.702   6.193 -0.6082 -0.2713 -0.0397
  610MOL0     C82217   9.729   4.590   6.142 -0.5490  0.1610  0.0472
  610MOL0     O82218   9.655   4.563   6.033  0.0878  0.2109 -0.0803
  610MOL0     C82219   9.582   4.661   5.964 -0.1702  0.4011  0.4399
  610MOL0     C82220   9.591   4.676   5.822  0.3815 -0.9997  1.8160
  610MOL0     C82221   9.515   4.762   5.744  0.3629  0.0702 -0.0241
  610MOL0     C82222   9.413   4.835   5.807  0.5435 -0.3383 -0.8064
  610MOL0     O82223   9.332   4.914   5.732 -0.0585  0.2576 -0.2815
  610MOL0     C82224   9.264   4.865   5.619  0.7135  0.9375  0.6597
  610MOL0     C82225   9.137   4.927   5.595  0.1232  1.3650 -0.3838
  610MOL0     C82226   9.034   4.937   5.712  0.1635  0.4910  0.2373
  610MOL0     C82227   9.025   4.808   5.803 -0.7925  0.4052 -0.2120
  610MOL0     C82228   8.915   4.811   5.918  0.1636  0.4604  0.2474
  610MOL0     C82229   8.869   4.675   5.948  0.3097  0.7390  0.1430
  610MOL0     C82230   8.828   4.654   6.102 -0.5751 -0.2943  0.4010
  610MOL0     C82231   8.717   4.742   6.161 -0.1666  0.5058  0.7148
  610MOL0     N82232   8.602   4.743   6.075  0.9924  0.4823  1.5996
  610MOL0     C82233   8.572   4.831   5.977  0.3433  0.2751 -0.1357
  610MOL0     C82234   8.457   4.781   5.927  0.9341  0.1626 -0.5445
  610MOL0     C82235   8.370   4.847   5.820 -1.1033  0.1214 -0.0925
  610MOL0     C82236   8.404   4.780   5.683 -0.5126 -0.1055  1.5134
  610MOL0     C82237   8.542   4.843   5.639  0.0714 -0.0782 -1.5516
  610MOL0     C82238   8.604   4.794   5.509 -0.2421 -0.3728 -0.0530
  610MOL0     O82239   8.709   4.888   5.465  0.0597 -0.2998 -0.9270
  610MOL0     C82240   8.779   4.865   5.345 -0.2145 -0.7528  1.1291
  610MOL0     C82241   8.860   4.973   5.316  0.0233  0.4478 -0.0566
  610MOL0     C82242   8.953   4.977   5.223  0.4547  0.3028 -0.2882
  610MOL0     C82243   8.966   4.862   5.143  1.2077 -0.3008  0.0698
  610MOL0     C82244   9.058   4.850   5.027 -0.3154 -0.1156  0.0376
  610MOL0     O82245   9.147   4.955   5.004  0.1088  0.4148  0.3492
  610MOL0     C82246   9.193   4.986   4.884  0.0545 -0.1605 -0.1617
  610MOL0     C82247   9.104   5.039   4.783  0.0998  0.4781 -0.0875
  610MOL0     C82248   9.159   5.088   4.660 -0.8254  1.0224 -0.3626
  610MOL0     C82249   9.300   5.085   4.644 -0.7069 -0.2441  0.0675
  610MOL0     O82250   9.348   5.145   4.536 -0.9093 -1.0464  0.1231
  610MOL0     C82251   9.481   5.213   4.551  0.1047  0.3856  0.0327
  610MOL0     C82252   9.502   5.320   4.436  0.0232  0.0241 -1.4960
  610MOL0     C82253   9.390   5.417   4.418 -0.0199 -0.4149  0.5755
  610MOL0     C82254   9.404   5.545   4.506  0.3834  0.2474 -0.6870
  610MOL0     C82255   9.292   5.648   4.485  0.0887  0.1148 -0.3411
  610MOL0     C82256   9.304   5.785   4.554  0.7578 -0.4851 -0.1719
  610MOL0     C82257   9.175   5.858   4.547 -0.4122 -0.1721 -0.2465
  610MOL0     C82258   9.186   6.012   4.548  0.3151  1.0099  0.3610
  610MOL0    Cl82259   9.008   6.071   4.566 -0.2483 -0.4478 -0.1263
  610MOL0     C82260   9.382   5.028   4.745  0.6012 -0.3781  0.7935
  610MOL0     C82261   9.330   4.982   4.865 -0.4113 -0.1373  0.1816
  610MOL0     O82262   9.053   4.745   4.964 -1.0606 -1.0400 -0.0115
  610MOL0     C82263   8.877   4.754   5.169 -0.5053  0.8045 -0.0380
  610MOL0     C82264   8.783   4.750   5.269  0.2128 -0.5482 -0.0299
  610MOL0     N82265   8.420   4.663   5.989 -0.3123 -1.0312  0.2004
  610MOL0     N82266   8.507   4.642   6.087  0.7614  0.3757  0.2016
  610MOL0     C82267   9.396   4.817   5.946  0.2472 -0.2312 -0.9450
  610MOL0     C82268   9.486   4.739   6.023  0.1980 -0.5002 -0.9157
  610MOL0     C82269   9.820   4.477   6.205 -0.3023 -0.1490 -0.0755
  610MOL0     C82270   9.846   4.357   6.139 -0.5429  1.2434  0.1468
  610MOL0     C82271   9.922   4.256   6.194 -0.1762  0.6856  0.3272
  610MOL0     C82272   9.986   4.278   6.319 -0.1666  0.5158 -0.2092
  610MOL0     O82273  10.075   4.181   6.356  0.1736 -0.9227 -0.1823
  610MOL0     C82274  10.152   4.184   6.483 -0.1804 -0.3600  0.4907
  610MOL0     C82275  10.301   4.129   6.477  0.3985 -0.0668 -1.4165
  610MOL0     C82276  10.399   4.212   6.394 -0.0640 -0.1856 -0.0680
  610MOL0     C82277  10.518   4.143   6.359 -0.1539  0.3302  0.3391
  610MOL0     C82278  10.612   4.127   6.470  0.7996  0.0308  0.3575
  610MOL0     C82279  10.693   4.085   6.554  0.3844  0.6860 -0.5603
  610MOL0     C82280   9.966   4.397   6.386  0.7907 -0.2036 -0.5057
  610MOL0     C82281   9.885   4.498   6.331 -0.3983 -1.0300 -0.2105
  610MOL0     C82282   9.880   4.622   6.429  1.0030  0.2151  0.0985
  610MOL0     H82283   9.665   4.619   5.768 -2.3309  0.8433 -4.9360
  610MOL0     H82284   9.529   4.754   5.636  1.5614  0.4111  0.0933
  610MOL0     H82285   9.322   4.873   5.526 -1.0020 -1.1944 -0.7120
  610MOL0     H82286   9.244   4.759   5.639 -0.3353  1.2265  1.2064
  610MOL0     H82287   9.094   4.877   5.507  1.9346  1.3265 -1.3165
  610MOL0     H82288   9.145   5.030   5.559 -0.1933  2.5604  2.6608
  610MOL0     H82289   8.934   4.956   5.673  1.0611 -0.8712 -3.1354
  610MOL0     H82290   9.065   5.022   5.773  0.7282  1.0190 -0.7603
  610MOL0     H82291   9.019   4.719   5.739  0.7452 -0.0939  0.2829
  610MOL0     H82292   9.118   4.794   5.860  0.9391 -0.2937 -2.9914
  610MOL0     H82293   8.965   4.858   6.003 -0.4161 -0.9259  1.3923
  610MOL0     H82294   8.828   4.870   5.887 -1.2854 -1.1812  1.0669
  610MOL0     H82295   8.786   4.635   5.890 -0.9593  1.6068  1.3128
  610MOL0     H82296   8.957   4.613   5.925 -0.0130  0.3082  0.0577
  610MOL0     H82297   8.917   4.664   6.163 -0.0627  0.2331 -0.4121
  610MOL0     H82298   8.799   4.549   6.112  0.1262 -0.6426 -1.0180
  610MOL0     H82299   8.690   4.698   6.257  0.5629 -0.5832  0.4358
  610MOL0     H82300   8.755   4.845   6.163 -1.1343  0.9598 -1.5966
  610MOL0     H82301   8.623   4.921   5.945  3.6978 -1.5474 -0.3419
  610MOL0     H82302   8.264   4.831   5.839 -2.1544  0.9770 -4.2654
  610MOL0     H82303   8.391   4.954   5.821  1.8909 -0.3669  1.1860
  610MOL0     H82304   8.431   4.675   5.690  0.2781 -0.0137  0.1180
  610MOL0     H82305   8.332   4.805   5.605  1.3024  3.1285  0.7015
  610MOL0     H82306   8.620   4.815   5.709 -0.4348  0.1533 -0.8820
  610MOL0     H82307   8.544   4.952   5.640 -0.9980 -0.0343  0.2507
  610MOL0     H82308   8.533   4.790   5.427 -0.2728 -1.9085  0.0218
  610MOL0     H82309   8.649   4.694   5.519  0.8600  0.0437 -0.6731
  610MOL0     H82310   8.857   5.047   5.396 -0.5654  1.7872 -1.2816
  610MOL0     H82311   8.998   5.076   5.226 -0.6133  0.8271 -1.0573
  610MOL0     H82312   8.998   5.040   4.805 -0.0858 -1.1769 -0.7410
  610MOL0     H82313   9.101   5.130   4.579 -0.4345  1.1083 -0.6050
  610MOL0     H82314   9.495   5.255   4.650 -1.3502 -2.8298  1.7565
  610MOL0     H82315   9.546   5.125   4.553 -2.0905 -1.3631  2.7053
  610MOL0     H82316   9.597   5.367   4.461 -0.2833  0.5110 -1.2309
  610MOL0     H82317   9.518   5.266   4.342  1.9350 -2.3383  0.0840
  610MOL0     H82318   9.393   5.456   4.316 -0.7249 -1.3397  0.1832
  610MOL0     H82319   9.294   5.367   4.430 -0.6273  0.6494  0.2930
  610MOL0     H82320   9.501   5.587   4.478  1.4202 -1.4448  0.1653
  610MOL0     H82321   9.397   5.521   4.612  2.2240 -1.7736 -0.9488
  610MOL0     H82322   9.209   5.582   4.512  1.8449 -2.0211  0.0595
  610MOL0     H82323   9.279   5.675   4.380 -1.5680  0.8300 -0.0008
  610MOL0     H82324   9.332   5.778   4.660 -1.5918  2.0795  0.7383
  610MOL0     H82325   9.378   5.846   4.501  1.2301 -0.0784  0.9088
  610MOL0     H82326   9.116   5.823   4.633 -0.8724 -1.3213 -1.0013
  610MOL0     H82327   9.117   5.819   4.463  1.0308  0.7464 -1.7074
  610MOL0     H82328   9.252   6.060   4.620  1.1667  3.6230 -1.9741
  610MOL0     H82329   9.228   6.031   4.448 -0.5645  1.2767  0.0358
  610MOL0     H82330   9.490   5.022   4.742  0.7491  0.7265  2.6818
  610MOL0     H82331   9.397   4.954   4.945  1.2361 -0.7993 -1.3410
  610MOL0     H82332   8.882   4.661   5.115 -2.2251  0.7507 -0.1855
  610MOL0     H82333   8.721   4.665   5.293  2.3621 -2.3351 -0.4815
  610MOL0     H82334   9.333   4.883   6.004  2.7967 -1.5662  3.8231
  610MOL0     H82335   9.478   4.721   6.129 -4.0338 -0.4737 -1.0934
  610MOL0     H82336   9.802   4.334   6.042 -3.1836  0.4399  1.4346
  610MOL0     H82337   9.951   4.168   6.137  0.1110 -0.1269  1.6580
  610MOL0     H82338  10.104   4.118   6.556 -1.7318  0.2163  0.0321
  610MOL0     H82339  10.145   4.285   6.526  2.2553  1.3574 -2.7885
  610MOL0     H82340  10.295   4.026   6.442 -1.3516 -0.9622  1.1765
  610MOL0     H82341  10.338   4.131   6.580 -0.7963  0.8391 -0.9751
  610MOL0     H82342  10.427   4.303   6.447 -1.4776  0.5972 -0.5984
  610MOL0     H82343  10.344   4.251   6.307 -1.0419  5.1229  2.5032
  610MOL0     H82344  10.493   4.044   6.319 -1.2557  1.1835 -1.1838
  610MOL0     H82345  10.572   4.192   6.277 -1.7103 -0.9273 -1.5338
  610MOL0     H82346  10.774   4.045   6.612  0.5832  1.7471 -0.0831
  610MOL0     H82347  10.011   4.408   6.485  0.5034  0.7634 -0.4743
  610MOL0     H82348   9.777   4.659   6.429  0.6303 -0.7841  0.6832
  610MOL0     H82349   9.907   4.592   6.530  0.8650 -1.8064 -0.4260
  610MOL0     H82350   9.952   4.700   6.402  1.0228 -0.6264 -2.5865
  611MOL0     O82351   9.388   4.121   1.264 -0.4949 -1.0961 -0.3674
  611MOL0     C82352   9.368   4.227   1.208 -0.3679  1.4484  0.0382
  611MOL0     O82353   9.381   4.349   1.265 -0.7735 -0.3837  0.2024
  611MOL0     C82354   9.372   4.365   1.404  1.4141 -0.1120 -1.1910
  611MOL0     C82355   9.480   4.436   1.467  0.0238  0.5971 -0.0796
  611MOL0     C82356   9.491   4.433   1.612 -0.3799  0.5244  0.2678
  611MOL0     C82357   9.386   4.381   1.682  0.4041 -0.0207 -0.1815
  611MOL0     O82358   9.410   4.387   1.820  0.0704 -0.1789  0.7304
  611MOL0     C82359   9.321   4.314   1.908 -0.2527 -0.8939  0.2927
  611MOL0     C82360   9.394   4.322   2.048  0.4074  0.0756  0.1410
  611MOL0     C82361   9.297   4.277   2.157 -0.1448 -0.1294 -0.6127
  611MOL0     C82362   9.238   4.137   2.133  0.3250  0.4879  0.8446
  611MOL0     C82363   9.143   4.112   2.239  0.4048 -0.4448 -0.3590
  611MOL0     C82364   9.079   3.976   2.243 -0.4233 -0.4823 -0.2594
  611MOL0     C82365   8.968   3.961   2.133 -0.4757 -0.6256  0.5174
  611MOL0     C82366   8.911   3.822   2.136 -0.3439  0.2584  0.2335
  611MOL0     N82367   8.826   3.806   2.022  0.3080  0.3353  0.1983
  611MOL0     C82368   8.873   3.767   1.896 -0.0972 -0.2972  0.1004
  611MOL0     C82369   8.761   3.748   1.823  0.7894  0.3047  0.3069
  611MOL0     C82370   8.772   3.711   1.677 -0.0671 -0.4269  0.3515
  611MOL0     C82371   8.711   3.831   1.596 -0.4044  0.5936 -0.3363
  611MOL0     C82372   8.707   3.792   1.455  0.9433 -0.0163  0.1505
  611MOL0     C82373   8.671   3.901   1.349  0.4123 -1.1626  0.4483
  611MOL0     O82374   8.554   3.977   1.386 -0.2166 -0.6533  0.5747
  611MOL0     C82375   8.504   4.069   1.299  0.2955 -1.1785  0.4379
  611MOL0     C82376   8.462   4.192   1.345  0.7060  0.1354  0.0235
  611MOL0     C82377   8.407   4.284   1.255 -0.5128  0.1340  0.1525
  611MOL0     C82378   8.403   4.258   1.120 -0.0359 -0.7710  0.2010
  611MOL0     C82379   8.371   4.353   1.016  0.6807  0.9181 -0.0518
  611MOL0     O82380   8.371   4.321   0.881 -0.1486 -0.3779  0.5123
  611MOL0     C82381   8.279   4.390   0.800  0.1260  0.7121 -0.2124
  611MOL0     C82382   8.147   4.346   0.799 -0.1031  0.1498  0.1916
  611MOL0     C82383   8.046   4.427   0.739  0.0221 -0.2468 -0.0385
  611MOL0     C82384   8.079   4.529   0.661  0.7767 -0.8122  0.5106
  611MOL0     O82385   7.986   4.591   0.582  0.7466 -0.3184 -0.5091
  611MOL0     C82386   8.028   4.646   0.448  0.3654 -0.8362 -0.3073
  611MOL0     C82387   7.900   4.687   0.372  0.0673  1.6385 -1.1132
  611MOL0     C82388   7.854   4.829   0.423  0.3085 -0.3632 -0.7620
  611MOL0     C82389   7.728   4.873   0.332  0.1216  0.3593 -0.2552
  611MOL0     C82390   7.699   5.023   0.315  0.3027 -0.5238  0.2572
  611MOL0     C82391   7.598   5.084   0.415  0.4863  0.0802  0.6932
  611MOL0     C82392   7.623   5.048   0.564 -1.0295  0.3934 -0.1143
  611MOL0     C82393   7.536   5.126   0.668 -0.0970 -0.0158  0.8379
  611MOL0    Cl82394   7.367   5.103   0.613  0.3987  0.2246  0.3876
  611MOL0     C82395   8.213   4.569   0.661  0.5234  0.2264 -0.1323
  611MOL0     C82396   8.313   4.495   0.728  0.4779 -0.3671  0.3340
  611MOL0     O82397   8.331   4.454   1.067  0.3196  0.5674  0.2727
  611MOL0     C82398   8.449   4.142   1.067 -0.4697 -0.0471  1.3034
  611MOL0     C82399   8.502   4.049   1.157 -0.0532  0.3969  0.4685
  611MOL0     N82400   8.651   3.773   1.907  0.0496  0.1658  0.7189
  611MOL0     N82401   8.686   3.805   2.022  0.5132  0.5085  0.0694
  611MOL0     C82402   9.281   4.318   1.618 -0.1166 -0.3009  0.4380
  611MOL0     C82403   9.272   4.311   1.482 -0.2461  0.2996 -0.1593
  611MOL0     C82404   9.337   4.222   1.068  0.3888 -0.0179 -0.6074
  611MOL0     C82405   9.237   4.306   1.017 -0.5476 -0.0403  0.1797
  611MOL0     C82406   9.192   4.307   0.889  0.2930 -0.1931 -0.0265
  611MOL0     C82407   9.243   4.213   0.801  0.5404  0.4473 -0.4845
  611MOL0     O82408   9.202   4.199   0.674  0.7123  0.0358  0.1553
  611MOL0     C82409   9.112   4.285   0.606 -0.2427 -0.7308 -0.4587
  611MOL0     C82410   8.978   4.233   0.652 -0.4661 -0.0011 -1.4298
  611MOL0     C82411   8.872   4.347   0.636 -0.6689 -0.0803  0.5193
  611MOL0     C82412   8.730   4.293   0.625  0.5736 -0.0813  0.8054
  611MOL0     C82413   8.706   4.195   0.731  1.4474 -0.2653  0.1948
  611MOL0     C82414   8.688   4.129   0.830 -0.3692 -0.4387 -0.2340
  611MOL0     C82415   9.333   4.114   0.849  0.9829 -1.9392  0.4795
  611MOL0     C82416   9.385   4.119   0.980 -0.1249  0.3234 -0.2780
  611MOL0     C82417   9.494   4.014   1.018  0.3131 -0.2084 -0.3141
  611MOL0     H82418   9.556   4.477   1.402 -0.5653  1.8345 -0.0110
  611MOL0     H82419   9.567   4.487   1.668  0.7548  3.1314 -3.4051
  611MOL0     H82420   9.225   4.366   1.902 -0.1626 -0.9295 -2.5378
  611MOL0     H82421   9.288   4.218   1.869 -0.3374 -0.5848 -0.4035
  611MOL0     H82422   9.425   4.425   2.065  0.3811  0.7902 -3.3616
  611MOL0     H82423   9.479   4.253   2.053  2.1696  2.1909  1.4301
  611MOL0     H82424   9.215   4.349   2.146  0.2206 -0.0469 -3.6955
  611MOL0     H82425   9.345   4.287   2.255 -0.6371  0.5878 -0.4397
  611MOL0     H82426   9.194   4.133   2.033  2.0921 -0.7474  0.0547
  611MOL0     H82427   9.321   4.066   2.144  0.3310  0.5600  1.2833
  611MOL0     H82428   9.184   4.149   2.333 -0.0165  5.4220 -2.0870
  611MOL0     H82429   9.062   4.183   2.225 -1.6714 -2.2552  1.6060
  611MOL0     H82430   9.159   3.901   2.243  1.1651  1.1329  0.3459
  611MOL0     H82431   9.035   3.972   2.343  0.4918 -1.1154  0.1301
  611MOL0     H82432   9.017   3.971   2.036  0.3217 -0.0938  0.9581
  611MOL0     H82433   8.896   4.042   2.152  2.4057  2.4789 -0.8336
  611MOL0     H82434   8.993   3.751   2.123 -0.4461  0.4534 -1.6478
  611MOL0     H82435   8.855   3.791   2.225  1.3961 -1.9153  0.6551
  611MOL0     H82436   8.973   3.767   1.853  0.0022 -2.0159  0.2549
  611MOL0     H82437   8.874   3.689   1.644  0.6526  0.7398  1.7007
  611MOL0     H82438   8.719   3.617   1.659 -0.9187  0.1832 -0.3461
  611MOL0     H82439   8.613   3.844   1.642  0.1632  0.3146  1.0042
  611MOL0     H82440   8.773   3.919   1.619  1.5145 -0.3826 -1.5130
  611MOL0     H82441   8.627   3.718   1.467 -1.9139  3.2300  4.6062
  611MOL0     H82442   8.805   3.752   1.429  0.0374 -0.9432 -2.1504
  611MOL0     H82443   8.657   3.837   1.260 -4.4402  2.4375 -1.8532
  611MOL0     H82444   8.757   3.963   1.324  1.0153 -1.8420  0.7811
  611MOL0     H82445   8.480   4.224   1.447  0.3762  1.7554 -0.3912
  611MOL0     H82446   8.381   4.381   1.295 -0.3408 -0.7103  2.4373
  611MOL0     H82447   8.128   4.253   0.852  2.1055 -0.4912 -0.0214
  611MOL0     H82448   7.950   4.379   0.755  0.2770 -0.1282  2.1450
  611MOL0     H82449   8.096   4.730   0.460 -3.6368  2.4556  2.3078
  611MOL0     H82450   8.073   4.562   0.395 -1.1162 -2.0559  0.2938
  611MOL0     H82451   7.935   4.680   0.269  1.0199 -1.8018 -0.6779
  611MOL0     H82452   7.821   4.612   0.380  2.3399 -0.6842  4.0215
  611MOL0     H82453   7.811   4.817   0.523  0.1503 -2.2023 -1.0296
  611MOL0     H82454   7.939   4.899   0.427 -0.0742  0.1779 -1.7383
  611MOL0     H82455   7.639   4.814   0.355  0.1420 -0.6283 -2.4512
  611MOL0     H82456   7.748   4.825   0.236 -1.8671 -0.4740 -0.2905
  611MOL0     H82457   7.650   5.047   0.220  0.1326 -1.8667 -0.0144
  611MOL0     H82458   7.788   5.086   0.305 -0.5975  0.6804 -0.3845
  611MOL0     H82459   7.593   5.192   0.402  3.4764  0.5278  2.4580
  611MOL0     H82460   7.497   5.045   0.397  0.4314 -0.0363  1.2249
  611MOL0     H82461   7.729   5.066   0.586 -0.6048 -1.8054 -0.1637
  611MOL0     H82462   7.612   4.940   0.573 -2.0414  0.5280  0.3677
  611MOL0     H82463   7.550   5.074   0.763  0.2914 -0.2759  0.6425
  611MOL0     H82464   7.562   5.232   0.674  0.3903  0.1038 -2.0395
  611MOL0     H82465   8.246   4.648   0.593  1.8453 -0.4399 -0.3007
  611MOL0     H82466   8.410   4.538   0.752 -0.6633  1.5602  1.7600
  611MOL0     H82467   8.457   4.124   0.960  0.7030  0.8477  1.2170
  611MOL0     H82468   8.531   3.953   1.118  1.7336  0.7582  0.8261
  611MOL0     H82469   9.203   4.275   1.681 -0.9839  0.1193 -0.3170
  611MOL0     H82470   9.191   4.257   1.435  1.2284 -0.3841 -2.0566
  611MOL0     H82471   9.193   4.376   1.088  2.6555  2.8161 -0.3945
  611MOL0     H82472   9.115   4.377   0.859 -0.2674 -1.2821 -1.1909
  611MOL0     H82473   9.136   4.293   0.500  2.6045  0.6432  0.2033
  611MOL0     H82474   9.119   4.387   0.646  0.3454 -1.3319  1.0161
  611MOL0     H82475   8.978   4.199   0.756 -3.8060  1.3427 -0.8338
  611MOL0     H82476   8.952   4.142   0.596 -2.0702 -0.5456  0.0999
  611MOL0     H82477   8.888   4.397   0.540 -1.2169 -1.0926 -0.1203
  611MOL0     H82478   8.878   4.420   0.717 -2.0502  0.1072  0.4869
  611MOL0     H82479   8.652   4.369   0.629  1.0628  0.7035 -2.4162
  611MOL0     H82480   8.726   4.237   0.531 -1.0301 -1.2087  1.4896
  611MOL0     H82481   8.701   4.063   0.914  3.1264  1.9274  1.2987
  611MOL0     H82482   9.377   4.044   0.779  0.5170 -1.7178 -0.0462
  611MOL0     H82483   9.567   4.048   1.091 -0.7384  3.4201 -0.7786
  611MOL0     H82484   9.462   3.913   1.046  0.7950 -0.8780 -2.0592
  611MOL0     H82485   9.549   4.002   0.924 -0.2766  1.7170 -0.9485
  612MOL0     O82486   9.617   1.330   2.239  0.4400 -0.0164 -0.2381
  612MOL0     C82487   9.644   1.329   2.361  0.3740 -0.2939  0.0884
  612MOL0     O82488   9.745   1.251   2.404  0.0782 -0.3949  0.2571
  612MOL0     C82489   9.816   1.181   2.301 -0.0673 -0.8663  0.0212
  612MOL0     C82490   9.946   1.217   2.270 -0.0413 -0.3049  1.5258
  612MOL0     C82491  10.028   1.154   2.176 -0.0552 -0.2731  0.4075
  612MOL0     C82492   9.963   1.056   2.103 -0.0624 -0.0292  0.4194
  612MOL0     O82493  10.035   0.999   2.003  0.1557  0.2264  0.0380
  612MOL0     C82494  10.007   1.049   1.868  0.9867  0.1739 -0.5856
  612MOL0     C82495  10.111   0.990   1.777 -0.3308  0.5996 -0.7881
  612MOL0     C82496  10.135   0.836   1.787  0.4210 -0.2724  0.6859
  612MOL0     C82497  10.244   0.789   1.695  0.3207  0.9155  0.0643
  612MOL0     C82498  10.383   0.804   1.746  0.1101  0.3597 -0.6229
  612MOL0     C82499  10.483   0.707   1.678 -0.7425  0.0281  0.6086
  612MOL0     C82500  10.622   0.740   1.730 -0.5603  0.4797  0.4394
  612MOL0     C82501  10.625   0.738   1.882  0.8667 -0.1443  0.8595
  612MOL0     N82502  10.753   0.783   1.919  0.1125  0.3984  0.1874
  612MOL0     C82503  10.844   0.700   1.988  1.1286  0.5448 -0.1608
  612MOL0     C82504  10.949   0.782   2.000 -0.2780 -1.1494  0.0532
  612MOL0     C82505  11.073   0.757   2.080  0.0449 -0.6145  0.1375
  612MOL0     C82506  11.047   0.734   2.235  1.3274 -0.5380  0.2021
  612MOL0     C82507  10.947   0.814   2.313 -0.1970 -0.0250 -0.0470
  612MOL0     C82508  10.939   0.767   2.463  0.3060  0.0190  0.7236
  612MOL0     O82509  10.945   0.623   2.491 -0.9317 -0.4744  0.3976
  612MOL0     C82510  10.845   0.533   2.473 -1.0182 -0.8284  0.1864
  612MOL0     C82511  10.717   0.564   2.436  0.0774  0.1031 -0.6214
  612MOL0     C82512  10.617   0.464   2.433  0.1136 -0.3822 -0.3333
  612MOL0     C82513  10.646   0.335   2.472  1.0434  0.1026  0.1049
  612MOL0     C82514  10.538   0.237   2.472 -0.0512  0.0318  0.2777
  612MOL0     O82515  10.572   0.109   2.501  0.3213 -0.5795 -0.5873
  612MOL0     C82516  10.482   0.005   2.479 -0.1546  0.2416 -0.0422
  612MOL0     C82517  10.552  -0.115   2.477  0.8872  0.1733  0.2189
  612MOL0     C82518  10.479  -0.241   2.474  0.4286 -0.7147 -0.5405
  612MOL0     C82519  10.338  -0.244   2.469  0.2766  1.1130 -0.6757
  612MOL0     O82520  10.280  -0.373   2.449  0.5668 -0.0926 -0.3053
  612MOL0     C82521  10.141  -0.388   2.464 -0.4771  0.7573  0.3930
  612MOL0     C82522  10.100  -0.536   2.427  0.0705  0.1998 -0.5749
  612MOL0     C82523   9.957  -0.569   2.436 -0.1493  0.0269 -0.4409
  612MOL0     C82524   9.929  -0.657   2.550 -0.4181 -0.7824  0.6085
  612MOL0     C82525   9.981  -0.798   2.540 -0.3497  0.6642 -0.9214
  612MOL0     C82526   9.953  -0.875   2.419  0.3892 -0.3731 -0.7998
  612MOL0     C82527   9.809  -0.915   2.398  0.2981 -0.4923  0.4990
  612MOL0     C82528   9.715  -0.817   2.316 -0.3802  0.1264 -1.1224
  612MOL0    Cl82529   9.804  -0.764   2.165 -0.0028  0.3155 -0.3602
  612MOL0     C82530  10.272  -0.124   2.470 -0.4461 -0.3968  0.1655
  612MOL0     C82531  10.339   0.002   2.479 -0.1785 -0.0869 -0.5747
  612MOL0     O82532  10.423   0.279   2.463  0.2113 -0.1349  0.1144
  612MOL0     C82533  10.782   0.298   2.500  1.1274 -0.3003 -0.3115
  612MOL0     C82534  10.881   0.399   2.493  0.2467 -0.3572  0.5362
  612MOL0     N82535  10.925   0.906   1.941 -0.0636 -0.2014 -0.2665
  612MOL0     N82536  10.804   0.905   1.898 -0.8838  0.4451 -0.2497
  612MOL0     C82537   9.832   1.019   2.122  0.8972 -0.5792 -0.4422
  612MOL0     C82538   9.758   1.073   2.228 -1.3921 -0.0342 -1.6700
  612MOL0     C82539   9.582   1.439   2.438 -1.0986  0.7750 -0.0926
  612MOL0     C82540   9.526   1.542   2.366  0.5871 -0.3710 -0.1904
  612MOL0     C82541   9.480   1.661   2.428  0.1474  0.4174 -0.1320
  612MOL0     C82542   9.471   1.670   2.567  0.4667  0.1861  0.0129
  612MOL0     O82543   9.423   1.799   2.614 -0.1987  0.1961  0.7420
  612MOL0     C82544   9.459   1.827   2.751  0.7236  0.1832  0.0536
  612MOL0     C82545   9.402   1.962   2.788 -1.0644 -0.2983  0.5351
  612MOL0     C82546   9.255   1.972   2.730 -0.3025  0.1951  0.1305
  612MOL0     C82547   9.192   2.096   2.787  0.6525 -1.3358  0.3189
  612MOL0     C82548   9.048   2.122   2.758  0.6425  0.5757  0.1994
  612MOL0     C82549   8.937   2.133   2.714 -0.3340  0.0175  0.2335
  612MOL0     C82550   9.519   1.559   2.640 -0.2020 -0.1636 -0.9941
  612MOL0     C82551   9.577   1.440   2.578  0.0687 -0.1259  0.5487
  612MOL0     C82552   9.615   1.330   2.670 -0.2832 -0.3952 -0.4557
  612MOL0     H82553   9.983   1.312   2.306  0.6459 -0.0255  0.1468
  612MOL0     H82554  10.133   1.179   2.165 -0.3503  0.9144  0.2060
  612MOL0     H82555   9.910   1.005   1.842  1.5546 -2.1758  0.9396
  612MOL0     H82556   9.996   1.157   1.857 -4.9628  0.2848  2.2748
  612MOL0     H82557  10.208   1.036   1.798  0.4350 -0.8972 -0.9492
  612MOL0     H82558  10.069   1.026   1.683 -2.3318  0.7416  0.0895
  612MOL0     H82559  10.044   0.783   1.757 -0.0138 -0.4212  2.1690
  612MOL0     H82560  10.155   0.811   1.892  0.0519  1.5810  1.2386
  612MOL0     H82561  10.215   0.684   1.679 -1.4477  0.5057  4.6369
  612MOL0     H82562  10.228   0.834   1.596 -0.8028 -2.2114 -1.3205
  612MOL0     H82563  10.422   0.906   1.741  0.8369  0.0741 -0.7438
  612MOL0     H82564  10.368   0.773   1.850 -1.3013 -0.3572 -1.0115
  612MOL0     H82565  10.469   0.601   1.703  3.0099 -0.1191  2.8991
  612MOL0     H82566  10.487   0.710   1.569  5.0568 -1.0211  0.4676
  612MOL0     H82567  10.661   0.831   1.682 -0.7028 -0.2285 -1.0804
  612MOL0     H82568  10.684   0.658   1.692 -2.4377 -0.0672 -1.6655
  612MOL0     H82569  10.559   0.810   1.931  2.6943  1.1445  1.5351
  612MOL0     H82570  10.595   0.642   1.925 -2.6588  0.7085  0.6289
  612MOL0     H82571  10.823   0.596   2.009 -0.8119  1.5099  3.5386
  612MOL0     H82572  11.120   0.666   2.043  2.4886  0.1396  1.1784
  612MOL0     H82573  11.144   0.836   2.054 -0.0737 -1.0635 -1.6336
  612MOL0     H82574  11.042   0.629   2.264 -0.2941 -0.2836  0.9858
  612MOL0     H82575  11.145   0.752   2.281 -0.3600  2.3100  3.1181
  612MOL0     H82576  10.847   0.808   2.270 -0.1831  0.8948 -0.2410
  612MOL0     H82577  10.972   0.921   2.318  0.8015 -0.2720  0.5262
  612MOL0     H82578  10.853   0.828   2.491  1.4871  1.3776  1.5236
  612MOL0     H82579  11.022   0.809   2.520  1.2563 -0.8414  0.0106
  612MOL0     H82580  10.691   0.668   2.420  0.9006  0.6904  1.4376
  612MOL0     H82581  10.519   0.493   2.395 -1.4763 -1.2742  2.7699
  612MOL0     H82582  10.660  -0.116   2.493  1.2453  1.1749 -1.8384
  612MOL0     H82583  10.542  -0.329   2.469 -1.0254 -1.9165  1.1471
  612MOL0     H82584  10.108  -0.352   2.562 -0.4614  1.1390  0.2595
  612MOL0     H82585  10.086  -0.322   2.397 -2.6157 -0.4168  0.9097
  612MOL0     H82586  10.135  -0.564   2.327  3.8426 -0.6879  0.8209
  612MOL0     H82587  10.163  -0.599   2.492  0.7792  1.1954 -0.2742
  612MOL0     H82588   9.908  -0.474   2.459 -0.5598 -0.4094  0.5386
  612MOL0     H82589   9.912  -0.596   2.340 -2.4093  0.2185  0.4839
  612MOL0     H82590   9.820  -0.659   2.562 -0.2609 -0.9073  2.1129
  612MOL0     H82591   9.958  -0.614   2.646  0.3674 -0.7213  0.3522
  612MOL0     H82592   9.934  -0.846   2.627 -1.4705 -2.2844 -2.9788
  612MOL0     H82593  10.088  -0.801   2.560 -0.3628 -4.1299 -0.2736
  612MOL0     H82594   9.993  -0.813   2.338 -0.2943  1.0105 -0.1048
  612MOL0     H82595  10.011  -0.967   2.417  1.9866  0.5830 -0.0617
  612MOL0     H82596   9.764  -0.923   2.497 -2.2971  1.1736 -0.4223
  612MOL0     H82597   9.790  -1.012   2.351 -0.1055  1.1279 -2.9839
  612MOL0     H82598   9.616  -0.860   2.307  1.1151 -3.9070 -0.2585
  612MOL0     H82599   9.707  -0.732   2.386 -2.1346 -1.4246  0.6767
  612MOL0     H82600  10.164  -0.118   2.472 -0.5366 -1.5329 -0.1212
  612MOL0     H82601  10.274   0.088   2.480 -2.6742 -1.8653  0.7067
  612MOL0     H82602  10.795   0.196   2.536  0.0913 -0.6959 -1.0230
  612MOL0     H82603  10.984   0.381   2.518  0.4890  2.0337  1.4651
  612MOL0     H82604   9.769   0.954   2.062 -1.0755 -0.0338  0.9380
  612MOL0     H82605   9.650   1.059   2.227 -1.2909 -2.2306  1.5844
  612MOL0     H82606   9.523   1.546   2.257  1.2174  2.9274 -0.1698
  612MOL0     H82607   9.443   1.736   2.359  1.8998 -0.9372 -2.6957
  612MOL0     H82608   9.567   1.831   2.769  0.8023 -0.8997 -0.1228
  612MOL0     H82609   9.421   1.747   2.815  0.2376 -0.2883 -0.8141
  612MOL0     H82610   9.473   2.042   2.764 -0.3356 -0.8118  0.9449
  612MOL0     H82611   9.407   1.961   2.897  3.5393 -2.0433  0.5167
  612MOL0     H82612   9.193   1.888   2.762  2.1286 -0.7393  2.7434
  612MOL0     H82613   9.262   1.970   2.620 -1.5220 -0.5785  0.0420
  612MOL0     H82614   9.200   2.073   2.894  0.7229 -1.7086  0.2345
  612MOL0     H82615   9.244   2.188   2.761 -0.2042 -1.0099 -0.2924
  612MOL0     H82616   8.836   2.140   2.677 -0.1167 -0.8911 -0.5691
  612MOL0     H82617   9.510   1.568   2.748 -1.3971  0.5066 -1.1287
  612MOL0     H82618   9.609   1.238   2.611  2.1311  0.4491 -2.1853
  612MOL0     H82619   9.716   1.349   2.707  0.0097 -0.0180 -1.4089
  612MOL0     H82620   9.549   1.332   2.758 -0.0629  1.2562 -0.2959
  613MOL0     O82621  10.383   6.553   5.950  0.2705 -0.8964  0.3541
  613MOL0     C82622  10.496   6.581   5.994  0.2615  0.8135 -0.4602
  613MOL0     O82623  10.621   6.557   5.932  0.2450  0.4546  0.6036
  613MOL0     C82624  10.631   6.574   5.797  0.1110  1.6132 -0.6931
  613MOL0     C82625  10.532   6.620   5.706 -0.6830  0.2249 -0.0143
  613MOL0     C82626  10.549   6.622   5.567  0.4225 -0.6580  0.6859
  613MOL0     C82627  10.667   6.578   5.515  0.5046 -0.0885 -0.3349
  613MOL0     O82628  10.676   6.580   5.380  0.0179 -0.5236  0.9290
  613MOL0     C82629  10.808   6.568   5.315 -0.2572  0.1891 -0.4090
  613MOL0     C82630  10.877   6.700   5.316 -0.3119  0.8543 -0.6137
  613MOL0     C82631  10.789   6.800   5.256  0.3094 -0.6124 -0.5744
  613MOL0     C82632  10.737   6.774   5.113  0.0248  0.9940  0.0446
  613MOL0     C82633  10.844   6.800   5.009  0.1374  0.6313 -0.8252
  613MOL0     C82634  10.799   6.787   4.868 -0.6634  0.5667 -0.1726
  613MOL0     C82635  10.932   6.765   4.787 -0.4124  0.3638  0.3091
  613MOL0     C82636  10.913   6.775   4.639 -0.1403  0.4428  0.2664
  613MOL0     N82637  11.038   6.752   4.570 -0.8879 -0.1741 -0.0746
  613MOL0     C82638  11.083   6.640   4.514 -0.3857 -0.8444  0.4760
  613MOL0     C82639  11.204   6.675   4.454  0.6919 -0.1569 -0.7299
  613MOL0     C82640  11.304   6.574   4.382 -0.1486 -0.3107 -0.1298
  613MOL0     C82641  11.314   6.612   4.232 -0.5731  0.2917 -0.5834
  613MOL0     C82642  11.189   6.568   4.150 -0.3921 -0.0626  0.8983
  613MOL0     C82643  11.163   6.638   4.018  0.1645 -0.0716  0.3538
  613MOL0     O82644  11.109   6.535   3.931 -0.1539  0.9045  0.3333
  613MOL0     C82645  11.044   6.562   3.815  0.0013 -0.6519  0.0080
  613MOL0     C82646  11.009   6.455   3.737 -0.1278 -0.1401  0.1240
  613MOL0     C82647  10.938   6.466   3.621 -0.4984 -0.4364  0.4201
  613MOL0     C82648  10.919   6.591   3.557 -1.2573  0.5109  0.0495
  613MOL0     C82649  10.861   6.610   3.429 -0.0884 -0.5194  0.3992
  613MOL0     O82650  10.844   6.496   3.351  0.1045 -0.1730  0.4986
  613MOL0     C82651  10.786   6.502   3.228  0.9407 -0.7853  0.4074
  613MOL0     C82652  10.793   6.601   3.128 -0.8387 -1.0351  0.0255
  613MOL0     C82653  10.739   6.581   2.998  0.6122 -0.4048  0.0070
  613MOL0     C82654  10.674   6.464   2.970  0.1360  0.6401 -0.1598
  613MOL0     O82655  10.631   6.439   2.847 -0.3760  0.4837  0.1137
  613MOL0     C82656  10.577   6.552   2.768 -0.2628  0.2684  0.5679
  613MOL0     C82657  10.471   6.477   2.680  0.7928 -0.7978  0.5415
  613MOL0     C82658  10.527   6.352   2.594 -0.6515 -0.5216 -0.3161
  613MOL0     C82659  10.400   6.293   2.528 -0.2994 -0.2102  0.2178
  613MOL0     C82660  10.441   6.183   2.426  0.3190  0.3012  0.2602
  613MOL0     C82661  10.448   6.048   2.497  0.2467 -0.9365 -0.7164
  613MOL0     C82662  10.465   5.928   2.411 -0.7693 -0.7912  0.2540
  613MOL0     C82663  10.509   5.809   2.491 -0.4720 -0.4088  0.2623
  613MOL0    Cl82664  10.693   5.810   2.531 -0.9891  0.6021  0.2266
  613MOL0     C82665  10.663   6.357   3.067  0.0922 -1.0666 -0.2089
  613MOL0     C82666  10.717   6.388   3.191  0.0400  0.2446 -0.0825
  613MOL0     O82667  10.841   6.729   3.396 -0.1189 -0.0937  0.1374
  613MOL0     C82668  10.962   6.703   3.634 -0.1640  0.4967  0.5753
  613MOL0     C82669  11.028   6.688   3.760  0.0492  0.4690  0.6396
  613MOL0     N82670  11.241   6.802   4.497  0.3119 -0.4413  0.2148
  613MOL0     N82671  11.133   6.848   4.560  0.8365  0.4488 -0.5496
  613MOL0     C82672  10.759   6.540   5.606 -1.1707  0.2072  0.0493
  613MOL0     C82673  10.750   6.532   5.746  0.6258 -0.0474 -0.3596
  613MOL0     C82674  10.502   6.646   6.128  0.8403 -0.3904 -0.3945
  613MOL0     C82675  10.630   6.685   6.180  0.5084 -0.5179  0.1134
  613MOL0     C82676  10.644   6.734   6.308 -0.5455  0.3756  0.2368
  613MOL0     C82677  10.540   6.764   6.392  0.6831  0.1373  0.0916
  613MOL0     O82678  10.569   6.814   6.521 -0.3524 -1.4623 -0.7610
  613MOL0     C82679  10.473   6.886   6.590  1.3249 -0.2243 -1.3217
  613MOL0     C82680  10.496   6.867   6.738  0.1796 -0.1640 -0.7821
  613MOL0     C82681  10.633   6.928   6.789 -0.3377  0.1047  0.1584
  613MOL0     C82682  10.645   6.903   6.954  0.8945 -0.1412 -1.0722
  613MOL0     C82683  10.637   6.759   7.002  0.4511  0.5322 -0.2817
  613MOL0     C82684  10.612   6.638   7.036  0.1634 -0.2024  0.3253
  613MOL0     C82685  10.406   6.750   6.333  0.1016  0.4042  0.5345
  613MOL0     C82686  10.391   6.691   6.203  0.9381  1.0471  0.5880
  613MOL0     C82687  10.247   6.659   6.154 -0.2042 -1.6332  0.8242
  613MOL0     H82688  10.436   6.646   5.750  0.2902  2.1813  1.0280
  613MOL0     H82689  10.466   6.654   5.506  1.1390 -4.0661 -2.4268
  613MOL0     H82690  10.869   6.499   5.373 -0.0966  0.1159 -0.6670
  613MOL0     H82691  10.790   6.526   5.216 -2.5021 -2.1172  0.8636
  613MOL0     H82692  10.972   6.702   5.261 -0.8348 -2.9271 -1.9616
  613MOL0     H82693  10.888   6.737   5.418  0.2398  0.1578 -0.4139
  613MOL0     H82694  10.859   6.884   5.249 -0.5955  0.4457  2.0159
  613MOL0     H82695  10.699   6.817   5.314 -0.1732 -0.8186 -1.2485
  613MOL0     H82696  10.706   6.670   5.102 -0.8974  1.4699 -2.2781
  613MOL0     H82697  10.652   6.841   5.100  0.7152  1.5174 -2.2789
  613MOL0     H82698  10.887   6.901   5.015  1.9931 -0.1495 -0.4933
  613MOL0     H82699  10.939   6.754   5.035  0.9354  1.3493 -2.3480
  613MOL0     H82700  10.723   6.709   4.856 -2.4503  1.8981  1.7509
  613MOL0     H82701  10.754   6.881   4.833 -1.6300  0.1099 -0.1747
  613MOL0     H82702  10.967   6.664   4.809 -0.3269  0.9334  3.1502
  613MOL0     H82703  11.007   6.844   4.803  1.0994 -0.7101 -1.0611
  613MOL0     H82704  10.838   6.701   4.606 -1.0095  2.6476 -3.3420
  613MOL0     H82705  10.879   6.874   4.609  0.2721  0.2163 -0.9977
  613MOL0     H82706  11.038   6.542   4.520  1.6256 -1.9754 -1.6099
  613MOL0     H82707  11.403   6.568   4.427  0.9690  1.9135 -2.0588
  613MOL0     H82708  11.257   6.475   4.389 -2.0356  0.6010  1.2501
  613MOL0     H82709  11.331   6.719   4.221  0.8488  0.2503  0.8026
  613MOL0     H82710  11.404   6.566   4.189 -0.6716 -0.3080 -0.1668
  613MOL0     H82711  11.092   6.584   4.198 -1.1528  0.2496 -0.6608
  613MOL0     H82712  11.199   6.461   4.128 -2.4591  0.0053 -0.7303
  613MOL0     H82713  11.254   6.680   3.975 -0.6484 -0.4593 -1.8677
  613MOL0     H82714  11.084   6.713   4.028  1.6607  1.7182 -0.4509
  613MOL0     H82715  11.040   6.359   3.778  1.5607  0.2740 -0.0968
  613MOL0     H82716  10.908   6.375   3.569  3.3033 -1.0432 -1.0538
  613MOL0     H82717  10.847   6.691   3.155  1.1029 -1.4344 -2.1751
  613MOL0     H82718  10.736   6.661   2.924 -0.3084 -0.4280  0.0074
  613MOL0     H82719  10.541   6.644   2.815  0.5982  2.5186 -2.7810
  613MOL0     H82720  10.655   6.597   2.706  0.0011  2.1550  2.1745
  613MOL0     H82721  10.397   6.443   2.753  0.0874  1.7635  1.1146
  613MOL0     H82722  10.429   6.548   2.608  4.3484 -1.5065 -2.5169
  613MOL0     H82723  10.593   6.402   2.523 -2.9920  2.4187 -0.6263
  613MOL0     H82724  10.576   6.285   2.665 -0.1267  1.8518  1.7082
  613MOL0     H82725  10.341   6.362   2.467 -0.6927 -3.9301 -4.1355
  613MOL0     H82726  10.341   6.249   2.608  0.1221  1.6738  1.6288
  613MOL0     H82727  10.541   6.206   2.387 -1.0650  2.1594 -2.5335
  613MOL0     H82728  10.365   6.168   2.349 -0.6854  0.5833  1.1731
  613MOL0     H82729  10.539   6.047   2.559  0.5448  1.4913 -1.0123
  613MOL0     H82730  10.355   6.039   2.554  0.8177  3.1464  1.2339
  613MOL0     H82731  10.537   5.930   2.329  0.5956  0.3261  1.4049
  613MOL0     H82732  10.368   5.919   2.363 -1.1825  1.6141  0.4930
  613MOL0     H82733  10.445   5.797   2.579 -2.6986  0.4756 -1.1530
  613MOL0     H82734  10.483   5.731   2.419 -2.4671 -0.8960  1.4214
  613MOL0     H82735  10.622   6.260   3.039  0.7627 -1.6970  0.9343
  613MOL0     H82736  10.714   6.307   3.264  0.7685  0.6761  0.4314
  613MOL0     H82737  10.956   6.801   3.588  0.3036 -0.3436 -1.3509
  613MOL0     H82738  11.059   6.779   3.810 -0.4861  1.8098 -1.3446
  613MOL0     H82739  10.865   6.526   5.585 -0.2864  2.9035  2.1272
  613MOL0     H82740  10.834   6.493   5.802 -0.9833 -1.3285  1.2784
  613MOL0     H82741  10.712   6.674   6.110 -0.8791  0.9983 -1.8602
  613MOL0     H82742  10.747   6.740   6.342  0.2942 -2.5067 -1.4554
  613MOL0     H82743  10.368   6.855   6.578  1.1874 -0.5966  0.5405
  613MOL0     H82744  10.483   6.990   6.560 -4.4026  0.6474 -1.3898
  613MOL0     H82745  10.495   6.760   6.760  3.3850  0.4847  4.1950
  613MOL0     H82746  10.426   6.927   6.796  1.0953  1.2933 -1.1252
  613MOL0     H82747  10.617   7.033   6.765 -0.8016 -0.3240 -1.5737
  613MOL0     H82748  10.721   6.887   6.738 -0.0497  3.0886 -2.0304
  613MOL0     H82749  10.732   6.956   6.994 -1.1911  1.3672  1.8117
  613MOL0     H82750  10.552   6.938   6.998 -0.4697 -3.4852 -1.0352
  613MOL0     H82751  10.592   6.538   7.068  2.1833 -0.2685  1.5952
  613MOL0     H82752  10.320   6.781   6.393 -1.2863 -0.6814 -0.8016
  613MOL0     H82753  10.216   6.555   6.142  0.0298 -1.6830  0.6345
  613MOL0     H82754  10.176   6.717   6.214 -0.5740 -0.0724 -1.0060
  613MOL0     H82755  10.237   6.712   6.059 -1.9406 -2.1107  0.7012
  614MOL0     O82756   9.698   8.178   8.403  0.4677 -0.2441 -0.4024
  614MOL0     C82757   9.763   8.243   8.490 -0.4570 -0.3691 -0.8973
  614MOL0     O82758   9.811   8.185   8.599 -0.6869  0.3172 -0.1883
  614MOL0     C82759   9.814   8.043   8.605 -0.9095 -0.9392  0.9648
  614MOL0     C82760   9.709   7.968   8.640  0.9897  0.5807  0.0904
  614MOL0     C82761   9.707   7.830   8.619  0.7945  0.2511  0.5573
  614MOL0     C82762   9.811   7.768   8.551  0.3256 -0.0342 -0.0389
  614MOL0     O82763   9.808   7.635   8.519  0.1464  0.5779  0.6347
  614MOL0     C82764   9.933   7.559   8.514 -0.7600 -0.0735  0.2490
  614MOL0     C82765   9.898   7.406   8.493 -0.8219 -0.7056 -0.6665
  614MOL0     C82766  10.028   7.340   8.442 -0.2178  1.7681  0.6153
  614MOL0     C82767  10.030   7.183   8.463  0.2261  0.0935  0.1433
  614MOL0     C82768  10.127   7.098   8.374  0.3488  0.2529 -0.1811
  614MOL0     C82769  10.263   7.084   8.429 -0.0900 -0.3901 -1.1232
  614MOL0     C82770  10.358   6.996   8.346 -0.4533  0.3176 -0.0765
  614MOL0     C82771  10.498   6.994   8.399 -1.2167 -0.8167 -0.5049
  614MOL0     N82772  10.593   6.904   8.336  0.0318 -0.2547 -0.1963
  614MOL0     C82773  10.623   6.887   8.204 -0.0601 -0.6475  0.1549
  614MOL0     C82774  10.695   6.772   8.196  0.1463 -0.3367  0.0131
  614MOL0     C82775  10.757   6.710   8.073 -0.0171 -0.4365  0.3617
  614MOL0     C82776  10.907   6.720   8.095 -0.3788  0.9335 -0.9572
  614MOL0     C82777  10.992   6.721   7.957  0.6732  0.6874 -0.0894
  614MOL0     C82778  11.142   6.713   7.998  0.0515  0.0371  0.7270
  614MOL0     O82779  11.175   6.573   8.044  0.2897  1.3320  0.0322
  614MOL0     C82780  11.302   6.559   8.094 -0.5199 -0.5009  0.6583
  614MOL0     C82781  11.326   6.449   8.167 -0.6017 -0.1353 -0.9340
  614MOL0     C82782  11.448   6.424   8.232  0.4459 -0.8511 -0.3239
  614MOL0     C82783  11.555   6.518   8.211 -1.3501  0.1953 -1.1657
  614MOL0     C82784  11.686   6.492   8.266  0.0373  0.7977  0.2613
  614MOL0     O82785  11.705   6.367   8.337  0.1871 -0.1225 -0.4288
  614MOL0     C82786  11.825   6.335   8.393 -0.4767 -0.9434 -0.2381
  614MOL0     C82787  11.935   6.424   8.414 -0.2550  0.8153  0.4473
  614MOL0     C82788  12.052   6.380   8.464 -0.2368 -0.3177  1.2018
  614MOL0     C82789  12.070   6.249   8.515  0.3397  0.3079  0.4762
  614MOL0     O82790  12.195   6.214   8.565 -0.2338  0.1142  0.2517
  614MOL0     C82791  12.305   6.308   8.585 -0.3290  0.5355 -0.3143
  614MOL0     C82792  12.431   6.217   8.614  0.0754  0.4970 -0.2339
  614MOL0     C82793  12.547   6.295   8.661  0.0200 -0.5726  0.0620
  614MOL0     C82794  12.661   6.220   8.729  0.3018  0.0757  0.0750
  614MOL0     C82795  12.619   6.169   8.868  0.7248 -0.1891  0.0346
  614MOL0     C82796  12.739   6.114   8.947  0.1254 -0.3937 -0.0980
  614MOL0     C82797  12.718   5.996   9.051 -0.3429  0.2142  0.1520
  614MOL0     C82798  12.631   6.053   9.167 -0.1534 -0.8538 -0.4524
  614MOL0    Cl82799  12.658   5.972   9.322 -0.0577  0.3881  0.2937
  614MOL0     C82800  11.963   6.156   8.495  0.1323 -1.2456 -0.1178
  614MOL0     C82801  11.844   6.202   8.430  0.2008  0.0132  0.0657
  614MOL0     O82802  11.769   6.572   8.240  0.3492 -0.5389 -0.8670
  614MOL0     C82803  11.533   6.626   8.127  0.5995  0.0998 -0.0872
  614MOL0     C82804  11.406   6.651   8.080  1.0034  0.0479  0.1182
  614MOL0     N82805  10.718   6.734   8.326 -0.2362 -0.1549  0.0685
  614MOL0     N82806  10.657   6.808   8.402 -0.0812 -0.0941 -0.7700
  614MOL0     C82807   9.918   7.846   8.523 -0.5987  0.2258  0.1989
  614MOL0     C82808   9.924   7.982   8.537  0.2105  1.6996 -0.0732
  614MOL0     C82809   9.778   8.398   8.475  0.2908  0.2633 -0.1819
  614MOL0     C82810   9.813   8.486   8.581  0.1416  0.0320  0.0017
  614MOL0     C82811   9.827   8.620   8.566 -0.1676  0.8229  0.1659
  614MOL0     C82812   9.806   8.678   8.441 -0.3603 -0.1757  0.3158
  614MOL0     O82813   9.832   8.807   8.414  0.2933  0.1258 -0.1718
  614MOL0     C82814   9.755   8.908   8.484  0.5310 -0.7942  1.3516
  614MOL0     C82815   9.602   8.912   8.433  0.1002  0.2369 -0.1861
  614MOL0     C82816   9.585   8.913   8.282 -0.7028 -0.3372 -0.0467
  614MOL0     C82817   9.444   8.874   8.257 -0.4663  0.0716 -0.1457
  614MOL0     C82818   9.404   8.887   8.116 -0.6449  0.0624  0.2941
  614MOL0     C82819   9.378   8.924   8.002 -0.0316  0.2012 -0.1769
  614MOL0     C82820   9.769   8.602   8.331  0.0693  0.1061  0.4100
  614MOL0     C82821   9.754   8.458   8.349  0.1538  0.2894 -0.6177
  614MOL0     C82822   9.716   8.386   8.214 -0.2204  0.6777 -0.5878
  614MOL0     H82823   9.637   8.011   8.709  1.2446  1.8645 -0.4124
  614MOL0     H82824   9.626   7.762   8.647  0.5882 -0.5988 -1.8781
  614MOL0     H82825  10.005   7.589   8.438 -0.2329 -3.0882 -0.5765
  614MOL0     H82826   9.982   7.565   8.612 -0.0119 -2.2336  0.0662
  614MOL0     H82827   9.820   7.397   8.416 -2.7515 -4.0558  1.4240
  614MOL0     H82828   9.856   7.369   8.587 -1.8220  2.4751  0.2753
  614MOL0     H82829  10.103   7.383   8.510  2.9712 -1.3823 -0.6225
  614MOL0     H82830  10.053   7.371   8.341 -1.2857  3.9058  0.9324
  614MOL0     H82831  10.042   7.155   8.568 -0.7726 -1.6700 -0.1619
  614MOL0     H82832   9.931   7.152   8.426  1.0498 -1.4539 -0.8757
  614MOL0     H82833  10.079   7.000   8.366  0.7165  0.0859 -0.4201
  614MOL0     H82834  10.134   7.132   8.270  1.9012  0.8801  0.0985
  614MOL0     H82835  10.310   7.183   8.430 -3.1015  1.1904 -2.6503
  614MOL0     H82836  10.266   7.064   8.537  0.3501 -0.3534 -1.1288
  614MOL0     H82837  10.363   7.036   8.244 -0.4872  0.5107 -0.0032
  614MOL0     H82838  10.321   6.894   8.331 -0.4144  0.2176  0.4968
  614MOL0     H82839  10.546   7.092   8.397  1.7094 -2.1476 -1.9806
  614MOL0     H82840  10.493   6.992   8.508 -4.2093  4.3742 -0.2272
  614MOL0     H82841  10.571   6.939   8.124  1.7518 -0.5231 -1.0112
  614MOL0     H82842  10.728   6.604   8.066 -3.9655  0.2361  2.9958
  614MOL0     H82843  10.721   6.761   7.983 -0.5459 -0.6652  0.4356
  614MOL0     H82844  10.922   6.807   8.160 -0.2168  2.9929 -3.5979
  614MOL0     H82845  10.931   6.635   8.161 -1.3790  2.4482  1.5181
  614MOL0     H82846  10.959   6.806   7.897 -1.8562  1.1317  1.7688
  614MOL0     H82847  10.977   6.625   7.907  3.0673 -0.4418  1.1547
  614MOL0     H82848  11.164   6.786   8.076  1.0331  0.2188  0.2862
  614MOL0     H82849  11.208   6.733   7.914  0.3634  2.5025  1.4739
  614MOL0     H82850  11.245   6.380   8.190 -1.7462  1.7697  1.2354
  614MOL0     H82851  11.469   6.336   8.292  2.9865  0.3739  0.7292
  614MOL0     H82852  11.921   6.530   8.397  0.5254  1.1694  1.8527
  614MOL0     H82853  12.135   6.448   8.479  2.0536 -1.7496 -3.1555
  614MOL0     H82854  12.321   6.369   8.496 -0.5900  1.5314  0.3073
  614MOL0     H82855  12.294   6.377   8.669 -1.5272 -0.1943  0.1550
  614MOL0     H82856  12.408   6.140   8.688 -0.6257  2.5530  1.8398
  614MOL0     H82857  12.454   6.164   8.522 -5.1359 -0.0638 -1.5146
  614MOL0     H82858  12.597   6.341   8.575  1.0409  0.7613  1.3156
  614MOL0     H82859  12.512   6.381   8.719  1.2782  1.2510 -1.7159
  614MOL0     H82860  12.744   6.289   8.748  0.1783  0.1959  0.1678
  614MOL0     H82861  12.691   6.130   8.674  0.4174  0.0347  0.2042
  614MOL0     H82862  12.553   6.084   8.848 -1.0712  1.1153  0.1741
  614MOL0     H82863  12.552   6.231   8.927 -0.3134 -1.5308  0.3049
  614MOL0     H82864  12.794   6.067   8.866  0.9612  0.7960 -0.2470
  614MOL0     H82865  12.786   6.194   9.006  1.2366 -0.5325 -0.7886
  614MOL0     H82866  12.813   5.959   9.091 -1.6987  0.0131  3.4537
  614MOL0     H82867  12.667   5.917   8.995  0.7731 -0.3052 -0.1479
  614MOL0     H82868  12.631   6.162   9.175 -1.3923 -0.4810 -3.8952
  614MOL0     H82869  12.527   6.029   9.144  0.2668 -2.4688 -0.7876
  614MOL0     H82870  11.978   6.055   8.533  2.4425 -1.0775 -0.4930
  614MOL0     H82871  11.756   6.145   8.402  1.7219 -1.7654 -1.3481
  614MOL0     H82872  11.606   6.704   8.109  1.6982 -0.7056  0.7420
  614MOL0     H82873  11.385   6.732   8.011 -1.5430  0.3850  1.1648
  614MOL0     H82874  10.001   7.796   8.473  0.1294  0.7427  0.8580
  614MOL0     H82875  10.011   8.035   8.499  1.6255  0.3047  1.0863
  614MOL0     H82876   9.811   8.436   8.678  2.0820  1.9305  1.0951
  614MOL0     H82877   9.851   8.674   8.657 -1.4472 -0.9114  1.6246
  614MOL0     H82878   9.806   9.004   8.471  2.1841 -1.9271 -1.2136
  614MOL0     H82879   9.748   8.900   8.593  0.3112 -1.1490  1.3123
  614MOL0     H82880   9.581   9.015   8.462  0.6222  1.1853 -2.8680
  614MOL0     H82881   9.532   8.842   8.479  0.5843  0.2341  0.5608
  614MOL0     H82882   9.655   8.840   8.243  0.4761  0.2079  0.9843
  614MOL0     H82883   9.607   9.009   8.234 -2.1569 -0.7695 -1.7067
  614MOL0     H82884   9.445   8.768   8.284 -0.9367 -0.1210 -0.8713
  614MOL0     H82885   9.371   8.924   8.320  1.8295  0.8459  2.0818
  614MOL0     H82886   9.358   8.931   7.896  1.1737 -4.8027 -1.0076
  614MOL0     H82887   9.779   8.647   8.233 -1.9917 -1.2666 -0.5174
  614MOL0     H82888   9.615   8.343   8.217  1.1474 -2.8436  1.5929
  614MOL0     H82889   9.725   8.453   8.129 -1.7097 -0.1584 -1.4563
  614MOL0     H82890   9.780   8.300   8.193 -1.7568 -0.6823 -0.0097
  615MOL0     O82891   2.181   6.822   6.636 -0.5477 -0.2267  0.8731
  615MOL0     C82892   2.206   6.704   6.645  0.2345 -0.2017 -0.6298
  615MOL0     O82893   2.178   6.634   6.755  0.3791  0.2551 -1.1538
  615MOL0     C82894   2.112   6.703   6.862 -0.2020  0.4443  0.0133
  615MOL0     C82895   1.978   6.743   6.844  0.6878  0.8798  0.8392
  615MOL0     C82896   1.907   6.785   6.966 -0.0438 -0.7622  0.5857
  615MOL0     C82897   1.966   6.774   7.094 -0.2787 -0.4868 -0.5026
  615MOL0     O82898   1.903   6.813   7.216  0.5299  0.1505  0.2729
  615MOL0     C82899   1.824   6.929   7.206 -1.3286 -0.6241  0.9672
  615MOL0     C82900   1.777   6.972   7.344  0.8736 -1.1660  0.1662
  615MOL0     C82901   1.874   7.031   7.451 -0.0513 -0.5111  0.5117
  615MOL0     C82902   1.825   7.044   7.592 -0.3071 -0.0445 -0.0012
  615MOL0     C82903   1.907   7.146   7.671 -0.2764 -0.4593 -0.0569
  615MOL0     C82904   1.899   7.120   7.823  0.2016  0.5219 -1.0250
  615MOL0     C82905   2.019   7.198   7.895 -0.0689 -0.1129 -0.8034
  615MOL0     C82906   2.159   7.129   7.864  0.3640 -0.1983  1.0597
  615MOL0     N82907   2.167   6.983   7.900  0.2771  0.3971  0.5087
  615MOL0     C82908   2.267   6.902   7.870 -0.5346  0.0650  0.2188
  615MOL0     C82909   2.249   6.786   7.932  0.5702  1.0029 -0.8181
  615MOL0     C82910   2.349   6.666   7.929  0.2533 -0.4416 -0.4064
  615MOL0     C82911   2.459   6.687   7.831  0.2446 -0.5585  0.0466
  615MOL0     C82912   2.523   6.553   7.814 -0.1633 -0.0453  0.5499
  615MOL0     C82913   2.655   6.571   7.741  0.7021  1.0386  1.1919
  615MOL0     O82914   2.748   6.614   7.839  0.0793 -0.2383 -0.0401
  615MOL0     C82915   2.876   6.631   7.805  0.2716 -0.6744  0.6945
  615MOL0     C82916   2.966   6.669   7.899 -0.6515  0.2687  0.0627
  615MOL0     C82917   3.098   6.691   7.864 -0.4152  0.4869  0.6487
  615MOL0     C82918   3.151   6.687   7.736  0.3096  0.3900  0.1517
  615MOL0     C82919   3.284   6.728   7.701 -1.1582  0.8683  0.2403
  615MOL0     O82920   3.329   6.684   7.578 -0.8747 -0.0287  0.2568
  615MOL0     C82921   3.450   6.716   7.526 -0.3079 -0.2759  0.0213
  615MOL0     C82922   3.522   6.827   7.558  0.6390 -1.0279  0.0787
  615MOL0     C82923   3.652   6.857   7.502  0.5575 -0.1204  0.6086
  615MOL0     C82924   3.704   6.765   7.414 -0.4255  0.0956  0.5599
  615MOL0     O82925   3.821   6.793   7.345 -0.0627  0.1526 -0.5934
  615MOL0     C82926   3.911   6.897   7.399 -0.2347 -0.5136  0.1736
  615MOL0     C82927   4.041   6.908   7.316 -0.6084 -0.5941 -0.5495
  615MOL0     C82928   4.094   6.780   7.248 -0.2943  0.8449  0.6241
  615MOL0     C82929   4.120   6.666   7.349 -0.2477  1.0209 -0.1483
  615MOL0     C82930   4.185   6.543   7.288  1.0910  0.0152  0.2520
  615MOL0     C82931   4.175   6.422   7.380 -0.2404 -0.4797 -0.4510
  615MOL0     C82932   4.269   6.429   7.498  0.5465  0.4166 -0.3252
  615MOL0     C82933   4.240   6.314   7.603  0.1493  0.0933  1.2388
  615MOL0    Cl82934   4.367   6.315   7.720 -0.0279 -0.2808  0.1379
  615MOL0     C82935   3.631   6.652   7.383  0.3187  0.3498  0.4061
  615MOL0     C82936   3.501   6.620   7.438 -0.6913 -1.4178  0.5817
  615MOL0     O82937   3.355   6.787   7.794 -0.1732  0.3312 -0.4556
  615MOL0     C82938   3.064   6.644   7.639  0.2972 -0.0477  1.2469
  615MOL0     C82939   2.931   6.619   7.675 -0.1384  0.2772  0.2456
  615MOL0     N82940   2.136   6.810   8.015 -0.0190  0.7371  0.3518
  615MOL0     N82941   2.088   6.922   7.987 -0.3947  0.5589 -0.5204
  615MOL0     C82942   2.099   6.716   7.106  0.5157  0.4401  0.1181
  615MOL0     C82943   2.165   6.694   6.988  0.8321  0.2980  0.3907
  615MOL0     C82944   2.283   6.641   6.542  0.7135  0.2422  1.0190
  615MOL0     C82945   2.359   6.521   6.570  0.6660 -0.2893 -0.9474
  615MOL0     C82946   2.450   6.460   6.485  0.7517  0.8749  0.7242
  615MOL0     C82947   2.459   6.513   6.357 -0.5311 -0.5519  0.8462
  615MOL0     O82948   2.550   6.460   6.267 -0.4327  0.0392 -0.0487
  615MOL0     C82949   2.603   6.328   6.277  0.3444  0.3373  1.2316
  615MOL0     C82950   2.666   6.294   6.141  0.1981  1.1527  0.5922
  615MOL0     C82951   2.662   6.142   6.131  0.4948  0.3687  0.0405
  615MOL0     C82952   2.716   6.107   5.992  0.5510 -2.0381  0.7959
  615MOL0     C82953   2.701   5.968   5.949  0.7501 -0.9804  0.7717
  615MOL0     C82954   2.677   5.862   5.910  0.3308  0.1974 -0.4695
  615MOL0     C82955   2.376   6.622   6.323  0.1592  0.6118  0.3742
  615MOL0     C82956   2.294   6.687   6.407  0.5838  1.0702 -0.4967
  615MOL0     C82957   2.213   6.800   6.354 -0.1660  0.4118  0.0762
  615MOL0     H82958   1.930   6.748   6.746  1.9640  0.8603  0.1906
  615MOL0     H82959   1.804   6.802   6.940  0.2660 -1.0826 -0.9337
  615MOL0     H82960   1.893   7.000   7.158  1.7805 -3.7169  0.4704
  615MOL0     H82961   1.746   6.936   7.129 -0.0778 -0.4940 -0.3253
  615MOL0     H82962   1.716   6.892   7.387  1.3818 -3.3927 -2.8554
  615MOL0     H82963   1.704   7.050   7.323  1.7078 -0.7096 -1.1131
  615MOL0     H82964   1.906   7.132   7.425 -0.8427 -0.7451 -1.5493
  615MOL0     H82965   1.970   6.979   7.450 -0.8066 -1.9790  0.4182
  615MOL0     H82966   1.722   7.082   7.595  0.2823  1.9853 -2.1303
  615MOL0     H82967   1.821   6.946   7.640 -0.0287 -0.9091 -1.6819
  615MOL0     H82968   2.009   7.135   7.633  0.4631  0.8086  1.4406
  615MOL0     H82969   1.876   7.249   7.651 -0.6603 -0.1866  1.7604
  615MOL0     H82970   1.802   7.159   7.853  2.4776  2.6711  4.9251
  615MOL0     H82971   1.891   7.013   7.844 -1.3443  0.7101 -0.5246
  615MOL0     H82972   2.000   7.196   8.002  0.6093  3.2378 -0.5322
  615MOL0     H82973   2.022   7.304   7.870 -2.6671  1.6119  4.7351
  615MOL0     H82974   2.175   7.138   7.756 -0.0843 -4.7375  0.3976
  615MOL0     H82975   2.239   7.183   7.915 -2.2946 -0.2016  5.7675
  615MOL0     H82976   2.352   6.935   7.811  1.6890 -2.5999  1.6962
  615MOL0     H82977   2.393   6.661   8.029  0.3935 -0.7150 -0.4802
  615MOL0     H82978   2.292   6.575   7.907 -2.4008  0.7031  1.1490
  615MOL0     H82979   2.421   6.707   7.730 -1.1789 -0.3248  0.5978
  615MOL0     H82980   2.521   6.773   7.859  1.2702 -0.6991 -1.6791
  615MOL0     H82981   2.462   6.496   7.743 -0.6784  1.5615 -0.3436
  615MOL0     H82982   2.531   6.494   7.906  1.2505 -2.3413 -0.9463
  615MOL0     H82983   2.659   6.650   7.665  0.8432  0.6993  0.8469
  615MOL0     H82984   2.667   6.467   7.709  1.9156  1.3609  0.5205
  615MOL0     H82985   2.938   6.687   8.002 -3.3581  1.2793 -0.7764
  615MOL0     H82986   3.171   6.722   7.938 -0.4460  2.2919 -0.0418
  615MOL0     H82987   3.482   6.897   7.631 -0.2130  0.7435 -1.9639
  615MOL0     H82988   3.708   6.945   7.530  4.1450 -1.5436 -1.3814
  615MOL0     H82989   3.867   6.998   7.400  0.1541 -0.3364  1.4724
  615MOL0     H82990   3.939   6.881   7.503 -0.0216 -1.2785  0.0029
  615MOL0     H82991   4.039   6.990   7.244 -1.4624 -0.8733 -0.8606
  615MOL0     H82992   4.130   6.929   7.376 -0.1844 -2.3926 -0.4887
  615MOL0     H82993   4.032   6.750   7.163  3.0145  0.2820 -1.7959
  615MOL0     H82994   4.191   6.799   7.202  1.1016  3.1859  4.0845
  615MOL0     H82995   4.022   6.641   7.392 -0.8859  3.9612  0.3371
  615MOL0     H82996   4.173   6.699   7.438  0.0985 -4.4360  2.0354
  615MOL0     H82997   4.288   6.550   7.250 -0.0513 -0.3812 -3.3249
  615MOL0     H82998   4.116   6.524   7.205  1.4687  2.6262 -0.7590
  615MOL0     H82999   4.074   6.416   7.421 -0.3097  0.7072 -0.4069
  615MOL0     H83000   4.187   6.330   7.322  0.8359 -2.9404  3.2550
  615MOL0     H83001   4.261   6.527   7.545 -1.4321  0.4145 -0.6004
  615MOL0     H83002   4.374   6.423   7.466  0.6860  2.9023 -0.5055
  615MOL0     H83003   4.143   6.323   7.653  0.2046 -0.1986  1.4044
  615MOL0     H83004   4.245   6.219   7.549 -3.0722 -0.0645  1.0053
  615MOL0     H83005   3.677   6.583   7.313 -0.9693 -3.2812  2.8611
  615MOL0     H83006   3.454   6.523   7.427  0.1892 -1.6325 -2.0421
  615MOL0     H83007   3.089   6.643   7.533 -0.2811 -0.0063  1.1086
  615MOL0     H83008   2.876   6.578   7.590 -2.1962  1.9007  0.7113
  615MOL0     H83009   2.160   6.716   7.195  1.6976  0.6443 -0.6756
  615MOL0     H83010   2.268   6.662   6.981  0.6151 -0.1074 -1.1643
  615MOL0     H83011   2.346   6.482   6.670  1.7751 -0.7632 -0.9649
  615MOL0     H83012   2.495   6.366   6.514 -2.0210 -0.1774  1.9358
  615MOL0     H83013   2.525   6.265   6.318 -1.9198  0.6362 -2.2437
  615MOL0     H83014   2.673   6.311   6.359 -0.9198 -3.0070  1.7571
  615MOL0     H83015   2.770   6.323   6.123  0.4071 -0.3124 -0.8197
  615MOL0     H83016   2.609   6.341   6.061 -1.1186  1.4571  1.6737
  615MOL0     H83017   2.561   6.114   6.162  1.6704 -1.7943  2.2901
  615MOL0     H83018   2.733   6.096   6.199  0.9912 -0.0351 -0.7329
  615MOL0     H83019   2.658   6.177   5.931  0.6319 -1.1528  1.7170
  615MOL0     H83020   2.816   6.150   5.982 -0.5994  0.7892  0.6094
  615MOL0     H83021   2.648   5.767   5.870  0.5873  0.7212 -1.9541
  615MOL0     H83022   2.387   6.648   6.218  2.5124  1.9981  0.8675
  615MOL0     H83023   2.213   6.809   6.245  2.1815  0.6907  0.0346
  615MOL0     H83024   2.108   6.797   6.384  0.3042 -1.0238  1.7770
  615MOL0     H83025   2.265   6.890   6.386 -0.6510  0.1734  1.6175
  616MOL0     O83026  11.198   6.511  10.376 -0.1312 -0.1979 -0.0019
  616MOL0     C83027  11.203   6.553  10.260  0.6699  0.5545 -0.2628
  616MOL0     O83028  11.211   6.473  10.149 -0.9390 -0.1663 -0.0790
  616MOL0     C83029  11.272   6.350  10.171  0.4735 -0.6496  0.8395
  616MOL0     C83030  11.411   6.335  10.172  0.7866  0.8599  0.9237
  616MOL0     C83031  11.460   6.208  10.206 -0.2437  0.7029 -0.2513
  616MOL0     C83032  11.380   6.091  10.224 -0.5855  0.7896  0.3132
  616MOL0     O83033  11.442   5.969  10.231 -0.8988  0.5773 -0.1114
  616MOL0     C83034  11.387   5.897  10.341 -0.1249  0.2756 -0.5862
  616MOL0     C83035  11.484   5.784  10.376 -0.0219  0.1528 -0.0195
  616MOL0     C83036  11.454   5.743  10.514  0.1843  0.1184 -1.2047
  616MOL0     C83037  11.535   5.632  10.588  0.4387 -0.6443 -0.5130
  616MOL0     C83038  11.462   5.623  10.729 -0.1119  0.5278  0.4195
  616MOL0     C83039  11.461   5.476  10.782 -0.2075 -0.1680 -0.6622
  616MOL0     C83040  11.398   5.464  10.921  0.9690 -0.4511 -0.4544
  616MOL0     C83041  11.347   5.326  10.944  0.0929  0.4942  0.4831
  616MOL0     N83042  11.453   5.245  11.004 -0.6096 -0.3200  0.4541
  616MOL0     C83043  11.468   5.230  11.139  0.1051  0.6157  0.3399
  616MOL0     C83044  11.591   5.165  11.153 -0.0793 -0.1502  0.7102
  616MOL0     C83045  11.653   5.105  11.284  0.8048  1.0501  0.2174
  616MOL0     C83046  11.786   5.027  11.257 -0.4976  0.2547  0.0831
  616MOL0     C83047  11.883   5.042  11.377  1.1126 -0.4858  0.8337
  616MOL0     C83048  12.009   4.953  11.360  0.5524 -0.0713 -0.2223
  616MOL0     O83049  12.091   4.986  11.243  0.6849  0.1505  0.0290
  616MOL0     C83050  12.221   4.997  11.271  1.2506  0.7124  0.1922
  616MOL0     C83051  12.292   4.881  11.288 -1.1743  0.3262 -0.0366
  616MOL0     C83052  12.431   4.886  11.308  0.2223 -0.0589  0.1142
  616MOL0     C83053  12.497   5.005  11.313 -0.1586 -0.8171 -0.1494
  616MOL0     C83054  12.644   5.001  11.337 -0.3596  0.2715  0.4375
  616MOL0     O83055  12.708   4.885  11.357 -0.4866 -0.1692 -0.1933
  616MOL0     C83056  12.838   4.886  11.393  0.2162  0.9028  0.2148
  616MOL0     C83057  12.943   4.947  11.321 -0.4204  0.5890  0.3556
  616MOL0     C83058  13.077   4.933  11.364  0.2991  0.5287  0.5686
  616MOL0     C83059  13.099   4.861  11.480 -0.0814  0.2287 -0.9421
  616MOL0     O83060  13.225   4.868  11.541  0.0469  0.3515  0.4670
  616MOL0     C83061  13.226   4.886  11.684  0.8835  0.6427 -0.7469
  616MOL0     C83062  13.365   4.881  11.736 -0.3692 -0.0110 -0.3900
  616MOL0     C83063  13.376   4.929  11.881 -0.3697 -0.5552  0.3893
  616MOL0     C83064  13.344   5.078  11.912  0.0405  0.0154  0.0134
  616MOL0     C83065  13.449   5.173  11.853 -0.0179  0.6571  0.8491
  616MOL0     C83066  13.449   5.309  11.923  0.1496 -0.6440  0.1761
  616MOL0     C83067  13.545   5.408  11.856 -0.1790  0.6457  0.2718
  616MOL0     C83068  13.479   5.537  11.833 -0.6647  0.5067 -0.6031
  616MOL0    Cl83069  13.418   5.603  11.972  0.0664  0.2235 -0.5519
  616MOL0     C83070  12.995   4.788  11.545  0.1880  0.0678 -0.1183
  616MOL0     C83071  12.862   4.810  11.503 -0.3384 -0.6285  0.1546
  616MOL0     O83072  12.693   5.118  11.359  1.1115 -0.6882 -0.7698
  616MOL0     C83073  12.430   5.126  11.293 -0.1732 -0.4491  1.1963
  616MOL0     C83074  12.292   5.116  11.278  0.0000 -0.1119 -0.2082
  616MOL0     N83075  11.645   5.152  11.028 -0.0231  0.2471 -0.0633
  616MOL0     N83076  11.565   5.187  10.943  0.0922  0.0247 -0.1372
  616MOL0     C83077  11.249   6.112  10.230  0.8468  0.0071  0.7032
  616MOL0     C83078  11.192   6.237  10.195  0.8018 -0.0648 -0.4437
  616MOL0     C83079  11.169   6.694  10.221  0.9954  0.5516  0.1903
  616MOL0     C83080  11.160   6.722  10.083 -0.1450  0.0965 -0.0405
  616MOL0     C83081  11.097   6.841  10.043 -0.8459  0.4830 -0.8151
  616MOL0     C83082  11.049   6.940  10.136  0.5089 -0.2451 -0.2208
  616MOL0     O83083  11.016   7.063  10.099 -0.1753  0.0767  0.6424
  616MOL0     C83084  10.931   7.154  10.175 -0.5490  0.8684 -0.8380
  616MOL0     C83085  10.788   7.107  10.201  0.1256 -0.2936  0.3890
  616MOL0     C83086  10.707   7.068  10.079 -0.2826  0.3876 -0.0831
  616MOL0     C83087  10.559   7.047  10.092  0.2839 -0.3639 -1.1631
  616MOL0     C83088  10.497   6.978   9.985  0.2785 -0.1775  0.4196
  616MOL0     C83089  10.462   6.920   9.889 -0.0892  0.2076  0.1056
  616MOL0     C83090  11.073   6.911  10.271  0.4260 -0.4062 -0.4021
  616MOL0     C83091  11.133   6.792  10.312  0.2606  0.5925 -0.0398
  616MOL0     C83092  11.126   6.775  10.457 -0.4650 -0.2926 -0.7691
  616MOL0     H83093  11.483   6.416  10.161 -1.7854  3.1637 -0.2248
  616MOL0     H83094  11.567   6.197  10.192  0.3354  3.4831  1.1314
  616MOL0     H83095  11.385   5.959  10.432  1.2095 -1.0532  0.3957
  616MOL0     H83096  11.288   5.855  10.323 -0.7066 -0.9441  4.0482
  616MOL0     H83097  11.590   5.809  10.365  0.4516 -2.4072 -2.3501
  616MOL0     H83098  11.458   5.706  10.305 -0.7713 -0.0241  0.4285
  616MOL0     H83099  11.348   5.721  10.501 -0.5400  3.2882 -1.4467
  616MOL0     H83100  11.457   5.830  10.579 -1.9250  0.0393 -0.9261
  616MOL0     H83101  11.518   5.546  10.523  0.1487 -0.8341 -0.1896
  616MOL0     H83102  11.639   5.660  10.607  0.4454 -1.9918  1.9483
  616MOL0     H83103  11.512   5.694  10.795 -0.6783  1.0027  0.3621
  616MOL0     H83104  11.356   5.648  10.718 -0.6521 -1.2796  1.2133
  616MOL0     H83105  11.397   5.410  10.724 -0.8804 -0.0519 -0.0714
  616MOL0     H83106  11.558   5.426  10.774 -2.0920 -4.6885  1.5357
  616MOL0     H83107  11.314   5.534  10.913  1.9290  0.9665  1.1012
  616MOL0     H83108  11.464   5.490  11.004  2.0099 -1.8043 -0.8350
  616MOL0     H83109  11.265   5.320  11.015  0.6159  1.5709  1.1938
  616MOL0     H83110  11.322   5.283  10.846  2.6082 -0.3714  0.1422
  616MOL0     H83111  11.400   5.267  11.215  0.1180  1.8755 -0.2328
  616MOL0     H83112  11.686   5.191  11.343  3.6882  0.7499 -0.7926
  616MOL0     H83113  11.574   5.053  11.339 -0.0748  0.7192 -1.3161
  616MOL0     H83114  11.759   4.921  11.255 -0.6749  0.3127 -0.7294
  616MOL0     H83115  11.839   5.064  11.170  4.5404 -0.3754  2.5105
  616MOL0     H83116  11.827   5.026  11.470 -1.5362 -1.7192 -0.8555
  616MOL0     H83117  11.915   5.146  11.370 -1.9012  0.4146 -2.3775
  616MOL0     H83118  11.978   4.847  11.363 -1.3661  0.4331 -0.7456
  616MOL0     H83119  12.072   4.967  11.448  2.3695 -0.6474 -1.3902
  616MOL0     H83120  12.239   4.787  11.278 -2.5665  1.3401 -3.2465
  616MOL0     H83121  12.486   4.793  11.304 -2.1757 -1.6264 -4.2807
  616MOL0     H83122  12.938   5.000  11.226  5.1858 -3.2884 -2.6608
  616MOL0     H83123  13.162   4.989  11.328  1.5494 -0.1334  2.3988
  616MOL0     H83124  13.175   4.977  11.716  1.0984 -0.0193  1.6544
  616MOL0     H83125  13.181   4.798  11.731  0.7184 -0.4257 -2.7845
  616MOL0     H83126  13.389   4.775  11.730 -2.7429 -0.7264  1.4161
  616MOL0     H83127  13.437   4.929  11.668 -0.6578 -0.7905 -1.2579
  616MOL0     H83128  13.304   4.871  11.940  0.3471 -0.3748  1.4652
  616MOL0     H83129  13.475   4.906  11.920 -0.4049  4.0934  4.1546
  616MOL0     H83130  13.360   5.084  12.020 -0.6777 -1.8509  0.2524
  616MOL0     H83131  13.239   5.104  11.898  0.0911  0.2201  0.0139
  616MOL0     H83132  13.431   5.182  11.745 -3.3494 -3.0808  0.8852
  616MOL0     H83133  13.546   5.124  11.865  0.5550  0.2761 -3.5120
  616MOL0     H83134  13.346   5.345  11.929  0.5523  0.2993  3.1090
  616MOL0     H83135  13.482   5.300  12.027  2.3054 -1.0981 -0.4935
  616MOL0     H83136  13.586   5.368  11.762 -0.4946 -1.9633  1.1675
  616MOL0     H83137  13.633   5.421  11.919 -1.0597  0.7513  1.5032
  616MOL0     H83138  13.548   5.609  11.787  0.4199 -0.5969 -0.7603
  616MOL0     H83139  13.408   5.517  11.752 -0.7659 -1.8675 -0.0009
  616MOL0     H83140  13.024   4.739  11.637  0.4939  2.3559  1.0739
  616MOL0     H83141  12.776   4.761  11.547 -1.6424  1.7789  0.4810
  616MOL0     H83142  12.473   5.223  11.276 -0.8583 -0.7182 -3.3948
  616MOL0     H83143  12.233   5.205  11.260 -0.1276 -0.7345 -3.5244
  616MOL0     H83144  11.194   6.025  10.264  3.7297 -2.4296 -0.4035
  616MOL0     H83145  11.085   6.252  10.210  0.4221 -2.5308 -0.2507
  616MOL0     H83146  11.166   6.652  10.000 -0.1702  0.0883 -0.0355
  616MOL0     H83147  11.078   6.852   9.936  1.1375 -1.0170 -1.3974
  616MOL0     H83148  10.933   7.240  10.109  0.7035  1.0579 -0.5930
  616MOL0     H83149  10.972   7.186  10.271 -0.5753 -0.5488 -0.3277
  616MOL0     H83150  10.738   7.187  10.256  1.4250 -0.7635  2.3150
  616MOL0     H83151  10.795   7.026  10.274 -3.6808  0.2905  1.6565
  616MOL0     H83152  10.748   6.973  10.044  1.2799  0.5286  1.2606
  616MOL0     H83153  10.727   7.152  10.012  0.6119  0.5720  0.4118
  616MOL0     H83154  10.520   6.996  10.181  0.9546 -0.5868 -0.9959
  616MOL0     H83155  10.505   7.142  10.107  1.2217 -0.1278  1.2051
  616MOL0     H83156  10.402   6.879   9.811 -0.6354 -1.2662  1.2625
  616MOL0     H83157  11.057   6.994  10.338  0.6466 -0.4877 -0.2463
  616MOL0     H83158  11.077   6.866  10.494 -1.1821  0.4081 -3.2302
  616MOL0     H83159  11.062   6.690  10.481 -2.1421  1.4294  1.2447
  616MOL0     H83160  11.226   6.772  10.500 -0.9678  0.8121  0.5484
  617MOL0     O83161   6.141   0.980   7.913 -0.3922 -0.6046 -0.9812
  617MOL0     C83162   6.174   1.067   7.998 -0.0413 -0.2243 -0.7572
  617MOL0     O83163   6.255   1.042   8.101 -0.1895  0.2477 -0.6327
  617MOL0     C83164   6.294   0.910   8.129 -0.1127 -0.3767  0.2668
  617MOL0     C83165   6.223   0.846   8.222 -0.1150  0.6736 -0.1298
  617MOL0     C83166   6.243   0.711   8.248  0.4613 -0.0504 -0.6538
  617MOL0     C83167   6.355   0.636   8.191 -0.1805 -0.2621  0.1105
  617MOL0     O83168   6.375   0.501   8.207  0.1352 -0.1405  0.6191
  617MOL0     C83169   6.362   0.448   8.336  0.3242 -0.8473  0.2981
  617MOL0     C83170   6.233   0.365   8.341 -0.3661  0.5723  0.1942
  617MOL0     C83171   6.222   0.269   8.453  0.1736 -0.4597  0.1174
  617MOL0     C83172   6.075   0.228   8.464 -0.9779  0.4065  0.1617
  617MOL0     C83173   6.054   0.086   8.525 -0.5474 -0.4630 -0.3579
  617MOL0     C83174   6.103  -0.038   8.451 -0.5295  0.2797  0.2085
  617MOL0     C83175   6.045  -0.070   8.316 -0.0073  0.5244  0.4526
  617MOL0     C83176   6.044  -0.216   8.277  0.4178  0.9397 -0.2338
  617MOL0     N83177   6.091  -0.256   8.144  1.5001 -0.2897  0.0948
  617MOL0     C83178   6.016  -0.347   8.060 -0.6911 -1.0012  0.7695
  617MOL0     C83179   6.110  -0.412   7.986  0.4268 -0.2886  0.8563
  617MOL0     C83180   6.090  -0.519   7.869 -0.3406 -0.9772 -0.9274
  617MOL0     C83181   6.106  -0.658   7.911 -0.6294  0.1016  0.4913
  617MOL0     C83182   6.237  -0.701   7.950  0.5269 -0.3936 -0.5852
  617MOL0     C83183   6.253  -0.748   8.097  0.3209  0.5209 -0.2937
  617MOL0     O83184   6.163  -0.862   8.107  0.5519 -0.2693  0.2514
  617MOL0     C83185   6.170  -0.915   8.237 -0.4307  0.9707 -0.4352
  617MOL0     C83186   6.096  -0.849   8.342 -0.0657  0.2818  0.4141
  617MOL0     C83187   6.098  -0.910   8.474 -0.3969  0.1697  0.2382
  617MOL0     C83188   6.180  -1.019   8.496 -1.0042  0.0909 -0.9783
  617MOL0     C83189   6.207  -1.065   8.636  0.0717  0.5178 -0.2983
  617MOL0     O83190   6.193  -0.970   8.737  0.4638 -0.9441  0.0172
  617MOL0     C83191   6.196  -1.009   8.869 -0.3079  0.8294 -0.4217
  617MOL0     C83192   6.314  -1.062   8.929  0.0525 -0.7281  0.2459
  617MOL0     C83193   6.315  -1.101   9.061 -0.7005 -0.3181 -0.8932
  617MOL0     C83194   6.197  -1.105   9.137 -0.6923  0.1019 -0.7661
  617MOL0     O83195   6.198  -1.126   9.275 -0.8485  0.2208  0.3241
  617MOL0     C83196   6.142  -1.020   9.343 -0.3437  0.7700 -0.9083
  617MOL0     C83197   6.179  -1.027   9.498 -0.0422  0.2670  0.6788
  617MOL0     C83198   6.081  -0.930   9.568 -1.0346 -0.3018 -0.1947
  617MOL0     C83199   6.132  -0.906   9.701 -0.9542 -0.5013 -0.4323
  617MOL0     C83200   6.056  -0.814   9.794 -0.4135 -0.3218  0.2790
  617MOL0     C83201   6.141  -0.793   9.917 -1.6227 -1.1632  0.4189
  617MOL0     C83202   6.062  -0.718  10.028 -0.6835 -0.9343  0.0775
  617MOL0     C83203   6.140  -0.684  10.155  0.0790  0.0226 -0.1748
  617MOL0    Cl83204   6.292  -0.578  10.116  0.0191  0.0145 -0.2964
  617MOL0     C83205   6.079  -1.065   9.074 -0.7456  0.5445 -0.8804
  617MOL0     C83206   6.076  -1.014   8.943 -0.6180 -0.2715  0.4771
  617MOL0     O83207   6.231  -1.187   8.658 -0.4266 -0.4281 -0.1876
  617MOL0     C83208   6.229  -1.095   8.388 -0.0794  0.6567  0.9675
  617MOL0     C83209   6.232  -1.036   8.256 -0.0008 -0.6931  0.1704
  617MOL0     N83210   6.235  -0.362   8.023  0.2013  0.3225 -0.1712
  617MOL0     N83211   6.219  -0.271   8.113 -1.2407  0.2360  0.0452
  617MOL0     C83212   6.437   0.715   8.107  0.2842  0.9993 -0.1859
  617MOL0     C83213   6.411   0.849   8.075 -0.3480 -0.0154  0.1263
  617MOL0     C83214   6.129   1.199   7.954 -0.2801 -0.0515  0.1433
  617MOL0     C83215   6.151   1.244   7.817 -0.2056 -0.2859  0.7705
  617MOL0     C83216   6.100   1.365   7.773 -1.0144 -0.1564 -0.1282
  617MOL0     C83217   6.048   1.451   7.867  0.7788 -1.2405  0.6666
  617MOL0     O83218   6.013   1.576   7.816  0.7979 -0.0919 -0.1922
  617MOL0     C83219   5.949   1.675   7.901 -0.5734  0.1572  0.5282
  617MOL0     C83220   5.813   1.631   7.953  1.3799  0.0802  0.5357
  617MOL0     C83221   5.769   1.694   8.089  0.0055 -0.3034 -0.1914
  617MOL0     C83222   5.838   1.640   8.222 -0.0244  0.5812  0.5426
  617MOL0     C83223   5.781   1.502   8.247  0.2146  0.3296  0.2786
  617MOL0     C83224   5.736   1.389   8.256 -0.4525  0.4205 -1.2685
  617MOL0     C83225   6.044   1.416   8.001 -1.4401  0.6808 -0.0802
  617MOL0     C83226   6.072   1.283   8.052  0.2944 -0.1394 -0.2245
  617MOL0     C83227   6.057   1.251   8.194 -0.0235  0.3124  0.4023
  617MOL0     H83228   6.138   0.904   8.256  0.1564  2.5967 -2.5155
  617MOL0     H83229   6.171   0.670   8.319 -1.7573  1.2185 -2.0613
  617MOL0     H83230   6.441   0.380   8.369 -1.7388 -4.9105 -2.2776
  617MOL0     H83231   6.355   0.524   8.414 -2.7247  1.5544 -2.0167
  617MOL0     H83232   6.244   0.297   8.256 -1.7265  0.3851  0.1395
  617MOL0     H83233   6.138   0.420   8.338 -0.5734  0.7497  4.4012
  617MOL0     H83234   6.244   0.321   8.547 -2.8616  1.1000  0.0990
  617MOL0     H83235   6.282   0.182   8.426 -2.5879 -1.5029 -3.4401
  617MOL0     H83236   6.015   0.305   8.514  1.5987  1.8964  1.1751
  617MOL0     H83237   6.038   0.209   8.363  4.6331 -2.1998 -1.8334
  617MOL0     H83238   6.097   0.095   8.625 -2.8926 -0.1840  0.6900
  617MOL0     H83239   5.945   0.076   8.532 -0.5009 -1.7376 -1.0513
  617MOL0     H83240   6.211  -0.053   8.441 -0.4251 -0.0943  1.6679
  617MOL0     H83241   6.077  -0.124   8.512 -0.5141  1.3461  1.7764
  617MOL0     H83242   6.105  -0.016   8.242 -2.8790 -0.9673 -3.2966
  617MOL0     H83243   5.947  -0.021   8.312 -1.1416 -1.3260  2.9163
  617MOL0     H83244   6.104  -0.278   8.344 -2.0099 -2.4821 -0.9381
  617MOL0     H83245   5.940  -0.252   8.279  0.2808  1.3022  1.9197
  617MOL0     H83246   5.909  -0.361   8.054 -0.6447 -1.2092  0.4413
  617MOL0     H83247   5.987  -0.498   7.837 -0.3454  1.9673  0.6287
  617MOL0     H83248   6.163  -0.499   7.790  0.6892  0.9185  0.4272
  617MOL0     H83249   6.025  -0.677   7.981 -2.1794  1.2835 -0.8955
  617MOL0     H83250   6.090  -0.714   7.818  2.4506 -3.0874  1.6157
  617MOL0     H83251   6.297  -0.610   7.949 -2.5319  1.8286  0.9713
  617MOL0     H83252   6.284  -0.764   7.873 -1.3030 -1.8461 -0.5903
  617MOL0     H83253   6.231  -0.675   8.175 -0.8823 -0.3522  0.2161
  617MOL0     H83254   6.357  -0.779   8.113  0.4772  1.9731  2.0350
  617MOL0     H83255   6.033  -0.766   8.312 -0.7965 -0.3122  0.2854
  617MOL0     H83256   6.038  -0.856   8.547 -1.6621 -0.9747  0.0820
  617MOL0     H83257   6.395  -1.061   8.858 -0.0864  0.6426  0.0775
  617MOL0     H83258   6.411  -1.114   9.109 -0.0707  0.5995 -1.8437
  617MOL0     H83259   6.182  -0.927   9.302  1.7119 -0.7043 -2.4560
  617MOL0     H83260   6.033  -1.018   9.343 -0.3681  1.6185 -2.5089
  617MOL0     H83261   6.166  -1.127   9.540  0.2628  0.0256  0.2102
  617MOL0     H83262   6.282  -0.992   9.510  0.5358 -0.9734 -0.4027
  617MOL0     H83263   6.087  -0.832   9.521 -3.3210 -0.2332 -0.4407
  617MOL0     H83264   5.977  -0.964   9.565 -2.7082  3.8061  2.5075
  617MOL0     H83265   6.227  -0.851   9.704 -1.6341  0.7687  2.9384
  617MOL0     H83266   6.139  -1.000   9.756  0.8516  1.3220  2.8441
  617MOL0     H83267   5.967  -0.870   9.822 -3.0091  2.4781 -1.6178
  617MOL0     H83268   6.019  -0.732   9.731 -3.8065 -1.3696  0.7182
  617MOL0     H83269   6.177  -0.885   9.964 -1.6081 -1.3954 -0.0468
  617MOL0     H83270   6.221  -0.729   9.879 -0.3939 -2.8428  0.0875
  617MOL0     H83271   5.974  -0.779  10.053 -1.5195 -0.0516 -0.6128
  617MOL0     H83272   6.036  -0.624   9.978 -0.1260 -0.0859  1.3140
  617MOL0     H83273   6.077  -0.626  10.223  1.2513 -1.0408  1.9118
  617MOL0     H83274   6.172  -0.775  10.206  1.9591  0.7905  0.1192
  617MOL0     H83275   5.994  -1.081   9.140  0.9457  3.1723  2.2783
  617MOL0     H83276   5.980  -0.993   8.897  0.1084 -2.5834 -2.4984
  617MOL0     H83277   6.264  -1.197   8.403 -2.8442 -0.3720  1.0548
  617MOL0     H83278   6.275  -1.083   8.169 -0.3673  1.4310 -1.2388
  617MOL0     H83279   6.522   0.663   8.065 -0.6611 -0.9008  0.1509
  617MOL0     H83280   6.464   0.922   8.014  1.1293 -1.0940  0.0727
  617MOL0     H83281   6.195   1.170   7.751 -1.7073 -0.5915  0.0717
  617MOL0     H83282   6.099   1.387   7.667 -0.4226 -3.8034 -1.0060
  617MOL0     H83283   5.948   1.776   7.860  2.0149  0.1298  0.1859
  617MOL0     H83284   6.016   1.674   7.988 -0.8705 -1.5724  0.7813
  617MOL0     H83285   5.808   1.522   7.962  0.4611  0.1689  1.2682
  617MOL0     H83286   5.739   1.666   7.880  1.0641  1.7735  1.6021
  617MOL0     H83287   5.661   1.689   8.101  0.1409 -0.7250  0.9932
  617MOL0     H83288   5.783   1.802   8.083  0.3963 -0.3717 -0.6620
  617MOL0     H83289   5.947   1.639   8.225  0.1336 -2.5090 -1.3352
  617MOL0     H83290   5.802   1.699   8.307 -2.3309  1.4410 -0.9487
  617MOL0     H83291   5.685   1.296   8.273  0.9400  0.2731  3.2056
  617MOL0     H83292   5.996   1.486   8.068 -2.2808 -0.3182  0.3891
  617MOL0     H83293   6.038   1.347   8.243  0.1758  1.5165 -1.7347
  617MOL0     H83294   5.978   1.178   8.215  1.0017 -0.5342  1.4848
  617MOL0     H83295   6.145   1.207   8.243 -0.3794 -0.7382  0.1276
  618MOL0     O83296  10.464   4.478   5.612 -0.2138  0.2149  1.0636
  618MOL0     C83297  10.427   4.359   5.602  0.5827  0.7378 -0.4592
  618MOL0     O83298  10.471   4.258   5.682  0.3062 -0.2561  0.6978
  618MOL0     C83299  10.565   4.283   5.774  1.1472  0.4421 -0.3347
  618MOL0     C83300  10.699   4.269   5.748  1.1599 -0.3179 -0.1685
  618MOL0     C83301  10.795   4.270   5.844 -0.7324 -0.4770  0.0209
  618MOL0     C83302  10.754   4.298   5.982 -0.3914  0.4721 -0.7316
  618MOL0     O83303  10.841   4.323   6.089  0.1450  0.0885 -0.0601
  618MOL0     C83304  10.961   4.399   6.057  0.3598 -0.2092  0.4621
  618MOL0     C83305  10.909   4.540   6.066 -0.9378 -0.4878 -0.4452
  618MOL0     C83306  11.001   4.633   5.986  0.6160 -0.2989 -0.2192
  618MOL0     C83307  10.996   4.625   5.834 -0.5528 -0.7577  0.5407
  618MOL0     C83308  11.082   4.722   5.767  0.1792 -0.3355  0.2550
  618MOL0     C83309  11.046   4.869   5.775  0.2379  0.4902  0.3592
  618MOL0     C83310  11.094   4.949   5.651  1.0898 -0.5093  0.0582
  618MOL0     C83311  11.021   4.918   5.521  0.0668  0.1861  1.3293
  618MOL0     N83312  11.051   5.009   5.412 -0.4681  0.6783 -0.6067
  618MOL0     C83313  11.018   5.138   5.402  0.2844 -0.0574  0.1179
  618MOL0     C83314  11.084   5.190   5.303  1.5619  0.3232 -0.8457
  618MOL0     C83315  11.067   5.331   5.256 -0.1629 -1.0820  0.2678
  618MOL0     C83316  11.198   5.388   5.219 -0.0044 -0.1250 -0.4573
  618MOL0     C83317  11.237   5.404   5.072  0.8447 -1.1695  0.7365
  618MOL0     C83318  11.189   5.288   4.984 -0.2257 -0.5536  0.0837
  618MOL0     O83319  11.185   5.320   4.847 -0.5172  0.0516  0.9082
  618MOL0     C83320  11.091   5.397   4.781  0.2159 -0.1661  0.0543
  618MOL0     C83321  10.972   5.448   4.836 -0.3899  0.3087  0.9433
  618MOL0     C83322  10.885   5.509   4.739  0.1310 -0.7162  0.4329
  618MOL0     C83323  10.918   5.531   4.605  0.6475  0.0974  0.3120
  618MOL0     C83324  10.816   5.579   4.511  0.1274  0.6397  0.7484
  618MOL0     O83325  10.860   5.586   4.379 -0.3942 -0.5448  0.4682
  618MOL0     C83326  10.770   5.635   4.286 -0.0405  0.4996 -0.7117
  618MOL0     C83327  10.717   5.764   4.296  0.5755 -0.8658 -0.2827
  618MOL0     C83328  10.613   5.805   4.210 -0.2789 -0.7678  0.4321
  618MOL0     C83329  10.558   5.719   4.113  0.6847 -1.2504 -1.0444
  618MOL0     O83330  10.446   5.749   4.031  0.3440 -0.9884 -0.1391
  618MOL0     C83331  10.409   5.885   4.032  0.8374 -0.4430 -0.1346
  618MOL0     C83332  10.281   5.915   3.948  0.8520  0.4966  0.6307
  618MOL0     C83333  10.275   6.063   3.916  0.2495 -0.9353  0.0395
  618MOL0     C83334  10.138   6.092   3.842  0.7906  0.1360 -0.0345
  618MOL0     C83335  10.107   6.244   3.858  0.7843  0.0548  0.5367
  618MOL0     C83336   9.972   6.269   3.815 -0.0528 -0.3369 -0.3144
  618MOL0     C83337   9.968   6.426   3.802  0.2030 -0.0284  0.0150
  618MOL0     C83338   9.954   6.500   3.932 -0.2533  0.7821 -0.2804
  618MOL0    Cl83339   9.894   6.670   3.919  0.0843 -0.0536  0.2770
  618MOL0     C83340  10.621   5.593   4.102  0.3584 -0.1192 -0.2885
  618MOL0     C83341  10.718   5.548   4.189 -0.4324  0.2563  0.3883
  618MOL0     O83342  10.700   5.600   4.549 -0.7496 -0.7574 -0.1633
  618MOL0     C83343  11.037   5.486   4.562  0.1969  0.5813  0.8916
  618MOL0     C83344  11.123   5.420   4.650 -1.2627 -0.2398  0.3470
  618MOL0     N83345  11.156   5.089   5.247  0.1812  0.3154  0.1680
  618MOL0     N83346  11.127   4.977   5.312 -0.2257 -0.6696 -0.6621
  618MOL0     C83347  10.617   4.304   6.011  0.0546 -0.6369  0.7187
  618MOL0     C83348  10.526   4.284   5.907 -0.0450 -0.8094  0.2102
  618MOL0     C83349  10.320   4.321   5.499  0.0346 -0.1959  0.4296
  618MOL0     C83350  10.339   4.209   5.418 -0.2101 -0.1490  0.8968
  618MOL0     C83351  10.237   4.163   5.325 -0.0584 -0.5156 -0.4189
  618MOL0     C83352  10.130   4.240   5.295  0.5922 -0.1764 -0.1962
  618MOL0     O83353  10.044   4.195   5.200  0.1371 -0.5386 -0.2778
  618MOL0     C83354   9.921   4.270   5.174 -0.2529  0.5571  0.3892
  618MOL0     C83355   9.830   4.195   5.075  0.3827  0.3076 -0.8051
  618MOL0     C83356   9.711   4.263   5.030 -0.3834 -0.4868  0.0204
  618MOL0     C83357   9.637   4.198   4.911 -0.1187  0.2924 -0.4248
  618MOL0     C83358   9.702   4.180   4.781 -0.7100 -0.1107  0.3919
  618MOL0     C83359   9.766   4.166   4.677 -0.4298 -0.2904  0.7892
  618MOL0     C83360  10.112   4.358   5.362  0.0459  0.6380  0.3074
  618MOL0     C83361  10.194   4.391   5.479 -0.7365 -0.0045 -1.4956
  618MOL0     C83362  10.169   4.531   5.544  0.4557 -0.1190 -0.0970
  618MOL0     H83363  10.728   4.268   5.644  1.3720  1.0695 -0.1369
  618MOL0     H83364  10.903   4.276   5.837 -0.5373  0.4397  2.6800
  618MOL0     H83365  11.039   4.386   6.132 -1.3204  2.0200  2.7357
  618MOL0     H83366  11.001   4.370   5.959 -0.7759 -3.4263  0.8224
  618MOL0     H83367  10.900   4.574   6.169  1.3415 -2.2191  0.4123
  618MOL0     H83368  10.812   4.550   6.017  0.2385  0.4290 -2.7674
  618MOL0     H83369  11.107   4.621   6.013  0.7761  1.5979  0.1201
  618MOL0     H83370  10.970   4.734   6.015  2.0447  0.5259 -1.4303
  618MOL0     H83371  11.030   4.530   5.794  1.6202  0.1932 -0.0305
  618MOL0     H83372  10.890   4.637   5.807 -1.4228 -0.6299  3.6035
  618MOL0     H83373  11.182   4.711   5.810  0.0945 -2.1019  0.0786
  618MOL0     H83374  11.091   4.689   5.663 -1.4843 -1.1722  0.3360
  618MOL0     H83375  10.938   4.877   5.789 -0.2495  0.3655 -2.5653
  618MOL0     H83376  11.103   4.902   5.862  1.7315 -4.5867  1.6550
  618MOL0     H83377  11.202   4.932   5.649  1.2551  0.4440  0.1107
  618MOL0     H83378  11.070   5.054   5.672 -0.1329 -0.9289  0.8583
  618MOL0     H83379  11.062   4.826   5.478  0.7848  1.1762 -0.1989
  618MOL0     H83380  10.913   4.904   5.526  0.1295 -0.8486  0.2989
  618MOL0     H83381  10.936   5.185   5.455 -0.8344 -1.0017 -0.7443
  618MOL0     H83382  10.997   5.342   5.172  0.4628 -2.4774 -0.4701
  618MOL0     H83383  11.035   5.383   5.346  0.4797 -0.1572 -0.0310
  618MOL0     H83384  11.209   5.483   5.273  1.6505 -0.1635 -0.6705
  618MOL0     H83385  11.278   5.326   5.259  0.1955 -0.2900 -1.0924
  618MOL0     H83386  11.344   5.415   5.053  0.7091  0.1533  0.6729
  618MOL0     H83387  11.186   5.495   5.039  0.4473 -1.2479  1.1134
  618MOL0     H83388  11.094   5.244   5.015 -1.2508 -0.2678 -2.3749
  618MOL0     H83389  11.258   5.205   5.004 -0.4537 -0.4601  1.3102
  618MOL0     H83390  10.933   5.427   4.935  1.0258 -1.7004  1.1312
  618MOL0     H83391  10.790   5.536   4.784  0.4967  2.8379 -0.6454
  618MOL0     H83392  10.758   5.830   4.372  0.1299  0.6780 -1.3446
  618MOL0     H83393  10.562   5.898   4.232 -2.4656 -1.8819  0.3404
  618MOL0     H83394  10.387   5.922   4.133  0.1044 -1.5849  0.1517
  618MOL0     H83395  10.490   5.934   3.978 -1.7448  1.1611 -2.8876
  618MOL0     H83396  10.294   5.866   3.851 -2.3575  2.2595 -0.8576
  618MOL0     H83397  10.187   5.883   3.994 -1.2972  0.8135 -3.1295
  618MOL0     H83398  10.289   6.112   4.013  2.9596 -0.9867 -0.2548
  618MOL0     H83399  10.357   6.103   3.856  0.7541 -0.6635  0.9031
  618MOL0     H83400  10.052   6.038   3.882 -0.0592  0.7493 -0.9841
  618MOL0     H83401  10.151   6.072   3.735  0.1793  4.0530 -1.0163
  618MOL0     H83402  10.176   6.294   3.790  3.0030  0.8822  3.2124
  618MOL0     H83403  10.123   6.280   3.960  0.6135  0.2683  0.4892
  618MOL0     H83404   9.958   6.225   3.716  2.1092 -1.0424 -0.3513
  618MOL0     H83405   9.894   6.231   3.881  1.9206 -4.6681 -0.1711
  618MOL0     H83406   9.868   6.450   3.765 -1.3080  0.2124  3.8156
  618MOL0     H83407  10.046   6.469   3.739  1.5031 -0.4907  1.2633
  618MOL0     H83408   9.878   6.452   3.994  2.0596 -0.4473  1.7806
  618MOL0     H83409  10.049   6.509   3.986  1.6174 -0.6209 -3.1107
  618MOL0     H83410  10.588   5.512   4.037  0.3861 -0.3865  0.0306
  618MOL0     H83411  10.763   5.450   4.178  2.2226  1.2215  1.7904
  618MOL0     H83412  11.075   5.520   4.467  2.1102  3.2469  2.4827
  618MOL0     H83413  11.220   5.386   4.617 -0.9933 -1.1712  1.9887
  618MOL0     H83414  10.574   4.317   6.110 -0.3705 -1.4761  0.6486
  618MOL0     H83415  10.423   4.275   5.941 -0.7682  1.3837 -1.2081
  618MOL0     H83416  10.427   4.150   5.445  2.0207  3.4530  2.2846
  618MOL0     H83417  10.242   4.067   5.274  1.4227 -0.2218 -0.8838
  618MOL0     H83418   9.954   4.364   5.130 -0.2850 -0.7375 -2.6696
  618MOL0     H83419   9.862   4.286   5.265 -1.2987 -0.5491 -0.0565
  618MOL0     H83420   9.815   4.098   5.124 -2.0439  0.6351 -0.7803
  618MOL0     H83421   9.890   4.190   4.983 -2.4550  0.0740 -2.7808
  618MOL0     H83422   9.743   4.358   4.986  4.6601 -1.7865  0.3666
  618MOL0     H83423   9.635   4.289   5.105 -1.0794  0.9002 -1.1127
  618MOL0     H83424   9.628   4.093   4.940  2.6151  0.1134  0.0472
  618MOL0     H83425   9.537   4.236   4.889 -0.8112 -2.4996 -2.6663
  618MOL0     H83426   9.814   4.157   4.582  0.1629  1.3754  0.9077
  618MOL0     H83427  10.035   4.429   5.332 -0.9747 -0.9422 -0.9216
  618MOL0     H83428  10.184   4.537   5.652 -0.8648 -0.9038  0.1567
  618MOL0     H83429  10.220   4.617   5.500  1.6021 -0.1519  1.1356
  618MOL0     H83430  10.062   4.549   5.526  1.0586  1.8736 -2.0721
  619MOL0     O83431   0.686  11.247   9.280 -0.1813  0.0997  0.8199
  619MOL0     C83432   0.690  11.185   9.170  1.1945 -0.3251  0.9956
  619MOL0     O83433   0.585  11.157   9.090 -0.3752 -0.4716  0.3099
  619MOL0     C83434   0.462  11.217   9.119 -1.1170 -1.9383  0.1727
  619MOL0     C83435   0.373  11.157   9.203  0.4166 -0.2231  0.3803
  619MOL0     C83436   0.262  11.226   9.242 -0.2514  0.6835  0.8197
  619MOL0     C83437   0.240  11.357   9.208 -0.3110 -0.0120 -0.6245
  619MOL0     O83438   0.122  11.420   9.248  0.9898 -0.6075  0.1446
  619MOL0     C83439   0.000  11.345   9.274  0.3052 -0.0958  0.2420
  619MOL0     C83440  -0.123  11.439   9.280 -0.4527 -0.6181 -0.4618
  619MOL0     C83441  -0.253  11.362   9.309  0.1903 -0.5580 -0.7614
  619MOL0     C83442  -0.358  11.479   9.335  0.4943 -0.6394 -0.0183
  619MOL0     C83443  -0.510  11.439   9.339 -1.3423 -0.4016  0.2234
  619MOL0     C83444  -0.605  11.560   9.384 -0.1573 -1.2016 -0.5662
  619MOL0     C83445  -0.757  11.531   9.383 -0.5063 -0.3674 -0.0205
  619MOL0     C83446  -0.831  11.667   9.417 -0.0282  0.4343  0.0515
  619MOL0     N83447  -0.962  11.620   9.456  0.2594  0.7124  0.2062
  619MOL0     C83448  -1.083  11.651   9.400 -0.0070 -0.3405  0.7202
  619MOL0     C83449  -1.179  11.602   9.481 -0.8140  0.5033  0.0925
  619MOL0     C83450  -1.328  11.612   9.460  1.1479 -0.8966 -0.3479
  619MOL0     C83451  -1.378  11.739   9.532  0.7878  0.2306 -0.8946
  619MOL0     C83452  -1.335  11.859   9.446 -0.6226  0.1929 -0.1755
  619MOL0     C83453  -1.429  11.979   9.451  0.9588 -0.0124  0.2590
  619MOL0     O83454  -1.417  12.044   9.572 -0.4057 -0.5552 -0.1224
  619MOL0     C83455  -1.490  12.156   9.605 -0.2621 -0.3487 -0.1195
  619MOL0     C83456  -1.593  12.155   9.697 -0.4383  1.2681 -1.3578
  619MOL0     C83457  -1.688  12.255   9.719  0.5734 -0.5792  0.6258
  619MOL0     C83458  -1.670  12.377   9.640  1.5235  0.3443 -0.4521
  619MOL0     C83459  -1.760  12.492   9.651  0.6313 -0.1569 -1.2435
  619MOL0     O83460  -1.762  12.571   9.553 -0.6298  0.0851 -0.1069
  619MOL0     C83461  -1.839  12.683   9.519 -0.5065  0.8035  0.4246
  619MOL0     C83462  -1.940  12.734   9.598 -0.1068 -1.0571 -1.0114
  619MOL0     C83463  -2.013  12.848   9.568  0.4474  0.5943  1.1048
  619MOL0     C83464  -1.966  12.915   9.454  0.8361  0.4579  0.3010
  619MOL0     O83465  -2.026  13.025   9.410  0.3854  0.2403  0.2003
  619MOL0     C83466  -2.172  13.029   9.424  0.2951  0.3761 -0.7750
  619MOL0     C83467  -2.198  13.145   9.518 -0.2449  0.6861 -0.2974
  619MOL0     C83468  -2.168  13.289   9.471 -0.1123  0.1157  0.1218
  619MOL0     C83469  -2.209  13.389   9.581 -0.0520 -0.0762 -0.1432
  619MOL0     C83470  -2.131  13.520   9.584 -0.8699  0.0157 -0.3328
  619MOL0     C83471  -2.072  13.571   9.454 -0.4342  0.2347  1.2930
  619MOL0     C83472  -2.046  13.720   9.466  0.0931  0.0475  0.7994
  619MOL0     C83473  -1.927  13.744   9.563 -0.4880  0.6418  0.1199
  619MOL0    Cl83474  -1.970  13.757   9.734  0.0652 -0.0774  0.5059
  619MOL0     C83475  -1.853  12.873   9.380  0.1800  0.5499  1.2829
  619MOL0     C83476  -1.796  12.752   9.403  0.4563  0.4660  0.2598
  619MOL0     O83477  -1.840  12.492   9.744  0.1454  0.6078 -0.4715
  619MOL0     C83478  -1.561  12.388   9.554 -0.0931 -0.6078  0.8150
  619MOL0     C83479  -1.472  12.281   9.541  0.0528 -0.5980 -0.9242
  619MOL0     N83480  -1.111  11.528   9.578 -0.0020  0.0992  0.1849
  619MOL0     N83481  -0.988  11.550   9.570 -0.1908 -0.0115  0.4316
  619MOL0     C83482   0.336  11.418   9.124 -0.7304 -0.2592 -0.3287
  619MOL0     C83483   0.436  11.346   9.069 -0.7475  0.3097 -0.3642
  619MOL0     C83484   0.821  11.124   9.129 -0.8911  1.0921  0.2060
  619MOL0     C83485   0.899  11.080   9.242 -0.1827 -0.3152 -0.6696
  619MOL0     C83486   1.025  11.017   9.208  0.3848 -0.5848 -0.1040
  619MOL0     C83487   1.066  10.990   9.079  0.4858  0.2836 -0.1417
  619MOL0     O83488   1.181  10.922   9.045 -0.7917  0.8056 -0.6767
  619MOL0     C83489   1.279  10.903   9.153 -0.4763  0.4021 -0.4283
  619MOL0     C83490   1.242  10.773   9.234 -0.6188 -0.8207  0.3732
  619MOL0     C83491   1.237  10.655   9.131  0.1457  0.3748  0.0642
  619MOL0     C83492   1.197  10.524   9.196 -0.3975 -0.1116  0.8238
  619MOL0     C83493   1.292  10.474   9.300  0.6903  0.3121  0.2750
  619MOL0     C83494   1.371  10.448   9.386 -1.6139 -0.0024 -0.4986
  619MOL0     C83495   0.982  11.021   8.980 -0.0967 -0.3544  0.1466
  619MOL0     C83496   0.869  11.108   9.002 -0.4035  0.4082 -0.3899
  619MOL0     C83497   0.805  11.184   8.890 -0.4627  0.5708  0.5276
  619MOL0     H83498   0.391  11.063   9.252 -0.5006 -0.7780 -0.3128
  619MOL0     H83499   0.194  11.178   9.311 -0.5169  1.6308  1.2218
  619MOL0     H83500  -0.003  11.276   9.189  2.9021  2.0128 -1.7345
  619MOL0     H83501   0.014  11.291   9.368 -2.0819  0.8328  1.1970
  619MOL0     H83502  -0.141  11.490   9.185 -1.8646 -1.4039 -0.6412
  619MOL0     H83503  -0.109  11.512   9.360 -1.7192 -2.6356  1.7286
  619MOL0     H83504  -0.232  11.293   9.392  3.9078  1.7007  0.4090
  619MOL0     H83505  -0.289  11.302   9.225 -2.4626 -0.6022  0.2898
  619MOL0     H83506  -0.332  11.541   9.421 -0.1646  1.9488 -1.5731
  619MOL0     H83507  -0.366  11.551   9.253 -5.0587 -0.8829 -0.0417
  619MOL0     H83508  -0.539  11.405   9.239  0.8654  1.6283 -1.2217
  619MOL0     H83509  -0.515  11.351   9.404  2.3250 -2.7723 -2.2926
  619MOL0     H83510  -0.572  11.595   9.482 -0.6825  0.5318 -0.9731
  619MOL0     H83511  -0.572  11.641   9.318 -1.6235 -1.7772 -2.0880
  619MOL0     H83512  -0.793  11.451   9.448  0.1033 -0.3756  0.3148
  619MOL0     H83513  -0.785  11.502   9.282  2.0616  1.0666 -1.2293
  619MOL0     H83514  -0.791  11.719   9.504  1.2994  2.0531 -1.4590
  619MOL0     H83515  -0.845  11.733   9.331 -4.1103 -0.4995 -0.2484
  619MOL0     H83516  -1.099  11.713   9.313  0.1324 -3.2557 -1.5435
  619MOL0     H83517  -1.365  11.611   9.357  1.5024 -0.8761 -0.4743
  619MOL0     H83518  -1.362  11.515   9.499  0.0678 -1.1077 -1.7415
  619MOL0     H83519  -1.487  11.742   9.541  0.9005  1.3976  0.4893
  619MOL0     H83520  -1.336  11.748   9.632 -0.6254  1.8802 -0.3949
  619MOL0     H83521  -1.333  11.835   9.339 -0.4751  1.5006 -0.4885
  619MOL0     H83522  -1.234  11.889   9.476 -0.1100 -0.3393 -1.3230
  619MOL0     H83523  -1.531  11.949   9.429  1.0321 -3.0098  3.2329
  619MOL0     H83524  -1.402  12.065   9.388  0.5573  0.2716  0.4724
  619MOL0     H83525  -1.617  12.057   9.737  2.7139  0.2182 -1.7650
  619MOL0     H83526  -1.759  12.258   9.801 -0.1739  2.3491  0.0264
  619MOL0     H83527  -1.977  12.680   9.685  2.7734  0.9922  1.7577
  619MOL0     H83528  -2.100  12.872   9.629  0.9976  0.0486  2.1419
  619MOL0     H83529  -2.237  13.044   9.337 -1.6636  0.7653  0.6873
  619MOL0     H83530  -2.213  12.946   9.483 -0.8025  1.9413  0.7674
  619MOL0     H83531  -2.306  13.148   9.537 -0.6683  2.8805 -2.4674
  619MOL0     H83532  -2.146  13.110   9.607 -0.6722  0.6903 -0.0398
  619MOL0     H83533  -2.060  13.296   9.456 -0.1524 -1.1386 -0.9620
  619MOL0     H83534  -2.204  13.313   9.371  0.7876  2.7219  0.3563
  619MOL0     H83535  -2.191  13.343   9.679 -0.3338  2.8812  1.4067
  619MOL0     H83536  -2.318  13.388   9.574 -0.1847 -4.2338  0.1588
  619MOL0     H83537  -2.055  13.502   9.661 -1.4998  1.7338  0.7601
  619MOL0     H83538  -2.211  13.590   9.609 -4.3218 -3.1648 -1.4214
  619MOL0     H83539  -1.993  13.503   9.418 -1.5288  0.2067 -1.2909
  619MOL0     H83540  -2.148  13.558   9.376 -0.1271  1.6187  0.7379
  619MOL0     H83541  -2.129  13.777   9.510  2.5261  2.3885  2.7408
  619MOL0     H83542  -2.025  13.756   9.366 -0.0098  3.1057  1.7725
  619MOL0     H83543  -1.864  13.656   9.549  2.7363  2.8424 -0.3663
  619MOL0     H83544  -1.871  13.829   9.523  2.1562 -2.0459 -2.3608
  619MOL0     H83545  -1.816  12.921   9.290 -0.8281 -0.4225  0.3176
  619MOL0     H83546  -1.720  12.719   9.333  2.3043  1.1863  1.8512
  619MOL0     H83547  -1.540  12.485   9.509  0.2924 -1.0187  0.1064
  619MOL0     H83548  -1.380  12.294   9.485 -0.3622 -0.5146 -1.5966
  619MOL0     H83549   0.327  11.523   9.095  2.1677  0.0560 -0.3843
  619MOL0     H83550   0.511  11.395   9.008  1.4050  0.5393  2.2383
  619MOL0     H83551   0.866  11.108   9.341 -0.6995  1.7350 -1.3658
  619MOL0     H83552   1.083  10.985   9.294 -0.5100 -0.7095  0.4728
  619MOL0     H83553   1.281  10.996   9.211  2.0111 -0.3059  0.7845
  619MOL0     H83554   1.377  10.889   9.106 -0.3161  2.0299 -0.6333
  619MOL0     H83555   1.149  10.785   9.290  0.6495 -0.4145  2.4775
  619MOL0     H83556   1.316  10.734   9.304 -0.0943 -0.4272  0.0410
  619MOL0     H83557   1.335  10.644   9.084 -0.2184 -3.1002 -0.0964
  619MOL0     H83558   1.167  10.674   9.049  1.4050 -0.1639 -1.1793
  619MOL0     H83559   1.098  10.535   9.241 -0.1533  1.0449  1.1131
  619MOL0     H83560   1.191  10.455   9.111 -1.5953  0.7802  0.1696
  619MOL0     H83561   1.448  10.417   9.454 -1.2979 -1.7670 -1.5917
  619MOL0     H83562   1.013  10.980   8.884  3.0410 -1.3044  1.4144
  619MOL0     H83563   0.712  11.133   8.862 -0.4350  1.7062 -1.8650
  619MOL0     H83564   0.786  11.289   8.917  2.7547  1.6707 -1.0140
  619MOL0     H83565   0.868  11.191   8.802 -0.4157 -2.2957  0.2423
  620MOL0     O83566   6.002   8.017   2.182 -0.6546 -0.0748 -0.1571
  620MOL0     C83567   6.107   7.961   2.220  0.8024  0.2856 -0.0574
  620MOL0     O83568   6.180   8.015   2.318  0.0898 -0.3678 -1.0052
  620MOL0     C83569   6.135   8.131   2.372  0.4346  0.8872 -0.1096
  620MOL0     C83570   6.033   8.123   2.471  0.0199 -0.2475  0.2650
  620MOL0     C83571   5.996   8.246   2.529  0.8555  0.0359  0.6766
  620MOL0     C83572   6.056   8.371   2.508  0.2313  0.5449  0.3335
  620MOL0     O83573   6.024   8.479   2.581  0.3276 -0.8389 -1.0642
  620MOL0     C83574   6.010   8.598   2.497 -0.4255  0.1280 -0.4081
  620MOL0     C83575   5.938   8.692   2.593 -0.0271  0.2601 -0.0319
  620MOL0     C83576   6.001   8.705   2.738  0.0050 -0.6782  0.8190
  620MOL0     C83577   5.916   8.780   2.837  0.0356 -0.2408 -1.7293
  620MOL0     C83578   5.987   8.788   2.978  0.5613  0.3874  0.2434
  620MOL0     C83579   5.897   8.851   3.084  0.8616  0.3823 -0.6902
  620MOL0     C83580   5.769   8.776   3.118 -0.1973  0.3350 -0.0275
  620MOL0     C83581   5.694   8.886   3.213 -0.0729 -0.1761  0.1397
  620MOL0     N83582   5.574   8.839   3.281  0.1319  0.0639  0.0393
  620MOL0     C83583   5.455   8.820   3.217 -0.4574  0.6688  0.0622
  620MOL0     C83584   5.384   8.737   3.303 -1.2307  0.4225 -0.4035
  620MOL0     C83585   5.244   8.690   3.274  1.4848 -0.3082 -0.5375
  620MOL0     C83586   5.151   8.809   3.253  0.8704 -0.5423 -1.1730
  620MOL0     C83587   5.066   8.786   3.126 -0.7709  0.0925 -1.0287
  620MOL0     C83588   5.142   8.798   2.997 -0.4364 -0.1247  0.0321
  620MOL0     O83589   5.070   8.749   2.887  0.0603  0.3006  0.8605
  620MOL0     C83590   5.091   8.623   2.836 -0.0250 -0.5507  0.9030
  620MOL0     C83591   5.028   8.593   2.718  1.0015  0.7569  0.4391
  620MOL0     C83592   5.043   8.465   2.656  0.7428  0.4571  0.3133
  620MOL0     C83593   5.132   8.373   2.718 -0.3136 -0.2819  0.3519
  620MOL0     C83594   5.158   8.239   2.655 -0.6676 -0.9255  0.4483
  620MOL0     O83595   5.215   8.141   2.733 -0.0404  0.1557 -0.0653
  620MOL0     C83596   5.226   8.023   2.675  0.7350  0.5332 -0.6916
  620MOL0     C83597   5.168   7.916   2.739 -0.3045 -0.7986  0.0530
  620MOL0     C83598   5.183   7.786   2.685 -0.0710  0.3593 -0.9510
  620MOL0     C83599   5.261   7.769   2.570  0.2845  0.3069 -0.0362
  620MOL0     O83600   5.296   7.641   2.518  0.6222 -0.1833 -0.5529
  620MOL0     C83601   5.394   7.588   2.606  0.1179 -0.1508 -0.1107
  620MOL0     C83602   5.504   7.509   2.530  0.5232 -0.4930  0.3826
  620MOL0     C83603   5.590   7.587   2.430  0.2974 -0.2511 -0.2821
  620MOL0     C83604   5.681   7.689   2.488 -0.1921  0.4832  0.6562
  620MOL0     C83605   5.822   7.636   2.505 -0.7132  0.4548  0.1680
  620MOL0     C83606   5.928   7.737   2.568  0.7004 -0.1618  0.8292
  620MOL0     C83607   6.075   7.703   2.540  0.6552  1.1422 -0.4068
  620MOL0     C83608   6.185   7.788   2.609  0.9461 -0.0705  0.0834
  620MOL0    Cl83609   6.364   7.739   2.570  0.0180  0.1187 -0.2583
  620MOL0     C83610   5.321   7.872   2.515 -0.3846 -0.4894 -0.5515
  620MOL0     C83611   5.309   8.001   2.563  1.7775 -0.5268  0.1345
  620MOL0     O83612   5.125   8.234   2.538 -0.5680 -0.0957 -0.1655
  620MOL0     C83613   5.190   8.403   2.841  0.2275 -0.4054  0.2843
  620MOL0     C83614   5.178   8.527   2.892  0.7995 -0.9846  0.3039
  620MOL0     N83615   5.463   8.730   3.418 -0.1126 -1.1073 -0.4698
  620MOL0     N83616   5.581   8.771   3.392  0.4905  0.1133 -0.1183
  620MOL0     C83617   6.156   8.367   2.406  0.2234 -0.5539  0.1163
  620MOL0     C83618   6.194   8.246   2.345 -0.4969  0.1448 -0.1014
  620MOL0     C83619   6.140   7.827   2.170 -0.2042 -0.0553 -0.2021
  620MOL0     C83620   6.280   7.796   2.175  0.9128 -0.1826  0.3616
  620MOL0     C83621   6.308   7.660   2.156  0.5743  0.6208  0.8383
  620MOL0     C83622   6.216   7.565   2.107 -0.0320  0.5457  0.3441
  620MOL0     O83623   6.254   7.439   2.075  0.4525  0.8703  0.2948
  620MOL0     C83624   6.390   7.391   2.080 -0.5421 -1.2293 -0.5896
  620MOL0     C83625   6.380   7.237   2.074  0.1504 -0.4116 -0.5661
  620MOL0     C83626   6.505   7.172   2.129 -0.3018  0.3688 -0.4333
  620MOL0     C83627   6.506   7.014   2.133  1.1342  0.0457  0.0783
  620MOL0     C83628   6.379   6.966   2.195  0.0199 -0.4554  1.1939
  620MOL0     C83629   6.278   6.920   2.238  0.1556 -1.2697 -0.1829
  620MOL0     C83630   6.089   7.610   2.076  0.0823 -0.6359  0.2521
  620MOL0     C83631   6.044   7.739   2.117  0.0362  0.5868 -0.5970
  620MOL0     C83632   5.901   7.754   2.128  0.0770  0.1750  0.2475
  620MOL0     H83633   5.974   8.034   2.485 -0.7857  0.4045  1.1506
  620MOL0     H83634   5.917   8.248   2.604 -1.1623  1.3024 -1.3362
  620MOL0     H83635   6.110   8.636   2.471 -0.3226  1.0333  1.1804
  620MOL0     H83636   5.948   8.557   2.417  0.3348 -0.6392 -0.6204
  620MOL0     H83637   5.837   8.651   2.606  0.7953 -1.7823  0.3378
  620MOL0     H83638   5.913   8.789   2.548 -1.7258  0.5384  1.3781
  620MOL0     H83639   6.096   8.760   2.735 -1.6082  2.3818  1.4129
  620MOL0     H83640   6.016   8.608   2.785 -2.1928  0.2758  3.7912
  620MOL0     H83641   5.902   8.884   2.806  1.5727  0.7800  0.6436
  620MOL0     H83642   5.813   8.746   2.845  0.2478 -0.6859 -0.7123
  620MOL0     H83643   6.010   8.687   3.013  0.4219  0.1208 -0.4196
  620MOL0     H83644   6.081   8.843   2.962 -0.8195  2.4716 -1.2176
  620MOL0     H83645   5.947   8.879   3.178  0.2561  1.0711 -0.5581
  620MOL0     H83646   5.875   8.953   3.050 -3.5904  0.6977  2.2843
  620MOL0     H83647   5.811   8.694   3.176  3.0794  0.6223 -1.7931
  620MOL0     H83648   5.698   8.738   3.044 -1.6718 -0.0189  1.4883
  620MOL0     H83649   5.760   8.917   3.294  0.7305 -2.1812  0.3103
  620MOL0     H83650   5.663   8.970   3.150  0.6567 -1.5974 -2.2812
  620MOL0     H83651   5.424   8.847   3.117 -0.0548  1.2586  0.0910
  620MOL0     H83652   5.250   8.629   3.184 -0.5846 -2.2530  0.5389
  620MOL0     H83653   5.210   8.623   3.354  1.0203  2.3950  1.7068
  620MOL0     H83654   5.085   8.814   3.340  0.1867  2.2133 -1.7695
  620MOL0     H83655   5.196   8.908   3.242  0.1495 -0.0131  0.3031
  620MOL0     H83656   4.988   8.863   3.122 -3.6440 -2.5794 -0.4773
  620MOL0     H83657   5.006   8.695   3.130 -3.8335  1.9943 -0.5664
  620MOL0     H83658   5.244   8.761   3.007  0.3302  2.2673  2.0433
  620MOL0     H83659   5.150   8.907   2.985  0.3730  0.3365  3.5773
  620MOL0     H83660   4.947   8.650   2.675  0.1487 -0.3394  0.5404
  620MOL0     H83661   4.984   8.441   2.568  1.3532 -2.0338  0.4973
  620MOL0     H83662   5.113   7.934   2.831  1.3004 -0.7528  1.0347
  620MOL0     H83663   5.139   7.701   2.737  0.2496  1.1255  0.6535
  620MOL0     H83664   5.445   7.676   2.648 -3.0946  2.2022 -0.7976
  620MOL0     H83665   5.343   7.523   2.678  0.1990 -1.0408 -0.8376
  620MOL0     H83666   5.566   7.460   2.607 -1.3250 -2.5300  0.6805
  620MOL0     H83667   5.446   7.431   2.480 -1.3493  0.2205  1.3454
  620MOL0     H83668   5.642   7.514   2.367 -2.2224  1.5690 -4.9448
  620MOL0     H83669   5.519   7.630   2.359 -0.6313  0.2718  0.9247
  620MOL0     H83670   5.638   7.722   2.583  1.5703 -0.8610  1.9695
  620MOL0     H83671   5.692   7.772   2.417  0.6056  0.9944  1.3606
  620MOL0     H83672   5.851   7.602   2.405 -0.1046 -1.0013  0.8201
  620MOL0     H83673   5.829   7.543   2.561  1.9885  0.7137  0.3828
  620MOL0     H83674   5.911   7.840   2.535  0.2677  0.7869  3.7372
  620MOL0     H83675   5.904   7.746   2.675  0.0331 -1.6815  0.8381
  620MOL0     H83676   6.090   7.709   2.432 -1.5155 -1.8007 -0.9701
  620MOL0     H83677   6.079   7.598   2.570 -2.7016  1.7017  2.7068
  620MOL0     H83678   6.175   7.888   2.565 -2.3280 -0.2913  0.1237
  620MOL0     H83679   6.167   7.792   2.717 -1.0711 -0.6288 -0.1886
  620MOL0     H83680   5.397   7.846   2.442  1.2079 -0.4553  1.0282
  620MOL0     H83681   5.370   8.077   2.514 -0.0999  4.8631  4.9593
  620MOL0     H83682   5.253   8.330   2.891  2.0455  0.7046 -0.2785
  620MOL0     H83683   5.236   8.548   2.981  2.5860  2.1595 -1.4049
  620MOL0     H83684   6.200   8.458   2.366 -0.2417 -0.0426  0.7358
  620MOL0     H83685   6.278   8.266   2.278 -0.2353  0.0375  0.1948
  620MOL0     H83686   6.348   7.873   2.210  0.0758  1.0385 -0.6223
  620MOL0     H83687   6.410   7.632   2.183 -0.4057  1.6050  7.1152
  620MOL0     H83688   6.428   7.416   2.180  2.9257  1.9395 -2.4559
  620MOL0     H83689   6.462   7.422   2.004 -1.3254 -0.9458 -1.2298
  620MOL0     H83690   6.347   7.203   1.975  0.6374 -4.6939  0.5165
  620MOL0     H83691   6.298   7.220   2.146 -1.3042  0.1494 -2.0203
  620MOL0     H83692   6.519   7.199   2.234  0.0811 -2.5934  0.3753
  620MOL0     H83693   6.590   7.207   2.070 -0.8443  4.1108  0.7762
  620MOL0     H83694   6.521   6.979   2.031 -0.0780  0.3248 -0.2175
  620MOL0     H83695   6.588   6.973   2.192  1.7206 -1.0026 -1.4206
  620MOL0     H83696   6.181   6.890   2.271 -2.0574  5.8443  1.6149
  620MOL0     H83697   6.022   7.545   2.020 -1.9846  1.2444  0.3877
  620MOL0     H83698   5.888   7.774   2.234  2.8650 -0.9284  0.9020
  620MOL0     H83699   5.863   7.836   2.066 -3.6798 -1.9542 -0.5289
  620MOL0     H83700   5.842   7.666   2.102 -1.2848  0.6138  1.7146
  621MOL0     O83701   3.017   9.199   8.658  0.0280  0.6460 -0.0377
  621MOL0     C83702   3.004   9.085   8.710  0.5112 -0.4928  0.0467
  621MOL0     O83703   2.931   8.986   8.665  0.3355  0.2108 -0.6051
  621MOL0     C83704   2.859   9.007   8.549 -0.1119 -0.1332  0.9326
  621MOL0     C83705   2.717   9.020   8.556 -0.3465 -0.5616  0.2908
  621MOL0     C83706   2.645   9.059   8.443  0.6038  0.5651  0.0416
  621MOL0     C83707   2.709   9.086   8.330  0.1716  0.1050  0.3747
  621MOL0     O83708   2.646   9.115   8.218  0.0224 -0.2744  0.1702
  621MOL0     C83709   2.514   9.169   8.222  0.8998 -1.2436  0.1698
  621MOL0     C83710   2.484   9.235   8.085 -0.6249  0.0833 -0.2877
  621MOL0     C83711   2.339   9.299   8.066  0.0161 -0.4295 -0.9399
  621MOL0     C83712   2.231   9.189   8.067 -0.5033 -0.0413  0.1111
  621MOL0     C83713   2.098   9.247   8.005  0.2140  0.5603 -0.2415
  621MOL0     C83714   2.014   9.320   8.120  0.5049  0.0382  0.3522
  621MOL0     C83715   1.875   9.368   8.074  0.0814  0.7743  0.0033
  621MOL0     C83716   1.857   9.447   7.948 -0.5311 -0.1248  0.6119
  621MOL0     N83717   1.924   9.581   7.953  0.2998  0.5421  0.0037
  621MOL0     C83718   2.067   9.596   7.950 -0.7932 -0.2222  0.0740
  621MOL0     C83719   2.089   9.724   7.982  1.1228 -1.0268  0.1117
  621MOL0     C83720   2.217   9.788   7.985 -0.5856 -0.1621 -0.1723
  621MOL0     C83721   2.256   9.831   7.841 -0.6496  0.4589  0.4129
  621MOL0     C83722   2.392   9.900   7.855  0.1646  0.0114 -0.5513
  621MOL0     C83723   2.451   9.929   7.721  0.1705 -1.0708 -0.4806
  621MOL0     O83724   2.360  10.018   7.651 -0.4641 -0.1062 -0.5450
  621MOL0     C83725   2.390  10.159   7.663 -0.4115  0.0641  0.3335
  621MOL0     C83726   2.446  10.220   7.781 -0.3578 -0.5099 -0.5126
  621MOL0     C83727   2.492  10.352   7.774  0.1186 -0.1407  0.2421
  621MOL0     C83728   2.465  10.434   7.657  0.6217  0.6627 -0.4998
  621MOL0     C83729   2.506  10.575   7.659  0.5052  0.2795 -0.3898
  621MOL0     O83730   2.545  10.624   7.546 -1.1694 -1.0022 -0.2052
  621MOL0     C83731   2.577  10.758   7.530 -0.0001 -0.1230 -0.5957
  621MOL0     C83732   2.481  10.856   7.493 -0.2836 -0.2543 -1.0204
  621MOL0     C83733   2.510  10.996   7.486 -0.2789  0.4277  0.1710
  621MOL0     C83734   2.647  11.028   7.489  0.1364 -0.3679 -0.7619
  621MOL0     O83735   2.694  11.154   7.468  0.5903  0.3474  0.0105
  621MOL0     C83736   2.660  11.205   7.339 -0.3551  0.4816  0.7521
  621MOL0     C83737   2.730  11.329   7.286 -0.0588 -0.4085  0.2033
  621MOL0     C83738   2.666  11.456   7.360  0.0039 -0.2855  0.2166
  621MOL0     C83739   2.540  11.527   7.299  0.8619  0.2626 -0.7094
  621MOL0     C83740   2.547  11.669   7.325  0.3624 -0.8110  0.5261
  621MOL0     C83741   2.496  11.767   7.223  0.4633  0.0232 -0.7770
  621MOL0     C83742   2.532  11.916   7.273 -0.0820 -0.4665 -0.4281
  621MOL0     C83743   2.466  12.023   7.192 -0.6158 -0.0071  0.1149
  621MOL0    Cl83744   2.552  12.028   7.031 -0.1312 -0.5524  0.0106
  621MOL0     C83745   2.748  10.936   7.516  0.5541 -0.5907 -0.7777
  621MOL0     C83746   2.716  10.802   7.536  0.4834  0.0123 -0.3892
  621MOL0     O83747   2.509  10.641   7.769  0.6351  0.3838  0.3251
  621MOL0     C83748   2.401  10.373   7.553  0.7571 -0.2641 -0.0987
  621MOL0     C83749   2.356  10.243   7.559 -0.4332  1.0043  0.1896
  621MOL0     N83750   1.961   9.788   7.986  0.8420  0.4516 -0.1800
  621MOL0     N83751   1.866   9.698   7.982 -0.9012  0.8987 -0.4978
  621MOL0     C83752   2.848   9.086   8.328 -0.0420  0.1728  0.0308
  621MOL0     C83753   2.926   9.039   8.434 -0.3827  0.5525 -1.6106
  621MOL0     C83754   3.077   9.058   8.831 -1.0225  0.3382 -0.5419
  621MOL0     C83755   3.170   8.952   8.831  0.4444  0.3772 -0.5276
  621MOL0     C83756   3.253   8.923   8.934 -0.4873  0.0779 -0.1062
  621MOL0     C83757   3.231   8.986   9.056 -0.5916  0.6440  0.1871
  621MOL0     O83758   3.303   8.950   9.168 -1.5189 -0.0507 -0.0728
  621MOL0     C83759   3.435   8.905   9.156 -0.9660  0.3091 -0.7230
  621MOL0     C83760   3.541   9.001   9.225  0.7350  0.1977  0.1380
  621MOL0     C83761   3.516   8.993   9.375 -0.6155  0.2058 -0.3188
  621MOL0     C83762   3.607   9.088   9.453  0.2820  0.0281 -0.3090
  621MOL0     C83763   3.561   9.086   9.600  0.0645 -0.8270  0.8921
  621MOL0     C83764   3.531   9.087   9.722 -0.2097  0.2082  0.8507
  621MOL0     C83765   3.134   9.087   9.068 -0.7775 -0.2635 -0.4321
  621MOL0     C83766   3.060   9.129   8.956 -0.2591  0.6048  0.0574
  621MOL0     C83767   2.953   9.231   8.975  0.2394 -0.3066  0.2749
  621MOL0     H83768   2.660   9.014   8.649 -2.2512 -1.3709 -0.8625
  621MOL0     H83769   2.538   9.076   8.442  0.9709  3.2993  0.1245
  621MOL0     H83770   2.445   9.085   8.238  0.2055 -0.7232 -0.0247
  621MOL0     H83771   2.497   9.238   8.305  0.5091 -1.8290  0.5844
  621MOL0     H83772   2.496   9.163   8.003  3.6107  1.7984 -1.4513
  621MOL0     H83773   2.560   9.312   8.068 -0.6366  0.2489  0.4043
  621MOL0     H83774   2.340   9.355   7.972 -0.9259  3.1482  0.9969
  621MOL0     H83775   2.310   9.374   8.140 -1.1292 -2.5580  0.8572
  621MOL0     H83776   2.257   9.100   8.009 -0.4324 -0.4464  0.7417
  621MOL0     H83777   2.208   9.152   8.168 -1.5062  1.1965  0.3525
  621MOL0     H83778   2.112   9.310   7.917 -1.0802 -1.4155 -1.9589
  621MOL0     H83779   2.044   9.161   7.966  0.4282 -0.1683  0.9976
  621MOL0     H83780   2.001   9.253   8.206 -2.0489  0.3278  0.2844
  621MOL0     H83781   2.066   9.408   8.158 -0.1189 -0.2530  1.9670
  621MOL0     H83782   1.829   9.429   8.152  1.2017 -0.7964  1.9605
  621MOL0     H83783   1.820   9.274   8.063 -0.0411  0.6827  1.2822
  621MOL0     H83784   1.888   9.392   7.859 -2.3518  0.9934 -0.7944
  621MOL0     H83785   1.751   9.471   7.933  0.0999  1.5013 -1.8420
  621MOL0     H83786   2.147   9.523   7.937  0.7615  1.4724 -0.3100
  621MOL0     H83787   2.199   9.882   8.038  2.0437  1.7701 -2.4257
  621MOL0     H83788   2.303   9.732   8.023  0.1435  0.8429 -0.2893
  621MOL0     H83789   2.266   9.750   7.768  0.6930 -2.9168  4.0032
  621MOL0     H83790   2.176   9.884   7.788 -1.0246 -1.9874 -1.6468
  621MOL0     H83791   2.458   9.835   7.911 -1.4338 -0.2723  1.0955
  621MOL0     H83792   2.384   9.989   7.918 -0.2872 -1.0793  0.9981
  621MOL0     H83793   2.473   9.838   7.664 -1.9110 -1.2014 -1.1755
  621MOL0     H83794   2.546   9.977   7.746 -1.1570  0.1610  2.7874
  621MOL0     H83795   2.473  10.163   7.869  2.0545 -0.2558 -1.0273
  621MOL0     H83796   2.559  10.390   7.850  3.7485  1.9016 -3.5399
  621MOL0     H83797   2.378  10.822   7.481  0.5834 -3.5489 -0.1148
  621MOL0     H83798   2.431  11.070   7.479  0.2144  1.1735  2.0056
  621MOL0     H83799   2.684  11.126   7.267 -1.5850  2.0406 -1.5091
  621MOL0     H83800   2.552  11.221   7.341 -0.2394  1.3701  2.7422
  621MOL0     H83801   2.838  11.322   7.305  0.4840  1.1750 -1.8758
  621MOL0     H83802   2.720  11.321   7.177 -0.9835  0.6976  0.1869
  621MOL0     H83803   2.650  11.427   7.464 -0.1921 -4.3542 -0.7955
  621MOL0     H83804   2.748  11.527   7.342 -1.6235  1.4238 -0.7753
  621MOL0     H83805   2.448  11.491   7.344 -0.0237  1.3321 -1.6144
  621MOL0     H83806   2.517  11.501   7.196 -4.6256  1.9917 -0.2249
  621MOL0     H83807   2.651  11.703   7.329 -0.0732  1.6526 -3.4015
  621MOL0     H83808   2.491  11.691   7.416  0.3739 -1.6926  0.7620
  621MOL0     H83809   2.556  11.749   7.133  1.0799  3.6309 -1.2585
  621MOL0     H83810   2.391  11.757   7.196 -0.1311  2.6326  0.2621
  621MOL0     H83811   2.642  11.920   7.274 -0.0738 -0.2878  1.4300
  621MOL0     H83812   2.495  11.935   7.374 -1.5746  1.4906 -1.2852
  621MOL0     H83813   2.360  12.000   7.192 -0.7049  0.1640  2.2903
  621MOL0     H83814   2.476  12.120   7.241 -3.7212  0.0341  0.8632
  621MOL0     H83815   2.851  10.971   7.517  0.7289 -1.1143 -0.4833
  621MOL0     H83816   2.799  10.733   7.541  1.3336  1.0039 -0.5895
  621MOL0     H83817   2.380  10.445   7.474 -1.1226  0.1229  0.6990
  621MOL0     H83818   2.298  10.209   7.474 -1.2180  1.0128  0.7099
  621MOL0     H83819   2.897   9.128   8.241  0.7070 -3.1347 -1.2722
  621MOL0     H83820   3.034   9.032   8.439 -0.5271 -2.7905  2.0380
  621MOL0     H83821   3.182   8.902   8.735 -0.2142  3.3324 -2.3041
  621MOL0     H83822   3.330   8.851   8.906  0.0064  0.0941  1.1148
  621MOL0     H83823   3.468   8.892   9.053 -3.3432 -1.6213 -1.3280
  621MOL0     H83824   3.462   8.805   9.191  2.1693  1.0611 -0.6681
  621MOL0     H83825   3.533   9.101   9.181  0.2678  0.4966  0.8740
  621MOL0     H83826   3.640   8.957   9.217  0.9744  0.6644  0.4384
  621MOL0     H83827   3.535   8.894   9.417 -2.9566 -0.0693  0.2166
  621MOL0     H83828   3.416   9.027   9.404 -0.2909  1.5502 -0.6929
  621MOL0     H83829   3.708   9.045   9.448  0.1002 -0.6611  1.3123
  621MOL0     H83830   3.615   9.189   9.410  2.4212 -0.6593 -1.7397
  621MOL0     H83831   3.518   9.048   9.821  1.2745 -1.6717  0.3513
  621MOL0     H83832   3.118   9.132   9.165  0.2938 -0.8449  0.0358
  621MOL0     H83833   2.854   9.186   8.965  0.8677 -1.3949 -1.8000
  621MOL0     H83834   2.958   9.290   9.066  1.8876  1.8338 -1.1051
  621MOL0     H83835   2.962   9.289   8.882  0.1784 -0.3451  0.2454
  622MOL0     O83836   5.981   6.101   5.160  0.0801 -0.3625 -0.3573
  622MOL0     C83837   5.875   6.052   5.183  1.5146 -0.8695  0.6800
  622MOL0     O83838   5.756   6.122   5.182 -0.2534 -0.4091 -0.1860
  622MOL0     C83839   5.763   6.251   5.121  0.4106 -0.0876 -0.5254
  622MOL0     C83840   5.771   6.250   4.983 -0.4732  0.4768 -0.9663
  622MOL0     C83841   5.763   6.366   4.903  0.4107  0.3348  0.0942
  622MOL0     C83842   5.744   6.487   4.968 -0.0791  1.0099  0.0693
  622MOL0     O83843   5.739   6.592   4.884  1.0566 -0.1429  0.2110
  622MOL0     C83844   5.656   6.703   4.924 -0.1351  0.1944 -0.7626
  622MOL0     C83845   5.623   6.788   4.806 -0.1586  0.1093  0.0692
  622MOL0     C83846   5.737   6.876   4.784 -0.0808 -0.1412  1.3469
  622MOL0     C83847   5.758   6.923   4.642 -0.3240  0.2005 -0.4553
  622MOL0     C83848   5.877   7.007   4.637 -0.1938 -0.4297 -0.1450
  622MOL0     C83849   5.877   7.090   4.510  0.3931  0.6033  0.3743
  622MOL0     C83850   5.986   7.191   4.490  0.2174 -0.3327  0.2013
  622MOL0     C83851   5.934   7.283   4.382  0.1504  0.4702 -0.2431
  622MOL0     N83852   6.047   7.357   4.317 -0.1187  0.4268 -0.0549
  622MOL0     C83853   6.128   7.458   4.382 -0.0516 -0.3012  0.2779
  622MOL0     C83854   6.212   7.497   4.280  0.4050 -0.2630 -0.7299
  622MOL0     C83855   6.309   7.606   4.294  0.5696 -0.1848 -0.1739
  622MOL0     C83856   6.407   7.581   4.415 -0.4701 -0.4775 -0.8960
  622MOL0     C83857   6.509   7.692   4.436  0.8954 -0.3823 -0.1758
  622MOL0     C83858   6.438   7.832   4.438  0.4208  0.9453 -1.0091
  622MOL0     O83859   6.530   7.930   4.493  0.2683 -0.4609  0.5776
  622MOL0     C83860   6.627   7.981   4.416 -0.3989  0.4107  0.7350
  622MOL0     C83861   6.630   7.984   4.268  0.4956 -0.6056 -0.0369
  622MOL0     C83862   6.719   8.065   4.193  0.5714  0.1838 -0.3744
  622MOL0     C83863   6.806   8.146   4.272 -0.8604 -0.1107  0.5436
  622MOL0     C83864   6.891   8.234   4.200  0.3927 -0.6078 -0.5053
  622MOL0     O83865   6.994   8.287   4.265 -0.7469  0.2411  0.8862
  622MOL0     C83866   7.084   8.380   4.212  0.0062  0.1496 -0.0477
  622MOL0     C83867   7.211   8.385   4.273 -0.0846 -0.3070  0.0936
  622MOL0     C83868   7.315   8.480   4.236  0.3202 -0.2327  0.8257
  622MOL0     C83869   7.287   8.569   4.136 -0.2240  0.3035  0.0028
  622MOL0     O83870   7.374   8.663   4.095 -0.2400  0.1826 -0.2665
  622MOL0     C83871   7.365   8.781   4.183  0.0760  0.0868  1.2137
  622MOL0     C83872   7.491   8.874   4.182 -0.5777 -0.5059  0.1955
  622MOL0     C83873   7.611   8.807   4.260 -0.5734  0.2721 -0.6941
  622MOL0     C83874   7.741   8.887   4.239 -0.4705  0.4217 -0.6187
  622MOL0     C83875   7.844   8.834   4.334  0.3688 -0.0142  0.2239
  622MOL0     C83876   7.982   8.892   4.300 -0.3513 -0.0650  0.4503
  622MOL0     C83877   8.078   8.828   4.396 -0.5796 -0.2770 -0.1540
  622MOL0     C83878   8.211   8.901   4.401 -0.4543 -0.3231  0.6540
  622MOL0    Cl83879   8.337   8.800   4.470 -0.0652  0.0243 -0.1654
  622MOL0     C83880   7.164   8.566   4.076  0.4862 -0.8175  0.0053
  622MOL0     C83881   7.061   8.470   4.111  0.3880 -0.4054  0.2505
  622MOL0     O83882   6.862   8.258   4.085 -0.2962 -0.0920 -0.0705
  622MOL0     C83883   6.800   8.151   4.409 -0.6275 -0.5566  0.7058
  622MOL0     C83884   6.710   8.071   4.473 -0.2988  0.2719 -0.8708
  622MOL0     N83885   6.197   7.413   4.174  0.0754 -0.6246 -0.2915
  622MOL0     N83886   6.091   7.341   4.190  0.0149  0.2307  0.3218
  622MOL0     C83887   5.725   6.493   5.113 -0.2430  0.7902  1.1223
  622MOL0     C83888   5.726   6.369   5.186 -0.2263 -0.1939  0.1186
  622MOL0     C83889   5.861   5.898   5.183 -0.8747  0.1885 -0.6282
  622MOL0     C83890   5.736   5.844   5.215  0.0321  0.5948  0.9840
  622MOL0     C83891   5.722   5.713   5.239 -0.2754  0.7755  0.6096
  622MOL0     C83892   5.831   5.620   5.237  0.1845  0.3442 -0.4541
  622MOL0     O83893   5.803   5.486   5.256  0.6151  1.1428  0.6716
  622MOL0     C83894   5.674   5.450   5.300  0.4014  0.8534 -0.2503
  622MOL0     C83895   5.657   5.297   5.315 -0.1893 -0.0352 -0.9016
  622MOL0     C83896   5.666   5.226   5.186  0.5760  0.3495  0.2247
  622MOL0     C83897   5.562   5.264   5.079  0.0567 -0.5055 -0.1597
  622MOL0     C83898   5.422   5.240   5.127 -0.9446 -0.3594  0.5420
  622MOL0     C83899   5.308   5.216   5.173  0.0698 -0.2184  0.8564
  622MOL0     C83900   5.960   5.669   5.208  0.1689  0.6465 -0.2276
  622MOL0     C83901   5.978   5.802   5.175 -0.0105 -0.3607 -0.7329
  622MOL0     C83902   6.107   5.856   5.124  0.3352  0.3633 -1.2495
  622MOL0     H83903   5.791   6.155   4.933  0.2540  0.0944  0.0161
  622MOL0     H83904   5.786   6.354   4.797  1.5092 -0.8459  0.4478
  622MOL0     H83905   5.567   6.666   4.976 -1.2859  3.2298 -0.4010
  622MOL0     H83906   5.710   6.760   5.000  1.1612 -1.0136 -0.7212
  622MOL0     H83907   5.536   6.851   4.826 -0.5910 -0.7824  1.1110
  622MOL0     H83908   5.593   6.731   4.717 -0.9464 -1.1900  1.1377
  622MOL0     H83909   5.834   6.830   4.805  2.3310  4.4367  1.5021
  622MOL0     H83910   5.725   6.966   4.844  0.9351  0.2480  0.9833
  622MOL0     H83911   5.778   6.833   4.585 -1.6598  0.2142 -0.9853
  622MOL0     H83912   5.669   6.962   4.591  1.3515  1.8506 -2.2485
  622MOL0     H83913   5.867   7.068   4.727 -5.6948 -2.6604  1.1156
  622MOL0     H83914   5.971   6.953   4.654 -0.8300 -0.5938  3.8405
  622MOL0     H83915   5.882   7.020   4.426 -0.0949  1.3816 -0.3242
  622MOL0     H83916   5.781   7.139   4.490  0.1177 -0.0315  0.0863
  622MOL0     H83917   6.084   7.161   4.452  0.6947 -1.3658  2.1252
  622MOL0     H83918   6.007   7.245   4.583 -0.5647 -0.3789  0.4102
  622MOL0     H83919   5.885   7.217   4.310 -1.9106  0.5922  0.9496
  622MOL0     H83920   5.864   7.350   4.434  1.1590  1.6153 -0.3156
  622MOL0     H83921   6.123   7.498   4.483  1.8393 -1.2087  0.7887
  622MOL0     H83922   6.352   7.614   4.194 -2.8137 -2.3890 -2.0297
  622MOL0     H83923   6.258   7.700   4.316  0.2985 -0.9728  3.0713
  622MOL0     H83924   6.344   7.577   4.504 -0.2693 -2.2603 -0.7832
  622MOL0     H83925   6.458   7.485   4.399  2.5961  0.0193  3.9175
  622MOL0     H83926   6.590   7.685   4.363  0.9397  1.9854 -0.4292
  622MOL0     H83927   6.541   7.678   4.540 -0.7000 -1.9644  0.1375
  622MOL0     H83928   6.361   7.817   4.514 -1.1591 -0.1987 -2.7335
  622MOL0     H83929   6.386   7.861   4.346  1.4688  0.4697 -1.7635
  622MOL0     H83930   6.555   7.930   4.213 -0.1240 -2.9802  2.8678
  622MOL0     H83931   6.731   8.045   4.087  1.9980 -1.5335  0.0645
  622MOL0     H83932   7.233   8.320   4.357  1.5169  0.0901  0.0151
  622MOL0     H83933   7.406   8.493   4.294  0.0842 -0.2394  1.2020
  622MOL0     H83934   7.273   8.827   4.146  0.2100 -1.8896 -1.9166
  622MOL0     H83935   7.356   8.749   4.287  2.4317  1.3068  1.8742
  622MOL0     H83936   7.521   8.894   4.078 -2.0107 -1.3901 -0.4085
  622MOL0     H83937   7.460   8.973   4.217 -0.4786  0.2502 -1.6942
  622MOL0     H83938   7.582   8.809   4.365  1.6488  0.6183 -0.0400
  622MOL0     H83939   7.627   8.702   4.234  1.6771 -0.3267  2.5034
  622MOL0     H83940   7.719   8.992   4.255 -0.7008  0.4521 -1.1129
  622MOL0     H83941   7.771   8.867   4.135 -0.4749 -0.4084 -0.4675
  622MOL0     H83942   7.846   8.725   4.345  2.0009  0.1176  1.6735
  622MOL0     H83943   7.814   8.868   4.434 -1.0006 -2.1075  0.5711
  622MOL0     H83944   8.022   8.884   4.199  2.0158  1.6548  1.1644
  622MOL0     H83945   7.979   9.000   4.320  0.9126 -0.1949  1.5264
  622MOL0     H83946   8.093   8.724   4.366 -2.6670 -0.8070  0.4549
  622MOL0     H83947   8.026   8.828   4.493  0.7775 -2.0165  0.6213
  622MOL0     H83948   8.242   8.929   4.300 -0.3327 -2.5736  0.0213
  622MOL0     H83949   8.198   8.988   4.467 -0.3658  0.3554 -0.2044
  622MOL0     H83950   7.150   8.638   3.996 -0.0461  0.9633  1.6433
  622MOL0     H83951   6.970   8.471   4.052 -1.2907  1.2786  2.6896
  622MOL0     H83952   6.854   8.218   4.475 -1.9903  1.0950  0.2246
  622MOL0     H83953   6.699   8.078   4.581 -0.7987  1.3590 -0.9802
  622MOL0     H83954   5.706   6.588   5.162 -0.4258  1.4220 -0.1296
  622MOL0     H83955   5.723   6.369   5.295 -1.0569  0.8429  0.1101
  622MOL0     H83956   5.648   5.907   5.205 -0.6047 -0.3368  0.5470
  622MOL0     H83957   5.617   5.689   5.250 -0.7011  1.4265 -1.5781
  622MOL0     H83958   5.605   5.483   5.223  1.3135  1.1970 -0.9407
  622MOL0     H83959   5.653   5.503   5.394  1.0044 -1.0721  1.0295
  622MOL0     H83960   5.563   5.269   5.364 -0.0301  1.3681  0.2591
  622MOL0     H83961   5.746   5.271   5.374  1.0103  1.2748 -2.0461
  622MOL0     H83962   5.650   5.122   5.214 -1.6757  1.0078  1.6665
  622MOL0     H83963   5.762   5.228   5.134  0.7159 -2.1121  0.2683
  622MOL0     H83964   5.577   5.358   5.025 -0.1645  0.0012  0.6448
  622MOL0     H83965   5.568   5.204   4.987 -3.3796  2.9566 -2.9635
  622MOL0     H83966   5.206   5.197   5.202 -0.1382 -0.8096 -0.1905
  622MOL0     H83967   6.041   5.598   5.191 -2.0946 -2.1300 -0.3018
  622MOL0     H83968   6.102   5.925   5.039  2.0292  1.1426 -0.7621
  622MOL0     H83969   6.157   5.904   5.209  1.2556 -1.6332 -0.6015
  622MOL0     H83970   6.162   5.764   5.102  1.4643  0.4375  0.9705
  623MOL0     O83971   2.098   3.276   8.873 -0.1009  0.5903 -0.3007
  623MOL0     C83972   2.065   3.308   8.991  0.0970 -0.4937  0.4289
  623MOL0     O83973   1.946   3.260   9.049  0.0426  0.1932  0.4399
  623MOL0     C83974   1.861   3.168   8.985 -0.5413 -0.1361  0.6086
  623MOL0     C83975   1.724   3.166   9.012 -0.7284 -0.4678 -0.5179
  623MOL0     C83976   1.644   3.079   8.942 -0.7273  0.4966  0.4410
  623MOL0     C83977   1.697   2.968   8.874 -0.6865 -1.0129  0.7607
  623MOL0     O83978   1.622   2.867   8.830  0.3983  0.2846  0.6968
  623MOL0     C83979   1.628   2.838   8.686  0.5528 -0.3066  0.0124
  623MOL0     C83980   1.491   2.857   8.626  0.3074  0.0856  0.1933
  623MOL0     C83981   1.381   2.750   8.663 -1.2965  0.5650  0.0713
  623MOL0     C83982   1.229   2.790   8.643 -0.2036 -0.2619  0.3634
  623MOL0     C83983   1.144   2.755   8.755  2.0455  0.4064  0.0515
  623MOL0     C83984   0.995   2.812   8.748 -0.7828  0.7953  0.3973
  623MOL0     C83985   0.948   2.889   8.864 -0.5929 -0.8491 -0.5550
  623MOL0     C83986   0.959   2.817   8.998  0.1813 -0.3426  0.0577
  623MOL0     N83987   0.935   2.908   9.109 -0.8783  0.5427  0.2286
  623MOL0     C83988   0.830   3.001   9.122 -0.0872 -0.7361  0.1251
  623MOL0     C83989   0.814   3.020   9.248 -0.4578  0.0424 -0.2537
  623MOL0     C83990   0.729   3.121   9.317 -0.3413 -0.0495 -0.2576
  623MOL0     C83991   0.755   3.262   9.296  0.3901 -0.0682  0.4381
  623MOL0     C83992   0.672   3.341   9.398 -0.4488 -0.4817 -0.2416
  623MOL0     C83993   0.515   3.329   9.376 -0.0201  0.6602 -0.4172
  623MOL0     O83994   0.462   3.214   9.449  0.0050  0.2381  0.0880
  623MOL0     C83995   0.416   3.245   9.579 -0.2153  0.2630  0.3453
  623MOL0     C83996   0.471   3.352   9.666  0.2759  0.5284  0.6928
  623MOL0     C83997   0.423   3.380   9.798  0.0334  0.0145  0.3873
  623MOL0     C83998   0.330   3.300   9.848  0.5958  0.0810  0.0059
  623MOL0     C83999   0.263   3.329   9.981 -0.7531 -0.5217 -0.0054
  623MOL0     O84000   0.310   3.438  10.058  0.5367  0.1648  0.6898
  623MOL0     C84001   0.290   3.437  10.193  0.8015 -0.5691 -0.2271
  623MOL0     C84002   0.403   3.484  10.259 -0.7372 -0.1068  0.3413
  623MOL0     C84003   0.403   3.476  10.394  0.6357 -0.0829 -0.0975
  623MOL0     C84004   0.298   3.439  10.473 -1.2382  1.3098 -0.0125
  623MOL0     O84005   0.307   3.440  10.609  0.2339 -0.6842  0.4844
  623MOL0     C84006   0.433   3.423  10.671 -0.1999  0.4856 -0.9322
  623MOL0     C84007   0.418   3.441  10.829  0.6694  0.7505 -0.6959
  623MOL0     C84008   0.382   3.587  10.857 -0.7128  0.2228  0.3393
  623MOL0     C84009   0.397   3.644  11.001  0.4821 -0.3663 -0.0320
  623MOL0     C84010   0.289   3.589  11.106 -0.5515  0.0654  0.0358
  623MOL0     C84011   0.306   3.648  11.243  1.0151  0.0301  0.6056
  623MOL0     C84012   0.432   3.650  11.317  0.6542  0.6693  0.5483
  623MOL0     C84013   0.432   3.708  11.457  0.5245  0.2660  0.8574
  623MOL0    Cl84014   0.373   3.876  11.483 -0.4349 -0.1310 -0.2491
  623MOL0     C84015   0.179   3.409  10.406  0.1964 -0.3805 -0.3455
  623MOL0     C84016   0.175   3.407  10.264 -0.7574  0.0441 -0.5831
  623MOL0     O84017   0.176   3.251  10.020  0.1645  0.0403  0.2268
  623MOL0     C84018   0.278   3.189   9.771 -0.2356  0.1653 -1.0572
  623MOL0     C84019   0.321   3.161   9.640 -0.6233  0.1172 -0.1013
  623MOL0     N84020   0.914   2.952   9.316  1.1628  0.6000  0.4823
  623MOL0     N84021   0.987   2.883   9.231  0.6082  0.4001 -0.0090
  623MOL0     C84022   1.836   2.949   8.881  0.1604 -0.5168 -0.0738
  623MOL0     C84023   1.917   3.051   8.935 -0.0257  0.4277  0.4919
  623MOL0     C84024   2.176   3.385   9.066  0.3697  1.0053  0.7264
  623MOL0     C84025   2.273   3.458   8.999 -1.2181  0.8897 -0.6604
  623MOL0     C84026   2.352   3.538   9.066  0.1046 -0.4405 -0.3716
  623MOL0     C84027   2.364   3.531   9.206  0.8113 -0.8106  0.0254
  623MOL0     O84028   2.470   3.595   9.268  0.0024  0.1524 -0.2101
  623MOL0     C84029   2.462   3.622   9.411  0.3056 -0.3306  1.2284
  623MOL0     C84030   2.584   3.719   9.444  0.1434  0.5545  0.0486
  623MOL0     C84031   2.713   3.627   9.469  0.0913 -0.1992 -0.4249
  623MOL0     C84032   2.844   3.714   9.448 -0.3478  0.7983  0.0356
  623MOL0     C84033   2.980   3.654   9.464 -0.1953 -0.2405 -0.1570
  623MOL0     C84034   3.091   3.631   9.508 -1.2733  0.0554  0.6929
  623MOL0     C84035   2.263   3.457   9.277 -0.4156 -0.3762  0.3987
  623MOL0     C84036   2.177   3.373   9.210 -0.2196 -0.0429 -0.2612
  623MOL0     C84037   2.068   3.303   9.292 -1.2124  0.4699 -0.2435
  623MOL0     H84038   1.681   3.247   9.070  2.6449  0.2274  1.2533
  623MOL0     H84039   1.538   3.087   8.962 -0.9616 -0.6421 -0.2650
  623MOL0     H84040   1.703   2.904   8.642 -0.5593  1.6746  0.9510
  623MOL0     H84041   1.669   2.738   8.668  2.1182  0.5252 -1.3445
  623MOL0     H84042   1.500   2.854   8.517  1.4531 -0.1599  0.2754
  623MOL0     H84043   1.454   2.954   8.661 -2.7589 -0.9510  0.0582
  623MOL0     H84044   1.415   2.729   8.765  3.3000  1.5824 -1.0251
  623MOL0     H84045   1.401   2.656   8.610 -0.7288  0.5655  0.2858
  623MOL0     H84046   1.232   2.899   8.632  0.1965 -0.4798 -2.4295
  623MOL0     H84047   1.198   2.737   8.552  1.6069 -0.5888 -0.0940
  623MOL0     H84048   1.141   2.646   8.761  1.3193  0.1129 -3.4839
  623MOL0     H84049   1.207   2.791   8.837  1.7826  2.4046 -0.5751
  623MOL0     H84050   0.989   2.877   8.660  2.3905  0.2901 -0.3365
  623MOL0     H84051   0.925   2.733   8.719 -3.2737  3.7435 -2.2887
  623MOL0     H84052   0.841   2.901   8.843 -0.4970  1.3312 -0.0714
  623MOL0     H84053   0.993   2.987   8.879  0.9387 -1.2877 -2.0812
  623MOL0     H84054   0.891   2.731   8.998 -1.6566  0.9897 -2.3923
  623MOL0     H84055   1.059   2.778   9.019  0.4921  1.7972  3.2785
  623MOL0     H84056   0.783   3.057   9.042  1.6455 -0.0324 -0.4373
  623MOL0     H84057   0.623   3.097   9.308 -0.8571  1.4643  1.1805
  623MOL0     H84058   0.755   3.101   9.422 -0.7057 -2.2275 -0.5331
  623MOL0     H84059   0.862   3.281   9.308  0.5564  0.2572 -1.2677
  623MOL0     H84060   0.732   3.305   9.198 -1.8727 -1.0492  0.4726
  623MOL0     H84061   0.707   3.443   9.381 -0.7463 -0.7547 -2.8520
  623MOL0     H84062   0.706   3.309   9.497 -1.6283 -2.5400 -0.4483
  623MOL0     H84063   0.495   3.321   9.269  1.6389 -0.3547 -0.6868
  623MOL0     H84064   0.453   3.415   9.406 -0.6111  0.1208 -0.0543
  623MOL0     H84065   0.553   3.411   9.625  0.8465  1.5664  3.1402
  623MOL0     H84066   0.465   3.467   9.848  0.4307  0.1917 -0.2534
  623MOL0     H84067   0.492   3.516  10.205 -1.8051 -2.0988 -2.9048
  623MOL0     H84068   0.498   3.500  10.440  1.2532 -0.0443 -1.3479
  623MOL0     H84069   0.474   3.324  10.648  0.7111  0.3682  0.9786
  623MOL0     H84070   0.516   3.489  10.643  2.0123 -0.0098  3.4189
  623MOL0     H84071   0.340   3.371  10.860  1.3643  0.0758 -0.4193
  623MOL0     H84072   0.512   3.404  10.872 -0.8939  0.0783  2.4383
  623MOL0     H84073   0.445   3.649  10.793 -0.2442 -2.3956 -1.8806
  623MOL0     H84074   0.279   3.604  10.822  0.0188 -0.2161 -2.2407
  623MOL0     H84075   0.389   3.752  10.987  0.2187 -0.2558  0.9536
  623MOL0     H84076   0.501   3.626  11.030  2.2150  1.6404 -4.1636
  623MOL0     H84077   0.301   3.481  11.122 -0.9289  0.2369  1.6821
  623MOL0     H84078   0.190   3.610  11.065 -0.5588  0.5461  0.2982
  623MOL0     H84079   0.281   3.754  11.232  1.0138  0.0125  0.4361
  623MOL0     H84080   0.230   3.600  11.306  0.0327 -2.3160 -2.1666
  623MOL0     H84081   0.513   3.694  11.258  1.9114 -1.6876  0.3732
  623MOL0     H84082   0.471   3.548  11.314  3.1153  1.5593 -0.5254
  623MOL0     H84083   0.377   3.636  11.519 -1.8384 -0.5183 -1.9062
  623MOL0     H84084   0.534   3.702  11.497  1.0600 -1.2534 -0.6248
  623MOL0     H84085   0.085   3.387  10.456 -0.0521  0.7617 -0.2690
  623MOL0     H84086   0.079   3.387  10.217 -1.4088 -2.4330  1.5455
  623MOL0     H84087   0.234   3.106   9.826  0.5912  1.3957  1.6493
  623MOL0     H84088   0.273   3.081   9.585 -3.1999  3.2092 -2.7063
  623MOL0     H84089   1.879   2.859   8.838 -0.3893 -0.8424  0.0441
  623MOL0     H84090   2.025   3.051   8.917  0.3092 -2.9802  1.7048
  623MOL0     H84091   2.281   3.446   8.892  1.5673  0.6905 -0.4906
  623MOL0     H84092   2.420   3.597   9.004 -2.1431  0.4565 -2.1249
  623MOL0     H84093   2.477   3.527   9.463  4.2024 -1.7772 -1.9939
  623MOL0     H84094   2.368   3.666   9.446 -1.2194 -1.9698 -0.5622
  623MOL0     H84095   2.559   3.762   9.541  0.0525 -1.6858  1.0848
  623MOL0     H84096   2.596   3.798   9.369 -2.4685  1.5067  0.5357
  623MOL0     H84097   2.723   3.537   9.408  0.0672  0.5705 -1.6090
  623MOL0     H84098   2.713   3.591   9.572  0.2748 -4.8718 -1.8586
  623MOL0     H84099   2.845   3.742   9.343 -0.1233 -2.1357 -0.8251
  623MOL0     H84100   2.839   3.810   9.500 -1.9191  0.7115  0.0873
  623MOL0     H84101   3.193   3.614   9.536 -0.3616 -0.1033 -2.3524
  623MOL0     H84102   2.281   3.456   9.384 -0.4518  3.6535  0.6071
  623MOL0     H84103   1.971   3.348   9.269 -1.7985 -1.4644 -1.7670
  623MOL0     H84104   2.067   3.197   9.269 -1.1891  0.4644 -0.2210
  623MOL0     H84105   2.070   3.320   9.400 -1.3645  3.4119 -0.5974
  624MOL0     O84106  10.971   1.317   7.188  0.5697 -0.4669  0.1676
  624MOL0     C84107  11.003   1.203   7.158  0.0166  0.0037 -0.4032
  624MOL0     O84108  10.995   1.148   7.037 -0.0243 -0.0265  1.1588
  624MOL0     C84109  10.955   1.214   6.924  0.3238  0.6886  0.1214
  624MOL0     C84110  10.982   1.344   6.895 -0.4922  0.5581 -0.7134
  624MOL0     C84111  10.937   1.397   6.775  0.5004 -0.7135  0.6002
  624MOL0     C84112  10.877   1.321   6.676 -0.7586 -0.0506 -0.3216
  624MOL0     O84113  10.814   1.362   6.563 -1.0454 -0.5240 -0.5302
  624MOL0     C84114  10.854   1.494   6.514  0.1189 -0.5217  0.7501
  624MOL0     C84115  10.770   1.541   6.394  0.2526 -0.6789  0.0783
  624MOL0     C84116  10.818   1.688   6.352  0.5653 -0.3065  0.3428
  624MOL0     C84117  10.902   1.703   6.217  0.4819  0.1179  0.1043
  624MOL0     C84118  10.941   1.838   6.182  0.9697 -0.0656  0.6003
  624MOL0     C84119  11.023   1.841   6.046 -0.3389  0.0002 -0.5240
  624MOL0     C84120  11.058   1.980   6.000  0.9294  0.1404 -1.6660
  624MOL0     C84121  11.113   1.966   5.855 -1.9254  0.1085 -0.3073
  624MOL0     N84122  11.149   2.098   5.798 -0.1802 -0.6959  0.4234
  624MOL0     C84123  11.062   2.180   5.740  0.3667  0.1190  0.7613
  624MOL0     C84124  11.132   2.274   5.673  0.4879 -0.0769  0.4073
  624MOL0     C84125  11.068   2.387   5.600  0.6490  0.5351  0.0217
  624MOL0     C84126  10.990   2.339   5.476 -0.9743 -1.0012  0.5228
  624MOL0     C84127  11.056   2.256   5.357  0.3501  0.2322 -0.2262
  624MOL0     C84128  11.195   2.296   5.305  0.4271 -1.3193 -0.2209
  624MOL0     O84129  11.189   2.435   5.263 -0.9233 -0.3612 -0.2776
  624MOL0     C84130  11.128   2.471   5.148  0.5698  1.2187  0.5412
  624MOL0     C84131  11.065   2.380   5.048  0.9546 -0.2480 -0.6868
  624MOL0     C84132  10.995   2.434   4.942  0.9140 -0.5701  0.2806
  624MOL0     C84133  10.982   2.579   4.915 -0.0873 -0.2148 -0.3245
  624MOL0     C84134  10.916   2.643   4.799 -0.1003  0.9368 -0.3166
  624MOL0     O84135  10.915   2.573   4.685 -1.0371 -0.0673 -0.7351
  624MOL0     C84136  10.858   2.619   4.561 -0.6245 -0.2492  0.0275
  624MOL0     C84137  10.934   2.581   4.447  0.6400 -0.1202 -0.5334
  624MOL0     C84138  10.906   2.608   4.314  0.5359  0.4447  0.5207
  624MOL0     C84139  10.792   2.689   4.298  0.7207 -0.4496  0.1534
  624MOL0     O84140  10.761   2.706   4.165  0.4662 -0.4032  0.7856
  624MOL0     C84141  10.851   2.795   4.090  0.1050 -0.3581  0.3472
  624MOL0     C84142  10.811   2.824   3.944  1.2741 -0.3065 -0.8657
  624MOL0     C84143  10.903   2.918   3.872 -0.9157 -0.2848  0.5746
  624MOL0     C84144  10.867   2.954   3.725  0.0856  0.5157 -0.1033
  624MOL0     C84145  10.839   2.843   3.623 -0.7652 -0.4885 -0.1309
  624MOL0     C84146  10.969   2.766   3.582  0.1976 -0.2554 -0.6557
  624MOL0     C84147  10.944   2.664   3.475  0.3370 -0.6732  0.8286
  624MOL0     C84148  10.921   2.717   3.338 -0.9717  0.1509  0.5839
  624MOL0    Cl84149  10.760   2.804   3.307 -0.2594  0.3515  0.3593
  624MOL0     C84150  10.707   2.734   4.405  0.0083  1.1058 -0.0678
  624MOL0     C84151  10.744   2.699   4.541 -0.1754 -0.5667  0.6527
  624MOL0     O84152  10.863   2.755   4.819  0.3848 -0.2831 -0.3105
  624MOL0     C84153  11.025   2.654   5.023 -0.0267  1.1245  0.3551
  624MOL0     C84154  11.093   2.604   5.139 -0.6334 -0.6060  0.7107
  624MOL0     N84155  11.265   2.245   5.691  0.5606 -0.4297 -0.4805
  624MOL0     N84156  11.276   2.151   5.776 -0.0049  1.5503 -0.1237
  624MOL0     C84157  10.860   1.186   6.704  0.2812  0.0447 -0.3190
  624MOL0     C84158  10.892   1.132   6.830 -0.2050 -0.6290  0.2804
  624MOL0     C84159  11.065   1.112   7.268 -0.6722  0.1988 -0.1539
  624MOL0     C84160  11.134   1.172   7.372  0.0563 -0.2793 -1.2657
  624MOL0     C84161  11.191   1.098   7.480 -0.4091  0.1599 -0.2968
  624MOL0     C84162  11.195   0.955   7.470 -0.2272  0.9019  0.9402
  624MOL0     O84163  11.282   0.874   7.537  0.9081  0.6072  0.2748
  624MOL0     C84164  11.244   0.862   7.677  0.2277 -0.5770 -0.0389
  624MOL0     C84165  11.350   0.786   7.756 -0.0721 -0.5812 -0.5282
  624MOL0     C84166  11.492   0.865   7.735 -0.4330  0.8765 -0.0390
  624MOL0     C84167  11.575   0.847   7.866 -0.1333 -0.4675 -0.1527
  624MOL0     C84168  11.643   0.722   7.851 -0.0278  0.0969  0.2437
  624MOL0     C84169  11.711   0.625   7.848 -1.3194  0.0873 -0.5537
  624MOL0     C84170  11.132   0.897   7.362 -0.2344  0.4162 -0.4737
  624MOL0     C84171  11.061   0.968   7.271 -0.9068  0.6172  0.6606
  624MOL0     C84172  11.007   0.892   7.148 -0.1137  0.8347 -0.0873
  624MOL0     H84173  11.025   1.413   6.967 -4.9260 -0.4818  3.4367
  624MOL0     H84174  10.933   1.505   6.765 -1.2644 -0.6160  1.9513
  624MOL0     H84175  10.831   1.564   6.594  1.9810 -3.6199  4.2743
  624MOL0     H84176  10.961   1.503   6.492  0.4101 -0.8697  1.9467
  624MOL0     H84177  10.664   1.547   6.420  0.7403  2.7045  1.8000
  624MOL0     H84178  10.769   1.481   6.303 -0.7848 -0.6435  0.0546
  624MOL0     H84179  10.864   1.745   6.434 -3.8777  3.0450  0.8863
  624MOL0     H84180  10.717   1.729   6.339 -0.3875 -2.8975 -1.3919
  624MOL0     H84181  10.995   1.646   6.229  0.6011  0.4431  0.7792
  624MOL0     H84182  10.845   1.663   6.133 -0.4415 -0.1622  0.8333
  624MOL0     H84183  10.848   1.893   6.166 -0.2807 -2.4001 -0.4850
  624MOL0     H84184  11.003   1.875   6.264 -0.1564  1.1222  0.9439
  624MOL0     H84185  11.110   1.775   6.044  0.3507  0.8913 -1.3026
  624MOL0     H84186  10.939   1.801   5.989 -1.2816 -5.0307  3.6493
  624MOL0     H84187  11.139   2.023   6.060  1.5198  0.6382 -2.7881
  624MOL0     H84188  10.971   2.046   6.004  1.5955  1.0390 -1.6535
  624MOL0     H84189  11.207   1.912   5.863 -1.3573  0.9963 -0.7617
  624MOL0     H84190  11.039   1.909   5.799 -0.2846 -1.7221 -0.7177
  624MOL0     H84191  10.956   2.161   5.742  0.4358 -0.2015  1.8471
  624MOL0     H84192  11.006   2.438   5.674  2.9505  1.6430  1.3190
  624MOL0     H84193  11.142   2.465   5.574  0.6077  1.6325  2.8549
  624MOL0     H84194  10.894   2.290   5.492 -0.8957 -1.6963 -0.9905
  624MOL0     H84195  10.969   2.433   5.425  1.9050 -0.4556  0.1526
  624MOL0     H84196  10.999   2.266   5.265  3.5143  2.6360 -2.1225
  624MOL0     H84197  11.060   2.154   5.398  2.7347  0.3299 -0.0577
  624MOL0     H84198  11.242   2.240   5.223  1.6598  1.9210 -1.9155
  624MOL0     H84199  11.258   2.273   5.391 -2.6419 -1.6149  2.1068
  624MOL0     H84200  11.086   2.274   5.041  5.7133  0.4326  0.1027
  624MOL0     H84201  10.969   2.373   4.855  0.1640  1.4985 -1.0152
  624MOL0     H84202  11.021   2.528   4.485  0.6665 -0.2062 -0.7111
  624MOL0     H84203  10.973   2.571   4.237  0.0332  0.4964  0.0582
  624MOL0     H84204  10.851   2.889   4.145  0.1521 -2.1675  3.6903
  624MOL0     H84205  10.951   2.751   4.089  0.0729 -0.4527 -0.9026
  624MOL0     H84206  10.821   2.735   3.881 -1.3615  1.1014 -3.5416
  624MOL0     H84207  10.706   2.853   3.934  0.3130 -2.7723  1.0480
  624MOL0     H84208  10.911   3.013   3.926 -0.6570 -0.3191  0.5962
  624MOL0     H84209  11.003   2.875   3.874 -1.0000 -1.0151 -3.3789
  624MOL0     H84210  10.953   3.002   3.676 -0.2638 -0.8012 -2.1447
  624MOL0     H84211  10.785   3.025   3.723 -1.5867 -1.3559 -0.8712
  624MOL0     H84212  10.793   2.898   3.541 -2.4475 -1.1878  0.2944
  624MOL0     H84213  10.760   2.777   3.662 -1.0646  0.1717  0.4024
  624MOL0     H84214  11.041   2.837   3.541 -2.6793  3.6980  0.5559
  624MOL0     H84215  11.006   2.707   3.667 -1.3273  2.1247  1.8285
  624MOL0     H84216  10.848   2.622   3.506 -0.0086  1.0430  2.2151
  624MOL0     H84217  11.025   2.591   3.465 -2.2676 -3.6405 -0.5464
  624MOL0     H84218  10.999   2.784   3.302 -2.2790  2.0944  1.2051
  624MOL0     H84219  10.915   2.634   3.267 -1.3699 -0.4019  1.2422
  624MOL0     H84220  10.619   2.796   4.390 -1.0581 -0.1324  0.8582
  624MOL0     H84221  10.672   2.727   4.617 -0.3648  0.4053  0.1400
  624MOL0     H84222  11.010   2.761   5.019  3.4456  1.6826 -0.4250
  624MOL0     H84223  11.128   2.677   5.212 -1.4216 -0.8975  1.3976
  624MOL0     H84224  10.800   1.125   6.637 -1.5250 -0.4115  1.6144
  624MOL0     H84225  10.868   1.028   6.850  1.3872 -0.9786  0.5037
  624MOL0     H84226  11.137   1.280   7.374 -2.5529 -0.1710 -0.5031
  624MOL0     H84227  11.237   1.156   7.559  1.2182 -1.1818 -0.2081
  624MOL0     H84228  11.156   0.797   7.679 -1.9726  1.9846 -2.5838
  624MOL0     H84229  11.228   0.963   7.714  1.2008  1.2791 -4.0857
  624MOL0     H84230  11.367   0.682   7.727  1.8963 -0.1882 -0.9236
  624MOL0     H84231  11.321   0.792   7.861  0.7770  0.7924 -0.3485
  624MOL0     H84232  11.482   0.970   7.706  1.7924  1.5297  1.3031
  624MOL0     H84233  11.549   0.822   7.652 -2.0492 -2.5959  0.4732
  624MOL0     H84234  11.664   0.911   7.879  1.9179 -3.5222  2.3372
  624MOL0     H84235  11.516   0.862   7.957 -2.1226  1.1684 -1.6146
  624MOL0     H84236  11.774   0.539   7.855 -0.0284  1.1137  1.1953
  624MOL0     H84237  11.145   0.792   7.339 -0.6256  0.4271 -0.7548
  624MOL0     H84238  11.084   0.910   7.072 -0.8791  0.4771 -0.9595
  624MOL0     H84239  11.001   0.783   7.160 -0.0764  0.8470  0.0459
  624MOL0     H84240  10.908   0.933   7.127  0.2095  1.7506  0.1317
  625MOL0     O84241   6.552   2.116  10.647 -0.1141  0.0951 -0.3616
  625MOL0     C84242   6.481   2.173  10.728  0.2666  0.4262  0.1134
  625MOL0     O84243   6.390   2.109  10.814  0.4578 -0.4168  0.4071
  625MOL0     C84244   6.352   1.979  10.784  0.1309 -0.0590  0.7617
  625MOL0     C84245   6.370   1.893  10.889  0.4130  0.1796 -0.4696
  625MOL0     C84246   6.341   1.752  10.867  0.8622  0.5548  0.8249
  625MOL0     C84247   6.294   1.708  10.746 -0.1744  0.3082 -0.3415
  625MOL0     O84248   6.272   1.575  10.711  0.6660  0.0169 -0.1700
  625MOL0     C84249   6.131   1.536  10.723  0.1511  0.6650  0.3360
  625MOL0     C84250   6.096   1.400  10.660  0.3750 -1.0976 -0.2587
  625MOL0     C84251   5.946   1.405  10.611 -0.1909  0.7549 -0.5975
  625MOL0     C84252   5.848   1.398  10.726  0.5608  1.6654  0.4969
  625MOL0     C84253   5.705   1.376  10.667  0.7139 -0.2731 -0.1965
  625MOL0     C84254   5.678   1.231  10.638 -0.5201  0.3911 -0.5117
  625MOL0     C84255   5.526   1.223  10.606 -0.9087 -0.6123 -0.5963
  625MOL0     C84256   5.502   1.107  10.527  0.0621 -0.8516 -0.1341
  625MOL0     N84257   5.512   0.980  10.596 -0.8859  0.1187 -0.7001
  625MOL0     C84258   5.580   0.869  10.563 -0.6601  0.1145  0.6770
  625MOL0     C84259   5.562   0.778  10.656  0.4861  0.4004  0.2673
  625MOL0     C84260   5.620   0.635  10.659 -0.7210  0.6779  0.1155
  625MOL0     C84261   5.755   0.620  10.591  1.0566 -0.6386  0.7818
  625MOL0     C84262   5.827   0.492  10.607 -0.0728 -0.9448 -0.6257
  625MOL0     C84263   5.729   0.371  10.577 -0.3669 -0.0260 -0.9686
  625MOL0     O84264   5.683   0.381  10.439  0.4854  0.2908  0.3110
  625MOL0     C84265   5.569   0.304  10.406  0.1371 -1.1329  0.4802
  625MOL0     C84266   5.457   0.372  10.354 -1.3561 -0.3402  1.3133
  625MOL0     C84267   5.338   0.307  10.338 -0.7036 -0.5255 -0.1015
  625MOL0     C84268   5.333   0.168  10.362 -0.9342 -0.2937 -0.2920
  625MOL0     C84269   5.213   0.091  10.329  0.1011 -0.1914 -0.0674
  625MOL0     O84270   5.115   0.165  10.273  0.5852 -0.8153 -0.6542
  625MOL0     C84271   4.988   0.131  10.259  1.1517  0.1476 -0.0606
  625MOL0     C84272   4.899   0.245  10.258  1.4307 -0.4038 -0.2825
  625MOL0     C84273   4.757   0.223  10.270 -0.9274 -0.3239  0.6727
  625MOL0     C84274   4.706   0.090  10.277  0.4341 -0.0183  0.3327
  625MOL0     O84275   4.566   0.080  10.283 -0.0369 -0.6351  0.0210
  625MOL0     C84276   4.499  -0.048  10.282  0.5201  0.0394 -0.0185
  625MOL0     C84277   4.476  -0.110  10.414  0.0439  0.3991 -1.4679
  625MOL0     C84278   4.376  -0.030  10.498 -0.7332 -0.0136 -0.1211
  625MOL0     C84279   4.345  -0.118  10.625 -1.4009  0.2694  0.6892
  625MOL0     C84280   4.254  -0.040  10.721 -0.1286  0.7991  0.5334
  625MOL0     C84281   4.294   0.100  10.755 -0.2606 -0.2161 -0.2485
  625MOL0     C84282   4.446   0.119  10.806  0.5295 -0.0119 -0.1383
  625MOL0     C84283   4.457   0.266  10.861 -0.5691  0.4552  1.1519
  625MOL0    Cl84284   4.354   0.286  11.008  0.2703 -0.3449 -0.4090
  625MOL0     C84285   4.786  -0.021  10.288 -0.6966  0.5674 -0.2754
  625MOL0     C84286   4.929  -0.002  10.268  0.1670 -1.1572  0.1749
  625MOL0     O84287   5.203  -0.033  10.344  0.1220  1.2419 -0.1055
  625MOL0     C84288   5.452   0.099  10.401 -0.1242 -0.0226  0.3518
  625MOL0     C84289   5.564   0.167  10.432 -0.3363 -1.4048 -0.8836
  625MOL0     N84290   5.486   0.831  10.756 -0.3359  1.0776  0.0712
  625MOL0     N84291   5.466   0.956  10.725  0.6578 -0.4491 -0.3647
  625MOL0     C84292   6.277   1.806  10.646 -0.7026 -0.4310 -0.1108
  625MOL0     C84293   6.302   1.943  10.663 -0.7372  0.4902 -0.7373
  625MOL0     C84294   6.498   2.321  10.744 -0.4246 -0.1247 -0.1900
  625MOL0     C84295   6.628   2.383  10.759  0.6097 -0.6692  0.7913
  625MOL0     C84296   6.628   2.523  10.802 -0.0512  0.3593  0.7918
  625MOL0     C84297   6.514   2.607  10.794 -0.4721  0.5512 -0.4273
  625MOL0     O84298   6.512   2.738  10.827 -0.6401 -0.2281 -0.1235
  625MOL0     C84299   6.618   2.813  10.889  0.2384  0.4214  0.0531
  625MOL0     C84300   6.572   2.962  10.877 -0.0384  0.6872  0.1424
  625MOL0     C84301   6.463   3.018  10.969 -0.3318 -0.0867 -0.1175
  625MOL0     C84302   6.353   3.086  10.898  0.1279 -0.7823  1.1154
  625MOL0     C84303   6.406   3.195  10.808 -1.2103 -0.1074 -0.6109
  625MOL0     C84304   6.426   3.274  10.721  0.9105 -0.0359 -0.0169
  625MOL0     C84305   6.393   2.548  10.764  0.3928 -0.1892  0.2526
  625MOL0     C84306   6.387   2.411  10.735 -0.7112  0.0326  0.4194
  625MOL0     C84307   6.247   2.357  10.697  0.5704 -0.3175 -0.4127
  625MOL0     H84308   6.415   1.922  10.983 -0.0142 -0.6502  0.0060
  625MOL0     H84309   6.350   1.687  10.954  0.2183  1.8103  1.8652
  625MOL0     H84310   6.100   1.544  10.827 -1.6514 -0.4683 -0.0681
  625MOL0     H84311   6.068   1.610  10.673 -1.9174 -1.0720  0.2150
  625MOL0     H84312   6.122   1.327  10.738  0.3650 -0.3086  0.5000
  625MOL0     H84313   6.162   1.364  10.580  2.0564 -2.8434  1.7546
  625MOL0     H84314   5.931   1.325  10.538  0.4509 -1.4375  1.5433
  625MOL0     H84315   5.922   1.495  10.553  1.4242  0.6531 -1.4747
  625MOL0     H84316   5.866   1.312  10.791 -2.6852  0.0622 -0.5054
  625MOL0     H84317   5.852   1.497  10.772 -0.8374  1.7036  0.5805
  625MOL0     H84318   5.630   1.395  10.745 -5.2288 -2.0009 -4.7246
  625MOL0     H84319   5.691   1.450  10.587  2.3704 -0.8735 -1.0886
  625MOL0     H84320   5.738   1.190  10.556 -2.0374  1.1320 -2.0642
  625MOL0     H84321   5.692   1.172  10.729 -1.2340  2.0913  0.7495
  625MOL0     H84322   5.499   1.317  10.558  1.4678  0.3104 -0.2840
  625MOL0     H84323   5.474   1.221  10.702  1.3012  3.2162  0.9154
  625MOL0     H84324   5.399   1.118  10.491  0.8331  0.4897 -2.1118
  625MOL0     H84325   5.575   1.109  10.446 -1.3242 -0.6577 -1.4264
  625MOL0     H84326   5.643   0.859  10.474 -0.3703  0.1750  0.8763
  625MOL0     H84327   5.635   0.605  10.763  0.2957  1.6817  0.2840
  625MOL0     H84328   5.548   0.571  10.608  0.2050 -0.8710  0.6686
  625MOL0     H84329   5.731   0.631  10.485 -0.1397 -1.3545  0.9524
  625MOL0     H84330   5.828   0.694  10.625 -0.1092 -0.0623  2.1352
  625MOL0     H84331   5.853   0.478  10.712 -0.6013 -2.0729 -0.6297
  625MOL0     H84332   5.908   0.499  10.534 -1.2350 -1.3772 -2.0268
  625MOL0     H84333   5.639   0.365  10.639 -0.9649  1.7812 -1.5993
  625MOL0     H84334   5.780   0.274  10.574 -0.0199  0.1308 -0.1861
  625MOL0     H84335   5.470   0.474  10.318 -1.6460  0.3179  2.9790
  625MOL0     H84336   5.263   0.365  10.285  0.2805  1.8150  0.9240
  625MOL0     H84337   4.932   0.348  10.270 -1.1123  0.5610 -0.9633
  625MOL0     H84338   4.695   0.309  10.245 -1.5108 -1.8529 -4.1379
  625MOL0     H84339   4.404  -0.031  10.230  1.1145  1.8673 -0.5918
  625MOL0     H84340   4.554  -0.116  10.215 -2.8340  0.4523 -3.5110
  625MOL0     H84341   4.438  -0.212  10.413  2.2045 -0.6340  2.3898
  625MOL0     H84342   4.571  -0.121  10.466 -0.6064 -2.1006 -0.7193
  625MOL0     H84343   4.402   0.074  10.521 -0.4162  0.2885 -1.7437
  625MOL0     H84344   4.275  -0.031  10.455 -1.5480  1.3292  1.6350
  625MOL0     H84345   4.439  -0.158  10.664 -2.1841 -1.0636  1.2327
  625MOL0     H84346   4.284  -0.201  10.589 -1.9542  1.1625 -0.4849
  625MOL0     H84347   4.245  -0.091  10.818 -3.0808 -2.2273 -1.1153
  625MOL0     H84348   4.163  -0.055  10.661 -0.3669  0.2128  1.0217
  625MOL0     H84349   4.274   0.162  10.667  0.8672 -2.5802 -2.2917
  625MOL0     H84350   4.220   0.122  10.833 -2.2917  0.8902 -2.3513
  625MOL0     H84351   4.502   0.109  10.712 -1.4237 -0.9218 -1.2777
  625MOL0     H84352   4.483   0.049  10.882  0.2876  1.3298  1.2629
  625MOL0     H84353   4.563   0.287  10.879 -0.2590 -0.2791  0.2639
  625MOL0     H84354   4.422   0.337  10.786 -2.0239 -1.7735 -0.3793
  625MOL0     H84355   4.737  -0.115  10.313 -1.9565  1.2123 -0.2435
  625MOL0     H84356   4.993  -0.090  10.275  2.9323  0.5993 -1.2624
  625MOL0     H84357   5.438  -0.007  10.422 -0.3920 -0.1544 -0.4497
  625MOL0     H84358   5.652   0.116  10.471  0.2490 -0.8743 -1.4768
  625MOL0     H84359   6.250   1.770  10.547  1.5071 -0.1220 -0.8848
  625MOL0     H84360   6.285   2.025  10.594 -2.6405  1.9961  1.3812
  625MOL0     H84361   6.718   2.324  10.746  0.4981 -0.0953 -5.2620
  625MOL0     H84362   6.723   2.574  10.813 -0.5691  1.2800  1.1491
  625MOL0     H84363   6.713   2.796  10.839 -0.0021  2.5894 -1.2535
  625MOL0     H84364   6.618   2.784  10.994 -1.0832  1.0826  0.2616
  625MOL0     H84365   6.543   2.968  10.772  1.7583 -1.8421 -0.5775
  625MOL0     H84366   6.657   3.030  10.885 -1.2030  1.9836  2.9852
  625MOL0     H84367   6.501   3.082  11.048 -0.7217 -1.8055  1.5246
  625MOL0     H84368   6.427   2.931  11.024  2.4038 -0.5042  1.1586
  625MOL0     H84369   6.289   3.022  10.836 -0.3113  0.3509  0.3604
  625MOL0     H84370   6.288   3.132  10.973  0.1781  2.1057 -0.4403
  625MOL0     H84371   6.467   3.348  10.654  1.1693 -0.6465 -0.5538
  625MOL0     H84372   6.305   2.612  10.765  1.2531  1.0707  2.5791
  625MOL0     H84373   6.180   2.434  10.657  0.3384 -0.5296 -0.4319
  625MOL0     H84374   6.255   2.269  10.633 -2.3195 -0.4079 -0.7727
  625MOL0     H84375   6.201   2.306  10.783  1.5307 -0.0651  0.2646
  626MOL0     O84376   8.511   4.875   2.884  0.8743  0.2207  0.4171
  626MOL0     C84377   8.577   4.980   2.903  0.0777 -0.7797  0.1451
  626MOL0     O84378   8.605   5.051   3.023 -0.4950  0.0362  0.4053
  626MOL0     C84379   8.575   4.996   3.138 -0.4206  0.0182 -0.3395
  626MOL0     C84380   8.607   4.861   3.165  0.1053 -0.6303  0.1448
  626MOL0     C84381   8.591   4.813   3.296 -0.5181  0.1413  1.3116
  626MOL0     C84382   8.526   4.891   3.388  0.5754  1.1081 -0.4136
  626MOL0     O84383   8.486   4.840   3.512 -0.4571 -0.3258 -0.3518
  626MOL0     C84384   8.514   4.707   3.558  0.1985  0.2921 -0.1444
  626MOL0     C84385   8.461   4.701   3.701  0.1683 -0.4833  0.2577
  626MOL0     C84386   8.447   4.551   3.738 -0.3972 -1.2337  0.5663
  626MOL0     C84387   8.393   4.557   3.881 -0.6322 -1.1063 -0.1316
  626MOL0     C84388   8.419   4.432   3.955  0.5443  0.6339  0.1244
  626MOL0     C84389   8.364   4.451   4.099  0.2717  0.4652  0.0722
  626MOL0     C84390   8.348   4.323   4.181  0.5225 -0.0836  0.1149
  626MOL0     C84391   8.485   4.263   4.219 -0.0790 -0.7776 -0.7159
  626MOL0     N84392   8.479   4.120   4.271 -0.3537 -0.7579  0.3232
  626MOL0     C84393   8.419   4.066   4.378  0.0566 -0.0410  0.5047
  626MOL0     C84394   8.406   3.930   4.352 -0.5956 -0.2741 -0.3242
  626MOL0     C84395   8.345   3.843   4.446 -0.2965  0.1199 -0.0832
  626MOL0     C84396   8.366   3.879   4.594 -1.4328 -0.2913  0.0494
  626MOL0     C84397   8.515   3.869   4.633  0.2842 -0.0922 -0.1114
  626MOL0     C84398   8.530   3.882   4.782 -0.1428 -0.2104  0.3321
  626MOL0     O84399   8.662   3.939   4.809  0.7991 -0.4087 -0.2556
  626MOL0     C84400   8.707   3.935   4.941  0.1025 -0.0653  0.5977
  626MOL0     C84401   8.821   4.014   4.948  0.2707  0.5896 -0.5869
  626MOL0     C84402   8.885   4.028   5.071 -0.2162  0.5674 -0.0268
  626MOL0     C84403   8.842   3.962   5.182 -0.1324 -0.1977  0.2396
  626MOL0     C84404   8.911   3.976   5.306 -0.2307  0.0897  0.8280
  626MOL0     O84405   8.960   4.100   5.338  0.4698 -0.1987 -0.5465
  626MOL0     C84406   9.030   4.094   5.449  0.6573 -0.0364 -0.3417
  626MOL0     C84407   9.158   4.048   5.441  0.2762  0.2729  0.7185
  626MOL0     C84408   9.231   4.039   5.562 -0.2364  0.2533  0.8866
  626MOL0     C84409   9.177   4.070   5.685  0.6607 -0.2911 -0.0346
  626MOL0     O84410   9.250   4.068   5.806 -0.1738  0.9018 -0.0176
  626MOL0     C84411   9.384   4.015   5.823 -0.3367  0.8340  0.7058
  626MOL0     C84412   9.470   4.113   5.907  0.0234 -0.6598  1.0254
  626MOL0     C84413   9.407   4.119   6.051  0.0877 -0.5422  0.0638
  626MOL0     C84414   9.483   4.209   6.142  0.5250  0.5689 -0.6811
  626MOL0     C84415   9.437   4.238   6.278  0.1410 -0.2335  0.5222
  626MOL0     C84416   9.543   4.303   6.367  0.6364  0.4266  0.3122
  626MOL0     C84417   9.486   4.303   6.513 -0.5962 -0.1485  0.0136
  626MOL0     C84418   9.522   4.169   6.581 -0.3721  0.3691 -0.0619
  626MOL0    Cl84419   9.692   4.149   6.632  0.3330  0.2244 -0.5970
  626MOL0     C84420   9.052   4.131   5.690 -1.0835 -0.0555  0.2413
  626MOL0     C84421   8.978   4.141   5.573  0.2666  0.7724 -0.5279
  626MOL0     O84422   8.922   3.881   5.382 -0.6657 -1.2434  0.1051
  626MOL0     C84423   8.729   3.883   5.170  0.4407  0.8722  0.1810
  626MOL0     C84424   8.669   3.859   5.050  0.3492  0.0425  0.4836
  626MOL0     N84425   8.474   3.906   4.239  0.0106 -0.1860 -0.3703
  626MOL0     N84426   8.519   4.016   4.191  0.2749 -0.9098  1.0422
  626MOL0     C84427   8.475   5.015   3.363 -0.2356  1.2900  0.0911
  626MOL0     C84428   8.494   5.065   3.231  0.0983  0.9101  0.1321
  626MOL0     C84429   8.633   5.038   2.775 -0.2460  0.0292 -0.6649
  626MOL0     C84430   8.748   5.122   2.775  0.4533 -0.4677  0.0764
  626MOL0     C84431   8.809   5.168   2.659 -0.3429 -0.1421 -0.3207
  626MOL0     C84432   8.745   5.157   2.535  0.1441  0.3463 -0.1441
  626MOL0     O84433   8.790   5.225   2.418 -0.9752  0.0943 -0.0100
  626MOL0     C84434   8.824   5.135   2.313 -0.0092  0.2617 -0.5334
  626MOL0     C84435   8.959   5.176   2.245  0.4218  0.3591 -0.1622
  626MOL0     C84436   9.003   5.049   2.167 -0.5536  0.4639  0.4235
  626MOL0     C84437   9.141   5.063   2.100  0.3263  0.7341 -0.8129
  626MOL0     C84438   9.141   5.183   2.010 -1.3139 -0.3453  0.0626
  626MOL0     C84439   9.169   5.282   1.949  0.2459 -0.1225 -0.8781
  626MOL0     C84440   8.633   5.075   2.534 -1.0461  0.0510  0.5164
  626MOL0     C84441   8.573   5.023   2.647  0.0289  0.3376 -0.6345
  626MOL0     C84442   8.454   4.945   2.615  0.0467 -0.0432  0.4330
  626MOL0     H84443   8.657   4.800   3.091  0.4258  1.0289 -1.0532
  626MOL0     H84444   8.635   4.717   3.322 -0.7313 -0.4662 -0.4495
  626MOL0     H84445   8.450   4.641   3.499  0.1274  1.1598 -1.0711
  626MOL0     H84446   8.618   4.678   3.541  0.2085  0.1860  0.1054
  626MOL0     H84447   8.362   4.748   3.708  1.9271  3.7951 -0.5547
  626MOL0     H84448   8.528   4.752   3.770  1.4675 -1.6453 -0.0928
  626MOL0     H84449   8.542   4.497   3.735  2.8154  3.7215  0.2061
  626MOL0     H84450   8.370   4.517   3.669 -2.5252 -0.5979  2.4924
  626MOL0     H84451   8.432   4.645   3.934  0.2884 -1.5572 -0.0414
  626MOL0     H84452   8.285   4.576   3.874 -0.5180 -0.4739 -0.2997
  626MOL0     H84453   8.369   4.347   3.908 -2.4111  1.0342  2.2686
  626MOL0     H84454   8.528   4.426   3.957  0.5530 -3.2079 -2.1138
  626MOL0     H84455   8.429   4.521   4.151  0.6889 -0.2853  0.5814
  626MOL0     H84456   8.262   4.488   4.087  0.4325  0.2284 -2.6628
  626MOL0     H84457   8.306   4.238   4.126  0.6234 -1.2728  1.7793
  626MOL0     H84458   8.279   4.337   4.265  0.7144 -0.0583  0.2679
  626MOL0     H84459   8.552   4.256   4.132  3.1396 -0.3123  1.5705
  626MOL0     H84460   8.539   4.322   4.293 -0.8657  2.3349 -2.4379
  626MOL0     H84461   8.370   4.115   4.461 -3.3190 -1.6972 -0.3346
  626MOL0     H84462   8.237   3.843   4.430 -0.0712 -1.7782 -2.0087
  626MOL0     H84463   8.381   3.740   4.439  0.2041  0.4144 -4.2653
  626MOL0     H84464   8.327   3.977   4.623 -1.3238 -1.4665  4.8973
  626MOL0     H84465   8.310   3.812   4.659 -1.4487  1.0909  1.5062
  626MOL0     H84466   8.565   3.960   4.598 -1.0771  0.3306 -1.0536
  626MOL0     H84467   8.551   3.777   4.586 -0.8077 -1.7866  2.1709
  626MOL0     H84468   8.525   3.776   4.811 -0.0761 -0.7186 -1.4108
  626MOL0     H84469   8.455   3.943   4.832  0.1337  1.1116 -0.7875
  626MOL0     H84470   8.863   4.073   4.866 -0.4190  1.8760 -0.0555
  626MOL0     H84471   8.970   4.095   5.086  2.0775 -1.9601 -0.9072
  626MOL0     H84472   9.192   4.013   5.344 -1.5027 -3.2956  1.2019
  626MOL0     H84473   9.337   4.018   5.552 -0.3114  0.3028 -0.0716
  626MOL0     H84474   9.374   3.918   5.872  0.3081 -0.6906 -2.0151
  626MOL0     H84475   9.431   4.001   5.725  0.1804 -1.7446  1.2544
  626MOL0     H84476   9.570   4.069   5.909 -1.3030 -3.9939  1.4882
  626MOL0     H84477   9.474   4.210   5.857 -0.4500 -0.7092  0.8863
  626MOL0     H84478   9.310   4.171   6.054  0.6575  0.5233  1.0192
  626MOL0     H84479   9.411   4.015   6.082  0.3093 -0.6842 -0.4382
  626MOL0     H84480   9.509   4.304   6.094 -2.2137  1.2513 -0.9390
  626MOL0     H84481   9.582   4.164   6.156 -0.3124 -0.8546  1.1500
  626MOL0     H84482   9.395   4.146   6.321  0.1967 -0.0535  0.9622
  626MOL0     H84483   9.351   4.306   6.266  0.8857  0.4650 -1.1224
  626MOL0     H84484   9.641   4.255   6.361  0.3497 -0.1094 -0.1463
  626MOL0     H84485   9.562   4.404   6.330 -0.3688  0.3663 -0.4082
  626MOL0     H84486   9.377   4.316   6.508 -0.5419 -0.2177 -2.7584
  626MOL0     H84487   9.553   4.365   6.574 -0.9365  2.2877 -1.9118
  626MOL0     H84488   9.464   4.160   6.673 -2.8546  0.3000 -1.5464
  626MOL0     H84489   9.486   4.085   6.521  0.3146 -0.0467  0.0849
  626MOL0     H84490   8.996   4.158   5.779 -1.6758 -0.2226 -0.0745
  626MOL0     H84491   8.884   4.194   5.581  2.5131  4.9331  1.4415
  626MOL0     H84492   8.692   3.839   5.262  0.4050 -0.4868 -0.4514
  626MOL0     H84493   8.580   3.796   5.049 -0.0098  0.5511 -0.0798
  626MOL0     H84494   8.426   5.071   3.442 -2.1670  1.0113 -0.8520
  626MOL0     H84495   8.451   5.158   3.197 -1.4424  0.7635  1.5240
  626MOL0     H84496   8.808   5.142   2.862  2.3873  1.2233 -1.5385
  626MOL0     H84497   8.904   5.219   2.665  0.1687 -0.4010 -3.7848
  626MOL0     H84498   8.748   5.133   2.234  0.1762 -0.3805 -0.7002
  626MOL0     H84499   8.835   5.036   2.358 -0.8244  1.1045  1.6570
  626MOL0     H84500   9.019   5.211   2.329 -1.7737 -0.4982  1.8909
  626MOL0     H84501   8.960   5.262   2.177 -0.4879 -2.0531 -3.5059
  626MOL0     H84502   8.931   5.029   2.087 -1.9401  2.0730  1.2093
  626MOL0     H84503   9.006   4.959   2.229  1.3048 -0.2920 -0.6645
  626MOL0     H84504   9.230   5.050   2.162  1.0116  0.0435 -1.9039
  626MOL0     H84505   9.147   4.965   2.051 -1.0592 -0.3321  1.0084
  626MOL0     H84506   9.194   5.368   1.890 -2.2940  1.7413  0.5669
  626MOL0     H84507   8.577   5.061   2.442 -0.7560  1.1951  0.1490
  626MOL0     H84508   8.372   4.967   2.683  0.0406  0.8588  0.1419
  626MOL0     H84509   8.417   4.956   2.513  1.5637 -3.6418 -0.6851
  626MOL0     H84510   8.471   4.838   2.628 -1.5857 -0.1180  2.3960
  627MOL0     O84511   3.616  10.182   0.066 -0.4731 -0.4606  0.1675
  627MOL0     C84512   3.696  10.098   0.020  0.0124  0.0554 -0.1541
  627MOL0     O84513   3.666   9.982  -0.048  0.5230 -0.1427 -0.6312
  627MOL0     C84514   3.537   9.986  -0.086 -0.1827  0.2676  0.4117
  627MOL0     C84515   3.489  10.085  -0.168  0.6707 -0.0158  0.5232
  627MOL0     C84516   3.356  10.067  -0.206  1.0735 -0.1765 -0.4373
  627MOL0     C84517   3.267   9.966  -0.166  0.0027 -0.0826 -0.8661
  627MOL0     O84518   3.142   9.978  -0.215  0.9004  0.5152  0.1673
  627MOL0     C84519   3.041   9.943  -0.117 -0.1039 -0.6369 -1.0214
  627MOL0     C84520   2.937   9.842  -0.171 -0.0107  0.0792  0.2519
  627MOL0     C84521   2.818   9.832  -0.069 -0.5856 -1.1832 -1.4913
  627MOL0     C84522   2.764   9.695  -0.053 -0.1349  0.7198  1.1484
  627MOL0     C84523   2.724   9.669   0.087  0.1240 -0.7445 -0.2974
  627MOL0     C84524   2.610   9.762   0.151  0.9764 -0.1135  0.3080
  627MOL0     C84525   2.469   9.704   0.135  0.3570  0.5251 -0.2465
  627MOL0     C84526   2.365   9.788   0.203  0.2672 -0.6514 -0.1148
  627MOL0     N84527   2.332   9.902   0.117  0.3200  0.8533 -0.2828
  627MOL0     C84528   2.249  10.000   0.167 -0.1052  0.2667 -0.2794
  627MOL0     C84529   2.232  10.085   0.067 -0.0221 -0.5231  0.7725
  627MOL0     C84530   2.154  10.213   0.068  0.2957  0.7140  0.0496
  627MOL0     C84531   2.235  10.331   0.109 -0.7836 -0.5666 -0.4243
  627MOL0     C84532   2.308  10.310   0.246  0.7060 -0.1570  0.4410
  627MOL0     C84533   2.398  10.431   0.284 -0.0601  0.8910 -0.5491
  627MOL0     O84534   2.507  10.428   0.195 -0.1481  0.2085  0.6794
  627MOL0     C84535   2.624  10.363   0.219  0.6559  0.8272 -0.1944
  627MOL0     C84536   2.709  10.414   0.321 -0.2422 -0.0008  0.1953
  627MOL0     C84537   2.809  10.331   0.366  0.6285 -0.0067  0.5213
  627MOL0     C84538   2.848  10.218   0.299 -0.0394  0.1252  0.0277
  627MOL0     C84539   2.966  10.145   0.343 -0.1044  0.2277  0.0400
  627MOL0     O84540   3.011  10.048   0.258 -0.6369  0.5412 -0.3042
  627MOL0     C84541   3.126   9.983   0.292  0.4529  0.8010 -0.5762
  627MOL0     C84542   3.250  10.021   0.245  0.2902  0.1895  0.0728
  627MOL0     C84543   3.365   9.947   0.254 -0.7574 -0.3304 -0.5808
  627MOL0     C84544   3.358   9.832   0.330 -0.0510 -0.5077 -0.2511
  627MOL0     O84545   3.482   9.767   0.364  0.6368  0.1171 -0.1920
  627MOL0     C84546   3.497   9.624   0.355 -0.3539 -0.8298  0.5511
  627MOL0     C84547   3.643   9.588   0.345 -0.0374 -0.6726  0.2926
  627MOL0     C84548   3.704   9.667   0.215  0.3903  0.8406  0.1793
  627MOL0     C84549   3.842   9.618   0.193 -0.9707  0.0998  0.2705
  627MOL0     C84550   3.925   9.638   0.324 -0.2680  0.7269 -0.8977
  627MOL0     C84551   4.083   9.615   0.301  1.3510 -0.1513 -0.1284
  627MOL0     C84552   4.112   9.471   0.258  1.3669 -0.4868  0.1673
  627MOL0     C84553   4.248   9.433   0.319  0.2051  0.2631 -0.1532
  627MOL0    Cl84554   4.241   9.423   0.495 -0.0759  0.2339  0.5809
  627MOL0     C84555   3.237   9.785   0.386  1.2641  0.1565 -0.3279
  627MOL0     C84556   3.117   9.858   0.357 -0.8137 -0.3466 -0.9608
  627MOL0     O84557   3.020  10.169   0.451 -0.5632 -0.5354 -0.4487
  627MOL0     C84558   2.769  10.166   0.200  0.9448  0.9837 -0.0112
  627MOL0     C84559   2.650  10.240   0.165 -0.5340  0.4284 -0.9959
  627MOL0     N84560   2.300  10.031  -0.040 -1.2019  0.4194  0.4704
  627MOL0     N84561   2.361   9.922  -0.013  0.3929 -0.7693  0.2150
  627MOL0     C84562   3.323   9.852  -0.095  0.1481 -0.7054 -0.5649
  627MOL0     C84563   3.461   9.874  -0.042  0.2254  0.3556 -0.7336
  627MOL0     C84564   3.835  10.144   0.027 -0.1170  0.2214  0.7187
  627MOL0     C84565   3.909  10.165  -0.094 -0.4478  0.2347 -0.0375
  627MOL0     C84566   4.022  10.240  -0.091 -0.7121  0.1550 -0.9292
  627MOL0     C84567   4.083  10.280   0.025  0.4677  0.4181  0.7484
  627MOL0     O84568   4.201  10.340   0.020  0.3105 -0.5040 -0.3267
  627MOL0     C84569   4.268  10.415   0.122 -0.1796  0.7435  0.0720
  627MOL0     C84570   4.373  10.509   0.056  0.4522 -0.6856 -0.4810
  627MOL0     C84571   4.414  10.626   0.147 -0.0530  0.0882  0.9024
  627MOL0     C84572   4.484  10.603   0.285 -0.0081 -0.3680  0.0261
  627MOL0     C84573   4.609  10.526   0.280  0.1658  0.2180 -0.7842
  627MOL0     C84574   4.719  10.466   0.280  0.0300  0.0123 -0.3468
  627MOL0     C84575   4.016  10.247   0.143 -0.9425  0.7470  0.1764
  627MOL0     C84576   3.892  10.182   0.146 -1.7264 -0.1821  0.8431
  627MOL0     C84577   3.834  10.155   0.278  0.4165  0.0431 -1.0486
  627MOL0     H84578   3.552  10.163  -0.210 -0.4495 -1.1079 -3.6386
  627MOL0     H84579   3.309  10.142  -0.269  1.4342 -0.7811 -1.4555
  627MOL0     H84580   3.082   9.902  -0.024 -1.2480 -2.4122 -1.2531
  627MOL0     H84581   2.999  10.039  -0.086  4.5044  0.6575  2.3970
  627MOL0     H84582   3.006   9.759  -0.186  2.2517  1.8125  0.6304
  627MOL0     H84583   2.900   9.887  -0.264  2.9532  0.6921 -0.7266
  627MOL0     H84584   2.733   9.894  -0.098  1.5500  3.1659  0.6219
  627MOL0     H84585   2.844   9.862   0.033 -2.9084 -2.8910 -0.3022
  627MOL0     H84586   2.674   9.691  -0.115 -0.1155  2.2216  0.9971
  627MOL0     H84587   2.842   9.627  -0.087  1.0395  1.8009  1.6128
  627MOL0     H84588   2.681   9.569   0.076 -2.6736  0.6097 -3.0991
  627MOL0     H84589   2.808   9.652   0.155  1.1446  1.3069 -0.9436
  627MOL0     H84590   2.623   9.777   0.258  3.3674  1.0023 -0.0783
  627MOL0     H84591   2.621   9.861   0.107 -0.1554  0.2111  0.7224
  627MOL0     H84592   2.463   9.602   0.175  1.9687  0.9040  1.0388
  627MOL0     H84593   2.450   9.687   0.028 -4.4291  1.8624  0.1578
  627MOL0     H84594   2.273   9.732   0.218 -1.4758  1.1199 -3.1229
  627MOL0     H84595   2.399   9.814   0.304 -0.0601  1.2205 -0.4459
  627MOL0     H84596   2.212   9.999   0.268 -1.6205  0.2964 -0.8123
  627MOL0     H84597   2.111  10.237  -0.030 -2.3818  0.7399  1.1561
  627MOL0     H84598   2.072  10.194   0.138  2.1886 -0.7934  2.0022
  627MOL0     H84599   2.313  10.346   0.033 -1.5150  2.0377 -0.7832
  627MOL0     H84600   2.171  10.420   0.115 -1.0621 -0.6128 -2.1058
  627MOL0     H84601   2.362  10.217   0.267  0.5305  0.0695  2.0333
  627MOL0     H84602   2.234  10.309   0.328  1.3190 -0.2732  1.0001
  627MOL0     H84603   2.440  10.418   0.384 -1.9275 -0.5303  0.1116
  627MOL0     H84604   2.348  10.528   0.286  1.0602  1.4859 -0.7126
  627MOL0     H84605   2.689  10.510   0.367 -0.5851 -1.2380  2.8111
  627MOL0     H84606   2.871  10.359   0.451  1.6517  0.6906 -0.4193
  627MOL0     H84607   3.259  10.109   0.183  3.4023 -0.4685 -0.5725
  627MOL0     H84608   3.464   9.978   0.222  0.3708 -2.0949  0.9833
  627MOL0     H84609   3.463   9.570   0.443  0.4519 -2.8471 -0.3260
  627MOL0     H84610   3.435   9.585   0.274  0.2015 -2.0841  0.7057
  627MOL0     H84611   3.696   9.610   0.439 -0.5721 -2.4776  1.0605
  627MOL0     H84612   3.650   9.479   0.340  0.4474 -0.8499  3.1900
  627MOL0     H84613   3.641   9.641   0.129 -0.0799 -1.7588  1.2174
  627MOL0     H84614   3.711   9.776   0.224  2.3377  0.7601 -0.0218
  627MOL0     H84615   3.885   9.663   0.103  0.3751 -3.5613 -1.1183
  627MOL0     H84616   3.832   9.512   0.166 -3.1854  0.0349  1.0952
  627MOL0     H84617   3.892   9.571   0.404 -3.0526 -0.4464 -2.8753
  627MOL0     H84618   3.898   9.736   0.364 -1.4481 -0.4719  1.4203
  627MOL0     H84619   4.109   9.688   0.224 -2.3947 -2.1630 -3.6829
  627MOL0     H84620   4.131   9.631   0.398  2.1780 -1.0627 -0.3714
  627MOL0     H84621   4.125   9.464   0.150  0.6272 -2.7778  0.1655
  627MOL0     H84622   4.029   9.407   0.289  0.9664  0.3736  0.9257
  627MOL0     H84623   4.279   9.335   0.281 -0.2241 -1.2984  3.1159
  627MOL0     H84624   4.327   9.501   0.286  2.1293 -1.5010  0.6195
  627MOL0     H84625   3.233   9.702   0.456 -2.9480  1.9919  1.9376
  627MOL0     H84626   3.021   9.817   0.386  0.6595 -2.1834  1.6888
  627MOL0     H84627   2.786  10.078   0.139 -2.2531 -0.1379  0.4850
  627MOL0     H84628   2.577  10.191   0.102  1.2427  0.3166 -3.0799
  627MOL0     H84629   3.246   9.779  -0.073 -0.1201 -1.2318 -2.9276
  627MOL0     H84630   3.508   9.802   0.023 -1.1963 -0.9383 -1.0782
  627MOL0     H84631   3.870  10.147  -0.193 -1.6063 -0.0420  0.4462
  627MOL0     H84632   4.073  10.269  -0.182 -0.3772  0.5130 -0.6339
  627MOL0     H84633   4.318  10.341   0.184 -0.3888 -0.9283 -1.6718
  627MOL0     H84634   4.204  10.478   0.184 -0.8303 -0.4957  0.7038
  627MOL0     H84635   4.323  10.551  -0.032  1.8544 -1.8877 -1.9114
  627MOL0     H84636   4.467  10.468   0.018  2.2912  2.9682 -0.4074
  627MOL0     H84637   4.321  10.682   0.162 -0.9978 -1.0083 -0.6184
  627MOL0     H84638   4.474  10.692   0.083  1.0371  0.3090  2.0941
  627MOL0     H84639   4.515  10.700   0.326  0.2392 -0.8625  1.0275
  627MOL0     H84640   4.415  10.556   0.355 -0.5477  0.5759  0.1474
  627MOL0     H84641   4.817  10.421   0.282  0.7838  1.5082 -1.5765
  627MOL0     H84642   4.053  10.299   0.231 -1.9709  0.0411  1.0470
  627MOL0     H84643   3.805  10.049   0.282  1.2501 -0.2695 -2.5298
  627MOL0     H84644   3.906  10.163   0.359  0.2710  2.9142 -1.1003
  627MOL0     H84645   3.752  10.222   0.304  2.4762  1.7372  1.5149
  628MOL0     O84646   0.335   7.693   1.117 -0.2968  0.4340 -0.1100
  628MOL0     C84647   0.305   7.747   1.010  0.2957  0.3223 -0.2190
  628MOL0     O84648   0.386   7.805   0.911  0.9930  1.4077 -0.4426
  628MOL0     C84649   0.514   7.781   0.916 -0.1258 -1.1969  1.0637
  628MOL0     C84650   0.596   7.792   1.025  0.5702 -1.2852  0.1072
  628MOL0     C84651   0.725   7.748   1.018 -0.4535 -1.0958  1.6669
  628MOL0     C84652   0.782   7.713   0.899 -0.4233 -0.3675  0.2744
  628MOL0     O84653   0.913   7.684   0.902  0.3226  0.0502  0.2455
  628MOL0     C84654   0.951   7.565   0.824 -0.4013  0.1648 -0.0896
  628MOL0     C84655   1.098   7.541   0.837 -0.4742  0.6205  0.1833
  628MOL0     C84656   1.180   7.663   0.782 -1.6160  0.4059 -1.2121
  628MOL0     C84657   1.333   7.628   0.802  0.3418 -0.1237 -0.2821
  628MOL0     C84658   1.426   7.740   0.754  0.5844  1.2450 -0.4462
  628MOL0     C84659   1.446   7.748   0.610 -0.9611  0.1381  0.1543
  628MOL0     C84660   1.580   7.821   0.589  0.0357  0.2968  1.0215
  628MOL0     C84661   1.599   7.831   0.434 -0.5923  0.1075  0.9344
  628MOL0     N84662   1.702   7.936   0.412  0.2254  1.2620 -0.1216
  628MOL0     C84663   1.833   7.908   0.426 -0.6330 -0.2312 -0.4193
  628MOL0     C84664   1.888   8.029   0.423  0.4220  0.1805  0.1174
  628MOL0     C84665   2.026   8.082   0.438  1.2681 -0.0125  0.5466
  628MOL0     C84666   2.066   8.119   0.582  0.1250  1.1867  0.1755
  628MOL0     C84667   2.195   8.203   0.577 -0.5132  0.8755 -0.9722
  628MOL0     C84668   2.230   8.268   0.723  0.0467  0.4672  0.6510
  628MOL0     O84669   2.312   8.170   0.786  0.4568 -0.3330 -0.9332
  628MOL0     C84670   2.329   8.176   0.926  0.0380 -0.9317  0.1338
  628MOL0     C84671   2.382   8.063   0.998  0.3460 -0.4379 -0.8758
  628MOL0     C84672   2.385   8.055   1.141  0.4489 -0.2053  0.1432
  628MOL0     C84673   2.328   8.152   1.217 -0.6013 -0.0108  0.4580
  628MOL0     C84674   2.330   8.151   1.368  0.2854  0.0284  0.1221
  628MOL0     O84675   2.451   8.111   1.421 -0.3209  0.5003  0.4588
  628MOL0     C84676   2.471   8.082   1.545 -0.8667 -0.7619 -1.4207
  628MOL0     C84677   2.604   8.076   1.590 -0.6073  0.7661  0.1548
  628MOL0     C84678   2.630   8.044   1.722 -0.4303 -0.4388 -0.6787
  628MOL0     C84679   2.529   8.020   1.814 -0.2740 -0.2199 -0.3730
  628MOL0     O84680   2.563   8.000   1.949  0.2515  0.0714 -0.1595
  628MOL0     C84681   2.512   8.099   2.037  0.7343  0.8506 -0.9247
  628MOL0     C84682   2.563   8.104   2.176  0.7258  0.2989  0.5405
  628MOL0     C84683   2.499   8.227   2.242  0.5129 -0.2634  0.1366
  628MOL0     C84684   2.509   8.367   2.183  0.1255  0.7429 -1.0840
  628MOL0     C84685   2.646   8.411   2.147  1.2107  0.0466 -0.7061
  628MOL0     C84686   2.739   8.423   2.269  0.1861 -0.3405  0.1493
  628MOL0     C84687   2.688   8.523   2.372 -0.3537 -0.5315 -0.1567
  628MOL0     C84688   2.804   8.560   2.458  0.9031 -0.2421  0.8508
  628MOL0    Cl84689   2.920   8.441   2.532  0.1947 -0.1150  0.0238
  628MOL0     C84690   2.395   8.015   1.765 -0.0634 -0.1999 -0.6275
  628MOL0     C84691   2.360   8.046   1.637 -0.2565 -1.2793 -0.1106
  628MOL0     O84692   2.231   8.201   1.424  0.8263 -0.4298  0.6324
  628MOL0     C84693   2.278   8.271   1.148  0.7313 -0.7707 -0.0596
  628MOL0     C84694   2.285   8.287   1.005 -0.5592  0.0027 -0.1841
  628MOL0     N84695   1.789   8.125   0.397 -0.0426 -1.8373 -0.0019
  628MOL0     N84696   1.676   8.064   0.382 -0.6613  0.7803 -0.1280
  628MOL0     C84697   0.699   7.709   0.787  0.5921  0.6055  1.1145
  628MOL0     C84698   0.563   7.740   0.794 -0.3794 -0.1058 -0.4577
  628MOL0     C84699   0.170   7.788   0.998  0.3430 -0.3075  0.0726
  628MOL0     C84700   0.102   7.826   1.119 -1.2112 -1.4153 -0.1775
  628MOL0     C84701  -0.035   7.861   1.125  0.2831  0.0406 -0.6161
  628MOL0     C84702  -0.110   7.857   1.006 -0.3347  0.1041  0.1227
  628MOL0     O84703  -0.242   7.885   0.980  0.1680  0.0549  0.3899
  628MOL0     C84704  -0.316   7.932   1.089  0.3069 -0.4835 -0.0025
  628MOL0     C84705  -0.393   7.821   1.166 -0.2138 -0.6299  1.4278
  628MOL0     C84706  -0.500   7.749   1.074 -0.1142  0.1393 -0.0605
  628MOL0     C84707  -0.627   7.823   1.039  0.3230 -0.7450  0.2264
  628MOL0     C84708  -0.720   7.756   0.954  0.4263 -0.4212 -0.6954
  628MOL0     C84709  -0.795   7.704   0.878  0.6563 -0.3552 -0.1860
  628MOL0     C84710  -0.041   7.829   0.888 -0.1567 -0.0335 -0.2522
  628MOL0     C84711   0.091   7.785   0.872 -0.7164 -0.1797  0.7983
  628MOL0     C84712   0.145   7.744   0.738 -1.1841 -0.1126  0.1927
  628MOL0     H84713   0.563   7.834   1.120  3.9035  0.4938  0.6071
  628MOL0     H84714   0.797   7.732   1.098  0.5264 -1.3505  0.7618
  628MOL0     H84715   0.895   7.477   0.856 -0.0553 -0.9025 -2.2256
  628MOL0     H84716   0.929   7.575   0.717  2.0139 -1.3801 -0.8170
  628MOL0     H84717   1.128   7.441   0.806 -1.8376 -0.5610  2.4375
  628MOL0     H84718   1.114   7.532   0.945  0.7854  0.5955  0.0092
  628MOL0     H84719   1.160   7.752   0.843 -1.3735  0.1028 -0.6870
  628MOL0     H84720   1.165   7.682   0.675  4.2453 -0.8618 -2.6075
  628MOL0     H84721   1.352   7.597   0.905 -1.9240  1.7334  0.7990
  628MOL0     H84722   1.353   7.537   0.745  5.0222  1.1926 -1.1622
  628MOL0     H84723   1.393   7.830   0.807  0.4516  0.2757  1.1959
  628MOL0     H84724   1.517   7.709   0.807  2.2868  0.7675 -3.4478
  628MOL0     H84725   1.449   7.649   0.562 -2.0548  1.4828 -2.9141
  628MOL0     H84726   1.372   7.810   0.560 -0.0166  2.3254  1.2993
  628MOL0     H84727   1.671   7.777   0.630  0.5212 -1.3746 -1.5994
  628MOL0     H84728   1.577   7.926   0.622 -1.0631  0.4630  0.4473
  628MOL0     H84729   1.621   7.740   0.377 -3.1300  0.0016 -0.0012
  628MOL0     H84730   1.500   7.865   0.401 -0.7013 -1.3315 -0.3681
  628MOL0     H84731   1.882   7.816   0.456  0.3455  0.1368 -0.8546
  628MOL0     H84732   2.094   8.014   0.387 -0.2356  0.2457 -1.9663
  628MOL0     H84733   2.025   8.176   0.384 -0.3727 -1.5338 -2.3008
  628MOL0     H84734   1.982   8.167   0.633 -0.8248 -0.1365 -0.0732
  628MOL0     H84735   2.091   8.023   0.628 -3.5779 -0.3325 -0.5472
  628MOL0     H84736   2.188   8.276   0.495  1.8389 -0.5723 -2.5970
  628MOL0     H84737   2.284   8.148   0.545 -1.4653 -0.7732 -0.8882
  628MOL0     H84738   2.136   8.281   0.777 -0.5046 -0.4117 -0.0519
  628MOL0     H84739   2.294   8.355   0.709  0.9689 -0.5051 -1.9201
  628MOL0     H84740   2.439   7.985   0.949  0.7035 -1.8093  1.5460
  628MOL0     H84741   2.429   7.972   1.195 -0.4109 -1.3530 -0.8664
  628MOL0     H84742   2.689   8.105   1.528  0.9796 -0.9349  1.4437
  628MOL0     H84743   2.732   8.025   1.755 -0.3739  2.5216  1.3034
  628MOL0     H84744   2.531   8.197   1.994  0.0365  1.7828  0.7943
  628MOL0     H84745   2.404   8.082   2.042  0.6081  1.4445 -1.5344
  628MOL0     H84746   2.540   8.009   2.225 -0.2696  0.3183  0.1432
  628MOL0     H84747   2.670   8.130   2.173 -0.1716  4.8025  0.0363
  628MOL0     H84748   2.393   8.199   2.245 -0.2396  2.2263 -0.6595
  628MOL0     H84749   2.527   8.227   2.347 -1.4190  0.1038  0.7008
  628MOL0     H84750   2.469   8.443   2.250 -0.0403 -1.0562  0.9760
  628MOL0     H84751   2.452   8.363   2.090 -2.3189  2.7475  0.2371
  628MOL0     H84752   2.631   8.508   2.099  2.0658 -0.5037 -2.1177
  628MOL0     H84753   2.687   8.340   2.075  0.4955 -2.5664  1.2699
  628MOL0     H84754   2.749   8.324   2.315  1.7826 -0.0855  0.3984
  628MOL0     H84755   2.838   8.450   2.233  0.1593 -0.3609  0.0627
  628MOL0     H84756   2.612   8.471   2.431  0.4178 -3.1668 -1.3023
  628MOL0     H84757   2.642   8.612   2.328 -1.7799 -1.4406 -0.5776
  628MOL0     H84758   2.864   8.612   2.382 -2.2242 -0.1372 -1.7814
  628MOL0     H84759   2.756   8.623   2.533 -2.4849 -0.3081 -1.0592
  628MOL0     H84760   2.309   7.977   1.818 -1.6533 -0.5714 -3.3438
  628MOL0     H84761   2.255   8.034   1.611  0.1257 -1.0977 -1.9168
  628MOL0     H84762   2.236   8.357   1.199  3.6616  0.9706 -0.3844
  628MOL0     H84763   2.262   8.381   0.956  1.9940  1.2690  0.8568
  628MOL0     H84764   0.732   7.690   0.685 -0.7121 -0.1919  0.8161
  628MOL0     H84765   0.488   7.725   0.716 -1.0946 -0.8535  0.3574
  628MOL0     H84766   0.162   7.823   1.209 -3.3857  0.9363  1.4644
  628MOL0     H84767  -0.082   7.875   1.222 -1.7645 -1.9647 -1.2326
  628MOL0     H84768  -0.380   8.010   1.045  0.8118 -0.6925 -1.1280
  628MOL0     H84769  -0.256   7.988   1.162  2.9274  0.1297 -2.4664
  628MOL0     H84770  -0.426   7.865   1.260  0.4849  2.7195  0.2606
  628MOL0     H84771  -0.323   7.744   1.200 -0.6928 -0.1326  3.7039
  628MOL0     H84772  -0.527   7.662   1.135  2.2261  0.8975  2.2447
  628MOL0     H84773  -0.450   7.717   0.982 -4.5817 -0.5870 -2.5336
  628MOL0     H84774  -0.684   7.847   1.129  1.6510 -1.7101  1.3758
  628MOL0     H84775  -0.607   7.918   0.988 -1.8893 -0.4713 -0.2039
  628MOL0     H84776  -0.876   7.654   0.828 -0.6607 -1.2564  2.6392
  628MOL0     H84777  -0.092   7.847   0.793 -0.1752 -2.9021 -0.8814
  628MOL0     H84778   0.157   7.824   0.664  0.9638  0.0840  0.6950
  628MOL0     H84779   0.242   7.692   0.741 -1.2721 -0.5030 -1.9830
  628MOL0     H84780   0.076   7.672   0.692 -0.5109 -0.6420 -0.0127
  629MOL0     O84781   1.085   9.824   6.252  0.6771 -0.4751  0.3863
  629MOL0     C84782   1.160   9.922   6.266  0.5838  0.5496  0.0902
  629MOL0     O84783   1.120  10.055   6.281  0.2323 -0.0252  0.0209
  629MOL0     C84784   0.989  10.093   6.281 -0.2165  0.3614  0.1775
  629MOL0     C84785   0.906  10.092   6.166  0.6197 -0.0819 -0.0465
  629MOL0     C84786   0.767  10.132   6.176 -0.2332  0.4548 -0.3542
  629MOL0     C84787   0.708  10.163   6.302  0.4856  0.3388  0.1965
  629MOL0     O84788   0.576  10.193   6.325 -0.1903 -0.2647 -0.4300
  629MOL0     C84789   0.508  10.284   6.237 -0.2950 -0.5645 -0.6590
  629MOL0     C84790   0.421  10.390   6.314 -0.7280  0.8870  0.9656
  629MOL0     C84791   0.487  10.470   6.416  0.9474 -0.3195 -0.0634
  629MOL0     C84792   0.624  10.527   6.387 -0.3559 -0.5680  0.3843
  629MOL0     C84793   0.634  10.624   6.269 -1.1512  0.5171  0.2795
  629MOL0     C84794   0.585  10.760   6.317 -0.2750  0.1590 -0.5604
  629MOL0     C84795   0.522  10.844   6.206 -0.0360  0.0401  0.1923
  629MOL0     C84796   0.464  10.973   6.254 -0.4000 -0.7463  0.0218
  629MOL0     N84797   0.560  11.076   6.305 -0.3252  0.0856 -0.7546
  629MOL0     C84798   0.537  11.153   6.412  0.1798 -0.4762 -0.2663
  629MOL0     C84799   0.646  11.232   6.416 -0.7823 -0.1877  1.0340
  629MOL0     C84800   0.676  11.319   6.533 -0.2004  0.1566  0.0538
  629MOL0     C84801   0.724  11.234   6.650  0.0031 -1.3818 -0.3764
  629MOL0     C84802   0.870  11.185   6.644 -0.2861 -0.0954  0.1120
  629MOL0     C84803   0.875  11.043   6.595  0.4746 -0.3677  0.9616
  629MOL0     O84804   0.875  10.956   6.710  0.1480  0.8088 -0.7145
  629MOL0     C84805   0.916  10.818   6.702  0.4874  1.2989 -0.4633
  629MOL0     C84806   0.923  10.751   6.824 -0.4919 -0.0421 -0.3714
  629MOL0     C84807   0.920  10.605   6.834  0.1458 -0.1067 -0.0829
  629MOL0     C84808   0.947  10.536   6.715  0.4606  1.0338 -0.0564
  629MOL0     C84809   0.987  10.394   6.731  1.7548  0.6794  0.2610
  629MOL0     O84810   0.998  10.335   6.854 -0.3432  0.5107 -0.1871
  629MOL0     C84811   1.056  10.213   6.853  0.3416  0.8500  0.0191
  629MOL0     C84812   1.188  10.187   6.838 -0.4895 -0.0771  0.3798
  629MOL0     C84813   1.246  10.065   6.823 -0.0406  0.2558 -0.0945
  629MOL0     C84814   1.163   9.954   6.837  0.2768 -0.0039 -0.4186
  629MOL0     O84815   1.211   9.819   6.836 -0.3622 -0.3822 -0.2721
  629MOL0     C84816   1.352   9.781   6.845 -0.2801  0.0619 -0.6651
  629MOL0     C84817   1.360   9.627   6.880 -0.8785  0.4472  0.5083
  629MOL0     C84818   1.471   9.557   6.809  0.0251 -0.3807 -0.5228
  629MOL0     C84819   1.495   9.417   6.887  0.4816 -0.3166  0.1724
  629MOL0     C84820   1.629   9.347   6.854 -0.5773 -0.3650  0.3067
  629MOL0     C84821   1.640   9.208   6.929 -0.9479  0.8152  1.0012
  629MOL0     C84822   1.745   9.117   6.853 -0.5748  0.4619  0.2521
  629MOL0     C84823   1.874   9.133   6.926 -0.4888  0.6935 -0.2125
  629MOL0    Cl84824   2.013   9.074   6.840 -0.4947 -0.2183 -0.1987
  629MOL0     C84825   1.026   9.973   6.846  0.2157  0.2194  0.5151
  629MOL0     C84826   0.977  10.098   6.860 -0.4140  0.2107  0.8287
  629MOL0     O84827   1.010  10.348   6.623 -0.5800 -0.3888  0.8548
  629MOL0     C84828   0.942  10.600   6.594  0.2757 -0.1378 -0.6460
  629MOL0     C84829   0.917  10.737   6.582 -0.9341 -0.0034 -1.6533
  629MOL0     N84830   0.725  11.201   6.308 -1.0252  0.8484 -0.2510
  629MOL0     N84831   0.678  11.096   6.240 -0.0744  0.2311 -0.2344
  629MOL0     C84832   0.801  10.155   6.415 -0.1019  0.0555 -0.1137
  629MOL0     C84833   0.931  10.121   6.401  0.7073 -0.0772  0.3106
  629MOL0     C84834   1.301   9.889   6.281 -1.0459  0.3839 -0.4773
  629MOL0     C84835   1.357   9.785   6.202 -1.1521  0.0860 -0.3228
  629MOL0     C84836   1.490   9.751   6.214 -1.2378 -0.7847  0.3607
  629MOL0     C84837   1.579   9.826   6.299 -0.6594 -0.1953 -0.2849
  629MOL0     O84838   1.716   9.806   6.302  0.2266  0.1834  0.3032
  629MOL0     C84839   1.773   9.689   6.245 -0.8118 -0.3520 -0.1967
  629MOL0     C84840   1.918   9.712   6.206 -0.1725  0.7310  0.1053
  629MOL0     C84841   1.925   9.792   6.077  0.1071  0.4996  0.3736
  629MOL0     C84842   2.069   9.799   6.020  0.2600 -0.1165 -0.0009
  629MOL0     C84843   2.150   9.903   6.096 -0.9253  0.2004  0.7407
  629MOL0     C84844   2.192  10.000   6.150 -0.2945 -0.4538 -0.1405
  629MOL0     C84845   1.528   9.933   6.381 -0.5948 -0.8118  0.2034
  629MOL0     C84846   1.390   9.954   6.374 -0.5207  0.5294 -0.0503
  629MOL0     C84847   1.336  10.061   6.468  0.5729  0.8145 -0.1724
  629MOL0     H84848   0.936  10.075   6.063 -0.0239 -0.2452 -0.2104
  629MOL0     H84849   0.704  10.145   6.088  1.1974 -1.9902 -1.8796
  629MOL0     H84850   0.575  10.338   6.170 -0.1228 -1.3697 -1.1509
  629MOL0     H84851   0.449  10.230   6.162 -1.4482  2.6500 -2.2945
  629MOL0     H84852   0.358  10.323   6.374  0.4743  0.1397  1.4232
  629MOL0     H84853   0.354  10.451   6.251 -1.4556 -2.6270 -1.9979
  629MOL0     H84854   0.511  10.410   6.504  2.1681 -0.5504 -0.5377
  629MOL0     H84855   0.415  10.548   6.446  0.7240 -1.1713  1.7666
  629MOL0     H84856   0.650  10.576   6.481  1.0778 -2.9536  1.3248
  629MOL0     H84857   0.698  10.447   6.376 -3.1127 -3.1935 -0.9088
  629MOL0     H84858   0.739  10.633   6.241 -1.7229  1.1087 -1.8373
  629MOL0     H84859   0.583  10.576   6.186  0.9079 -0.9977 -0.1864
  629MOL0     H84860   0.495  10.749   6.379 -1.8047 -0.5739 -2.8041
  629MOL0     H84861   0.664  10.818   6.367  3.4644 -2.8784 -2.4164
  629MOL0     H84862   0.440  10.788   6.161  2.2734 -3.1074 -0.4090
  629MOL0     H84863   0.600  10.866   6.132  0.8787  0.7418  1.3364
  629MOL0     H84864   0.398  11.023   6.181 -0.6298 -1.0248  0.0361
  629MOL0     H84865   0.393  10.953   6.335 -1.3751 -2.0816 -1.1168
  629MOL0     H84866   0.454  11.134   6.479  1.0851 -4.4945 -0.0171
  629MOL0     H84867   0.754  11.394   6.518  0.5297  0.4744  4.1465
  629MOL0     H84868   0.586  11.372   6.565  0.9417  2.8139 -0.8382
  629MOL0     H84869   0.709  11.277   6.750  1.6652 -3.4412  0.8559
  629MOL0     H84870   0.660  11.145   6.652 -0.1152 -1.3393 -1.7919
  629MOL0     H84871   0.933  11.194   6.733 -1.3707  5.0799  0.6321
  629MOL0     H84872   0.922  11.240   6.565 -0.9839  1.9382  1.0026
  629MOL0     H84873   0.960  11.029   6.529 -1.9817  1.0720 -2.8474
  629MOL0     H84874   0.779  11.018   6.547 -0.1229  0.3667  1.7388
  629MOL0     H84875   0.894  10.807   6.913  2.7080 -0.5466  1.1065
  629MOL0     H84876   0.917  10.541   6.922  2.8037  0.7553  0.7286
  629MOL0     H84877   1.260  10.269   6.833  0.2443 -0.7309  0.1004
  629MOL0     H84878   1.351  10.039   6.812 -1.2498 -5.3105 -1.4128
  629MOL0     H84879   1.424   9.792   6.764 -3.4303 -0.4286 -3.7682
  629MOL0     H84880   1.399   9.829   6.931 -1.0874  2.9441 -1.7378
  629MOL0     H84881   1.387   9.611   6.985  3.0512 -6.6619 -0.9030
  629MOL0     H84882   1.270   9.572   6.853 -0.2895 -1.2982  1.8530
  629MOL0     H84883   1.445   9.539   6.705  3.3886  3.0928 -2.1967
  629MOL0     H84884   1.568   9.608   6.809  0.6260 -1.2821  2.6712
  629MOL0     H84885   1.408   9.356   6.862 -0.5363  1.5240 -1.0702
  629MOL0     H84886   1.497   9.446   6.993 -1.2075  3.8473 -0.7169
  629MOL0     H84887   1.697   9.416   6.905  0.4863 -0.5758 -0.7927
  629MOL0     H84888   1.646   9.339   6.746 -0.3918 -1.9204  0.4229
  629MOL0     H84889   1.666   9.230   7.033  0.9891  0.2517  0.6736
  629MOL0     H84890   1.545   9.155   6.926 -0.1825 -0.5873  0.0689
  629MOL0     H84891   1.753   9.142   6.747  0.7636  1.2697  0.5225
  629MOL0     H84892   1.719   9.012   6.867 -1.7634  0.7644  0.4228
  629MOL0     H84893   1.889   9.239   6.948 -2.1954  0.4745  2.4381
  629MOL0     H84894   1.882   9.069   7.015  1.1496  0.5169 -0.4546
  629MOL0     H84895   0.959   9.888   6.838 -0.0189  0.5819 -5.0490
  629MOL0     H84896   0.870  10.107   6.873 -0.3433  0.0882  1.5256
  629MOL0     H84897   0.967  10.549   6.501 -0.7996 -2.2991  0.2020
  629MOL0     H84898   0.907  10.767   6.478  1.3207 -1.0046 -2.2123
  629MOL0     H84899   0.761  10.154   6.516  1.7597 -1.0078  0.6478
  629MOL0     H84900   1.007  10.123   6.478  1.7161  1.2622 -0.6802
  629MOL0     H84901   1.292   9.735   6.131 -1.8728  1.4425 -0.6670
  629MOL0     H84902   1.523   9.661   6.163 -0.9327 -0.3541 -0.2045
  629MOL0     H84903   1.726   9.663   6.150  0.0874  1.9195 -1.3327
  629MOL0     H84904   1.766   9.610   6.320  4.1232  1.5114  2.7066
  629MOL0     H84905   1.962   9.613   6.196  1.1896  1.3076  0.2056
  629MOL0     H84906   1.966   9.754   6.295  0.0831  1.2558 -0.2796
  629MOL0     H84907   1.889   9.892   6.102 -1.5772  0.5864 -2.0741
  629MOL0     H84908   1.859   9.759   5.996  1.2503 -2.4581  0.5259
  629MOL0     H84909   2.108   9.697   6.032 -0.0451 -0.3175 -0.6870
  629MOL0     H84910   2.063   9.805   5.911 -1.0663 -3.4170 -0.2494
  629MOL0     H84911   2.229  10.074   6.219 -2.5691 -1.3607  2.1926
  629MOL0     H84912   1.588   9.993   6.449  0.7606 -0.9079 -0.8671
  629MOL0     H84913   1.395  10.079   6.558 -1.3938 -1.7462  1.8195
  629MOL0     H84914   1.324  10.150   6.406 -1.0284  0.8359  0.1186
  629MOL0     H84915   1.235  10.047   6.509  1.1504 -0.6680  0.8395
  630MOL0     O84916   1.265   6.660   2.679 -0.8215  0.0327  0.1239
  630MOL0     C84917   1.282   6.546   2.726  0.9115 -0.3403  0.3309
  630MOL0     O84918   1.280   6.429   2.657  0.1988 -1.0492 -0.4239
  630MOL0     C84919   1.268   6.436   2.519 -0.8160  0.5036  1.0024
  630MOL0     C84920   1.346   6.349   2.442 -0.0059 -0.0473 -0.8333
  630MOL0     C84921   1.349   6.359   2.292 -0.5736 -0.4399 -1.2438
  630MOL0     C84922   1.244   6.428   2.226  0.5009  0.0546 -0.5751
  630MOL0     O84923   1.243   6.411   2.090  0.3139 -0.2747 -0.3336
  630MOL0     C84924   1.151   6.487   1.997  1.1207  0.8214 -0.8795
  630MOL0     C84925   1.189   6.638   1.991 -0.1941  0.9649  0.2835
  630MOL0     C84926   1.342   6.671   1.960  0.4127  0.5031 -0.0841
  630MOL0     C84927   1.379   6.619   1.825  0.2218  0.4599  0.0829
  630MOL0     C84928   1.324   6.706   1.711  0.0010 -0.9825  0.0292
  630MOL0     C84929   1.320   6.643   1.571 -0.1431  0.1691  0.4099
  630MOL0     C84930   1.453   6.563   1.527  0.2991  0.1140  1.0954
  630MOL0     C84931   1.421   6.480   1.400  0.0010 -0.6352 -0.1437
  630MOL0     N84932   1.380   6.564   1.296 -0.1363 -0.2953  0.0400
  630MOL0     C84933   1.466   6.670   1.244 -0.0522 -0.4120  0.7896
  630MOL0     C84934   1.417   6.711   1.130  0.3433 -0.7324 -0.2278
  630MOL0     C84935   1.482   6.820   1.041  0.0046 -0.0128 -0.8214
  630MOL0     C84936   1.638   6.806   1.040  0.5950  0.3249 -0.3975
  630MOL0     C84937   1.715   6.880   0.930  0.0838  0.3232 -0.7582
  630MOL0     C84938   1.698   7.029   0.926  0.6048  0.5368 -0.0591
  630MOL0     O84939   1.734   7.091   1.052 -0.3727 -0.3905 -0.1911
  630MOL0     C84940   1.693   7.215   1.074 -0.5219 -0.2985  0.5373
  630MOL0     C84941   1.624   7.301   0.987 -0.3911  1.0149  0.8692
  630MOL0     C84942   1.599   7.435   1.016  0.5782 -0.5813 -0.4640
  630MOL0     C84943   1.641   7.479   1.143 -0.1253 -0.1378 -0.5484
  630MOL0     C84944   1.652   7.625   1.167 -0.6834 -0.4509 -0.4510
  630MOL0     O84945   1.742   7.667   1.265  0.5439 -0.0909 -0.5182
  630MOL0     C84946   1.764   7.803   1.304  0.5504 -0.3811  0.0344
  630MOL0     C84947   1.683   7.916   1.266  0.6673 -0.9907 -0.2815
  630MOL0     C84948   1.713   8.046   1.306  0.6216 -0.6099 -0.3037
  630MOL0     C84949   1.797   8.056   1.419  0.5330 -1.0820 -0.6096
  630MOL0     O84950   1.788   8.175   1.488  1.0875 -0.2624 -0.3451
  630MOL0     C84951   1.808   8.174   1.637 -0.2209  0.1841  0.2399
  630MOL0     C84952   1.763   8.305   1.707 -0.8022  0.5322 -0.4143
  630MOL0     C84953   1.614   8.337   1.688  0.3242 -0.4393 -0.0532
  630MOL0     C84954   1.571   8.473   1.754  0.1623 -0.1503 -0.4415
  630MOL0     C84955   1.419   8.478   1.776  0.1292 -0.1578  1.4672
  630MOL0     C84956   1.386   8.626   1.817  0.1298 -0.6721 -0.5492
  630MOL0     C84957   1.234   8.653   1.819 -0.2008 -0.9364 -0.4558
  630MOL0     C84958   1.165   8.630   1.955  0.0608 -0.1208  0.9292
  630MOL0    Cl84959   1.255   8.515   2.060  0.1055  0.3751 -0.6350
  630MOL0     C84960   1.867   7.947   1.473  0.2034  0.8663 -1.1744
  630MOL0     C84961   1.857   7.825   1.402  0.4471  0.6430 -0.3260
  630MOL0     O84962   1.569   7.699   1.115  0.2296  1.1027  0.2046
  630MOL0     C84963   1.701   7.386   1.237  0.1673 -0.5615  0.0438
  630MOL0     C84964   1.722   7.257   1.194 -0.6720 -0.5823  0.3784
  630MOL0     N84965   1.297   6.636   1.105  0.3739 -1.0173 -0.2202
  630MOL0     N84966   1.283   6.548   1.196  0.1751  0.1238  0.2602
  630MOL0     C84967   1.153   6.505   2.306 -0.3593  1.0257  0.1760
  630MOL0     C84968   1.166   6.503   2.448 -0.6517 -0.3376 -0.3604
  630MOL0     C84969   1.318   6.547   2.873 -0.4341  0.6967  0.0313
  630MOL0     C84970   1.318   6.674   2.932 -0.6031  0.8759 -0.0600
  630MOL0     C84971   1.353   6.694   3.067 -1.1573 -0.4880 -0.4347
  630MOL0     C84972   1.386   6.590   3.149 -0.4121  0.3758  0.5424
  630MOL0     O84973   1.404   6.623   3.286  0.1977 -0.4566  0.7826
  630MOL0     C84974   1.442   6.528   3.388 -0.6297  0.6806 -0.1767
  630MOL0     C84975   1.589   6.503   3.393 -1.0949 -0.4049  0.1847
  630MOL0     C84976   1.615   6.355   3.435 -0.1059  0.8033  0.5720
  630MOL0     C84977   1.778   6.349   3.437 -0.5385  0.7545 -0.2038
  630MOL0     C84978   1.829   6.306   3.307 -0.1100  0.0698  0.6591
  630MOL0     C84979   1.855   6.284   3.188 -1.0137 -0.8258 -1.3575
  630MOL0     C84980   1.393   6.458   3.092  0.6726  0.1251  1.1559
  630MOL0     C84981   1.361   6.438   2.958  1.2920  0.2399 -0.0575
  630MOL0     C84982   1.371   6.289   2.903  1.1350 -0.4587 -0.4617
  630MOL0     H84983   1.419   6.293   2.499  1.3880  0.9948 -1.5155
  630MOL0     H84984   1.415   6.294   2.235  0.6981  0.4634 -0.8492
  630MOL0     H84985   1.159   6.436   1.900 -1.3662 -3.9242  1.0825
  630MOL0     H84986   1.046   6.468   2.023  2.2141 -1.5353  2.4970
  630MOL0     H84987   1.166   6.684   2.088  0.8702 -0.0802  1.0765
  630MOL0     H84988   1.143   6.690   1.907  1.9799  1.1790 -0.8450
  630MOL0     H84989   1.413   6.632   2.034  0.0004 -0.3629 -0.1322
  630MOL0     H84990   1.349   6.780   1.959  1.9123  0.4951  2.0599
  630MOL0     H84991   1.488   6.614   1.824  0.2185 -0.6466  1.3808
  630MOL0     H84992   1.364   6.510   1.822  4.7174 -0.3240 -0.8083
  630MOL0     H84993   1.219   6.735   1.726  0.3951  0.4020  0.3169
  630MOL0     H84994   1.376   6.801   1.726 -1.7354 -0.1788  1.4087
  630MOL0     H84995   1.239   6.569   1.575  0.6741 -0.7030  1.3109
  630MOL0     H84996   1.287   6.718   1.498 -1.5342  0.6703  1.5140
  630MOL0     H84997   1.461   6.490   1.609  0.6927  0.9383  1.8042
  630MOL0     H84998   1.540   6.628   1.518  0.9363 -0.4108  3.0009
  630MOL0     H84999   1.510   6.439   1.351 -1.0728 -0.1260 -2.6413
  630MOL0     H85000   1.351   6.398   1.414 -0.6175 -0.1154 -0.1353
  630MOL0     H85001   1.565   6.698   1.278 -0.5580  1.5748  0.7648
  630MOL0     H85002   1.439   6.827   0.941 -0.8772 -0.1854 -0.4600
  630MOL0     H85003   1.454   6.917   1.081  2.5686  0.7026 -0.5569
  630MOL0     H85004   1.659   6.834   1.144 -1.8477  3.5347 -0.5982
  630MOL0     H85005   1.664   6.701   1.028 -1.0150 -0.0951 -0.4044
  630MOL0     H85006   1.689   6.830   0.836 -1.2664  2.4729 -1.5946
  630MOL0     H85007   1.822   6.865   0.947 -0.0061 -0.0329 -0.4911
  630MOL0     H85008   1.589   7.035   0.914 -0.3581 -2.0927  4.8228
  630MOL0     H85009   1.748   7.071   0.838 -0.7800  0.3789 -0.9544
  630MOL0     H85010   1.617   7.276   0.881 -0.4380  1.3386  0.7938
  630MOL0     H85011   1.544   7.498   0.948 -1.2444  1.1341  2.3788
  630MOL0     H85012   1.606   7.906   1.190  1.5506 -0.5557 -1.2545
  630MOL0     H85013   1.668   8.137   1.267 -0.0240 -1.2395 -1.0579
  630MOL0     H85014   1.741   8.098   1.678  0.3554  0.2455  1.3412
  630MOL0     H85015   1.914   8.152   1.651 -0.4429 -1.2149 -0.1441
  630MOL0     H85016   1.796   8.292   1.810 -0.5006  1.9197 -0.3210
  630MOL0     H85017   1.811   8.396   1.671 -1.9469  1.4495  0.3137
  630MOL0     H85018   1.605   8.340   1.579 -1.0618  2.1915  0.0426
  630MOL0     H85019   1.557   8.258   1.737  0.8634 -0.9960 -0.3043
  630MOL0     H85020   1.610   8.553   1.691 -0.4803  0.4699 -0.0685
  630MOL0     H85021   1.617   8.490   1.852 -1.3039  3.0297 -0.1786
  630MOL0     H85022   1.391   8.409   1.856 -0.9337  0.2090  1.4293
  630MOL0     H85023   1.364   8.446   1.686  0.8879  0.4013  0.7930
  630MOL0     H85024   1.426   8.658   1.913  1.5283  0.8184 -1.5765
  630MOL0     H85025   1.424   8.693   1.739 -2.0910  0.8038 -0.4407
  630MOL0     H85026   1.183   8.587   1.748  1.1425 -1.2471 -1.1596
  630MOL0     H85027   1.226   8.760   1.799  0.4516 -0.3419  2.1076
  630MOL0     H85028   1.153   8.723   2.012 -0.5009 -1.0754  2.4413
  630MOL0     H85029   1.067   8.590   1.929  0.2014 -1.6482  2.5093
  630MOL0     H85030   1.921   7.965   1.566 -0.4860  1.6962 -0.9199
  630MOL0     H85031   1.895   7.729   1.434  4.2227  2.6523  1.9010
  630MOL0     H85032   1.733   7.411   1.338  2.0651  1.2296 -0.9393
  630MOL0     H85033   1.761   7.180   1.259 -0.3687 -0.0397  0.8465
  630MOL0     H85034   1.083   6.567   2.251 -0.0387  1.0770 -0.1807
  630MOL0     H85035   1.097   6.566   2.503 -0.9626  1.2361 -2.3973
  630MOL0     H85036   1.295   6.766   2.879 -0.0062  0.5790 -0.8645
  630MOL0     H85037   1.363   6.789   3.118  1.1435 -1.0006  0.2052
  630MOL0     H85038   1.388   6.433   3.384 -4.2012  2.5635 -1.0067
  630MOL0     H85039   1.415   6.567   3.487  0.5547  2.6391 -0.5592
  630MOL0     H85040   1.625   6.562   3.478 -1.6547  0.3854 -0.1170
  630MOL0     H85041   1.639   6.549   3.307 -1.3445  0.8650  0.6990
  630MOL0     H85042   1.586   6.281   3.359  1.1132 -2.5200  3.1037
  630MOL0     H85043   1.578   6.330   3.535  2.7081 -2.2088  1.0186
  630MOL0     H85044   1.815   6.448   3.463  2.9976 -1.0527  2.7093
  630MOL0     H85045   1.812   6.281   3.516 -0.7371  0.8996  0.0075
  630MOL0     H85046   1.870   6.270   3.082 -2.5227  1.7919 -2.0020
  630MOL0     H85047   1.423   6.375   3.155  0.4298 -1.0992 -0.3077
  630MOL0     H85048   1.378   6.216   2.984  1.1109 -0.8327 -0.7946
  630MOL0     H85049   1.278   6.278   2.846 -0.4246 -0.2645  1.8921
  630MOL0     H85050   1.460   6.285   2.840 -0.7278  4.1924 -3.9785
  631MOL0     O85051   6.768   8.007   7.282 -1.4152  0.3633 -0.1709
  631MOL0     C85052   6.786   7.982   7.161  0.3381 -0.2167 -0.7711
  631MOL0     O85053   6.691   7.931   7.073  0.4330  0.9875  0.5725
  631MOL0     C85054   6.565   7.907   7.132 -1.0287 -0.4945  0.3203
  631MOL0     C85055   6.550   7.823   7.246  0.6529 -1.1797  0.4193
  631MOL0     C85056   6.419   7.813   7.295 -0.5923 -0.1229  0.2765
  631MOL0     C85057   6.306   7.871   7.239  0.3377  0.1423 -0.3750
  631MOL0     O85058   6.170   7.857   7.281 -0.3519 -0.0740  0.5886
  631MOL0     C85059   6.082   7.837   7.167  0.2232 -0.3144  0.1143
  631MOL0     C85060   5.947   7.801   7.224 -0.2293 -0.5588 -0.1020
  631MOL0     C85061   5.865   7.736   7.112 -0.1782 -0.7287 -0.5440
  631MOL0     C85062   5.715   7.714   7.148 -0.3736 -0.4692 -1.1333
  631MOL0     C85063   5.620   7.680   7.035  0.0383  0.4828 -0.0931
  631MOL0     C85064   5.491   7.604   7.068 -0.1158 -0.5289 -0.5987
  631MOL0     C85065   5.438   7.512   6.960 -0.1286 -0.4233  0.3494
  631MOL0     C85066   5.384   7.581   6.829 -0.2392  0.2385 -0.2430
  631MOL0     N85067   5.269   7.662   6.851 -0.3100  0.1594  0.1333
  631MOL0     C85068   5.259   7.776   6.925 -0.2961  0.0729  0.8635
  631MOL0     C85069   5.126   7.808   6.927 -0.2965  1.0376 -0.1797
  631MOL0     C85070   5.064   7.915   7.008  0.6537  0.7495  0.5562
  631MOL0     C85071   5.051   8.046   6.926  0.5648 -0.0532 -0.5709
  631MOL0     C85072   5.182   8.088   6.854  0.6339  0.5331 -0.3806
  631MOL0     C85073   5.137   8.200   6.756 -0.0027 -0.3159 -0.6270
  631MOL0     O85074   5.268   8.239   6.699 -0.1764  0.5512 -0.9127
  631MOL0     C85075   5.258   8.371   6.656  0.4539 -0.5470 -0.5259
  631MOL0     C85076   5.371   8.446   6.674  0.1900 -0.8686 -0.7065
  631MOL0     C85077   5.391   8.564   6.598 -0.2772  0.1287 -0.6018
  631MOL0     C85078   5.287   8.609   6.515  0.7940 -0.7193  0.0960
  631MOL0     C85079   5.296   8.731   6.435  0.3155 -1.2917  0.2912
  631MOL0     O85080   5.196   8.742   6.336 -0.4681  0.5243 -0.2626
  631MOL0     C85081   5.208   8.850   6.249  0.5816  0.0544  0.5428
  631MOL0     C85082   5.330   8.894   6.195  0.0274 -1.3148 -0.6081
  631MOL0     C85083   5.338   8.986   6.090  0.1341  0.2955 -0.4207
  631MOL0     C85084   5.214   9.043   6.047  0.1454 -0.3086 -0.3360
  631MOL0     O85085   5.203   9.134   5.942  0.0092 -0.6772 -0.4074
  631MOL0     C85086   5.264   9.076   5.820 -0.4963  0.6366 -0.4595
  631MOL0     C85087   5.205   9.120   5.697  0.3651 -0.5640 -0.1217
  631MOL0     C85088   5.053   9.126   5.706 -0.2275  0.7297 -0.2585
  631MOL0     C85089   4.994   9.265   5.751  0.4963  0.0917 -0.0934
  631MOL0     C85090   4.835   9.256   5.789 -0.6198  0.6778  0.8428
  631MOL0     C85091   4.737   9.199   5.685 -0.1675  0.6113 -0.7431
  631MOL0     C85092   4.726   9.280   5.553 -0.3427 -0.5356 -0.3794
  631MOL0     C85093   4.634   9.209   5.460  0.7841 -0.3130 -0.4412
  631MOL0    Cl85094   4.709   9.080   5.387 -0.2143  0.0144  0.0518
  631MOL0     C85095   5.090   8.992   6.101  0.8096 -0.5350 -0.9893
  631MOL0     C85096   5.091   8.908   6.204  0.4176  0.6582 -0.0037
  631MOL0     O85097   5.380   8.824   6.469  0.6772  0.2669  1.0104
  631MOL0     C85098   5.160   8.538   6.515 -0.0598  0.1528  0.7322
  631MOL0     C85099   5.151   8.414   6.575 -0.9379 -0.0924 -0.6588
  631MOL0     N85100   5.060   7.717   6.850 -0.1274 -0.0668  0.1695
  631MOL0     N85101   5.141   7.637   6.800 -0.3993  0.4230  0.0380
  631MOL0     C85102   6.337   7.965   7.133  0.1691  0.9383 -0.1435
  631MOL0     C85103   6.463   7.979   7.081  0.4525 -0.0413 -0.9220
  631MOL0     C85104   6.917   8.010   7.099 -0.4625  0.1086 -0.2728
  631MOL0     C85105   6.992   8.122   7.144  0.1088 -0.1243  0.1493
  631MOL0     C85106   7.115   8.159   7.085  0.1274 -0.3239  0.6264
  631MOL0     C85107   7.166   8.085   6.983 -0.4579  0.6807 -1.1886
  631MOL0     O85108   7.291   8.125   6.933  0.4637 -0.3510  0.2777
  631MOL0     C85109   7.380   8.010   6.891  0.2257  0.1529 -0.9095
  631MOL0     C85110   7.528   8.062   6.878 -0.2427  0.4729  0.1710
  631MOL0     C85111   7.612   8.006   6.767 -0.4554  0.7576 -0.0690
  631MOL0     C85112   7.562   8.044   6.630  0.2449  0.6202 -0.6027
  631MOL0     C85113   7.614   8.170   6.602 -0.7362 -0.9692 -0.6030
  631MOL0     C85114   7.668   8.279   6.593 -1.5517  0.5771 -0.6089
  631MOL0     C85115   7.098   7.976   6.949 -0.6082  1.5133  0.1869
  631MOL0     C85116   6.983   7.926   7.011 -0.3875 -0.9334  0.6182
  631MOL0     C85117   6.943   7.786   6.970  0.2442 -0.2880 -0.2111
  631MOL0     H85118   6.635   7.760   7.268  0.7377 -1.4411 -0.6173
  631MOL0     H85119   6.404   7.773   7.395  0.3621  2.4017  1.5101
  631MOL0     H85120   6.074   7.926   7.104  0.8476 -0.5074 -0.2400
  631MOL0     H85121   6.113   7.749   7.111 -0.2950 -3.4397  4.2614
  631MOL0     H85122   5.878   7.872   7.270 -2.6005 -2.7993  0.0717
  631MOL0     H85123   5.968   7.718   7.292 -0.2795 -0.2754  0.2620
  631MOL0     H85124   5.918   7.641   7.095  1.7661  0.3132 -0.5197
  631MOL0     H85125   5.871   7.809   7.030 -2.4406  3.0864  2.3629
  631MOL0     H85126   5.720   7.625   7.210 -1.8248 -0.0966 -0.4517
  631MOL0     H85127   5.685   7.798   7.211  3.2477  0.5183 -0.4601
  631MOL0     H85128   5.596   7.772   6.979  1.0312 -0.7885 -2.7859
  631MOL0     H85129   5.666   7.606   6.969 -2.3887 -2.1590  1.0044
  631MOL0     H85130   5.512   7.539   7.155 -2.8299  0.1724  0.6869
  631MOL0     H85131   5.414   7.677   7.094 -0.0322 -0.3098 -0.9696
  631MOL0     H85132   5.361   7.443   6.997 -1.3037  0.1834 -0.8690
  631MOL0     H85133   5.519   7.450   6.920 -0.4194 -0.7942  0.3292
  631MOL0     H85134   5.468   7.644   6.798 -0.7250  0.7174 -0.5782
  631MOL0     H85135   5.374   7.506   6.750 -2.0624 -0.6489  0.7824
  631MOL0     H85136   5.341   7.830   6.970  0.8684 -1.8131  1.1238
  631MOL0     H85137   4.968   7.871   7.035  0.1196 -0.0907 -2.3527
  631MOL0     H85138   5.119   7.919   7.102  1.3027  0.8088  0.1851
  631MOL0     H85139   4.970   8.027   6.855  0.6583  0.7594 -0.9029
  631MOL0     H85140   5.005   8.122   6.989 -0.1332 -0.0166 -1.1118
  631MOL0     H85141   5.229   8.006   6.798 -2.4023 -1.7685  0.1762
  631MOL0     H85142   5.258   8.120   6.925  0.4218 -0.0190  0.1001
  631MOL0     H85143   5.081   8.280   6.804 -1.4385 -3.0354  2.6676
  631MOL0     H85144   5.075   8.150   6.681 -1.0333 -0.6575  0.4373
  631MOL0     H85145   5.453   8.422   6.740 -1.4151  1.7272  2.6015
  631MOL0     H85146   5.486   8.614   6.610  1.3402 -2.2348 -2.6698
  631MOL0     H85147   5.420   8.846   6.234 -0.7885 -1.5278  1.0919
  631MOL0     H85148   5.430   8.994   6.032 -1.2293 -1.7826 -3.0805
  631MOL0     H85149   5.372   9.091   5.827  0.1161 -3.1415  1.1362
  631MOL0     H85150   5.248   8.967   5.815 -0.6102  0.6030  0.4952
  631MOL0     H85151   5.256   9.210   5.662 -1.9569  0.9248  0.0670
  631MOL0     H85152   5.235   9.035   5.634  0.5432 -1.3296  0.9744
  631MOL0     H85153   5.017   9.117   5.603  0.9951  2.8850 -0.9415
  631MOL0     H85154   5.026   9.047   5.776  1.6755  0.3622  0.1065
  631MOL0     H85155   5.026   9.350   5.690  0.6073  1.7091  2.1005
  631MOL0     H85156   5.037   9.284   5.850  0.3555 -3.0379  0.6722
  631MOL0     H85157   4.794   9.344   5.840 -1.2369  0.7559  0.2235
  631MOL0     H85158   4.819   9.180   5.865  0.8177  0.8911  1.3978
  631MOL0     H85159   4.779   9.101   5.659  0.1053 -0.6809  3.7510
  631MOL0     H85160   4.646   9.181   5.742  2.4226 -0.4140  3.5058
  631MOL0     H85161   4.826   9.292   5.511 -0.4104  1.3487 -0.1045
  631MOL0     H85162   4.666   9.369   5.575  0.9876  0.2645  0.1030
  631MOL0     H85163   4.538   9.182   5.505 -1.6537  3.2030 -2.9445
  631MOL0     H85164   4.606   9.276   5.377  1.0123  1.0647  0.5685
  631MOL0     H85165   4.994   9.024   6.063  1.6545  0.3630 -2.4566
  631MOL0     H85166   4.988   8.881   6.227  0.0072 -0.6825 -3.0193
  631MOL0     H85167   5.075   8.561   6.452 -1.0396 -2.2447  1.0640
  631MOL0     H85168   5.057   8.360   6.582 -1.5823  0.7361 -2.2814
  631MOL0     H85169   6.257   8.023   7.086  0.1023  0.7919 -0.2097
  631MOL0     H85170   6.471   8.043   6.994 -1.7189  0.8678 -0.5100
  631MOL0     H85171   6.943   8.186   7.216 -1.0292  0.4048 -1.0528
  631MOL0     H85172   7.167   8.251   7.111 -0.8551 -0.0041  1.5547
  631MOL0     H85173   7.341   7.962   6.800  1.6375 -2.2360 -0.3486
  631MOL0     H85174   7.363   7.929   6.963 -2.3316  1.9807  0.7258
  631MOL0     H85175   7.584   8.051   6.972  0.7808  0.0541 -0.4691
  631MOL0     H85176   7.539   8.170   6.864 -1.1538  0.1530 -5.3560
  631MOL0     H85177   7.608   7.897   6.766 -0.2953  0.7424 -2.2805
  631MOL0     H85178   7.719   8.030   6.770  0.0084 -0.9676 -1.6141
  631MOL0     H85179   7.599   7.980   6.549  0.3642 -1.6787  1.1791
  631MOL0     H85180   7.453   8.041   6.630  0.2140  0.9515  0.9666
  631MOL0     H85181   7.713   8.376   6.584 -0.4398  0.3872  2.0735
  631MOL0     H85182   7.134   7.909   6.872  0.0090  1.0526  0.8653
  631MOL0     H85183   6.994   7.770   6.874  1.5628  1.8822  0.0651
  631MOL0     H85184   6.986   7.702   7.025  3.6196  0.3418 -1.6820
  631MOL0     H85185   6.835   7.771   6.957  0.5126 -0.1784 -3.2889
  632MOL0     O85186   2.715   8.622   0.135  0.4552 -0.4309  0.2370
  632MOL0     C85187   2.607   8.581   0.182  0.0400  0.6017 -0.3879
  632MOL0     O85188   2.485   8.590   0.120 -0.3103 -0.0014 -0.7888
  632MOL0     C85189   2.495   8.637  -0.004 -0.8622  0.3065 -0.0235
  632MOL0     C85190   2.507   8.775  -0.021 -0.5227  0.0429 -0.2607
  632MOL0     C85191   2.527   8.834  -0.152  1.1909  0.3769  0.0902
  632MOL0     C85192   2.493   8.745  -0.260 -0.6464 -0.3036 -0.3743
  632MOL0     O85193   2.499   8.770  -0.395 -1.4707 -0.1240  0.2601
  632MOL0     C85194   2.609   8.856  -0.445 -0.0152 -1.0076 -0.2130
  632MOL0     C85195   2.539   8.995  -0.446 -0.5309 -0.8058 -0.9163
  632MOL0     C85196   2.638   9.107  -0.404 -0.9108 -0.5819 -0.2506
  632MOL0     C85197   2.592   9.242  -0.449 -0.5621 -0.1738  0.5274
  632MOL0     C85198   2.697   9.352  -0.415  0.9912  1.4428 -0.7325
  632MOL0     C85199   2.634   9.488  -0.446 -0.0541  0.4505  0.0024
  632MOL0     C85200   2.728   9.603  -0.405  0.2534  0.0400  0.8356
  632MOL0     C85201   2.710   9.724  -0.507  0.0682  0.1656 -0.1017
  632MOL0     N85202   2.595   9.807  -0.453 -0.0440 -0.1639 -0.1363
  632MOL0     C85203   2.478   9.837  -0.525 -0.4158 -0.7402 -0.8553
  632MOL0     C85204   2.390   9.897  -0.431  0.2304 -0.6019  0.4562
  632MOL0     C85205   2.240   9.952  -0.427  0.2459  0.3576 -0.0215
  632MOL0     C85206   2.138   9.860  -0.496 -0.1013 -0.0845 -0.9623
  632MOL0     C85207   2.113   9.911  -0.635 -0.9048  0.0580  0.0686
  632MOL0     C85208   2.003  10.017  -0.622 -0.6096 -0.5170  0.9900
  632MOL0     O85209   2.033  10.119  -0.722 -0.0021  1.2041  0.4023
  632MOL0     C85210   1.929  10.197  -0.761  0.2141 -1.2607 -0.8791
  632MOL0     C85211   1.810  10.232  -0.680  0.0931 -0.9243  0.6467
  632MOL0     C85212   1.719  10.329  -0.729 -0.7718 -0.3897 -0.5823
  632MOL0     C85213   1.739  10.375  -0.854  0.5081 -0.1793 -0.6431
  632MOL0     C85214   1.636  10.474  -0.905 -0.5341  0.0883 -0.0521
  632MOL0     O85215   1.520  10.474  -0.835 -0.6908  1.4478  0.6442
  632MOL0     C85216   1.423  10.570  -0.833 -0.0428  0.7623 -0.6228
  632MOL0     C85217   1.311  10.531  -0.758  0.6913 -0.5507 -0.0146
  632MOL0     C85218   1.212  10.632  -0.736  0.8460 -0.1757  1.1784
  632MOL0     C85219   1.224  10.769  -0.780  0.5777  0.2149  0.2098
  632MOL0     O85220   1.124  10.846  -0.750  0.5584  0.4295 -0.3864
  632MOL0     C85221   1.088  10.927  -0.861 -0.6607  0.3261 -0.4937
  632MOL0     C85222   0.972  11.023  -0.826  0.8834  0.3970 -0.5069
  632MOL0     C85223   0.837  10.948  -0.815 -0.9543 -0.7146 -1.3769
  632MOL0     C85224   0.737  11.057  -0.765  0.1278  0.2812 -0.3584
  632MOL0     C85225   0.596  11.011  -0.795  0.0079  0.9170  0.0973
  632MOL0     C85226   0.484  11.109  -0.758  0.1267  0.9807 -0.4127
  632MOL0     C85227   0.467  11.127  -0.602  0.5911  0.0749  0.9009
  632MOL0     C85228   0.361  11.229  -0.567  0.0590 -0.4286  0.9247
  632MOL0    Cl85229   0.204  11.151  -0.608 -0.1864  0.0717 -0.0354
  632MOL0     C85230   1.336  10.800  -0.863  0.6815 -0.4798 -0.5687
  632MOL0     C85231   1.430  10.701  -0.890 -0.6912 -0.6949 -0.4280
  632MOL0     O85232   1.667  10.545  -0.999  0.1645 -0.5878  0.8377
  632MOL0     C85233   1.860  10.350  -0.928 -0.3356  0.2789 -0.1224
  632MOL0     C85234   1.947  10.270  -0.873  0.1676  0.4480  0.4842
  632MOL0     N85235   2.465   9.905  -0.314  0.6941  0.3357 -0.5215
  632MOL0     N85236   2.581   9.864  -0.325 -0.7127 -0.1097  0.6255
  632MOL0     C85237   2.491   8.601  -0.240  0.4237 -0.4470  0.4705
  632MOL0     C85238   2.492   8.553  -0.114  0.1585  0.8567 -0.6468
  632MOL0     C85239   2.603   8.513   0.314  0.3600 -0.3950 -0.8681
  632MOL0     C85240   2.710   8.424   0.343 -0.5432 -0.1634  0.8012
  632MOL0     C85241   2.717   8.367   0.467 -0.5764  0.1155 -0.1202
  632MOL0     C85242   2.611   8.377   0.563 -0.2915 -0.2072 -0.4983
  632MOL0     O85243   2.608   8.304   0.682 -0.9257  0.6550  0.1707
  632MOL0     C85244   2.700   8.346   0.781  0.4691 -0.4711  0.2561
  632MOL0     C85245   2.644   8.304   0.925 -0.5443  0.0899  0.5588
  632MOL0     C85246   2.735   8.308   1.049 -0.9118  0.2352 -0.4702
  632MOL0     C85247   2.687   8.230   1.178 -0.0015  0.2410  0.3693
  632MOL0     C85248   2.793   8.228   1.280  0.0495  0.6447  1.1500
  632MOL0     C85249   2.883   8.214   1.361  0.2101  1.2724  0.0866
  632MOL0     C85250   2.514   8.470   0.540 -0.0761  0.9507  0.5566
  632MOL0     C85251   2.501   8.535   0.413 -0.0718 -0.6703  0.5555
  632MOL0     C85252   2.388   8.633   0.402  0.7219  0.3911  0.5674
  632MOL0     H85253   2.512   8.844   0.063  0.3753 -0.4225  0.0855
  632MOL0     H85254   2.544   8.941  -0.150  0.0932  0.5674  1.8286
  632MOL0     H85255   2.685   8.843  -0.368 -2.0787  0.6173  2.2941
  632MOL0     H85256   2.643   8.833  -0.546 -0.1515 -0.6750 -0.3376
  632MOL0     H85257   2.451   8.994  -0.381 -1.6788 -0.2442 -2.3939
  632MOL0     H85258   2.511   9.023  -0.548  3.6706  4.0126 -1.1358
  632MOL0     H85259   2.734   9.079  -0.449  0.4024 -1.6903  2.9805
  632MOL0     H85260   2.660   9.118  -0.298 -3.7838  1.4844  0.2276
  632MOL0     H85261   2.568   9.237  -0.556 -0.1787 -0.2980  0.4437
  632MOL0     H85262   2.501   9.264  -0.393  0.2090  1.5323  1.1981
  632MOL0     H85263   2.718   9.339  -0.309  1.2605 -3.0945 -1.1272
  632MOL0     H85264   2.785   9.329  -0.476  0.4723  0.5161 -1.1593
  632MOL0     H85265   2.625   9.498  -0.555  0.1219 -0.0270 -0.0570
  632MOL0     H85266   2.533   9.504  -0.406 -0.0751  1.8351 -0.5606
  632MOL0     H85267   2.831   9.568  -0.418 -0.5956 -2.8878  1.1987
  632MOL0     H85268   2.708   9.628  -0.301 -2.8397 -0.4124  0.4327
  632MOL0     H85269   2.809   9.771  -0.512  0.0054  0.2049 -1.1359
  632MOL0     H85270   2.698   9.685  -0.609  1.5513 -2.8455  0.7461
  632MOL0     H85271   2.450   9.830  -0.629  0.4426  3.5121 -1.5656
  632MOL0     H85272   2.224   9.951  -0.319 -0.3690  1.3017 -0.0985
  632MOL0     H85273   2.241  10.055  -0.463  3.6378  0.5490  0.3229
  632MOL0     H85274   2.177   9.758  -0.502 -3.1483 -1.7154  2.4615
  632MOL0     H85275   2.045   9.853  -0.438 -0.9223 -1.6347 -2.3689
  632MOL0     H85276   2.076   9.827  -0.694  0.6357 -0.5442 -0.1002
  632MOL0     H85277   2.208   9.940  -0.681 -1.2328 -1.5711 -1.7332
  632MOL0     H85278   1.995  10.054  -0.519 -1.2125 -1.3155  1.2432
  632MOL0     H85279   1.910   9.972  -0.659  0.0043 -0.2548 -0.9778
  632MOL0     H85280   1.773  10.196  -0.584 -1.4889  2.1153  1.3072
  632MOL0     H85281   1.631  10.352  -0.669  0.5515 -1.9148  2.1111
  632MOL0     H85282   1.303  10.428  -0.726 -2.0391 -1.2939 -2.6157
  632MOL0     H85283   1.117  10.609  -0.690 -0.0854 -2.7727 -1.6789
  632MOL0     H85284   1.173  10.990  -0.889 -0.7443  0.2570 -0.8961
  632MOL0     H85285   1.065  10.855  -0.939  3.8269 -0.8911 -1.0011
  632MOL0     H85286   0.980  11.089  -0.739 -5.2863  2.3778 -0.9332
  632MOL0     H85287   0.968  11.099  -0.904  0.1533 -1.1609 -2.0777
  632MOL0     H85288   0.804  10.905  -0.910 -1.2624 -0.0442 -1.5832
  632MOL0     H85289   0.846  10.864  -0.745  1.3586 -0.0741 -0.8358
  632MOL0     H85290   0.757  11.142  -0.831  1.0451  0.3809  0.0396
  632MOL0     H85291   0.751  11.092  -0.662  3.7897 -0.0547 -0.6122
  632MOL0     H85292   0.569  10.919  -0.742 -1.8526  2.6417  2.3459
  632MOL0     H85293   0.597  11.002  -0.904  4.0416  0.1036  0.0771
  632MOL0     H85294   0.507  11.207  -0.801  2.2625 -0.1368 -2.0266
  632MOL0     H85295   0.388  11.091  -0.808  0.5348  1.3652 -1.3482
  632MOL0     H85296   0.566  11.164  -0.573  2.4920 -1.9850 -2.3746
  632MOL0     H85297   0.441  11.028  -0.564 -0.5572  0.3444  0.8391
  632MOL0     H85298   0.350  11.258  -0.462 -2.2630  0.0061  0.6281
  632MOL0     H85299   0.369  11.320  -0.628 -3.0134  0.4436  1.6190
  632MOL0     H85300   1.349  10.903  -0.895 -0.2014  0.3027  1.4356
  632MOL0     H85301   1.522  10.733  -0.938 -0.4922  3.2803  2.2022
  632MOL0     H85302   1.890  10.398  -1.020  1.3187  0.6442  0.5687
  632MOL0     H85303   2.038  10.252  -0.928  2.2263  2.1331  3.0905
  632MOL0     H85304   2.469   8.540  -0.328 -1.6997  1.3921 -0.3686
  632MOL0     H85305   2.459   8.451  -0.097 -0.9225  1.6787  2.9150
  632MOL0     H85306   2.790   8.416   0.270 -3.5760  0.5801 -2.9958
  632MOL0     H85307   2.800   8.303   0.497 -1.3547 -1.1246 -0.5345
  632MOL0     H85308   2.730   8.451   0.782  0.2635 -0.3977 -0.5510
  632MOL0     H85309   2.791   8.293   0.753 -0.1103 -0.5999 -1.5511
  632MOL0     H85310   2.605   8.202   0.919  0.3880 -0.2386 -0.0458
  632MOL0     H85311   2.555   8.363   0.949 -1.4636 -1.3213  0.7088
  632MOL0     H85312   2.764   8.410   1.078  1.2571 -0.3610 -0.4004
  632MOL0     H85313   2.827   8.259   1.016 -0.6571 -0.6837  1.4674
  632MOL0     H85314   2.595   8.281   1.207 -0.7318 -0.8585  0.0371
  632MOL0     H85315   2.647   8.130   1.166 -2.5171  1.0344  1.5165
  632MOL0     H85316   2.971   8.209   1.421  1.0979  0.0928 -1.2550
  632MOL0     H85317   2.448   8.476   0.626  0.2903 -2.2671  1.1969
  632MOL0     H85318   2.298   8.574   0.382 -0.8393  3.1634 -1.2326
  632MOL0     H85319   2.384   8.689   0.496  3.9926  3.0544 -0.6703
  632MOL0     H85320   2.396   8.712   0.327 -0.1969  2.2479  2.3276
  633MOL0     O85321   1.053   9.116   8.719  0.0135 -0.6116  0.3084
  633MOL0     C85322   1.070   9.224   8.787  0.2685 -0.3582  0.5748
  633MOL0     O85323   1.035   9.349   8.739  0.2098 -0.1162  0.1886
  633MOL0     C85324   1.040   9.358   8.600  0.6482  0.9151 -0.3207
  633MOL0     C85325   0.923   9.386   8.523  0.0738  0.8281 -0.6022
  633MOL0     C85326   0.929   9.381   8.381 -0.7277 -0.1935 -0.3373
  633MOL0     C85327   1.049   9.348   8.316 -1.2747  0.1381  0.1661
  633MOL0     O85328   1.054   9.335   8.182 -0.0228  1.0659  0.2479
  633MOL0     C85329   1.048   9.458   8.112 -0.1505 -0.4354 -0.9975
  633MOL0     C85330   1.054   9.423   7.963 -0.4558  0.4501  0.3526
  633MOL0     C85331   0.930   9.344   7.913  0.1099  1.3585 -0.7109
  633MOL0     C85332   0.807   9.423   7.932  0.0599  0.4600  0.1876
  633MOL0     C85333   0.693   9.345   7.871  1.1519  0.5539  0.3457
  633MOL0     C85334   0.568   9.440   7.838 -0.5632 -0.4640  0.1902
  633MOL0     C85335   0.611   9.573   7.759  0.4761 -0.4682  0.5351
  633MOL0     C85336   0.504   9.621   7.650  0.3267  0.2336  0.4586
  633MOL0     N85337   0.400   9.700   7.712 -0.0047 -0.1610 -0.4510
  633MOL0     C85338   0.289   9.660   7.775  0.9095 -0.4500  0.2740
  633MOL0     C85339   0.209   9.773   7.768  0.1572 -0.3981 -0.7735
  633MOL0     C85340   0.060   9.791   7.809  0.7861  0.2069 -0.8514
  633MOL0     C85341   0.004   9.680   7.896  0.5682 -0.4688 -0.2621
  633MOL0     C85342   0.080   9.692   8.034 -0.7738 -0.2723  0.5434
  633MOL0     C85343   0.063   9.564   8.106 -0.5969 -0.3626 -1.3391
  633MOL0     O85344   0.159   9.468   8.051 -0.8068  0.1624 -0.5839
  633MOL0     C85345   0.188   9.344   8.106  0.2765 -0.5099 -0.0027
  633MOL0     C85346   0.135   9.297   8.223 -0.2965  0.4063 -0.9318
  633MOL0     C85347   0.181   9.175   8.278  0.0722  0.7859  1.1176
  633MOL0     C85348   0.283   9.105   8.213 -0.1668  0.8699  0.0577
  633MOL0     C85349   0.339   8.975   8.278 -0.4386 -0.3702 -0.4158
  633MOL0     O85350   0.315   8.965   8.417 -0.0984  0.1547  0.7861
  633MOL0     C85351   0.354   8.852   8.488 -0.5777 -0.1288 -1.4671
  633MOL0     C85352   0.336   8.873   8.630 -0.0530 -0.5014 -0.1201
  633MOL0     C85353   0.385   8.781   8.718  0.7326  0.4946 -0.9322
  633MOL0     C85354   0.435   8.657   8.680  0.7143 -0.8667 -0.1267
  633MOL0     O85355   0.467   8.567   8.777  0.7002 -0.0516  0.4618
  633MOL0     C85356   0.440   8.429   8.743  0.5498  0.5072  0.1989
  633MOL0     C85357   0.405   8.354   8.879  0.1178 -0.2215  0.0658
  633MOL0     C85358   0.256   8.356   8.904 -0.2587  0.2822 -0.0107
  633MOL0     C85359   0.218   8.323   9.049 -1.2846  0.5897  0.2909
  633MOL0     C85360   0.074   8.328   9.091 -0.4611  0.5834  0.5611
  633MOL0     C85361  -0.013   8.283   8.971  1.1190  0.0771  0.2905
  633MOL0     C85362  -0.160   8.315   9.013  0.3338  0.3308  0.2866
  633MOL0     C85363  -0.260   8.281   8.903  0.0967 -0.0472  0.2219
  633MOL0    Cl85364  -0.251   8.422   8.788  0.5588  0.4554 -0.2518
  633MOL0     C85365   0.463   8.641   8.544 -0.1073  1.1920 -0.1505
  633MOL0     C85366   0.414   8.731   8.451 -0.8044  0.3277 -0.3816
  633MOL0     O85367   0.397   8.888   8.209 -0.4100 -0.4421  0.0061
  633MOL0     C85368   0.332   9.150   8.093 -0.1091 -0.0319  0.5712
  633MOL0     C85369   0.280   9.266   8.038  1.5256  0.4051  0.5779
  633MOL0     N85370   0.273   9.867   7.700 -0.3168 -0.8137  0.1615
  633MOL0     N85371   0.400   9.833   7.692 -0.2589  0.2045 -0.1219
  633MOL0     C85372   1.163   9.331   8.396  0.0591 -0.3793  1.1492
  633MOL0     C85373   1.161   9.343   8.534  0.3179  0.6434 -0.0756
  633MOL0     C85374   1.107   9.218   8.938 -0.3517  0.0785  0.7697
  633MOL0     C85375   1.157   9.340   8.995  1.3033 -0.7376 -0.1172
  633MOL0     C85376   1.216   9.343   9.116  0.3990 -0.9759 -1.4176
  633MOL0     C85377   1.215   9.232   9.188 -0.0308  0.3090 -0.3052
  633MOL0     O85378   1.270   9.231   9.314 -0.1013 -0.2035 -0.5711
  633MOL0     C85379   1.199   9.328   9.408  0.4482  0.1637  0.3477
  633MOL0     C85380   1.208   9.267   9.549  0.2643  0.6352 -0.5798
  633MOL0     C85381   1.084   9.186   9.585  0.5752 -0.8502  0.6260
  633MOL0     C85382   1.070   9.177   9.735  0.4921  0.4376 -0.4878
  633MOL0     C85383   0.966   9.079   9.760 -0.1443  1.0399 -0.3406
  633MOL0     C85384   0.878   8.995   9.790 -0.3249 -0.2222  0.0504
  633MOL0     C85385   1.160   9.110   9.147  0.5366 -0.5737  1.0663
  633MOL0     C85386   1.110   9.099   9.013 -0.5789  1.2770 -0.6778
  633MOL0     C85387   1.074   8.954   8.960 -0.4603 -0.2778  0.4840
  633MOL0     H85388   0.824   9.392   8.565 -0.7296  1.0260 -2.4286
  633MOL0     H85389   0.839   9.392   8.321 -0.2458  0.4290 -0.9685
  633MOL0     H85390   0.965   9.528   8.124 -0.2659 -0.3963 -1.9820
  633MOL0     H85391   1.133   9.524   8.135 -0.4981  0.4323 -2.1074
  633MOL0     H85392   1.144   9.364   7.946 -1.4798 -0.7869 -0.9428
  633MOL0     H85393   1.061   9.522   7.916 -0.1557  0.1442 -0.2479
  633MOL0     H85394   0.919   9.245   7.960 -0.7512  2.6218  1.9822
  633MOL0     H85395   0.947   9.315   7.809  0.0996 -0.2380 -0.2954
  633MOL0     H85396   0.783   9.441   8.037 -2.6255  2.4240 -0.6528
  633MOL0     H85397   0.814   9.521   7.883 -2.1596  0.8636  0.5686
  633MOL0     H85398   0.712   9.308   7.770 -2.3414  1.8100 -0.8962
  633MOL0     H85399   0.660   9.266   7.940  2.3709  1.1504  1.6565
  633MOL0     H85400   0.496   9.388   7.774 -2.1627  1.5458  0.2548
  633MOL0     H85401   0.528   9.473   7.934 -0.2536 -0.3091  0.2649
  633MOL0     H85402   0.706   9.547   7.711  0.6346  0.6949  0.1929
  633MOL0     H85403   0.634   9.662   7.818 -1.6471  1.3870 -1.2200
  633MOL0     H85404   0.538   9.685   7.569 -1.8276 -0.0223 -0.7373
  633MOL0     H85405   0.459   9.533   7.604  0.1290 -0.8218  2.5253
  633MOL0     H85406   0.259   9.560   7.806  0.2725 -0.8714 -1.5506
  633MOL0     H85407   0.041   9.886   7.861 -1.5302 -2.0117  2.7535
  633MOL0     H85408  -0.003   9.803   7.720  2.0194  2.2639 -1.5086
  633MOL0     H85409  -0.095   9.704   7.934  2.2104  1.4956  3.3148
  633MOL0     H85410  -0.005   9.585   7.843  0.1746  0.2157 -1.4550
  633MOL0     H85411   0.037   9.775   8.091 -0.8575 -1.3248  2.0722
  633MOL0     H85412   0.188   9.709   8.027 -1.2634  4.1212  0.5584
  633MOL0     H85413  -0.038   9.523   8.105 -0.8653  0.2875 -1.1958
  633MOL0     H85414   0.098   9.569   8.210  1.4283 -1.1926 -1.9300
  633MOL0     H85415   0.046   9.341   8.269  0.5599  2.2717 -0.9930
  633MOL0     H85416   0.140   9.126   8.365 -0.8856 -2.8342 -1.1581
  633MOL0     H85417   0.291   8.965   8.667  0.0913 -0.9660  1.2434
  633MOL0     H85418   0.389   8.807   8.823  0.7262 -1.8622 -0.2876
  633MOL0     H85419   0.361   8.417   8.669  0.8393  3.5719 -0.7459
  633MOL0     H85420   0.534   8.395   8.698  1.8973  4.5786 -0.4123
  633MOL0     H85421   0.428   8.248   8.869  1.4964  0.0799 -0.2679
  633MOL0     H85422   0.470   8.405   8.951 -2.0770  2.4605  0.3225
  633MOL0     H85423   0.224   8.458   8.878  3.6081  1.5715 -0.5038
  633MOL0     H85424   0.210   8.282   8.839 -3.2612  2.6161 -0.7633
  633MOL0     H85425   0.277   8.386   9.117  0.3986  0.8516 -1.3419
  633MOL0     H85426   0.243   8.217   9.055 -0.2462  0.5116 -3.1553
  633MOL0     H85427   0.039   8.428   9.117 -4.4057  0.1036 -2.1851
  633MOL0     H85428   0.059   8.270   9.183 -2.7371  3.8215  2.4376
  633MOL0     H85429   0.005   8.336   8.877 -0.4814 -0.5069 -0.3867
  633MOL0     H85430  -0.002   8.175   8.955 -4.8128 -0.9871  1.0017
  633MOL0     H85431  -0.173   8.421   9.035  1.2563  0.6593 -0.6834
  633MOL0     H85432  -0.187   8.263   9.105  0.7763  1.1502  0.8960
  633MOL0     H85433  -0.244   8.181   8.860  0.7528 -0.1544  0.7017
  633MOL0     H85434  -0.359   8.279   8.949 -1.3099  3.2597 -2.2891
  633MOL0     H85435   0.501   8.551   8.496 -0.9751  0.8879 -0.2927
  633MOL0     H85436   0.442   8.698   8.352 -1.6785 -4.8143  0.7818
  633MOL0     H85437   0.409   9.101   8.033 -0.9502 -0.1903 -0.4083
  633MOL0     H85438   0.318   9.310   7.946 -1.2695  0.9954 -0.3813
  633MOL0     H85439   1.252   9.306   8.339 -2.3335 -1.3335 -2.5099
  633MOL0     H85440   1.253   9.344   8.590  1.2080 -1.9731 -1.3542
  633MOL0     H85441   1.145   9.436   8.946  0.1494 -2.3065 -3.1743
  633MOL0     H85442   1.263   9.430   9.159 -1.6339 -0.9337  0.9590
  633MOL0     H85443   1.097   9.360   9.385  0.7609 -0.0800 -1.4946
  633MOL0     H85444   1.257   9.420   9.407 -0.9556  1.0936 -1.3051
  633MOL0     H85445   1.210   9.351   9.618 -3.5639 -0.7123  1.4896
  633MOL0     H85446   1.301   9.211   9.562 -1.0019 -1.4875 -0.1082
  633MOL0     H85447   1.088   9.096   9.524  1.6227  0.9132 -2.0877
  633MOL0     H85448   0.996   9.242   9.552  1.4130  0.6539  0.8447
  633MOL0     H85449   1.160   9.136   9.781 -0.6897 -1.7243  0.0629
  633MOL0     H85450   1.046   9.278   9.769  1.7235  1.3935 -2.3038
  633MOL0     H85451   0.818   8.917   9.830  0.1688 -0.7997 -0.3177
  633MOL0     H85452   1.161   9.024   9.213  4.9948  0.4013  2.6613
  633MOL0     H85453   1.147   8.919   8.886 -0.1408  1.0476  0.1444
  633MOL0     H85454   1.088   8.885   9.044 -1.9378 -0.3636  0.6770
  633MOL0     H85455   0.974   8.955   8.917 -0.0791  1.6947 -0.4832
  634MOL0     O85456   7.801  10.753   3.681 -0.0582  0.8014  0.0535
  634MOL0     C85457   7.841  10.812   3.585 -0.1169 -0.4340 -0.7117
  634MOL0     O85458   7.784  10.924   3.535 -0.4346  0.2234  0.1445
  634MOL0     C85459   7.661  10.967   3.566  0.1465  0.4316 -0.5268
  634MOL0     C85460   7.569  10.910   3.658  0.1007 -0.4128 -0.6658
  634MOL0     C85461   7.453  10.966   3.700  0.7443 -0.3039  0.1323
  634MOL0     C85462   7.410  11.080   3.643 -0.5581 -0.5368  0.1789
  634MOL0     O85463   7.289  11.138   3.671  0.7331 -0.8616 -0.2774
  634MOL0     C85464   7.281  11.262   3.720  0.0158  0.3593  0.7372
  634MOL0     C85465   7.160  11.335   3.664 -0.6835  0.2035 -1.2622
  634MOL0     C85466   7.197  11.394   3.521 -0.0654  0.4022  0.7681
  634MOL0     C85467   7.131  11.530   3.492 -0.0716 -0.4745  1.1939
  634MOL0     C85468   7.161  11.584   3.343  0.8548  1.3027 -0.4301
  634MOL0     C85469   7.269  11.688   3.324 -0.1230  0.3243 -0.1778
  634MOL0     C85470   7.260  11.723   3.178  0.0889  0.7868  0.2218
  634MOL0     C85471   7.367  11.810   3.135 -1.1300  0.6217  0.8430
  634MOL0     N85472   7.359  11.819   2.991  0.4616 -0.1554  0.6057
  634MOL0     C85473   7.284  11.915   2.925  0.1741 -0.5216  0.4009
  634MOL0     C85474   7.327  11.909   2.797  0.2598  0.8598  0.5540
  634MOL0     C85475   7.299  11.992   2.683  0.1011  0.5630  0.2273
  634MOL0     C85476   7.268  11.922   2.555 -0.1555 -0.1297  0.1462
  634MOL0     C85477   7.404  11.900   2.465 -0.4172  0.3115  0.2447
  634MOL0     C85478   7.386  11.849   2.312 -0.1924 -0.9406 -0.8088
  634MOL0     O85479   7.497  11.777   2.263 -0.1511  0.6806  0.1233
  634MOL0     C85480   7.607  11.856   2.245  0.2355  0.2313 -0.2449
  634MOL0     C85481   7.628  11.939   2.132 -0.3739  0.8064  1.6850
  634MOL0     C85482   7.751  12.004   2.124  0.0307 -0.7523  0.1865
  634MOL0     C85483   7.843  11.998   2.231 -1.0926  0.1783 -0.1258
  634MOL0     C85484   7.979  12.068   2.222  0.9179 -0.0895 -0.0091
  634MOL0     O85485   8.014  12.118   2.098  0.0136 -0.0057 -0.0330
  634MOL0     C85486   8.134  12.179   2.064 -0.1411  0.0978  0.3444
  634MOL0     C85487   8.254  12.140   2.122  0.3786  1.0689  0.2670
  634MOL0     C85488   8.376  12.190   2.081 -0.2506  0.1061 -0.3002
  634MOL0     C85489   8.379  12.292   1.980  0.1851  0.8435 -0.5729
  634MOL0     O85490   8.494  12.352   1.941  1.3183 -0.6817 -0.7844
  634MOL0     C85491   8.617  12.274   1.952  0.4597 -0.4229  0.3473
  634MOL0     C85492   8.732  12.342   1.867 -1.0738 -0.5496  0.3253
  634MOL0     C85493   8.725  12.500   1.872 -1.0486  0.4724  0.2060
  634MOL0     C85494   8.754  12.565   2.008  0.6903 -1.2033 -0.3177
  634MOL0     C85495   8.731  12.723   2.032 -0.0970 -0.0981 -0.1088
  634MOL0     C85496   8.587  12.763   2.030 -0.2097 -0.0813  0.7686
  634MOL0     C85497   8.517  12.806   2.162  0.4921 -0.3854  0.0068
  634MOL0     C85498   8.576  12.935   2.212  0.1151 -1.0371 -0.0618
  634MOL0    Cl85499   8.710  12.896   2.324  0.4319  0.4250  0.3302
  634MOL0     C85500   8.255  12.322   1.922  0.6540  0.0431  1.0938
  634MOL0     C85501   8.137  12.257   1.945  0.3143 -0.4791 -0.3460
  634MOL0     O85502   8.045  12.076   2.323 -0.8761  0.9514  0.3511
  634MOL0     C85503   7.822  11.914   2.347  1.3301 -0.2028  0.7037
  634MOL0     C85504   7.702  11.842   2.352  1.4595  0.0301  0.0377
  634MOL0     N85505   7.414  11.797   2.790  0.8034 -0.2727  0.3631
  634MOL0     N85506   7.420  11.739   2.907  0.4237  0.3400  0.3510
  634MOL0     C85507   7.502  11.147   3.560 -0.3827  0.6651 -0.8745
  634MOL0     C85508   7.626  11.095   3.516  0.9351 -0.6388 -0.3149
  634MOL0     C85509   7.973  10.768   3.519 -0.7824  1.1967  0.5621
  634MOL0     C85510   8.034  10.875   3.445  0.5308  1.3674  0.8222
  634MOL0     C85511   8.143  10.848   3.371 -0.0931  0.9901 -1.2406
  634MOL0     C85512   8.215  10.719   3.390 -0.7160 -0.2154 -1.0566
  634MOL0     O85513   8.340  10.689   3.345  0.5553 -0.7680  0.0512
  634MOL0     C85514   8.376  10.763   3.229 -0.3448  0.5434 -0.2711
  634MOL0     C85515   8.294  10.721   3.104  0.7795 -0.1534 -1.2462
  634MOL0     C85516   8.299  10.575   3.072  0.1896 -0.0274  0.3403
  634MOL0     C85517   8.435  10.524   3.040 -1.0776 -0.5809  0.2714
  634MOL0     C85518   8.443  10.378   3.001 -0.7886 -0.5449  0.0577
  634MOL0     C85519   8.443  10.255   2.983 -0.0545 -1.0018 -0.6203
  634MOL0     C85520   8.155  10.618   3.474 -0.5453 -0.5081 -0.4738
  634MOL0     C85521   8.026  10.638   3.526 -0.1753 -0.0942  0.3348
  634MOL0     C85522   7.968  10.518   3.593 -0.0127 -0.3113  0.0086
  634MOL0     H85523   7.571  10.815   3.711 -1.2265 -1.1518 -1.8705
  634MOL0     H85524   7.387  10.921   3.773  0.1908 -1.4983 -1.0569
  634MOL0     H85525   7.258  11.234   3.823  2.4886  0.3832  1.3552
  634MOL0     H85526   7.372  11.323   3.715 -0.0170  0.2834 -1.8604
  634MOL0     H85527   7.139  11.410   3.740  1.6930 -0.7197  0.4225
  634MOL0     H85528   7.078  11.263   3.664 -0.7557  0.0939  2.7760
  634MOL0     H85529   7.173  11.317   3.448 -0.2554 -2.5422  3.7186
  634MOL0     H85530   7.303  11.421   3.522 -0.6923  3.4872 -1.0743
  634MOL0     H85531   7.023  11.526   3.506 -0.2896  1.5055  0.3369
  634MOL0     H85532   7.168  11.602   3.565 -1.7435  1.9821 -0.2714
  634MOL0     H85533   7.193  11.507   3.273  1.5835  0.7919  0.4387
  634MOL0     H85534   7.067  11.625   3.305  0.8816  0.9579 -0.8748
  634MOL0     H85535   7.257  11.773   3.391 -2.7360 -1.4480  1.8288
  634MOL0     H85536   7.365  11.640   3.345  0.0854  0.6610 -0.3507
  634MOL0     H85537   7.166  11.779   3.164  0.1513  0.6582 -0.7716
  634MOL0     H85538   7.266  11.635   3.114  1.5153 -0.0348  1.4298
  634MOL0     H85539   7.352  11.913   3.167  0.9544  2.9300 -4.3704
  634MOL0     H85540   7.467  11.772   3.155 -0.1461  2.8370  0.4505
  634MOL0     H85541   7.216  11.990   2.965  3.1930  1.2578  2.5806
  634MOL0     H85542   7.207  12.049   2.698  0.2555  0.4440  1.8178
  634MOL0     H85543   7.368  12.075   2.668 -0.5084  1.2047  0.9205
  634MOL0     H85544   7.211  11.829   2.562 -2.0043  0.8948 -0.7041
  634MOL0     H85545   7.213  11.995   2.495 -5.0755 -0.3860  3.6789
  634MOL0     H85546   7.458  11.824   2.523  0.5086 -0.3177 -1.4025
  634MOL0     H85547   7.463  11.991   2.466  0.2121 -0.0659 -1.2740
  634MOL0     H85548   7.371  11.936   2.247 -3.1473  0.9887  2.1157
  634MOL0     H85549   7.291  11.794   2.303 -0.8689  0.2371 -1.0773
  634MOL0     H85550   7.561  11.932   2.047  2.3640  0.1391 -0.5705
  634MOL0     H85551   7.783  12.056   2.034  1.7639 -1.0404  0.6009
  634MOL0     H85552   8.265  12.066   2.201 -3.0088  1.5154  1.3022
  634MOL0     H85553   8.463  12.155   2.135 -1.5002 -0.3772  1.4940
  634MOL0     H85554   8.642  12.293   2.057 -0.3498 -3.2046  1.1508
  634MOL0     H85555   8.604  12.165   1.944  1.5487 -0.5275 -0.2447
  634MOL0     H85556   8.822  12.307   1.918  1.4721  4.2461 -0.3303
  634MOL0     H85557   8.735  12.315   1.761  0.2972  2.0974 -0.4019
  634MOL0     H85558   8.814  12.515   1.810 -1.1967 -2.9779 -1.0565
  634MOL0     H85559   8.635  12.533   1.820  0.9588  1.8622 -2.6336
  634MOL0     H85560   8.855  12.548   2.044  1.6331 -0.5035 -2.4564
  634MOL0     H85561   8.690  12.515   2.081  1.8398 -1.6621  0.3899
  634MOL0     H85562   8.781  12.772   1.948 -2.7907  0.6498 -1.3819
  634MOL0     H85563   8.779  12.755   2.125 -2.0233  0.3085  0.7967
  634MOL0     H85564   8.569  12.837   1.952  0.7138 -0.3325  0.2980
  634MOL0     H85565   8.534  12.676   1.992 -0.4041  0.3201  0.1123
  634MOL0     H85566   8.524  12.726   2.237  1.4035 -0.9232 -0.6415
  634MOL0     H85567   8.415  12.830   2.132  1.3765 -0.1945 -3.1270
  634MOL0     H85568   8.624  13.000   2.138 -0.5170  0.2513  0.6379
  634MOL0     H85569   8.505  12.995   2.269  1.8997  2.3810 -1.2077
  634MOL0     H85570   8.252  12.390   1.837  0.7199 -0.8996  0.3204
  634MOL0     H85571   8.046  12.270   1.886  0.7483  1.6205 -0.6151
  634MOL0     H85572   7.891  11.898   2.429  0.9356 -0.1599  1.0480
  634MOL0     H85573   7.696  11.769   2.432 -2.5894 -0.1965 -0.2861
  634MOL0     H85574   7.484  11.252   3.536 -3.2069  1.3801  3.4350
  634MOL0     H85575   7.696  11.153   3.455 -1.9592  3.8168  0.1434
  634MOL0     H85576   7.989  10.974   3.437 -0.1076  1.1707  1.7864
  634MOL0     H85577   8.177  10.926   3.303  1.2664  1.4236 -0.1091
  634MOL0     H85578   8.481  10.743   3.207 -0.8543 -3.5973  0.2487
  634MOL0     H85579   8.373  10.872   3.233 -0.1259  0.5706 -0.7771
  634MOL0     H85580   8.335  10.772   3.017 -0.5757  1.4030 -1.0403
  634MOL0     H85581   8.189  10.752   3.100  0.1607 -1.9749 -0.2800
  634MOL0     H85582   8.225  10.554   2.994  0.8949 -2.2547  0.1848
  634MOL0     H85583   8.267  10.524   3.163 -0.4680  1.4245  0.9506
  634MOL0     H85584   8.467  10.583   2.954 -1.2724 -1.9769 -0.7976
  634MOL0     H85585   8.511  10.545   3.116 -0.4590  1.4162 -0.8349
  634MOL0     H85586   8.473  10.153   2.969 -0.8798 -1.7573  2.3947
  634MOL0     H85587   8.205  10.526   3.503  0.1034  0.4060  1.4995
  634MOL0     H85588   7.870  10.491   3.552 -0.5947 -2.4685  2.5789
  634MOL0     H85589   8.032  10.429   3.595 -0.5050 -0.6490  1.3445
  634MOL0     H85590   7.941  10.542   3.696  1.8328 -0.8110  0.6580
  635MOL0     O85591   4.350   1.850   4.811 -0.0101  0.1170 -0.3186
  635MOL0     C85592   4.254   1.770   4.821 -0.0684  1.4205 -0.1979
  635MOL0     O85593   4.267   1.646   4.879  0.2008  0.1402 -0.2830
  635MOL0     C85594   4.388   1.586   4.878  0.2558  0.5443 -0.3132
  635MOL0     C85595   4.438   1.534   4.758  0.2379  0.1559  1.4630
  635MOL0     C85596   4.560   1.463   4.771 -0.3342 -0.2793 -1.2902
  635MOL0     C85597   4.632   1.445   4.891 -0.0787  0.0993 -0.1353
  635MOL0     O85598   4.737   1.356   4.901 -0.4189 -0.1224 -0.3462
  635MOL0     C85599   4.822   1.323   4.794 -0.1522 -0.1892 -0.3572
  635MOL0     C85600   4.949   1.259   4.856 -0.8592 -0.2010 -0.6765
  635MOL0     C85601   5.038   1.209   4.748  0.4448 -0.7031 -0.0350
  635MOL0     C85602   5.091   1.068   4.777  0.2844 -0.1170  0.9052
  635MOL0     C85603   5.157   1.001   4.653 -0.0577  0.6547  0.1765
  635MOL0     C85604   5.218   0.860   4.690 -0.1793  0.4065  0.4742
  635MOL0     C85605   5.264   0.789   4.558  0.2763  0.4357 -0.1281
  635MOL0     C85606   5.299   0.638   4.587 -0.0387 -0.4024 -0.3369
  635MOL0     N85607   5.181   0.555   4.621  0.0651 -0.2497  0.1360
  635MOL0     C85608   5.121   0.468   4.537 -0.0619 -0.1269  1.4495
  635MOL0     C85609   5.011   0.423   4.591 -0.3863 -0.1863  0.2380
  635MOL0     C85610   4.917   0.337   4.519 -0.4533  0.3522  0.7950
  635MOL0     C85611   4.766   0.382   4.521  0.0674 -0.9146 -0.1412
  635MOL0     C85612   4.736   0.532   4.522 -0.2222  0.0855  0.9178
  635MOL0     C85613   4.815   0.616   4.424  1.0087  0.1672  0.4983
  635MOL0     O85614   4.818   0.548   4.294 -0.1650  0.5262 -1.0449
  635MOL0     C85615   4.719   0.582   4.208 -1.0466 -0.0940  1.2627
  635MOL0     C85616   4.593   0.525   4.202 -0.0900 -0.0903  0.2693
  635MOL0     C85617   4.495   0.575   4.112 -0.1570 -0.5395  0.1424
  635MOL0     C85618   4.514   0.682   4.035 -0.0962 -1.0516  0.1421
  635MOL0     C85619   4.411   0.723   3.939  0.0923 -0.9108 -0.3117
  635MOL0     O85620   4.279   0.679   3.960  0.4772  0.0067 -0.0403
  635MOL0     C85621   4.183   0.722   3.869  0.1988  0.4097 -0.6228
  635MOL0     C85622   4.143   0.852   3.862 -0.0197 -0.0985  0.7367
  635MOL0     C85623   4.052   0.901   3.769 -0.2153 -0.7532  0.1484
  635MOL0     C85624   4.018   0.828   3.666 -0.5777  0.0403  0.3567
  635MOL0     O85625   3.947   0.877   3.563 -0.4049 -0.2970  0.6448
  635MOL0     C85626   4.029   0.959   3.483 -0.5735 -0.9789 -0.4812
  635MOL0     C85627   3.968   1.017   3.358 -0.0117 -0.4893  0.8047
  635MOL0     C85628   4.071   1.100   3.274 -0.2707 -0.7211 -0.9978
  635MOL0     C85629   3.995   1.183   3.169 -1.2660  0.2751 -0.6404
  635MOL0     C85630   4.085   1.239   3.058  0.3298  0.3494  0.9734
  635MOL0     C85631   4.141   1.114   2.969 -0.0693  0.0536 -0.1865
  635MOL0     C85632   4.241   1.156   2.865  1.0291  0.3465  0.4774
  635MOL0     C85633   4.312   1.033   2.807  0.2955 -0.1244 -0.5235
  635MOL0    Cl85634   4.200   0.963   2.691  0.2535 -0.0641  0.3506
  635MOL0     C85635   4.067   0.689   3.662  0.6336  0.2259  0.2085
  635MOL0     C85636   4.143   0.640   3.766 -0.8806 -0.6026 -0.7303
  635MOL0     O85637   4.441   0.801   3.847 -0.5132 -1.7504  0.9604
  635MOL0     C85638   4.644   0.739   4.039 -0.8127 -0.2622  0.9221
  635MOL0     C85639   4.749   0.680   4.111 -0.4310 -0.2361 -0.3088
  635MOL0     N85640   5.001   0.471   4.724  0.7363 -0.5867 -0.2861
  635MOL0     N85641   5.106   0.551   4.735  0.4013  0.3931 -0.5887
  635MOL0     C85642   4.577   1.505   4.999 -0.7274  0.0821 -1.0139
  635MOL0     C85643   4.456   1.579   4.996  0.1924 -0.5369 -0.6988
  635MOL0     C85644   4.123   1.800   4.778  0.1548 -0.1000  0.3470
  635MOL0     C85645   4.059   1.899   4.852  0.4616  0.4462 -0.1847
  635MOL0     C85646   3.928   1.937   4.822  0.4926  0.4779 -0.8449
  635MOL0     C85647   3.858   1.875   4.725  0.2471  0.4000  0.0276
  635MOL0     O85648   3.730   1.895   4.710 -0.2138 -0.7671 -0.9088
  635MOL0     C85649   3.646   1.981   4.788 -0.7134  0.3569 -0.1913
  635MOL0     C85650   3.621   1.933   4.937 -0.4502  0.5759  0.3886
  635MOL0     C85651   3.715   1.980   5.044 -0.5859  0.0334 -0.5582
  635MOL0     C85652   3.645   1.951   5.180 -0.7134 -0.1094  0.1245
  635MOL0     C85653   3.534   2.032   5.211  0.8947  0.4629 -0.8284
  635MOL0     C85654   3.441   2.106   5.248  0.1280  0.0484  0.2236
  635MOL0     C85655   3.915   1.768   4.648 -0.5168 -0.6620 -0.3142
  635MOL0     C85656   4.049   1.726   4.674  1.2525  0.8904  0.5067
  635MOL0     C85657   4.090   1.616   4.587  0.1238  0.3335 -0.0587
  635MOL0     H85658   4.380   1.535   4.666 -1.7381 -1.7713  2.5834
  635MOL0     H85659   4.605   1.426   4.680 -0.9397  0.3717 -1.8573
  635MOL0     H85660   4.770   1.238   4.748  0.0091 -0.8830  0.7015
  635MOL0     H85661   4.836   1.405   4.722  0.0316  2.5480  2.5728
  635MOL0     H85662   4.925   1.182   4.929 -1.0540  1.4718  1.0946
  635MOL0     H85663   5.004   1.336   4.910  0.1117 -1.0076 -0.4793
  635MOL0     H85664   5.121   1.279   4.743 -1.9842  2.3090 -1.5627
  635MOL0     H85665   4.984   1.205   4.653  0.5809 -2.8109 -0.0643
  635MOL0     H85666   5.168   1.078   4.854 -0.7218 -0.9582  2.0676
  635MOL0     H85667   5.012   1.000   4.810 -1.8995  1.4430 -0.8303
  635MOL0     H85668   5.078   0.973   4.583  0.5373 -3.1249  0.8219
  635MOL0     H85669   5.223   1.070   4.599 -2.6767  3.2273  0.0127
  635MOL0     H85670   5.305   0.877   4.754  0.4646  2.1622 -0.8055
  635MOL0     H85671   5.147   0.802   4.750 -1.6928  1.4076 -0.2718
  635MOL0     H85672   5.353   0.840   4.521 -0.5801  0.6844 -1.9769
  635MOL0     H85673   5.192   0.806   4.477  1.3569  1.6564 -0.8571
  635MOL0     H85674   5.335   0.599   4.492  2.8635 -1.8728  1.2280
  635MOL0     H85675   5.375   0.628   4.665 -0.7967  0.4411  0.5272
  635MOL0     H85676   5.167   0.444   4.442 -1.1454 -0.1768  0.9163
  635MOL0     H85677   4.944   0.328   4.413 -0.0990 -0.6116  0.9606
  635MOL0     H85678   4.939   0.237   4.556  1.8619  1.0703  1.5701
  635MOL0     H85679   4.725   0.333   4.432  0.1267 -1.3747  0.0813
  635MOL0     H85680   4.702   0.345   4.602  0.1038 -1.8330 -0.5182
  635MOL0     H85681   4.747   0.578   4.620  1.5252  2.5893 -0.3315
  635MOL0     H85682   4.630   0.539   4.499 -0.0039  0.8839  0.1029
  635MOL0     H85683   4.916   0.633   4.464  1.3552 -0.3505 -0.1289
  635MOL0     H85684   4.751   0.704   4.413  1.6625  0.5692 -0.2688
  635MOL0     H85685   4.567   0.446   4.270 -0.0100 -0.0082  0.3953
  635MOL0     H85686   4.407   0.513   4.105 -1.4259  1.3662 -4.1245
  635MOL0     H85687   4.185   0.914   3.941  0.0616 -0.4084  0.9356
  635MOL0     H85688   3.989   0.989   3.783 -3.6875 -3.4634  3.7078
  635MOL0     H85689   4.068   1.043   3.539 -0.2357 -0.7085 -1.1081
  635MOL0     H85690   4.113   0.895   3.453  0.1082 -0.5299  0.4223
  635MOL0     H85691   3.925   0.938   3.296  1.6806 -0.2814 -0.7324
  635MOL0     H85692   3.886   1.077   3.397  0.3698  0.2025  0.5569
  635MOL0     H85693   4.119   1.174   3.339 -0.1195 -0.5081 -1.3497
  635MOL0     H85694   4.147   1.033   3.233  1.4580 -1.3367  2.7783
  635MOL0     H85695   3.955   1.267   3.226  0.1366  1.3505 -1.1786
  635MOL0     H85696   3.911   1.132   3.122 -1.4391  0.3449 -0.4108
  635MOL0     H85697   4.172   1.281   3.108  1.3154 -2.1689  1.5367
  635MOL0     H85698   4.035   1.303   2.985  0.5947 -2.7619 -2.2243
  635MOL0     H85699   4.191   1.040   3.031  1.6103  0.3130 -1.1579
  635MOL0     H85700   4.060   1.057   2.924  0.8916 -1.4449 -0.0631
  635MOL0     H85701   4.300   1.239   2.904 -1.5886  2.0871  1.0123
  635MOL0     H85702   4.185   1.195   2.779 -0.3599  0.0308  1.2090
  635MOL0     H85703   4.399   1.065   2.750 -0.5539  2.4328 -0.5255
  635MOL0     H85704   4.358   0.971   2.884  2.6210  0.7768 -1.1122
  635MOL0     H85705   4.052   0.614   3.585 -0.1458  0.0927  0.4858
  635MOL0     H85706   4.185   0.540   3.763  0.0624 -0.2098 -0.9057
  635MOL0     H85707   4.650   0.828   3.978 -1.5840 -0.1675  0.9771
  635MOL0     H85708   4.851   0.718   4.107  0.3851 -2.3493 -1.3190
  635MOL0     H85709   4.628   1.487   5.093 -4.0811  3.9230  1.8440
  635MOL0     H85710   4.417   1.630   5.084  1.5631 -0.9330  0.1586
  635MOL0     H85711   4.114   1.944   4.934 -0.3758 -0.7369  1.0897
  635MOL0     H85712   3.890   2.020   4.881 -0.7953  1.8787 -3.4849
  635MOL0     H85713   3.550   1.986   4.736 -1.5877  0.7367  1.3841
  635MOL0     H85714   3.686   2.082   4.794 -0.0382  0.1587 -1.1643
  635MOL0     H85715   3.630   1.824   4.932 -6.7340 -0.2756 -1.5661
  635MOL0     H85716   3.517   1.940   4.970 -1.3061  0.0093 -1.9888
  635MOL0     H85717   3.737   2.087   5.041 -0.8661  0.0691 -2.1370
  635MOL0     H85718   3.804   1.916   5.040 -0.5275 -0.1352  1.8242
  635MOL0     H85719   3.620   1.845   5.189  0.8588 -0.3236  2.6534
  635MOL0     H85720   3.723   1.968   5.254  0.9175  0.9455 -1.7375
  635MOL0     H85721   3.354   2.164   5.273  0.3319 -0.9585  3.7540
  635MOL0     H85722   3.863   1.743   4.556  0.7300  1.0772 -1.5792
  635MOL0     H85723   4.197   1.612   4.566 -0.4553 -1.2622 -3.4346
  635MOL0     H85724   4.063   1.523   4.639  0.0616 -0.7863 -1.9626
  635MOL0     H85725   4.043   1.607   4.488  0.8114  0.6678 -0.4189
  636MOL0     O85726   5.217   5.784   5.021 -0.4268 -0.0181  0.9101
  636MOL0     C85727   5.271   5.839   5.111  0.1071 -0.3922  0.7343
  636MOL0     O85728   5.312   5.981   5.105  0.3820  0.9527 -0.2434
  636MOL0     C85729   5.301   6.067   4.996  0.6930  0.3321 -0.2727
  636MOL0     C85730   5.213   6.051   4.889  0.1804  0.5137 -0.8064
  636MOL0     C85731   5.212   6.135   4.780  0.3302  0.5097 -0.5850
  636MOL0     C85732   5.300   6.252   4.784 -0.5579 -0.0404 -0.6269
  636MOL0     O85733   5.308   6.354   4.682  0.0930 -0.8006  1.2857
  636MOL0     C85734   5.272   6.313   4.550  0.3831 -0.5932 -0.7154
  636MOL0     C85735   5.314   6.427   4.465  0.3675  0.6088 -0.2032
  636MOL0     C85736   5.261   6.423   4.326 -0.1798  0.0204  0.6603
  636MOL0     C85737   5.340   6.520   4.230  1.1656 -0.1617 -0.1510
  636MOL0     C85738   5.292   6.546   4.092  0.3197  0.6261  0.2774
  636MOL0     C85739   5.147   6.609   4.089 -0.5994  0.3791  0.0519
  636MOL0     C85740   5.115   6.615   3.943  0.5460  0.1814 -0.1908
  636MOL0     C85741   4.975   6.663   3.917  0.6697 -0.5897  0.4361
  636MOL0     N85742   4.948   6.664   3.777 -0.3949  0.7299  1.5139
  636MOL0     C85743   4.845   6.600   3.712 -0.3120 -0.3206 -0.0696
  636MOL0     C85744   4.821   6.688   3.605 -0.2272  0.0807  0.2540
  636MOL0     C85745   4.714   6.674   3.493 -0.1867  0.4329 -0.7800
  636MOL0     C85746   4.603   6.780   3.527 -0.0488  0.2449  1.1213
  636MOL0     C85747   4.475   6.766   3.441  1.2943  0.2959 -0.6473
  636MOL0     C85748   4.503   6.722   3.302  0.4297  0.7161  1.6493
  636MOL0     O85749   4.608   6.800   3.234 -0.1858  0.1830 -0.1843
  636MOL0     C85750   4.586   6.876   3.119 -0.1027  0.8396  0.0354
  636MOL0     C85751   4.692   6.916   3.041  0.3400 -0.7244  0.3649
  636MOL0     C85752   4.665   6.980   2.923 -0.5293  0.7842 -0.2630
  636MOL0     C85753   4.536   7.009   2.871  0.7828 -0.8506 -0.5987
  636MOL0     C85754   4.512   7.063   2.738 -0.0647 -0.3429  0.3758
  636MOL0     O85755   4.621   7.108   2.658 -0.1894 -0.1448 -0.1505
  636MOL0     C85756   4.595   7.171   2.534  0.0681  0.2525 -0.3178
  636MOL0     C85757   4.649   7.109   2.419  0.9769 -0.0452 -0.3181
  636MOL0     C85758   4.630   7.170   2.295  0.7800  0.2155  0.4687
  636MOL0     C85759   4.556   7.289   2.293  0.6272  0.4093 -0.8568
  636MOL0     O85760   4.525   7.340   2.171 -0.2936  0.0943 -0.2400
  636MOL0     C85761   4.405   7.274   2.126  0.1159 -0.0651  0.3483
  636MOL0     C85762   4.394   7.296   1.980 -0.1856 -0.0426  0.7300
  636MOL0     C85763   4.507   7.237   1.891 -0.0511 -0.1490  1.1847
  636MOL0     C85764   4.496   7.086   1.895 -0.2871  1.1709  0.6908
  636MOL0     C85765   4.621   7.030   1.820  0.5761  0.4096 -0.4571
  636MOL0     C85766   4.624   6.883   1.799 -0.6590  0.3838  1.5911
  636MOL0     C85767   4.740   6.830   1.709  0.8893 -0.0654 -0.5103
  636MOL0     C85768   4.761   6.876   1.564 -1.4615 -0.2100 -0.0776
  636MOL0    Cl85769   4.865   6.770   1.481  0.1460 -0.2205 -0.1761
  636MOL0     C85770   4.512   7.347   2.410  0.4376 -0.4578 -0.4040
  636MOL0     C85771   4.515   7.282   2.537  0.7849  0.1253  0.0673
  636MOL0     O85772   4.399   7.065   2.709  0.7559 -0.1269 -0.0406
  636MOL0     C85773   4.428   6.980   2.956 -0.0081  0.4696 -0.7935
  636MOL0     C85774   4.459   6.920   3.081  0.4675  0.0359 -0.1185
  636MOL0     N85775   4.900   6.805   3.614  0.0714 -0.1960  0.0119
  636MOL0     N85776   4.984   6.777   3.713  0.1677 -0.3253 -1.0377
  636MOL0     C85777   5.394   6.269   4.886 -0.7927 -0.0913 -0.6603
  636MOL0     C85778   5.393   6.173   4.988 -0.1553  0.5528  0.1404
  636MOL0     C85779   5.299   5.762   5.238 -0.1289 -0.6975  0.6551
  636MOL0     C85780   5.374   5.822   5.338 -0.1457 -1.1654 -0.7554
  636MOL0     C85781   5.421   5.749   5.439 -0.0764  0.1124  0.3196
  636MOL0     C85782   5.391   5.612   5.463  0.1817  0.2562  0.0071
  636MOL0     O85783   5.456   5.540   5.561  0.4647 -0.2650  1.2135
  636MOL0     C85784   5.378   5.522   5.676  1.2471  0.1575  0.0656
  636MOL0     C85785   5.454   5.511   5.808  0.7890  0.0833  0.2541
  636MOL0     C85786   5.572   5.412   5.793 -0.2861  0.6091 -0.5650
  636MOL0     C85787   5.666   5.414   5.916 -0.3441  0.3454  0.0600
  636MOL0     C85788   5.649   5.307   6.008 -0.7201 -0.3074  0.2372
  636MOL0     C85789   5.652   5.224   6.096  0.3833  0.3797 -0.4212
  636MOL0     C85790   5.316   5.552   5.369 -0.1397  0.4402  0.1618
  636MOL0     C85791   5.263   5.622   5.258  0.3381  0.5052 -0.3514
  636MOL0     C85792   5.171   5.536   5.164  0.4539 -0.2516 -0.5055
  636MOL0     H85793   5.144   5.967   4.890 -0.5328  1.0068  2.2472
  636MOL0     H85794   5.136   6.124   4.704 -0.0694  1.8736 -0.4263
  636MOL0     H85795   5.325   6.223   4.518  1.1594  0.4146 -2.4366
  636MOL0     H85796   5.166   6.289   4.545  0.2780 -0.9896  1.9392
  636MOL0     H85797   5.423   6.422   4.461  0.3610 -3.6013 -0.0913
  636MOL0     H85798   5.287   6.517   4.520 -1.1420 -2.2951  4.4024
  636MOL0     H85799   5.161   6.463   4.310  0.4584  0.7409 -2.1856
  636MOL0     H85800   5.259   6.318   4.296 -4.7409 -0.4296  1.8246
  636MOL0     H85801   5.342   6.619   4.276 -0.7124  0.1261 -0.6061
  636MOL0     H85802   5.443   6.485   4.232  1.1642 -0.1639 -0.1406
  636MOL0     H85803   5.361   6.612   4.040 -0.6048  1.4616  0.0784
  636MOL0     H85804   5.298   6.455   4.032  2.9801  0.7934  0.1843
  636MOL0     H85805   5.080   6.541   4.142 -1.9800  0.3576 -1.6481
  636MOL0     H85806   5.151   6.708   4.136 -0.9975 -0.1553  1.2407
  636MOL0     H85807   5.126   6.520   3.891  2.5176 -0.3680  1.1056
  636MOL0     H85808   5.190   6.678   3.892  1.2835 -2.0566 -2.0427
  636MOL0     H85809   4.899   6.598   3.960  0.7598 -0.7718  0.3183
  636MOL0     H85810   4.953   6.767   3.943  0.7694 -0.5678  0.4344
  636MOL0     H85811   4.785   6.513   3.736 -1.5068  0.5371  0.1856
  636MOL0     H85812   4.772   6.686   3.402  2.5657  0.3293  0.8490
  636MOL0     H85813   4.661   6.578   3.496  0.4987 -0.1806  5.6119
  636MOL0     H85814   4.568   6.766   3.630  0.2211  1.4222  1.3785
  636MOL0     H85815   4.647   6.879   3.514  2.1144 -0.7002  0.7106
  636MOL0     H85816   4.409   6.853   3.436 -1.2972 -1.5997 -2.7730
  636MOL0     H85817   4.412   6.689   3.487  3.6086 -0.5436  1.3452
  636MOL0     H85818   4.419   6.723   3.231  1.1383  4.0531  0.6810
  636MOL0     H85819   4.526   6.616   3.311  0.8923 -0.0596 -4.3809
  636MOL0     H85820   4.795   6.888   3.063  1.0481  2.2532  1.4425
  636MOL0     H85821   4.759   7.000   2.871 -1.0378  2.9373 -0.4410
  636MOL0     H85822   4.712   7.024   2.444  1.9223  1.3508  2.5075
  636MOL0     H85823   4.656   7.134   2.196  4.0302  1.4571  0.7595
  636MOL0     H85824   4.406   7.165   2.138 -3.4353 -0.6871 -3.0393
  636MOL0     H85825   4.316   7.310   2.180 -0.3580 -0.2093 -0.3255
  636MOL0     H85826   4.305   7.252   1.933  0.3124  0.1779 -0.4564
  636MOL0     H85827   4.409   7.402   1.957 -1.4251 -0.0631 -0.3264
  636MOL0     H85828   4.501   7.275   1.788  3.0427 -0.9508  0.5801
  636MOL0     H85829   4.599   7.273   1.938 -0.7051  0.9610  1.6608
  636MOL0     H85830   4.406   7.044   1.850 -0.1919  1.1872  0.4801
  636MOL0     H85831   4.503   7.029   1.989  1.1089  0.7219  0.3443
  636MOL0     H85832   4.709   7.062   1.878 -0.5718  2.1222  0.4021
  636MOL0     H85833   4.606   7.080   1.724  0.6005 -0.1450 -0.7520
  636MOL0     H85834   4.620   6.823   1.890 -0.1512 -0.7972  0.8627
  636MOL0     H85835   4.536   6.863   1.737 -0.5485  2.2422  0.7919
  636MOL0     H85836   4.711   6.726   1.691 -0.0643  0.2738 -1.0356
  636MOL0     H85837   4.830   6.846   1.769 -0.2685  2.3205  0.7389
  636MOL0     H85838   4.663   6.883   1.516 -2.2563  1.7174  1.6494
  636MOL0     H85839   4.798   6.979   1.559 -3.3422  0.4578 -3.2189
  636MOL0     H85840   4.456   7.439   2.395  1.1854 -0.3731 -3.2889
  636MOL0     H85841   4.479   7.333   2.625 -1.9253 -1.8695  0.2349
  636MOL0     H85842   4.325   7.002   2.930  0.4159  3.0229 -0.6044
  636MOL0     H85843   4.367   6.896   3.134 -1.4498 -0.4670 -3.3821
  636MOL0     H85844   5.464   6.352   4.894  0.3184 -1.1966  2.0173
  636MOL0     H85845   5.464   6.185   5.069  1.0898  2.0076 -1.1109
  636MOL0     H85846   5.389   5.929   5.341 -2.5793 -0.7758  0.9797
  636MOL0     H85847   5.480   5.797   5.517  0.6799  0.6773 -0.5895
  636MOL0     H85848   5.324   5.430   5.652  0.2326 -0.0680  2.8414
  636MOL0     H85849   5.292   5.589   5.685  1.7643  0.6603  1.5563
  636MOL0     H85850   5.385   5.477   5.886  2.3897  1.3051  2.3541
  636MOL0     H85851   5.502   5.605   5.839 -0.6371  0.9451 -0.0720
  636MOL0     H85852   5.632   5.434   5.704 -2.7147  2.7615 -1.8037
  636MOL0     H85853   5.534   5.311   5.771 -0.4609  1.1293 -2.9636
  636MOL0     H85854   5.769   5.420   5.880 -0.0106 -3.6293 -0.0923
  636MOL0     H85855   5.652   5.506   5.974 -0.7975 -0.7355  1.7287
  636MOL0     H85856   5.663   5.172   6.189 -1.7363  0.5912 -0.0119
  636MOL0     H85857   5.287   5.452   5.399 -0.3964  0.9228  1.6584
  636MOL0     H85858   5.212   5.499   5.069  1.3270 -1.9111  0.4875
  636MOL0     H85859   5.131   5.450   5.219  0.6040  2.1103  3.7054
  636MOL0     H85860   5.077   5.591   5.150  1.7713  1.4398 -3.6928
  637MOL0     O85861   7.816   4.143   5.378 -0.2404 -1.1527 -0.0355
  637MOL0     C85862   7.725   4.074   5.426  0.6346 -0.8884 -0.1476
  637MOL0     O85863   7.660   3.974   5.355 -0.4234 -0.1249 -0.2715
  637MOL0     C85864   7.702   3.955   5.229 -0.2176 -0.2122  0.7160
  637MOL0     C85865   7.829   3.909   5.197 -0.3843 -1.1585 -0.1601
  637MOL0     C85866   7.860   3.925   5.066 -0.5014  0.2131 -0.1340
  637MOL0     C85867   7.768   3.960   4.962  0.3072  0.2464  0.1360
  637MOL0     O85868   7.791   3.977   4.832  0.2993 -0.7761  0.1241
  637MOL0     C85869   7.916   3.949   4.777 -0.7266 -0.0553  0.1464
  637MOL0     C85870   7.984   4.090   4.754  0.4376 -0.2217 -0.2380
  637MOL0     C85871   7.961   4.166   4.620 -0.2655  0.1414  0.3080
  637MOL0     C85872   8.063   4.123   4.513 -0.1498 -0.0294  0.9048
  637MOL0     C85873   8.011   4.149   4.377 -0.3681  0.0605  0.0142
  637MOL0     C85874   7.952   4.287   4.357 -0.5586  0.3900  0.5436
  637MOL0     C85875   7.914   4.322   4.216  0.7806 -0.9595  0.4218
  637MOL0     C85876   7.863   4.469   4.194  0.1115  1.2398 -1.1952
  637MOL0     N85877   7.720   4.484   4.210  1.1145 -0.5623 -0.0562
  637MOL0     C85878   7.625   4.469   4.115  0.2966 -0.3470 -0.3424
  637MOL0     C85879   7.501   4.507   4.172  0.0358 -0.7796 -1.0535
  637MOL0     C85880   7.355   4.492   4.126 -0.5482 -0.7232  0.5864
  637MOL0     C85881   7.324   4.579   4.012 -0.9861 -1.3823 -0.1550
  637MOL0     C85882   7.322   4.722   4.061  0.3212  0.1920  0.3238
  637MOL0     C85883   7.237   4.791   3.965 -0.0270  0.4605  0.8765
  637MOL0     O85884   7.186   4.909   4.024 -0.5061 -0.0359  0.1487
  637MOL0     C85885   7.132   5.000   3.939 -0.6975 -0.6027  0.9315
  637MOL0     C85886   7.123   5.128   3.984  1.2913 -0.5680 -0.4200
  637MOL0     C85887   7.094   5.232   3.900 -0.1384 -0.6524 -0.3421
  637MOL0     C85888   7.063   5.209   3.765 -0.7357 -0.6173  0.2750
  637MOL0     C85889   7.055   5.321   3.670  0.2601 -0.6506  0.4103
  637MOL0     O85890   6.976   5.322   3.552 -0.4377  1.1652 -0.2668
  637MOL0     C85891   6.995   5.419   3.456  0.6460  0.2539 -0.6824
  637MOL0     C85892   6.989   5.559   3.484 -1.1085  0.3890 -0.7908
  637MOL0     C85893   7.021   5.644   3.370 -0.2978  0.2841  0.0078
  637MOL0     C85894   7.048   5.590   3.242  0.2380  0.0149 -0.0530
  637MOL0     O85895   7.080   5.670   3.140  0.6712  1.0666 -0.3874
  637MOL0     C85896   7.172   5.780   3.164 -0.1189 -1.1124  0.7895
  637MOL0     C85897   7.314   5.742   3.132 -0.3684  0.0705 -0.0883
  637MOL0     C85898   7.335   5.666   3.003 -0.8763 -0.2028 -0.0604
  637MOL0     C85899   7.479   5.637   2.986  0.2547 -0.2599  0.2889
  637MOL0     C85900   7.499   5.598   2.833 -0.3681 -0.1129  0.8616
  637MOL0     C85901   7.643   5.582   2.809 -0.7868  0.1349 -1.3380
  637MOL0     C85902   7.696   5.579   2.663 -0.2573 -0.2698 -0.5699
  637MOL0     C85903   7.845   5.585   2.655  0.0575 -0.1624 -0.1568
  637MOL0    Cl85904   7.928   5.457   2.756  0.2217 -0.0990 -0.0397
  637MOL0     C85905   7.033   5.449   3.219 -0.0983 -1.0063 -0.3757
  637MOL0     C85906   7.009   5.365   3.323  0.0275  0.6911 -0.7297
  637MOL0     O85907   7.130   5.413   3.700  0.8394  0.7038 -0.1306
  637MOL0     C85908   7.073   5.084   3.714  0.4617  0.2610  0.2676
  637MOL0     C85909   7.102   4.973   3.795 -0.5465 -1.1191 -0.7918
  637MOL0     N85910   7.537   4.546   4.300  0.6439 -0.6066  1.0235
  637MOL0     N85911   7.661   4.527   4.329 -0.6412 -0.2216  0.2680
  637MOL0     C85912   7.641   4.002   5.000  0.2835 -0.1904  0.3306
  637MOL0     C85913   7.604   3.992   5.128  0.5502 -0.0548 -0.3307
  637MOL0     C85914   7.705   4.091   5.578  0.4661 -0.0068 -0.6012
  637MOL0     C85915   7.768   4.200   5.653  1.1073 -0.1415  0.4383
  637MOL0     C85916   7.752   4.197   5.792 -0.1170  0.3338 -0.0334
  637MOL0     C85917   7.686   4.101   5.871 -0.9934 -0.7429  0.3161
  637MOL0     O85918   7.678   4.099   6.006  0.6409 -0.0304 -0.0503
  637MOL0     C85919   7.729   4.210   6.090  1.1588  0.1424  0.5493
  637MOL0     C85920   7.692   4.195   6.241 -0.0869  0.6115  0.3979
  637MOL0     C85921   7.544   4.200   6.267 -0.2880  0.1977 -0.4686
  637MOL0     C85922   7.499   4.234   6.405  0.1452 -0.7365  0.0463
  637MOL0     C85923   7.565   4.156   6.507  0.2866 -0.0089  0.3180
  637MOL0     C85924   7.605   4.097   6.609  0.2316 -0.6289  0.2120
  637MOL0     C85925   7.630   3.994   5.787  0.2172  0.1872 -0.1865
  637MOL0     C85926   7.632   3.987   5.648 -0.2139  0.0255 -0.1890
  637MOL0     C85927   7.571   3.859   5.589 -0.8326 -0.2666  0.3136
  637MOL0     H85928   7.903   3.873   5.268  0.5668 -0.2388 -0.6634
  637MOL0     H85929   7.964   3.903   5.042 -0.2163 -0.9611  1.9655
  637MOL0     H85930   7.976   3.886   4.844 -1.2955  0.0044  0.7195
  637MOL0     H85931   7.909   3.912   4.675 -0.1038  1.5514 -0.5086
  637MOL0     H85932   8.092   4.071   4.766  0.1644 -1.0784  1.1920
  637MOL0     H85933   7.943   4.158   4.829  0.8133  0.7247 -0.8633
  637MOL0     H85934   7.943   4.274   4.629  0.5701  0.3878 -0.6993
  637MOL0     H85935   7.863   4.128   4.591 -0.3799  1.8669 -1.8100
  637MOL0     H85936   8.150   4.187   4.527 -0.8906  0.8828  1.4783
  637MOL0     H85937   8.081   4.015   4.524 -0.3069 -0.0439  1.0246
  637MOL0     H85938   8.093   4.133   4.306 -0.6127 -2.7805  0.2675
  637MOL0     H85939   7.932   4.077   4.356 -0.6362  0.2811  0.2456
  637MOL0     H85940   7.855   4.289   4.409 -1.9847  3.0074 -1.9172
  637MOL0     H85941   8.017   4.358   4.408  0.4685  0.1628 -0.4080
  637MOL0     H85942   7.841   4.247   4.184 -0.2821 -0.6536  2.0348
  637MOL0     H85943   8.006   4.317   4.157  3.0984  2.0061  3.3879
  637MOL0     H85944   7.910   4.531   4.271  0.6413 -0.8022  0.2135
  637MOL0     H85945   7.886   4.501   4.092  4.9090  1.9233 -0.1560
  637MOL0     H85946   7.637   4.416   4.021 -2.2496  1.1448 -1.6286
  637MOL0     H85947   7.345   4.387   4.095 -3.3843 -0.7396  1.3342
  637MOL0     H85948   7.278   4.501   4.203 -0.8381  3.5437 -0.0092
  637MOL0     H85949   7.387   4.570   3.923 -1.1113  1.4709 -0.6390
  637MOL0     H85950   7.222   4.549   3.989 -1.3123 -0.4578  0.0355
  637MOL0     H85951   7.424   4.759   4.075  1.4438 -1.4195 -2.5388
  637MOL0     H85952   7.266   4.725   4.154  0.9125 -0.1629  0.6944
  637MOL0     H85953   7.149   4.732   3.941 -0.7242  1.7035  0.3161
  637MOL0     H85954   7.293   4.822   3.876 -1.7669  1.0873 -0.0279
  637MOL0     H85955   7.130   5.150   4.090  0.2425 -0.3262 -0.3841
  637MOL0     H85956   7.103   5.330   3.946 -0.2645 -1.3154  1.1674
  637MOL0     H85957   6.954   5.589   3.582  1.0603 -2.6571  1.1064
  637MOL0     H85958   7.018   5.752   3.379  3.2916  0.8002 -2.8631
  637MOL0     H85959   7.144   5.858   3.092 -2.1413 -4.1991 -2.0964
  637MOL0     H85960   7.157   5.818   3.265 -1.0524  1.2890 -0.1749
  637MOL0     H85961   7.377   5.831   3.123 -0.9758  0.7131  1.5522
  637MOL0     H85962   7.351   5.675   3.210 -0.2592  0.3364  0.0901
  637MOL0     H85963   7.283   5.570   2.996 -1.8071  0.4095 -2.4093
  637MOL0     H85964   7.304   5.728   2.918 -1.3953 -0.6726 -0.2174
  637MOL0     H85965   7.493   5.553   3.055  1.0095  1.7150  2.6576
  637MOL0     H85966   7.536   5.719   3.030 -0.8824  0.4747  0.4192
  637MOL0     H85967   7.463   5.673   2.761 -1.1066 -0.5396  0.7703
  637MOL0     H85968   7.455   5.500   2.811 -0.6691  0.3890 -0.9668
  637MOL0     H85969   7.694   5.669   2.853  4.0306 -2.5295 -0.8909
  637MOL0     H85970   7.668   5.487   2.856 -1.2091  0.1249 -1.1315
  637MOL0     H85971   7.670   5.668   2.604  2.3018 -1.5383 -3.9357
  637MOL0     H85972   7.645   5.501   2.607 -0.5665 -0.9105  0.5726
  637MOL0     H85973   7.874   5.582   2.550 -2.0238  1.1461 -0.8409
  637MOL0     H85974   7.873   5.685   2.690 -0.9085  0.6411 -1.5634
  637MOL0     H85975   7.054   5.422   3.116 -0.7168  0.7778 -1.0180
  637MOL0     H85976   7.011   5.256   3.319  1.6848  0.5021  2.1898
  637MOL0     H85977   7.060   5.077   3.606  0.2049  1.0993  0.2401
  637MOL0     H85978   7.105   4.871   3.760  0.1476 -1.9301  1.4860
  637MOL0     H85979   7.575   4.052   4.929 -0.4702  1.9677  2.4381
  637MOL0     H85980   7.510   4.020   5.174  3.9204  2.6526  6.1394
  637MOL0     H85981   7.815   4.276   5.590 -3.4565 -0.8617 -4.6312
  637MOL0     H85982   7.815   4.278   5.829  2.1874 -0.4380 -1.9363
  637MOL0     H85983   7.702   4.309   6.052  2.1511  1.1857  2.3814
  637MOL0     H85984   7.838   4.212   6.077  1.0766 -0.1911 -0.2271
  637MOL0     H85985   7.744   4.277   6.292 -0.4116 -1.5774  4.6608
  637MOL0     H85986   7.732   4.102   6.284  0.8001  1.2559  1.0141
  637MOL0     H85987   7.506   4.104   6.232  1.9916 -1.5745  1.5007
  637MOL0     H85988   7.512   4.288   6.211  1.6010  1.8955  0.9654
  637MOL0     H85989   7.509   4.342   6.420  4.1891 -1.0302  0.6873
  637MOL0     H85990   7.391   4.218   6.410 -0.1797  0.6539 -1.4554
  637MOL0     H85991   7.655   4.034   6.681 -0.3421 -2.5684 -1.0186
  637MOL0     H85992   7.581   3.918   5.846  0.8001  0.1966  0.3205
  637MOL0     H85993   7.501   3.823   5.665 -1.6326  3.3618  1.4585
  637MOL0     H85994   7.518   3.878   5.495  2.1554  1.7534 -1.1152
  637MOL0     H85995   7.650   3.784   5.574 -2.4928 -2.5621  2.2946
  638MOL0     O85996   9.016   0.086   5.037  0.2227  0.6607  0.2571
  638MOL0     C85997   9.020   0.054   4.918 -0.7640 -0.2689 -1.1423
  638MOL0     O85998   9.117  -0.012   4.858 -0.1922  0.6887 -0.3947
  638MOL0     C85999   9.228  -0.035   4.938 -1.1327 -0.3417 -0.7373
  638MOL0     C86000   9.348   0.043   4.923  0.9247 -0.1229 -0.0069
  638MOL0     C86001   9.457   0.034   5.018 -0.6798  0.3673  0.4178
  638MOL0     C86002   9.453  -0.050   5.130  0.4890  0.2310 -0.5675
  638MOL0     O86003   9.534  -0.041   5.242  0.0928  0.1073  0.2084
  638MOL0     C86004   9.616   0.075   5.246  0.1186 -0.6352 -0.7070
  638MOL0     C86005   9.679   0.079   5.391  0.1696 -0.5935  0.1390
  638MOL0     C86006   9.785   0.179   5.408 -0.6324 -0.0610  0.2557
  638MOL0     C86007   9.779   0.254   5.533  0.1185  0.3638 -0.5632
  638MOL0     C86008   9.900   0.345   5.554 -0.1942  0.0820  0.4118
  638MOL0     C86009   9.899   0.430   5.679 -0.0959  0.3468  1.0415
  638MOL0     C86010   9.983   0.550   5.665 -0.0085  0.2165  0.0870
  638MOL0     C86011  10.126   0.487   5.675 -0.1691 -1.2886  0.8327
  638MOL0     N86012  10.213   0.597   5.702 -0.1630 -1.4232 -0.6019
  638MOL0     C86013  10.221   0.642   5.836  0.5010 -1.4407  0.2260
  638MOL0     C86014  10.276   0.768   5.823 -0.3782  1.3176  0.2114
  638MOL0     C86015  10.324   0.869   5.933  0.1816 -0.3883  0.1069
  638MOL0     C86016  10.465   0.929   5.905 -0.2433 -0.1026  0.5689
  638MOL0     C86017  10.461   1.069   5.970  0.8094 -0.2085 -0.2054
  638MOL0     C86018  10.514   1.187   5.883  0.7597 -0.3933 -0.0974
  638MOL0     O86019  10.511   1.310   5.958  0.3034  0.6510 -0.1362
  638MOL0     C86020  10.572   1.429   5.907 -0.7726  0.8118 -0.1962
  638MOL0     C86021  10.605   1.448   5.771 -0.4405 -0.2281 -0.7877
  638MOL0     C86022  10.658   1.572   5.726 -0.1835 -0.2382  0.2338
  638MOL0     C86023  10.672   1.688   5.815 -0.2326  0.3036  0.3844
  638MOL0     C86024  10.728   1.823   5.766  0.2561  0.0404  0.4438
  638MOL0     O86025  10.771   1.832   5.636  0.4529  1.1622 -0.4965
  638MOL0     C86026  10.732   1.939   5.556  0.0647 -0.2742 -0.4804
  638MOL0     C86027  10.804   1.961   5.436 -0.1405 -0.9542 -0.3832
  638MOL0     C86028  10.770   2.056   5.343  0.0730 -0.1219 -0.4909
  638MOL0     C86029  10.650   2.135   5.361 -0.9913 -0.1253  0.5463
  638MOL0     O86030  10.606   2.227   5.268 -0.4844  0.4859 -0.4425
  638MOL0     C86031  10.686   2.342   5.247  0.1323 -0.3491  0.0871
  638MOL0     C86032  10.590   2.454   5.212 -0.0294  2.1980 -0.2519
  638MOL0     C86033  10.654   2.586   5.170  0.3485  0.0690 -0.4901
  638MOL0     C86034  10.748   2.646   5.280 -0.3960  0.6218  0.2040
  638MOL0     C86035  10.701   2.657   5.425 -0.0411 -0.4966  0.3131
  638MOL0     C86036  10.810   2.698   5.532 -0.2357 -0.8004  0.2529
  638MOL0     C86037  10.757   2.695   5.671  0.4099  0.2150 -0.1400
  638MOL0     C86038  10.713   2.565   5.720  0.1025 -0.7183  0.0780
  638MOL0    Cl86039  10.642   2.576   5.878 -0.1715 -0.4966  0.2170
  638MOL0     C86040  10.582   2.110   5.476 -0.6711 -0.2537 -0.1089
  638MOL0     C86041  10.620   2.020   5.575 -0.6895 -0.0241 -0.0416
  638MOL0     O86042  10.701   1.920   5.835 -0.8831  0.0780  0.3026
  638MOL0     C86043  10.641   1.657   5.947 -0.3071  0.4246 -0.6636
  638MOL0     C86044  10.589   1.535   5.991  0.4579  0.7205 -0.6766
  638MOL0     N86045  10.273   0.801   5.689 -0.7591  0.1907  0.1220
  638MOL0     N86046  10.232   0.703   5.626 -0.7636 -0.0543 -0.4671
  638MOL0     C86047   9.336  -0.130   5.146  0.6274 -0.0059 -0.0077
  638MOL0     C86048   9.228  -0.113   5.057  0.3474  0.4423 -0.1270
  638MOL0     C86049   8.919   0.113   4.823 -0.2666  0.2757 -0.2898
  638MOL0     C86050   8.961   0.153   4.693 -0.4420  0.3301 -0.2499
  638MOL0     C86051   8.865   0.211   4.609  0.6869  0.3075  0.5711
  638MOL0     C86052   8.742   0.243   4.656  0.0908 -0.0741  0.2985
  638MOL0     O86053   8.659   0.304   4.570 -0.8699  0.3875  0.0348
  638MOL0     C86054   8.687   0.448   4.572 -0.2778  0.0818 -0.4485
  638MOL0     C86055   8.593   0.522   4.666  1.1029  0.7385 -0.0992
  638MOL0     C86056   8.450   0.513   4.624  0.6182  0.7850 -0.1421
  638MOL0     C86057   8.352   0.601   4.700  0.8119  0.3426  0.3234
  638MOL0     C86058   8.356   0.594   4.847 -0.6157  0.3715  0.0131
  638MOL0     C86059   8.344   0.600   4.964  0.0175  0.4262  0.1385
  638MOL0     C86060   8.701   0.217   4.788  0.0412  0.6970  0.8075
  638MOL0     C86061   8.786   0.147   4.867 -0.7581  0.3156  0.2672
  638MOL0     C86062   8.736   0.103   4.995  0.5615 -0.1712  0.1321
  638MOL0     H86063   9.337   0.116   4.843 -1.4653 -0.2830  0.1145
  638MOL0     H86064   9.533   0.109   5.001 -2.2942  1.6720 -1.4907
  638MOL0     H86065   9.701   0.083   5.178 -0.5076  0.3779 -1.4026
  638MOL0     H86066   9.551   0.161   5.224 -0.2837 -0.4951  0.8493
  638MOL0     H86067   9.720  -0.021   5.405  1.1676 -0.3675 -0.9304
  638MOL0     H86068   9.591   0.106   5.450 -0.7233 -0.7159 -1.1009
  638MOL0     H86069   9.797   0.260   5.336  2.9259 -0.8650 -0.2811
  638MOL0     H86070   9.881   0.127   5.402 -0.8955 -0.4372 -0.9254
  638MOL0     H86071   9.682   0.303   5.525  0.0341  0.1016 -1.2605
  638MOL0     H86072   9.768   0.181   5.613 -3.7693  0.1624 -1.1019
  638MOL0     H86073   9.990   0.282   5.549 -0.8754 -0.9932  1.2525
  638MOL0     H86074   9.903   0.403   5.461  0.0195 -1.6291 -0.6969
  638MOL0     H86075   9.803   0.472   5.709 -0.0812  0.0308  1.5509
  638MOL0     H86076   9.929   0.374   5.768 -1.1258  1.1834  1.9474
  638MOL0     H86077   9.963   0.619   5.748 -1.1231  0.0654 -0.0500
  638MOL0     H86078   9.958   0.608   5.576  0.2574  0.9539  0.4856
  638MOL0     H86079  10.139   0.429   5.766  2.3086  1.3773  2.3257
  638MOL0     H86080  10.166   0.430   5.590  1.6763 -0.8239  1.3461
  638MOL0     H86081  10.189   0.589   5.925 -0.9506  1.9616  1.8922
  638MOL0     H86082  10.239   0.934   5.952 -1.7987 -2.5543 -0.8913
  638MOL0     H86083  10.345   0.807   6.021 -0.2658 -1.5926 -0.6116
  638MOL0     H86084  10.551   0.877   5.949 -2.1634  0.4616  5.6341
  638MOL0     H86085  10.475   0.922   5.796 -0.0179 -0.3704  0.6053
  638MOL0     H86086  10.522   1.067   6.061 -2.6919  2.5780  2.5025
  638MOL0     H86087  10.363   1.094   6.012  1.0591 -3.1985  2.5579
  638MOL0     H86088  10.456   1.203   5.791 -0.4351  0.9091  0.8371
  638MOL0     H86089  10.618   1.161   5.861  0.5484 -0.2490 -1.3691
  638MOL0     H86090  10.593   1.360   5.708  0.8671 -1.7254  0.9525
  638MOL0     H86091  10.672   1.585   5.620  1.3477  0.6609  0.5134
  638MOL0     H86092  10.891   1.902   5.409  0.1899  0.0644 -1.6065
  638MOL0     H86093  10.821   2.070   5.249  1.8511 -0.3851  0.3939
  638MOL0     H86094  10.736   2.373   5.339  0.8620  1.0210 -0.7348
  638MOL0     H86095  10.768   2.342   5.174  1.4309 -0.7972  1.4918
  638MOL0     H86096  10.537   2.420   5.123  1.3692 -2.9577  0.5755
  638MOL0     H86097  10.522   2.469   5.296 -2.8098 -2.3847 -1.3385
  638MOL0     H86098  10.704   2.564   5.075 -1.5946 -2.3512 -1.0489
  638MOL0     H86099  10.573   2.658   5.155 -0.4907 -0.3345  1.7017
  638MOL0     H86100  10.775   2.744   5.240  1.4919 -0.4431 -1.3041
  638MOL0     H86101  10.841   2.591   5.263 -0.0369  0.8064  1.4861
  638MOL0     H86102  10.657   2.561   5.455  0.8354 -1.3114 -0.9141
  638MOL0     H86103  10.626   2.736   5.424  0.4738  0.0206 -1.5312
  638MOL0     H86104  10.881   2.615   5.532 -1.2057 -1.6508  0.0008
  638MOL0     H86105  10.864   2.788   5.500  3.3293 -3.0074 -0.5702
  638MOL0     H86106  10.667   2.757   5.671  0.7491  0.9076 -3.7021
  638MOL0     H86107  10.832   2.732   5.741 -0.3119  0.4913  0.5034
  638MOL0     H86108  10.639   2.515   5.657 -0.9207  1.6294 -0.6825
  638MOL0     H86109  10.807   2.511   5.734 -0.4931 -1.6882  0.4361
  638MOL0     H86110  10.492   2.167   5.497 -0.3243 -0.3168  1.7326
  638MOL0     H86111  10.541   2.015   5.648 -2.4883 -0.2610 -1.9041
  638MOL0     H86112  10.649   1.734   6.023  1.2208 -0.2834 -0.0545
  638MOL0     H86113  10.561   1.522   6.095  0.4142  3.2606 -0.2977
  638MOL0     H86114   9.334  -0.195   5.233 -4.1631 -1.3280 -0.8367
  638MOL0     H86115   9.150  -0.185   5.078  1.9542 -1.8314 -1.4456
  638MOL0     H86116   9.056   0.142   4.641 -0.4406  0.4152 -0.2670
  638MOL0     H86117   8.889   0.239   4.507 -1.0430 -0.6761 -0.1424
  638MOL0     H86118   8.664   0.476   4.468 -0.8426 -3.1886 -1.3195
  638MOL0     H86119   8.791   0.471   4.594  0.1253 -2.8664  1.1491
  638MOL0     H86120   8.625   0.627   4.674 -2.4046  1.7837  2.7639
  638MOL0     H86121   8.602   0.477   4.765 -4.4109 -1.1161 -0.1223
  638MOL0     H86122   8.408   0.414   4.648  1.1727  0.2504 -1.3013
  638MOL0     H86123   8.437   0.531   4.517  2.5125  1.1474 -0.3334
  638MOL0     H86124   8.376   0.705   4.680 -1.3136  1.2374  2.0471
  638MOL0     H86125   8.252   0.576   4.664  1.7087 -2.9937 -0.2410
  638MOL0     H86126   8.329   0.610   5.070  1.4859 -2.2346  0.6820
  638MOL0     H86127   8.601   0.248   4.816 -0.0476 -0.2383  1.6099
  638MOL0     H86128   8.779   0.166   5.073 -3.4565  0.4384  2.1231
  638MOL0     H86129   8.628   0.118   5.009  0.3199 -0.0518 -1.6272
  638MOL0     H86130   8.763  -0.001   5.014 -2.7729 -0.6862  2.9284
  639MOL0     O86131  10.175  10.256   1.591  0.0084 -0.0801 -0.1506
  639MOL0     C86132  10.299  10.254   1.602  0.4202 -0.0681  0.4682
  639MOL0     O86133  10.388  10.323   1.526 -0.4424 -0.4971 -0.6073
  639MOL0     C86134  10.342  10.381   1.415  0.5288 -0.6688 -0.1641
  639MOL0     C86135  10.320  10.317   1.295  0.3720  0.3243 -0.5168
  639MOL0     C86136  10.294  10.386   1.177 -0.4688 -0.6162  0.3681
  639MOL0     C86137  10.263  10.527   1.191 -0.2155  1.1502  0.1470
  639MOL0     O86138  10.214  10.583   1.076  0.4725 -0.1495  0.4689
  639MOL0     C86139  10.147  10.709   1.086  0.2025  0.2079  0.9476
  639MOL0     C86140  10.145  10.770   0.948 -0.5839 -0.3779  0.2811
  639MOL0     C86141  10.049  10.886   0.963  0.3150  0.4594  0.0391
  639MOL0     C86142  10.038  10.977   0.835 -0.4767 -0.9450  0.9964
  639MOL0     C86143   9.919  11.069   0.837 -0.7120  0.4841  1.3892
  639MOL0     C86144   9.913  11.181   0.725  1.2244 -0.7847  0.1374
  639MOL0     C86145   9.940  11.138   0.576 -0.2699  1.0206  0.0929
  639MOL0     C86146   9.839  11.039   0.518  0.3375  0.3117  0.1337
  639MOL0     N86147   9.905  11.003   0.389 -0.0441  0.4980  0.0941
  639MOL0     C86148   9.862  11.045   0.269 -0.5487  0.3325  0.5976
  639MOL0     C86149   9.930  10.969   0.184 -0.4651  0.1294  0.4686
  639MOL0     C86150   9.900  10.959   0.031  0.9220  0.1300  0.0479
  639MOL0     C86151   9.922  11.090  -0.050  0.0569 -0.3646  0.0609
  639MOL0     C86152  10.058  11.141  -0.011 -0.3397  0.3776 -0.6880
  639MOL0     C86153  10.113  11.245  -0.110  0.5708 -0.2182  0.2136
  639MOL0     O86154  10.018  11.355  -0.113 -0.0134 -0.7827  0.5811
  639MOL0     C86155  10.054  11.469  -0.184 -0.2994  0.0923  0.7319
  639MOL0     C86156   9.963  11.568  -0.205 -0.0844 -0.2784  0.1027
  639MOL0     C86157   9.986  11.688  -0.279  1.3718  0.5486  0.7943
  639MOL0     C86158  10.105  11.703  -0.349  0.9201  0.1728  0.1846
  639MOL0     C86159  10.139  11.831  -0.431  0.4802  1.0486  0.3057
  639MOL0     O86160  10.033  11.901  -0.475  0.5947  0.0719 -0.5082
  639MOL0     C86161  10.057  12.024  -0.537 -0.5160 -0.0045  0.7495
  639MOL0     C86162   9.969  12.066  -0.631  0.1199 -0.8226  0.8038
  639MOL0     C86163   9.970  12.200  -0.685 -0.2769  0.3370  0.0530
  639MOL0     C86164  10.064  12.290  -0.649 -0.2889 -0.2548  0.3686
  639MOL0     O86165  10.085  12.413  -0.712  0.3281 -0.3625  0.2924
  639MOL0     C86166   9.978  12.510  -0.676 -0.8897 -0.1087 -0.1432
  639MOL0     C86167   9.977  12.638  -0.754  0.2380  0.3699  0.3061
  639MOL0     C86168  10.069  12.747  -0.700 -0.3418  0.0119  0.3477
  639MOL0     C86169  10.201  12.738  -0.768  1.1257 -0.7984  0.0331
  639MOL0     C86170  10.284  12.866  -0.761 -0.1139 -0.2951  0.0756
  639MOL0     C86171  10.395  12.852  -0.860  0.3964  0.1644  0.0694
  639MOL0     C86172  10.517  12.942  -0.830  0.1027 -0.6657 -0.0667
  639MOL0     C86173  10.505  13.086  -0.855 -0.6808 -0.3733 -0.0054
  639MOL0    Cl86174  10.415  13.177  -0.730 -0.1847  0.1999  0.2683
  639MOL0     C86175  10.152  12.243  -0.547 -0.9915 -0.6078 -0.5120
  639MOL0     C86176  10.151  12.111  -0.492 -0.3092 -0.1102  0.4129
  639MOL0     O86177  10.259  11.864  -0.439  0.1369  0.0401  0.1919
  639MOL0     C86178  10.205  11.614  -0.319 -0.0454  0.3985 -0.6258
  639MOL0     C86179  10.194  11.500  -0.237 -0.1516 -0.7263  0.4771
  639MOL0     N86180  10.015  10.881   0.251  0.4755  0.2706  1.0494
  639MOL0     N86181  10.000  10.907   0.376 -0.3735 -0.6539  0.3003
  639MOL0     C86182  10.277  10.586   1.317 -0.2928 -0.5974  0.0569
  639MOL0     C86183  10.323  10.515   1.425 -0.1856 -1.1589 -1.2316
  639MOL0     C86184  10.368  10.164   1.693  0.4843  0.4142  0.4891
  639MOL0     C86185  10.291  10.145   1.807  0.5413 -0.2473 -0.6225
  639MOL0     C86186  10.341  10.056   1.903 -0.4656  0.4260 -0.1499
  639MOL0     C86187  10.463   9.990   1.886 -0.2554  0.8088 -0.5678
  639MOL0     O86188  10.505   9.904   1.986 -0.2356 -0.0512  0.4060
  639MOL0     C86189  10.619   9.826   1.960 -1.0571 -0.6185 -0.0446
  639MOL0     C86190  10.633   9.723   2.071  0.3041  0.3648 -0.2492
  639MOL0     C86191  10.630   9.802   2.201 -0.0566 -0.0485 -0.0324
  639MOL0     C86192  10.729   9.920   2.218  0.5014 -0.0528 -0.0892
  639MOL0     C86193  10.873   9.893   2.177 -0.1854 -0.1742  0.4846
  639MOL0     C86194  10.984   9.864   2.154  0.8237 -1.0341 -0.5386
  639MOL0     C86195  10.539  10.015   1.771 -0.4370  0.2632 -0.4457
  639MOL0     C86196  10.495  10.111   1.671 -0.1632  0.5251  0.3466
  639MOL0     C86197  10.582  10.130   1.561  0.3359  0.0659 -0.0664
  639MOL0     H86198  10.320  10.208   1.300  0.5704  0.2503 -1.7696
  639MOL0     H86199  10.300  10.333   1.083  4.1470 -0.8831  0.5809
  639MOL0     H86200  10.043  10.689   1.116 -0.0848 -2.4767 -1.3999
  639MOL0     H86201  10.198  10.774   1.158  2.0027 -2.7440  2.5602
  639MOL0     H86202  10.104  10.694   0.881 -1.0099 -1.6161  1.8956
  639MOL0     H86203  10.249  10.799   0.929  0.0946 -0.3768  3.4941
  639MOL0     H86204  10.079  10.950   1.047  0.7944  0.9493 -0.5000
  639MOL0     H86205   9.953  10.842   0.992  0.6237  2.3707  4.8659
  639MOL0     H86206  10.126  11.042   0.828  0.2142 -2.0594 -2.4943
  639MOL0     H86207  10.020  10.917   0.746 -1.8352 -1.9461  1.9131
  639MOL0     H86208   9.826  11.012   0.847  0.0906 -1.0838  0.2914
  639MOL0     H86209   9.938  11.133   0.923 -0.4279  0.5907  1.2504
  639MOL0     H86210   9.819  11.235   0.734  2.4440  1.3103  1.0339
  639MOL0     H86211   9.982  11.253   0.768  0.5914 -0.6632  0.9696
  639MOL0     H86212  10.035  11.085   0.584 -1.1758 -0.3941  2.8274
  639MOL0     H86213   9.935  11.220   0.503 -0.5960 -1.5470 -2.9781
  639MOL0     H86214   9.827  10.948   0.579  0.7070  0.5260  0.5325
  639MOL0     H86215   9.740  11.081   0.499  0.7394  1.3415  0.2582
  639MOL0     H86216   9.781  11.109   0.236 -0.5934 -0.8418 -1.7922
  639MOL0     H86217   9.956  10.874  -0.009 -0.1893  0.1679 -1.6682
  639MOL0     H86218   9.795  10.927   0.026  1.1065 -1.1915  2.7136
  639MOL0     H86219   9.917  11.059  -0.155  1.4741 -0.1177 -0.0985
  639MOL0     H86220   9.852  11.167  -0.016  1.7711  1.5898 -0.6220
  639MOL0     H86221  10.127  11.056  -0.012 -0.1784  0.2376  3.4996
  639MOL0     H86222  10.059  11.182   0.091  2.2518  0.1406 -0.5554
  639MOL0     H86223  10.117  11.194  -0.207  0.6119  0.5270 -0.1780
  639MOL0     H86224  10.213  11.275  -0.076  1.0458 -0.9284 -0.5073
  639MOL0     H86225   9.877  11.530  -0.150 -0.0754 -2.2921 -1.1865
  639MOL0     H86226   9.913  11.767  -0.293  0.4276 -0.4378 -0.1195
  639MOL0     H86227   9.880  12.008  -0.651 -3.9162  4.4462  1.2849
  639MOL0     H86228   9.901  12.226  -0.764  0.0971  0.9210 -0.0924
  639MOL0     H86229   9.883  12.456  -0.672  0.8163 -3.4566 -1.3435
  639MOL0     H86230   9.987  12.546  -0.572  0.0090 -0.7380  0.0025
  639MOL0     H86231   9.979  12.617  -0.862 -0.2996  0.0830  0.3465
  639MOL0     H86232   9.884  12.693  -0.736 -1.2597 -0.0969 -4.4274
  639MOL0     H86233  10.029  12.846  -0.722  0.7638  1.0540  2.6220
  639MOL0     H86234  10.082  12.760  -0.592 -1.8593  2.4882  0.3007
  639MOL0     H86235  10.176  12.712  -0.871 -0.7152 -0.1109  0.2651
  639MOL0     H86236  10.255  12.651  -0.728  0.7432  0.0310  2.5611
  639MOL0     H86237  10.330  12.872  -0.662  0.8647  0.4275 -0.4153
  639MOL0     H86238  10.223  12.955  -0.781 -2.9438 -1.7931  1.3536
  639MOL0     H86239  10.437  12.751  -0.856 -0.7419 -0.2801  2.3487
  639MOL0     H86240  10.359  12.877  -0.961  0.9615  2.2457  0.3288
  639MOL0     H86241  10.597  12.908  -0.896  0.4675 -0.8451  0.4609
  639MOL0     H86242  10.561  12.924  -0.731 -0.3723 -1.5523 -0.0093
  639MOL0     H86243  10.609  13.120  -0.862 -0.6632 -0.6499 -1.5042
  639MOL0     H86244  10.469  13.108  -0.956 -0.0235  1.3276  0.0962
  639MOL0     H86245  10.231  12.306  -0.508  4.0581 -4.9586 -2.3989
  639MOL0     H86246  10.218  12.096  -0.409 -1.5947  0.8769  1.6996
  639MOL0     H86247  10.300  11.632  -0.367  0.7346 -1.6739  0.0071
  639MOL0     H86248  10.278  11.433  -0.217 -0.0518 -1.1704 -1.2814
  639MOL0     H86249  10.255  10.687   1.352 -5.1625 -1.6391  0.6318
  639MOL0     H86250  10.328  10.558   1.524 -2.8706 -3.7570  0.1693
  639MOL0     H86251  10.196  10.189   1.834  1.0364  2.7534 -3.1905
  639MOL0     H86252  10.282  10.031   1.990 -0.0346 -2.0234 -0.4852
  639MOL0     H86253  10.710   9.886   1.966 -1.9305  0.6755  0.7430
  639MOL0     H86254  10.607   9.775   1.864 -5.0558 -2.0543  0.9739
  639MOL0     H86255  10.725   9.665   2.068  2.5740  3.6238  0.8705
  639MOL0     H86256  10.547   9.655   2.073  1.4106 -1.0875 -0.5639
  639MOL0     H86257  10.658   9.735   2.283  0.0691 -0.4826 -0.4257
  639MOL0     H86258  10.538   9.847   2.238  0.1973  0.5153 -0.0808
  639MOL0     H86259  10.694  10.010   2.167 -4.2137 -0.9871  0.9975
  639MOL0     H86260  10.736   9.944   2.325 -1.4687 -0.1932  0.1066
  639MOL0     H86261  11.089   9.843   2.146  1.4483  0.6118  2.1768
  639MOL0     H86262  10.635   9.970   1.747 -0.1123  2.0560 -2.9318
  639MOL0     H86263  10.538  10.113   1.463 -1.3918 -0.8039  0.8164
  639MOL0     H86264  10.621  10.232   1.564  4.6890 -1.3584 -0.5994
  639MOL0     H86265  10.661  10.054   1.562 -2.2310 -2.8107 -0.4757
  640MOL0     O86266   6.944   9.196   0.503  0.2096 -0.3942 -0.9174
  640MOL0     C86267   6.872   9.176   0.404  0.3705 -0.1617 -0.3933
  640MOL0     O86268   6.893   9.229   0.285 -0.3848 -0.5104 -0.7364
  640MOL0     C86269   7.000   9.313   0.268  0.6717 -0.0078 -0.0035
  640MOL0     C86270   7.115   9.282   0.190 -0.4035 -0.3532  0.2233
  640MOL0     C86271   7.216   9.374   0.171  0.4035 -0.5762  1.1316
  640MOL0     C86272   7.202   9.503   0.216  0.2103 -1.2983  0.1413
  640MOL0     O86273   7.306   9.589   0.206 -0.0352  1.3757 -0.4209
  640MOL0     C86274   7.272   9.726   0.192  0.4379 -0.7704  0.4963
  640MOL0     C86275   7.374   9.800   0.104 -0.6086 -0.5358  0.1439
  640MOL0     C86276   7.371   9.949   0.134 -0.2938  0.3721 -0.4551
  640MOL0     C86277   7.256  10.020   0.064  0.5708  0.2823  0.3130
  640MOL0     C86278   7.241  10.168   0.106 -0.0810 -0.4601  0.6859
  640MOL0     C86279   7.251  10.205   0.254 -0.9863 -0.9661 -0.2717
  640MOL0     C86280   7.220  10.357   0.279 -0.8106 -0.0045 -0.2711
  640MOL0     C86281   7.241  10.381   0.434  0.3777 -1.0151 -0.2082
  640MOL0     N86282   7.134  10.325   0.507 -0.3810 -0.4170 -0.0654
  640MOL0     C86283   7.012  10.389   0.525 -0.4042 -0.1906 -0.6876
  640MOL0     C86284   6.937  10.294   0.582 -0.2337  0.6950 -0.5390
  640MOL0     C86285   6.793  10.305   0.627  0.5104 -0.3417  1.0039
  640MOL0     C86286   6.738  10.206   0.728 -0.7620 -0.3936  0.0489
  640MOL0     C86287   6.597  10.238   0.762  0.3267  0.0445 -0.7412
  640MOL0     C86288   6.577  10.371   0.835 -0.0893  0.2567  0.2942
  640MOL0     O86289   6.448  10.371   0.902 -0.3897  0.3651  0.1086
  640MOL0     C86290   6.338  10.416   0.832 -0.2249 -0.8123 -0.4951
  640MOL0     C86291   6.351  10.451   0.698  0.4245  0.5182 -0.2779
  640MOL0     C86292   6.239  10.503   0.628 -0.3709 -0.4080  0.2449
  640MOL0     C86293   6.118  10.524   0.700  1.1829 -0.0042  0.0244
  640MOL0     C86294   5.994  10.571   0.627 -0.4091  0.4928 -0.5766
  640MOL0     O86295   5.886  10.625   0.694 -0.1547 -0.1824 -0.4262
  640MOL0     C86296   5.776  10.683   0.646  0.5122 -0.1877 -0.0585
  640MOL0     C86297   5.731  10.705   0.517  0.2552  1.3846  0.0991
  640MOL0     C86298   5.611  10.770   0.492 -0.4243  0.6880 -0.0271
  640MOL0     C86299   5.520  10.799   0.602 -0.4401  0.2631  0.1297
  640MOL0     O86300   5.397  10.876   0.585  0.3917  0.7694 -0.8262
  640MOL0     C86301   5.353  10.905   0.452  0.5003 -0.6113  0.2569
  640MOL0     C86302   5.289  10.787   0.351 -0.4779  0.4111 -0.3118
  640MOL0     C86303   5.142  10.748   0.383 -1.4218 -0.4485 -0.4332
  640MOL0     C86304   5.038  10.845   0.337  0.3763  0.4245  0.6698
  640MOL0     C86305   4.897  10.789   0.398  0.1242 -1.0198 -0.3299
  640MOL0     C86306   4.799  10.906   0.413  0.0812 -0.0705 -0.2133
  640MOL0     C86307   4.679  10.874   0.501  0.4594  0.0564  0.1974
  640MOL0     C86308   4.577  10.991   0.502  0.1090  0.0786  0.4308
  640MOL0    Cl86309   4.432  10.944   0.566 -0.2379 -0.1978 -0.0280
  640MOL0     C86310   5.557  10.757   0.731 -0.4863 -0.8320 -0.1219
  640MOL0     C86311   5.685  10.704   0.746 -0.2221  0.0378 -0.3196
  640MOL0     O86312   6.002  10.561   0.502  0.0302 -0.1710  0.2638
  640MOL0     C86313   6.101  10.495   0.842 -0.1111  0.4294  0.1829
  640MOL0     C86314   6.219  10.442   0.905 -0.7468  0.8840 -0.1745
  640MOL0     N86315   7.021  10.183   0.607  0.1170  0.6119  0.3257
  640MOL0     N86316   7.137  10.200   0.565  0.4505 -0.4197  0.2531
  640MOL0     C86317   7.081   9.546   0.281 -0.4720 -0.0993  0.0739
  640MOL0     C86318   6.985   9.449   0.315 -0.1330 -1.1371  0.4679
  640MOL0     C86319   6.763   9.076   0.422  0.8463 -0.6460  0.2039
  640MOL0     C86320   6.717   9.053   0.550 -0.3414  0.1664  0.5180
  640MOL0     C86321   6.601   8.973   0.570 -0.3557 -0.9958 -0.5969
  640MOL0     C86322   6.537   8.895   0.471 -0.8111  0.0011 -0.5868
  640MOL0     O86323   6.429   8.809   0.481  0.5997  0.9935  0.1092
  640MOL0     C86324   6.433   8.723   0.600 -0.3108 -0.3557  0.6358
  640MOL0     C86325   6.513   8.596   0.557  0.0720  0.4575 -0.0100
  640MOL0     C86326   6.668   8.591   0.544 -0.6342 -0.7099 -0.1530
  640MOL0     C86327   6.715   8.444   0.528 -1.2455  0.2784  0.1461
  640MOL0     C86328   6.683   8.363   0.646 -0.7462  0.2158  0.3534
  640MOL0     C86329   6.654   8.305   0.751 -0.6038 -1.0081  0.0162
  640MOL0     C86330   6.584   8.911   0.341  0.0579 -0.8060  0.5268
  640MOL0     C86331   6.701   8.996   0.310  0.7175 -0.9353  0.1974
  640MOL0     C86332   6.746   8.992   0.164 -0.5448  0.4784 -0.2175
  640MOL0     H86333   7.120   9.184   0.145 -1.8481 -0.1904 -0.3521
  640MOL0     H86334   7.309   9.347   0.123 -0.7589 -2.6824 -0.0670
  640MOL0     H86335   7.174   9.723   0.145 -1.1294 -0.1294  3.4399
  640MOL0     H86336   7.254   9.764   0.293  0.7914  0.4237  0.1295
  640MOL0     H86337   7.374   9.772  -0.002  1.7646 -1.0876  0.2316
  640MOL0     H86338   7.472   9.763   0.137  0.1044 -0.2548 -1.5574
  640MOL0     H86339   7.459   9.990   0.083  1.0655 -1.6233  0.1822
  640MOL0     H86340   7.378   9.974   0.240 -2.2778 -2.1976  0.3849
  640MOL0     H86341   7.274  10.020  -0.044 -2.0139 -0.3261 -0.1828
  640MOL0     H86342   7.159   9.972   0.079  0.5047 -0.0270 -0.9800
  640MOL0     H86343   7.332  10.216   0.070 -0.5826 -0.4974 -0.6673
  640MOL0     H86344   7.155  10.209   0.053  2.4302  1.8546 -1.8861
  640MOL0     H86345   7.180  10.152   0.317  0.1758  0.3455  2.3124
  640MOL0     H86346   7.352  10.177   0.285 -1.2687 -2.0700 -0.3006
  640MOL0     H86347   7.119  10.373   0.241 -1.3146  2.4427  1.7703
  640MOL0     H86348   7.298  10.416   0.230 -0.3116 -0.7613 -0.4128
  640MOL0     H86349   7.333  10.331   0.466  1.1423 -0.1167 -0.9515
  640MOL0     H86350   7.254  10.485   0.464  0.0675 -1.5183  1.8092
  640MOL0     H86351   6.992  10.495   0.508  1.7242  1.6022  5.5100
  640MOL0     H86352   6.768  10.410   0.643  3.2056  1.2488 -3.3326
  640MOL0     H86353   6.739  10.294   0.532  1.1527  1.2925  0.4085
  640MOL0     H86354   6.731  10.116   0.667 -0.9811  0.1440 -0.7294
  640MOL0     H86355   6.804  10.191   0.814  1.1476 -0.7611 -1.4185
  640MOL0     H86356   6.555  10.154   0.818  2.1093 -1.7195 -1.9037
  640MOL0     H86357   6.539  10.221   0.671  0.7298  2.0836 -1.4312
  640MOL0     H86358   6.596  10.447   0.758  1.9790 -0.5810 -0.0831
  640MOL0     H86359   6.664  10.396   0.897  2.7743 -0.4461 -3.1071
  640MOL0     H86360   6.430  10.415   0.634  0.1003 -2.0703  0.6313
  640MOL0     H86361   6.242  10.537   0.525  1.7023 -0.0030  0.3965
  640MOL0     H86362   5.802  10.690   0.437 -0.2084  1.0226 -0.2438
  640MOL0     H86363   5.598  10.791   0.386  2.0090 -3.3629 -1.3538
  640MOL0     H86364   5.282  10.987   0.449  2.9549  1.6810  0.9513
  640MOL0     H86365   5.438  10.944   0.395 -1.6606  1.2413 -1.9001
  640MOL0     H86366   5.293  10.816   0.245  1.7696  0.3248 -0.3086
  640MOL0     H86367   5.354  10.699   0.360  1.2350  1.8511  2.6720
  640MOL0     H86368   5.128  10.653   0.332  0.3641 -2.8727  3.1351
  640MOL0     H86369   5.121  10.716   0.485  0.1296 -3.1810 -0.8789
  640MOL0     H86370   5.030  10.862   0.229  4.7564 -0.8802 -0.0435
  640MOL0     H86371   5.056  10.942   0.385 -3.1155 -0.2724  3.9130
  640MOL0     H86372   4.909  10.743   0.496  2.5669  2.6307  1.3271
  640MOL0     H86373   4.861  10.714   0.328  3.0211  1.5144 -5.0919
  640MOL0     H86374   4.851  10.993   0.453 -2.6164  0.4496  2.5129
  640MOL0     H86375   4.765  10.940   0.314  1.6970 -2.6798 -1.7937
  640MOL0     H86376   4.711  10.864   0.605  2.1409  1.2849 -0.1555
  640MOL0     H86377   4.641  10.776   0.472  4.7436 -1.8047  0.0803
  640MOL0     H86378   4.612  11.081   0.554 -1.2387 -0.4629  2.4031
  640MOL0     H86379   4.559  11.017   0.398 -0.9464  1.1711  0.8628
  640MOL0     H86380   5.478  10.785   0.799 -0.7921  0.3070 -0.9251
  640MOL0     H86381   5.714  10.678   0.848 -1.7362 -0.1030  0.0964
  640MOL0     H86382   6.002  10.513   0.882 -0.1234 -0.6012  0.6535
  640MOL0     H86383   6.223  10.430   1.013  2.2600 -1.3551 -0.4065
  640MOL0     H86384   7.057   9.641   0.329 -3.0121 -0.9772  0.7185
  640MOL0     H86385   6.909   9.499   0.374 -0.9967 -0.5127 -1.0863
  640MOL0     H86386   6.747   9.113   0.635  0.1629 -0.5796  0.8742
  640MOL0     H86387   6.567   8.971   0.673 -2.4947  0.2262 -1.2179
  640MOL0     H86388   6.330   8.698   0.627 -1.0807  0.9903 -0.8481
  640MOL0     H86389   6.475   8.772   0.689  3.9627  0.3143 -1.4956
  640MOL0     H86390   6.472   8.571   0.459 -0.2572  3.1093 -0.6419
  640MOL0     H86391   6.490   8.518   0.629  0.1802 -1.6058 -2.0933
  640MOL0     H86392   6.724   8.642   0.624  1.8356 -1.0280 -1.5836
  640MOL0     H86393   6.697   8.654   0.459  2.6136 -0.6659  0.8515
  640MOL0     H86394   6.686   8.409   0.428 -1.1369  1.4961 -0.3299
  640MOL0     H86395   6.822   8.451   0.511 -1.7708  0.4717 -4.4165
  640MOL0     H86396   6.643   8.260   0.847 -2.1575  2.5245  1.6704
  640MOL0     H86397   6.529   8.862   0.261  0.7662  2.2200 -1.9924
  640MOL0     H86398   6.854   8.972   0.161 -0.2480  2.0824 -1.6676
  640MOL0     H86399   6.702   8.921   0.093  1.4197 -0.0011 -1.0141
  640MOL0     H86400   6.729   9.090   0.119  1.2417  0.8212 -0.2181
  641MOL0     O86401   8.783   9.830   7.650  0.6419 -0.0758 -0.9902
  641MOL0     C86402   8.741   9.739   7.571  0.4423 -0.1347 -1.2207
  641MOL0     O86403   8.790   9.621   7.538 -1.1528 -1.0549 -0.5565
  641MOL0     C86404   8.910   9.587   7.603 -1.0553  0.4082  0.0672
  641MOL0     C86405   8.921   9.468   7.664  0.1614  0.0612  0.1624
  641MOL0     C86406   9.035   9.418   7.734  0.8268 -0.1325  0.9616
  641MOL0     C86407   9.146   9.499   7.735  0.6601  0.3935  0.3742
  641MOL0     O86408   9.254   9.445   7.815  0.3428  0.0654  0.1851
  641MOL0     C86409   9.342   9.527   7.886  0.8028  0.6185  0.8756
  641MOL0     C86410   9.384   9.481   8.026  0.6509 -0.7329 -0.1951
  641MOL0     C86411   9.467   9.346   8.024 -0.4531  0.1162  0.3980
  641MOL0     C86412   9.469   9.296   8.166 -0.0905  0.1928  0.3210
  641MOL0     C86413   9.523   9.394   8.270  0.0023 -0.4462 -0.8079
  641MOL0     C86414   9.493   9.350   8.422  0.1660  0.0235  1.0046
  641MOL0     C86415   9.346   9.354   8.467 -0.6953 -0.4626  0.3849
  641MOL0     C86416   9.339   9.364   8.620  0.8597 -0.6400 -0.4337
  641MOL0     N86417   9.408   9.245   8.679 -0.4229  0.1495  0.5729
  641MOL0     C86418   9.532   9.258   8.737  0.0008 -0.9137 -0.0662
  641MOL0     C86419   9.567   9.136   8.779  0.5326 -0.9941 -0.7006
  641MOL0     C86420   9.694   9.094   8.859  0.5167 -1.0344 -0.4236
  641MOL0     C86421   9.675   8.952   8.919 -0.4109 -0.8517  0.3559
  641MOL0     C86422   9.791   8.916   9.006 -0.1890  0.3140  0.4413
  641MOL0     C86423   9.756   8.841   9.136 -0.0032 -0.9587  0.8575
  641MOL0     O86424   9.864   8.843   9.231  0.4522 -0.3752  0.0899
  641MOL0     C86425   9.839   8.831   9.370 -0.1697 -0.1035 -0.4092
  641MOL0     C86426   9.731   8.898   9.430  0.0608 -0.1944  0.6686
  641MOL0     C86427   9.709   8.899   9.569 -0.2844  0.3164 -0.8354
  641MOL0     C86428   9.799   8.832   9.644  0.3877 -0.3641 -0.3531
  641MOL0     C86429   9.774   8.853   9.793  0.2626  0.2884 -0.9369
  641MOL0     O86430   9.879   8.835   9.873  0.1269 -0.5501 -0.0132
  641MOL0     C86431   9.871   8.878  10.003 -0.3005 -0.1003  0.7438
  641MOL0     C86432   9.920   9.009  10.036  0.7895  0.9227 -0.3164
  641MOL0     C86433   9.933   9.040  10.174  0.4841 -0.9110  0.9360
  641MOL0     C86434   9.894   8.956  10.272 -0.6584  0.3395 -0.0293
  641MOL0     O86435   9.893   8.988  10.409  0.2989 -0.0324 -1.0402
  641MOL0     C86436   9.903   9.130  10.439 -1.1236 -0.1681  0.7999
  641MOL0     C86437   9.849   9.178  10.578 -0.1870  0.1725 -0.6925
  641MOL0     C86438   9.899   9.322  10.597 -1.0091 -0.6473  0.6817
  641MOL0     C86439  10.056   9.326  10.631 -0.1175  0.2133 -1.0091
  641MOL0     C86440  10.099   9.472  10.619 -0.8698 -0.3626 -0.7536
  641MOL0     C86441  10.039   9.577  10.713 -0.4214  0.0158 -0.4376
  641MOL0     C86442  10.070   9.724  10.672 -0.2309  0.5966  0.3685
  641MOL0     C86443   9.980   9.827  10.739 -1.2010  0.2147  0.2779
  641MOL0    Cl86444   9.965   9.818  10.914  0.3444  0.4311  0.4171
  641MOL0     C86445   9.850   8.826  10.242 -0.1170  0.4799 -0.9512
  641MOL0     C86446   9.838   8.787  10.105  0.7708  0.4909  0.5656
  641MOL0     O86447   9.660   8.892   9.834 -0.7832 -0.3838 -0.0400
  641MOL0     C86448   9.919   8.772   9.591  0.2045  1.1078  0.2473
  641MOL0     C86449   9.926   8.761   9.455  0.7250 -0.3676 -0.4036
  641MOL0     N86450   9.468   9.052   8.728 -0.6847  0.6198 -0.3096
  641MOL0     N86451   9.370   9.114   8.672  0.7763 -1.0400 -0.1643
  641MOL0     C86452   9.140   9.622   7.672 -0.2571 -0.2269 -0.8045
  641MOL0     C86453   9.021   9.667   7.618 -0.3618  0.6726 -0.4623
  641MOL0     C86454   8.612   9.782   7.515  0.2775 -0.6258 -0.3232
  641MOL0     C86455   8.507   9.696   7.490  0.1065  0.9872 -0.0811
  641MOL0     C86456   8.377   9.725   7.444 -0.1417 -0.8627  0.1650
  641MOL0     C86457   8.363   9.866   7.410 -0.1234  0.6478  0.2657
  641MOL0     O86458   8.239   9.927   7.368 -0.2948  0.4482 -0.5368
  641MOL0     C86459   8.119   9.861   7.358 -0.2149  0.2888 -0.5974
  641MOL0     C86460   8.067   9.916   7.225 -0.0609 -0.3376 -0.1978
  641MOL0     C86461   7.914   9.905   7.208 -1.0321 -0.9888 -0.4217
  641MOL0     C86462   7.876   9.758   7.186 -0.7855 -0.1037 -0.0174
  641MOL0     C86463   7.755   9.758   7.095 -0.1757  0.1277 -0.5293
  641MOL0     C86464   7.659   9.759   7.021 -0.7900  0.5375  0.9794
  641MOL0     C86465   8.463   9.956   7.432 -0.3176 -0.9891  0.8993
  641MOL0     C86466   8.588   9.918   7.472  0.0855 -0.1348 -1.3864
  641MOL0     C86467   8.697  10.031   7.467 -0.5415  0.1952 -0.5784
  641MOL0     H86468   8.843   9.393   7.661  0.5564 -0.3457 -0.1305
  641MOL0     H86469   9.018   9.320   7.777  1.4736  0.4702  2.6499
  641MOL0     H86470   9.424   9.552   7.819  0.4256  2.5008  1.0538
  641MOL0     H86471   9.283   9.619   7.896 -1.5914 -0.2873 -2.7436
  641MOL0     H86472   9.289   9.471   8.079  0.6677  0.7272  0.1581
  641MOL0     H86473   9.443   9.561   8.072 -1.6111  0.3257  1.0134
  641MOL0     H86474   9.567   9.356   7.981 -1.0359 -3.6259 -2.3245
  641MOL0     H86475   9.411   9.272   7.967  0.9814 -1.8875  1.4541
  641MOL0     H86476   9.369   9.267   8.199  0.9226 -0.4848  2.9842
  641MOL0     H86477   9.527   9.204   8.166 -0.9841 -0.4180 -1.2361
  641MOL0     H86478   9.630   9.397   8.244  0.5820 -0.1547  1.3504
  641MOL0     H86479   9.480   9.494   8.259  3.2848  1.1773 -0.3210
  641MOL0     H86480   9.533   9.248   8.428  0.6705 -0.0916 -2.3614
  641MOL0     H86481   9.556   9.421   8.475  0.9237  1.0638 -1.1716
  641MOL0     H86482   9.274   9.281   8.426 -0.3287 -0.2767 -0.6098
  641MOL0     H86483   9.306   9.444   8.419 -0.2932 -1.1248 -1.2818
  641MOL0     H86484   9.398   9.453   8.644 -0.5104  0.4962 -1.1308
  641MOL0     H86485   9.239   9.383   8.659  1.0714  0.1085 -0.2349
  641MOL0     H86486   9.581   9.355   8.742  0.8580 -1.4021  3.4949
  641MOL0     H86487   9.778   9.088   8.788  1.8494  2.4876  0.6344
  641MOL0     H86488   9.720   9.165   8.938  1.5110 -3.3151  1.4184
  641MOL0     H86489   9.579   8.934   8.968 -1.0910 -2.3462 -1.3843
  641MOL0     H86490   9.674   8.880   8.836  2.3303  0.3531 -0.8775
  641MOL0     H86491   9.836   9.009   9.040 -1.2383  0.8829  0.3415
  641MOL0     H86492   9.868   8.857   8.955 -0.8619 -2.1868  2.1337
  641MOL0     H86493   9.729   8.738   9.109  2.0306 -0.6937 -2.7999
  641MOL0     H86494   9.676   8.901   9.180  0.6922 -0.0449  0.8881
  641MOL0     H86495   9.660   8.947   9.363  3.0697  3.1255 -0.4213
  641MOL0     H86496   9.612   8.934   9.605  0.2879  2.2078 -1.0170
  641MOL0     H86497   9.983   9.071   9.973  0.5804  0.5659 -0.8805
  641MOL0     H86498   9.998   9.126  10.191 -2.1011  1.5920 -0.9849
  641MOL0     H86499  10.006   9.162  10.420 -1.8552  2.2755  0.5788
  641MOL0     H86500   9.844   9.186  10.366 -3.5846 -3.4473  0.0510
  641MOL0     H86501   9.740   9.180  10.582 -0.1990  1.0633 -1.1720
  641MOL0     H86502   9.892   9.109  10.651  0.8386 -1.3099 -2.6017
  641MOL0     H86503   9.871   9.374  10.505 -2.1018 -0.9323  0.8305
  641MOL0     H86504   9.841   9.363  10.681 -0.4691  0.4783  0.5217
  641MOL0     H86505  10.119   9.256  10.576 -1.8115 -1.4720 -0.9371
  641MOL0     H86506  10.062   9.286  10.733 -2.0999  0.6430 -0.6895
  641MOL0     H86507  10.073   9.496  10.515 -3.2830 -0.1250 -0.1552
  641MOL0     H86508  10.206   9.468  10.643 -1.1718  2.9992  1.6868
  641MOL0     H86509   9.931   9.562  10.721 -0.1814 -0.9438  1.5899
  641MOL0     H86510  10.072   9.548  10.813 -2.0363 -3.2939 -0.7190
  641MOL0     H86511  10.068   9.740  10.564  2.1047  1.7877  0.4473
  641MOL0     H86512  10.167   9.752  10.713 -0.2355  1.9909 -0.5211
  641MOL0     H86513   9.998   9.925  10.694 -1.4421  0.5196  0.8392
  641MOL0     H86514   9.878   9.808  10.702 -1.9004  2.6006  0.7879
  641MOL0     H86515   9.818   8.766  10.326  3.6502  1.7341  1.6687
  641MOL0     H86516   9.790   8.695  10.072 -2.1384  1.4237  1.8356
  641MOL0     H86517   9.993   8.731   9.660  2.2673  4.3611  0.1735
  641MOL0     H86518  10.008   8.714   9.401  1.1569 -1.3657  1.0333
  641MOL0     H86519   9.216   9.699   7.680 -0.4362 -0.2177  1.4541
  641MOL0     H86520   9.019   9.771   7.587 -5.2222  1.6468  2.1402
  641MOL0     H86521   8.537   9.599   7.528  1.6816  1.1621 -0.7909
  641MOL0     H86522   8.299   9.653   7.423 -0.6563 -0.7140  1.4747
  641MOL0     H86523   8.057   9.886   7.445  0.1473  0.6313 -0.4304
  641MOL0     H86524   8.127   9.753   7.343 -3.8151  0.1120 -2.2368
  641MOL0     H86525   8.112   9.870   7.137 -2.1253 -2.5366 -0.1996
  641MOL0     H86526   8.089  10.023   7.222 -2.2530  0.2562  1.5800
  641MOL0     H86527   7.875   9.979   7.138  0.9400  0.0743 -0.4934
  641MOL0     H86528   7.873   9.937   7.305  1.7282  0.6250  0.3339
  641MOL0     H86529   7.961   9.707   7.139 -1.8183 -1.6518 -0.2650
  641MOL0     H86530   7.846   9.710   7.279  0.8104  0.1232  0.6550
  641MOL0     H86531   7.584   9.731   6.950 -0.5367 -1.0966  1.3155
  641MOL0     H86532   8.443  10.061   7.412 -2.1078 -1.4133  0.2367
  641MOL0     H86533   8.674  10.096   7.382 -4.3564  1.7377  1.4014
  641MOL0     H86534   8.698  10.079   7.566 -0.2952 -0.0985 -0.4362
  641MOL0     H86535   8.798   9.990   7.455  0.1733  1.8346 -0.4159
  642MOL0     O86536   4.655  10.819   7.734 -0.3232  0.7365 -0.3226
  642MOL0     C86537   4.639  10.712   7.672 -0.2094  0.2444  0.7413
  642MOL0     O86538   4.554  10.609   7.714  0.2111 -0.1069 -0.3312
  642MOL0     C86539   4.523  10.588   7.841  0.0813 -0.4895 -0.0094
  642MOL0     C86540   4.576  10.663   7.946 -1.3058  0.3995  0.8195
  642MOL0     C86541   4.538  10.639   8.077  0.1027  0.7636  0.3972
  642MOL0     C86542   4.419  10.558   8.103 -0.1045  0.1199  1.0014
  642MOL0     O86543   4.349  10.559   8.221 -0.5251  1.0318  0.6426
  642MOL0     C86544   4.372  10.678   8.296 -0.4106 -1.4762 -0.0852
  642MOL0     C86545   4.280  10.665   8.409  0.3706 -0.6835 -0.5907
  642MOL0     C86546   4.296  10.776   8.506  0.0592  0.2068  0.4925
  642MOL0     C86547   4.177  10.811   8.592  0.2743  0.3412 -0.5919
  642MOL0     C86548   4.206  10.919   8.688  0.0740  0.7443 -0.8297
  642MOL0     C86549   4.092  10.927   8.791  0.0945  0.2144  0.4388
  642MOL0     C86550   4.095  11.031   8.898  0.1282 -0.7952 -0.4211
  642MOL0     C86551   3.962  11.065   8.978 -0.6165 -0.3839  0.7590
  642MOL0     N86552   3.967  11.158   9.094  0.8345  0.4192 -0.1567
  642MOL0     C86553   4.068  11.158   9.197  0.3337  0.3897  1.0350
  642MOL0     C86554   4.021  11.241   9.286 -0.4686 -0.3053 -0.9831
  642MOL0     C86555   4.097  11.282   9.418  0.1616  0.1777  0.1591
  642MOL0     C86556   4.252  11.305   9.411 -0.7084  0.8126 -0.9434
  642MOL0     C86557   4.314  11.427   9.492  0.7892 -0.8488  0.4278
  642MOL0     C86558   4.316  11.552   9.395 -0.6571 -0.1598 -0.1125
  642MOL0     O86559   4.189  11.598   9.366 -0.4160  0.8381  0.4565
  642MOL0     C86560   4.139  11.687   9.450 -0.8742 -0.6008  0.3637
  642MOL0     C86561   4.203  11.817   9.464  0.0801 -0.4973  0.3513
  642MOL0     C86562   4.127  11.912   9.527 -0.6718  0.5877 -0.0352
  642MOL0     C86563   4.009  11.878   9.596 -0.0958 -0.0182  1.0164
  642MOL0     C86564   3.948  11.975   9.682 -0.6537 -0.3611 -0.0222
  642MOL0     O86565   3.806  11.973   9.683 -0.5361 -0.4531 -0.0314
  642MOL0     C86566   3.743  12.060   9.764 -0.1928  0.5894  0.3411
  642MOL0     C86567   3.759  12.045   9.898 -0.1503 -0.4430 -0.5838
  642MOL0     C86568   3.694  12.147   9.981 -0.4255  0.8600 -0.1219
  642MOL0     C86569   3.624  12.247   9.930 -0.4093 -0.6167  0.1422
  642MOL0     O86570   3.586  12.357  10.006  0.1867 -0.1439  0.3686
  642MOL0     C86571   3.465  12.434   9.968  0.4557 -0.2317 -0.1410
  642MOL0     C86572   3.382  12.516  10.072  0.3376 -0.5993  0.0994
  642MOL0     C86573   3.366  12.438  10.202 -0.3244  0.9624  0.1639
  642MOL0     C86574   3.309  12.521  10.310  0.5796  0.4025 -0.7108
  642MOL0     C86575   3.411  12.608  10.380 -0.4647 -0.1806 -0.2414
  642MOL0     C86576   3.357  12.683  10.495 -1.2248 -0.5476 -0.0764
  642MOL0     C86577   3.473  12.726  10.591 -0.6302  0.2458  0.6164
  642MOL0     C86578   3.544  12.615  10.665  0.1636  0.6208 -1.0981
  642MOL0    Cl86579   3.427  12.490  10.720 -0.3041  0.0222  0.0974
  642MOL0     C86580   3.604  12.248   9.787  0.5590  0.3567 -0.5775
  642MOL0     C86581   3.651  12.147   9.711 -0.8194  0.1794  0.1344
  642MOL0     O86582   4.020  12.053   9.745  0.1574 -0.6346 -0.1345
  642MOL0     C86583   3.953  11.751   9.590 -0.0547 -1.2602 -0.3642
  642MOL0     C86584   4.010  11.664   9.497  1.2081  0.2582  0.0679
  642MOL0     N86585   3.895  11.289   9.243 -0.1416  0.3470  0.3997
  642MOL0     N86586   3.863  11.249   9.126 -0.5083 -0.1709  0.2732
  642MOL0     C86587   4.371  10.475   7.997 -0.0691 -0.8289  0.0763
  642MOL0     C86588   4.428  10.491   7.868  0.9341 -0.5669 -0.3399
  642MOL0     C86589   4.707  10.692   7.545  0.0015 -0.9255  1.3699
  642MOL0     C86590   4.733  10.557   7.501 -0.1857  1.1175  1.1612
  642MOL0     C86591   4.789  10.527   7.372 -0.2967 -1.7992 -0.7841
  642MOL0     C86592   4.831  10.630   7.294 -0.0092 -0.0200  0.6569
  642MOL0     O86593   4.900  10.613   7.174  0.3213  0.5640 -0.1966
  642MOL0     C86594   4.917  10.482   7.122 -0.5119 -0.8057 -0.5354
  642MOL0     C86595   4.994  10.490   6.994 -0.2168 -0.1058  0.0805
  642MOL0     C86596   4.999  10.369   6.902  0.3017  0.6504 -0.2450
  642MOL0     C86597   5.100  10.265   6.932 -0.4804  0.1643 -0.2152
  642MOL0     C86598   5.070  10.169   7.045 -0.4503  0.4516  0.2230
  642MOL0     C86599   5.075  10.098   7.144 -0.8921  0.3966 -0.3114
  642MOL0     C86600   4.803  10.758   7.334 -0.7768 -0.2841 -0.2304
  642MOL0     C86601   4.748  10.794   7.458 -0.4970 -0.7116  0.6942
  642MOL0     C86602   4.713  10.942   7.475 -0.0594 -0.7082  0.0022
  642MOL0     H86603   4.662  10.729   7.942 -0.3121 -0.8438  0.9536
  642MOL0     H86604   4.604  10.693   8.145 -1.1918  4.2058 -0.8388
  642MOL0     H86605   4.472  10.695   8.336 -1.3693  0.2645  1.7669
  642MOL0     H86606   4.346  10.769   8.241 -0.6730  0.6276  3.2309
  642MOL0     H86607   4.296  10.577   8.472  1.2571 -1.2950 -1.6223
  642MOL0     H86608   4.176  10.657   8.375  0.8863 -1.9319 -2.0182
  642MOL0     H86609   4.316  10.868   8.449  0.3058 -0.5830 -0.7314
  642MOL0     H86610   4.381  10.753   8.570 -0.1237 -0.3495  0.5347
  642MOL0     H86611   4.098  10.850   8.527 -1.8074 -0.5281  1.2825
  642MOL0     H86612   4.136  10.725   8.646 -0.6037  0.4760 -1.0221
  642MOL0     H86613   4.297  10.913   8.748 -0.8679 -1.2571  0.5096
  642MOL0     H86614   4.209  11.012   8.631 -1.0364 -0.7783 -3.5579
  642MOL0     H86615   3.997  10.942   8.739 -1.4572 -1.3443  2.6417
  642MOL0     H86616   4.091  10.829   8.840 -0.2369 -0.8005 -1.4926
  642MOL0     H86617   4.138  11.127   8.868  0.9874 -0.7050  1.0041
  642MOL0     H86618   4.155  11.003   8.985 -2.3364 -1.6162  1.1241
  642MOL0     H86619   3.884  11.096   8.908  0.4489 -1.7153 -1.1021
  642MOL0     H86620   3.924  10.968   9.013  0.8870 -2.4765 -2.8332
  642MOL0     H86621   4.165  11.109   9.200  0.3483  0.4016  0.7647
  642MOL0     H86622   4.047  11.368   9.464  0.7764  1.5544 -1.6075
  642MOL0     H86623   4.077  11.203   9.490  2.8330 -1.3212 -0.6065
  642MOL0     H86624   4.310  11.223   9.454  0.2363  1.9632  0.0906
  642MOL0     H86625   4.293  11.303   9.310  2.0571  0.0048  0.0798
  642MOL0     H86626   4.415  11.401   9.522  0.1260 -1.6575  2.1149
  642MOL0     H86627   4.246  11.450   9.575  1.0525  3.3759 -0.2873
  642MOL0     H86628   4.368  11.530   9.301 -1.1900  0.0013 -0.4518
  642MOL0     H86629   4.380  11.624   9.446  2.5421 -3.4940  0.9927
  642MOL0     H86630   4.288  11.853   9.405  2.2558 -0.9048  3.0368
  642MOL0     H86631   4.174  12.009   9.546  1.2887 -0.0619 -1.2242
  642MOL0     H86632   3.828  11.974   9.941 -0.9762  0.0226  1.6745
  642MOL0     H86633   3.710  12.139  10.088 -0.8436  2.4188  0.0749
  642MOL0     H86634   3.503  12.514   9.904  0.9216 -0.6624 -0.4097
  642MOL0     H86635   3.397  12.377   9.904 -0.2794  2.1345 -1.5847
  642MOL0     H86636   3.438  12.606  10.102 -0.2468 -0.7760  1.7925
  642MOL0     H86637   3.287  12.552  10.033  1.0885  1.1166 -0.2547
  642MOL0     H86638   3.295  12.355  10.197 -0.2161  0.8075  0.9782
  642MOL0     H86639   3.464  12.420  10.246 -0.2172  0.2830 -0.3448
  642MOL0     H86640   3.284  12.448  10.387 -1.7219  3.0218  1.1973
  642MOL0     H86641   3.223  12.580  10.277  0.8645  0.8921 -0.5959
  642MOL0     H86642   3.464  12.667  10.305 -0.9480 -0.1230 -0.5421
  642MOL0     H86643   3.484  12.546  10.433 -2.3896 -0.9122  1.6879
  642MOL0     H86644   3.306  12.769  10.451  0.6412  0.9590  0.5914
  642MOL0     H86645   3.286  12.629  10.558 -3.1448 -1.1160 -2.5510
  642MOL0     H86646   3.424  12.783  10.671 -1.9218  2.0915 -1.4080
  642MOL0     H86647   3.537  12.797  10.539 -0.9477  1.3637  1.6985
  642MOL0     H86648   3.616  12.567  10.598 -0.1953  0.2993 -1.2610
  642MOL0     H86649   3.604  12.648  10.750  1.0515 -4.3890  0.5261
  642MOL0     H86650   3.551  12.328   9.737 -1.2026 -0.1148  0.4385
  642MOL0     H86651   3.640  12.138   9.603 -2.4154 -2.5807  0.4416
  642MOL0     H86652   3.869  11.717   9.649 -0.3057 -0.4004 -0.2234
  642MOL0     H86653   3.955  11.572   9.480  0.8849  0.7947 -1.9720
  642MOL0     H86654   4.287  10.418   8.035 -0.3839 -0.8205 -0.5894
  642MOL0     H86655   4.390  10.429   7.787 -0.3528  0.2730 -0.4129
  642MOL0     H86656   4.689  10.478   7.560 -2.8710  3.4035  2.4473
  642MOL0     H86657   4.808  10.426   7.338  1.4884 -1.0757 -2.1472
  642MOL0     H86658   4.820  10.440   7.094 -0.1895  0.0538 -3.2505
  642MOL0     H86659   4.973  10.420   7.193  1.8179  1.7702  0.0413
  642MOL0     H86660   5.098  10.509   7.023  0.1543 -0.5523 -0.9180
  642MOL0     H86661   4.960  10.576   6.935 -0.0510 -0.8857 -1.1794
  642MOL0     H86662   5.012  10.411   6.801  1.6687  3.3055  0.9105
  642MOL0     H86663   4.899  10.326   6.917  0.0145  0.8215 -1.5498
  642MOL0     H86664   5.117  10.195   6.850  1.4726  0.8015 -0.3945
  642MOL0     H86665   5.193  10.322   6.940 -0.0355 -0.5356 -0.2919
  642MOL0     H86666   5.102  10.037   7.228 -2.2201  1.1978  0.7374
  642MOL0     H86667   4.835  10.831   7.260 -4.5533 -2.2405 -4.2593
  642MOL0     H86668   4.766  10.987   7.560 -1.7944 -0.3868  0.9618
  642MOL0     H86669   4.742  11.004   7.390  3.4349 -0.9123  0.8972
  642MOL0     H86670   4.607  10.947   7.503 -0.3192 -2.7356 -0.4647
  643MOL0     O86671   2.974   5.315  11.485  0.6010  0.1400 -0.6792
  643MOL0     C86672   2.987   5.331  11.365  0.3292  1.5714  0.6187
  643MOL0     O86673   2.979   5.442  11.285  0.4429 -0.3255 -0.2789
  643MOL0     C86674   2.934   5.551  11.351  0.3181 -0.4137 -0.3072
  643MOL0     C86675   3.035   5.654  11.390  0.2540 -0.4855 -1.0647
  643MOL0     C86676   2.998   5.772  11.456  0.1183  0.5983  0.0591
  643MOL0     C86677   2.866   5.795  11.484 -0.0554 -0.1950 -0.7695
  643MOL0     O86678   2.841   5.915  11.544 -0.0317 -0.3106 -0.4531
  643MOL0     C86679   2.792   6.020  11.462  0.5457  0.7218  1.2461
  643MOL0     C86680   2.636   6.027  11.469 -0.5180 -0.8287  0.7576
  643MOL0     C86681   2.605   6.114  11.588 -0.8698  0.2191  0.5429
  643MOL0     C86682   2.470   6.191  11.587 -0.1158  0.0492 -0.4331
  643MOL0     C86683   2.473   6.292  11.482  0.5915  0.4232 -0.7236
  643MOL0     C86684   2.333   6.330  11.429 -0.5020 -0.1972 -0.8251
  643MOL0     C86685   2.260   6.431  11.522 -0.9909  0.3415 -0.3268
  643MOL0     C86686   2.159   6.511  11.446  0.1422  0.2943  0.8504
  643MOL0     N86687   2.090   6.617  11.531 -0.5777  0.4209 -0.9277
  643MOL0     C86688   2.039   6.598  11.657 -0.0232  0.0743  0.8705
  643MOL0     C86689   1.984   6.717  11.693 -0.7729 -0.1303  0.4723
  643MOL0     C86690   1.950   6.746  11.838 -0.0932 -0.2336  0.9789
  643MOL0     C86691   1.800   6.791  11.853 -0.4918 -0.1279  0.3437
  643MOL0     C86692   1.686   6.691  11.808 -0.1996 -0.9462 -0.5241
  643MOL0     C86693   1.677   6.561  11.886 -0.4100 -0.1969 -0.2257
  643MOL0     O86694   1.797   6.486  11.863  0.0937  0.4239  0.0297
  643MOL0     C86695   1.828   6.377  11.941  0.4728  0.1860 -0.3124
  643MOL0     C86696   1.963   6.336  11.958  0.0282  0.2126  0.0865
  643MOL0     C86697   1.990   6.221  12.041 -0.2687 -0.5163 -0.5861
  643MOL0     C86698   1.876   6.156  12.115  0.2714  0.3859  0.5602
  643MOL0     C86699   1.900   6.041  12.211 -0.0026 -0.3268 -0.0303
  643MOL0     O86700   1.789   5.969  12.247 -0.3129 -0.1148 -0.5141
  643MOL0     C86701   1.795   5.887  12.353 -0.5311  0.8310  0.0922
  643MOL0     C86702   1.675   5.880  12.436  0.4859 -0.8846 -0.7933
  643MOL0     C86703   1.661   5.780  12.542 -1.0614  0.6088  0.5434
  643MOL0     C86704   1.768   5.690  12.566 -0.2834 -0.9057 -0.3208
  643MOL0     O86705   1.748   5.590  12.664  0.4081 -0.7730 -0.8016
  643MOL0     C86706   1.660   5.491  12.623 -0.0420  0.2856 -0.5396
  643MOL0     C86707   1.535   5.485  12.728  0.4753 -0.8990 -0.0290
  643MOL0     C86708   1.481   5.338  12.742 -0.3090 -1.1239 -0.9761
  643MOL0     C86709   1.343   5.341  12.815  0.6210  0.2402  1.0235
  643MOL0     C86710   1.273   5.203  12.789 -0.1903  0.1284 -0.0016
  643MOL0     C86711   1.133   5.188  12.871  0.3449 -0.0547 -0.3411
  643MOL0     C86712   1.059   5.065  12.812  0.4354  0.2508  0.4481
  643MOL0     C86713   0.908   5.071  12.862  0.1220 -0.0566  0.0628
  643MOL0    Cl86714   0.816   5.216  12.819 -0.2323  0.4313 -0.1372
  643MOL0     C86715   1.883   5.704  12.494  0.2730  1.2021  1.0355
  643MOL0     C86716   1.895   5.793  12.377  0.1342  0.2902 -0.2725
  643MOL0     O86717   2.014   6.029  12.258 -0.6089  0.3413  0.2579
  643MOL0     C86718   1.750   6.205  12.096 -0.0319  0.9547  0.2606
  643MOL0     C86719   1.725   6.314  12.019 -0.5140  1.1456  0.3171
  643MOL0     N86720   2.005   6.805  11.591  0.6362  0.6216 -0.1209
  643MOL0     N86721   2.061   6.743  11.495  0.4454  0.3073  0.7093
  643MOL0     C86722   2.770   5.702  11.458 -0.2900  0.1344  0.2225
  643MOL0     C86723   2.797   5.580  11.387 -0.3335  0.0055  0.1941
  643MOL0     C86724   3.007   5.206  11.286 -0.6384  0.0419 -0.0517
  643MOL0     C86725   2.901   5.119  11.231 -1.1133  0.2874 -0.4539
  643MOL0     C86726   2.936   4.990  11.182 -0.9832  0.1405  1.0806
  643MOL0     C86727   3.062   4.933  11.183  0.1800  0.3098  0.1269
  643MOL0     O86728   3.095   4.809  11.126  0.4458 -1.0176 -0.3258
  643MOL0     C86729   2.993   4.735  11.060  0.3829  0.4063  0.5766
  643MOL0     C86730   3.048   4.608  10.995 -0.5138  0.6366 -0.5050
  643MOL0     C86731   2.937   4.515  10.949  0.0674 -0.3770 -0.5224
  643MOL0     C86732   2.983   4.396  10.879 -0.1044  1.0385  0.5532
  643MOL0     C86733   2.964   4.268  10.957 -0.9193  0.0306  0.6424
  643MOL0     C86734   2.940   4.167  11.023 -0.1584  0.1225 -0.2694
  643MOL0     C86735   3.162   5.024  11.222 -0.4682 -0.3347  0.0896
  643MOL0     C86736   3.137   5.148  11.278 -0.7271  0.4550 -0.0560
  643MOL0     C86737   3.269   5.216  11.340 -0.4767 -0.3172 -0.4686
  643MOL0     H86738   3.141   5.645  11.369  0.0455 -0.2435 -2.3140
  643MOL0     H86739   3.063   5.855  11.482 -0.2129  0.6729  0.6791
  643MOL0     H86740   2.838   6.115  11.491 -0.4384  0.5628  3.6203
  643MOL0     H86741   2.815   6.002  11.357 -1.7543 -1.4096  1.0072
  643MOL0     H86742   2.587   5.930  11.479 -0.1876 -1.1998 -0.9419
  643MOL0     H86743   2.597   6.072  11.377  3.1416  2.7448  0.6627
  643MOL0     H86744   2.689   6.184  11.597 -0.3365 -0.7221  4.8766
  643MOL0     H86745   2.609   6.045  11.672  2.0574 -1.6337 -0.9584
  643MOL0     H86746   2.400   6.113  11.559  0.4707 -0.3584 -0.7814
  643MOL0     H86747   2.441   6.236  11.683 -0.9039  0.2641 -0.7651
  643MOL0     H86748   2.536   6.379  11.502  0.1902  0.6013 -0.2004
  643MOL0     H86749   2.520   6.254  11.391  0.9490 -2.2889  0.5069
  643MOL0     H86750   2.358   6.386  11.339  0.3501 -0.6739 -0.8975
  643MOL0     H86751   2.266   6.244  11.428 -1.9567  0.7917  1.5539
  643MOL0     H86752   2.335   6.499  11.562  1.6767 -1.6537 -1.6086
  643MOL0     H86753   2.212   6.374  11.602  0.7245  1.1948  1.3824
  643MOL0     H86754   2.195   6.555  11.352  0.6159 -0.4437  0.6745
  643MOL0     H86755   2.081   6.448  11.400 -1.1419  0.6738  2.4224
  643MOL0     H86756   2.038   6.507  11.716 -2.4474  0.5390  1.6708
  643MOL0     H86757   1.985   6.660  11.897  2.0788  0.0062  0.1506
  643MOL0     H86758   2.018   6.820  11.881  2.5171 -3.2483  2.4594
  643MOL0     H86759   1.780   6.801  11.960 -0.7213 -0.0171  0.2916
  643MOL0     H86760   1.782   6.885  11.799  3.4792  1.1955  1.0044
  643MOL0     H86761   1.692   6.675  11.700  1.7887 -3.0686 -0.1520
  643MOL0     H86762   1.595   6.747  11.832  0.8561  1.6412 -2.0618
  643MOL0     H86763   1.596   6.496  11.851  1.5354 -2.7412 -0.3289
  643MOL0     H86764   1.663   6.594  11.989  0.3051 -2.1371  0.5430
  643MOL0     H86765   2.044   6.378  11.900  1.2067  1.2464  2.3260
  643MOL0     H86766   2.096   6.199  12.052 -0.2313  0.5147  1.8615
  643MOL0     H86767   1.593   5.949  12.420 -0.4773 -1.9599 -0.6111
  643MOL0     H86768   1.566   5.773  12.594 -2.2874 -0.2900 -1.6457
  643MOL0     H86769   1.628   5.495  12.519  1.3770 -0.7292 -1.0468
  643MOL0     H86770   1.723   5.402  12.626  0.0118  0.1040 -3.8814
  643MOL0     H86771   1.586   5.506  12.822 -0.9764  0.9376  0.4022
  643MOL0     H86772   1.457   5.554  12.694  0.0272 -1.4461 -0.1246
  643MOL0     H86773   1.474   5.293  12.643 -1.8625 -0.2302 -1.2993
  643MOL0     H86774   1.563   5.287  12.795  1.0527  1.9067  0.0802
  643MOL0     H86775   1.280   5.420  12.771 -0.4929  0.0941  2.2715
  643MOL0     H86776   1.350   5.358  12.923 -2.4718  0.0785  1.3495
  643MOL0     H86777   1.330   5.111  12.801  0.7383  0.5409 -1.0181
  643MOL0     H86778   1.245   5.207  12.683 -1.8327  0.3843  0.4224
  643MOL0     H86779   1.159   5.175  12.977  0.6719 -1.2579 -0.5507
  643MOL0     H86780   1.069   5.274  12.849 -0.8643 -0.8492 -0.0436
  643MOL0     H86781   1.123   4.982  12.844  1.5511  1.8628  2.6520
  643MOL0     H86782   1.055   5.067  12.702 -2.3465 -1.9433  0.3865
  643MOL0     H86783   0.854   4.987  12.815 -1.7435  1.2640 -0.2914
  643MOL0     H86784   0.922   5.060  12.969  1.5296  1.2724  0.0353
  643MOL0     H86785   1.962   5.638  12.528  2.0689  2.9780  0.5089
  643MOL0     H86786   1.982   5.787  12.313  0.7420  2.6473  0.2341
  643MOL0     H86787   1.679   6.152  12.157  3.9370 -2.3242  2.5878
  643MOL0     H86788   1.620   6.339  12.008 -0.7732 -0.1767 -0.3627
  643MOL0     H86789   2.667   5.713  11.489 -0.1935 -0.4882  0.7902
  643MOL0     H86790   2.728   5.498  11.372 -1.3282 -0.2718  4.8624
  643MOL0     H86791   2.799   5.153  11.249 -0.9016  0.6041  0.1796
  643MOL0     H86792   2.847   4.940  11.144  0.5128 -1.4820 -0.4925
  643MOL0     H86793   2.951   4.794  10.978 -1.5247 -2.8199 -0.9593
  643MOL0     H86794   2.904   4.712  11.119  1.2058 -0.3202  1.5715
  643MOL0     H86795   3.105   4.559  11.074  0.5505  2.2831 -0.2037
  643MOL0     H86796   3.115   4.629  10.910  1.7474  0.6645  1.1940
  643MOL0     H86797   2.864   4.566  10.885  2.2242  1.7394 -1.4459
  643MOL0     H86798   2.884   4.485  11.040 -2.5984 -2.3996 -2.5603
  643MOL0     H86799   2.924   4.380  10.788 -0.8914  0.7834  1.1062
  643MOL0     H86800   3.090   4.414  10.860  0.4983  0.0442  2.7684
  643MOL0     H86801   2.913   4.084  11.084  2.0879 -0.3872  0.1093
  643MOL0     H86802   3.263   4.984  11.213  1.1155  3.5547 -1.6933
  643MOL0     H86803   3.311   5.274  11.257  1.8949 -3.6041 -1.8304
  643MOL0     H86804   3.255   5.273  11.432 -0.2320  0.6756 -1.0367
  643MOL0     H86805   3.347   5.143  11.367  1.5769  0.6491 -3.2885
  644MOL0     O86806   6.196   8.433   6.840  0.4295  0.9061  0.4028
  644MOL0     C86807   6.125   8.488   6.759  0.3624 -0.7676  0.0414
  644MOL0     O86808   6.157   8.491   6.624 -0.6094  0.0503  0.5881
  644MOL0     C86809   6.286   8.460   6.594 -0.2822 -0.1819  0.7086
  644MOL0     C86810   6.358   8.569   6.568 -1.4844 -0.5192  0.3800
  644MOL0     C86811   6.493   8.555   6.530  0.6363 -0.0584 -1.0619
  644MOL0     C86812   6.555   8.428   6.523  0.7921 -1.5803 -0.0952
  644MOL0     O86813   6.683   8.405   6.485  0.3488 -0.2857  0.4275
  644MOL0     C86814   6.706   8.328   6.371 -0.2435 -0.3916  0.4559
  644MOL0     C86815   6.846   8.354   6.319  0.2967 -0.1126 -0.7136
  644MOL0     C86816   6.879   8.490   6.266 -0.0474 -0.2341 -0.0502
  644MOL0     C86817   7.035   8.517   6.273 -0.5643 -0.6391 -0.1041
  644MOL0     C86818   7.080   8.667   6.232 -0.3658  0.1622  0.9906
  644MOL0     C86819   7.001   8.775   6.317 -0.2435 -0.1312  0.7470
  644MOL0     C86820   7.067   8.915   6.311  0.6016 -0.0187  0.6297
  644MOL0     C86821   7.079   8.975   6.165  0.0719  0.1415 -0.6775
  644MOL0     N86822   7.135   9.111   6.176 -1.2651 -0.4754 -0.5195
  644MOL0     C86823   7.270   9.142   6.174  0.1850  0.1487 -0.0540
  644MOL0     C86824   7.274   9.270   6.182 -0.9079 -0.2479  0.6794
  644MOL0     C86825   7.404   9.352   6.184 -0.2974  1.7219  0.2026
  644MOL0     C86826   7.398   9.470   6.087 -0.0504 -0.8026  0.2567
  644MOL0     C86827   7.529   9.550   6.101 -0.2480  0.3900 -0.0598
  644MOL0     C86828   7.525   9.694   6.040 -0.2534  1.2699 -0.4433
  644MOL0     O86829   7.623   9.782   6.093  0.3375 -0.1028  0.1778
  644MOL0     C86830   7.648   9.904   6.026  0.1943  0.7643  0.9762
  644MOL0     C86831   7.727   9.994   6.093  0.0377  0.1738 -0.4117
  644MOL0     C86832   7.761  10.107   6.026 -0.7856 -0.4310  0.6799
  644MOL0     C86833   7.710  10.140   5.900  0.8420  1.0200 -0.0971
  644MOL0     C86834   7.733  10.263   5.825  0.1514 -0.3119 -0.4002
  644MOL0     O86835   7.739  10.374   5.906 -1.6723  0.3370 -0.2290
  644MOL0     C86836   7.711  10.494   5.850 -0.8519  0.0064 -0.3415
  644MOL0     C86837   7.807  10.563   5.779 -0.7976  0.0792  0.3845
  644MOL0     C86838   7.764  10.690   5.726 -1.0606  0.7787  0.5340
  644MOL0     C86839   7.645  10.752   5.758  0.3474 -1.0753 -1.2867
  644MOL0     O86840   7.632  10.881   5.705 -0.2955 -0.1449  0.2022
  644MOL0     C86841   7.506  10.923   5.665  0.7494  0.0414  0.0280
  644MOL0     C86842   7.515  11.054   5.594  0.2746 -0.1882  0.1791
  644MOL0     C86843   7.579  11.035   5.448 -1.1391 -0.8839 -0.2514
  644MOL0     C86844   7.480  10.983   5.351  0.2352 -0.6063 -0.7703
  644MOL0     C86845   7.536  10.963   5.207 -0.5506 -0.3422  0.1395
  644MOL0     C86846   7.426  10.946   5.102  0.7924 -0.5790 -0.2287
  644MOL0     C86847   7.464  10.887   4.960 -0.2407 -0.6535 -0.2959
  644MOL0     C86848   7.354  10.910   4.852  0.0884  0.1583 -0.5911
  644MOL0    Cl86849   7.414  10.874   4.688  0.2563 -0.0920 -0.0873
  644MOL0     C86850   7.547  10.679   5.832 -1.1387  0.7793 -0.6095
  644MOL0     C86851   7.585  10.547   5.890 -1.0563  0.5406 -0.2539
  644MOL0     O86852   7.723  10.264   5.699 -0.0631  0.3621  0.1172
  644MOL0     C86853   7.622  10.050   5.840 -0.1445  0.2416 -0.2476
  644MOL0     C86854   7.585   9.934   5.903  0.2914  0.8398 -0.3453
  644MOL0     N86855   7.142   9.319   6.194  0.6526 -0.3646 -0.6131
  644MOL0     N86856   7.062   9.226   6.179 -1.0164  0.5824  0.2967
  644MOL0     C86857   6.471   8.318   6.530  0.2989 -0.0142  0.1745
  644MOL0     C86858   6.343   8.330   6.568 -0.1883 -0.1306 -0.4973
  644MOL0     C86859   5.988   8.547   6.794  0.8367 -0.9311 -0.1024
  644MOL0     C86860   5.911   8.586   6.685  1.3874  0.7017 -0.1561
  644MOL0     C86861   5.794   8.655   6.702 -0.4546  0.1065  0.2177
  644MOL0     C86862   5.743   8.676   6.827 -0.4956 -0.3658 -0.5642
  644MOL0     O86863   5.628   8.728   6.833  0.0013 -0.4423 -0.3700
  644MOL0     C86864   5.554   8.732   6.959 -0.2661 -0.4571 -1.4091
  644MOL0     C86865   5.444   8.843   6.962  0.0476 -0.9592  0.0813
  644MOL0     C86866   5.343   8.817   6.843 -0.2901  0.0875 -0.6164
  644MOL0     C86867   5.205   8.901   6.855 -0.3283 -1.0539 -0.7565
  644MOL0     C86868   5.102   8.835   6.773 -0.2009 -0.1501  1.4267
  644MOL0     C86869   5.013   8.784   6.714  0.9685  0.2081  0.3715
  644MOL0     C86870   5.810   8.618   6.939  0.2690  0.4663  0.1813
  644MOL0     C86871   5.935   8.560   6.927  0.0375  0.8896 -1.0267
  644MOL0     C86872   6.006   8.489   7.041 -0.9288 -0.6171  0.1118
  644MOL0     H86873   6.313   8.667   6.575 -1.7921 -0.7291  1.5163
  644MOL0     H86874   6.550   8.647   6.518  0.8427  0.2228  1.4382
  644MOL0     H86875   6.688   8.223   6.395 -0.6413  0.0848  2.4099
  644MOL0     H86876   6.640   8.364   6.292 -2.0934 -0.1560  2.0338
  644MOL0     H86877   6.855   8.288   6.232  0.9574 -1.6527  0.4685
  644MOL0     H86878   6.918   8.316   6.392 -1.2645  0.5510  1.2578
  644MOL0     H86879   6.821   8.564   6.322  1.7904  0.5268  0.9587
  644MOL0     H86880   6.851   8.494   6.161 -0.7594 -3.7186 -0.0808
  644MOL0     H86881   7.067   8.496   6.376 -2.1638  0.1782  0.5883
  644MOL0     H86882   7.099   8.454   6.210  3.1509  1.5155  1.1879
  644MOL0     H86883   7.187   8.668   6.255 -0.0309  2.3067 -0.4271
  644MOL0     H86884   7.065   8.685   6.125 -1.1185 -4.5199  0.0926
  644MOL0     H86885   6.899   8.781   6.277  0.1401  1.1319 -0.0951
  644MOL0     H86886   6.993   8.737   6.419  0.0375 -2.2100  0.0423
  644MOL0     H86887   7.166   8.903   6.356  1.2394  0.1642 -0.6860
  644MOL0     H86888   7.018   8.992   6.371 -2.6760  0.4799 -2.3189
  644MOL0     H86889   7.152   8.918   6.108  2.7267  1.4667  1.1592
  644MOL0     H86890   6.986   8.988   6.109  0.3805  2.5126 -0.7447
  644MOL0     H86891   7.350   9.069   6.165  2.2078  2.2922 -0.7404
  644MOL0     H86892   7.417   9.393   6.285 -1.2737  0.4506  0.8724
  644MOL0     H86893   7.478   9.277   6.155 -1.5107  0.6795 -0.2675
  644MOL0     H86894   7.396   9.437   5.983 -5.3479 -5.4009  1.3254
  644MOL0     H86895   7.306   9.526   6.106  1.4616  2.3043 -0.8714
  644MOL0     H86896   7.596   9.481   6.050 -2.3835 -1.2977 -0.7633
  644MOL0     H86897   7.570   9.558   6.202  1.4891 -4.7455 -0.1102
  644MOL0     H86898   7.428   9.733   6.072 -0.5078  1.6328 -1.6250
  644MOL0     H86899   7.522   9.662   5.936 -0.7951  0.2016 -0.1170
  644MOL0     H86900   7.773   9.961   6.186 -0.6243 -0.3973 -0.2762
  644MOL0     H86901   7.825  10.178   6.078  0.5793 -1.5619  0.6246
  644MOL0     H86902   7.902  10.518   5.752  0.2123  1.7297  1.0250
  644MOL0     H86903   7.837  10.751   5.674 -1.1990 -0.0786 -0.7089
  644MOL0     H86904   7.458  10.852   5.596 -0.4880  0.0115  0.8828
  644MOL0     H86905   7.438  10.945   5.748 -1.8522 -2.4085 -1.2407
  644MOL0     H86906   7.414  11.097   5.588  0.2171  0.4207  3.4659
  644MOL0     H86907   7.565  11.115   5.670 -3.5324 -0.3626  3.1927
  644MOL0     H86908   7.599  11.134   5.408 -1.1653 -0.0841  1.6404
  644MOL0     H86909   7.669  10.973   5.451 -1.7015 -1.6782  0.9071
  644MOL0     H86910   7.390  11.045   5.350  0.7308  0.1630  0.3948
  644MOL0     H86911   7.453  10.886   5.394  0.1667 -0.3814 -0.2983
  644MOL0     H86912   7.601  10.875   5.211  1.4015  0.8010 -2.9437
  644MOL0     H86913   7.602  11.044   5.173  1.1748 -1.0843  1.5405
  644MOL0     H86914   7.355  10.869   5.136 -2.1349  1.1266 -2.0148
  644MOL0     H86915   7.372  11.041   5.096 -0.7721 -1.4731 -1.0548
  644MOL0     H86916   7.480  10.779   4.965  3.1615 -0.2143  0.9078
  644MOL0     H86917   7.548  10.949   4.928 -0.2568  0.3568  1.4949
  644MOL0     H86918   7.255  10.868   4.875  1.4645 -2.0889  1.6726
  644MOL0     H86919   7.328  11.016   4.869 -3.2080 -0.8574  1.8856
  644MOL0     H86920   7.450  10.721   5.859 -2.0133 -0.3405 -1.9077
  644MOL0     H86921   7.521  10.488   5.955 -1.7109 -1.0690 -2.2531
  644MOL0     H86922   7.569  10.076   5.748 -0.5380 -2.7879 -0.9578
  644MOL0     H86923   7.523   9.866   5.845 -0.4947  0.9459  0.3444
  644MOL0     H86924   6.518   8.221   6.514 -1.0947 -0.2179 -3.6134
  644MOL0     H86925   6.280   8.244   6.591 -1.8879  1.7245  2.3250
  644MOL0     H86926   5.941   8.555   6.585 -1.0126 -2.9023  0.0457
  644MOL0     H86927   5.727   8.688   6.625 -1.4881 -3.6517 -0.6836
  644MOL0     H86928   5.622   8.745   7.044 -2.8716  3.5588  0.3823
  644MOL0     H86929   5.497   8.641   6.980 -2.8579  1.0955 -1.2429
  644MOL0     H86930   5.490   8.941   6.945 -1.7309 -0.5174 -2.9035
  644MOL0     H86931   5.392   8.830   7.058  1.5583 -0.4724  0.9984
  644MOL0     H86932   5.311   8.712   6.848  0.9440 -0.3324 -1.2535
  644MOL0     H86933   5.385   8.836   6.744 -0.5237 -2.3490 -1.2495
  644MOL0     H86934   5.155   8.911   6.952 -2.1489 -2.1745 -1.5234
  644MOL0     H86935   5.210   8.996   6.801 -0.6650 -2.4602 -3.4659
  644MOL0     H86936   4.922   8.757   6.665  0.5499  1.4786  0.4040
  644MOL0     H86937   5.760   8.603   7.034  1.4811  0.3452  0.8320
  644MOL0     H86938   6.107   8.526   7.061  0.0530 -3.1067  0.1637
  644MOL0     H86939   5.955   8.494   7.137 -0.2605  0.2465  0.4397
  644MOL0     H86940   6.024   8.385   7.013  2.6608  0.1534 -1.0669
  645MOL0     O86941   5.690   5.216   2.423 -0.1707 -0.6942  0.2973
  645MOL0     C86942   5.777   5.148   2.370  0.1046 -0.2210  0.1424
  645MOL0     O86943   5.806   5.148   2.239 -0.0099  0.2506 -0.6770
  645MOL0     C86944   5.705   5.173   2.153  0.3179 -0.2569  0.9065
  645MOL0     C86945   5.721   5.263   2.042 -0.4339  0.2408 -0.9460
  645MOL0     C86946   5.628   5.266   1.940 -0.8485  0.5232 -0.2322
  645MOL0     C86947   5.516   5.184   1.938 -0.2890  0.1922 -0.0770
  645MOL0     O86948   5.420   5.200   1.843 -0.6802 -0.2350  0.1016
  645MOL0     C86949   5.302   5.119   1.854 -0.7767 -1.0579 -1.0900
  645MOL0     C86950   5.207   5.135   1.730  0.4347  0.1943 -0.5423
  645MOL0     C86951   5.063   5.102   1.759 -0.6651  0.5479 -0.3863
  645MOL0     C86952   4.978   5.142   1.639  0.5724  0.8458 -0.4878
  645MOL0     C86953   4.836   5.085   1.653 -0.2956  0.2625 -0.1851
  645MOL0     C86954   4.748   5.144   1.551  0.0364  0.4481  0.7246
  645MOL0     C86955   4.610   5.065   1.560  0.0131  0.1775 -0.5232
  645MOL0     C86956   4.497   5.137   1.499  0.2211  0.4786  0.2038
  645MOL0     N86957   4.456   5.266   1.559 -0.1035 -0.8743 -0.8685
  645MOL0     C86958   4.404   5.290   1.686 -0.3961  0.7409  0.4353
  645MOL0     C86959   4.383   5.424   1.693 -0.0114 -0.4265 -0.2162
  645MOL0     C86960   4.306   5.494   1.808 -0.4921 -0.1788 -0.1581
  645MOL0     C86961   4.170   5.418   1.837 -0.5673 -0.3235  1.0265
  645MOL0     C86962   4.080   5.412   1.716  0.6930 -0.6152  0.1848
  645MOL0     C86963   3.945   5.358   1.747 -0.2256  0.4296 -0.3589
  645MOL0     O86964   3.869   5.443   1.831 -0.5473  0.1129  0.8516
  645MOL0     C86965   3.730   5.454   1.826  0.1261 -0.8053 -1.0420
  645MOL0     C86966   3.679   5.574   1.884  0.3058 -0.0610 -0.1263
  645MOL0     C86967   3.540   5.604   1.872  0.1140 -0.1781  0.9676
  645MOL0     C86968   3.449   5.512   1.805 -0.1452  0.2860 -0.1862
  645MOL0     C86969   3.306   5.545   1.788 -0.7943 -0.1685 -0.3140
  645MOL0     O86970   3.253   5.653   1.851 -0.2771  0.9357 -0.7164
  645MOL0     C86971   3.141   5.702   1.789 -0.1732  0.6861  0.4165
  645MOL0     C86972   3.018   5.695   1.860 -0.4977 -0.1504 -0.1763
  645MOL0     C86973   2.912   5.764   1.804 -0.4545  0.7456 -0.1385
  645MOL0     C86974   2.928   5.842   1.689  0.2308  0.8170  0.5930
  645MOL0     O86975   2.811   5.901   1.642  0.1336 -0.0902 -0.0773
  645MOL0     C86976   2.717   5.820   1.561  0.2105  0.3727 -0.0004
  645MOL0     C86977   2.617   5.899   1.469 -0.8568 -0.3738 -0.2101
  645MOL0     C86978   2.544   5.795   1.379 -0.3157  0.1401  0.2580
  645MOL0     C86979   2.487   5.869   1.266  0.4980 -0.1483 -0.0155
  645MOL0     C86980   2.411   5.770   1.184 -0.1389 -0.7269  0.5508
  645MOL0     C86981   2.327   5.826   1.069 -0.6790  0.1192 -0.0705
  645MOL0     C86982   2.196   5.898   1.118  0.4307  0.8855 -0.3874
  645MOL0     C86983   2.140   5.984   1.018  1.1293 -0.5776 -0.5574
  645MOL0    Cl86984   2.262   6.112   0.967 -0.1941 -0.1234  0.0403
  645MOL0     C86985   3.051   5.853   1.626 -0.2271  0.2185  0.1115
  645MOL0     C86986   3.160   5.782   1.685  0.7954 -0.1665  0.9962
  645MOL0     O86987   3.238   5.468   1.718  0.1043 -0.4756  0.7965
  645MOL0     C86988   3.504   5.388   1.764 -0.1254 -0.1198 -1.0328
  645MOL0     C86989   3.639   5.353   1.779 -0.9168 -0.2999  0.1600
  645MOL0     N86990   4.440   5.484   1.578  0.2973 -0.4724 -0.2146
  645MOL0     N86991   4.485   5.392   1.505  0.0182 -0.1227 -0.1107
  645MOL0     C86992   5.498   5.093   2.042 -0.0235 -0.5756 -0.2713
  645MOL0     C86993   5.584   5.100   2.159  0.3365 -0.3449  0.5078
  645MOL0     C86994   5.876   5.072   2.449  0.6464  0.7418  0.1283
  645MOL0     C86995   5.994   5.023   2.387  0.7989  0.4361  0.0874
  645MOL0     C86996   6.086   4.943   2.444 -0.1740  0.8373 -0.9790
  645MOL0     C86997   6.074   4.893   2.570  0.8661 -0.4297 -0.1096
  645MOL0     O86998   6.161   4.817   2.633 -0.0290 -0.9576  0.2224
  645MOL0     C86999   6.256   4.897   2.710 -0.5162  0.2368  0.2735
  645MOL0     C87000   6.393   4.891   2.644  0.0356 -0.7602 -0.0792
  645MOL0     C87001   6.461   4.749   2.659 -0.6025 -1.0144 -0.9622
  645MOL0     C87002   6.410   4.629   2.573 -0.9317 -0.0692  0.6627
  645MOL0     C87003   6.534   4.552   2.534  0.6557  0.0604  0.1058
  645MOL0     C87004   6.627   4.485   2.505 -0.0442  1.0102 -0.5558
  645MOL0     C87005   5.954   4.930   2.640  0.1593  0.5968  0.9006
  645MOL0     C87006   5.859   5.016   2.580  1.1698  0.7651  0.2416
  645MOL0     C87007   5.741   5.042   2.667  0.4276 -0.6539  0.0399
  645MOL0     H87008   5.816   5.314   2.045 -1.0197  1.3152  0.9147
  645MOL0     H87009   5.644   5.336   1.859  2.4706 -1.8339 -1.8220
  645MOL0     H87010   5.332   5.014   1.857  0.2850 -0.7686 -1.1421
  645MOL0     H87011   5.248   5.156   1.941  2.0323 -2.2920  1.3440
  645MOL0     H87012   5.242   5.062   1.656  0.1753 -1.1555  0.6289
  645MOL0     H87013   5.217   5.229   1.674 -3.0910  2.4055  2.1551
  645MOL0     H87014   5.039   5.157   1.850 -2.9333  0.5401 -0.9290
  645MOL0     H87015   5.053   4.994   1.772 -1.2135  0.9458  3.9694
  645MOL0     H87016   4.973   5.250   1.655 -2.2067  0.5214  1.4353
  645MOL0     H87017   5.022   5.110   1.544  0.1612 -2.4538  0.3301
  645MOL0     H87018   4.846   4.979   1.630 -1.6035  0.6484 -2.8226
  645MOL0     H87019   4.803   5.097   1.757 -1.7531  3.7489 -0.8901
  645MOL0     H87020   4.728   5.246   1.586  1.0890 -0.2164  3.5482
  645MOL0     H87021   4.800   5.145   1.455  5.3089  1.3824  3.2332
  645MOL0     H87022   4.596   5.048   1.667  0.0867 -1.1905 -0.7100
  645MOL0     H87023   4.621   4.965   1.518 -1.6280 -0.0355 -0.4823
  645MOL0     H87024   4.532   5.163   1.399  0.6816  0.7302  0.4282
  645MOL0     H87025   4.405   5.078   1.495  1.6128 -1.7522 -0.3315
  645MOL0     H87026   4.391   5.213   1.761 -1.2243 -0.7160 -1.1516
  645MOL0     H87027   4.379   5.485   1.889  0.0497 -1.0586 -0.7242
  645MOL0     H87028   4.295   5.600   1.784 -0.4178 -0.4482 -1.4545
  645MOL0     H87029   4.190   5.314   1.864 -1.0360 -0.8048 -0.4098
  645MOL0     H87030   4.117   5.474   1.915 -1.7937 -0.5784  0.3873
  645MOL0     H87031   4.130   5.352   1.640  0.7962  0.8865 -0.9717
  645MOL0     H87032   4.076   5.510   1.667 -1.1939 -1.4320 -1.4499
  645MOL0     H87033   3.949   5.258   1.792 -2.6252  0.1724 -0.5706
  645MOL0     H87034   3.905   5.346   1.646  2.0033 -0.5006 -1.1908
  645MOL0     H87035   3.736   5.650   1.937 -0.2044 -0.7222  1.4073
  645MOL0     H87036   3.496   5.692   1.918 -1.3800 -1.5388  2.2754
  645MOL0     H87037   3.021   5.644   1.955 -0.6529  2.0481  1.0654
  645MOL0     H87038   2.825   5.750   1.867  0.5670  0.8217  1.3308
  645MOL0     H87039   2.770   5.761   1.486 -0.6635 -0.6227  0.1450
  645MOL0     H87040   2.658   5.753   1.624  0.3642  0.2171 -0.0193
  645MOL0     H87041   2.557   5.966   1.531  1.2304 -0.2287  1.7939
  645MOL0     H87042   2.680   5.963   1.407  0.2238 -3.3668 -2.4315
  645MOL0     H87043   2.611   5.715   1.344  0.6019  2.2503 -3.4232
  645MOL0     H87044   2.463   5.752   1.439  1.5170 -0.6850  2.2651
  645MOL0     H87045   2.560   5.929   1.211  2.0818 -2.9644 -1.2422
  645MOL0     H87046   2.416   5.936   1.315  0.6107  0.0230 -0.0863
  645MOL0     H87047   2.342   5.706   1.240 -1.9990  0.4757 -0.2370
  645MOL0     H87048   2.472   5.697   1.130 -4.6157 -3.3928 -1.4531
  645MOL0     H87049   2.379   5.889   0.996 -2.1769 -0.0427 -1.3396
  645MOL0     H87050   2.297   5.733   1.020 -1.3969  0.3242 -0.0296
  645MOL0     H87051   2.216   5.954   1.210 -1.8504 -0.4611  1.0120
  645MOL0     H87052   2.127   5.815   1.135  3.7733 -1.8741  0.9370
  645MOL0     H87053   2.105   5.935   0.926 -3.0161  1.6790 -0.4089
  645MOL0     H87054   2.051   6.039   1.050  0.1142 -2.2071 -0.4591
  645MOL0     H87055   3.063   5.907   1.533  0.1884 -0.4848 -0.2529
  645MOL0     H87056   3.258   5.797   1.641  0.1765  0.2385 -0.3137
  645MOL0     H87057   3.426   5.318   1.734 -1.0266  1.5474 -2.7945
  645MOL0     H87058   3.684   5.259   1.750 -0.5895  0.3858 -1.6752
  645MOL0     H87059   5.418   5.020   2.050  0.0952 -0.7119 -0.3406
  645MOL0     H87060   5.567   5.043   2.250 -1.5860  2.4714  2.0574
  645MOL0     H87061   6.028   5.063   2.292  2.3506  0.0250  0.4264
  645MOL0     H87062   6.177   4.924   2.390  0.5344 -0.2982  0.5503
  645MOL0     H87063   6.269   4.850   2.808  1.3351 -1.0386 -0.5041
  645MOL0     H87064   6.221   4.999   2.723 -1.2760 -0.1378  1.3532
  645MOL0     H87065   6.456   4.959   2.702 -2.0596  0.5661  0.7600
  645MOL0     H87066   6.395   4.930   2.542  1.5445 -0.7260 -0.0512
  645MOL0     H87067   6.449   4.725   2.765 -0.2373 -0.9050 -0.8962
  645MOL0     H87068   6.568   4.767   2.643 -0.4842  0.9509  1.5146
  645MOL0     H87069   6.335   4.569   2.625  1.0843 -0.9047  2.7678
  645MOL0     H87070   6.365   4.677   2.486  0.8575  1.0767  0.3279
  645MOL0     H87071   6.709   4.432   2.463  0.4717  2.2259 -1.1424
  645MOL0     H87072   5.950   4.914   2.748  3.5190  1.7325  1.3192
  645MOL0     H87073   5.745   5.129   2.733 -1.0432 -0.9363  0.5392
  645MOL0     H87074   5.647   5.052   2.612  2.0524  3.2586 -2.4324
  645MOL0     H87075   5.724   4.962   2.740 -2.2747 -2.0295 -1.9045
  646MOL0     O87076   8.024   6.487   6.447  0.0934  0.8954 -0.1805
  646MOL0     C87077   7.937   6.572   6.437  0.1323  0.4028 -0.7429
  646MOL0     O87078   7.876   6.620   6.323 -0.6177  0.4046 -0.4952
  646MOL0     C87079   7.918   6.563   6.211  0.7984 -0.6512  1.2346
  646MOL0     C87080   8.059   6.553   6.172  0.3799  1.0994 -0.0009
  646MOL0     C87081   8.099   6.497   6.055 -0.1568  0.5989 -0.4059
  646MOL0     C87082   8.003   6.461   5.959  0.7652  0.4700  0.4458
  646MOL0     O87083   8.050   6.401   5.847 -0.4918 -0.1625 -0.3042
  646MOL0     C87084   7.951   6.356   5.747  0.3811 -0.2723 -0.2092
  646MOL0     C87085   8.019   6.288   5.622 -0.3736  0.0761 -0.1076
  646MOL0     C87086   7.931   6.176   5.571 -0.4737 -0.5142  0.6268
  646MOL0     C87087   8.007   6.107   5.456 -0.2666 -0.4459  0.4506
  646MOL0     C87088   7.914   6.013   5.373  0.6164 -0.1019  0.8054
  646MOL0     C87089   7.857   5.913   5.467  0.3349  0.0178  0.7139
  646MOL0     C87090   7.831   5.786   5.388 -0.3562  0.3831 -0.3959
  646MOL0     C87091   7.770   5.667   5.478 -0.3636 -0.6735  0.3170
  646MOL0     N87092   7.767   5.545   5.391  0.3957  0.0036  0.5156
  646MOL0     C87093   7.698   5.544   5.269 -0.0553  1.4591 -0.1323
  646MOL0     C87094   7.719   5.416   5.219  0.6636  0.4598 -0.6806
  646MOL0     C87095   7.676   5.378   5.082 -0.8610 -0.1646 -0.5615
  646MOL0     C87096   7.534   5.371   5.037  0.5051  0.1712 -1.3272
  646MOL0     C87097   7.508   5.287   4.914 -0.9911  0.5884  0.7700
  646MOL0     C87098   7.359   5.287   4.853 -0.1916  0.1927 -0.2680
  646MOL0     O87099   7.283   5.241   4.972 -0.2246  0.3631  0.0245
  646MOL0     C87100   7.179   5.154   4.962 -0.0021  0.1000 -0.9788
  646MOL0     C87101   7.160   5.057   5.065 -0.4876 -0.2406 -0.0368
  646MOL0     C87102   7.048   4.974   5.061  0.6010  0.2236 -0.0849
  646MOL0     C87103   6.950   4.987   4.966  0.1483  0.5151  0.6370
  646MOL0     C87104   6.844   4.889   4.951  0.6111 -0.0370 -0.5231
  646MOL0     O87105   6.822   4.806   5.044 -0.1566  0.2196  0.3615
  646MOL0     C87106   6.713   4.719   5.030 -0.6538  0.5621  0.4202
  646MOL0     C87107   6.579   4.757   5.058 -0.3771  0.7684 -0.4900
  646MOL0     C87108   6.473   4.671   5.053 -0.1836  0.1404 -0.1902
  646MOL0     C87109   6.501   4.533   5.016  0.5270 -1.2016 -0.9153
  646MOL0     O87110   6.400   4.450   5.048 -0.4355  0.5033  0.3616
  646MOL0     C87111   6.391   4.320   4.989 -0.4645  0.2933  0.7531
  646MOL0     C87112   6.335   4.220   5.085  0.7614  0.0415 -0.4334
  646MOL0     C87113   6.282   4.077   5.026  0.7426  0.1185 -0.5879
  646MOL0     C87114   6.204   3.996   5.133  0.0084  0.0916  0.1357
  646MOL0     C87115   6.168   3.861   5.070  0.1992 -0.0174  0.5377
  646MOL0     C87116   6.111   3.760   5.174 -0.7255  0.6031 -0.1139
  646MOL0     C87117   5.988   3.815   5.249 -1.1210  0.1602  0.5393
  646MOL0     C87118   5.881   3.715   5.294 -0.2586  0.9073  0.0311
  646MOL0    Cl87119   5.954   3.592   5.421  0.0411 -0.2397 -0.3182
  646MOL0     C87120   6.629   4.505   4.972 -0.1186 -0.3398  0.9038
  646MOL0     C87121   6.731   4.594   4.975 -0.2040  0.5062  0.0528
  646MOL0     O87122   6.775   4.898   4.851  0.4380  0.0182 -0.1458
  646MOL0     C87123   6.968   5.095   4.865  0.0637  0.8169 -0.0620
  646MOL0     C87124   7.079   5.174   4.867  0.1607  0.0050 -0.6358
  646MOL0     N87125   7.790   5.342   5.314 -0.0616  0.7165 -0.5553
  646MOL0     N87126   7.820   5.428   5.413  0.1110  0.5469  0.5057
  646MOL0     C87127   7.867   6.471   5.994 -0.5771  0.2287  0.6589
  646MOL0     C87128   7.824   6.517   6.119 -0.9399 -0.1819  0.0943
  646MOL0     C87129   7.867   6.632   6.559 -0.9119  0.2383 -1.2399
  646MOL0     C87130   7.829   6.764   6.560 -0.0299 -0.3879 -0.3086
  646MOL0     C87131   7.774   6.831   6.667 -0.3703 -0.7227  0.7142
  646MOL0     C87132   7.766   6.762   6.788  0.6239 -0.3791 -0.8231
  646MOL0     O87133   7.743   6.814   6.911 -0.0123 -0.0645  0.2747
  646MOL0     C87134   7.740   6.957   6.927 -0.1551 -0.6697 -0.7738
  646MOL0     C87135   7.861   7.008   7.018  0.1504  0.5453  0.7007
  646MOL0     C87136   7.996   6.995   6.958  0.1535  0.0892  0.5265
  646MOL0     C87137   8.098   7.071   7.044  0.7290 -0.1079 -1.2599
  646MOL0     C87138   8.096   7.046   7.186  0.4197 -0.2457 -0.2149
  646MOL0     C87139   8.088   7.021   7.313  0.9783  0.9036  0.8214
  646MOL0     C87140   7.785   6.631   6.789  0.6679  0.4501  0.1228
  646MOL0     C87141   7.825   6.555   6.674 -1.1142  0.8916 -0.0071
  646MOL0     C87142   7.844   6.400   6.690  0.2160 -0.2077  0.3502
  646MOL0     H87143   8.133   6.597   6.237  0.9630 -0.5552  0.4962
  646MOL0     H87144   8.202   6.480   6.025 -0.6642  2.2212 -3.5044
  646MOL0     H87145   7.881   6.290   5.800 -0.7361  0.9516 -0.1306
  646MOL0     H87146   7.898   6.445   5.713 -1.0258 -0.9972 -0.0084
  646MOL0     H87147   8.123   6.257   5.639 -0.6003 -1.6534 -1.5913
  646MOL0     H87148   8.031   6.372   5.553 -0.1305  2.3971  2.5709
  646MOL0     H87149   7.832   6.213   5.542 -1.4085 -1.0045  2.9406
  646MOL0     H87150   7.915   6.102   5.651 -0.5440  0.8541  1.9210
  646MOL0     H87151   8.050   6.179   5.387 -3.6561 -0.0115 -1.4311
  646MOL0     H87152   8.085   6.046   5.503  0.3593  0.6752  0.8987
  646MOL0     H87153   7.838   6.078   5.330  1.3755  0.1333 -0.2420
  646MOL0     H87154   7.967   5.967   5.289 -2.6193  1.2886 -2.2291
  646MOL0     H87155   7.922   5.879   5.548 -0.1170 -1.7738  0.3597
  646MOL0     H87156   7.763   5.953   5.507  1.0504  0.8534  1.6188
  646MOL0     H87157   7.931   5.742   5.377 -0.6329 -0.6007  0.7281
  646MOL0     H87158   7.762   5.800   5.305 -3.5763 -0.2482  1.9535
  646MOL0     H87159   7.828   5.669   5.572  0.3292  3.5065  0.0164
  646MOL0     H87160   7.669   5.699   5.505  0.1768  1.3721  0.0762
  646MOL0     H87161   7.645   5.630   5.231 -0.3906  0.9504 -0.8674
  646MOL0     H87162   7.754   5.426   5.023 -1.2165  2.0659  0.6593
  646MOL0     H87163   7.712   5.274   5.081  0.4830  0.1937 -4.5870
  646MOL0     H87164   7.458   5.348   5.112 -0.0521 -3.8720 -2.8867
  646MOL0     H87165   7.509   5.474   5.010 -0.4210 -0.3961 -2.7853
  646MOL0     H87166   7.538   5.183   4.933  0.7075  0.7482 -0.7602
  646MOL0     H87167   7.570   5.303   4.825 -2.6797 -0.7967 -0.7469
  646MOL0     H87168   7.339   5.216   4.772 -4.5619 -0.5253  1.1825
  646MOL0     H87169   7.344   5.391   4.823  3.4031 -0.3359 -5.0823
  646MOL0     H87170   7.236   5.039   5.139  1.2852 -0.8199 -1.8993
  646MOL0     H87171   7.035   4.893   5.132  1.4369 -2.0649 -2.4091
  646MOL0     H87172   6.548   4.855   5.092 -3.4195  0.3662 -1.7148
  646MOL0     H87173   6.369   4.693   5.077 -0.0585  0.1205  0.3955
  646MOL0     H87174   6.333   4.324   4.896 -0.5819  1.4244  0.8586
  646MOL0     H87175   6.492   4.278   4.978 -0.6580 -0.4112  1.5631
  646MOL0     H87176   6.401   4.205   5.171  2.3680  0.3831 -1.5640
  646MOL0     H87177   6.248   4.262   5.137  1.5674  0.1410  0.9044
  646MOL0     H87178   6.224   4.105   4.938 -0.6939  2.0722  0.9005
  646MOL0     H87179   6.366   4.014   4.994 -0.2302 -0.6637 -1.7063
  646MOL0     H87180   6.113   4.049   5.162 -0.2090  1.2119 -2.3894
  646MOL0     H87181   6.265   3.975   5.222  0.4868 -0.4007 -0.2983
  646MOL0     H87182   6.256   3.824   5.016  0.2927  3.3634 -1.9781
  646MOL0     H87183   6.090   3.868   4.994  1.5993 -4.5747 -1.6734
  646MOL0     H87184   6.080   3.666   5.128  1.0489  0.3063 -0.7428
  646MOL0     H87185   6.189   3.740   5.248 -1.7671 -2.3360  0.3405
  646MOL0     H87186   5.941   3.898   5.196 -0.3307 -0.1717 -0.7224
  646MOL0     H87187   6.018   3.868   5.340 -1.4141  5.0176 -1.8643
  646MOL0     H87188   5.787   3.755   5.333 -1.5472 -1.9266  0.0945
  646MOL0     H87189   5.868   3.662   5.199  0.0209  3.7507 -1.7074
  646MOL0     H87190   6.659   4.409   4.931  1.2693 -0.3618  1.8874
  646MOL0     H87191   6.826   4.573   4.927 -0.0258 -0.9008  0.9625
  646MOL0     H87192   6.898   5.111   4.783  2.3161  2.6936 -1.7559
  646MOL0     H87193   7.088   5.264   4.806  3.7141  0.5130  0.4005
  646MOL0     H87194   7.788   6.451   5.922  0.9992 -0.1617 -1.0567
  646MOL0     H87195   7.721   6.537   6.145 -0.8305  0.3208  0.1513
  646MOL0     H87196   7.860   6.829   6.479  2.0012  0.8252  1.3424
  646MOL0     H87197   7.763   6.937   6.643  0.4022 -1.4825 -4.0703
  646MOL0     H87198   7.647   6.981   6.979  0.5149 -0.5445  0.3985
  646MOL0     H87199   7.749   7.015   6.835 -0.7432 -0.9112 -0.9849
  646MOL0     H87200   7.857   6.954   7.113  0.6261  0.6700  0.7931
  646MOL0     H87201   7.820   7.107   7.040 -4.0912 -0.5807 -1.0359
  646MOL0     H87202   8.006   7.049   6.864  2.5028 -1.7842 -0.4007
  646MOL0     H87203   8.019   6.889   6.942 -0.9620 -0.2482  1.0268
  646MOL0     H87204   8.203   7.058   7.014  0.3832  1.3882 -3.3586
  646MOL0     H87205   8.081   7.177   7.023  0.3770  0.8654  3.1077
  646MOL0     H87206   8.089   7.004   7.419 -2.6219 -3.6233  0.4547
  646MOL0     H87207   7.778   6.574   6.881  0.6764  1.4987  0.7897
  646MOL0     H87208   7.782   6.363   6.771 -0.0194 -1.9432 -0.5687
  646MOL0     H87209   7.814   6.340   6.603  2.1869  0.1481 -0.6311
  646MOL0     H87210   7.945   6.365   6.714 -0.0620 -1.8942 -0.7069
  647MOL0     O87211   4.988   2.724   1.847  0.1368 -0.1465 -0.3233
  647MOL0     C87212   5.017   2.772   1.953 -0.2760 -0.7699  0.3872
  647MOL0     O87213   4.952   2.756   2.062 -0.6409  0.8156  0.3842
  647MOL0     C87214   4.839   2.679   2.075  0.2594 -0.3873  0.1960
  647MOL0     C87215   4.739   2.690   1.974  0.6936 -0.5092 -0.2677
  647MOL0     C87216   4.624   2.603   1.984  0.3420 -0.0768 -0.0850
  647MOL0     C87217   4.623   2.501   2.081  0.0703  0.3862  1.2995
  647MOL0     O87218   4.512   2.416   2.076 -0.0967  0.8865 -0.3688
  647MOL0     C87219   4.537   2.278   2.106  0.3725  0.3249  0.6059
  647MOL0     C87220   4.415   2.195   2.069 -0.9034  0.6387 -1.2350
  647MOL0     C87221   4.291   2.251   2.134 -0.3173  0.6749 -0.5282
  647MOL0     C87222   4.163   2.174   2.080 -0.1968  0.4003  0.1928
  647MOL0     C87223   4.022   2.228   2.119 -0.7752 -0.0294 -0.9752
  647MOL0     C87224   3.937   2.306   2.008 -0.4658  0.8190  0.7667
  647MOL0     C87225   3.812   2.377   2.060 -1.2844  0.5166 -0.2232
  647MOL0     C87226   3.725   2.283   2.153 -0.8256  0.3375 -0.3630
  647MOL0     N87227   3.611   2.352   2.213 -0.0569  0.7001  0.7803
  647MOL0     C87228   3.613   2.478   2.257 -0.6664  0.4891 -0.2890
  647MOL0     C87229   3.493   2.491   2.329  0.5416 -0.7215 -0.7960
  647MOL0     C87230   3.453   2.619   2.403  0.1444 -0.5571 -0.1148
  647MOL0     C87231   3.500   2.617   2.547  0.1670 -0.8550 -0.4712
  647MOL0     C87232   3.451   2.492   2.622 -0.1735  0.2568  0.7338
  647MOL0     C87233   3.462   2.518   2.778  0.8904  0.1050  0.8654
  647MOL0     O87234   3.592   2.486   2.816 -0.3429  0.7001  1.5492
  647MOL0     C87235   3.633   2.502   2.945 -0.9039 -0.4184  0.1394
  647MOL0     C87236   3.554   2.567   3.043  0.0831  0.8891 -0.2076
  647MOL0     C87237   3.606   2.615   3.162 -0.3444 -0.7462  0.5414
  647MOL0     C87238   3.745   2.584   3.184 -0.5388 -0.0721  0.5194
  647MOL0     C87239   3.799   2.640   3.308 -0.4247 -0.5780 -0.2649
  647MOL0     O87240   3.935   2.657   3.311 -0.7382  0.3434  0.8258
  647MOL0     C87241   4.002   2.715   3.424  0.0120  0.7590 -0.0745
  647MOL0     C87242   4.069   2.637   3.515  0.3885 -0.0766 -0.1841
  647MOL0     C87243   4.143   2.693   3.628  0.5041  0.3362 -0.8641
  647MOL0     C87244   4.145   2.836   3.648 -0.4732  0.2848  0.3986
  647MOL0     O87245   4.214   2.898   3.749  0.0454  0.1269  0.0348
  647MOL0     C87246   4.295   2.818   3.844 -0.5004 -0.5144  1.4100
  647MOL0     C87247   4.378   2.929   3.916  0.3786 -0.3849  0.1946
  647MOL0     C87248   4.459   2.888   4.042 -0.6645  0.2475  0.8554
  647MOL0     C87249   4.478   3.008   4.130 -0.3721  0.4574 -0.5098
  647MOL0     C87250   4.588   2.965   4.229 -0.2245 -1.0473 -0.9907
  647MOL0     C87251   4.633   3.081   4.326  0.6058  0.6600 -0.4300
  647MOL0     C87252   4.515   3.110   4.418 -0.9425  0.3718 -0.4181
  647MOL0     C87253   4.430   3.239   4.364  0.5370  0.3730  0.3253
  647MOL0    Cl87254   4.362   3.318   4.513 -0.3741 -0.2273 -0.0207
  647MOL0     C87255   4.069   2.916   3.554 -0.9987  0.5185  0.7398
  647MOL0     C87256   4.002   2.849   3.442  0.2833 -0.2496  0.8711
  647MOL0     O87257   3.727   2.667   3.402 -0.1605 -0.3072 -0.2061
  647MOL0     C87258   3.821   2.504   3.093  0.1559 -0.2149  0.0414
  647MOL0     C87259   3.766   2.473   2.973  0.9408  0.5664  0.3741
  647MOL0     N87260   3.424   2.372   2.320  0.5122 -0.0632  0.4964
  647MOL0     N87261   3.499   2.288   2.253 -0.0297  0.0894 -0.0013
  647MOL0     C87262   4.731   2.488   2.173 -0.1769  0.2558 -0.0747
  647MOL0     C87263   4.831   2.580   2.173 -0.4883  0.2311  0.6808
  647MOL0     C87264   5.140   2.858   1.954  0.5325  0.3527  0.7005
  647MOL0     C87265   5.178   2.921   1.835  0.1616  0.8653 -0.6955
  647MOL0     C87266   5.303   2.990   1.828  0.9653 -0.1427 -0.4645
  647MOL0     C87267   5.398   2.991   1.938  0.6366 -0.4198  0.1772
  647MOL0     O87268   5.517   3.052   1.946 -0.2414 -0.2958 -1.1461
  647MOL0     C87269   5.573   3.117   1.828 -0.4959  0.9137  0.4417
  647MOL0     C87270   5.726   3.063   1.817  0.0759 -0.1322 -0.4951
  647MOL0     C87271   5.805   3.114   1.930  0.9734 -1.0506 -0.0406
  647MOL0     C87272   5.953   3.151   1.892  0.9032  0.0409  0.2216
  647MOL0     C87273   5.973   3.253   1.788 -1.1517  0.3348  0.2270
  647MOL0     C87274   5.981   3.334   1.698 -0.2940  0.7102 -0.6109
  647MOL0     C87275   5.350   2.932   2.050 -0.8758 -0.6768 -0.1390
  647MOL0     C87276   5.226   2.877   2.070  1.5296  0.3756 -0.0924
  647MOL0     C87277   5.209   2.815   2.205  0.6474  0.4615  0.7376
  647MOL0     H87278   4.748   2.777   1.909  0.6534  1.5885  2.3550
  647MOL0     H87279   4.546   2.624   1.911 -0.8044 -0.1332  1.0891
  647MOL0     H87280   4.623   2.240   2.050 -0.3251 -1.5496  0.7460
  647MOL0     H87281   4.556   2.279   2.214 -0.3811  3.5787  0.7997
  647MOL0     H87282   4.422   2.089   2.091 -1.7755  0.5613 -1.2909
  647MOL0     H87283   4.390   2.203   1.963 -3.5533  0.9889 -0.6611
  647MOL0     H87284   4.264   2.354   2.107 -1.3048  1.0565  1.6867
  647MOL0     H87285   4.307   2.250   2.242 -1.0381  0.2659 -0.4248
  647MOL0     H87286   4.178   2.180   1.971  3.2229 -1.5254  0.4177
  647MOL0     H87287   4.161   2.065   2.087 -5.1386  0.2159 -0.4459
  647MOL0     H87288   3.968   2.140   2.154  5.1430 -3.5735  0.7180
  647MOL0     H87289   4.042   2.289   2.207  3.0139  0.4098 -1.9745
  647MOL0     H87290   4.019   2.357   1.956  1.4380 -3.4250 -0.9017
  647MOL0     H87291   3.910   2.224   1.940  2.8168 -0.7146  1.0972
  647MOL0     H87292   3.738   2.409   1.986  1.0401  3.5137 -1.5063
  647MOL0     H87293   3.853   2.466   2.110 -1.2319  1.7609 -2.3238
  647MOL0     H87294   3.694   2.194   2.098 -0.7264  0.1965 -0.1937
  647MOL0     H87295   3.791   2.256   2.237 -0.9305  1.9254  0.2694
  647MOL0     H87296   3.696   2.546   2.244 -0.5595  0.7468  1.4584
  647MOL0     H87297   3.493   2.707   2.352 -1.1551 -0.2820 -0.6976
  647MOL0     H87298   3.344   2.624   2.397  0.0196 -0.8334  1.3752
  647MOL0     H87299   3.609   2.627   2.555 -0.0618  2.9406 -0.2418
  647MOL0     H87300   3.464   2.700   2.608  2.3315 -1.1132  1.2753
  647MOL0     H87301   3.524   2.415   2.593 -0.0645  0.0398  1.5711
  647MOL0     H87302   3.353   2.465   2.582  0.8643 -1.8487 -0.6101
  647MOL0     H87303   3.393   2.445   2.823 -2.1619  1.0881 -1.8042
  647MOL0     H87304   3.427   2.613   2.821  0.5965 -0.6686  2.4073
  647MOL0     H87305   3.449   2.584   3.021 -0.0371 -0.6285 -0.9187
  647MOL0     H87306   3.540   2.660   3.235  0.9218 -1.2664  2.0550
  647MOL0     H87307   4.064   2.530   3.500 -2.4152 -0.1668  0.7591
  647MOL0     H87308   4.197   2.628   3.697  0.0608  2.7669  1.9974
  647MOL0     H87309   4.222   2.756   3.898 -2.8060  2.4636  2.0450
  647MOL0     H87310   4.369   2.752   3.799  1.0835  2.0570  0.0450
  647MOL0     H87311   4.442   2.982   3.845  0.8395 -1.1572  0.0240
  647MOL0     H87312   4.308   3.001   3.960  1.2278  0.4860  0.1517
  647MOL0     H87313   4.410   2.806   4.095 -1.1179  0.5893  0.9730
  647MOL0     H87314   4.557   2.853   4.006 -1.2470 -0.1176 -0.4303
  647MOL0     H87315   4.384   3.035   4.180 -0.4798  1.2525 -1.1226
  647MOL0     H87316   4.509   3.095   4.071 -0.3386  0.5999 -0.2827
  647MOL0     H87317   4.678   2.946   4.171 -0.2143 -1.5558 -0.8198
  647MOL0     H87318   4.566   2.868   4.276 -1.6640 -0.4243 -0.3100
  647MOL0     H87319   4.726   3.061   4.379  0.7016  2.5500  0.1830
  647MOL0     H87320   4.649   3.171   4.266 -1.1960  1.1738 -0.2175
  647MOL0     H87321   4.548   3.133   4.519 -0.1937  0.0325 -0.5797
  647MOL0     H87322   4.441   3.029   4.425 -1.4866  0.9856  1.3246
  647MOL0     H87323   4.492   3.316   4.317 -0.5167 -0.4274 -2.6154
  647MOL0     H87324   4.350   3.210   4.295  1.7164  1.3627 -1.5447
  647MOL0     H87325   4.084   3.022   3.566 -0.4360  0.6555 -1.0141
  647MOL0     H87326   3.957   2.908   3.363  1.3122 -1.4888 -0.7258
  647MOL0     H87327   3.923   2.472   3.108 -0.1250 -3.6046 -3.6840
  647MOL0     H87328   3.819   2.402   2.910 -1.0054  0.2436 -1.0061
  647MOL0     H87329   4.726   2.395   2.229  0.9950 -0.1971 -0.6863
  647MOL0     H87330   4.923   2.566   2.228  0.4428 -0.7146 -1.0719
  647MOL0     H87331   5.123   2.893   1.745 -2.2361 -0.0542  0.9510
  647MOL0     H87332   5.319   3.017   1.724  4.3231  0.1373 -0.0080
  647MOL0     H87333   5.567   3.226   1.824 -0.9677  0.9295  1.3422
  647MOL0     H87334   5.516   3.088   1.739 -1.4806  1.2377  0.9472
  647MOL0     H87335   5.761   3.096   1.719 -1.7677 -1.2953 -1.6040
  647MOL0     H87336   5.731   2.954   1.820  2.1845 -0.0839 -1.1354
  647MOL0     H87337   5.807   3.049   2.018  0.4215  2.7147  3.0533
  647MOL0     H87338   5.767   3.210   1.968  0.5208 -1.5633  0.8308
  647MOL0     H87339   5.998   3.174   1.988 -0.0803 -3.7393  1.7893
  647MOL0     H87340   6.000   3.058   1.858 -3.6920 -3.4054  2.1561
  647MOL0     H87341   5.974   3.412   1.626  0.3376  0.3771 -1.0366
  647MOL0     H87342   5.417   2.939   2.135  0.3508  1.2263 -1.2023
  647MOL0     H87343   5.210   2.707   2.190 -0.1362  0.6232 -0.6329
  647MOL0     H87344   5.283   2.846   2.278  0.7600  0.2528  0.7126
  647MOL0     H87345   5.109   2.847   2.237  0.3120  0.0450  0.1370
  648MOL0     O87346  10.059   5.090   9.129 -0.0836  0.5560 -0.3544
  648MOL0     C87347  10.156   5.040   9.181 -0.5372  0.1456  0.1658
  648MOL0     O87348  10.169   4.917   9.228  0.5227  0.5404 -0.2407
  648MOL0     C87349  10.066   4.821   9.246 -0.7430 -0.4815  0.9556
  648MOL0     C87350  10.079   4.715   9.336 -0.5906 -0.3342  0.4938
  648MOL0     C87351   9.976   4.622   9.346  1.4315 -0.0032 -0.5796
  648MOL0     C87352   9.869   4.623   9.254 -0.2542 -1.4623  0.0923
  648MOL0     O87353   9.768   4.531   9.266 -0.1330  0.3267  0.0361
  648MOL0     C87354   9.638   4.590   9.303 -0.6668 -0.4378  0.5050
  648MOL0     C87355   9.540   4.478   9.316 -0.2622 -0.1100  0.3670
  648MOL0     C87356   9.417   4.528   9.388  1.0492  0.4909  0.3548
  648MOL0     C87357   9.309   4.419   9.374  1.0505 -0.6354  0.4198
  648MOL0     C87358   9.170   4.475   9.404 -0.7542 -0.2227 -0.3392
  648MOL0     C87359   9.075   4.363   9.433 -0.9038  0.6712  0.7324
  648MOL0     C87360   8.949   4.440   9.454  0.3444 -0.4454  0.4194
  648MOL0     C87361   8.826   4.349   9.487  1.4644  0.9860  0.0083
  648MOL0     N87362   8.704   4.413   9.460  0.5198  0.1495  0.3067
  648MOL0     C87363   8.620   4.442   9.561  0.3550  0.3976 -0.2738
  648MOL0     C87364   8.517   4.502   9.496  0.1627 -0.4287  0.1143
  648MOL0     C87365   8.389   4.568   9.549 -0.1573  0.1317 -0.5118
  648MOL0     C87366   8.274   4.463   9.538  1.7063 -0.8479  0.6470
  648MOL0     C87367   8.299   4.341   9.637  0.8135  0.2437  0.5052
  648MOL0     C87368   8.169   4.291   9.698  0.3592  0.2239 -0.3766
  648MOL0     O87369   8.070   4.269   9.594 -0.6194 -0.6930 -0.0511
  648MOL0     C87370   8.083   4.143   9.549  0.7042  0.0806  0.2024
  648MOL0     C87371   8.144   4.105   9.426  1.1059 -0.9807 -0.0691
  648MOL0     C87372   8.129   3.979   9.378  0.3604  0.3056  0.0292
  648MOL0     C87373   8.063   3.878   9.451 -1.1063 -0.1392 -0.1188
  648MOL0     C87374   8.038   3.749   9.397 -0.2056 -0.0346  0.2654
  648MOL0     O87375   7.947   3.667   9.470  0.4071  0.0153 -0.8391
  648MOL0     C87376   7.879   3.567   9.402  0.8062  0.7504  0.2860
  648MOL0     C87377   7.931   3.483   9.298 -0.3589 -0.9941  0.4770
  648MOL0     C87378   7.846   3.384   9.235  0.1031 -0.6476  0.2880
  648MOL0     C87379   7.706   3.385   9.270 -0.4126 -0.9364 -1.3836
  648MOL0     O87380   7.616   3.299   9.208 -0.1078 -0.2236 -0.7793
  648MOL0     C87381   7.666   3.235   9.095  0.1036  0.2261 -0.4249
  648MOL0     C87382   7.575   3.123   9.057 -0.2852 -0.1515 -0.3535
  648MOL0     C87383   7.456   3.179   8.991  0.2479 -0.1311 -0.7535
  648MOL0     C87384   7.355   3.072   8.957 -0.1748 -1.3374  0.4228
  648MOL0     C87385   7.261   3.131   8.845  0.1838 -0.2971 -0.1157
  648MOL0     C87386   7.175   3.006   8.814  0.2338  0.4348  0.3164
  648MOL0     C87387   7.040   3.036   8.752 -0.6361  0.5319 -0.1020
  648MOL0     C87388   6.960   2.908   8.709  0.1125 -0.2551  0.6488
  648MOL0    Cl87389   6.894   2.826   8.838 -0.0623  0.1152  0.0921
  648MOL0     C87390   7.667   3.460   9.389 -0.9016  0.5185 -1.2702
  648MOL0     C87391   7.755   3.543   9.458  0.0991 -0.3621  0.3878
  648MOL0     O87392   8.102   3.713   9.302  0.8368  0.4112 -0.3557
  648MOL0     C87393   8.014   3.913   9.578  0.0870  0.0496  0.3651
  648MOL0     C87394   8.022   4.043   9.623  0.3419 -0.3758 -0.1751
  648MOL0     N87395   8.537   4.507   9.358 -0.1716  0.2787 -0.7927
  648MOL0     N87396   8.656   4.461   9.344  0.4679 -0.3334  0.8724
  648MOL0     C87397   9.869   4.723   9.152  0.5146 -0.2225  0.6276
  648MOL0     C87398   9.965   4.817   9.148 -0.9647 -0.1377  0.3536
  648MOL0     C87399  10.284   5.111   9.221  0.3464 -0.3080  0.4208
  648MOL0     C87400  10.292   5.187   9.337  0.2046 -0.1447  0.3652
  648MOL0     C87401  10.409   5.254   9.384  0.4641 -0.0614 -0.8900
  648MOL0     C87402  10.526   5.236   9.312  0.5864  0.0566  0.4927
  648MOL0     O87403  10.643   5.297   9.350  0.2058  0.2993 -0.2694
  648MOL0     C87404  10.671   5.319   9.492  0.9073 -0.9159 -0.2238
  648MOL0     C87405  10.825   5.340   9.500  1.6017  0.2534  0.7267
  648MOL0     C87406  10.878   5.448   9.397 -0.2916  0.4911 -0.3783
  648MOL0     C87407  10.951   5.555   9.474 -0.9439 -0.2693  0.5085
  648MOL0     C87408  11.093   5.541   9.502 -0.2347  0.4262 -0.2344
  648MOL0     C87409  11.212   5.531   9.534  0.2109  0.9981 -0.1671
  648MOL0     C87410  10.531   5.157   9.190  0.4137 -0.0979 -0.7942
  648MOL0     C87411  10.404   5.089   9.146  0.2166 -0.1228 -0.1408
  648MOL0     C87412  10.414   5.009   9.013  1.4444  0.2790 -0.2117
  648MOL0     H87413  10.164   4.721   9.404  1.4769 -2.6297 -1.6748
  648MOL0     H87414   9.971   4.539   9.416 -0.0362  0.0669 -0.5860
  648MOL0     H87415   9.644   4.645   9.397 -1.0947  0.9865 -0.2768
  648MOL0     H87416   9.603   4.657   9.224 -1.2029 -1.4258 -0.1207
  648MOL0     H87417   9.575   4.398   9.382 -2.2701 -0.9512  0.4734
  648MOL0     H87418   9.507   4.434   9.221 -2.7901  3.3517 -0.5588
  648MOL0     H87419   9.383   4.624   9.347 -0.7714 -0.0072  0.5788
  648MOL0     H87420   9.434   4.545   9.495 -2.7076  0.5406  1.1060
  648MOL0     H87421   9.305   4.385   9.270  3.4912  1.6010 -0.4904
  648MOL0     H87422   9.330   4.343   9.450  3.4547  1.9660  2.5820
  648MOL0     H87423   9.190   4.526   9.498 -0.2823 -3.5234  1.5108
  648MOL0     H87424   9.137   4.549   9.330 -3.7493  0.9329  1.9558
  648MOL0     H87425   9.065   4.290   9.352 -0.1428 -3.2634  3.8997
  648MOL0     H87426   9.099   4.311   9.526 -1.2637 -1.3412 -0.2380
  648MOL0     H87427   8.929   4.524   9.388 -0.1292  1.4006  2.7542
  648MOL0     H87428   8.969   4.501   9.543  0.1792 -0.4493  0.4583
  648MOL0     H87429   8.838   4.251   9.441 -0.2985 -0.8214  3.0374
  648MOL0     H87430   8.834   4.320   9.593  0.0420  0.7597  0.0716
  648MOL0     H87431   8.630   4.411   9.665  1.1434  1.4132 -0.0411
  648MOL0     H87432   8.401   4.588   9.656 -2.5575 -0.3950 -0.0830
  648MOL0     H87433   8.384   4.658   9.487  0.6680 -0.1378 -0.9812
  648MOL0     H87434   8.182   4.517   9.559  1.3864 -0.4779 -1.4704
  648MOL0     H87435   8.254   4.421   9.439  2.3768 -0.1533  0.2076
  648MOL0     H87436   8.370   4.373   9.714  0.2345  2.3201  0.2449
  648MOL0     H87437   8.337   4.255   9.580 -1.0396 -2.0496  2.5029
  648MOL0     H87438   8.137   4.352   9.783  0.4910  0.1160 -0.2486
  648MOL0     H87439   8.202   4.200   9.749 -1.9295 -1.1701 -1.2144
  648MOL0     H87440   8.191   4.178   9.360 -0.9452 -0.9933 -1.6410
  648MOL0     H87441   8.180   3.960   9.284 -2.3599 -0.0777 -1.4863
  648MOL0     H87442   8.031   3.501   9.259 -0.2708 -0.2490  1.0175
  648MOL0     H87443   7.891   3.331   9.152 -0.7673  1.3437 -1.5406
  648MOL0     H87444   7.684   3.305   9.013  2.1961  0.7243  0.3953
  648MOL0     H87445   7.760   3.187   9.125 -1.4679 -2.0799  1.1565
  648MOL0     H87446   7.630   3.063   8.984 -0.2518  1.5467 -1.7742
  648MOL0     H87447   7.548   3.066   9.147  1.0842  1.2913  1.0582
  648MOL0     H87448   7.402   3.242   9.062 -2.9078 -2.2784 -1.0308
  648MOL0     H87449   7.492   3.232   8.903 -0.1551  2.6599  0.6633
  648MOL0     H87450   7.302   3.035   9.046 -0.7916 -1.7266 -0.0971
  648MOL0     H87451   7.411   2.984   8.926  0.0012 -0.5107 -1.7417
  648MOL0     H87452   7.317   3.163   8.757 -0.8570  1.6320 -0.1391
  648MOL0     H87453   7.205   3.213   8.892  1.5169  0.7059 -0.2039
  648MOL0     H87454   7.234   2.938   8.753  1.2761  2.2757 -0.8066
  648MOL0     H87455   7.153   2.955   8.908 -1.5449 -0.1252 -0.3572
  648MOL0     H87456   7.065   3.106   8.672 -0.5457 -1.4210 -1.8685
  648MOL0     H87457   6.978   3.102   8.813  0.2123  0.4966  0.8323
  648MOL0     H87458   6.879   2.935   8.640  1.3519 -0.6958 -1.0328
  648MOL0     H87459   7.013   2.838   8.645  0.2731 -0.7319  1.2993
  648MOL0     H87460   7.566   3.453   9.429 -0.7795 -2.0842 -1.2529
  648MOL0     H87461   7.708   3.593   9.542 -1.1383 -2.9166  1.3137
  648MOL0     H87462   7.972   3.846   9.653 -0.0119  0.8420  1.0453
  648MOL0     H87463   7.964   4.060   9.713 -0.6847  0.6465 -0.9993
  648MOL0     H87464   9.782   4.735   9.088 -0.8666 -0.6413  2.3513
  648MOL0     H87465   9.970   4.884   9.063  2.0105  1.0623  1.3485
  648MOL0     H87466  10.199   5.198   9.391 -1.7596 -3.6938 -1.9306
  648MOL0     H87467  10.417   5.300   9.482  1.3547 -1.8765 -0.0713
  648MOL0     H87468  10.646   5.230   9.550 -0.9070  0.5762  1.4412
  648MOL0     H87469  10.618   5.410   9.522  0.7482 -0.9920 -0.2726
  648MOL0     H87470  10.861   5.243   9.465 -3.1321 -0.3514 -3.5342
  648MOL0     H87471  10.859   5.359   9.602  2.2050  1.4717  0.3222
  648MOL0     H87472  10.792   5.492   9.346 -0.3821  0.9989  0.2031
  648MOL0     H87473  10.942   5.397   9.324  2.2764  1.1945  1.2484
  648MOL0     H87474  10.947   5.645   9.412  0.7023 -0.0129  0.7237
  648MOL0     H87475  10.892   5.559   9.566 -3.6140 -4.4985 -0.7314
  648MOL0     H87476  11.313   5.515   9.566 -0.7600 -2.4872  1.6874
  648MOL0     H87477  10.622   5.139   9.133  1.1518 -0.4245  0.4577
  648MOL0     H87478  10.327   4.943   9.006  2.4386 -1.3872  1.9351
  648MOL0     H87479  10.422   5.083   8.933  2.0856 -0.0679 -0.4690
  648MOL0     H87480  10.504   4.948   9.009  0.2721 -1.4140 -2.7314
  649MOL0     O87481   8.113  11.440   7.969  0.4055  0.1330  1.0128
  649MOL0     C87482   8.091  11.550   8.011 -0.1594 -0.2419 -0.9529
  649MOL0     O87483   7.966  11.622   8.010 -0.2094  0.3319 -0.2498
  649MOL0     C87484   7.857  11.582   7.942 -0.3374 -0.0611 -1.0091
  649MOL0     C87485   7.745  11.548   8.015 -0.1753 -0.5858 -0.2904
  649MOL0     C87486   7.643  11.491   7.947  0.9854 -0.2414 -0.1874
  649MOL0     C87487   7.642  11.475   7.813 -1.1391 -0.7712  0.1895
  649MOL0     O87488   7.524  11.422   7.768 -0.7965 -0.2254 -0.3563
  649MOL0     C87489   7.541  11.312   7.687  0.9264 -0.1368  0.9559
  649MOL0     C87490   7.434  11.212   7.715 -0.1750  0.2879 -0.6975
  649MOL0     C87491   7.292  11.279   7.700  0.1307  0.2872  0.6297
  649MOL0     C87492   7.183  11.188   7.655  0.6124  0.9450  1.0168
  649MOL0     C87493   7.047  11.267   7.639  0.3179  0.8541 -0.5420
  649MOL0     C87494   6.919  11.188   7.614 -0.1322 -0.4808  0.0092
  649MOL0     C87495   6.798  11.285   7.614 -0.3148  0.0405  0.6633
  649MOL0     C87496   6.652  11.216   7.595 -1.1451  0.2870  0.1263
  649MOL0     N87497   6.544  11.314   7.631 -0.2248  0.4240  0.4320
  649MOL0     C87498   6.479  11.328   7.756 -0.2997 -0.5764 -0.9921
  649MOL0     C87499   6.388  11.434   7.730  0.5329 -0.1218 -0.2686
  649MOL0     C87500   6.300  11.510   7.830  0.1419  0.0701  0.4122
  649MOL0     C87501   6.360  11.641   7.880 -0.0610  0.8912  1.3646
  649MOL0     C87502   6.453  11.631   7.996 -0.7703 -0.5094  0.0895
  649MOL0     C87503   6.393  11.572   8.120  0.6287 -0.3168  0.5977
  649MOL0     O87504   6.458  11.619   8.241  0.2573  0.5315 -0.2630
  649MOL0     C87505   6.580  11.558   8.286 -0.4529  0.2185 -0.9230
  649MOL0     C87506   6.652  11.456   8.225  0.6424  0.4096 -0.0319
  649MOL0     C87507   6.764  11.394   8.275 -0.0385  0.4795 -0.0936
  649MOL0     C87508   6.822  11.439   8.401  0.3662 -0.8309 -0.7050
  649MOL0     C87509   6.939  11.386   8.465 -0.2750  0.3441 -0.5095
  649MOL0     O87510   6.974  11.256   8.438  0.2968 -0.2445 -0.7258
  649MOL0     C87511   7.093  11.204   8.469 -0.3616  0.3336 -0.0604
  649MOL0     C87512   7.214  11.265   8.482 -0.3414 -0.4083 -0.3318
  649MOL0     C87513   7.327  11.189   8.502 -0.1884 -0.0205  0.0195
  649MOL0     C87514   7.321  11.051   8.525 -0.9877 -0.7354 -0.7175
  649MOL0     O87515   7.431  10.990   8.570 -0.3242  0.4777 -0.4964
  649MOL0     C87516   7.566  11.054   8.603 -0.7447  0.6616  0.6654
  649MOL0     C87517   7.664  10.948   8.641  0.3312 -0.2895  0.7792
  649MOL0     C87518   7.649  10.889   8.778 -0.2858 -0.6834 -0.4614
  649MOL0     C87519   7.762  10.773   8.788 -0.9268  0.0283 -0.9330
  649MOL0     C87520   7.725  10.692   8.914  0.5166 -0.8782 -0.5055
  649MOL0     C87521   7.837  10.589   8.956  0.8110  0.0353 -0.0944
  649MOL0     C87522   7.799  10.511   9.073 -0.0250  0.4036 -0.1378
  649MOL0     C87523   7.904  10.412   9.101 -0.0749  0.6344 -0.4846
  649MOL0    Cl87524   7.863  10.304   9.237  0.2463  0.0644  0.0675
  649MOL0     C87525   7.202  10.981   8.513 -0.2503 -0.6660  0.0108
  649MOL0     C87526   7.098  11.059   8.482  0.5922 -0.1873  0.8612
  649MOL0     O87527   6.999  11.461   8.543  0.8221  0.0458  0.1287
  649MOL0     C87528   6.757  11.555   8.461  0.2512  0.2473  0.1758
  649MOL0     C87529   6.632  11.605   8.409  0.1946  0.5542  0.5659
  649MOL0     N87530   6.418  11.484   7.606  0.0070 -0.8654 -0.7115
  649MOL0     N87531   6.496  11.406   7.547  0.1828 -0.1812 -0.1777
  649MOL0     C87532   7.758  11.512   7.736  0.1291 -0.2239  0.1382
  649MOL0     C87533   7.865  11.573   7.800  0.0625 -0.1825  0.3626
  649MOL0     C87534   8.213  11.620   8.070  0.1464  0.2083  0.1305
  649MOL0     C87535   8.187  11.750   8.117 -0.6853 -0.8551 -0.0340
  649MOL0     C87536   8.290  11.813   8.187 -0.6271 -0.0856 -0.2134
  649MOL0     C87537   8.418  11.769   8.197  0.1928 -1.4067 -0.6139
  649MOL0     O87538   8.507  11.849   8.267  0.3625 -0.3981 -0.4904
  649MOL0     C87539   8.629  11.789   8.321 -1.1236 -0.0275 -0.0137
  649MOL0     C87540   8.616  11.690   8.443 -0.4541  0.1899  0.1989
  649MOL0     C87541   8.753  11.642   8.496  0.2822 -0.8274 -1.2073
  649MOL0     C87542   8.817  11.739   8.601  1.3672  0.6035 -0.3539
  649MOL0     C87543   8.876  11.861   8.542  0.1628 -0.0213 -0.0246
  649MOL0     C87544   8.933  11.950   8.490 -0.1917 -0.0807  1.1523
  649MOL0     C87545   8.449  11.642   8.142 -0.5142 -0.1904 -0.8017
  649MOL0     C87546   8.344  11.564   8.089 -0.0211 -0.9805  0.2075
  649MOL0     C87547   8.386  11.410   8.077  0.2604 -0.0599 -1.1324
  649MOL0     H87548   7.740  11.566   8.122 -0.3588 -0.4779 -0.3156
  649MOL0     H87549   7.553  11.457   7.998 -0.3546  0.9807 -1.6357
  649MOL0     H87550   7.549  11.348   7.584  1.1938 -0.8370  0.7298
  649MOL0     H87551   7.645  11.283   7.706  1.3181  1.2050  1.0283
  649MOL0     H87552   7.446  11.173   7.816 -3.7210 -1.4297 -0.8095
  649MOL0     H87553   7.447  11.129   7.645 -1.0838 -0.7056  0.2737
  649MOL0     H87554   7.295  11.363   7.630  0.0754  0.9936  1.4480
  649MOL0     H87555   7.264  11.323   7.797  2.8712 -2.6614  2.9699
  649MOL0     H87556   7.222  11.145   7.563 -0.1807  2.5778 -0.1345
  649MOL0     H87557   7.178  11.101   7.721 -0.4976 -0.1092 -0.3981
  649MOL0     H87558   7.033  11.321   7.733 -1.2595 -0.7026  0.1565
  649MOL0     H87559   7.063  11.337   7.556  0.4909  1.2493 -0.1768
  649MOL0     H87560   6.942  11.144   7.517  2.3794  0.9439 -0.1388
  649MOL0     H87561   6.912  11.112   7.692  2.8064 -0.7725  0.0945
  649MOL0     H87562   6.818  11.365   7.543 -0.0830 -0.3124  0.3233
  649MOL0     H87563   6.793  11.319   7.717 -2.4379 -0.0511  0.6351
  649MOL0     H87564   6.633  11.181   7.493 -0.3375 -1.2895  0.4813
  649MOL0     H87565   6.652  11.129   7.662  3.0497  2.1386  3.0045
  649MOL0     H87566   6.504  11.268   7.844  1.6206 -0.3680 -1.3592
  649MOL0     H87567   6.209  11.537   7.776  1.5885  1.5948 -1.4146
  649MOL0     H87568   6.281  11.437   7.909  0.3308 -1.6408 -1.0549
  649MOL0     H87569   6.401  11.695   7.794 -1.3716  0.2482  0.2917
  649MOL0     H87570   6.269  11.699   7.897 -1.0817 -0.4637  0.7849
  649MOL0     H87571   6.488  11.734   8.010  1.3987 -0.9244 -1.6345
  649MOL0     H87572   6.551  11.589   7.971 -0.6888 -0.1308 -0.2437
  649MOL0     H87573   6.397  11.463   8.114 -1.6416 -0.6080  2.8255
  649MOL0     H87574   6.289  11.608   8.116  0.6233  0.2075  3.4107
  649MOL0     H87575   6.617  11.419   8.129 -0.5031 -1.0902  0.9107
  649MOL0     H87576   6.809  11.305   8.233  0.6589  1.6951 -2.0115
  649MOL0     H87577   7.220  11.373   8.495 -1.7981 -0.3061 -0.3827
  649MOL0     H87578   7.414  11.251   8.521 -0.3093  0.0438  0.3778
  649MOL0     H87579   7.607  11.101   8.513  1.0302  0.7485  1.4794
  649MOL0     H87580   7.561  11.139   8.672  0.1546  1.4977 -0.2624
  649MOL0     H87581   7.645  10.872   8.564  0.7841 -1.2062  1.5417
  649MOL0     H87582   7.769  10.977   8.638 -0.4680  2.9914  1.3657
  649MOL0     H87583   7.660  10.969   8.852  0.4805  0.9545 -2.2728
  649MOL0     H87584   7.547  10.852   8.791 -0.5379  0.5275  1.3584
  649MOL0     H87585   7.858  10.823   8.799 -1.2782  0.5763 -0.2470
  649MOL0     H87586   7.777  10.715   8.697 -0.0710 -0.9362 -0.2011
  649MOL0     H87587   7.626  10.647   8.899 -0.9103  1.0523  2.1748
  649MOL0     H87588   7.718  10.770   8.990  2.6144 -0.3408 -0.8152
  649MOL0     H87589   7.849  10.517   8.875 -1.8389  0.1656 -0.7181
  649MOL0     H87590   7.931  10.641   8.976  0.2979  0.5819  0.9944
  649MOL0     H87591   7.702  10.461   9.066  0.4658 -1.0380  2.1421
  649MOL0     H87592   7.794  10.568   9.166 -0.4359  0.6671 -0.3187
  649MOL0     H87593   7.925  10.349   9.014  1.2913  1.3300 -0.6923
  649MOL0     H87594   7.999  10.467   9.106 -0.4954  1.9381 -4.1078
  649MOL0     H87595   7.172  10.879   8.537 -2.7787 -0.0617 -0.3374
  649MOL0     H87596   7.007  11.001   8.475  1.5732 -1.5994 -2.3090
  649MOL0     H87597   6.812  11.594   8.546  2.2389 -1.7196 -0.1176
  649MOL0     H87598   6.588  11.696   8.449 -0.6893  2.1064 -3.4420
  649MOL0     H87599   7.778  11.506   7.630  1.8829  0.6060  0.3945
  649MOL0     H87600   7.946  11.610   7.739 -0.1341 -1.6059 -0.8075
  649MOL0     H87601   8.092  11.795   8.093 -1.3627 -1.3263  1.6200
  649MOL0     H87602   8.269  11.914   8.222  1.4274  0.7084 -1.1220
  649MOL0     H87603   8.702  11.866   8.348  1.1258 -2.6637  1.9959
  649MOL0     H87604   8.690  11.743   8.243  0.3240 -0.2549  1.2196
  649MOL0     H87605   8.565  11.598   8.411  2.1694 -2.3343  2.6448
  649MOL0     H87606   8.558  11.750   8.514 -1.8810  2.4382 -2.6532
  649MOL0     H87607   8.816  11.624   8.409  2.7986 -2.1075  0.7509
  649MOL0     H87608   8.742  11.548   8.550 -0.8255 -0.0476  0.0084
  649MOL0     H87609   8.753  11.760   8.688  2.5505  1.4464  0.3436
  649MOL0     H87610   8.893  11.693   8.664  0.4179  0.5806  0.8137
  649MOL0     H87611   8.984  12.029   8.438  0.5166 -2.1579 -1.5137
  649MOL0     H87612   8.543  11.598   8.173 -0.7805  0.8904  1.8758
  649MOL0     H87613   8.365  11.368   7.979  2.1517  0.4870 -1.8107
  649MOL0     H87614   8.493  11.405   8.102 -0.1758  1.1726  1.3362
  649MOL0     H87615   8.333  11.340   8.143 -0.2699 -1.6559 -3.1482
  650MOL0     O87616   0.141  10.532  11.169 -0.3422  0.1659 -0.3132
  650MOL0     C87617   0.156  10.585  11.059  0.8406 -0.2708 -0.2021
  650MOL0     O87618   0.222  10.704  11.040 -0.5166 -0.1150 -0.5409
  650MOL0     C87619   0.294  10.743  11.146  0.3246 -0.3479 -0.7879
  650MOL0     C87620   0.270  10.873  11.195  0.1599 -0.4473 -1.0227
  650MOL0     C87621   0.332  10.919  11.311  0.2215  0.0629  0.8008
  650MOL0     C87622   0.436  10.839  11.375 -0.7101  0.8013 -0.5332
  650MOL0     O87623   0.495  10.892  11.485  0.0026 -0.8223 -0.1124
  650MOL0     C87624   0.555  10.801  11.565 -0.1060  0.5683 -0.5753
  650MOL0     C87625   0.578  10.843  11.714 -0.0442 -0.5968  0.0870
  650MOL0     C87626   0.696  10.943  11.706  0.3448 -0.1081  0.0655
  650MOL0     C87627   0.749  10.985  11.849  0.5654  0.1759 -0.1105
  650MOL0     C87628   0.862  11.092  11.819  0.0942  0.2305  0.2593
  650MOL0     C87629   0.973  11.097  11.927 -0.6170  0.0850 -0.3919
  650MOL0     C87630   1.058  11.227  11.912  0.4043 -0.0979  0.9977
  650MOL0     C87631   1.156  11.251  12.018 -0.0599  0.2103  0.4635
  650MOL0     N87632   1.239  11.365  11.987 -0.0206 -0.3875 -0.5261
  650MOL0     C87633   1.210  11.492  11.948 -0.3401  0.1333 -0.8658
  650MOL0     C87634   1.334  11.552  11.949  0.4672  0.0811 -0.0358
  650MOL0     C87635   1.364  11.689  11.900  0.6184 -0.2344 -0.0897
  650MOL0     C87636   1.425  11.698  11.759 -0.3806  0.5000 -0.2238
  650MOL0     C87637   1.458  11.843  11.725  0.2180 -0.6004 -0.1657
  650MOL0     C87638   1.507  11.847  11.584  0.1693 -0.1892 -0.3936
  650MOL0     O87639   1.503  11.975  11.523  0.1210  0.0590  0.1970
  650MOL0     C87640   1.617  12.022  11.458 -0.4183  0.5189  0.1473
  650MOL0     C87641   1.757  11.992  11.490  0.1582 -0.2227  0.2246
  650MOL0     C87642   1.872  12.026  11.417  0.5320  1.1032 -0.4292
  650MOL0     C87643   1.854  12.098  11.299  0.0777  0.2861  0.3199
  650MOL0     C87644   1.969  12.139  11.201  0.1435 -0.2827 -0.3789
  650MOL0     O87645   2.087  12.106  11.233 -0.5388 -0.2072 -0.4415
  650MOL0     C87646   2.176  12.089  11.125  0.9771 -0.0803  0.1165
  650MOL0     C87647   2.282  12.180  11.097 -0.3029 -0.1512  0.0522
  650MOL0     C87648   2.363  12.169  10.977  1.0439  0.5442  0.7263
  650MOL0     C87649   2.333  12.062  10.884 -0.5652 -0.5516  0.5730
  650MOL0     O87650   2.404  12.027  10.773 -0.0474 -0.1282 -0.1548
  650MOL0     C87651   2.538  12.072  10.759  0.1821  0.5498  0.5618
  650MOL0     C87652   2.638  11.998  10.672  0.6501 -0.2663  0.8494
  650MOL0     C87653   2.579  11.995  10.526 -0.7322  1.0296  1.1047
  650MOL0     C87654   2.695  12.034  10.419  0.4267  0.6906  0.8070
  650MOL0     C87655   2.693  12.169  10.391 -0.0099 -1.1706  0.1912
  650MOL0     C87656   2.821  12.202  10.314  0.4966 -0.4050  0.3375
  650MOL0     C87657   2.851  12.349  10.277 -0.1007 -0.6721 -0.8542
  650MOL0     C87658   2.970  12.343  10.179  0.2684 -0.5787  0.0141
  650MOL0    Cl87659   2.972  12.507  10.103  0.3114 -0.1191 -0.2352
  650MOL0     C87660   2.254  11.959  10.931  0.3390 -0.3022  0.5791
  650MOL0     C87661   2.176  11.972  11.047 -0.0998  0.7801 -0.4263
  650MOL0     O87662   1.932  12.201  11.101  0.1669  0.3620 -0.0788
  650MOL0     C87663   1.721  12.143  11.274 -0.3809 -0.2017 -0.5853
  650MOL0     C87664   1.610  12.109  11.351 -0.1354 -0.7336 -0.0715
  650MOL0     N87665   1.441  11.466  11.981  0.0631 -1.0825 -0.6121
  650MOL0     N87666   1.377  11.351  12.000 -0.1060  0.2127  0.4643
  650MOL0     C87667   0.479  10.724  11.296  1.5336 -1.2649 -0.3386
  650MOL0     C87668   0.399  10.671  11.196  0.3139  0.2398  1.2439
  650MOL0     C87669   0.081  10.531  10.938  0.0278 -0.8248  0.7690
  650MOL0     C87670  -0.044  10.476  10.954  0.5486 -0.0280  0.4508
  650MOL0     C87671  -0.109  10.402  10.852  0.1922  0.1499  0.2146
  650MOL0     C87672  -0.057  10.396  10.733  0.8904 -0.0169 -0.2837
  650MOL0     O87673  -0.119  10.322  10.633  0.1371 -0.9814  0.1413
  650MOL0     C87674  -0.079  10.331  10.491  0.4313  0.1146  0.6051
  650MOL0     C87675  -0.190  10.263  10.404  0.4910 -0.8901  0.4022
  650MOL0     C87676  -0.216  10.117  10.446 -0.6277  1.2319 -0.4068
  650MOL0     C87677  -0.089  10.018  10.417 -0.0966  0.1235 -0.6104
  650MOL0     C87678  -0.134   9.881  10.429 -0.2195  0.3996  0.3809
  650MOL0     C87679  -0.177   9.774  10.434  0.0825  0.0788  0.5195
  650MOL0     C87680   0.065  10.470  10.707  0.5232  0.0549 -0.0693
  650MOL0     C87681   0.140  10.537  10.806 -0.2071  0.2163  0.4458
  650MOL0     C87682   0.272  10.603  10.773  0.5186  0.8166  0.6748
  650MOL0     H87683   0.187  10.929  11.154 -1.4697  0.0464  2.5617
  650MOL0     H87684   0.293  11.010  11.354 -0.4673  1.2098 -2.0552
  650MOL0     H87685   0.498  10.707  11.566 -0.2594  0.6305 -2.0046
  650MOL0     H87686   0.658  10.782  11.535  0.9204 -1.0692  3.2980
  650MOL0     H87687   0.602  10.755  11.774  1.7328  0.9352  1.7656
  650MOL0     H87688   0.487  10.887  11.756  0.9119  0.4798  1.0803
  650MOL0     H87689   0.659  11.032  11.655 -2.3981  0.2435  2.4179
  650MOL0     H87690   0.773  10.895  11.645  0.7231 -1.0326  1.2238
  650MOL0     H87691   0.665  11.027  11.905 -2.0003 -0.9003 -2.8807
  650MOL0     H87692   0.794  10.899  11.899  1.4166  1.6926  1.8802
  650MOL0     H87693   0.906  11.072  11.721 -2.4489 -1.2270 -0.6836
  650MOL0     H87694   0.818  11.192  11.819  2.6753  1.4454  1.1856
  650MOL0     H87695   0.933  11.096  12.029  3.3423  0.9256  1.3776
  650MOL0     H87696   1.039  11.011  11.913 -1.6413 -0.6388 -0.8247
  650MOL0     H87697   0.987  11.311  11.908  3.6327  2.8153 -1.4941
  650MOL0     H87698   1.106  11.213  11.815 -0.4141 -2.4951  0.8702
  650MOL0     H87699   1.106  11.273  12.113 -3.0163  1.1614 -1.2013
  650MOL0     H87700   1.219  11.161  12.025 -0.8585 -0.2878  1.5466
  650MOL0     H87701   1.115  11.528  11.910 -2.0136  1.0552  3.5460
  650MOL0     H87702   1.273  11.748  11.886 -0.2257 -1.2344  0.9773
  650MOL0     H87703   1.430  11.736  11.975  0.3228 -0.0208  0.0365
  650MOL0     H87704   1.507  11.626  11.750  0.5687  1.3802  0.9954
  650MOL0     H87705   1.358  11.658  11.682  2.3534 -2.6349 -1.2511
  650MOL0     H87706   1.533  11.881  11.796  1.4911 -2.8967 -0.1663
  650MOL0     H87707   1.377  11.913  11.743  2.3303  1.9954 -0.2145
  650MOL0     H87708   1.443  11.780  11.526  1.2222  0.1044 -1.9501
  650MOL0     H87709   1.604  11.797  11.588 -0.1813 -0.9891 -1.4373
  650MOL0     H87710   1.774  11.925  11.573 -1.5794  1.1031  1.7431
  650MOL0     H87711   1.969  11.980  11.429 -0.5401 -0.7142  2.1013
  650MOL0     H87712   2.293  12.271  11.156  0.3777  3.1113 -4.5359
  650MOL0     H87713   2.439  12.239  10.945  0.8991 -0.0477 -1.0475
  650MOL0     H87714   2.532  12.175  10.723  3.2674  0.9067  0.7817
  650MOL0     H87715   2.590  12.083  10.855  0.1086  1.0819  0.5458
  650MOL0     H87716   2.740  12.035  10.689  0.6759 -0.8700  2.1173
  650MOL0     H87717   2.629  11.896  10.711 -0.4486 -1.0812 -1.3731
  650MOL0     H87718   2.531  11.897  10.515  2.5590 -0.9520  2.8817
  650MOL0     H87719   2.505  12.076  10.522 -2.0990 -0.2079  0.0291
  650MOL0     H87720   2.675  11.987  10.322  0.2749  3.5556 -0.6406
  650MOL0     H87721   2.793  12.005  10.457 -1.0263 -4.1152  1.5751
  650MOL0     H87722   2.691  12.225  10.485 -1.6834 -0.7126 -0.0916
  650MOL0     H87723   2.604  12.196  10.334  0.1633  1.2121  0.9433
  650MOL0     H87724   2.909  12.187  10.376  0.8095 -0.6843 -0.1650
  650MOL0     H87725   2.825  12.151  10.218 -2.8235 -0.5585  0.1810
  650MOL0     H87726   2.880  12.413  10.362 -1.4246  1.7693 -2.1206
  650MOL0     H87727   2.757  12.385  10.235 -1.4982 -1.9433  0.9960
  650MOL0     H87728   3.058  12.297  10.226 -0.4818  0.1568  2.2513
  650MOL0     H87729   2.950  12.284  10.089  1.6233 -3.9881  1.7443
  650MOL0     H87730   2.261  11.868  10.873  0.5659  1.2381 -1.9201
  650MOL0     H87731   2.113  11.887  11.070  0.1073  0.3516 -1.3940
  650MOL0     H87732   1.697  12.197  11.184 -0.7576  1.5798  0.5328
  650MOL0     H87733   1.515  12.159  11.332 -0.6708 -2.4028 -2.1544
  650MOL0     H87734   0.564  10.667  11.333  2.6727  0.3870 -0.2771
  650MOL0     H87735   0.427  10.571  11.164  2.1578  1.2230 -0.4420
  650MOL0     H87736  -0.097  10.489  11.048  2.0294  0.0088  1.3137
  650MOL0     H87737  -0.205  10.353  10.865  1.0919 -2.1343 -1.1868
  650MOL0     H87738   0.006  10.263  10.476 -0.4386 -0.9822  0.4913
  650MOL0     H87739  -0.046  10.429  10.458 -0.4079  0.2452  0.1204
  650MOL0     H87740  -0.161  10.261  10.299  1.1534 -1.2509  0.5853
  650MOL0     H87741  -0.288  10.313  10.411 -0.0222 -1.9920  1.3823
  650MOL0     H87742  -0.304  10.078  10.394  0.8311 -0.3457 -1.8345
  650MOL0     H87743  -0.241  10.116  10.552  0.8426 -0.4490 -0.0341
  650MOL0     H87744  -0.031  10.033  10.325 -0.2871 -1.2564 -0.9828
  650MOL0     H87745  -0.016  10.034  10.496  0.4331  0.9423 -1.2537
  650MOL0     H87746  -0.211   9.672  10.431 -1.2289  0.5103 -1.7085
  650MOL0     H87747   0.102  10.463  10.605 -1.0554  3.1369 -0.9780
  650MOL0     H87748   0.257  10.705  10.737  1.4745  0.9987  0.7590
  650MOL0     H87749   0.344  10.615  10.854  0.1475  2.3819  0.7924
  650MOL0     H87750   0.322  10.552  10.690 -0.8786 -3.1548  2.0155
  651MOL0     O87751  10.114   2.779   7.917 -0.4194 -0.1240 -0.3226
  651MOL0     C87752  10.114   2.703   8.008 -0.0334  1.3685 -0.2652
  651MOL0     O87753  10.229   2.663   8.076  0.7009  0.3053 -0.3500
  651MOL0     C87754  10.329   2.753   8.069  0.1133  0.6459 -1.0190
  651MOL0     C87755  10.416   2.757   7.954  0.0048 -0.8000 -0.4727
  651MOL0     C87756  10.530   2.846   7.969 -0.4050  0.3886  0.3535
  651MOL0     C87757  10.549   2.934   8.077  0.1122  0.0725  0.7774
  651MOL0     O87758  10.652   3.023   8.100  0.5064 -0.7424 -0.2459
  651MOL0     C87759  10.757   3.026   8.010  0.6332 -0.9840  0.1679
  651MOL0     C87760  10.729   3.114   7.891 -0.0403  0.4875 -0.6820
  651MOL0     C87761  10.792   3.063   7.769  0.3601  0.3680 -0.6769
  651MOL0     C87762  10.789   3.178   7.670  0.6806  0.8308  0.3222
  651MOL0     C87763  10.907   3.281   7.692  0.2118  0.3705  0.0717
  651MOL0     C87764  10.897   3.392   7.597 -0.3980 -1.1424 -0.3296
  651MOL0     C87765  10.992   3.506   7.605 -1.3118  0.6995 -0.0853
  651MOL0     C87766  11.005   3.568   7.744  0.6933 -0.8961  0.5050
  651MOL0     N87767  11.087   3.499   7.836 -0.2516 -0.1686 -0.0108
  651MOL0     C87768  11.202   3.432   7.810  0.0462 -0.1886  0.8599
  651MOL0     C87769  11.242   3.380   7.931  0.3947 -0.0958  0.1671
  651MOL0     C87770  11.377   3.318   7.950  0.0764  0.2477  0.1594
  651MOL0     C87771  11.364   3.213   8.064  0.5220 -0.6045 -0.2008
  651MOL0     C87772  11.278   3.092   8.028  0.3178  0.0578  0.2120
  651MOL0     C87773  11.256   2.999   8.155  0.0853  0.0717  0.0075
  651MOL0     O87774  11.381   2.946   8.203 -1.1745  0.0486 -0.0565
  651MOL0     C87775  11.422   2.831   8.142 -0.0462  0.2362  0.6345
  651MOL0     C87776  11.375   2.702   8.168 -0.6082  0.3660 -0.6062
  651MOL0     C87777  11.441   2.584   8.121  0.7929 -0.5536 -0.3048
  651MOL0     C87778  11.557   2.600   8.051  0.5059 -0.2170 -0.1401
  651MOL0     C87779  11.629   2.481   7.987 -0.3739 -0.3692  0.1683
  651MOL0     O87780  11.743   2.516   7.909  0.5951 -0.0136 -0.7125
  651MOL0     C87781  11.816   2.424   7.840 -0.3269 -0.2482  0.4449
  651MOL0     C87782  11.937   2.388   7.897 -0.4031 -0.4323  0.0247
  651MOL0     C87783  12.013   2.281   7.842  0.3366 -0.6583 -0.6637
  651MOL0     C87784  11.972   2.209   7.729 -0.0086  0.0578 -0.3277
  651MOL0     O87785  12.067   2.121   7.672 -0.1321  0.0836  0.0062
  651MOL0     C87786  12.052   2.080   7.539  0.2599 -1.2357 -0.0584
  651MOL0     C87787  12.167   1.981   7.486  0.2935 -0.1376 -0.4064
  651MOL0     C87788  12.294   2.063   7.456 -0.0926 -0.6565  0.5017
  651MOL0     C87789  12.366   2.002   7.334 -0.1596 -0.0861 -0.0391
  651MOL0     C87790  12.498   2.064   7.292 -0.1268 -0.6084 -0.5047
  651MOL0     C87791  12.598   2.064   7.407  0.1106 -0.6244  0.2716
  651MOL0     C87792  12.750   2.107   7.362 -0.2586  0.1263  0.0607
  651MOL0     C87793  12.846   2.058   7.472  0.1099  0.6133  0.5440
  651MOL0    Cl87794  12.865   1.885   7.487 -0.4504 -0.2530 -0.1734
  651MOL0     C87795  11.851   2.241   7.672  0.7405 -1.0752  0.2020
  651MOL0     C87796  11.771   2.339   7.732 -0.5363 -0.7999 -0.7408
  651MOL0     O87797  11.577   2.368   8.004  0.3942  0.1050 -0.1396
  651MOL0     C87798  11.602   2.727   8.018  1.1604  0.5097  0.5768
  651MOL0     C87799  11.539   2.843   8.067 -0.0514  1.6928  0.7321
  651MOL0     N87800  11.142   3.409   8.020 -0.6445  0.2999  0.6451
  651MOL0     N87801  11.057   3.489   7.962 -0.1606 -0.1856 -0.5827
  651MOL0     C87802  10.460   2.917   8.186 -0.6435 -0.2025  1.3211
  651MOL0     C87803  10.357   2.827   8.186 -0.0539 -0.0793 -0.4424
  651MOL0     C87804   9.988   2.650   8.036 -1.3594 -1.1746  0.0532
  651MOL0     C87805   9.928   2.581   7.924  0.2174 -0.5699 -0.8655
  651MOL0     C87806   9.806   2.510   7.935 -0.9723  0.0747 -1.3139
  651MOL0     C87807   9.742   2.511   8.064 -1.1782 -0.9372  1.3954
  651MOL0     O87808   9.628   2.442   8.090 -1.0821  0.1395 -0.3625
  651MOL0     C87809   9.508   2.508   8.055 -0.9162 -0.0549 -0.7128
  651MOL0     C87810   9.403   2.419   8.003 -0.6316  1.2376  1.2321
  651MOL0     C87811   9.394   2.278   8.057 -0.0560  0.1541  0.1814
  651MOL0     C87812   9.253   2.218   8.071  0.4623 -0.3542  0.6894
  651MOL0     C87813   9.286   2.088   8.136  0.5614 -0.9003  0.4957
  651MOL0     C87814   9.305   1.991   8.210 -0.6214 -0.0699  0.0001
  651MOL0     C87815   9.813   2.575   8.168  0.6838  0.1868 -0.0765
  651MOL0     C87816   9.929   2.642   8.166 -0.2155 -0.5226 -0.7099
  651MOL0     C87817   9.978   2.713   8.284 -0.2722 -0.4382  0.2015
  651MOL0     H87818  10.392   2.695   7.868  2.4548 -2.2540 -0.1922
  651MOL0     H87819  10.593   2.843   7.881  0.2340  1.1006  0.7837
  651MOL0     H87820  10.843   3.056   8.069 -0.2845 -0.5456  1.3223
  651MOL0     H87821  10.771   2.924   7.971  0.1499 -0.7150 -0.7267
  651MOL0     H87822  10.759   3.212   7.927 -0.2138 -0.1500  1.2911
  651MOL0     H87823  10.622   3.124   7.874  0.1646  1.5224 -1.4687
  651MOL0     H87824  10.719   2.988   7.737 -1.1982 -0.0120  3.2552
  651MOL0     H87825  10.896   3.037   7.791 -0.2917 -0.3219  1.8051
  651MOL0     H87826  10.790   3.134   7.570  0.3178  0.2627  0.5643
  651MOL0     H87827  10.687   3.217   7.674  0.2115 -0.1502 -1.2273
  651MOL0     H87828  10.897   3.323   7.793 -1.9230 -0.7392  0.3567
  651MOL0     H87829  11.011   3.250   7.680  0.0053 -1.3871  2.2223
  651MOL0     H87830  10.909   3.370   7.490  2.6108 -3.3593  0.3287
  651MOL0     H87831  10.795   3.429   7.608  0.0597  0.5413 -1.2674
  651MOL0     H87832  10.964   3.583   7.533 -0.2925 -0.9353 -2.3265
  651MOL0     H87833  11.092   3.475   7.573 -1.2709 -0.1414  0.7951
  651MOL0     H87834  11.036   3.673   7.744 -1.8449 -0.0428  2.5051
  651MOL0     H87835  10.902   3.572   7.781  0.6915  3.0856  0.4908
  651MOL0     H87836  11.252   3.423   7.714 -1.4907  1.8867 -0.2201
  651MOL0     H87837  11.414   3.265   7.862 -0.3522  2.9225 -1.7429
  651MOL0     H87838  11.439   3.400   7.987  0.5946  0.1166 -0.4132
  651MOL0     H87839  11.465   3.176   8.085  1.2400  0.4656 -1.6430
  651MOL0     H87840  11.307   3.249   8.150 -2.0232 -4.7490  0.1249
  651MOL0     H87841  11.322   3.023   7.955  0.2376 -2.5142  2.4178
  651MOL0     H87842  11.182   3.125   7.988  0.1124 -0.5511  0.1988
  651MOL0     H87843  11.186   2.921   8.122 -1.4035  0.4788  2.0326
  651MOL0     H87844  11.206   3.056   8.234  0.3031  0.4081 -0.0925
  651MOL0     H87845  11.292   2.693   8.238  1.0409  1.9525  1.7110
  651MOL0     H87846  11.387   2.491   8.131  0.9264 -0.4732  1.5425
  651MOL0     H87847  11.978   2.452   7.974 -0.7146 -0.8479  0.5359
  651MOL0     H87848  12.115   2.265   7.877  1.2743  2.0743 -1.8680
  651MOL0     H87849  11.956   2.028   7.528 -0.5227 -0.1774  1.3721
  651MOL0     H87850  12.042   2.164   7.471 -0.9468 -2.2536 -1.1856
  651MOL0     H87851  12.177   1.902   7.560  1.9353  0.0331 -0.4004
  651MOL0     H87852  12.131   1.925   7.400 -4.1771 -0.0370  1.1455
  651MOL0     H87853  12.265   2.167   7.437 -1.6610 -1.2051 -0.2388
  651MOL0     H87854  12.357   2.064   7.545 -0.8930 -0.3169  1.0751
  651MOL0     H87855  12.290   2.002   7.255  0.0826  3.6179 -0.4386
  651MOL0     H87856  12.395   1.898   7.352 -1.6241 -0.5026  0.0098
  651MOL0     H87857  12.479   2.164   7.254 -0.0280  0.3467  1.8134
  651MOL0     H87858  12.527   2.000   7.207 -1.9923 -1.5912 -0.4453
  651MOL0     H87859  12.573   2.126   7.494 -0.2481  3.9474 -2.7751
  651MOL0     H87860  12.598   1.962   7.448  0.4724 -0.7082  0.0668
  651MOL0     H87861  12.749   2.215   7.344  0.4993  0.2570  0.7116
  651MOL0     H87862  12.783   2.070   7.265  1.6377 -0.8886  1.0240
  651MOL0     H87863  12.948   2.090   7.451  1.2039 -2.1836  1.1275
  651MOL0     H87864  12.821   2.108   7.566 -0.3279 -1.0906  1.3653
  651MOL0     H87865  11.817   2.186   7.585  0.8115 -0.8988  0.0621
  651MOL0     H87866  11.676   2.374   7.693 -0.8628 -0.4832  0.3132
  651MOL0     H87867  11.686   2.744   7.951 -1.9050 -0.1280 -3.9148
  651MOL0     H87868  11.574   2.941   8.034  1.6184  0.4514 -1.4162
  651MOL0     H87869  10.489   2.984   8.267  0.6070  4.0815 -2.2135
  651MOL0     H87870  10.294   2.822   8.274  1.3987  0.1549  0.6438
  651MOL0     H87871   9.981   2.579   7.829 -0.4727  1.5563 -1.3605
  651MOL0     H87872   9.760   2.462   7.850  0.1842 -2.0601 -0.7920
  651MOL0     H87873   9.523   2.594   7.989  1.9539  1.0546  1.1468
  651MOL0     H87874   9.471   2.532   8.155  0.8686  0.2480 -0.0827
  651MOL0     H87875   9.429   2.403   7.898  2.5226  0.3882  2.0270
  651MOL0     H87876   9.308   2.474   8.000 -1.8300 -0.7191  1.7836
  651MOL0     H87877   9.431   2.279   8.160 -1.4796 -2.8467  0.8367
  651MOL0     H87878   9.448   2.215   7.985 -0.6022  1.3098 -1.2952
  651MOL0     H87879   9.186   2.277   8.133  1.1184  0.0705  0.9982
  651MOL0     H87880   9.219   2.217   7.967  0.3363 -1.1183  0.7314
  651MOL0     H87881   9.305   1.917   8.288 -4.5233 -3.3142 -2.6223
  651MOL0     H87882   9.759   2.564   8.261 -1.5030 -0.7866 -1.3823
  651MOL0     H87883   9.934   2.811   8.264 -1.6627 -0.8707  0.9669
  651MOL0     H87884   9.925   2.669   8.369 -3.6484 -1.5672 -2.2947
  651MOL0     H87885  10.086   2.714   8.303 -0.5515  1.1665  2.0268
  652MOL0     O87886   6.497   6.211   3.931 -0.2481 -0.3036  1.0867
  652MOL0     C87887   6.604   6.182   3.883 -0.0055 -1.3053 -0.0507
  652MOL0     O87888   6.628   6.061   3.828  0.1020  0.0119 -0.1034
  652MOL0     C87889   6.523   5.968   3.818  0.1511  0.2169 -0.3695
  652MOL0     C87890   6.399   6.002   3.756 -0.9268 -0.5266 -0.2683
  652MOL0     C87891   6.293   5.910   3.736  0.3938 -0.6172 -0.1230
  652MOL0     C87892   6.320   5.771   3.763  0.3386 -0.5328  1.0720
  652MOL0     O87893   6.215   5.686   3.757 -0.4140 -0.4874 -0.1193
  652MOL0     C87894   6.240   5.552   3.714 -0.5044 -0.0242 -0.7599
  652MOL0     C87895   6.101   5.498   3.692 -0.2470 -0.2298 -0.1289
  652MOL0     C87896   6.119   5.351   3.645  0.4759 -0.2548  0.1676
  652MOL0     C87897   6.010   5.273   3.561  0.1244 -0.8564  0.6571
  652MOL0     C87898   6.027   5.124   3.537 -1.1797 -0.0520  1.2924
  652MOL0     C87899   5.902   5.043   3.566 -1.0699  0.1885  0.1237
  652MOL0     C87900   5.911   4.893   3.525 -0.2436  1.1164  0.0646
  652MOL0     C87901   5.902   4.888   3.372 -0.9255  0.0667 -0.2409
  652MOL0     N87902   5.933   4.753   3.333  0.8877  0.2770 -0.0278
  652MOL0     C87903   5.840   4.661   3.352 -0.0330  0.6250 -0.3801
  652MOL0     C87904   5.903   4.541   3.310 -0.2548 -0.2214  0.2025
  652MOL0     C87905   5.848   4.400   3.326  0.6898 -0.2210  0.4816
  652MOL0     C87906   5.910   4.310   3.217 -0.2961 -0.5192  0.4723
  652MOL0     C87907   5.867   4.166   3.209 -0.6102 -0.1592  0.1156
  652MOL0     C87908   5.861   4.104   3.348 -0.5980 -0.5319 -0.2223
  652MOL0     O87909   5.850   3.964   3.344 -0.6892  0.1663 -0.0473
  652MOL0     C87910   5.722   3.903   3.318  0.0471 -1.2693  0.4835
  652MOL0     C87911   5.712   3.764   3.325 -0.4244  0.7218 -0.0480
  652MOL0     C87912   5.595   3.691   3.294  0.1950 -0.1212 -0.9401
  652MOL0     C87913   5.474   3.754   3.273  0.6585  0.5912  0.3999
  652MOL0     C87914   5.349   3.675   3.253  0.1280 -0.9622  0.2595
  652MOL0     O87915   5.363   3.543   3.244 -0.4722  0.9996  0.6078
  652MOL0     C87916   5.246   3.469   3.220 -0.1825  0.1565  0.3098
  652MOL0     C87917   5.216   3.366   3.313 -0.5522  0.1035  0.4338
  652MOL0     C87918   5.098   3.296   3.294  0.3504 -0.0251 -0.1585
  652MOL0     C87919   5.005   3.330   3.190  0.5288  0.4984  0.6597
  652MOL0     O87920   4.895   3.267   3.147 -0.5807  0.6990 -0.5049
  652MOL0     C87921   4.870   3.126   3.194 -0.6447 -0.8886 -0.4858
  652MOL0     C87922   4.723   3.097   3.155  0.3271  0.5579  0.6240
  652MOL0     C87923   4.725   3.073   2.999  0.5304  0.1290  0.0691
  652MOL0     C87924   4.581   3.048   2.964 -0.2380 -0.1315  1.2852
  652MOL0     C87925   4.536   3.136   2.838 -0.9680 -0.6978 -0.0599
  652MOL0     C87926   4.435   3.070   2.749  0.3794  0.2273  0.4444
  652MOL0     C87927   4.424   3.131   2.610 -0.8308  0.8588 -1.4471
  652MOL0     C87928   4.340   3.057   2.511 -0.7757  0.4262  1.1617
  652MOL0    Cl87929   4.197   2.991   2.606 -0.2489 -0.1257  0.2583
  652MOL0     C87930   5.033   3.442   3.114  0.0450  0.2511  0.3820
  652MOL0     C87931   5.155   3.506   3.129 -0.1540  0.7030  0.1980
  652MOL0     O87932   5.247   3.746   3.262  0.1442  0.3540 -0.3445
  652MOL0     C87933   5.477   3.890   3.272  0.3709 -0.1008  0.2481
  652MOL0     C87934   5.596   3.969   3.293 -0.1053  0.6930  0.5050
  652MOL0     N87935   6.028   4.574   3.267  0.1735  0.6204  0.3238
  652MOL0     N87936   6.044   4.701   3.270 -0.5247 -0.2892  0.2608
  652MOL0     C87937   6.447   5.734   3.824  0.0912 -0.3692  0.0403
  652MOL0     C87938   6.547   5.829   3.840  0.1895 -0.0203 -0.5967
  652MOL0     C87939   6.726   6.283   3.903  0.4316 -0.5965 -0.3628
  652MOL0     C87940   6.855   6.230   3.879  0.0447 -0.7244  0.6204
  652MOL0     C87941   6.964   6.320   3.876  0.0154 -0.0625 -1.1165
  652MOL0     C87942   6.948   6.451   3.924 -1.2338  0.4837 -0.4398
  652MOL0     O87943   7.056   6.538   3.950 -0.4526  0.4044  0.4632
  652MOL0     C87944   7.195   6.506   3.927  1.5655 -0.3774  0.8623
  652MOL0     C87945   7.272   6.632   3.913  0.6647 -0.3171 -0.0463
  652MOL0     C87946   7.426   6.599   3.881 -0.4119 -0.4218  0.0785
  652MOL0     C87947   7.502   6.724   3.855 -0.3331  0.0381  0.9715
  652MOL0     C87948   7.599   6.720   3.740 -0.1122  0.0304  0.3564
  652MOL0     C87949   7.676   6.710   3.642  0.5449 -0.1991  0.5612
  652MOL0     C87950   6.828   6.492   3.979 -0.3580 -0.3570 -0.0768
  652MOL0     C87951   6.714   6.407   3.970 -0.6047 -0.7781 -0.3396
  652MOL0     C87952   6.583   6.457   4.018  0.7995 -0.4835  0.0605
  652MOL0     H87953   6.377   6.105   3.726 -0.5376 -0.3664 -0.0144
  652MOL0     H87954   6.194   5.934   3.698 -0.2032 -0.4591  1.4392
  652MOL0     H87955   6.305   5.551   3.626 -0.1780  0.4070 -0.5317
  652MOL0     H87956   6.287   5.496   3.795  0.0597 -1.6452 -2.1387
  652MOL0     H87957   6.053   5.558   3.614 -0.7452  0.3288  0.5876
  652MOL0     H87958   6.041   5.499   3.783 -0.7308  2.1116 -0.4101
  652MOL0     H87959   6.146   5.292   3.733 -0.1587  0.0675  0.5890
  652MOL0     H87960   6.210   5.337   3.587  0.3256  0.0523 -0.1531
  652MOL0     H87961   5.911   5.298   3.602 -0.4085  2.2786 -2.1765
  652MOL0     H87962   5.995   5.330   3.469 -1.5707 -4.2159 -1.3517
  652MOL0     H87963   6.081   5.111   3.443 -3.4703  0.4904 -0.1649
  652MOL0     H87964   6.093   5.086   3.616 -0.3468 -1.6343 -0.1081
  652MOL0     H87965   5.883   5.053   3.673 -0.7491 -0.5349  0.2505
  652MOL0     H87966   5.810   5.083   3.523 -0.4073  3.9345  1.7600
  652MOL0     H87967   5.833   4.834   3.574  3.4018 -1.0929  3.9824
  652MOL0     H87968   5.998   4.833   3.556 -3.3857 -5.2195 -1.6415
  652MOL0     H87969   5.807   4.927   3.334 -0.5875  0.9923 -0.1454
  652MOL0     H87970   5.983   4.949   3.331 -0.8756 -0.7294 -1.3822
  652MOL0     H87971   5.737   4.676   3.382  0.0635  0.5345 -0.0012
  652MOL0     H87972   5.881   4.364   3.424  1.8248 -1.6744 -0.3956
  652MOL0     H87973   5.740   4.397   3.307 -0.3000  2.8732  4.3405
  652MOL0     H87974   5.889   4.350   3.117 -1.4516  1.0083  1.2761
  652MOL0     H87975   6.017   4.323   3.235 -1.1306  3.6071  4.2468
  652MOL0     H87976   5.933   4.101   3.150 -1.2998  0.6011 -1.5459
  652MOL0     H87977   5.775   4.153   3.151 -0.5990 -2.2859  0.4920
  652MOL0     H87978   5.782   4.153   3.407  2.0329  3.4782  0.4375
  652MOL0     H87979   5.950   4.127   3.408 -2.8096  3.9555  1.8692
  652MOL0     H87980   5.801   3.716   3.363 -0.6008 -0.8046 -1.4637
  652MOL0     H87981   5.599   3.582   3.297 -0.9582 -0.1639 -0.0218
  652MOL0     H87982   5.293   3.318   3.372 -0.4913  1.4580  1.4947
  652MOL0     H87983   5.085   3.214   3.364  1.1443 -1.3512 -1.4883
  652MOL0     H87984   4.934   3.051   3.147  1.6021 -0.8400  2.2247
  652MOL0     H87985   4.867   3.115   3.302  0.4149 -4.5549 -0.7289
  652MOL0     H87986   4.691   2.996   3.181  0.4011  0.9042  2.1338
  652MOL0     H87987   4.650   3.172   3.188 -4.4983 -2.4818 -1.9442
  652MOL0     H87988   4.762   3.166   2.956  0.4005  1.8808  3.4071
  652MOL0     H87989   4.793   2.999   2.956  0.9925  0.5481  0.0842
  652MOL0     H87990   4.513   3.077   3.044 -0.6020  4.5232 -0.4330
  652MOL0     H87991   4.566   2.941   2.947  1.2880 -0.4986  2.0483
  652MOL0     H87992   4.622   3.144   2.771 -1.0404 -0.8402 -0.1689
  652MOL0     H87993   4.519   3.241   2.864  0.2787 -0.0670 -1.6368
  652MOL0     H87994   4.460   2.964   2.739 -3.0925 -0.7887  1.1380
  652MOL0     H87995   4.341   3.079   2.805 -1.2815  0.2741 -2.1804
  652MOL0     H87996   4.526   3.129   2.570  0.3733 -0.2304  1.3683
  652MOL0     H87997   4.387   3.233   2.606 -0.2305  1.1034 -1.0014
  652MOL0     H87998   4.300   3.117   2.429  1.2532 -1.5219 -1.4486
  652MOL0     H87999   4.393   2.972   2.468 -2.5504 -0.1889  0.0673
  652MOL0     H88000   4.980   3.488   3.031  3.4020  0.1549 -1.9997
  652MOL0     H88001   5.180   3.592   3.068  0.5572  2.7161  3.1043
  652MOL0     H88002   5.385   3.944   3.255 -0.3094 -1.7229 -1.5709
  652MOL0     H88003   5.582   4.075   3.273 -1.7494  0.1769 -1.4113
  652MOL0     H88004   6.476   5.631   3.844  3.7170  0.8137  1.6852
  652MOL0     H88005   6.636   5.782   3.881 -1.1934 -0.6085  1.9701
  652MOL0     H88006   6.860   6.127   3.845 -1.4416 -1.4046  2.3067
  652MOL0     H88007   7.059   6.282   3.839 -0.0970 -1.2770 -0.2302
  652MOL0     H88008   7.200   6.460   3.828 -1.4549  1.1711 -0.1183
  652MOL0     H88009   7.232   6.440   4.006  2.2279 -2.8924 -1.3829
  652MOL0     H88010   7.269   6.692   4.004  0.8650  1.4422 -1.1617
  652MOL0     H88011   7.234   6.711   3.848 -0.7740  0.4875  1.6624
  652MOL0     H88012   7.441   6.529   3.798  0.1974 -0.8888  0.5740
  652MOL0     H88013   7.471   6.546   3.965  0.9780  1.6786  0.7096
  652MOL0     H88014   7.426   6.800   3.837 -2.8494 -2.3414  0.9646
  652MOL0     H88015   7.558   6.739   3.948  1.7193 -2.5077  0.2875
  652MOL0     H88016   7.752   6.688   3.570  0.8724  1.1512  0.4661
  652MOL0     H88017   6.811   6.586   4.032 -1.0765  1.3222 -3.0073
  652MOL0     H88018   6.597   6.565   4.030  3.0208 -0.6830 -0.2968
  652MOL0     H88019   6.505   6.445   3.941  1.3360  1.3475 -0.8393
  652MOL0     H88020   6.547   6.416   4.112 -1.9606  0.6260 -0.4195
  653MOL0     O88021   2.807   9.259   4.777 -0.4413  0.0152  0.2960
  653MOL0     C88022   2.891   9.326   4.718 -0.8418 -0.0403 -0.9186
  653MOL0     O88023   2.919   9.463   4.736 -0.3876  0.3654 -0.0433
  653MOL0     C88024   2.872   9.545   4.832  0.1706 -0.6417  0.0380
  653MOL0     C88025   2.762   9.525   4.906  0.2548  0.0196  0.0145
  653MOL0     C88026   2.740   9.602   5.020  0.6088 -0.2391  0.3156
  653MOL0     C88027   2.810   9.727   5.046  0.4870  0.5074 -0.2149
  653MOL0     O88028   2.770   9.808   5.141 -1.0533 -0.0204 -0.3312
  653MOL0     C88029   2.850   9.917   5.185 -0.5785  0.7215 -0.2722
  653MOL0     C88030   2.792   9.997   5.287 -0.3621  0.0062 -0.1495
  653MOL0     C88031   2.757   9.910   5.403  0.0320 -0.2159 -0.5172
  653MOL0     C88032   2.875   9.847   5.485  0.3032  0.1814  0.6935
  653MOL0     C88033   2.814   9.803   5.625 -1.0947  0.4393  0.1821
  653MOL0     C88034   2.909   9.708   5.711  0.1939 -0.4579  0.3630
  653MOL0     C88035   2.844   9.653   5.848 -0.2070  0.0586 -0.0132
  653MOL0     C88036   2.804   9.763   5.949  0.8077  0.5895 -0.2242
  653MOL0     N88037   2.905   9.860   5.977 -0.1699  0.6160 -0.4656
  653MOL0     C88038   3.004   9.839   6.079 -0.1950 -0.0423  0.8784
  653MOL0     C88039   3.078   9.944   6.071 -0.0930 -0.1058 -0.0731
  653MOL0     C88040   3.211   9.941   6.141  0.7861 -1.5742  0.1021
  653MOL0     C88041   3.274  10.080   6.128 -0.7716  0.4229 -0.1805
  653MOL0     C88042   3.217  10.182   6.233  0.7346 -0.1871 -0.3614
  653MOL0     C88043   3.300  10.314   6.248  0.0350 -0.6372 -0.8011
  653MOL0     O88044   3.260  10.363   6.116  1.1277  0.1613 -0.3713
  653MOL0     C88045   3.237  10.501   6.096 -0.4906 -0.1654  0.4584
  653MOL0     C88046   3.174  10.522   5.972  0.7485 -1.0171  0.3808
  653MOL0     C88047   3.146  10.652   5.927 -0.3668  0.7403  0.1877
  653MOL0     C88048   3.161  10.760   6.003 -0.6824 -0.9486  0.3198
  653MOL0     C88049   3.135  10.897   5.949  0.5344  0.5799 -0.8936
  653MOL0     O88050   3.183  11.006   6.016  0.1234 -0.1413 -0.2746
  653MOL0     C88051   3.182  11.133   5.964  0.4744  0.1955 -1.1572
  653MOL0     C88052   3.289  11.213   5.955 -0.3265  0.0061  0.2628
  653MOL0     C88053   3.284  11.346   5.914  0.2602 -0.2351  0.6975
  653MOL0     C88054   3.166  11.400   5.857  0.3003 -0.7512 -0.8758
  653MOL0     O88055   3.177  11.525   5.813 -0.3088 -0.8060  0.0164
  653MOL0     C88056   3.073  11.586   5.738 -0.2685  0.1477 -0.0041
  653MOL0     C88057   3.100  11.727   5.703 -0.2765  0.4454  0.1064
  653MOL0     C88058   3.017  11.825   5.780  0.3936 -0.1450 -0.4577
  653MOL0     C88059   3.045  11.973   5.735  0.2867  0.5779 -1.6775
  653MOL0     C88060   2.943  12.067   5.814  0.1532  0.9644  0.1929
  653MOL0     C88061   2.813  12.086   5.741 -0.2560  0.1733 -0.0611
  653MOL0     C88062   2.706  12.168   5.816 -0.4760 -1.0807 -0.0263
  653MOL0     C88063   2.753  12.303   5.854  0.4954  0.2651  0.8302
  653MOL0    Cl88064   2.780  12.393   5.703  0.3725 -0.5480 -0.0075
  653MOL0     C88065   3.055  11.322   5.873  1.4106 -0.4153 -0.0336
  653MOL0     C88066   3.056  11.195   5.929 -0.3448  0.2362  0.6368
  653MOL0     O88067   3.072  10.893   5.848 -0.4794  0.9327  0.8538
  653MOL0     C88068   3.209  10.738   6.138 -0.1711 -0.2707 -0.1869
  653MOL0     C88069   3.245  10.614   6.183  0.0011 -0.0929  0.4175
  653MOL0     N88070   3.017  10.026   5.977 -0.4315  1.1094  0.8386
  653MOL0     N88071   2.922   9.978   5.914  0.7902 -0.5350  0.8023
  653MOL0     C88072   2.925   9.741   4.972 -0.0267  0.4974  0.6716
  653MOL0     C88073   2.947   9.659   4.858  0.1187 -0.2862 -0.4094
  653MOL0     C88074   2.985   9.254   4.634 -0.7633 -0.4976  0.8648
  653MOL0     C88075   3.009   9.320   4.512 -1.2470 -0.6928 -0.0792
  653MOL0     C88076   3.092   9.265   4.415 -0.3990 -0.9812 -0.5187
  653MOL0     C88077   3.157   9.148   4.438  0.9166 -0.0985 -1.0326
  653MOL0     O88078   3.241   9.102   4.348 -0.5332 -0.6611  0.0455
  653MOL0     C88079   3.364   9.047   4.399 -0.2445  1.2930 -0.2459
  653MOL0     C88080   3.477   9.105   4.312 -0.5400  0.0118 -0.7084
  653MOL0     C88081   3.465   9.065   4.169 -1.2187 -0.3733 -0.3573
  653MOL0     C88082   3.578   9.096   4.079  0.4016  0.2666  0.0086
  653MOL0     C88083   3.597   9.239   4.072 -1.1344 -0.4823  0.0571
  653MOL0     C88084   3.622   9.351   4.063 -0.5028  0.0044  0.8835
  653MOL0     C88085   3.127   9.076   4.558 -0.5482 -0.1333  0.0215
  653MOL0     C88086   3.046   9.129   4.657  0.2639 -0.5310 -0.4104
  653MOL0     C88087   3.045   9.065   4.793 -0.2252  0.3784 -0.5131
  653MOL0     H88088   2.680   9.457   4.885 -1.3729  1.9338 -0.2164
  653MOL0     H88089   2.651   9.580   5.078  0.7467 -2.6366 -0.3012
  653MOL0     H88090   2.940   9.878   5.234 -0.1001  0.0769 -1.6039
  653MOL0     H88091   2.872   9.977   5.096  0.8489 -3.6112 -3.1616
  653MOL0     H88092   2.693  10.032   5.256 -1.1416 -4.3931 -3.6109
  653MOL0     H88093   2.867  10.074   5.306 -2.2659  2.3514 -1.5623
  653MOL0     H88094   2.680   9.835   5.382 -0.7472  0.4765 -0.2115
  653MOL0     H88095   2.711   9.980   5.473  1.6512 -0.9887  1.4020
  653MOL0     H88096   2.915   9.761   5.431 -1.0931  1.0438 -1.8532
  653MOL0     H88097   2.962   9.911   5.497  1.3180 -0.7316 -1.4303
  653MOL0     H88098   2.788   9.891   5.684 -1.8539 -0.1746  0.7727
  653MOL0     H88099   2.722   9.745   5.619  0.3227 -1.8091 -1.3785
  653MOL0     H88100   2.933   9.619   5.652 -0.1530 -0.1049 -0.3254
  653MOL0     H88101   3.002   9.764   5.726 -1.4199  3.0690 -1.4881
  653MOL0     H88102   2.906   9.573   5.890 -1.5145 -2.2013 -2.0849
  653MOL0     H88103   2.756   9.593   5.822 -0.2977 -0.8124  2.0816
  653MOL0     H88104   2.719   9.818   5.907  0.7268  1.7695  1.3808
  653MOL0     H88105   2.772   9.717   6.043  0.7935 -0.7354 -0.8567
  653MOL0     H88106   3.019   9.750   6.139  0.7779 -0.1622  0.4852
  653MOL0     H88107   3.191   9.912   6.244  0.2993 -0.8837  0.2052
  653MOL0     H88108   3.284   9.870   6.100 -0.1085 -2.1909 -0.4644
  653MOL0     H88109   3.381  10.071   6.147 -0.4096  3.7660 -0.1234
  653MOL0     H88110   3.251  10.120   6.029 -0.4529  3.1153  0.7385
  653MOL0     H88111   3.214  10.141   6.334 -1.0842  0.4030 -0.1422
  653MOL0     H88112   3.110  10.201   6.221  0.8759  1.2643  0.4415
  653MOL0     H88113   3.407  10.295   6.254 -0.2208 -1.7648  0.5875
  653MOL0     H88114   3.270  10.370   6.337  1.5577 -1.9625  0.6157
  653MOL0     H88115   3.155  10.440   5.904 -0.2482 -0.5971  0.1320
  653MOL0     H88116   3.107  10.657   5.826  2.2723  0.5654 -0.9051
  653MOL0     H88117   3.379  11.166   5.993 -0.8531  0.0100  1.5548
  653MOL0     H88118   3.379  11.398   5.927  0.3107 -0.0581 -0.2793
  653MOL0     H88119   3.053  11.538   5.642 -0.1297  1.0426 -0.4906
  653MOL0     H88120   2.989  11.581   5.808  0.9612 -1.5305  1.4482
  653MOL0     H88121   3.205  11.750   5.719 -0.5474  0.7493  1.6748
  653MOL0     H88122   3.062  11.729   5.601 -1.3742 -0.0498  0.4828
  653MOL0     H88123   2.913  11.795   5.769  1.1483 -2.0140 -4.1067
  653MOL0     H88124   3.051  11.813   5.883  2.8020 -4.3335 -1.4932
  653MOL0     H88125   3.035  11.983   5.626  0.6185 -0.7954 -1.8420
  653MOL0     H88126   3.147  11.986   5.772  0.0119  0.5374 -0.8838
  653MOL0     H88127   2.990  12.165   5.820 -0.3954  1.1557  4.0245
  653MOL0     H88128   2.937  12.039   5.920  5.5830  0.2829  0.6204
  653MOL0     H88129   2.839  12.147   5.654  1.3393  0.3341  0.5067
  653MOL0     H88130   2.788  11.991   5.692  1.9432  1.9415 -5.3242
  653MOL0     H88131   2.667  12.111   5.900 -0.7122 -1.7964 -0.6055
  653MOL0     H88132   2.626  12.178   5.742  0.9031 -0.7694 -1.5413
  653MOL0     H88133   2.677  12.355   5.913  0.1405 -2.5789  3.0666
  653MOL0     H88134   2.844  12.301   5.914  0.9264 -2.0604  0.1961
  653MOL0     H88135   2.964  11.354   5.824  1.7468  0.1937 -0.2722
  653MOL0     H88136   2.962  11.143   5.949  0.1096 -0.2257  1.6632
  653MOL0     H88137   3.210  10.820   6.209 -3.1580 -1.0777  0.9520
  653MOL0     H88138   3.255  10.612   6.291 -1.1309  3.2851  0.6853
  653MOL0     H88139   2.989   9.825   4.995 -0.2518  1.1980 -1.0735
  653MOL0     H88140   3.038   9.662   4.798  0.8288 -1.1853  0.5776
  653MOL0     H88141   2.957   9.412   4.488 -2.0415 -1.2737 -0.6284
  653MOL0     H88142   3.112   9.308   4.317  0.3236  3.0581  1.1960
  653MOL0     H88143   3.362   8.938   4.403 -0.1320  1.3028  3.9065
  653MOL0     H88144   3.380   9.086   4.500  3.5023 -1.1385  0.3112
  653MOL0     H88145   3.570   9.075   4.362 -1.2785  2.3909  2.4179
  653MOL0     H88146   3.472   9.214   4.313 -0.3102  0.0214 -0.2793
  653MOL0     H88147   3.368   9.089   4.126 -0.1844  1.7651 -1.6509
  653MOL0     H88148   3.453   8.956   4.164  1.6201 -0.7051 -1.8909
  653MOL0     H88149   3.668   9.050   4.123 -0.1998  1.8692  3.2604
  653MOL0     H88150   3.556   9.052   3.981 -1.6100 -0.2832  0.6532
  653MOL0     H88151   3.655   9.453   4.058  4.0663 -1.3034 -0.8010
  653MOL0     H88152   3.187   8.987   4.575  1.2657  1.1755  0.9088
  653MOL0     H88153   3.064   9.146   4.863  0.6757  1.3859 -1.8690
  653MOL0     H88154   2.969   8.987   4.807 -0.2463  0.4818 -0.0528
  653MOL0     H88155   3.142   9.014   4.799  0.6088  1.7719 -1.6920
  654MOL0     O88156   0.461   8.551  11.288  0.4283 -0.5231  0.2599
  654MOL0     C88157   0.394   8.633  11.220  0.7327  0.7137 -0.7549
  654MOL0     O88158   0.446   8.729  11.126 -0.6659 -0.4904 -0.9236
  654MOL0     C88159   0.352   8.816  11.069 -0.3606  0.1625  0.3749
  654MOL0     C88160   0.284   8.782  10.950 -0.1676 -1.0950  0.6789
  654MOL0     C88161   0.186   8.862  10.893  1.1908 -0.9654 -0.8816
  654MOL0     C88162   0.163   8.983  10.963  0.4498  0.3470  0.7178
  654MOL0     O88163   0.090   9.084  10.906  0.0165 -0.1112 -0.0547
  654MOL0     C88164   0.005   9.060  10.790  0.4149 -0.0968 -0.6473
  654MOL0     C88165  -0.069   9.182  10.760  0.1745  0.0022  0.8013
  654MOL0     C88166   0.005   9.284  10.674 -0.3320 -0.5608 -0.3855
  654MOL0     C88167  -0.047   9.427  10.708  0.0067 -0.0403  0.5409
  654MOL0     C88168  -0.005   9.528  10.597  0.6463 -0.4767  0.9237
  654MOL0     C88169   0.155   9.534  10.591  0.1679  0.4287  0.5702
  654MOL0     C88170   0.210   9.636  10.490  0.3527 -0.6582  0.1718
  654MOL0     C88171   0.167   9.784  10.533  0.1346 -0.3744  0.0264
  654MOL0     N88172   0.225   9.891  10.449 -0.0903  0.3560 -0.8166
  654MOL0     C88173   0.239   9.904  10.313  0.2259 -0.0781  0.4064
  654MOL0     C88174   0.281  10.029  10.301 -0.8324 -0.3221 -0.0527
  654MOL0     C88175   0.296  10.103  10.177  0.3167  0.8054 -0.0160
  654MOL0     C88176   0.222  10.239  10.190  0.1941 -0.4353 -0.0506
  654MOL0     C88177   0.182  10.307  10.054  0.8946 -0.4950  0.0942
  654MOL0     C88178   0.062  10.407  10.056  0.2641  0.4030  1.1357
  654MOL0     O88179   0.068  10.493  10.170 -0.9668  0.3537  0.0793
  654MOL0     C88180   0.110  10.625  10.151 -0.8260  0.7562 -0.8815
  654MOL0     C88181   0.070  10.700  10.040 -0.1100 -0.9715  0.1380
  654MOL0     C88182   0.129  10.830  10.030  0.7394  0.1438  0.6366
  654MOL0     C88183   0.195  10.891  10.133 -0.0091  1.3422  0.4204
  654MOL0     C88184   0.260  11.015  10.116 -0.2573 -0.7228 -0.4768
  654MOL0     O88185   0.234  11.094   9.998  0.3206 -0.5488 -0.1837
  654MOL0     C88186   0.283  11.226   9.995 -0.7209 -0.2804 -0.5344
  654MOL0     C88187   0.416  11.264  10.020 -0.2607  0.1570  0.7004
  654MOL0     C88188   0.459  11.392  10.043  0.1264 -0.7494 -1.5643
  654MOL0     C88189   0.367  11.499  10.025 -0.9666  0.1004  0.0028
  654MOL0     O88190   0.417  11.625  10.039  0.0279 -0.7411  0.0794
  654MOL0     C88191   0.380  11.682  10.165 -0.9901 -0.7893  0.5345
  654MOL0     C88192   0.497  11.764  10.228 -0.0689 -0.7289  0.4056
  654MOL0     C88193   0.621  11.679  10.251 -0.3892  0.6851 -0.0308
  654MOL0     C88194   0.703  11.771  10.342 -0.6218 -0.1394 -0.0698
  654MOL0     C88195   0.828  11.701  10.402  0.0084  0.3426  0.0791
  654MOL0     C88196   0.911  11.808  10.461 -0.8087  0.4470 -0.3902
  654MOL0     C88197   1.049  11.776  10.515 -0.3129  0.7665 -0.8159
  654MOL0     C88198   1.123  11.902  10.554  0.0459  0.4998  0.2835
  654MOL0    Cl88199   1.292  11.856  10.605 -0.5325  0.2884  0.4288
  654MOL0     C88200   0.238  11.466   9.999  0.0970  0.1963 -0.7659
  654MOL0     C88201   0.197  11.335   9.988 -0.0909 -0.2471  1.4353
  654MOL0     O88202   0.340  11.047  10.201 -1.0789 -0.1870 -0.2722
  654MOL0     C88203   0.226  10.809  10.249 -0.1822 -0.4730 -0.2243
  654MOL0     C88204   0.193  10.677  10.253 -0.6637  0.1654 -0.2324
  654MOL0     N88205   0.297  10.096  10.417 -0.5659 -0.0940  0.4837
  654MOL0     N88206   0.265  10.010  10.508 -0.2435 -0.4796  0.7774
  654MOL0     C88207   0.230   9.014  11.080 -0.1249  0.1418 -0.2174
  654MOL0     C88208   0.334   8.932  11.140  1.2485 -0.2799 -0.4538
  654MOL0     C88209   0.250   8.624  11.245  0.6857  0.4253 -0.6448
  654MOL0     C88210   0.182   8.528  11.159  0.0117 -0.6220 -0.1000
  654MOL0     C88211   0.042   8.529  11.186  0.5460  0.1839  1.2236
  654MOL0     C88212  -0.026   8.620  11.270 -0.0986  0.6677 -1.0218
  654MOL0     O88213  -0.158   8.596  11.284  0.1834  0.4501 -0.3645
  654MOL0     C88214  -0.249   8.694  11.331 -0.6729  0.3954  1.4375
  654MOL0     C88215  -0.385   8.683  11.257  0.7155 -0.2007  0.3467
  654MOL0     C88216  -0.456   8.816  11.246 -0.4218 -0.3624  0.0194
  654MOL0     C88217  -0.597   8.810  11.176  0.0905 -1.0936  0.0692
  654MOL0     C88218  -0.681   8.732  11.263  0.2933  0.2823 -0.8857
  654MOL0     C88219  -0.750   8.676  11.338  0.7521 -0.0642 -0.5109
  654MOL0     C88220   0.052   8.713  11.339  1.0330  0.8577 -0.5914
  654MOL0     C88221   0.190   8.718  11.332 -0.0280  1.1153 -0.3857
  654MOL0     C88222   0.259   8.808  11.429 -0.9913  0.4720  1.2129
  654MOL0     H88223   0.332   8.693  10.909  0.3861 -1.6763  2.4775
  654MOL0     H88224   0.142   8.847  10.795 -2.2621 -0.0390  0.3902
  654MOL0     H88225   0.063   9.046  10.698  0.2812 -3.2961 -0.3650
  654MOL0     H88226  -0.062   8.977  10.816 -0.1056  0.5168  0.0080
  654MOL0     H88227  -0.112   9.226  10.850  0.0364 -2.5001  2.0406
  654MOL0     H88228  -0.145   9.137  10.694  2.1766 -2.0130 -0.2946
  654MOL0     H88229   0.006   9.262  10.567 -0.4950 -0.9510 -0.3064
  654MOL0     H88230   0.111   9.276  10.701  0.8309  1.6890 -3.6130
  654MOL0     H88231  -0.156   9.426  10.714 -0.1869  2.6040 -1.1523
  654MOL0     H88232  -0.010   9.446  10.809 -0.7046 -0.2560  0.8535
  654MOL0     H88233  -0.040   9.494  10.499 -0.1502  1.0617  0.6492
  654MOL0     H88234  -0.042   9.629  10.614  2.7724  0.6624 -0.7471
  654MOL0     H88235   0.187   9.562  10.692  1.0320  0.3338  0.3276
  654MOL0     H88236   0.193   9.437  10.559 -0.7904 -0.5681  2.2821
  654MOL0     H88237   0.179   9.606  10.389  1.1863  0.1303 -0.3293
  654MOL0     H88238   0.319   9.630  10.484  0.2600 -2.5080 -0.1577
  654MOL0     H88239   0.058   9.792  10.544  0.3722  0.8894  1.8871
  654MOL0     H88240   0.211   9.802  10.631 -2.2947 -0.0584  1.1390
  654MOL0     H88241   0.209   9.836  10.234 -0.5169  0.1767  0.4691
  654MOL0     H88242   0.401  10.125  10.158  0.9677 -2.1642 -0.2827
  654MOL0     H88243   0.257  10.045  10.093  2.2051 -1.3081  0.4891
  654MOL0     H88244   0.130  10.212  10.243 -0.0275 -0.3119 -0.3619
  654MOL0     H88245   0.277  10.313  10.249  1.5170  0.7911 -2.6632
  654MOL0     H88246   0.160  10.229   9.981  0.5268  0.5018 -0.8836
  654MOL0     H88247   0.267  10.365  10.019  1.9138 -1.1914  1.3107
  654MOL0     H88248  -0.017  10.332  10.068  0.4693  0.2113  1.2819
  654MOL0     H88249   0.064  10.457   9.959  2.5108 -4.4639 -1.6864
  654MOL0     H88250   0.016  10.662   9.953  2.4915  0.5103 -2.3009
  654MOL0     H88251   0.105  10.895   9.946  0.7968  2.8903  2.6351
  654MOL0     H88252   0.491  11.186  10.029 -2.7623 -2.2954  1.7741
  654MOL0     H88253   0.560  11.416  10.074 -1.6772  2.9324  2.5230
  654MOL0     H88254   0.304  11.754  10.136 -0.5759 -1.5065 -2.6891
  654MOL0     H88255   0.336  11.618  10.242 -1.1547 -2.2163 -0.6995
  654MOL0     H88256   0.524  11.841  10.155  1.7293 -0.9207  0.8335
  654MOL0     H88257   0.459  11.815  10.317  0.2378  1.5656 -0.7259
  654MOL0     H88258   0.596  11.584  10.299 -2.1051  1.8821  1.5896
  654MOL0     H88259   0.662  11.665  10.151 -3.4980  0.4302 -1.4058
  654MOL0     H88260   0.650  11.830  10.417  2.3131 -1.1899  3.1213
  654MOL0     H88261   0.723  11.856  10.277 -5.4932  0.3649 -1.3035
  654MOL0     H88262   0.881  11.650  10.320  0.1838  0.9497 -0.1896
  654MOL0     H88263   0.804  11.626  10.478  0.9166 -0.6752 -0.6158
  654MOL0     H88264   0.923  11.888  10.388 -0.1661  0.3601 -0.3898
  654MOL0     H88265   0.858  11.848  10.548  1.4563  1.4995  0.5848
  654MOL0     H88266   1.108  11.723  10.440 -0.5389 -2.6786  1.2703
  654MOL0     H88267   1.038  11.696  10.588  0.6528  0.3313 -1.1284
  654MOL0     H88268   1.110  11.974  10.473  0.6155  1.8601  1.3582
  654MOL0     H88269   1.076  11.943  10.644 -1.7118 -1.6904  0.4537
  654MOL0     H88270   0.174  11.553  10.007 -2.5908 -1.8482  4.8859
  654MOL0     H88271   0.097  11.292   9.982  0.9467 -2.7036  0.6039
  654MOL0     H88272   0.276  10.838  10.341 -1.2615  0.6142  0.0467
  654MOL0     H88273   0.225  10.617  10.338  4.7069  1.1662 -1.1844
  654MOL0     H88274   0.208   9.107  11.132  0.3674 -0.8775  1.9441
  654MOL0     H88275   0.402   8.954  11.222  0.5888 -2.2692  0.7102
  654MOL0     H88276   0.233   8.473  11.082  2.4981  1.5958 -0.1761
  654MOL0     H88277  -0.018   8.452  11.138 -1.3769  1.9523  0.6227
  654MOL0     H88278  -0.209   8.791  11.300 -2.1315  0.5049 -0.2896
  654MOL0     H88279  -0.261   8.687  11.439  1.6358 -1.9684  1.6534
  654MOL0     H88280  -0.453   8.630  11.325 -2.2310  2.5946 -0.1915
  654MOL0     H88281  -0.391   8.638  11.158 -2.3468 -0.8054  0.6891
  654MOL0     H88282  -0.395   8.893  11.199  0.8886 -0.8277  0.8801
  654MOL0     H88283  -0.474   8.862  11.344 -2.4301 -0.8882 -0.0496
  654MOL0     H88284  -0.638   8.911  11.168 -0.9439 -1.6308 -2.2726
  654MOL0     H88285  -0.592   8.770  11.074  2.3336  0.5841 -0.5513
  654MOL0     H88286  -0.813   8.632  11.412  1.1753 -1.0331 -0.7071
  654MOL0     H88287   0.005   8.777  11.413 -1.0943 -3.9047  2.7516
  654MOL0     H88288   0.365   8.781  11.434 -1.2336 -0.6818  0.4622
  654MOL0     H88289   0.222   8.905  11.394 -2.9325 -0.7312 -0.2341
  654MOL0     H88290   0.214   8.797  11.528 -2.0367  0.5825  0.7649
  655MOL0     O88291   2.565   7.065  11.140  0.6011 -0.3385 -0.1828
  655MOL0     C88292   2.500   6.996  11.052  0.3113 -0.1860 -0.9899
  655MOL0     O88293   2.449   6.872  11.070 -0.2990  0.0915 -0.3912
  655MOL0     C88294   2.455   6.826  11.198  0.5552 -0.0835 -0.2077
  655MOL0     C88295   2.359   6.858  11.294  0.2302 -0.2627 -0.5474
  655MOL0     C88296   2.382   6.814  11.433 -0.6903 -0.4621  0.4096
  655MOL0     C88297   2.502   6.742  11.475  0.2569  0.2283 -0.0124
  655MOL0     O88298   2.541   6.720  11.603 -1.3254 -0.5161 -0.1633
  655MOL0     C88299   2.443   6.728  11.708  1.0378 -0.2763 -0.3459
  655MOL0     C88300   2.474   6.651  11.842  0.6618  0.0976 -1.5929
  655MOL0     C88301   2.589   6.705  11.926  1.0983  0.3496 -0.6911
  655MOL0     C88302   2.713   6.714  11.831 -1.0827  0.9464 -0.8666
  655MOL0     C88303   2.850   6.718  11.898 -0.1129 -0.4982  0.0715
  655MOL0     C88304   2.872   6.819  12.012 -0.0647 -0.7256  0.1433
  655MOL0     C88305   2.882   6.963  11.966  0.4439 -0.0131  0.9465
  655MOL0     C88306   2.950   7.054  12.066 -0.2799 -0.2415  0.8818
  655MOL0     N88307   3.099   7.071  12.038 -0.0271 -0.1344 -0.0961
  655MOL0     C88308   3.163   7.171  12.103 -0.0708  0.2507  0.7863
  655MOL0     C88309   3.284   7.166  12.051  0.1111  0.9936 -0.1999
  655MOL0     C88310   3.410   7.247  12.084  0.1034 -0.0647  0.1930
  655MOL0     C88311   3.372   7.370  12.160  0.2957  0.8695  0.1782
  655MOL0     C88312   3.490   7.445  12.223  0.7378 -0.2409 -1.0440
  655MOL0     C88313   3.438   7.569  12.275 -1.2602  0.6995 -0.0731
  655MOL0     O88314   3.386   7.659  12.174 -0.1416 -0.6034 -0.0926
  655MOL0     C88315   3.334   7.780  12.211  0.8845 -0.6140 -0.6878
  655MOL0     C88316   3.282   7.814  12.336  1.1128 -1.1713 -0.8269
  655MOL0     C88317   3.244   7.949  12.364  1.0228  0.4297 -0.4387
  655MOL0     C88318   3.263   8.050  12.265  0.5860 -1.1814 -1.3794
  655MOL0     C88319   3.218   8.189  12.287 -0.9343  0.3664  0.3654
  655MOL0     O88320   3.192   8.230  12.417  0.0853  0.1850  1.0685
  655MOL0     C88321   3.174   8.360  12.460 -0.0402  0.3618 -0.2325
  655MOL0     C88322   3.130   8.368  12.598  0.3695  0.0591 -0.4644
  655MOL0     C88323   3.098   8.493  12.658 -0.0185 -0.1408  0.4845
  655MOL0     C88324   3.116   8.609  12.576 -0.1770  0.4646  0.3525
  655MOL0     O88325   3.097   8.742  12.603 -0.5526 -0.1810  0.0734
  655MOL0     C88326   3.074   8.774  12.742 -0.2570  0.4344  0.0668
  655MOL0     C88327   3.031   8.918  12.762 -0.7587 -0.5176  0.4641
  655MOL0     C88328   2.898   8.945  12.693 -1.0980 -0.1597 -0.2634
  655MOL0     C88329   2.867   9.098  12.674  0.5224  0.1439 -0.0341
  655MOL0     C88330   2.722   9.112  12.641 -1.6090 -0.2449 -0.7564
  655MOL0     C88331   2.645   9.104  12.772 -0.6426  0.7398 -0.1928
  655MOL0     C88332   2.496   9.098  12.727  0.5860 -0.3880 -0.0635
  655MOL0     C88333   2.409   9.040  12.838 -0.2811  0.3466  0.9140
  655MOL0    Cl88334   2.367   9.197  12.936  0.1281  0.4491  0.2889
  655MOL0     C88335   3.175   8.590  12.451 -0.2346  0.5559  0.5019
  655MOL0     C88336   3.208   8.465  12.397  0.6383 -0.5390  0.2241
  655MOL0     O88337   3.210   8.260  12.188  0.4076  0.2446 -0.3361
  655MOL0     C88338   3.312   8.011  12.142  0.0775  0.5707  0.0342
  655MOL0     C88339   3.345   7.877  12.117 -0.8983  0.0046  0.3690
  655MOL0     N88340   3.293   7.050  11.974 -0.3327  0.1432  0.0188
  655MOL0     N88341   3.179   7.002  11.962  0.7971 -0.2865 -0.0691
  655MOL0     C88342   2.597   6.722  11.373 -0.0326 -0.3717 -0.4509
  655MOL0     C88343   2.566   6.762  11.242  0.1362  0.1430 -0.2296
  655MOL0     C88344   2.451   7.061  10.926  0.2084 -0.1440 -0.2690
  655MOL0     C88345   2.312   7.060  10.896 -0.6201  0.4384 -0.4160
  655MOL0     C88346   2.261   7.127  10.791  0.0910  0.3149  0.1369
  655MOL0     C88347   2.343   7.196  10.696  0.0431 -0.0829  0.1724
  655MOL0     O88348   2.304   7.263  10.581 -0.0268  0.2824  0.8770
  655MOL0     C88349   2.164   7.309  10.579 -0.3882 -0.0605  0.6929
  655MOL0     C88350   2.116   7.403  10.686  0.7926 -0.3621 -0.2730
  655MOL0     C88351   2.092   7.552  10.640  1.0344  0.7314 -0.0770
  655MOL0     C88352   1.937   7.582  10.618  1.0370  0.1664 -0.1906
  655MOL0     C88353   1.896   7.520  10.493 -0.5642  0.1157 -0.8663
  655MOL0     C88354   1.851   7.466  10.389  0.7907  0.3617  0.2842
  655MOL0     C88355   2.475   7.207  10.729  0.3539 -0.9144  0.7817
  655MOL0     C88356   2.533   7.146  10.841  0.2679  0.1815 -0.2178
  655MOL0     C88357   2.684   7.152  10.857 -0.3526 -0.0304  0.1822
  655MOL0     H88358   2.266   6.911  11.282  1.5167  2.7072  1.3546
  655MOL0     H88359   2.307   6.851  11.503 -0.2943  0.9370  0.1171
  655MOL0     H88360   2.425   6.832  11.736 -0.0767 -1.1518  2.5574
  655MOL0     H88361   2.354   6.678  11.668 -0.0817 -0.1374  1.8413
  655MOL0     H88362   2.480   6.543  11.829  0.3647 -0.3527  1.3609
  655MOL0     H88363   2.380   6.661  11.897  0.2369 -1.6569 -1.9485
  655MOL0     H88364   2.609   6.637  12.009  2.2338  0.3299 -0.9635
  655MOL0     H88365   2.563   6.801  11.972 -0.3402 -2.1283  4.3324
  655MOL0     H88366   2.724   6.628  11.765  2.8734  0.9125 -0.4103
  655MOL0     H88367   2.705   6.807  11.774 -0.2639  2.7466  1.7515
  655MOL0     H88368   2.869   6.622  11.947  0.6911  1.1491  3.1842
  655MOL0     H88369   2.930   6.748  11.830 -0.6528  2.0893  0.4696
  655MOL0     H88370   2.781   6.805  12.072 -3.0790 -1.0501 -4.0740
  655MOL0     H88371   2.955   6.792  12.078  0.5603 -1.1670 -0.7911
  655MOL0     H88372   2.782   6.995  11.936  0.1294 -0.3859  1.5812
  655MOL0     H88373   2.945   6.969  11.877 -0.4613  1.4840  0.3626
  655MOL0     H88374   2.905   7.154  12.072  0.2123  0.0983 -0.6460
  655MOL0     H88375   2.936   7.018  12.169 -3.8072 -0.2731  0.5308
  655MOL0     H88376   3.122   7.250  12.165 -3.7960 -1.4647  0.7883
  655MOL0     H88377   3.483   7.184  12.136 -1.8364 -2.8877 -0.3058
  655MOL0     H88378   3.468   7.280  11.997  1.1834 -0.9906  0.5384
  655MOL0     H88379   3.317   7.428  12.086 -1.0831 -2.7944 -1.9579
  655MOL0     H88380   3.301   7.340  12.237 -1.4838 -1.7541 -2.2411
  655MOL0     H88381   3.570   7.466  12.151  0.3669  1.4029 -1.0078
  655MOL0     H88382   3.519   7.384  12.309 -4.5319 -0.5861  0.8511
  655MOL0     H88383   3.523   7.620  12.321 -2.8543  2.7710  0.7962
  655MOL0     H88384   3.364   7.548  12.354 -2.7864 -2.7884 -2.1946
  655MOL0     H88385   3.269   7.735  12.409  1.1919 -0.4880 -0.0643
  655MOL0     H88386   3.210   7.970  12.465 -0.5613  1.6505 -1.1609
  655MOL0     H88387   3.116   8.274  12.650  1.7191  0.5252  0.8184
  655MOL0     H88388   3.054   8.501  12.757  1.3840 -2.5121  1.4145
  655MOL0     H88389   3.002   8.703  12.784  0.4791 -1.5852 -1.8821
  655MOL0     H88390   3.173   8.768  12.789 -0.4682  0.5876  0.5367
  655MOL0     H88391   3.022   8.937  12.870 -0.7677 -1.1196  0.5726
  655MOL0     H88392   3.108   8.989  12.731 -1.1682 -0.3708 -0.2284
  655MOL0     H88393   2.899   8.891  12.599 -1.7600  1.1906 -1.0759
  655MOL0     H88394   2.828   8.890  12.757  0.0847 -2.0623 -0.5421
  655MOL0     H88395   2.911   9.148  12.587 -4.2447 -0.5699 -3.2750
  655MOL0     H88396   2.888   9.161  12.761  1.0173  2.6164 -1.8305
  655MOL0     H88397   2.690   9.029  12.577  1.3887  0.2544 -3.0935
  655MOL0     H88398   2.704   9.201  12.581  0.6629 -2.2804 -4.8812
  655MOL0     H88399   2.668   9.011  12.826 -3.1616 -0.6722 -1.3829
  655MOL0     H88400   2.667   9.182  12.845  1.0350  2.0075 -1.9593
  655MOL0     H88401   2.505   9.028  12.644  1.7456  0.4879 -0.7022
  655MOL0     H88402   2.464   9.200  12.704  2.1695  0.5693  1.6626
  655MOL0     H88403   2.318   8.997  12.794  1.9717 -1.9683 -1.9151
  655MOL0     H88404   2.465   8.967  12.898  1.4656 -0.8614 -1.9450
  655MOL0     H88405   3.198   8.670  12.381 -0.4606 -0.5124 -0.8527
  655MOL0     H88406   3.270   8.464  12.308  2.3266  1.0953  1.2994
  655MOL0     H88407   3.331   8.083  12.062 -2.3114 -1.4395 -2.5478
  655MOL0     H88408   3.370   7.844  12.017 -1.6573  1.2453 -0.2548
  655MOL0     H88409   2.687   6.669  11.399  0.2492  0.4226  0.2263
  655MOL0     H88410   2.645   6.746  11.169  2.3896  0.9007  1.8984
  655MOL0     H88411   2.252   6.987  10.950  1.1245 -1.4213 -0.8508
  655MOL0     H88412   2.161   7.113  10.752  1.0304  0.4967 -2.5336
  655MOL0     H88413   2.097   7.223  10.572 -1.3144  0.6275  1.0028
  655MOL0     H88414   2.156   7.350  10.478  0.4130 -0.7090  0.3481
  655MOL0     H88415   2.191   7.395  10.765  1.5812  0.5883 -0.9042
  655MOL0     H88416   2.022   7.362  10.723 -0.8758  3.7545  0.5668
  655MOL0     H88417   2.131   7.563  10.538  1.7175 -1.2939 -0.0853
  655MOL0     H88418   2.126   7.626  10.713 -0.5893  1.1701  0.2687
  655MOL0     H88419   1.880   7.542  10.703  0.8384  0.0202 -0.3948
  655MOL0     H88420   1.921   7.690  10.611  1.9271  0.5406  2.2923
  655MOL0     H88421   1.811   7.422  10.300 -0.7800  0.4453  0.9112
  655MOL0     H88422   2.538   7.266  10.662  1.9330 -1.9325  1.3377
  655MOL0     H88423   2.731   7.177  10.761  4.9255  2.0969  2.9133
  655MOL0     H88424   2.696   7.234  10.928  1.3227 -0.3822  0.3425
  655MOL0     H88425   2.722   7.054  10.887  2.1935  0.3061 -1.5979
  656MOL0     O88426   0.507   7.540   6.066 -0.5624  0.3040  0.4141
  656MOL0     C88427   0.471   7.437   6.009 -0.3506 -0.9546  0.1557
  656MOL0     O88428   0.388   7.343   6.069 -0.3400  0.3384  0.0912
  656MOL0     C88429   0.319   7.370   6.187  0.1725 -0.1423  0.1559
  656MOL0     C88430   0.390   7.401   6.298  0.1525 -0.5830 -1.2580
  656MOL0     C88431   0.329   7.400   6.423  0.1950  0.2118 -0.0551
  656MOL0     C88432   0.191   7.378   6.445 -0.7535  0.5965  0.2967
  656MOL0     O88433   0.147   7.376   6.571 -0.4867 -0.0656 -0.6477
  656MOL0     C88434   0.097   7.502   6.603 -1.0636 -0.7727  0.3545
  656MOL0     C88435   0.036   7.501   6.738  0.0658 -0.4592 -0.2224
  656MOL0     C88436  -0.079   7.397   6.764 -0.0875  0.3871 -0.0046
  656MOL0     C88437  -0.113   7.390   6.914  1.0519  0.5721  0.5684
  656MOL0     C88438  -0.117   7.521   6.998  0.1309 -0.9294  0.7542
  656MOL0     C88439  -0.085   7.488   7.149  0.9316 -0.1643  0.3487
  656MOL0     C88440  -0.086   7.618   7.228  0.1513  0.0942  1.2123
  656MOL0     C88441  -0.076   7.603   7.374 -0.1099  0.8660  0.4025
  656MOL0     N88442  -0.075   7.734   7.445  0.1399  0.6291  0.8146
  656MOL0     C88443  -0.184   7.819   7.453 -1.0961 -0.4775  0.0061
  656MOL0     C88444  -0.149   7.911   7.546 -0.7752 -0.1511 -0.4343
  656MOL0     C88445  -0.231   8.046   7.584  0.6029 -0.1012 -0.6550
  656MOL0     C88446  -0.315   8.026   7.710 -0.0831  0.2204 -0.4736
  656MOL0     C88447  -0.315   8.150   7.796  0.1048  0.3957 -0.5176
  656MOL0     C88448  -0.374   8.269   7.732 -0.1344  1.2503  0.5819
  656MOL0     O88449  -0.343   8.387   7.810 -0.0201  0.2682 -1.1396
  656MOL0     C88450  -0.381   8.500   7.742 -0.6396 -0.8778  0.4489
  656MOL0     C88451  -0.292   8.580   7.673 -0.6940 -0.6911  1.0448
  656MOL0     C88452  -0.342   8.685   7.589 -0.1976 -0.4251  0.2394
  656MOL0     C88453  -0.473   8.723   7.576 -0.1311  0.6357 -0.1866
  656MOL0     C88454  -0.516   8.829   7.487  0.3902  0.1469  0.3961
  656MOL0     O88455  -0.419   8.881   7.417  0.6887  0.7766  0.4635
  656MOL0     C88456  -0.451   8.957   7.310 -0.1033  0.1363  0.4285
  656MOL0     C88457  -0.476   9.094   7.320  0.6345  0.4507  0.4334
  656MOL0     C88458  -0.491   9.184   7.220  0.0396  1.0001 -0.4673
  656MOL0     C88459  -0.485   9.127   7.092  0.0343 -0.5102 -0.3562
  656MOL0     O88460  -0.501   9.224   6.998 -0.1863 -0.0225  0.3972
  656MOL0     C88461  -0.523   9.172   6.864  0.2961  0.1448  0.4513
  656MOL0     C88462  -0.393   9.134   6.787 -0.7153 -0.0577  0.4978
  656MOL0     C88463  -0.432   9.027   6.688  0.6418  0.3557 -0.0400
  656MOL0     C88464  -0.323   9.012   6.580  0.5075  0.1912 -0.2637
  656MOL0     C88465  -0.356   8.904   6.471  0.4329 -0.5274 -0.9301
  656MOL0     C88466  -0.282   8.936   6.341 -0.0840 -0.5049  0.2226
  656MOL0     C88467  -0.212   8.811   6.280  0.3546  0.1531 -0.6841
  656MOL0     C88468  -0.276   8.753   6.154 -0.0235 -0.7136  1.0151
  656MOL0    Cl88469  -0.167   8.617   6.109 -0.1113 -0.3837 -0.0454
  656MOL0     C88470  -0.456   8.990   7.068  0.6077  0.4391 -0.5423
  656MOL0     C88471  -0.436   8.902   7.180 -1.3521 -0.0845  0.2672
  656MOL0     O88472  -0.631   8.858   7.492 -0.1028  0.6225  0.8748
  656MOL0     C88473  -0.567   8.648   7.649 -0.3771  1.2716 -0.5572
  656MOL0     C88474  -0.515   8.540   7.731  0.2736  1.1219 -0.0804
  656MOL0     N88475  -0.030   7.875   7.599  0.0670 -1.4834 -0.6239
  656MOL0     N88476   0.010   7.766   7.554 -0.6108  0.7415 -0.1817
  656MOL0     C88477   0.116   7.353   6.325 -0.2144  0.8729 -0.4545
  656MOL0     C88478   0.178   7.348   6.201 -0.3013  0.6274 -0.6225
  656MOL0     C88479   0.487   7.419   5.862 -0.1622  0.6035  0.3115
  656MOL0     C88480   0.496   7.532   5.779  0.3273 -1.0518  0.2229
  656MOL0     C88481   0.497   7.514   5.637  1.1206 -0.7068  1.2355
  656MOL0     C88482   0.488   7.384   5.578 -0.1255  0.8227  0.0542
  656MOL0     O88483   0.496   7.364   5.444 -0.7191 -0.0189 -0.3897
  656MOL0     C88484   0.467   7.469   5.352  0.8241 -0.4874  0.5324
  656MOL0     C88485   0.494   7.437   5.204  0.0419 -0.0300  1.0726
  656MOL0     C88486   0.420   7.305   5.156 -0.5352 -0.6343 -0.1394
  656MOL0     C88487   0.439   7.293   5.010  0.4238  0.1221  0.9871
  656MOL0     C88488   0.574   7.260   4.969 -0.7095 -0.0659 -1.4604
  656MOL0     C88489   0.684   7.225   4.924  0.0381 -0.1889 -0.8134
  656MOL0     C88490   0.478   7.273   5.667 -0.1428  0.1904  0.1286
  656MOL0     C88491   0.485   7.286   5.804  0.1024  0.3589  0.7583
  656MOL0     C88492   0.476   7.161   5.880 -0.4050  0.8914  0.6833
  656MOL0     H88493   0.495   7.430   6.297  0.1989 -0.3519  1.4292
  656MOL0     H88494   0.386   7.418   6.514  0.2158 -0.1845  0.0107
  656MOL0     H88495   0.174   7.580   6.596  0.5240 -1.8620  3.6665
  656MOL0     H88496   0.014   7.522   6.534 -1.2832 -0.8705  0.5872
  656MOL0     H88497   0.001   7.603   6.761  1.7120  1.2491 -4.2887
  656MOL0     H88498   0.122   7.481   6.802  0.6121 -2.4816 -1.4957
  656MOL0     H88499  -0.044   7.298   6.734 -0.2838 -0.0099  1.0102
  656MOL0     H88500  -0.170   7.422   6.708  1.0785  3.2894 -0.7843
  656MOL0     H88501  -0.204   7.330   6.930  1.2693  0.2344  0.5433
  656MOL0     H88502  -0.035   7.332   6.963  0.6806  0.8684  1.5312
  656MOL0     H88503  -0.037   7.590   6.973  0.1849 -1.5321 -0.8405
  656MOL0     H88504  -0.218   7.563   6.990  0.7471  0.6924  1.2608
  656MOL0     H88505  -0.165   7.415   7.167 -0.2585  1.0260  0.0442
  656MOL0     H88506   0.016   7.451   7.164  1.1898  0.7738  1.0148
  656MOL0     H88507  -0.177   7.674   7.204  0.9114  1.9024  2.3343
  656MOL0     H88508   0.001   7.676   7.195  0.3233 -1.1590 -0.6854
  656MOL0     H88509  -0.158   7.539   7.408  0.6713 -1.2007 -1.4474
  656MOL0     H88510   0.015   7.549   7.398  1.9976  0.8070 -5.9729
  656MOL0     H88511  -0.267   7.824   7.383 -1.6123 -2.3998  0.4280
  656MOL0     H88512  -0.160   8.128   7.592 -0.8297  1.2675 -1.4296
  656MOL0     H88513  -0.297   8.056   7.497 -2.1139 -2.1953  1.0004
  656MOL0     H88514  -0.419   8.011   7.679 -0.3041 -1.4893  0.9521
  656MOL0     H88515  -0.285   7.942   7.773  2.3191  1.3525 -0.0047
  656MOL0     H88516  -0.212   8.176   7.820 -0.0610  1.0352 -0.4978
  656MOL0     H88517  -0.365   8.131   7.892 -0.0283  0.8835 -0.4860
  656MOL0     H88518  -0.482   8.254   7.721  0.4550 -1.2550 -4.0470
  656MOL0     H88519  -0.335   8.279   7.630  0.0543 -4.2686 -0.1743
  656MOL0     H88520  -0.187   8.562   7.653 -0.2001  3.3112 -1.0483
  656MOL0     H88521  -0.272   8.750   7.539  0.2229 -1.7143 -0.9086
  656MOL0     H88522  -0.479   9.137   7.419 -1.0608  2.1103 -0.2678
  656MOL0     H88523  -0.514   9.290   7.225  2.3499  1.7228 -2.8878
  656MOL0     H88524  -0.597   9.092   6.872 -0.0834  0.6288  2.5161
  656MOL0     H88525  -0.571   9.256   6.813  2.9524  0.2732 -2.0957
  656MOL0     H88526  -0.346   9.217   6.735  2.7493 -3.9529 -3.2694
  656MOL0     H88527  -0.318   9.107   6.862  0.8075  2.9515  0.2218
  656MOL0     H88528  -0.445   8.935   6.746 -1.7804 -0.0520 -1.1093
  656MOL0     H88529  -0.529   9.042   6.640  0.9697 -2.0982 -1.6780
  656MOL0     H88530  -0.233   8.980   6.633  0.5989  1.8320  0.6290
  656MOL0     H88531  -0.311   9.110   6.533  0.7686  1.1584  1.7259
  656MOL0     H88532  -0.464   8.908   6.455  0.1257 -0.6313  0.9367
  656MOL0     H88533  -0.334   8.806   6.514 -3.5622 -0.7676  0.9359
  656MOL0     H88534  -0.345   8.997   6.275  0.3699  2.4890  2.3648
  656MOL0     H88535  -0.209   9.014   6.363  0.0569 -1.4403  3.5616
  656MOL0     H88536  -0.201   8.728   6.350  0.6593 -0.2867 -1.2458
  656MOL0     H88537  -0.106   8.828   6.258  0.7443  1.2170  1.6334
  656MOL0     H88538  -0.377   8.721   6.178 -0.0693 -0.2280  1.4918
  656MOL0     H88539  -0.288   8.828   6.075 -3.9952 -3.0899 -0.9543
  656MOL0     H88540  -0.466   8.954   6.966  0.0779  1.6504 -0.9451
  656MOL0     H88541  -0.414   8.799   7.155 -1.4098 -0.4729  1.7484
  656MOL0     H88542  -0.669   8.666   7.617 -0.2030 -2.1603 -3.7750
  656MOL0     H88543  -0.588   8.476   7.779  1.1589 -0.1516 -0.3883
  656MOL0     H88544   0.010   7.344   6.346  0.0646  2.8963  2.4776
  656MOL0     H88545   0.115   7.328   6.116  0.8138 -0.4987 -1.2151
  656MOL0     H88546   0.484   7.630   5.825 -4.4345 -1.1863 -0.2551
  656MOL0     H88547   0.489   7.602   5.575  0.0777 -0.7788  1.2532
  656MOL0     H88548   0.529   7.556   5.373  0.4691 -0.0582 -0.1646
  656MOL0     H88549   0.361   7.497   5.362  0.7525 -0.5772  0.0599
  656MOL0     H88550   0.603   7.427   5.199 -0.1144 -3.6946  2.0098
  656MOL0     H88551   0.461   7.513   5.133  0.7050 -1.8362 -1.3090
  656MOL0     H88552   0.316   7.300   5.190  0.0018  0.7088  1.8495
  656MOL0     H88553   0.469   7.219   5.201  1.3995 -0.1847 -1.2717
  656MOL0     H88554   0.383   7.201   4.989  0.6930 -0.5807  3.0231
  656MOL0     H88555   0.406   7.383   4.959 -3.8647 -1.1593  1.0700
  656MOL0     H88556   0.784   7.205   4.893  0.4318  0.4275  0.0271
  656MOL0     H88557   0.481   7.171   5.630 -1.8735  0.3127 -0.4302
  656MOL0     H88558   0.506   7.076   5.818 -2.7062  0.2729  0.3268
  656MOL0     H88559   0.537   7.154   5.971  0.2239  2.6908  0.4345
  656MOL0     H88560   0.371   7.146   5.906  0.0853 -0.6416  1.9812
  657MOL0     O88561   2.909   0.344  11.243 -0.3646  0.3650 -0.8711
  657MOL0     C88562   2.806   0.391  11.181 -0.4992 -0.1819  0.1429
  657MOL0     O88563   2.764   0.518  11.184 -0.4002 -0.1403 -0.1473
  657MOL0     C88564   2.819   0.617  11.266 -0.2347 -0.2590  0.8834
  657MOL0     C88565   2.908   0.596  11.373  0.2699  0.0289 -0.3883
  657MOL0     C88566   2.965   0.695  11.449 -0.1085 -0.1042 -0.5444
  657MOL0     C88567   2.930   0.821  11.427 -0.4943 -1.0848  0.2125
  657MOL0     O88568   3.000   0.920  11.505 -0.4103  0.8405  0.5070
  657MOL0     C88569   3.013   1.062  11.478  1.1563  0.1645 -0.1151
  657MOL0     C88570   3.097   1.133  11.590 -0.0383 -0.0389 -0.0627
  657MOL0     C88571   3.057   1.100  11.729 -0.1246  0.9407  0.1800
  657MOL0     C88572   3.165   1.055  11.817 -0.3369  0.3980  1.1790
  657MOL0     C88573   3.114   0.959  11.911 -0.2306 -0.0791 -0.2685
  657MOL0     C88574   3.194   0.976  12.039  0.1565  0.6812 -0.1220
  657MOL0     C88575   3.158   0.871  12.146  0.1887 -0.4034  0.0833
  657MOL0     C88576   3.249   0.752  12.132  0.2718 -0.3153  0.2525
  657MOL0     N88577   3.164   0.632  12.158 -0.3142  0.0314  0.1253
  657MOL0     C88578   3.128   0.599  12.289  0.9293 -0.2024  0.3033
  657MOL0     C88579   3.070   0.478  12.267 -0.2160 -0.1770  0.0322
  657MOL0     C88580   2.993   0.394  12.354 -0.3648 -0.7990  0.0148
  657MOL0     C88581   2.983   0.452  12.504 -0.6443 -0.1870  0.2460
  657MOL0     C88582   2.880   0.374  12.587  0.6411  0.7201  0.8288
  657MOL0     C88583   2.853   0.435  12.729 -0.4845 -0.2525 -0.0813
  657MOL0     O88584   2.970   0.464  12.803  0.3330 -0.5691 -0.1551
  657MOL0     C88585   3.007   0.363  12.880 -0.2198 -0.2243 -1.0458
  657MOL0     C88586   3.132   0.383  12.938 -0.0238 -0.4317  0.3977
  657MOL0     C88587   3.193   0.280  13.017  0.0179  0.2530 -0.9905
  657MOL0     C88588   3.134   0.156  13.045  0.5189 -0.1460 -0.3506
  657MOL0     C88589   3.190   0.057  13.137  0.2225 -0.0328  0.0316
  657MOL0     O88590   3.115  -0.055  13.157 -0.4141 -0.8523  0.0101
  657MOL0     C88591   3.137  -0.143  13.259 -0.0903 -0.1543 -0.3283
  657MOL0     C88592   3.043  -0.243  13.262 -1.3402 -0.5851  0.6350
  657MOL0     C88593   3.041  -0.336  13.364  0.5011 -0.2346  0.4692
  657MOL0     C88594   3.141  -0.338  13.470 -0.4829 -0.3806 -0.0095
  657MOL0     O88595   3.151  -0.422  13.575  0.3439 -1.2371  0.2195
  657MOL0     C88596   3.034  -0.444  13.656  0.1692 -0.8589  0.5976
  657MOL0     C88597   3.000  -0.316  13.750 -0.4777  0.0224 -0.8002
  657MOL0     C88598   3.050  -0.306  13.889  1.1769  0.0131  0.1502
  657MOL0     C88599   2.994  -0.176  13.958 -0.5151 -0.7353  0.0316
  657MOL0     C88600   3.009  -0.169  14.111  0.5980 -0.2280  0.3918
  657MOL0     C88601   3.156  -0.153  14.155 -0.6079 -0.2393 -0.1835
  657MOL0     C88602   3.186  -0.168  14.301  1.0918  0.6943  0.3334
  657MOL0     C88603   3.311  -0.084  14.335  0.1886  0.8658 -0.1669
  657MOL0    Cl88604   3.468  -0.145  14.282 -0.1713 -0.0178  0.1894
  657MOL0     C88605   3.237  -0.241  13.460  0.7457 -1.0420  0.3585
  657MOL0     C88606   3.237  -0.154  13.354 -0.5787 -0.6771  0.5885
  657MOL0     O88607   3.307   0.068  13.171  0.1868 -0.1294  0.9676
  657MOL0     C88608   3.009   0.134  12.977 -0.0139  0.1302  0.9105
  657MOL0     C88609   2.950   0.239  12.901 -0.0888 -0.0583  0.0957
  657MOL0     N88610   3.084   0.441  12.134 -0.2618 -0.0009 -0.2429
  657MOL0     N88611   3.145   0.531  12.070  0.7315 -0.6221  0.1679
  657MOL0     C88612   2.840   0.855  11.324 -0.8465 -0.0717  0.3643
  657MOL0     C88613   2.789   0.748  11.244 -0.0526 -0.2438  0.6980
  657MOL0     C88614   2.759   0.304  11.064  0.6013  0.4540 -0.7134
  657MOL0     C88615   2.617   0.289  11.045 -0.3931 -0.0021  0.7575
  657MOL0     C88616   2.582   0.191  10.952  0.2088  0.0211 -0.9241
  657MOL0     C88617   2.674   0.134  10.867  0.5056  0.5281 -0.7018
  657MOL0     O88618   2.623   0.019  10.796  0.2445  0.2285  0.6798
  657MOL0     C88619   2.709  -0.073  10.728  0.3788 -0.1054 -0.2201
  657MOL0     C88620   2.747  -0.021  10.594  0.1807  0.7190 -0.2411
  657MOL0     C88621   2.632  -0.025  10.495  0.1081 -0.0397  0.2643
  657MOL0     C88622   2.664   0.047  10.362 -0.7151  0.9240 -0.3436
  657MOL0     C88623   2.780   0.011  10.286  0.6669 -0.2843 -0.2195
  657MOL0     C88624   2.885  -0.008  10.221  0.8749 -0.3703 -0.3280
  657MOL0     C88625   2.816   0.166  10.877  0.4686 -0.2441  0.4240
  657MOL0     C88626   2.857   0.254  10.973 -0.9076  0.1804  0.4696
  657MOL0     C88627   3.006   0.287  10.976 -0.1285  0.2380 -0.6593
  657MOL0     H88628   2.942   0.495  11.395  0.8672  0.5106  0.9953
  657MOL0     H88629   3.031   0.667  11.531 -0.5926  1.3925  0.4032
  657MOL0     H88630   3.065   1.073  11.382 -0.0190  2.7144 -0.5689
  657MOL0     H88631   2.909   1.097  11.485  1.5265  1.7711 -1.8002
  657MOL0     H88632   3.096   1.241  11.574  1.9944  0.0657  0.2957
  657MOL0     H88633   3.200   1.107  11.565 -0.1383 -0.3806 -0.1241
  657MOL0     H88634   2.975   1.029  11.713  1.0125 -0.1591 -1.0633
  657MOL0     H88635   3.017   1.192  11.773 -0.7316  1.3547 -1.1897
  657MOL0     H88636   3.233   1.001  11.751 -0.2049  2.3927 -0.4315
  657MOL0     H88637   3.224   1.139  11.857 -4.2160  2.1557  3.8380
  657MOL0     H88638   3.009   0.975  11.935 -0.1154  0.8744 -0.3778
  657MOL0     H88639   3.123   0.857  11.873  1.2047  0.8899 -2.8365
  657MOL0     H88640   3.299   0.956  12.018 -0.3745  1.1135 -3.8957
  657MOL0     H88641   3.175   1.078  12.072 -1.1308 -0.3028  2.5412
  657MOL0     H88642   3.054   0.837  12.138  0.0905 -0.4504  1.3596
  657MOL0     H88643   3.164   0.912  12.247  2.0572 -0.4461  0.0204
  657MOL0     H88644   3.278   0.737  12.027 -0.7607  2.9838 -0.6415
  657MOL0     H88645   3.338   0.751  12.196 -0.8922 -2.7806  1.9867
  657MOL0     H88646   3.144   0.656  12.380  0.2409  2.6262 -1.2274
  657MOL0     H88647   2.893   0.390  12.309  0.7045  0.6043 -2.7477
  657MOL0     H88648   3.047   0.299  12.356  1.2381  0.0756  1.2992
  657MOL0     H88649   3.082   0.461  12.550 -0.0494  1.4217 -1.2339
  657MOL0     H88650   2.949   0.556  12.502  3.7727  1.4995 -2.0547
  657MOL0     H88651   2.908   0.268  12.597  0.5797  0.8243  2.3397
  657MOL0     H88652   2.785   0.382  12.534  0.0176 -3.1665  1.0491
  657MOL0     H88653   2.782   0.380  12.791 -0.1402  0.3595  0.8818
  657MOL0     H88654   2.801   0.530  12.710  1.9574  0.8049 -2.1991
  657MOL0     H88655   3.193   0.470  12.915 -0.3296 -0.6144 -1.1792
  657MOL0     H88656   3.292   0.305  13.055 -1.2023  3.0766  0.6501
  657MOL0     H88657   2.969  -0.243  13.183 -0.9738  2.1832  0.2166
  657MOL0     H88658   2.960  -0.408  13.375 -0.4230  0.8107  0.7436
  657MOL0     H88659   2.955  -0.469  13.586  1.7202  2.1203 -2.5068
  657MOL0     H88660   3.063  -0.531  13.716 -1.5689 -1.5182  0.5272
  657MOL0     H88661   3.028  -0.228  13.692 -0.8281 -1.2865 -3.0975
  657MOL0     H88662   2.892  -0.310  13.767  0.0112 -0.3739  3.6940
  657MOL0     H88663   3.033  -0.396  13.948 -0.5486 -1.0206 -1.8348
  657MOL0     H88664   3.159  -0.292  13.888  1.8031 -3.9359  0.3968
  657MOL0     H88665   2.890  -0.180  13.925 -0.5812 -1.0054  0.2714
  657MOL0     H88666   3.050  -0.089  13.922  1.1932 -1.4439  0.8851
  657MOL0     H88667   2.963  -0.258  14.153  1.5516 -0.8079  0.2292
  657MOL0     H88668   2.967  -0.076  14.151  0.2577 -0.1797 -0.0683
  657MOL0     H88669   3.218  -0.223  14.098 -3.1474 -0.6368 -2.6840
  657MOL0     H88670   3.179  -0.050  14.124  3.2879 -0.7697  0.4923
  657MOL0     H88671   3.210  -0.274  14.315 -3.6762 -0.8809 -1.4485
  657MOL0     H88672   3.100  -0.152  14.365 -0.4992 -0.4992 -1.4002
  657MOL0     H88673   3.287   0.011  14.287 -1.7850 -1.2535 -3.8362
  657MOL0     H88674   3.328  -0.098  14.442  2.6012  0.1605 -0.5740
  657MOL0     H88675   3.314  -0.239  13.537 -0.0335 -2.2062  1.2038
  657MOL0     H88676   3.307  -0.072  13.356 -3.7493  2.4598 -1.9933
  657MOL0     H88677   2.942   0.050  12.987 -0.7843  0.9157  2.8661
  657MOL0     H88678   2.853   0.220  12.855  0.8463  0.4722 -2.1860
  657MOL0     H88679   2.811   0.959  11.312  0.4809  0.0736 -2.2021
  657MOL0     H88680   2.708   0.769  11.175  0.6583  0.2400 -0.0124
  657MOL0     H88681   2.544   0.326  11.116 -0.9319 -3.0346  1.9344
  657MOL0     H88682   2.485   0.147  10.929  0.7755 -0.3760 -2.7158
  657MOL0     H88683   2.659  -0.170  10.713 -0.7191  0.6979 -2.1076
  657MOL0     H88684   2.800  -0.095  10.784  0.7099 -3.0424 -1.7058
  657MOL0     H88685   2.834  -0.072  10.551 -0.2662  0.5894 -1.0175
  657MOL0     H88686   2.781   0.081  10.612  1.4882  0.4841 -1.2430
  657MOL0     H88687   2.533   0.010  10.527 -0.4996 -0.2590 -1.2873
  657MOL0     H88688   2.631  -0.132  10.472 -2.2892  0.1092 -0.6355
  657MOL0     H88689   2.576   0.036  10.298 -0.5739  2.3491 -0.8199
  657MOL0     H88690   2.668   0.153  10.388 -2.0209  0.8818  0.0738
  657MOL0     H88691   2.966  -0.031  10.154 -0.3537 -2.0516 -1.3171
  657MOL0     H88692   2.877   0.111  10.806 -1.4726 -1.1234 -0.6515
  657MOL0     H88693   3.037   0.380  10.928 -0.8048  0.2016 -1.1604
  657MOL0     H88694   3.055   0.263  11.072  4.5243 -2.9453 -3.3943
  657MOL0     H88695   3.055   0.205  10.923 -0.9338  0.7927 -2.3030
  658MOL0     O88696   6.533   0.532   2.635  0.7668 -0.3068  0.0183
  658MOL0     C88697   6.437   0.594   2.583  0.5224 -0.3008  0.0147
  658MOL0     O88698   6.322   0.543   2.530  0.6509  0.8629 -0.0250
  658MOL0     C88699   6.311   0.407   2.512  0.6528 -0.5785 -0.0999
  658MOL0     C88700   6.375   0.298   2.581 -0.2418 -0.5316 -0.3186
  658MOL0     C88701   6.343   0.167   2.547 -0.0694 -0.4102  0.2022
  658MOL0     C88702   6.239   0.132   2.460  0.1790 -0.2080 -1.3904
  658MOL0     O88703   6.235  -0.005   2.446 -0.0350 -0.2164  0.7730
  658MOL0     C88704   6.144  -0.055   2.342  0.5000 -0.7161  0.1850
  658MOL0     C88705   6.186  -0.027   2.203 -0.0024  0.3278 -0.0150
  658MOL0     C88706   6.105  -0.098   2.100 -0.0055  0.2273 -0.1129
  658MOL0     C88707   6.150  -0.088   1.953 -0.3186  0.3429 -0.4778
  658MOL0     C88708   6.063  -0.167   1.842  0.1556  0.4406 -0.3694
  658MOL0     C88709   5.918  -0.142   1.830  0.6475 -0.0265  0.2816
  658MOL0     C88710   5.840  -0.244   1.748 -0.0676 -0.2134 -0.4118
  658MOL0     C88711   5.679  -0.238   1.756  0.2351 -0.7115 -0.0358
  658MOL0     N88712   5.616  -0.364   1.701  0.7509  0.2526  0.3951
  658MOL0     C88713   5.566  -0.467   1.780 -0.0448 -0.1040  0.4724
  658MOL0     C88714   5.527  -0.567   1.692  1.0522 -0.2579  0.1213
  658MOL0     C88715   5.519  -0.712   1.732  0.6509  0.1976  1.8202
  658MOL0     C88716   5.481  -0.803   1.620  0.0370 -0.6383 -0.1202
  658MOL0     C88717   5.356  -0.764   1.532 -0.2970 -0.1047 -0.0160
  658MOL0     C88718   5.287  -0.874   1.464 -1.5199 -0.1603 -0.7260
  658MOL0     O88719   5.150  -0.832   1.451 -0.0436  0.5671 -0.6900
  658MOL0     C88720   5.075  -0.896   1.361  0.0091  0.4037  1.1734
  658MOL0     C88721   5.106  -1.012   1.287  0.2023 -0.7402  0.3752
  658MOL0     C88722   5.032  -1.065   1.190  0.3913 -0.1341  0.3532
  658MOL0     C88723   4.913  -0.989   1.155 -0.0557  0.5774 -0.0827
  658MOL0     C88724   4.826  -1.030   1.046  0.3837  0.3647  0.5593
  658MOL0     O88725   4.727  -0.945   1.014  1.5171  0.5195 -0.6190
  658MOL0     C88726   4.644  -0.976   0.908  0.3538  0.1565  0.0201
  658MOL0     C88727   4.505  -0.980   0.928 -0.0432  0.5116  0.6443
  658MOL0     C88728   4.420  -1.009   0.824 -0.0559 -0.7925  0.6348
  658MOL0     C88729   4.468  -1.030   0.697 -1.2192 -0.8077 -1.3281
  658MOL0     O88730   4.375  -1.064   0.611  0.4106  0.8816 -0.2977
  658MOL0     C88731   4.367  -1.210   0.584  0.8799 -0.9200  0.6761
  658MOL0     C88732   4.239  -1.250   0.505 -0.2262 -0.8426  0.4466
  658MOL0     C88733   4.225  -1.398   0.484 -1.5561  0.1660 -0.1805
  658MOL0     C88734   4.284  -1.446   0.344 -0.2529 -0.7783 -0.6333
  658MOL0     C88735   4.317  -1.601   0.344  0.3083 -0.9838  0.5381
  658MOL0     C88736   4.347  -1.642   0.203 -0.2902 -0.1167 -0.0704
  658MOL0     C88737   4.427  -1.777   0.197 -0.2608 -0.4433  0.0071
  658MOL0     C88738   4.391  -1.861   0.076  0.3386 -0.2308  0.5674
  658MOL0    Cl88739   4.501  -2.008   0.103 -0.5444 -0.0994  0.0045
  658MOL0     C88740   4.608  -1.036   0.676  0.4316  0.2914  0.4291
  658MOL0     C88741   4.690  -1.008   0.782  0.2150 -0.1125  0.0651
  658MOL0     O88742   4.850  -1.147   1.005  0.3528  0.6276 -0.1265
  658MOL0     C88743   4.880  -0.870   1.227  0.5517  0.0005  0.3061
  658MOL0     C88744   4.968  -0.827   1.330  0.1283  0.2442  0.0883
  658MOL0     N88745   5.540  -0.514   1.565 -0.2766 -0.4834 -0.0446
  658MOL0     N88746   5.600  -0.393   1.575 -0.6430 -0.0049 -0.5595
  658MOL0     C88747   6.171   0.247   2.409  0.2273 -0.4236 -0.0460
  658MOL0     C88748   6.202   0.375   2.438 -1.7007  1.2161  0.6680
  658MOL0     C88749   6.432   0.740   2.623  0.2898 -0.2042 -0.0832
  658MOL0     C88750   6.309   0.804   2.648  0.2307 -0.3113  0.0726
  658MOL0     C88751   6.299   0.942   2.671 -0.4251  0.7537  0.7544
  658MOL0     C88752   6.410   1.013   2.693  0.0024  0.2393 -0.5621
  658MOL0     O88753   6.388   1.140   2.744 -0.4330 -0.1556  0.8277
  658MOL0     C88754   6.482   1.249   2.720  0.7511 -0.0840 -0.7175
  658MOL0     C88755   6.483   1.290   2.570 -0.4200 -0.3453  0.2111
  658MOL0     C88756   6.504   1.445   2.554  0.9688  0.0562  0.3731
  658MOL0     C88757   6.389   1.547   2.601  0.3977  0.2490 -0.3202
  658MOL0     C88758   6.399   1.672   2.529  0.3896  0.0477 -0.1986
  658MOL0     C88759   6.389   1.772   2.460 -0.0364  0.0407 -0.1422
  658MOL0     C88760   6.537   0.955   2.699  0.8797 -0.2619  0.3799
  658MOL0     C88761   6.554   0.815   2.653  0.1310  0.7244  0.3945
  658MOL0     C88762   6.702   0.785   2.647 -0.1496  0.8073 -0.2035
  658MOL0     H88763   6.467   0.310   2.637 -0.6897 -0.7076  0.4777
  658MOL0     H88764   6.384   0.076   2.589  1.3997  0.3196  0.3973
  658MOL0     H88765   6.146  -0.163   2.361  1.4390 -0.4962  1.4645
  658MOL0     H88766   6.044  -0.017   2.364  0.9027 -0.2261  1.2419
  658MOL0     H88767   6.286  -0.072   2.201 -0.2856 -0.7485  3.2319
  658MOL0     H88768   6.182   0.081   2.189  1.5863  0.2149 -1.7211
  658MOL0     H88769   6.008  -0.047   2.101  0.0635  0.3662 -0.3128
  658MOL0     H88770   6.084  -0.204   2.118  0.3095 -0.0643 -1.3564
  658MOL0     H88771   6.170   0.015   1.922 -0.1019 -0.3964 -2.9730
  658MOL0     H88772   6.248  -0.135   1.946 -1.1857 -1.3662 -2.0897
  658MOL0     H88773   6.103  -0.155   1.741 -1.9250 -1.7613 -1.5408
  658MOL0     H88774   6.082  -0.271   1.868  1.0825  0.6864 -0.0091
  658MOL0     H88775   5.868  -0.134   1.927  2.4239 -0.9059  1.3450
  658MOL0     H88776   5.899  -0.045   1.784 -0.8844  1.0754  3.0191
  658MOL0     H88777   5.866  -0.341   1.792  1.9922  0.8195  0.8180
  658MOL0     H88778   5.866  -0.245   1.641  2.8241 -0.7644  0.2222
  658MOL0     H88779   5.658  -0.212   1.860 -2.4086 -1.3930 -0.3124
  658MOL0     H88780   5.623  -0.161   1.703 -1.0867 -0.3040  1.8588
  658MOL0     H88781   5.583  -0.472   1.888 -1.9392 -0.2265  0.7964
  658MOL0     H88782   5.610  -0.750   1.780  0.7002  0.1666  1.7036
  658MOL0     H88783   5.439  -0.719   1.806 -2.5533 -1.7635 -1.4786
  658MOL0     H88784   5.568  -0.818   1.555  1.1942 -0.2609  1.2806
  658MOL0     H88785   5.454  -0.901   1.658 -0.2361 -0.2437  0.7283
  658MOL0     H88786   5.384  -0.693   1.453 -2.5984  0.0524 -0.7606
  658MOL0     H88787   5.289  -0.712   1.602 -2.4636 -0.1575 -1.9424
  658MOL0     H88788   5.302  -0.959   1.532  3.6931  1.5832  0.7749
  658MOL0     H88789   5.331  -0.898   1.367 -0.5324  2.2582 -0.9484
  658MOL0     H88790   5.196  -1.062   1.322 -0.6900 -2.1134  0.7922
  658MOL0     H88791   5.054  -1.162   1.148 -0.8266  0.1495 -1.0041
  658MOL0     H88792   4.469  -0.950   1.026 -0.2444 -2.2018  1.4673
  658MOL0     H88793   4.314  -0.995   0.844 -0.0734  1.5007 -0.8096
  658MOL0     H88794   4.453  -1.238   0.522  0.3720  0.9718 -1.0206
  658MOL0     H88795   4.365  -1.267   0.677 -2.1547 -1.8376  0.1282
  658MOL0     H88796   4.147  -1.217   0.555  0.0714 -0.3636  0.6944
  658MOL0     H88797   4.229  -1.203   0.407 -2.4199  1.9050  1.8332
  658MOL0     H88798   4.270  -1.451   0.568  1.9907 -0.3719 -2.2191
  658MOL0     H88799   4.119  -1.427   0.478 -1.6986  0.8326 -1.2484
  658MOL0     H88800   4.380  -1.397   0.324  0.8023 -2.5754 -0.2067
  658MOL0     H88801   4.218  -1.415   0.262 -1.0825  2.1325  1.0239
  658MOL0     H88802   4.240  -1.661   0.392 -1.7950  0.8211 -0.4194
  658MOL0     H88803   4.408  -1.616   0.404  2.4112  3.9820 -0.9151
  658MOL0     H88804   4.255  -1.643   0.144 -0.2983  1.2630 -0.1183
  658MOL0     H88805   4.414  -1.565   0.164  0.4738  0.3610  2.0503
  658MOL0     H88806   4.393  -1.832   0.285 -1.8013 -0.4206 -0.5469
  658MOL0     H88807   4.536  -1.767   0.202 -0.3296  0.1523  0.3975
  658MOL0     H88808   4.286  -1.890   0.078  0.3306 -0.2259  0.2612
  658MOL0     H88809   4.402  -1.803  -0.016 -2.0155  0.1255  0.4476
  658MOL0     H88810   4.632  -1.060   0.573 -0.7558 -1.0104  0.4176
  658MOL0     H88811   4.793  -0.974   0.770 -0.4490  3.3547  2.6324
  658MOL0     H88812   4.790  -0.815   1.200  0.2711 -1.7006 -2.5660
  658MOL0     H88813   4.942  -0.745   1.397  1.1889  0.0275  0.7897
  658MOL0     H88814   6.086   0.240   2.342  0.3475  2.4500 -0.6130
  658MOL0     H88815   6.164   0.459   2.381  0.9321  1.0265 -1.6011
  658MOL0     H88816   6.216   0.754   2.622 -1.0892  2.7609 -1.5583
  658MOL0     H88817   6.200   0.988   2.668 -0.5285  0.4924 -0.7795
  658MOL0     H88818   6.584   1.218   2.745  0.1895 -2.4001 -1.0834
  658MOL0     H88819   6.454   1.336   2.781 -0.4874  0.2620 -1.7291
  658MOL0     H88820   6.391   1.272   2.512 -0.8608 -1.8286  1.3253
  658MOL0     H88821   6.556   1.229   2.517  0.4433 -2.1274  3.2573
  658MOL0     H88822   6.534   1.456   2.450 -2.0741 -0.1234 -0.6358
  658MOL0     H88823   6.591   1.463   2.618 -0.1637  0.1024  1.9760
  658MOL0     H88824   6.293   1.497   2.588  0.3540 -1.0006  3.4416
  658MOL0     H88825   6.401   1.556   2.710 -3.1539 -0.2696  0.2135
  658MOL0     H88826   6.385   1.825   2.367  0.1568 -1.4220 -1.0012
  658MOL0     H88827   6.618   1.013   2.742 -0.5857  1.9980  0.2243
  658MOL0     H88828   6.723   0.705   2.575 -1.5955 -0.1498  0.3916
  658MOL0     H88829   6.767   0.869   2.620 -0.4216  2.3754  3.4342
  658MOL0     H88830   6.735   0.767   2.750  3.6502 -2.0484 -1.6645
  659MOL0     O88831   1.048  11.072   5.120 -0.2075  0.2991  0.8174
  659MOL0     C88832   1.107  11.037   5.011  0.1316 -0.4919 -0.0981
  659MOL0     O88833   1.202  11.118   4.957  0.0876 -0.2153  0.1304
  659MOL0     C88834   1.224  11.242   5.005  0.0576  0.0909  0.3435
  659MOL0     C88835   1.125  11.347   5.013  0.2080  0.0345 -0.3220
  659MOL0     C88836   1.169  11.476   5.042 -1.1115 -0.5219  0.4924
  659MOL0     C88837   1.304  11.501   5.071  0.5540 -0.3487 -0.2760
  659MOL0     O88838   1.338  11.628   5.105 -0.2901 -0.1846 -0.9873
  659MOL0     C88839   1.463  11.654   5.167 -0.5466 -0.7455  0.8084
  659MOL0     C88840   1.469  11.810   5.183  0.1799  0.0351 -0.5097
  659MOL0     C88841   1.479  11.859   5.330  1.0653  0.3385  0.1853
  659MOL0     C88842   1.360  11.825   5.421  0.2389 -0.0687  1.0897
  659MOL0     C88843   1.387  11.871   5.569  0.5424 -0.0108 -0.0617
  659MOL0     C88844   1.280  11.843   5.682 -0.0666 -0.6322  0.7151
  659MOL0     C88845   1.311  11.712   5.738  0.4972  0.4183  0.8209
  659MOL0     C88846   1.206  11.673   5.843  0.6546  0.5711  0.5192
  659MOL0     N88847   1.227  11.522   5.861  0.0217  0.0089  0.1705
  659MOL0     C88848   1.188  11.420   5.772  0.2151  0.9363 -0.4396
  659MOL0     C88849   1.247  11.300   5.820  0.3244 -0.4932  0.0431
  659MOL0     C88850   1.241  11.157   5.764  0.0335  0.1125  0.5966
  659MOL0     C88851   1.223  11.147   5.608  0.8382  0.2721 -0.6412
  659MOL0     C88852   1.352  11.182   5.535 -0.3416 -0.1748  0.8160
  659MOL0     C88853   1.368  11.120   5.395  0.5442  0.1640  0.2802
  659MOL0     O88854   1.506  11.134   5.337  0.5446  0.1016  0.0435
  659MOL0     C88855   1.535  11.041   5.241 -0.5615  0.5420 -0.3869
  659MOL0     C88856   1.434  10.964   5.179 -0.3631  0.2203 -0.4619
  659MOL0     C88857   1.471  10.871   5.078  0.3823 -0.3417  1.5336
  659MOL0     C88858   1.609  10.845   5.054 -0.4217  0.2457 -0.4082
  659MOL0     C88859   1.644  10.747   4.950  0.5526  0.1909 -0.4237
  659MOL0     O88860   1.772  10.724   4.920  0.1696 -0.6415  0.1371
  659MOL0     C88861   1.808  10.634   4.823 -0.8206  0.8494 -0.9876
  659MOL0     C88862   1.734  10.597   4.706 -0.6830 -1.1023 -0.7362
  659MOL0     C88863   1.787  10.491   4.620  0.2313 -0.3022 -0.5028
  659MOL0     C88864   1.906  10.422   4.647 -0.0510 -0.2847 -0.0729
  659MOL0     O88865   1.953  10.321   4.566  0.3880 -0.0667 -0.4271
  659MOL0     C88866   1.863  10.246   4.500 -0.1995 -0.2445  0.7000
  659MOL0     C88867   1.921  10.109   4.458  0.1073 -0.3095 -0.4809
  659MOL0     C88868   1.823  10.031   4.374 -0.3861 -0.4810 -0.0118
  659MOL0     C88869   1.788  10.092   4.247  0.1375  0.2564 -0.0000
  659MOL0     C88870   1.716  10.013   4.144 -0.6721  0.9629  0.2286
  659MOL0     C88871   1.752   9.861   4.118  0.8067  0.3234  0.6132
  659MOL0     C88872   1.651   9.798   4.029  0.8449  0.2183  0.2628
  659MOL0     C88873   1.654   9.645   4.046  0.7086  0.0260 -0.1213
  659MOL0    Cl88874   1.804   9.592   3.969  0.3265 -0.0859 -0.3501
  659MOL0     C88875   1.981  10.468   4.758 -0.5749  1.1088 -0.4199
  659MOL0     C88876   1.934  10.571   4.841 -0.1397 -0.8616  0.4189
  659MOL0     O88877   1.544  10.692   4.891  0.3800 -0.5894 -0.0020
  659MOL0     C88878   1.704  10.922   5.109 -0.2726 -0.3009 -1.2558
  659MOL0     C88879   1.669  11.020   5.211  1.4124 -0.8964 -0.4920
  659MOL0     N88880   1.322  11.333   5.927 -0.5698 -0.4380  0.4467
  659MOL0     N88881   1.315  11.462   5.940 -0.5533 -0.1666  0.4215
  659MOL0     C88882   1.394  11.400   5.060 -0.1971 -0.6856  0.3242
  659MOL0     C88883   1.356  11.267   5.039 -0.9072  1.6849 -0.2466
  659MOL0     C88884   1.095  10.902   4.959  0.2180  0.4518 -0.3891
  659MOL0     C88885   1.189  10.867   4.857 -0.1733  0.3495 -0.1604
  659MOL0     C88886   1.195  10.723   4.828  0.0524 -0.5934  0.7038
  659MOL0     C88887   1.099  10.632   4.865  0.6712 -0.7409  0.6113
  659MOL0     O88888   1.096  10.505   4.816  0.3205  0.7462  0.8477
  659MOL0     C88889   1.039  10.491   4.682  0.6140  0.1155  0.1503
  659MOL0     C88890   1.090  10.367   4.610  0.0952  1.0617  0.5261
  659MOL0     C88891   1.231  10.378   4.573 -1.2888 -0.1210  0.5338
  659MOL0     C88892   1.293  10.251   4.513  0.3316  0.0736 -0.4676
  659MOL0     C88893   1.222  10.200   4.398  0.9760  0.1862 -1.3340
  659MOL0     C88894   1.161  10.169   4.300  0.8784  0.3739  0.9917
  659MOL0     C88895   1.002  10.679   4.949  0.5808 -0.4631 -0.8152
  659MOL0     C88896   0.996  10.810   4.998  0.0539  0.6364  0.7819
  659MOL0     C88897   0.869  10.837   5.075 -0.5895  0.6594  0.0432
  659MOL0     H88898   1.030  11.310   4.978 -1.1567  1.3167  1.8122
  659MOL0     H88899   1.097  11.556   5.025 -1.0361  0.3669  3.7680
  659MOL0     H88900   1.480  11.596   5.258 -1.3581 -1.5831  0.4289
  659MOL0     H88901   1.542  11.621   5.099  0.7574  2.8968  0.2803
  659MOL0     H88902   1.379  11.855   5.141 -0.5599  0.3646  1.3387
  659MOL0     H88903   1.560  11.843   5.132  1.4420 -0.2680  1.4057
  659MOL0     H88904   1.483  11.969   5.332  2.2037  0.3062  0.3074
  659MOL0     H88905   1.572  11.825   5.377  0.0608 -3.2486 -0.1881
  659MOL0     H88906   1.269  11.877   5.391  1.6736  0.5098 -2.7771
  659MOL0     H88907   1.343  11.717   5.420 -1.3110  0.1096 -1.9522
  659MOL0     H88908   1.480  11.826   5.604 -0.1728 -0.5778  1.1756
  659MOL0     H88909   1.385  11.981   5.570  2.6303  0.1070  2.3562
  659MOL0     H88910   1.290  11.921   5.758  0.5963  4.0534 -3.6473
  659MOL0     H88911   1.186  11.841   5.626 -0.8400  1.0773  1.8747
  659MOL0     H88912   1.408  11.710   5.789  0.3554 -2.0302  1.1394
  659MOL0     H88913   1.313  11.643   5.653 -0.1464  2.5523 -0.9965
  659MOL0     H88914   1.218  11.731   5.935  1.7798  0.8414  0.2252
  659MOL0     H88915   1.103  11.683   5.809 -0.1986 -1.2055  2.3149
  659MOL0     H88916   1.117  11.423   5.691  0.2384 -1.6210 -0.6395
  659MOL0     H88917   1.339  11.113   5.787 -0.0571  0.9833  2.9412
  659MOL0     H88918   1.158  11.095   5.800 -1.7429  0.5217 -2.4594
  659MOL0     H88919   1.181  11.048   5.588 -1.0895  1.3521 -2.2352
  659MOL0     H88920   1.145  11.212   5.569 -2.0184 -4.2928 -3.5160
  659MOL0     H88921   1.436  11.148   5.597 -0.8289 -0.7730  1.1563
  659MOL0     H88922   1.346  11.291   5.532 -1.5212 -0.2122  1.1549
  659MOL0     H88923   1.297  11.146   5.316  1.1178  0.2022 -0.2365
  659MOL0     H88924   1.362  11.014   5.422  1.0434  0.3856  1.3046
  659MOL0     H88925   1.327  10.980   5.179 -0.4662 -0.3545  0.9292
  659MOL0     H88926   1.392  10.829   5.017  0.7990  1.5425 -0.3958
  659MOL0     H88927   1.649  10.660   4.683  0.6891  0.2926 -2.2371
  659MOL0     H88928   1.728  10.484   4.529  0.5126  0.8756 -0.7971
  659MOL0     H88929   1.766  10.225   4.545  0.8060 -2.6256  1.9715
  659MOL0     H88930   1.845  10.306   4.411 -0.8324  1.6046  2.0197
  659MOL0     H88931   2.022  10.114   4.417  0.8696 -0.5380  1.2829
  659MOL0     H88932   1.925  10.049   4.549 -0.8901 -0.8932 -0.8175
  659MOL0     H88933   1.862   9.932   4.347 -0.5985 -1.6590  3.5559
  659MOL0     H88934   1.738  10.015   4.442 -1.1152 -0.4680 -0.8965
  659MOL0     H88935   1.884  10.119   4.202  0.5914  3.5762  2.5930
  659MOL0     H88936   1.738  10.188   4.262  1.2943  0.5389  2.4454
  659MOL0     H88937   1.718  10.069   4.050 -1.2302 -0.0572 -0.4201
  659MOL0     H88938   1.611  10.004   4.176 -0.3884 -2.1647  0.5932
  659MOL0     H88939   1.850   9.855   4.068 -0.2386  1.5032 -1.7473
  659MOL0     H88940   1.757   9.804   4.211  1.5572 -1.7106 -0.6186
  659MOL0     H88941   1.665   9.812   3.922  1.2929 -2.7136 -0.1645
  659MOL0     H88942   1.553   9.843   4.046  0.0136 -1.2492 -0.4086
  659MOL0     H88943   1.647   9.618   4.152  0.1087  2.6612  0.5767
  659MOL0     H88944   1.572   9.603   3.989  2.6838 -1.2819 -2.1615
  659MOL0     H88945   2.085  10.442   4.772 -0.5115  1.9329  0.8855
  659MOL0     H88946   2.000  10.606   4.919 -0.4716  2.4666 -0.6275
  659MOL0     H88947   1.809  10.899   5.094 -0.6004 -1.6531 -1.5827
  659MOL0     H88948   1.745  11.084   5.254  1.1334 -0.6109 -0.4184
  659MOL0     H88949   1.501  11.421   5.057  0.1057 -1.9644  1.5018
  659MOL0     H88950   1.428  11.186   5.025 -3.4372 -0.7426 -0.0829
  659MOL0     H88951   1.257  10.941   4.816 -1.7440  1.0763 -1.5352
  659MOL0     H88952   1.278  10.693   4.765 -1.6336 -0.7328 -1.5730
  659MOL0     H88953   1.081  10.567   4.616  3.0536  0.9488  2.4881
  659MOL0     H88954   0.931  10.505   4.681  0.4391 -1.0777  0.6760
  659MOL0     H88955   1.022  10.340   4.528  0.5288  4.8501 -1.3288
  659MOL0     H88956   1.077  10.283   4.678 -2.6757  2.3214  1.7274
  659MOL0     H88957   1.277  10.392   4.672 -0.1416  1.2221 -0.1575
  659MOL0     H88958   1.253  10.468   4.517 -3.3362 -0.3826 -0.8082
  659MOL0     H88959   1.391  10.280   4.473  2.4225 -4.0343  1.0457
  659MOL0     H88960   1.302  10.172   4.589 -1.6276  0.3628  0.0978
  659MOL0     H88961   1.105  10.143   4.213 -1.0830  2.4397  1.5714
  659MOL0     H88962   0.941  10.601   4.994  1.8168  0.3773  2.5860
  659MOL0     H88963   0.894  10.831   5.182  3.9795  1.5108 -0.7805
  659MOL0     H88964   0.834  10.939   5.064  0.2194  1.1579  1.6919
  659MOL0     H88965   0.796  10.759   5.051 -0.4406 -0.0152  1.6458
  660MOL0     O88966   8.146   2.450   3.312  0.3654  0.8026 -0.5339
  660MOL0     C88967   8.058   2.387   3.245 -0.1856 -0.1141 -0.2599
  660MOL0     O88968   8.025   2.411   3.116  0.3326  0.4217 -0.2900
  660MOL0     C88969   8.109   2.493   3.044 -0.4223 -0.2912 -0.5008
  660MOL0     C88970   8.131   2.629   3.070  0.0592  0.2461 -0.7622
  660MOL0     C88971   8.193   2.712   2.975 -0.2137 -0.2949 -0.0568
  660MOL0     C88972   8.239   2.657   2.852 -0.2812  0.1915  0.1596
  660MOL0     O88973   8.316   2.717   2.755 -0.1143 -0.8288 -1.0183
  660MOL0     C88974   8.339   2.855   2.777  0.5580 -0.2339 -0.4670
  660MOL0     C88975   8.416   2.929   2.667  0.4615  0.8419 -0.2788
  660MOL0     C88976   8.503   3.038   2.718  0.9881  0.4147 -0.1545
  660MOL0     C88977   8.584   3.088   2.605  0.4043  0.5169 -0.3615
  660MOL0     C88978   8.671   3.198   2.651 -0.0254 -0.3580 -1.2137
  660MOL0     C88979   8.760   3.244   2.545  0.4900  0.3607  0.2692
  660MOL0     C88980   8.830   3.371   2.601 -0.1437 -0.1237 -0.6225
  660MOL0     C88981   8.921   3.437   2.502  0.5755  0.4472  1.5391
  660MOL0     N88982   8.956   3.576   2.524 -0.3967 -0.2258  0.0847
  660MOL0     C88983   9.041   3.609   2.621 -0.5987  0.0144 -0.4550
  660MOL0     C88984   9.041   3.747   2.629  0.0829 -0.0443 -0.1217
  660MOL0     C88985   9.098   3.847   2.729 -0.2759 -0.7227  0.1276
  660MOL0     C88986   9.228   3.893   2.693  0.3775  0.1711  0.6064
  660MOL0     C88987   9.337   3.789   2.691 -0.0426 -0.1981  0.1902
  660MOL0     C88988   9.476   3.830   2.699 -0.2118 -0.6623  0.2033
  660MOL0     O88989   9.496   3.936   2.601 -0.2651 -0.0979  0.5873
  660MOL0     C88990   9.547   3.882   2.481  0.0921 -0.3066  0.3299
  660MOL0     C88991   9.692   3.865   2.465  0.3797 -0.3142 -1.0718
  660MOL0     C88992   9.741   3.830   2.343 -0.1589  0.2058  0.1626
  660MOL0     C88993   9.652   3.801   2.235 -0.0803 -0.3118  0.5027
  660MOL0     C88994   9.698   3.756   2.091  0.0954 -0.1309  0.1884
  660MOL0     O88995   9.829   3.745   2.073  0.3691  0.2138 -0.5476
  660MOL0     C88996   9.870   3.731   1.948 -0.0804  0.1676 -0.8312
  660MOL0     C88997   9.850   3.611   1.886 -0.1076  0.4874 -0.1831
  660MOL0     C88998   9.886   3.597   1.751 -0.3446 -0.3494  0.1564
  660MOL0     C88999   9.937   3.697   1.678  0.5557  0.0738 -0.1475
  660MOL0     O89000   9.952   3.656   1.554 -1.1140  0.8097  0.0978
  660MOL0     C89001  10.009   3.744   1.451 -0.2710  0.1713  0.0929
  660MOL0     C89002  10.161   3.778   1.480  0.3978  0.0652 -1.1257
  660MOL0     C89003  10.252   3.654   1.503 -0.2012  0.3562  0.0080
  660MOL0     C89004  10.356   3.683   1.617 -0.4006 -0.2912  0.1086
  660MOL0     C89005  10.464   3.584   1.617  0.6360  0.4619 -0.7289
  660MOL0     C89006  10.549   3.607   1.746 -0.2516  0.0343  0.3117
  660MOL0     C89007  10.486   3.569   1.877  0.8252  0.1387 -0.0965
  660MOL0     C89008  10.593   3.525   1.989  0.4389  0.6571  0.6161
  660MOL0    Cl89009  10.502   3.499   2.147 -0.2988 -0.1419 -0.0084
  660MOL0     C89010   9.972   3.815   1.750 -1.0373  0.9160 -0.0566
  660MOL0     C89011   9.942   3.832   1.885  0.8620  0.1838  0.5271
  660MOL0     O89012   9.609   3.734   2.006 -0.7712 -0.5617 -0.8445
  660MOL0     C89013   9.517   3.826   2.252 -0.1470  0.0940 -0.1042
  660MOL0     C89014   9.461   3.865   2.373  0.1482  0.7141 -0.2995
  660MOL0     N89015   8.982   3.793   2.516 -0.2903  0.5944  0.4741
  660MOL0     N89016   8.937   3.691   2.449 -0.0590  0.4252  0.3847
  660MOL0     C89017   8.227   2.521   2.834  0.1090  0.6365 -0.2593
  660MOL0     C89018   8.155   2.444   2.928  0.0962  0.7234  0.2006
  660MOL0     C89019   7.981   2.277   3.317  0.4141 -0.5132  1.0248
  660MOL0     C89020   7.855   2.239   3.245 -0.4654  0.4571 -0.3569
  660MOL0     C89021   7.782   2.132   3.296  0.1470 -0.3872 -0.9552
  660MOL0     C89022   7.807   2.073   3.425  0.2124 -0.9779 -0.2851
  660MOL0     O89023   7.720   1.976   3.466 -0.4335 -0.5686 -0.1662
  660MOL0     C89024   7.762   1.886   3.576 -0.2245 -0.7265 -0.6305
  660MOL0     C89025   7.635   1.806   3.615 -0.0546  0.6186  0.1906
  660MOL0     C89026   7.520   1.894   3.659  0.1619 -0.2633 -0.0054
  660MOL0     C89027   7.390   1.809   3.677 -0.1700  0.1180  0.7843
  660MOL0     C89028   7.298   1.877   3.772  0.4880  0.0739  0.0418
  660MOL0     C89029   7.224   1.928   3.860 -0.1797  0.5476 -1.2416
  660MOL0     C89030   7.925   2.110   3.486 -0.8324  0.2314 -0.5316
  660MOL0     C89031   8.015   2.212   3.434 -0.7227 -0.5434  0.2440
  660MOL0     C89032   8.147   2.245   3.501 -0.9402  1.2545  0.0762
  660MOL0     H89033   8.083   2.676   3.155 -0.6982 -0.4058 -0.8165
  660MOL0     H89034   8.200   2.818   2.998  0.3496 -0.4336  0.4356
  660MOL0     H89035   8.249   2.911   2.804  0.5004 -1.6985  2.8931
  660MOL0     H89036   8.402   2.847   2.867  0.1939 -1.0693 -0.2805
  660MOL0     H89037   8.349   2.982   2.598 -2.0361  0.7235  1.9173
  660MOL0     H89038   8.468   2.851   2.611 -1.6246 -1.3363  0.6602
  660MOL0     H89039   8.563   3.004   2.803  0.4859 -1.2978 -0.4418
  660MOL0     H89040   8.450   3.130   2.745  3.0899  1.1843  1.7152
  660MOL0     H89041   8.652   3.006   2.578 -0.6707 -0.6561  0.3563
  660MOL0     H89042   8.532   3.126   2.516  1.8995  0.9356 -1.0919
  660MOL0     H89043   8.609   3.284   2.677  1.6261  0.4400  0.3492
  660MOL0     H89044   8.725   3.163   2.740 -3.0595  0.1192  0.9657
  660MOL0     H89045   8.838   3.171   2.521 -1.7607 -1.8482 -0.8173
  660MOL0     H89046   8.709   3.272   2.452  0.1244  3.0287  1.1935
  660MOL0     H89047   8.883   3.339   2.691 -0.7990  2.6703  0.8594
  660MOL0     H89048   8.749   3.440   2.628  1.1484 -0.4778  5.5124
  660MOL0     H89049   9.015   3.381   2.498  1.2632  1.6346 -1.1214
  660MOL0     H89050   8.870   3.435   2.405  1.9037  1.4769  0.7774
  660MOL0     H89051   9.097   3.549   2.692 -0.5179  1.4456  0.7343
  660MOL0     H89052   9.044   3.942   2.727  2.5556  1.0502  1.1216
  660MOL0     H89053   9.100   3.811   2.832  1.2522  2.5541  1.3923
  660MOL0     H89054   9.228   3.927   2.589 -0.5246  1.9361  1.1565
  660MOL0     H89055   9.256   3.976   2.758 -0.6687 -0.0128  1.3127
  660MOL0     H89056   9.335   3.729   2.599  2.1834  0.7428 -0.5599
  660MOL0     H89057   9.319   3.720   2.773 -1.1162 -0.8316 -0.5535
  660MOL0     H89058   9.542   3.743   2.693  0.0152 -0.4128 -3.3251
  660MOL0     H89059   9.492   3.883   2.793  2.5267  0.1813 -0.6176
  660MOL0     H89060   9.763   3.890   2.544  2.2683  0.6939 -2.9970
  660MOL0     H89061   9.848   3.837   2.326 -0.5460  0.5733 -2.4884
  660MOL0     H89062   9.797   3.529   1.935  0.1039  0.3769 -0.1387
  660MOL0     H89063   9.868   3.503   1.700 -0.3812 -1.9733  3.0011
  660MOL0     H89064  10.007   3.692   1.355  2.3726 -1.6334  0.8993
  660MOL0     H89065   9.941   3.829   1.450 -1.4833 -0.6634 -3.9947
  660MOL0     H89066  10.189   3.839   1.394 -1.0281 -0.0538 -1.7017
  660MOL0     H89067  10.167   3.858   1.554 -1.6189  0.5576 -1.4401
  660MOL0     H89068  10.196   3.560   1.515 -0.2162  0.2065 -1.1241
  660MOL0     H89069  10.318   3.639   1.417  1.2405  0.8283  1.0036
  660MOL0     H89070  10.300   3.681   1.711 -1.3005 -0.2253 -0.4154
  660MOL0     H89071  10.395   3.781   1.587  0.7283  0.3223  3.1828
  660MOL0     H89072  10.540   3.599   1.539 -1.5908  1.2844 -2.8502
  660MOL0     H89073  10.413   3.488   1.602 -0.3801  0.6251  1.2720
  660MOL0     H89074  10.637   3.542   1.744 -0.7234 -0.6117  0.1040
  660MOL0     H89075  10.583   3.711   1.744  1.1886 -0.3613 -3.4302
  660MOL0     H89076  10.410   3.491   1.865  0.9087 -0.8623  4.2011
  660MOL0     H89077  10.420   3.640   1.929 -2.5119 -1.9707 -1.1085
  660MOL0     H89078  10.639   3.431   1.957 -0.1046  0.3893  0.5974
  660MOL0     H89079  10.654   3.612   2.017  0.7679  1.3633 -2.0222
  660MOL0     H89080  10.018   3.902   1.704 -1.7964  0.3151 -2.0626
  660MOL0     H89081   9.980   3.921   1.934 -0.4523  0.6269  0.7982
  660MOL0     H89082   9.432   3.804   2.187 -1.1790  0.8238  0.9588
  660MOL0     H89083   9.353   3.871   2.384  0.0003 -1.5865  0.0288
  660MOL0     H89084   8.254   2.472   2.742  1.0189  1.9843 -0.7362
  660MOL0     H89085   8.145   2.339   2.904 -0.9436  1.2963 -2.1011
  660MOL0     H89086   7.828   2.280   3.148 -0.4949 -1.2815 -1.1183
  660MOL0     H89087   7.697   2.099   3.238  1.9385 -2.5476 -2.5201
  660MOL0     H89088   7.792   1.938   3.668  0.1687  1.4624 -1.9305
  660MOL0     H89089   7.840   1.815   3.545 -0.8729 -2.6962  1.9143
  660MOL0     H89090   7.659   1.728   3.687  1.7592 -1.0772 -2.0912
  660MOL0     H89091   7.588   1.748   3.535 -2.0950  0.1480  1.6619
  660MOL0     H89092   7.504   1.973   3.585  0.3693 -1.9872 -1.9898
  660MOL0     H89093   7.553   1.941   3.752 -0.4461  0.0130  0.0751
  660MOL0     H89094   7.338   1.774   3.588  0.9732  0.7294 -0.1512
  660MOL0     H89095   7.428   1.720   3.727  0.8514 -1.5928 -2.7076
  660MOL0     H89096   7.181   1.972   3.947  1.2399  4.0049 -2.1317
  660MOL0     H89097   7.944   2.069   3.585 -0.8573  1.9173  0.2080
  660MOL0     H89098   8.151   2.351   3.527 -1.4241  0.9298  1.5492
  660MOL0     H89099   8.164   2.198   3.598 -3.0217 -0.5402 -0.3509
  660MOL0     H89100   8.229   2.230   3.431  0.0156 -0.0724  1.4081
  661MOL0     O89101   1.030   1.626   2.085 -0.4868  0.5374 -0.3273
  661MOL0     C89102   1.071   1.617   2.202  0.1558  0.3005  0.2583
  661MOL0     O89103   1.002   1.570   2.302 -0.5707  0.0341  0.2518
  661MOL0     C89104   0.888   1.489   2.278  0.2003  0.3495  0.3275
  661MOL0     C89105   0.780   1.517   2.360  0.1288  0.0447 -0.1920
  661MOL0     C89106   0.675   1.430   2.370  0.2157  0.7358  0.8494
  661MOL0     C89107   0.672   1.303   2.298  0.1455  0.1070  0.3797
  661MOL0     O89108   0.561   1.216   2.305 -0.6207 -0.7003  0.9228
  661MOL0     C89109   0.496   1.203   2.433  0.5943 -0.7144  0.8251
  661MOL0     C89110   0.383   1.102   2.425  0.9059 -0.0985  0.3615
  661MOL0     C89111   0.300   1.080   2.293  1.0462  0.3959  0.4724
  661MOL0     C89112   0.180   0.989   2.298  0.3585 -0.3982  0.2147
  661MOL0     C89113   0.109   0.978   2.165  1.1394 -0.0903  0.0550
  661MOL0     C89114  -0.027   0.905   2.165  0.3280  0.5453 -0.5438
  661MOL0     C89115  -0.012   0.750   2.166  0.0807 -0.6628 -0.5423
  661MOL0     C89116   0.058   0.688   2.053 -0.4157  0.4701 -1.3762
  661MOL0     N89117  -0.015   0.726   1.931 -0.3356  0.1772 -0.4703
  661MOL0     C89118   0.009   0.824   1.837  0.5182 -0.9214  0.0912
  661MOL0     C89119  -0.091   0.817   1.745  0.0104  0.3082  0.2980
  661MOL0     C89120  -0.123   0.918   1.641 -0.6180 -0.2129  0.8995
  661MOL0     C89121  -0.266   0.928   1.600  0.3555  0.3840  0.6751
  661MOL0     C89122  -0.344   0.972   1.719  0.0214 -0.6920 -0.4609
  661MOL0     C89123  -0.329   1.124   1.752 -0.4885  0.5377  0.2635
  661MOL0     O89124  -0.220   1.150   1.841 -0.4397 -0.1368 -0.1970
  661MOL0     C89125  -0.223   1.162   1.984  0.5170 -0.1676 -0.1772
  661MOL0     C89126  -0.115   1.223   2.045  0.7938 -0.0760  0.2768
  661MOL0     C89127  -0.120   1.253   2.191 -0.9412  0.1593 -0.8369
  661MOL0     C89128  -0.216   1.199   2.275  0.4996  0.5461 -0.6692
  661MOL0     C89129  -0.210   1.197   2.433 -0.4655 -0.4391  0.4454
  661MOL0     O89130  -0.339   1.186   2.490  0.2987  0.3970  0.3409
  661MOL0     C89131  -0.345   1.133   2.617 -0.2405  0.2675 -0.6506
  661MOL0     C89132  -0.395   1.213   2.716  0.5031  0.0642 -0.3881
  661MOL0     C89133  -0.420   1.160   2.848 -1.0042 -0.1282  0.6115
  661MOL0     C89134  -0.367   1.039   2.876 -0.3463  0.6629 -0.7871
  661MOL0     O89135  -0.371   0.986   3.001  0.3882  0.4768 -0.4449
  661MOL0     C89136  -0.392   1.071   3.110 -0.5609 -0.1728 -0.8688
  661MOL0     C89137  -0.387   1.002   3.244  0.1186  0.0284 -0.0936
  661MOL0     C89138  -0.508   0.906   3.258 -0.0414  0.5269  0.0801
  661MOL0     C89139  -0.496   0.797   3.364  0.1886 -0.2927 -0.0215
  661MOL0     C89140  -0.366   0.716   3.341  0.1853 -0.1503  0.3598
  661MOL0     C89141  -0.357   0.642   3.203 -0.1106  0.5507 -0.5797
  661MOL0     C89142  -0.461   0.530   3.170  0.7535  0.2943  0.8156
  661MOL0     C89143  -0.418   0.469   3.038 -0.6232  1.2311 -0.6471
  661MOL0    Cl89144  -0.462   0.581   2.906  0.1375 -0.3579  0.2862
  661MOL0     C89145  -0.306   0.957   2.779 -0.1430  0.1179 -0.3683
  661MOL0     C89146  -0.289   1.005   2.650 -0.1783 -0.1562  0.1519
  661MOL0     O89147  -0.102   1.212   2.499  0.0687  0.3207  0.7482
  661MOL0     C89148  -0.320   1.134   2.211  0.4879 -0.1904 -0.3174
  661MOL0     C89149  -0.331   1.126   2.074  0.6662 -0.1252  0.7577
  661MOL0     N89150  -0.164   0.703   1.775  0.4029 -0.2527 -0.4059
  661MOL0     N89151  -0.112   0.648   1.879  1.0743 -0.3072  0.6857
  661MOL0     C89152   0.782   1.284   2.207 -0.0088  0.6126  1.0586
  661MOL0     C89153   0.890   1.374   2.193 -0.9350 -0.1706  0.0148
  661MOL0     C89154   1.199   1.680   2.240 -0.1332 -0.8043 -0.0003
  661MOL0     C89155   1.289   1.602   2.312 -0.7596 -0.1134  0.5656
  661MOL0     C89156   1.414   1.660   2.355  0.3741  0.3539 -0.4324
  661MOL0     C89157   1.449   1.786   2.330 -0.6972 -0.3749  0.5371
  661MOL0     O89158   1.572   1.846   2.357  0.5481  0.0960  0.6325
  661MOL0     C89159   1.650   1.806   2.472 -1.1148  0.4347  0.4542
  661MOL0     C89160   1.786   1.755   2.426  0.8692 -1.1501  0.4508
  661MOL0     C89161   1.867   1.686   2.548 -0.2178  0.2794 -0.2113
  661MOL0     C89162   1.805   1.559   2.599 -0.0499  0.4901  0.7257
  661MOL0     C89163   1.799   1.453   2.493 -0.1873  0.7678  0.1470
  661MOL0     C89164   1.816   1.365   2.414 -0.2907 -0.2806  0.8253
  661MOL0     C89165   1.356   1.869   2.271  0.0228 -0.3169 -0.4424
  661MOL0     C89166   1.228   1.821   2.235  0.9505 -0.9211  0.1149
  661MOL0     C89167   1.136   1.914   2.154 -0.6357  0.4274  0.4111
  661MOL0     H89168   0.777   1.598   2.432  1.3502  1.3835 -1.6041
  661MOL0     H89169   0.589   1.458   2.430 -0.5573  0.7476 -0.2153
  661MOL0     H89170   0.566   1.158   2.505 -0.3727 -2.4166  0.7615
  661MOL0     H89171   0.446   1.294   2.467  2.3053  0.6045 -0.0958
  661MOL0     H89172   0.310   1.132   2.501 -0.7239  2.0258 -1.8794
  661MOL0     H89173   0.423   1.005   2.456 -0.7825 -1.3900 -1.2679
  661MOL0     H89174   0.367   1.044   2.214  1.0049  2.4244 -0.5550
  661MOL0     H89175   0.261   1.173   2.252  1.2931  0.8487  1.2430
  661MOL0     H89176   0.220   0.887   2.311  1.0089 -0.1022  0.5890
  661MOL0     H89177   0.119   1.016   2.385  0.4596  0.7444 -0.0637
  661MOL0     H89178   0.079   1.077   2.129  0.6111 -0.6610 -1.1310
  661MOL0     H89179   0.181   0.933   2.097  1.6337 -1.7874  1.6109
  661MOL0     H89180  -0.084   0.931   2.255 -3.4100 -1.8164 -1.9632
  661MOL0     H89181  -0.067   0.949   2.073  3.1430  2.0647 -1.1440
  661MOL0     H89182  -0.110   0.702   2.175  1.8009 -4.2701  0.7050
  661MOL0     H89183   0.038   0.731   2.262 -1.2118 -0.8927  0.1127
  661MOL0     H89184   0.160   0.726   2.045  0.0484  0.6396  3.0102
  661MOL0     H89185   0.063   0.579   2.058  1.1092  0.4169 -2.9622
  661MOL0     H89186   0.091   0.894   1.833 -0.6625  0.6258  1.4917
  661MOL0     H89187  -0.076   1.015   1.660  1.7189 -0.6595 -1.8457
  661MOL0     H89188  -0.067   0.898   1.549  1.1855  4.7261  0.6140
  661MOL0     H89189  -0.273   0.996   1.514  2.6058 -0.6223 -0.3830
  661MOL0     H89190  -0.306   0.831   1.569  1.1514  0.4612 -0.6946
  661MOL0     H89191  -0.326   0.907   1.805  0.5706 -2.5172 -1.8896
  661MOL0     H89192  -0.450   0.961   1.696 -0.3545  0.1028  0.7566
  661MOL0     H89193  -0.417   1.153   1.810  0.2046  2.7568  0.3206
  661MOL0     H89194  -0.332   1.194   1.667  0.1973  2.7546  1.9741
  661MOL0     H89195  -0.030   1.251   1.983 -1.1520 -2.2631 -3.7693
  661MOL0     H89196  -0.042   1.306   2.244  0.7616 -2.9577  0.0280
  661MOL0     H89197  -0.423   1.316   2.694 -3.5281 -0.8491 -0.3461
  661MOL0     H89198  -0.472   1.219   2.923 -0.7964 -1.0667  1.5070
  661MOL0     H89199  -0.320   1.154   3.122 -1.4195  0.2798  1.8080
  661MOL0     H89200  -0.489   1.122   3.108  1.6500  4.6825  0.2306
  661MOL0     H89201  -0.293   0.947   3.239 -0.4032 -0.8205 -1.1673
  661MOL0     H89202  -0.379   1.082   3.317 -1.6721  1.3356 -1.2293
  661MOL0     H89203  -0.596   0.969   3.279 -0.9456 -1.5527  3.1831
  661MOL0     H89204  -0.551   0.864   3.167 -0.5548 -3.1562  1.8450
  661MOL0     H89205  -0.574   0.721   3.347 -0.1253 -0.5867  2.4489
  661MOL0     H89206  -0.488   0.829   3.468  0.9974 -0.0953 -0.1389
  661MOL0     H89207  -0.359   0.638   3.418  1.0799  0.5050  0.9593
  661MOL0     H89208  -0.275   0.774   3.361  0.2669 -1.6097  5.7416
  661MOL0     H89209  -0.357   0.720   3.126 -1.8154 -0.8030 -2.0708
  661MOL0     H89210  -0.259   0.595   3.209 -0.8813 -1.1973  5.9835
  661MOL0     H89211  -0.565   0.563   3.165 -0.7203 -3.8088 -3.9116
  661MOL0     H89212  -0.450   0.448   3.242  0.7646  0.2633  0.7783
  661MOL0     H89213  -0.310   0.457   3.036 -0.8338 -1.1718 -2.6534
  661MOL0     H89214  -0.468   0.372   3.026 -0.0783  0.5999  1.6518
  661MOL0     H89215  -0.267   0.859   2.804 -2.9728 -0.3668  2.9143
  661MOL0     H89216  -0.251   0.940   2.571 -0.9223 -2.1715  1.3657
  661MOL0     H89217  -0.398   1.107   2.281 -0.3460  1.7849 -0.4380
  661MOL0     H89218  -0.422   1.082   2.036  0.1749 -1.7828  3.5773
  661MOL0     H89219   0.777   1.196   2.143  0.4198  0.8908  0.6376
  661MOL0     H89220   0.972   1.343   2.128 -0.3052 -1.5537  1.3875
  661MOL0     H89221   1.268   1.498   2.333  1.2223 -0.5928  0.3963
  661MOL0     H89222   1.480   1.601   2.418  0.8550  1.2302 -0.0940
  661MOL0     H89223   1.602   1.726   2.529  1.0121 -0.8201  0.5700
  661MOL0     H89224   1.657   1.901   2.526 -0.7047  1.8511 -1.9340
  661MOL0     H89225   1.848   1.829   2.373 -0.6106  0.8570  1.4193
  661MOL0     H89226   1.774   1.677   2.350  0.2394 -0.6681  0.0423
  661MOL0     H89227   1.870   1.762   2.627  0.6408  1.4822 -1.3561
  661MOL0     H89228   1.970   1.666   2.517 -1.1507 -0.8320 -2.8959
  661MOL0     H89229   1.863   1.521   2.684 -1.2409 -1.7329  0.6225
  661MOL0     H89230   1.701   1.574   2.628  0.2460  0.4272  1.8835
  661MOL0     H89231   1.811   1.290   2.338  1.5250  0.0016  0.3598
  661MOL0     H89232   1.380   1.972   2.248 -0.7301 -0.0131  0.1051
  661MOL0     H89233   1.176   1.926   2.052  1.1001  1.4114  1.1636
  661MOL0     H89234   1.032   1.881   2.144  0.1466 -2.2424  0.1471
  661MOL0     H89235   1.133   2.015   2.196  1.6263  1.0797 -0.7844
  662MOL0     O89236   8.614   0.988   9.371  1.0461  0.6775  0.1261
  662MOL0     C89237   8.666   1.049   9.281 -0.5951 -0.7499  0.6271
  662MOL0     O89238   8.597   1.126   9.189 -0.4935  0.0515  0.2998
  662MOL0     C89239   8.470   1.173   9.217  0.6015  0.2034 -0.3147
  662MOL0     C89240   8.357   1.085   9.237  0.5053 -1.7349  0.4946
  662MOL0     C89241   8.237   1.147   9.293 -1.1062  0.4922  0.7732
  662MOL0     C89242   8.227   1.285   9.312 -0.0650 -0.0118  0.0537
  662MOL0     O89243   8.113   1.352   9.363 -0.2424  0.4912 -0.1145
  662MOL0     C89244   8.021   1.272   9.436  1.2002  0.1039 -0.8931
  662MOL0     C89245   7.924   1.342   9.535 -0.3617 -0.5150  0.5270
  662MOL0     C89246   7.815   1.414   9.457 -0.6633  0.1598 -0.4628
  662MOL0     C89247   7.719   1.487   9.547  0.7513 -0.4430  1.4402
  662MOL0     C89248   7.586   1.513   9.493  0.4484 -0.7687 -0.4415
  662MOL0     C89249   7.502   1.621   9.562 -0.7187 -0.0045  0.0870
  662MOL0     C89250   7.358   1.647   9.503  0.0062 -0.3093  0.2218
  662MOL0     C89251   7.264   1.753   9.564 -0.3644 -0.7279  0.1327
  662MOL0     N89252   7.248   1.731   9.707 -0.4835  0.4745 -0.6908
  662MOL0     C89253   7.281   1.814   9.807 -0.7678 -0.1798 -0.3963
  662MOL0     C89254   7.227   1.769   9.919  0.0108 -0.1525 -0.1477
  662MOL0     C89255   7.244   1.841  10.050 -0.3856  0.5608  1.3611
  662MOL0     C89256   7.116   1.830  10.134 -0.3083  0.3331 -0.0881
  662MOL0     C89257   7.153   1.861  10.281  0.8966  0.9728 -0.0819
  662MOL0     C89258   7.189   1.727  10.354  0.1681 -0.7747  0.2060
  662MOL0     O89259   7.179   1.749  10.491 -0.2256  0.9055  0.7820
  662MOL0     C89260   7.251   1.850  10.550 -0.2702  0.4168  0.1937
  662MOL0     C89261   7.375   1.895  10.511 -0.0029  0.5820  0.2128
  662MOL0     C89262   7.437   1.999  10.583 -0.0959 -0.1709  0.7363
  662MOL0     C89263   7.386   2.049  10.704  1.2596 -0.3286  0.9291
  662MOL0     C89264   7.447   2.163  10.783 -0.4684  0.7087  0.5296
  662MOL0     O89265   7.397   2.197  10.905 -0.0358 -0.4215  0.0290
  662MOL0     C89266   7.402   2.326  10.963  0.1829  0.1335 -0.0667
  662MOL0     C89267   7.349   2.341  11.087  0.7662 -0.0017 -0.2544
  662MOL0     C89268   7.345   2.472  11.138  0.4173 -0.2740 -0.5237
  662MOL0     C89269   7.376   2.590  11.063 -0.3149 -0.5718  0.1508
  662MOL0     O89270   7.377   2.707  11.136  0.4698 -1.0152  0.5338
  662MOL0     C89271   7.423   2.823  11.066  0.6070 -0.8257  0.0071
  662MOL0     C89272   7.434   2.940  11.162 -0.1824 -0.0933  0.1509
  662MOL0     C89273   7.483   3.066  11.088  1.1409  0.1052 -0.5718
  662MOL0     C89274   7.499   3.180  11.195  0.0290  0.8486  0.0741
  662MOL0     C89275   7.584   3.299  11.152 -0.6271  0.5498  0.0744
  662MOL0     C89276   7.513   3.360  11.023 -0.1811 -0.2999  0.3863
  662MOL0     C89277   7.578   3.481  10.973  0.5446 -0.1662  0.0467
  662MOL0     C89278   7.550   3.606  11.060 -0.2312 -0.4496  0.2533
  662MOL0    Cl89279   7.531   3.742  10.953  0.3509  0.0374  0.3557
  662MOL0     C89280   7.409   2.576  10.931  0.0674 -0.8207 -0.6823
  662MOL0     C89281   7.422   2.446  10.885  0.2158 -0.4644  0.0396
  662MOL0     O89282   7.544   2.221  10.733  0.5416 -0.1106 -0.2632
  662MOL0     C89283   7.255   1.999  10.743 -0.5370 -0.4037 -0.4517
  662MOL0     C89284   7.194   1.899  10.664  0.0833 -0.5320 -0.2650
  662MOL0     N89285   7.160   1.653   9.892 -0.5060  0.6146  0.7069
  662MOL0     N89286   7.168   1.636   9.766 -0.0865 -0.9157 -0.2073
  662MOL0     C89287   8.336   1.367   9.276  0.5843  0.3524  0.3880
  662MOL0     C89288   8.458   1.309   9.233 -0.3686 -0.2331  0.5099
  662MOL0     C89289   8.814   1.026   9.274  0.7625  0.0153 -0.2565
  662MOL0     C89290   8.875   0.936   9.361 -0.1273 -0.4146  0.6496
  662MOL0     C89291   9.012   0.909   9.348  0.0202  0.4889  0.7010
  662MOL0     C89292   9.100   0.986   9.267  0.6565 -0.3559  0.5138
  662MOL0     O89293   9.233   0.952   9.269  0.9325 -0.0595  0.7922
  662MOL0     C89294   9.327   1.052   9.229  0.3428 -0.2746  0.1153
  662MOL0     C89295   9.464   1.019   9.279  0.2643  0.5976 -0.0286
  662MOL0     C89296   9.503   0.874   9.233 -0.1061 -0.3503  0.3065
  662MOL0     C89297   9.645   0.841   9.280 -0.6132  0.1214  0.4566
  662MOL0     C89298   9.673   0.701   9.258 -0.3489  0.3059  0.5696
  662MOL0     C89299   9.701   0.584   9.227 -0.2298 -0.1446  0.0186
  662MOL0     C89300   9.042   1.090   9.193 -0.6193  0.7862  0.0643
  662MOL0     C89301   8.901   1.104   9.186  0.3971 -0.5134  0.1459
  662MOL0     C89302   8.851   1.212   9.091  0.7095 -0.4915 -0.2489
  662MOL0     H89303   8.367   0.977   9.227 -1.1990 -1.9096  0.3495
  662MOL0     H89304   8.159   1.075   9.316 -0.7159  0.3844  1.8585
  662MOL0     H89305   7.961   1.212   9.367 -0.1003  1.2744 -0.8465
  662MOL0     H89306   8.079   1.208   9.502  2.1865  2.0497  0.2226
  662MOL0     H89307   7.978   1.416   9.596  1.0202 -1.2412  0.2432
  662MOL0     H89308   7.894   1.261   9.601 -1.9370  0.8957  1.6150
  662MOL0     H89309   7.786   1.326   9.398  2.1723 -1.8173  0.8440
  662MOL0     H89310   7.863   1.490   9.394 -1.6338  0.0023 -1.4324
  662MOL0     H89311   7.697   1.440   9.644 -0.6610 -0.5491  1.0876
  662MOL0     H89312   7.767   1.577   9.587  0.0955 -0.7305  2.9654
  662MOL0     H89313   7.591   1.546   9.389 -0.5778 -1.6510 -0.7982
  662MOL0     H89314   7.532   1.418   9.501 -0.1427 -0.4729 -0.8477
  662MOL0     H89315   7.493   1.599   9.669  2.1714 -3.4384 -0.1820
  662MOL0     H89316   7.550   1.717   9.545 -0.0982 -0.4884 -0.9847
  662MOL0     H89317   7.303   1.555   9.525 -0.9804  0.9396  3.7485
  662MOL0     H89318   7.365   1.653   9.394  0.3982 -1.0449  0.1977
  662MOL0     H89319   7.287   1.854   9.528 -0.9320 -0.8426 -0.5798
  662MOL0     H89320   7.165   1.738   9.519 -1.3377 -0.6340  2.1391
  662MOL0     H89321   7.328   1.912   9.806 -3.1589  1.0574  0.4071
  662MOL0     H89322   7.330   1.792  10.098 -0.1720 -1.3099 -0.7696
  662MOL0     H89323   7.272   1.945  10.026  2.6457 -0.5616 -0.6325
  662MOL0     H89324   7.039   1.899  10.099 -1.4300  0.3019  2.1537
  662MOL0     H89325   7.071   1.731  10.125 -1.7793  0.7640  2.0386
  662MOL0     H89326   7.069   1.913  10.327  2.1104  1.3353  1.8338
  662MOL0     H89327   7.231   1.937  10.283 -0.3953  2.4479 -1.8045
  662MOL0     H89328   7.289   1.688  10.332  0.9395 -0.1124  2.2705
  662MOL0     H89329   7.120   1.647  10.323 -1.9688  0.5177  1.4397
  662MOL0     H89330   7.433   1.875  10.422  0.2412 -1.5930  0.7991
  662MOL0     H89331   7.530   2.045  10.549 -0.2806 -0.7720 -0.6579
  662MOL0     H89332   7.303   2.257  11.139  2.0105 -0.7272 -0.3001
  662MOL0     H89333   7.313   2.485  11.240 -1.0072  0.6613 -1.0512
  662MOL0     H89334   7.518   2.801  11.015  1.9535  1.3908  1.4255
  662MOL0     H89335   7.349   2.861  10.994  0.8127  0.5061  0.4808
  662MOL0     H89336   7.334   2.968  11.197  0.4441  2.7050 -0.0813
  662MOL0     H89337   7.498   2.912  11.246  0.7539 -0.5189 -0.6885
  662MOL0     H89338   7.578   3.043  11.039 -0.0165 -1.4642 -2.1863
  662MOL0     H89339   7.413   3.081  11.005  0.8351 -2.3377 -0.8509
  662MOL0     H89340   7.554   3.140  11.281 -0.7315 -1.2395 -0.3537
  662MOL0     H89341   7.397   3.214  11.216  0.5958  3.0270 -0.4822
  662MOL0     H89342   7.679   3.257  11.116 -1.1865  0.8742 -1.9337
  662MOL0     H89343   7.584   3.378  11.227  0.5850  1.7006 -1.0652
  662MOL0     H89344   7.532   3.295  10.937  3.5751  0.9627  0.0388
  662MOL0     H89345   7.405   3.365  11.036 -0.6421 -3.9628 -0.7843
  662MOL0     H89346   7.530   3.497  10.877 -1.2741 -1.6668  0.6508
  662MOL0     H89347   7.686   3.469  10.962  1.1815  3.4963  0.8931
  662MOL0     H89348   7.477   3.587  11.139 -0.5187 -0.5303 -0.0287
  662MOL0     H89349   7.647   3.622  11.108  0.3310 -0.4771 -0.8442
  662MOL0     H89350   7.435   2.665  10.875  1.3835  0.9736  2.5115
  662MOL0     H89351   7.433   2.450  10.777 -2.3250  4.4548 -0.3337
  662MOL0     H89352   7.189   2.023  10.826 -0.4833  0.1760 -0.5733
  662MOL0     H89353   7.102   1.852  10.698  0.6788 -2.2376 -0.9248
  662MOL0     H89354   8.329   1.475   9.281  2.7181  0.6999 -2.1084
  662MOL0     H89355   8.545   1.367   9.206 -0.4360 -0.5108 -0.3490
  662MOL0     H89356   8.821   0.885   9.440  1.0701 -1.7865  0.6331
  662MOL0     H89357   9.034   0.815   9.398 -0.6730 -0.0259  0.0642
  662MOL0     H89358   9.313   1.151   9.273 -0.4727  0.3921 -1.5539
  662MOL0     H89359   9.323   1.073   9.122  1.9913  0.3822  0.1519
  662MOL0     H89360   9.452   1.020   9.387  3.1108  0.0881  0.3658
  662MOL0     H89361   9.544   1.086   9.245  0.3646  1.2772  1.4869
  662MOL0     H89362   9.490   0.853   9.127  0.0092 -0.3755  0.2964
  662MOL0     H89363   9.432   0.806   9.281 -0.9834  1.1212  1.1508
  662MOL0     H89364   9.717   0.898   9.220 -2.8313  0.4357 -2.1246
  662MOL0     H89365   9.656   0.851   9.388 -0.1263 -0.4222  0.4613
  662MOL0     H89366   9.723   0.480   9.208  2.0450  0.1406  0.9002
  662MOL0     H89367   9.093   1.163   9.132 -0.7865  1.0796  0.2686
  662MOL0     H89368   8.801   1.164   9.007 -2.6367 -0.3309  1.4729
  662MOL0     H89369   8.776   1.268   9.148  0.2683 -0.6052 -0.7065
  662MOL0     H89370   8.926   1.276   9.044 -1.1354  1.6648 -0.4619
  663MOL0     O89371   8.289   9.302  11.142 -0.3079 -0.5466 -0.4950
  663MOL0     C89372   8.397   9.257  11.168 -0.5614 -0.7547  0.4568
  663MOL0     O89373   8.427   9.203  11.294 -1.1193  0.5502  0.2792
  663MOL0     C89374   8.334   9.207  11.390  0.0822  0.3828  0.2233
  663MOL0     C89375   8.355   9.271  11.516  0.3027 -0.6354  0.5969
  663MOL0     C89376   8.271   9.273  11.628  0.6083  0.6152  0.4168
  663MOL0     C89377   8.149   9.201  11.612 -0.5949  0.0145 -0.3470
  663MOL0     O89378   8.049   9.178  11.707  0.5441 -0.3582 -0.3751
  663MOL0     C89379   8.070   9.214  11.848 -0.1979  0.2471 -0.1911
  663MOL0     C89380   8.019   9.115  11.954 -0.2820  0.2641 -0.6743
  663MOL0     C89381   8.060   8.968  11.927  0.0735 -0.4362 -0.5477
  663MOL0     C89382   8.215   8.959  11.925  0.6231  0.0069  0.3874
  663MOL0     C89383   8.270   8.820  11.899 -0.1382 -0.4058  0.2582
  663MOL0     C89384   8.330   8.750  12.019  0.4419 -0.1309  0.5643
  663MOL0     C89385   8.382   8.612  11.970 -0.0433  0.6467  0.1676
  663MOL0     C89386   8.301   8.492  12.013  0.0111  0.5578  0.3006
  663MOL0     N89387   8.279   8.481  12.155  0.0167  0.4506  0.2391
  663MOL0     C89388   8.354   8.521  12.256  0.1643 -0.6198  0.8877
  663MOL0     C89389   8.291   8.474  12.366  0.0983 -0.0102  0.0687
  663MOL0     C89390   8.324   8.525  12.505 -0.4391  1.0165 -0.3365
  663MOL0     C89391   8.238   8.639  12.562 -0.0165  0.9057 -0.3165
  663MOL0     C89392   8.115   8.608  12.645 -0.8570 -0.9302  0.6817
  663MOL0     C89393   8.019   8.730  12.663  0.4748  0.0843  0.1057
  663MOL0     O89394   7.906   8.675  12.733 -0.2345  0.0640  0.2497
  663MOL0     C89395   7.802   8.752  12.761  1.3310 -0.5941  0.4158
  663MOL0     C89396   7.801   8.895  12.765  0.3936 -0.5510  0.0592
  663MOL0     C89397   7.683   8.959  12.802 -0.7215 -1.3645  0.3922
  663MOL0     C89398   7.565   8.897  12.822  0.3837  0.2409 -0.4859
  663MOL0     C89399   7.446   8.979  12.838  0.7802 -0.3773 -0.5589
  663MOL0     O89400   7.333   8.911  12.848 -0.2134  0.8966 -0.0954
  663MOL0     C89401   7.222   8.982  12.886  0.1024 -0.1483 -0.1038
  663MOL0     C89402   7.131   9.012  12.787  0.4810  0.7042  0.4336
  663MOL0     C89403   7.005   9.066  12.831 -0.1210  0.3324  0.3181
  663MOL0     C89404   6.975   9.096  12.963 -0.7136 -0.6910  0.2212
  663MOL0     O89405   6.864   9.155  13.011  0.3206  0.3306 -0.0602
  663MOL0     C89406   6.735   9.152  12.946 -0.0654 -0.4861 -0.3080
  663MOL0     C89407   6.646   9.165  13.059 -0.2227 -1.5078 -0.4489
  663MOL0     C89408   6.521   9.257  13.030 -0.4967 -0.6608 -0.3348
  663MOL0     C89409   6.449   9.250  13.164 -0.7047  0.5619  0.3207
  663MOL0     C89410   6.304   9.319  13.147  0.6826 -0.3938  0.0299
  663MOL0     C89411   6.206   9.246  13.050 -0.3288 -0.3571  0.9308
  663MOL0     C89412   6.109   9.342  12.967 -0.3095 -0.5786 -0.4334
  663MOL0     C89413   5.982   9.359  13.045 -0.9489  0.7951  0.6092
  663MOL0    Cl89414   5.887   9.470  12.943 -0.1030  0.3381 -0.0126
  663MOL0     C89415   7.072   9.063  13.063 -0.1235 -0.1194  0.1005
  663MOL0     C89416   7.195   9.010  13.027 -0.3113  0.8964  1.2016
  663MOL0     O89417   7.449   9.099  12.822 -0.9730 -0.6323 -0.2469
  663MOL0     C89418   7.571   8.760  12.805  1.3148 -0.4669 -0.4848
  663MOL0     C89419   7.680   8.681  12.780  0.0478  0.1385  0.2953
  663MOL0     N89420   8.175   8.413  12.339  0.3962  0.2746  0.1693
  663MOL0     N89421   8.168   8.432  12.210 -0.1564  0.2527 -0.9938
  663MOL0     C89422   8.117   9.140  11.485 -0.8003 -0.7119 -0.6780
  663MOL0     C89423   8.203   9.142  11.380  1.3553 -0.6927 -0.7669
  663MOL0     C89424   8.511   9.256  11.066 -0.8055 -0.5455 -0.5977
  663MOL0     C89425   8.509   9.347  10.957 -0.4029 -0.5989  0.7594
  663MOL0     C89426   8.622   9.368  10.863  0.3140  0.9465 -0.1958
  663MOL0     C89427   8.734   9.290  10.886 -0.6178  0.4420  0.6233
  663MOL0     O89428   8.858   9.305  10.818  1.0038 -0.0450 -0.1999
  663MOL0     C89429   8.864   9.377  10.704 -0.5088  1.0346  0.1199
  663MOL0     C89430   8.926   9.515  10.731 -0.1976  0.0515 -0.9508
  663MOL0     C89431   9.075   9.531  10.701  0.4994  0.8661  0.1269
  663MOL0     C89432   9.121   9.657  10.763  0.3986 -0.0138 -0.3940
  663MOL0     C89433   9.077   9.759  10.667  0.6018  0.1892  0.3837
  663MOL0     C89434   9.046   9.845  10.582  0.0545  0.2807  0.2413
  663MOL0     C89435   8.734   9.198  10.988  0.2103  0.4519 -0.6017
  663MOL0     C89436   8.627   9.180  11.076  0.1679  0.6083  0.0515
  663MOL0     C89437   8.643   9.070  11.189 -0.5488 -0.7605  0.0955
  663MOL0     H89438   8.442   9.335  11.524 -0.6107  0.8982 -1.1453
  663MOL0     H89439   8.288   9.340  11.711  1.9414 -0.7962  1.3354
  663MOL0     H89440   8.173   9.233  11.879 -1.3086  5.4658  1.2603
  663MOL0     H89441   8.014   9.308  11.845 -0.0462  0.3254 -2.7210
  663MOL0     H89442   7.910   9.122  11.950 -0.3204  0.6433  0.6602
  663MOL0     H89443   8.048   9.157  12.051 -3.7168  1.1595  0.0974
  663MOL0     H89444   8.029   8.925  11.831 -2.4806  0.8783 -0.4029
  663MOL0     H89445   8.016   8.898  11.998  1.5174 -1.6451 -0.8132
  663MOL0     H89446   8.247   9.025  11.844  1.3659 -1.4656 -0.5631
  663MOL0     H89447   8.252   9.009  12.015 -0.1040  0.5654  0.3843
  663MOL0     H89448   8.184   8.761  11.866 -1.7680  1.8017  0.2945
  663MOL0     H89449   8.353   8.829  11.829 -0.1455  1.5040  0.4308
  663MOL0     H89450   8.413   8.812  12.053  2.1889 -2.9483  1.7874
  663MOL0     H89451   8.256   8.744  12.100 -0.9106 -1.3314 -0.6900
  663MOL0     H89452   8.483   8.595  12.009 -0.0363 -0.8093 -0.4399
  663MOL0     H89453   8.403   8.609  11.863  1.9380  4.0189  0.3025
  663MOL0     H89454   8.203   8.499  11.965  0.8715  1.2899 -1.4150
  663MOL0     H89455   8.356   8.407  11.971  0.9576  1.1785  0.2585
  663MOL0     H89456   8.444   8.582  12.261  0.2303 -0.7403  1.1789
  663MOL0     H89457   8.316   8.444  12.578  3.9890  1.2016  0.6649
  663MOL0     H89458   8.432   8.542  12.501  0.5651 -3.9429 -0.4393
  663MOL0     H89459   8.300   8.716  12.607 -1.2923  2.8278 -1.6768
  663MOL0     H89460   8.200   8.682  12.469 -1.6850 -1.7353 -0.9784
  663MOL0     H89461   8.153   8.590  12.746  1.1894  1.6691  0.4916
  663MOL0     H89462   8.057   8.526  12.601 -4.0247  0.2403  2.3371
  663MOL0     H89463   7.999   8.780  12.568  0.5436 -0.9010 -0.4375
  663MOL0     H89464   8.072   8.808  12.720  1.1268 -0.3593  0.1111
  663MOL0     H89465   7.892   8.952  12.749  0.3450  0.1635  2.0951
  663MOL0     H89466   7.688   9.066  12.821  1.5572 -1.4073  0.3156
  663MOL0     H89467   7.143   9.005  12.680 -0.0134  0.7308  0.3743
  663MOL0     H89468   6.936   9.107  12.758  0.9822  3.3196  0.8165
  663MOL0     H89469   6.732   9.234  12.873  2.4160 -1.3245 -1.5000
  663MOL0     H89470   6.712   9.052  12.909  4.2704 -2.1950  0.9647
  663MOL0     H89471   6.603   9.072  13.097  0.4514 -1.8210 -0.4375
  663MOL0     H89472   6.692   9.220  13.142  0.4489 -0.1697 -1.6462
  663MOL0     H89473   6.546   9.356  12.991 -0.9139  0.0570  1.1466
  663MOL0     H89474   6.459   9.205  12.957 -0.5625 -1.3186  0.1802
  663MOL0     H89475   6.503   9.288  13.252 -0.7729  2.5495 -0.4545
  663MOL0     H89476   6.415   9.148  13.185 -1.9419  0.8852 -0.0238
  663MOL0     H89477   6.302   9.425  13.119  1.5752  0.6388  3.3738
  663MOL0     H89478   6.257   9.323  13.245  0.8059  1.8756  0.0523
  663MOL0     H89479   6.251   9.183  12.972 -2.0940 -0.0039 -0.4597
  663MOL0     H89480   6.136   9.180  13.102  0.1983 -2.6550 -1.0890
  663MOL0     H89481   6.074   9.310  12.869 -3.5314  0.0610  0.3887
  663MOL0     H89482   6.156   9.438  12.941 -0.8083  0.0441  0.8380
  663MOL0     H89483   5.932   9.262  13.042 -2.4969  1.4215 -4.1785
  663MOL0     H89484   6.007   9.409  13.139  0.1764  0.4523  0.5009
  663MOL0     H89485   7.058   9.096  13.166  2.1858 -3.3520  1.6301
  663MOL0     H89486   7.275   9.001  13.099 -0.9996  0.0821  1.8759
  663MOL0     H89487   7.487   8.697  12.832  1.5845 -1.0313 -0.9453
  663MOL0     H89488   7.663   8.574  12.789  1.8096 -0.0166  3.0357
  663MOL0     H89489   8.025   9.083  11.494  1.2682 -3.9996  2.6999
  663MOL0     H89490   8.176   9.100  11.283 -1.5137  0.4544 -0.5912
  663MOL0     H89491   8.422   9.410  10.946 -0.6183 -1.0166  0.0177
  663MOL0     H89492   8.603   9.436  10.781 -0.3470  1.6045  0.4745
  663MOL0     H89493   8.773   9.366  10.644 -1.1644 -3.0840  1.4722
  663MOL0     H89494   8.951   9.333  10.655  1.6516  4.9165  0.0910
  663MOL0     H89495   8.908   9.539  10.837 -0.1008 -1.2085 -0.6409
  663MOL0     H89496   8.864   9.592  10.685 -0.2311  0.1628 -0.7230
  663MOL0     H89497   9.090   9.526  10.593 -1.0004  0.6911 -0.0882
  663MOL0     H89498   9.124   9.444  10.746 -1.9472 -1.9894 -2.2798
  663MOL0     H89499   9.077   9.660  10.863  0.6504 -1.8806 -0.1807
  663MOL0     H89500   9.229   9.669  10.780  0.1966 -0.8653  1.8323
  663MOL0     H89501   9.015   9.924  10.516 -2.0743 -0.5908  0.1198
  663MOL0     H89502   8.832   9.154  11.006 -1.0625 -2.7635 -0.8897
  663MOL0     H89503   8.548   9.022  11.210 -2.0159  1.6920 -0.5637
  663MOL0     H89504   8.721   8.995  11.171 -0.9134 -0.9873 -0.5600
  663MOL0     H89505   8.674   9.127  11.277 -0.7804  0.9541 -0.8765
  664MOL0     O89506  11.048   8.009   6.742 -0.8388 -0.5687 -0.4082
  664MOL0     C89507  11.171   7.990   6.770 -0.1980  0.2688 -0.6310
  664MOL0     O89508  11.228   7.995   6.894 -0.6026  0.8589 -0.4975
  664MOL0     C89509  11.139   8.012   7.002 -0.6784 -0.2275 -0.7277
  664MOL0     C89510  11.053   7.905   7.033  0.7865 -0.5580  1.3611
  664MOL0     C89511  10.966   7.915   7.142 -0.1881 -0.0789  0.0099
  664MOL0     C89512  10.963   8.027   7.221 -0.2365 -0.1119 -0.7549
  664MOL0     O89513  10.872   8.034   7.323  0.6786 -0.3694  0.4839
  664MOL0     C89514  10.808   8.159   7.342  0.6914 -0.6129  0.2631
  664MOL0     C89515  10.684   8.156   7.435 -0.8438  0.7731  0.0606
  664MOL0     C89516  10.711   8.082   7.556 -0.7414  0.6090  0.2567
  664MOL0     C89517  10.643   8.128   7.690 -1.0521  0.0584 -0.5539
  664MOL0     C89518  10.663   8.035   7.820 -0.6760 -0.4211 -0.1015
  664MOL0     C89519  10.806   7.986   7.831 -0.9231  0.0306 -0.0353
  664MOL0     C89520  10.845   7.926   7.967  0.3795  0.4461  0.2110
  664MOL0     C89521  10.976   7.850   7.973 -0.0928 -0.1986  0.7277
  664MOL0     N89522  10.962   7.725   7.897 -0.1520 -0.4614  0.7317
  664MOL0     C89523  11.033   7.698   7.784 -0.6742 -0.3862  0.0453
  664MOL0     C89524  11.012   7.570   7.762 -0.4449 -0.4292 -0.0451
  664MOL0     C89525  11.055   7.477   7.654 -0.2693 -0.5139  0.0259
  664MOL0     C89526  11.202   7.477   7.632 -0.3779 -0.4167  0.7602
  664MOL0     C89527  11.275   7.390   7.736 -0.6744 -1.0817  0.6921
  664MOL0     C89528  11.408   7.323   7.683  0.1313  0.0586 -0.5847
  664MOL0     O89529  11.363   7.242   7.571  0.6040  0.1293 -0.7957
  664MOL0     C89530  11.445   7.219   7.466  0.4502 -0.8848  0.0176
  664MOL0     C89531  11.388   7.168   7.352 -1.0140  0.6050  0.0213
  664MOL0     C89532  11.460   7.130   7.236 -0.1827  0.0932 -0.0929
  664MOL0     C89533  11.595   7.158   7.228  0.3667  0.8853  0.4818
  664MOL0     C89534  11.664   7.122   7.104  0.2439 -0.5119  0.6042
  664MOL0     O89535  11.803   7.122   7.120  0.9367 -0.3246 -0.5004
  664MOL0     C89536  11.881   7.139   7.006 -0.1977 -0.6935  0.3231
  664MOL0     C89537  11.991   7.058   6.970  0.0918  0.4047  0.1848
  664MOL0     C89538  12.071   7.077   6.856 -1.0406 -0.7878 -0.7804
  664MOL0     C89539  12.053   7.185   6.773 -0.1110 -0.4442 -0.0998
  664MOL0     O89540  12.119   7.197   6.659 -0.9890  0.2968 -1.1189
  664MOL0     C89541  12.242   7.280   6.675 -0.3140 -0.2958  0.8577
  664MOL0     C89542  12.246   7.395   6.573 -0.7790  0.6582  1.2728
  664MOL0     C89543  12.174   7.518   6.628 -0.5870 -0.8738  0.6387
  664MOL0     C89544  12.185   7.637   6.518  0.5808 -0.0822  0.2427
  664MOL0     C89545  12.140   7.781   6.576  0.1681 -0.4505 -0.0812
  664MOL0     C89546  12.236   7.856   6.662  0.4877  0.2355  0.0738
  664MOL0     C89547  12.147   7.938   6.768  0.4264  1.1825 -0.1815
  664MOL0     C89548  12.213   8.055   6.849  0.2202 -0.4953  0.9866
  664MOL0    Cl89549  12.356   7.984   6.921  0.0033 -0.6564 -0.5371
  664MOL0     C89550  11.960   7.286   6.813 -0.0480  0.4140 -0.7545
  664MOL0     C89551  11.874   7.260   6.927  0.3440  0.1987  1.3280
  664MOL0     O89552  11.610   7.093   7.000  0.0681  0.2962 -0.0540
  664MOL0     C89553  11.660   7.214   7.346  0.7078 -0.8011  0.1874
  664MOL0     C89554  11.586   7.245   7.460  0.3512  0.4075  0.6837
  664MOL0     N89555  10.925   7.518   7.851 -0.5760  0.4851  0.3872
  664MOL0     N89556  10.896   7.614   7.933 -0.3791  0.2025 -0.0096
  664MOL0     C89557  11.061   8.121   7.202 -0.8976 -1.5305 -1.2695
  664MOL0     C89558  11.155   8.119   7.093  0.0187  1.1034 -0.6411
  664MOL0     C89559  11.256   7.941   6.667 -0.7962 -0.5968 -1.1271
  664MOL0     C89560  11.388   7.903   6.698 -0.9101 -0.1411 -0.7073
  664MOL0     C89561  11.496   7.892   6.604 -0.1705  0.6332 -0.2208
  664MOL0     C89562  11.465   7.893   6.463  0.6655  0.4515 -1.0032
  664MOL0     O89563  11.544   7.901   6.355  0.4875  0.9527 -0.1418
  664MOL0     C89564  11.672   7.838   6.365  0.4145 -0.2202  0.6487
  664MOL0     C89565  11.704   7.735   6.261  0.1117 -0.2727  0.6435
  664MOL0     C89566  11.737   7.809   6.130 -0.1443  0.3380  0.1398
  664MOL0     C89567  11.738   7.706   6.015 -0.2008  0.0096 -0.4750
  664MOL0     C89568  11.771   7.744   5.876  0.1253 -0.5351  0.0535
  664MOL0     C89569  11.807   7.763   5.758 -0.1049 -0.1743 -0.5243
  664MOL0     C89570  11.328   7.911   6.433  1.2027 -0.7243 -0.7732
  664MOL0     C89571  11.222   7.928   6.526  0.3415 -0.1971  0.1334
  664MOL0     C89572  11.084   7.965   6.480 -0.1327 -0.6148  0.9570
  664MOL0     H89573  11.043   7.818   6.968  0.8748  0.8765 -0.6938
  664MOL0     H89574  10.889   7.842   7.167 -2.5354  1.7848 -1.3275
  664MOL0     H89575  10.874   8.226   7.398 -1.3160 -0.8743  3.2258
  664MOL0     H89576  10.779   8.205   7.248 -5.0336 -0.4993  1.6671
  664MOL0     H89577  10.608   8.105   7.376  0.0505 -0.4650 -0.0648
  664MOL0     H89578  10.649   8.257   7.456  0.0310  1.4157 -1.4836
  664MOL0     H89579  10.815   8.063   7.585  0.0736 -2.9478 -3.8874
  664MOL0     H89580  10.677   7.979   7.539 -0.5921  0.6536 -0.3346
  664MOL0     H89581  10.673   8.230   7.716  2.9597 -0.9102 -0.7650
  664MOL0     H89582  10.534   8.136   7.685 -1.1727  1.1839  2.0188
  664MOL0     H89583  10.655   8.104   7.904  2.5978  0.1016 -0.0867
  664MOL0     H89584  10.580   7.963   7.816 -1.4817  0.5224 -2.6842
  664MOL0     H89585  10.835   7.911   7.756 -2.3902 -0.3859 -0.2311
  664MOL0     H89586  10.869   8.075   7.826 -2.9056  1.6533  1.8395
  664MOL0     H89587  10.767   7.863   8.009 -0.6176  2.4633  1.5765
  664MOL0     H89588  10.849   7.999   8.048  1.8430  0.4985  0.1215
  664MOL0     H89589  11.068   7.907   7.954 -1.3364  1.5901 -0.2099
  664MOL0     H89590  10.973   7.807   8.074 -1.7328 -2.4673 -0.2045
  664MOL0     H89591  11.084   7.770   7.720 -1.2991  0.0286  0.0033
  664MOL0     H89592  11.026   7.374   7.676  4.1891 -1.6508  1.6262
  664MOL0     H89593  10.995   7.500   7.566  0.9517 -4.3631 -2.0717
  664MOL0     H89594  11.227   7.429   7.536  0.7257 -1.2542  1.4415
  664MOL0     H89595  11.242   7.578   7.632 -1.3296 -0.0202  1.4518
  664MOL0     H89596  11.194   7.320   7.757 -3.4472  1.6659  0.0145
  664MOL0     H89597  11.283   7.448   7.829 -5.1053  0.3271  0.4143
  664MOL0     H89598  11.458   7.272   7.765  0.2727  0.0300 -0.6892
  664MOL0     H89599  11.475   7.404   7.653  1.1679  0.4042  2.3168
  664MOL0     H89600  11.284   7.138   7.353 -0.5420 -1.1183  0.4011
  664MOL0     H89601  11.408   7.067   7.164 -2.7453  2.0219 -0.0318
  664MOL0     H89602  12.018   6.965   7.021  0.9986  0.0561 -0.8880
  664MOL0     H89603  12.161   7.020   6.836  1.0466  1.2829  1.8546
  664MOL0     H89604  12.251   7.319   6.777 -2.9822  2.2531  0.2369
  664MOL0     H89605  12.336   7.224   6.663  0.9503  2.0769 -1.4049
  664MOL0     H89606  12.348   7.429   6.556 -1.3544  1.1991 -1.6587
  664MOL0     H89607  12.188   7.368   6.484 -1.6340  2.2147  1.3105
  664MOL0     H89608  12.069   7.511   6.656 -0.6158 -0.6181  0.5977
  664MOL0     H89609  12.212   7.557   6.723  1.0464  1.6904 -0.9406
  664MOL0     H89610  12.121   7.606   6.435 -2.0375  1.8312  1.4219
  664MOL0     H89611  12.291   7.649   6.490  0.1770  1.2689 -0.7994
  664MOL0     H89612  12.047   7.754   6.626  0.3208 -1.2813 -0.2372
  664MOL0     H89613  12.113   7.851   6.497  0.3203  0.2961  0.5108
  664MOL0     H89614  12.306   7.789   6.713 -0.1929  0.4427  1.3085
  664MOL0     H89615  12.285   7.922   6.589 -2.9058  0.4521 -2.2512
  664MOL0     H89616  12.100   7.867   6.836 -0.7082  1.3755 -0.7448
  664MOL0     H89617  12.057   7.978   6.720 -2.0964 -3.0461  0.5497
  664MOL0     H89618  12.243   8.135   6.781  0.3051 -0.7317  0.7400
  664MOL0     H89619  12.141   8.098   6.918 -1.9176 -0.1884 -1.2750
  664MOL0     H89620  11.949   7.367   6.741 -0.3801  0.4125 -0.7076
  664MOL0     H89621  11.805   7.338   6.959  1.2815  2.1390 -1.1117
  664MOL0     H89622  11.769   7.217   7.343  0.7318  2.2729  0.7773
  664MOL0     H89623  11.646   7.265   7.548  1.4311  0.4397 -0.0330
  664MOL0     H89624  11.054   8.209   7.265  0.5365 -0.9240 -1.9123
  664MOL0     H89625  11.214   8.209   7.079 -1.2983  2.1998  0.5348
  664MOL0     H89626  11.424   7.898   6.801  1.1337 -1.2674 -1.4101
  664MOL0     H89627  11.599   7.881   6.637 -0.7453 -3.2336  0.8349
  664MOL0     H89628  11.691   7.779   6.455  2.5579  2.9805  2.4795
  664MOL0     H89629  11.754   7.910   6.368 -2.2862  3.1002  2.2354
  664MOL0     H89630  11.625   7.659   6.260  1.3484 -1.6037  0.1339
  664MOL0     H89631  11.792   7.681   6.298 -1.4692 -2.8504  0.8791
  664MOL0     H89632  11.836   7.852   6.140 -0.0666  1.1468 -3.0967
  664MOL0     H89633  11.662   7.888   6.117  0.6503  1.6103  2.6828
  664MOL0     H89634  11.818   7.636   6.039 -1.1379 -0.3840  1.7924
  664MOL0     H89635  11.650   7.641   6.018 -0.2030  0.0163  2.5801
  664MOL0     H89636  11.831   7.758   5.654 -0.7260 -0.8948 -0.6482
  664MOL0     H89637  11.289   7.925   6.333  0.8232  1.0670 -0.4013
  664MOL0     H89638  11.065   8.072   6.482  2.8521  0.0074 -0.2042
  664MOL0     H89639  11.077   7.941   6.374  2.1695 -4.0171  1.4098
  664MOL0     H89640  10.995   7.920   6.526  0.4316 -0.1339  2.5867
  665MOL0     O89641   5.775   6.431   7.963 -0.1233 -0.7736 -0.0342
  665MOL0     C89642   5.880   6.489   7.977 -0.5841 -0.1734  0.2717
  665MOL0     O89643   5.945   6.516   8.090 -0.0678  0.9072  0.1309
  665MOL0     C89644   5.903   6.455   8.205 -0.1969 -0.1186  0.8256
  665MOL0     C89645   5.799   6.362   8.249  0.2699 -0.9140  0.0764
  665MOL0     C89646   5.787   6.316   8.380 -0.4903  0.4055 -0.0072
  665MOL0     C89647   5.880   6.360   8.473  0.0697 -0.2995  0.4682
  665MOL0     O89648   5.879   6.329   8.608  0.0590 -0.6737  0.9949
  665MOL0     C89649   5.807   6.214   8.641 -0.9658  0.4239 -0.2860
  665MOL0     C89650   5.823   6.182   8.790 -0.8874  0.6940 -0.4916
  665MOL0     C89651   5.967   6.159   8.836 -0.1714  0.1645 -0.4412
  665MOL0     C89652   6.016   6.278   8.912  0.6350  0.0330 -0.0307
  665MOL0     C89653   6.163   6.263   8.966  0.4985 -0.8010  0.4727
  665MOL0     C89654   6.268   6.286   8.862  0.0452 -0.3937  1.0576
  665MOL0     C89655   6.410   6.266   8.918 -0.1649  0.0866  0.3241
  665MOL0     C89656   6.513   6.302   8.820  0.5115 -0.2305  0.3346
  665MOL0     N89657   6.486   6.441   8.770  0.0112 -0.5817  0.3755
  665MOL0     C89658   6.434   6.557   8.834 -0.5506  0.2434 -0.0248
  665MOL0     C89659   6.388   6.638   8.734 -0.2864 -0.2024 -1.1210
  665MOL0     C89660   6.333   6.774   8.771  0.1561  0.3911  0.4426
  665MOL0     C89661   6.272   6.839   8.647  0.5641 -0.1204  0.1035
  665MOL0     C89662   6.136   6.793   8.592  0.3104 -0.2483  0.7256
  665MOL0     C89663   6.098   6.888   8.470 -0.9366  0.1318  0.2884
  665MOL0     O89664   6.207   6.891   8.371  0.5383 -0.7940 -1.1270
  665MOL0     C89665   6.247   7.015   8.329  0.3871 -0.2563 -0.6211
  665MOL0     C89666   6.171   7.115   8.274 -0.0047 -0.5536  0.0957
  665MOL0     C89667   6.231   7.224   8.220  0.8604  0.8726  0.2478
  665MOL0     C89668   6.369   7.245   8.238 -0.3830 -0.2808 -0.5561
  665MOL0     C89669   6.442   7.382   8.210  0.3558 -0.3325 -0.6804
  665MOL0     O89670   6.577   7.393   8.255 -0.6397 -0.0353 -0.5302
  665MOL0     C89671   6.659   7.504   8.250  0.1818 -0.4721  0.4352
  665MOL0     C89672   6.777   7.488   8.321 -0.1664 -0.9492  0.2718
  665MOL0     C89673   6.880   7.590   8.321  0.3037 -0.3487  0.5094
  665MOL0     C89674   6.872   7.715   8.258  0.4699 -0.1920  0.2800
  665MOL0     O89675   6.971   7.799   8.264 -0.0848  0.2424  0.6212
  665MOL0     C89676   6.966   7.921   8.191  0.1727  0.4233 -0.3215
  665MOL0     C89677   6.959   7.907   8.039 -0.2581 -0.1621  0.1476
  665MOL0     C89678   6.925   8.032   7.955  0.3516  0.6511  0.3767
  665MOL0     C89679   7.027   8.137   7.988 -1.1155 -0.4924 -0.2258
  665MOL0     C89680   7.059   8.225   7.862  0.3977  0.5378 -0.3324
  665MOL0     C89681   7.132   8.347   7.913  0.3759 -0.3350  0.1185
  665MOL0     C89682   7.136   8.455   7.810  0.0307  1.3474  0.5840
  665MOL0     C89683   7.197   8.418   7.678  0.6955  0.0881 -0.2840
  665MOL0    Cl89684   7.382   8.410   7.697 -0.0212  0.2360  0.5757
  665MOL0     C89685   6.732   7.735   8.208  0.1391  0.2154 -0.2131
  665MOL0     C89686   6.644   7.624   8.194  0.0699  0.0275  0.1351
  665MOL0     O89687   6.378   7.469   8.157  0.0117 -0.4140 -0.8393
  665MOL0     C89688   6.444   7.148   8.285  0.1895 -0.1438  0.7580
  665MOL0     C89689   6.383   7.031   8.323 -0.0962 -0.2353 -0.9479
  665MOL0     N89690   6.415   6.581   8.611 -1.3041 -0.0165 -0.0940
  665MOL0     N89691   6.470   6.466   8.629  0.6061  0.5593 -0.3292
  665MOL0     C89692   5.981   6.447   8.442 -0.1145  1.0346  0.4448
  665MOL0     C89693   5.987   6.494   8.313 -0.6273 -0.2756 -0.0639
  665MOL0     C89694   5.944   6.533   7.851 -0.4316 -0.5448  0.1542
  665MOL0     C89695   5.854   6.574   7.745  0.0175  0.5231  0.4315
  665MOL0     C89696   5.898   6.615   7.626  1.1178 -0.6690  0.9178
  665MOL0     C89697   6.035   6.608   7.600 -0.1604  0.4549  0.5246
  665MOL0     O89698   6.076   6.637   7.470  0.9339 -0.1029 -0.4444
  665MOL0     C89699   6.207   6.675   7.443  0.3453 -0.3850  0.7561
  665MOL0     C89700   6.252   6.807   7.515  0.6337  0.3250 -0.4796
  665MOL0     C89701   6.144   6.922   7.520 -0.2205  0.8884 -0.1651
  665MOL0     C89702   6.146   7.006   7.389  0.1769  1.1370  0.8477
  665MOL0     C89703   6.111   6.928   7.268  0.5941  0.3935 -0.2007
  665MOL0     C89704   6.083   6.872   7.166  0.2716 -1.2175  0.0569
  665MOL0     C89705   6.123   6.573   7.702 -0.7428 -0.8381  0.7644
  665MOL0     C89706   6.086   6.537   7.822 -1.1339 -0.4234 -0.6257
  665MOL0     C89707   6.192   6.479   7.905  0.1965 -0.0857 -0.2844
  665MOL0     H89708   5.728   6.318   8.180  2.3688 -3.1722 -0.7675
  665MOL0     H89709   5.704   6.253   8.407  1.1623 -1.5678  0.6960
  665MOL0     H89710   5.699   6.222   8.622 -0.7682  3.3097 -0.5404
  665MOL0     H89711   5.855   6.132   8.587  4.3656  1.6267  1.9927
  665MOL0     H89712   5.775   6.084   8.786  1.0222 -0.3368  0.3154
  665MOL0     H89713   5.769   6.256   8.849 -2.1908  0.0177 -0.8010
  665MOL0     H89714   6.025   6.136   8.746 -1.7407 -0.2292 -1.3890
  665MOL0     H89715   5.983   6.073   8.902  0.8241 -0.3232 -1.2782
  665MOL0     H89716   6.015   6.364   8.845 -2.3634 -0.7899 -1.2310
  665MOL0     H89717   5.949   6.282   8.998 -0.9560 -1.5479 -1.1257
  665MOL0     H89718   6.187   6.337   9.042  1.1902 -1.1572  0.6042
  665MOL0     H89719   6.175   6.162   9.005  1.2334 -0.9866 -0.2221
  665MOL0     H89720   6.252   6.209   8.786 -0.9926  0.1154  0.7421
  665MOL0     H89721   6.254   6.388   8.824 -0.9146  0.5342  3.6465
  665MOL0     H89722   6.408   6.162   8.950  0.3518  1.0055  3.7499
  665MOL0     H89723   6.415   6.332   9.005  1.0831 -0.9035  1.0420
  665MOL0     H89724   6.609   6.293   8.873 -0.4061  1.5115  2.4895
  665MOL0     H89725   6.514   6.231   8.737 -0.0040  0.5534 -0.3581
  665MOL0     H89726   6.432   6.583   8.940  2.3359  1.0512 -0.0865
  665MOL0     H89727   6.261   6.774   8.853 -0.5843  0.4361 -0.1949
  665MOL0     H89728   6.425   6.822   8.805  0.0451  0.6223  0.4224
  665MOL0     H89729   6.259   6.944   8.674 -3.0802 -0.7287  1.2623
  665MOL0     H89730   6.345   6.828   8.567  0.3585  0.3388 -0.1489
  665MOL0     H89731   6.048   6.801   8.656 -0.8438 -0.4538 -0.7762
  665MOL0     H89732   6.145   6.688   8.561  0.7537  0.3175 -1.1900
  665MOL0     H89733   6.077   6.988   8.510  0.8729  2.1344 -3.2217
  665MOL0     H89734   6.008   6.844   8.426 -0.2419  0.7553 -1.9256
  665MOL0     H89735   6.065   7.102   8.254  0.1014  0.6166 -1.4087
  665MOL0     H89736   6.179   7.310   8.178 -3.5741 -1.6331  0.0384
  665MOL0     H89737   6.789   7.394   8.373 -2.1655 -0.8884  0.9220
  665MOL0     H89738   6.977   7.565   8.361  1.9732  1.7805 -1.9235
  665MOL0     H89739   6.884   7.981   8.232  0.2795 -0.1649  0.8065
  665MOL0     H89740   7.051   7.987   8.211  0.2305  0.0303  0.8172
  665MOL0     H89741   7.046   7.861   7.992 -1.1637  1.3425 -3.3417
  665MOL0     H89742   6.881   7.833   8.018  2.5318 -3.0176 -0.8811
  665MOL0     H89743   6.932   8.010   7.848 -1.7885 -1.4438  0.5821
  665MOL0     H89744   6.822   8.066   7.962 -0.2932 -1.3984  1.7388
  665MOL0     H89745   7.120   8.086   8.014 -1.6018 -3.1795 -3.2353
  665MOL0     H89746   6.995   8.197   8.074  0.6960  2.0577 -1.1912
  665MOL0     H89747   6.961   8.240   7.815 -0.7848  1.0710  2.0975
  665MOL0     H89748   7.139   8.174   7.808  1.4670 -0.9533  2.4700
  665MOL0     H89749   7.069   8.402   7.984  2.9920  1.6626  1.0451
  665MOL0     H89750   7.232   8.327   7.951  0.8118  1.0008 -0.2575
  665MOL0     H89751   7.175   8.548   7.852 -0.6663  2.2469 -0.6656
  665MOL0     H89752   7.032   8.477   7.784  0.2359  0.5019 -1.1030
  665MOL0     H89753   7.142   8.335   7.634 -2.0568  0.3699  2.2844
  665MOL0     H89754   7.176   8.501   7.610  2.0885 -0.5240 -1.5091
  665MOL0     H89755   6.704   7.828   8.161 -0.6920  1.3027  2.2713
  665MOL0     H89756   6.555   7.639   8.132  1.2212 -3.1623 -2.6496
  665MOL0     H89757   6.549   7.170   8.302 -0.7641  1.6832  5.9498
  665MOL0     H89758   6.446   6.949   8.358 -0.2272 -0.6912 -1.7594
  665MOL0     H89759   6.042   6.491   8.520  0.7445 -0.0070  0.3732
  665MOL0     H89760   6.074   6.555   8.291  0.3966 -1.0625  1.5962
  665MOL0     H89761   5.747   6.562   7.757 -0.2822 -1.3581 -2.8624
  665MOL0     H89762   5.836   6.644   7.542  4.2867  0.0762 -1.3566
  665MOL0     H89763   6.216   6.685   7.334  4.0118 -0.9653  0.8640
  665MOL0     H89764   6.267   6.587   7.469  0.7235 -0.4505 -0.2755
  665MOL0     H89765   6.344   6.852   7.477  1.2438 -2.6054 -2.8952
  665MOL0     H89766   6.272   6.777   7.619 -2.8871  3.7973  1.4477
  665MOL0     H89767   6.161   6.981   7.611 -0.1430  0.7356 -0.0793
  665MOL0     H89768   6.048   6.870   7.527  1.5260 -2.3652  3.7315
  665MOL0     H89769   6.072   7.086   7.398 -1.2630  0.0143 -0.4050
  665MOL0     H89770   6.249   7.038   7.372  0.5370 -0.8872 -1.4264
  665MOL0     H89771   6.066   6.815   7.077  1.0796 -1.3447 -0.0288
  665MOL0     H89772   6.231   6.574   7.687 -0.4290  1.7142  2.5942
  665MOL0     H89773   6.175   6.373   7.924  3.5813 -0.7520 -0.2777
  665MOL0     H89774   6.293   6.500   7.870  0.5440 -0.8229  0.2452
  665MOL0     H89775   6.186   6.530   8.002  0.8781 -2.2429  0.9686
  666MOL0     O89776   5.442   3.063   5.194 -0.2692 -1.2551  0.1960
  666MOL0     C89777   5.396   2.956   5.234  0.0704  0.2579  0.1420
  666MOL0     O89778   5.315   2.879   5.159  0.6590 -0.0211 -0.2082
  666MOL0     C89779   5.234   2.940   5.068 -0.6167 -0.2894  0.6109
  666MOL0     C89780   5.286   2.968   4.941 -0.5955 -0.3147 -0.2054
  666MOL0     C89781   5.205   3.039   4.849  0.5724  0.1768 -1.3476
  666MOL0     C89782   5.088   3.103   4.893  0.8670  0.5748 -0.4039
  666MOL0     O89783   5.022   3.193   4.812 -0.7623 -0.0817  0.5887
  666MOL0     C89784   4.992   3.137   4.680 -1.5525 -0.1586  0.9123
  666MOL0     C89785   4.922   3.215   4.578  0.0252  0.0267 -0.4689
  666MOL0     C89786   4.978   3.356   4.575 -0.0196 -0.1170 -0.3959
  666MOL0     C89787   4.879   3.447   4.496  0.0994  0.4898 -0.0793
  666MOL0     C89788   4.934   3.478   4.352 -0.0477 -0.1551  0.7168
  666MOL0     C89789   4.819   3.497   4.245 -0.7071  0.7087 -0.0001
  666MOL0     C89790   4.885   3.570   4.133 -0.4261 -0.4151  0.2507
  666MOL0     C89791   4.885   3.724   4.156  0.2703  0.7599  0.3056
  666MOL0     N89792   4.930   3.805   4.040 -0.0696 -0.0343  0.5324
  666MOL0     C89793   4.887   3.776   3.916  0.4679  0.3483 -0.2971
  666MOL0     C89794   4.983   3.838   3.844  0.1221 -0.3760 -0.6530
  666MOL0     C89795   5.019   3.827   3.695 -0.1888 -0.4994 -0.2442
  666MOL0     C89796   4.917   3.904   3.610  0.2733 -0.1351  0.6138
  666MOL0     C89797   4.961   3.896   3.458 -0.1706  0.5618 -0.6644
  666MOL0     C89798   4.868   3.991   3.378 -0.8685  0.7493 -0.3576
  666MOL0     O89799   4.758   3.911   3.330  0.1832 -0.7041  0.4433
  666MOL0     C89800   4.761   3.905   3.196 -0.9765 -0.0346 -0.0367
  666MOL0     C89801   4.644   3.927   3.131  0.2110  1.1193  0.2174
  666MOL0     C89802   4.639   3.911   2.993  0.6801 -0.3630  1.2671
  666MOL0     C89803   4.755   3.874   2.919  0.4474 -0.7853 -0.1713
  666MOL0     C89804   4.742   3.854   2.770  0.5270  0.0271 -0.1560
  666MOL0     O89805   4.657   3.932   2.708  0.6639 -0.5392  0.1447
  666MOL0     C89806   4.610   3.922   2.576  0.9595  0.1646  0.1370
  666MOL0     C89807   4.556   4.039   2.516 -0.2143  1.1893  0.1938
  666MOL0     C89808   4.485   4.020   2.395  0.1005 -0.1256 -0.3531
  666MOL0     C89809   4.490   3.894   2.327 -0.1317  0.0345 -0.0785
  666MOL0     O89810   4.439   3.884   2.203  0.3123 -0.0677  0.7268
  666MOL0     C89811   4.541   3.905   2.097  0.6880 -1.2853  0.1173
  666MOL0     C89812   4.537   3.796   1.982 -0.8317  0.7824 -0.3186
  666MOL0     C89813   4.630   3.833   1.872  0.3602 -0.3273  0.4197
  666MOL0     C89814   4.607   3.740   1.761  0.7010 -0.0710  1.3383
  666MOL0     C89815   4.699   3.782   1.637  1.4969  0.2635 -0.9954
  666MOL0     C89816   4.671   3.679   1.537 -0.1695 -0.2352 -0.2069
  666MOL0     C89817   4.738   3.685   1.406 -0.0266  0.2005 -0.4921
  666MOL0     C89818   4.880   3.617   1.406 -0.1451 -0.2707 -0.4320
  666MOL0    Cl89819   4.850   3.449   1.460 -0.1426 -0.0940  0.0127
  666MOL0     C89820   4.558   3.786   2.380 -0.4968 -0.3799 -0.2379
  666MOL0     C89821   4.605   3.789   2.511  0.6047 -1.0515 -0.4301
  666MOL0     O89822   4.795   3.755   2.723  0.2467  0.3301  0.2901
  666MOL0     C89823   4.875   3.835   2.991  0.1859 -0.0734 -0.2667
  666MOL0     C89824   4.876   3.854   3.127  0.0655  0.3150  0.2031
  666MOL0     N89825   5.059   3.925   3.932 -1.2683 -0.1204  0.3901
  666MOL0     N89826   5.028   3.896   4.051  0.2559 -0.1864 -0.2712
  666MOL0     C89827   5.040   3.072   5.021 -0.5948 -1.0480  0.4098
  666MOL0     C89828   5.103   2.984   5.107  0.4767 -0.0947  0.1901
  666MOL0     C89829   5.442   2.911   5.372 -0.1043 -0.8015 -0.2704
  666MOL0     C89830   5.360   2.812   5.432  0.5051  0.9057  0.1628
  666MOL0     C89831   5.381   2.764   5.565  0.6634  0.7326  0.6645
  666MOL0     C89832   5.468   2.828   5.651  0.2399 -0.2166 -0.0245
  666MOL0     O89833   5.487   2.795   5.784 -0.0759 -0.1106  1.2272
  666MOL0     C89834   5.435   2.678   5.836 -1.0184 -0.2839  0.6496
  666MOL0     C89835   5.448   2.687   5.984 -0.0214 -0.5106 -0.1410
  666MOL0     C89836   5.417   2.564   6.057 -0.3379  0.8055  0.6706
  666MOL0     C89837   5.288   2.501   6.025  0.1276  0.3101 -0.6576
  666MOL0     C89838   5.250   2.388   6.112 -0.9863 -0.6095  0.4870
  666MOL0     C89839   5.223   2.292   6.175  0.2955 -0.0460  0.4153
  666MOL0     C89840   5.560   2.921   5.598  0.0717 -0.4315  0.3822
  666MOL0     C89841   5.543   2.967   5.463  0.5247  0.4329 -0.6773
  666MOL0     C89842   5.654   3.048   5.414  0.0887 -0.5649  0.5368
  666MOL0     H89843   5.377   2.933   4.894  0.6919  0.8361  1.3628
  666MOL0     H89844   5.257   3.042   4.753  2.7458  2.8769 -0.2273
  666MOL0     H89845   5.091   3.123   4.635 -1.3880  2.0175  0.5106
  666MOL0     H89846   4.944   3.039   4.687 -1.5467 -0.2691 -0.3648
  666MOL0     H89847   4.814   3.220   4.593 -0.1323  1.4407 -1.8213
  666MOL0     H89848   4.944   3.165   4.483 -0.8449  2.7147 -2.2071
  666MOL0     H89849   5.081   3.352   4.538  0.4566  1.9939  0.5387
  666MOL0     H89850   4.988   3.394   4.677  4.0576 -0.2267 -0.6076
  666MOL0     H89851   4.781   3.402   4.476  2.8136 -4.7978 -4.2406
  666MOL0     H89852   4.884   3.546   4.542  1.6351  1.6183 -2.4882
  666MOL0     H89853   4.984   3.575   4.359 -1.1013  0.5863 -1.3055
  666MOL0     H89854   5.000   3.394   4.328 -2.7131 -2.3873  0.6402
  666MOL0     H89855   4.775   3.403   4.210  2.2368  0.1175 -2.4804
  666MOL0     H89856   4.744   3.562   4.291  1.3976  2.7884  0.6406
  666MOL0     H89857   4.824   3.554   4.044  1.2364  1.6435 -1.3710
  666MOL0     H89858   4.990   3.543   4.119 -0.1311  1.1002 -0.6546
  666MOL0     H89859   4.782   3.758   4.174  0.7921  3.6814 -1.5979
  666MOL0     H89860   4.956   3.732   4.239  0.3335  1.0148  0.2273
  666MOL0     H89861   4.823   3.697   3.877 -1.9311  1.1744  1.7196
  666MOL0     H89862   5.115   3.875   3.674 -0.8083  0.3734 -1.1852
  666MOL0     H89863   5.026   3.721   3.669  0.9574 -1.0792  2.1709
  666MOL0     H89864   4.816   3.866   3.627  0.1456  0.5101  1.3439
  666MOL0     H89865   4.910   4.009   3.638 -4.2926  0.9643 -3.3289
  666MOL0     H89866   4.960   3.795   3.416  0.7842  0.1395  0.2853
  666MOL0     H89867   5.062   3.937   3.452  0.1162  0.0283  0.3006
  666MOL0     H89868   4.917   4.043   3.296 -1.2248  2.2339  0.3291
  666MOL0     H89869   4.837   4.084   3.427  0.2351  0.8351  0.2116
  666MOL0     H89870   4.554   3.928   3.192 -1.4166 -0.4350 -1.9839
  666MOL0     H89871   4.541   3.936   2.955  1.6510  1.7466 -0.0390
  666MOL0     H89872   4.566   4.140   2.554 -2.4221  1.7047 -0.4910
  666MOL0     H89873   4.446   4.100   2.333  4.1191  0.6738 -2.1758
  666MOL0     H89874   4.515   4.001   2.053  0.9878 -1.0564  0.4372
  666MOL0     H89875   4.642   3.915   2.138  0.9298  0.2848 -0.7693
  666MOL0     H89876   4.560   3.698   2.024  1.0918  2.3682  2.6770
  666MOL0     H89877   4.432   3.791   1.951 -0.4192  1.0200 -1.8910
  666MOL0     H89878   4.603   3.933   1.837  1.1146 -0.3230 -0.1763
  666MOL0     H89879   4.735   3.829   1.901  0.8749 -0.2217 -1.2808
  666MOL0     H89880   4.500   3.736   1.738 -0.2821  5.9008  3.1145
  666MOL0     H89881   4.643   3.644   1.800  0.9777  1.0454  4.1224
  666MOL0     H89882   4.805   3.773   1.660  1.5169  1.4218 -0.5511
  666MOL0     H89883   4.685   3.884   1.599  1.8117  0.3928 -0.7648
  666MOL0     H89884   4.669   3.581   1.585  5.6106 -0.3209  0.5896
  666MOL0     H89885   4.567   3.694   1.507  0.2900 -1.2296 -2.4396
  666MOL0     H89886   4.746   3.793   1.387 -1.5825  0.4844  0.2604
  666MOL0     H89887   4.658   3.654   1.337 -3.7838  4.4488  1.3762
  666MOL0     H89888   4.928   3.613   1.308  2.7086 -2.3364  0.9218
  666MOL0     H89889   4.951   3.664   1.475 -0.3896  3.2256 -2.3380
  666MOL0     H89890   4.573   3.697   2.320  0.7484  0.1385 -0.7321
  666MOL0     H89891   4.633   3.693   2.554 -0.1648 -1.2101 -0.2664
  666MOL0     H89892   4.956   3.786   2.939 -1.0734 -1.2314 -1.2073
  666MOL0     H89893   4.968   3.819   3.172  1.8545 -0.2950 -3.5821
  666MOL0     H89894   4.942   3.110   5.049 -1.9870 -2.3122 -2.3575
  666MOL0     H89895   5.055   2.974   5.204 -0.0747  3.6481  0.4675
  666MOL0     H89896   5.277   2.772   5.375  2.0578  0.9515 -2.2706
  666MOL0     H89897   5.328   2.677   5.603  1.7912 -0.5761 -0.6442
  666MOL0     H89898   5.487   2.593   5.789 -4.7574 -3.1061  1.1687
  666MOL0     H89899   5.328   2.671   5.814 -1.0433  0.3825  0.5555
  666MOL0     H89900   5.371   2.763   5.997  1.6639  1.7701 -2.5046
  666MOL0     H89901   5.545   2.720   6.022  1.2462 -1.7946 -2.1013
  666MOL0     H89902   5.404   2.593   6.161 -2.1807 -0.5068  0.8614
  666MOL0     H89903   5.506   2.500   6.051 -0.2581  0.9969 -0.4654
  666MOL0     H89904   5.207   2.574   6.034 -0.8176 -0.7082 -0.7732
  666MOL0     H89905   5.284   2.457   5.925  1.3534 -1.1163 -0.1203
  666MOL0     H89906   5.178   2.220   6.240 -1.2498 -1.7135 -2.2718
  666MOL0     H89907   5.648   2.955   5.651 -0.7862 -2.4539  3.3565
  666MOL0     H89908   5.700   3.117   5.486 -0.2637  0.0098  0.2194
  666MOL0     H89909   5.734   2.987   5.371 -1.5648 -2.2191 -0.3492
  666MOL0     H89910   5.629   3.123   5.339  0.2453 -1.7308 -0.7206
  667MOL0     O89911   2.266   7.667   6.611  0.0261 -0.3381  0.5609
  667MOL0     C89912   2.280   7.554   6.633 -0.2453  1.0774 -0.2851
  667MOL0     O89913   2.300   7.501   6.760  0.0288  0.3137  0.1572
  667MOL0     C89914   2.286   7.571   6.871  0.4282  0.1689 -0.1335
  667MOL0     C89915   2.339   7.513   6.990 -0.2669 -0.3719  0.7125
  667MOL0     C89916   2.329   7.577   7.111  0.2135 -0.3353  0.0775
  667MOL0     C89917   2.270   7.704   7.128  0.3691  0.1260 -0.2052
  667MOL0     O89918   2.256   7.770   7.247 -0.3015  0.3776 -0.0574
  667MOL0     C89919   2.239   7.692   7.364 -0.6313  0.5309 -0.5947
  667MOL0     C89920   2.171   7.784   7.461  0.9402 -0.3259  0.8548
  667MOL0     C89921   2.231   7.909   7.528 -1.4114 -0.4533  0.5768
  667MOL0     C89922   2.304   7.874   7.653 -0.0123  0.4085 -0.0183
  667MOL0     C89923   2.343   7.983   7.753 -0.8876 -0.9568 -0.8852
  667MOL0     C89924   2.406   7.933   7.889 -0.0012 -0.0530  0.6052
  667MOL0     C89925   2.459   8.049   7.962 -0.7689  0.2909 -0.5520
  667MOL0     C89926   2.533   8.002   8.086  0.9379 -0.6831  0.0079
  667MOL0     N89927   2.458   7.932   8.188 -0.8341 -0.6097 -0.0513
  667MOL0     C89928   2.519   7.849   8.276 -0.3151 -0.7972  0.6042
  667MOL0     C89929   2.433   7.813   8.376  0.8027  0.1886  0.5903
  667MOL0     C89930   2.467   7.717   8.481  0.6134 -0.1822  0.5936
  667MOL0     C89931   2.522   7.799   8.601  0.3465  0.2447 -0.2729
  667MOL0     C89932   2.409   7.856   8.689 -0.8554  0.9878 -0.1025
  667MOL0     C89933   2.467   7.943   8.800 -0.7913 -0.7040  0.5780
  667MOL0     O89934   2.518   8.066   8.750 -0.1237  0.5256  0.6864
  667MOL0     C89935   2.592   8.149   8.828  0.5481  0.0238  0.2999
  667MOL0     C89936   2.661   8.243   8.757 -0.7898  0.2423  0.0754
  667MOL0     C89937   2.736   8.340   8.823  0.5745  0.4005 -0.1545
  667MOL0     C89938   2.730   8.350   8.966  0.4155 -0.3839  1.2979
  667MOL0     C89939   2.782   8.471   9.018  0.0099 -0.3828 -0.3955
  667MOL0     O89940   2.782   8.471   9.155 -0.5766  0.1099 -0.1557
  667MOL0     C89941   2.851   8.570   9.220 -0.2235  0.0518  0.0564
  667MOL0     C89942   2.816   8.579   9.355  0.2305 -1.3007  0.1723
  667MOL0     C89943   2.883   8.651   9.451 -0.2904 -0.6568  0.8066
  667MOL0     C89944   2.999   8.713   9.411 -1.0776  0.3061 -0.1772
  667MOL0     O89945   3.075   8.779   9.495 -0.4338 -0.0873 -0.8102
  667MOL0     C89946   3.095   8.917   9.469 -0.2323 -0.2238 -0.1593
  667MOL0     C89947   3.122   8.994   9.598  0.5673 -0.2401 -0.0692
  667MOL0     C89948   2.990   8.965   9.679 -0.4068  1.0255 -0.0064
  667MOL0     C89949   2.986   9.030   9.819  0.4591 -0.6321 -0.4755
  667MOL0     C89950   3.072   8.953   9.920 -0.4619 -0.1973 -0.3849
  667MOL0     C89951   3.111   9.035  10.051 -0.1542  0.6763  0.2057
  667MOL0     C89952   3.241   8.966  10.119  0.6320  0.2786 -0.4942
  667MOL0     C89953   3.251   8.998  10.264  0.3445 -0.3033  1.1414
  667MOL0    Cl89954   3.380   8.896  10.340 -0.1481 -0.2367 -0.0783
  667MOL0     C89955   3.050   8.707   9.283  0.5020 -0.3197  0.8425
  667MOL0     C89956   2.963   8.650   9.183 -0.5647  0.7108  0.4527
  667MOL0     O89957   2.822   8.564   8.949  0.2188 -0.0005  0.0649
  667MOL0     C89958   2.652   8.255   9.043  0.9003 -0.1777  0.1011
  667MOL0     C89959   2.577   8.159   8.969  0.6728  1.0423 -0.1088
  667MOL0     N89960   2.316   7.880   8.357  0.5336  0.1404  1.1870
  667MOL0     N89961   2.330   7.955   8.243 -0.5011  0.7251 -0.2783
  667MOL0     C89962   2.223   7.760   7.012 -0.6190  0.1551 -0.0398
  667MOL0     C89963   2.221   7.690   6.890 -0.9547 -0.0459 -0.0018
  667MOL0     C89964   2.246   7.449   6.532 -0.2985 -0.0704 -0.1191
  667MOL0     C89965   2.198   7.325   6.569 -0.5960  0.6487 -0.5079
  667MOL0     C89966   2.176   7.226   6.465  0.2215 -0.5413  0.3988
  667MOL0     C89967   2.196   7.252   6.325  0.6217 -0.5277 -1.0685
  667MOL0     O89968   2.183   7.140   6.244  0.2842 -0.3019  0.5094
  667MOL0     C89969   2.148   7.148   6.105  0.2280 -0.4865  0.5648
  667MOL0     C89970   2.257   7.150   5.992  0.1955 -0.5723 -0.6462
  667MOL0     C89971   2.349   7.023   5.993 -0.4747  0.2525  0.3465
  667MOL0     C89972   2.477   7.025   5.925  0.6091 -0.2211 -0.4031
  667MOL0     C89973   2.554   7.147   5.958  0.2831 -0.2280  0.0033
  667MOL0     C89974   2.634   7.232   5.999  0.6175  0.1726  0.0899
  667MOL0     C89975   2.235   7.383   6.295  1.1462 -0.2711  0.2122
  667MOL0     C89976   2.263   7.479   6.389  0.6149  0.5456  0.5526
  667MOL0     C89977   2.321   7.610   6.331  0.0685 -0.1049  0.0241
  667MOL0     H89978   2.387   7.416   6.980  1.1674  0.4748 -1.3074
  667MOL0     H89979   2.365   7.520   7.196 -1.9569 -1.1140  0.5319
  667MOL0     H89980   2.176   7.604   7.348  1.4807 -0.9323 -1.4015
  667MOL0     H89981   2.334   7.661   7.409 -1.9073 -0.2684  1.7081
  667MOL0     H89982   2.126   7.725   7.542 -0.6738  0.2322  0.4021
  667MOL0     H89983   2.082   7.822   7.410  1.2182 -2.3948 -1.3178
  667MOL0     H89984   2.157   7.987   7.550 -1.5080 -0.4277  0.1639
  667MOL0     H89985   2.304   7.954   7.461 -1.3965 -0.3558  0.6592
  667MOL0     H89986   2.244   7.807   7.714  0.7858  0.1637  0.5099
  667MOL0     H89987   2.393   7.815   7.631  1.4773  1.9410  1.6263
  667MOL0     H89988   2.420   8.034   7.695  1.2558  0.4461  2.8494
  667MOL0     H89989   2.262   8.054   7.771  0.4968 -0.0961  2.8764
  667MOL0     H89990   2.325   7.881   7.942 -0.3362 -0.0710  0.0762
  667MOL0     H89991   2.490   7.867   7.866  0.8589  0.8031  1.1915
  667MOL0     H89992   2.384   8.125   7.986  0.8512  1.7959 -0.1106
  667MOL0     H89993   2.519   8.115   7.898  0.0057  1.7897  1.6296
  667MOL0     H89994   2.626   7.953   8.056  1.1336 -0.1133 -0.3476
  667MOL0     H89995   2.564   8.100   8.123 -1.5345  1.1362 -2.3548
  667MOL0     H89996   2.620   7.810   8.276 -0.5333 -1.5067  2.5622
  667MOL0     H89997   2.373   7.663   8.499  0.6846  0.1985  2.2354
  667MOL0     H89998   2.533   7.643   8.436  1.1506 -0.3988  1.7044
  667MOL0     H89999   2.584   7.734   8.664  1.3028  0.0020 -1.4394
  667MOL0     H90000   2.578   7.878   8.552  1.3461 -0.0968  0.2837
  667MOL0     H90001   2.352   7.770   8.727 -0.9967 -0.5057 -3.3718
  667MOL0     H90002   2.341   7.917   8.630 -1.1092 -0.5118 -1.4241
  667MOL0     H90003   2.547   7.894   8.856 -0.2156 -1.2996 -0.7106
  667MOL0     H90004   2.381   7.963   8.866  1.2464  3.0785  2.3929
  667MOL0     H90005   2.687   8.240   8.652  3.2304 -1.2101  0.9523
  667MOL0     H90006   2.797   8.415   8.774  0.2697  0.9663  0.3262
  667MOL0     H90007   2.735   8.512   9.382 -1.0499 -0.2049 -0.8366
  667MOL0     H90008   2.828   8.653   9.545 -0.2588  0.4398  0.8146
  667MOL0     H90009   3.192   8.920   9.418 -0.1164 -0.2139  0.0609
  667MOL0     H90010   3.011   8.967   9.419  0.4007  0.1503 -0.8734
  667MOL0     H90011   3.210   8.954   9.647 -0.3665 -0.8413  1.1588
  667MOL0     H90012   3.134   9.102   9.583 -0.6713 -0.0705  0.0112
  667MOL0     H90013   2.896   9.000   9.636 -0.9040  2.1047  1.8419
  667MOL0     H90014   2.978   8.857   9.691 -2.1986  1.2274  0.3958
  667MOL0     H90015   2.886   9.036   9.863  0.2908  2.0451 -1.0268
  667MOL0     H90016   3.029   9.130   9.813  0.6777 -0.6828  0.1540
  667MOL0     H90017   3.165   8.917   9.875 -1.2595 -0.9626 -1.4840
  667MOL0     H90018   3.028   8.855   9.942 -0.4679  0.5503  3.5782
  667MOL0     H90019   3.131   9.140  10.029  1.3197  0.0418 -1.7311
  667MOL0     H90020   3.030   9.024  10.125  2.8175 -0.9925  3.5017
  667MOL0     H90021   3.334   8.999  10.072  0.0968 -0.7973 -2.4243
  667MOL0     H90022   3.229   8.859  10.100  2.1596  0.3451 -2.1242
  667MOL0     H90023   3.262   9.107  10.269  0.5385 -0.2186 -0.6179
  667MOL0     H90024   3.155   8.975  10.311  0.4424  0.4433  1.7370
  667MOL0     H90025   3.136   8.761   9.246  0.3044 -0.8289 -0.4368
  667MOL0     H90026   3.001   8.662   9.082 -0.9381  0.2261  0.2521
  667MOL0     H90027   2.636   8.251   9.151  3.5433  0.6599  0.5938
  667MOL0     H90028   2.520   8.092   9.032  0.0125  0.6582 -1.1032
  667MOL0     H90029   2.183   7.861   7.019 -1.9711 -0.4853  3.3761
  667MOL0     H90030   2.171   7.728   6.801  1.0731 -1.8232 -2.0486
  667MOL0     H90031   2.184   7.310   6.675  0.4868 -0.1522 -0.4642
  667MOL0     H90032   2.136   7.129   6.492 -2.5028 -0.0725 -1.5300
  667MOL0     H90033   2.077   7.230   6.097  2.7623  1.8981  1.0452
  667MOL0     H90034   2.094   7.061   6.067 -0.1971  1.1361 -2.8882
  667MOL0     H90035   2.319   7.239   6.006  0.2639 -0.9154  1.5185
  667MOL0     H90036   2.204   7.150   5.896  0.4342 -3.1467 -0.8470
  667MOL0     H90037   2.294   6.934   5.960 -0.0031 -0.3910  1.2576
  667MOL0     H90038   2.369   7.007   6.099  1.2243  0.4748  0.0970
  667MOL0     H90039   2.543   6.947   5.965 -2.4558 -3.5910 -1.3774
  667MOL0     H90040   2.469   7.013   5.817  0.8966 -0.6618 -0.3777
  667MOL0     H90041   2.705   7.298   6.045 -1.0835  2.4586 -0.3788
  667MOL0     H90042   2.234   7.404   6.189 -0.8983 -0.7327  0.1000
  667MOL0     H90043   2.279   7.644   6.236  2.1282  2.2599 -0.1723
  667MOL0     H90044   2.306   7.707   6.379 -2.2097 -0.9414  1.1435
  667MOL0     H90045   2.428   7.597   6.309  0.2921  0.3827  0.7710
  668MOL0     O90046   9.699   1.784   7.730  0.1891  0.1863 -0.0888
  668MOL0     C90047   9.624   1.689   7.767 -1.0069  0.5189 -0.2233
  668MOL0     O90048   9.611   1.654   7.894  0.5911  0.3927  0.7055
  668MOL0     C90049   9.665   1.735   7.993  0.8358 -0.1762  0.3102
  668MOL0     C90050   9.596   1.838   8.067 -0.1739  0.2593 -1.2797
  668MOL0     C90051   9.663   1.928   8.149 -0.7144  0.8758  0.2475
  668MOL0     C90052   9.804   1.918   8.169 -0.0621  0.3411  0.0505
  668MOL0     O90053   9.875   2.008   8.247 -0.3958  0.3255 -1.2745
  668MOL0     C90054   9.842   2.151   8.225  0.4786 -1.1669 -0.0145
  668MOL0     C90055   9.886   2.236   8.347 -0.6941  0.1958  0.1296
  668MOL0     C90056  10.043   2.236   8.368  0.5564  0.2569  0.4668
  668MOL0     C90057  10.122   2.327   8.273 -0.3431  0.1039 -0.3655
  668MOL0     C90058  10.274   2.306   8.260 -0.7978 -0.2652 -0.3741
  668MOL0     C90059  10.341   2.328   8.393  0.1219  0.0926 -0.3855
  668MOL0     C90060  10.497   2.305   8.373  0.1604 -0.7369  0.1183
  668MOL0     C90061  10.580   2.327   8.501 -0.9267  0.0887 -0.0947
  668MOL0     N90062  10.513   2.276   8.627 -0.2642 -0.0411 -0.1134
  668MOL0     C90063  10.457   2.150   8.648 -0.1367  0.6568  0.1707
  668MOL0     C90064  10.434   2.152   8.782  0.1113  0.8819 -1.1487
  668MOL0     C90065  10.407   2.038   8.869 -0.5834  0.9910  0.8635
  668MOL0     C90066  10.309   1.940   8.792 -0.6975 -0.0073 -0.6301
  668MOL0     C90067  10.227   1.846   8.889  0.3585 -0.7208  0.6700
  668MOL0     C90068  10.302   1.772   8.995 -0.3066 -0.6872 -0.4993
  668MOL0     O90069  10.412   1.695   8.935 -0.4251 -0.4810  0.7098
  668MOL0     C90070  10.494   1.620   9.023 -0.1841 -0.0413 -0.4462
  668MOL0     C90071  10.473   1.600   9.162  0.1804  0.2986  0.9468
  668MOL0     C90072  10.558   1.517   9.233  0.8556 -1.4661  0.0600
  668MOL0     C90073  10.659   1.446   9.162 -0.2198 -0.6801 -0.1820
  668MOL0     C90074  10.749   1.346   9.222  0.2685 -0.5185  0.4560
  668MOL0     O90075  10.699   1.265   9.315  0.1596  0.3558  0.1230
  668MOL0     C90076  10.774   1.179   9.394 -0.4862 -0.0200 -0.2222
  668MOL0     C90077  10.720   1.138   9.513 -0.2423  0.1959 -0.5260
  668MOL0     C90078  10.760   1.028   9.586 -0.3622  0.1574  1.0238
  668MOL0     C90079  10.891   0.978   9.559  0.2830 -0.1004 -0.0674
  668MOL0     O90080  10.955   0.899   9.649  0.4099  0.0612  0.5684
  668MOL0     C90081  11.093   0.935   9.678 -0.7454 -0.3681  0.2629
  668MOL0     C90082  11.140   0.859   9.805 -1.0521 -0.2416  0.8130
  668MOL0     C90083  11.082   0.913   9.927 -0.1941  0.9910  0.6094
  668MOL0     C90084  11.138   0.856  10.062  0.0845  0.4969 -1.0899
  668MOL0     C90085  11.024   0.877  10.168 -1.0099 -0.1231  0.1634
  668MOL0     C90086  11.004   1.026  10.193  0.4138  0.3844 -0.2456
  668MOL0     C90087  10.939   1.061  10.324  0.2366  0.4504  0.5974
  668MOL0     C90088  10.876   1.203  10.308 -0.1049 -0.6835 -0.0438
  668MOL0    Cl90089  10.877   1.249  10.483 -0.0965 -0.2170  0.0792
  668MOL0     C90090  10.949   1.027   9.445  0.2957  0.5294 -0.7459
  668MOL0     C90091  10.890   1.116   9.357 -0.3017  0.2290  0.2206
  668MOL0     O90092  10.865   1.353   9.192  0.1758  0.0718 -0.8491
  668MOL0     C90093  10.682   1.465   9.030 -0.2673 -0.1060 -0.3554
  668MOL0     C90094  10.606   1.555   8.962  0.8922 -1.0097 -0.5729
  668MOL0     N90095  10.464   2.272   8.835  0.4229 -0.3459 -0.2483
  668MOL0     N90096  10.527   2.342   8.745  0.2358 -0.2494  1.1382
  668MOL0     C90097   9.866   1.817   8.103  0.5895 -0.0696  0.5614
  668MOL0     C90098   9.802   1.728   8.018  0.2831  0.4109 -0.9212
  668MOL0     C90099   9.545   1.611   7.667  0.9707  0.2132  0.1190
  668MOL0     C90100   9.519   1.664   7.535  1.7847  0.2781 -0.8493
  668MOL0     C90101   9.420   1.601   7.454  0.1729 -0.0837 -0.7527
  668MOL0     C90102   9.356   1.480   7.478  0.6615 -0.1770 -0.4138
  668MOL0     O90103   9.272   1.410   7.399 -0.8635  0.0439  0.7384
  668MOL0     C90104   9.228   1.470   7.280 -0.4713 -0.7567  0.4182
  668MOL0     C90105   9.185   1.360   7.182  0.5037  0.5652  0.1096
  668MOL0     C90106   9.288   1.255   7.170 -0.4521 -0.3858  0.5158
  668MOL0     C90107   9.249   1.168   7.045 -0.8060 -0.0007  0.7323
  668MOL0     C90108   9.320   1.034   7.059 -0.0867  0.0023 -0.1809
  668MOL0     C90109   9.389   0.933   7.065  0.3599  0.4293  0.0752
  668MOL0     C90110   9.393   1.423   7.602  0.3908  0.4298 -0.2117
  668MOL0     C90111   9.484   1.484   7.694 -0.7715 -0.1475 -0.6249
  668MOL0     C90112   9.511   1.413   7.823  0.4364  0.6003  0.3031
  668MOL0     H90113   9.488   1.839   8.053 -0.5515  0.9121  1.1701
  668MOL0     H90114   9.604   1.996   8.209  0.3380  1.0941  1.0764
  668MOL0     H90115   9.883   2.191   8.132 -0.7542  2.9725  1.0500
  668MOL0     H90116   9.736   2.174   8.211  0.6248  0.6976  1.5446
  668MOL0     H90117   9.831   2.194   8.431  0.0373 -0.4896  0.2845
  668MOL0     H90118   9.864   2.343   8.345  3.1519  1.1139 -0.4418
  668MOL0     H90119  10.081   2.136   8.344 -0.6746  0.6249 -3.9737
  668MOL0     H90120  10.066   2.259   8.472 -1.2334  1.4706  0.6376
  668MOL0     H90121  10.089   2.324   8.169  1.1989  0.5241 -0.9046
  668MOL0     H90122  10.101   2.428   8.309 -2.7524 -1.3418  2.7149
  668MOL0     H90123  10.295   2.205   8.223 -0.1544  0.4176 -1.9806
  668MOL0     H90124  10.311   2.372   8.181 -2.8043 -1.3101 -2.3121
  668MOL0     H90125  10.339   2.434   8.420  2.8832 -0.0095  0.6274
  668MOL0     H90126  10.290   2.259   8.460 -1.0783 -0.9514 -2.2962
  668MOL0     H90127  10.543   2.372   8.299  3.4586 -1.5821  1.2362
  668MOL0     H90128  10.505   2.202   8.336  0.6599 -0.7866  0.3587
  668MOL0     H90129  10.671   2.270   8.484 -0.8466  0.9570 -3.0807
  668MOL0     H90130  10.607   2.433   8.511 -0.1437 -0.0025 -1.1386
  668MOL0     H90131  10.449   2.063   8.584  1.5709 -0.9217  1.9486
  668MOL0     H90132  10.508   1.997   8.872  0.0419  2.3144 -0.7880
  668MOL0     H90133  10.376   2.065   8.971  1.6078  2.3903  1.2384
  668MOL0     H90134  10.243   2.003   8.732  0.6729  1.1690 -0.9698
  668MOL0     H90135  10.358   1.871   8.724  0.6572  0.7762 -0.4862
  668MOL0     H90136  10.163   1.779   8.830 -2.1264  0.0408  2.3314
  668MOL0     H90137  10.156   1.911   8.942  1.1083 -0.3565  1.2465
  668MOL0     H90138  10.224   1.707   9.035 -1.2847  2.0488  2.4726
  668MOL0     H90139  10.335   1.845   9.069  0.4376  1.1110 -2.5086
  668MOL0     H90140  10.393   1.657   9.208 -0.7792  1.7586 -2.2519
  668MOL0     H90141  10.542   1.500   9.339  1.6711  3.2685  1.1791
  668MOL0     H90142  10.637   1.195   9.554  2.7605  2.3784  3.1355
  668MOL0     H90143  10.702   0.991   9.670 -0.2708  2.1013  1.9905
  668MOL0     H90144  11.157   0.930   9.590  0.5552  0.6301  1.1136
  668MOL0     H90145  11.098   1.041   9.704  1.8068 -0.7845  1.7265
  668MOL0     H90146  11.100   0.759   9.786 -0.7713 -0.1261 -0.5251
  668MOL0     H90147  11.249   0.856   9.799 -0.7366  2.4106  3.4545
  668MOL0     H90148  11.099   1.021   9.928  2.2669  0.6878 -0.0892
  668MOL0     H90149  10.974   0.907   9.913  0.0294  0.9655 -1.5264
  668MOL0     H90150  11.233   0.895  10.099 -1.3430  1.9237  1.3644
  668MOL0     H90151  11.152   0.748  10.057  0.3258  0.4973 -0.5225
  668MOL0     H90152  11.065   0.824  10.255 -0.2595 -3.2924 -1.9514
  668MOL0     H90153  10.936   0.819  10.139  0.6750 -3.0459  0.5573
  668MOL0     H90154  11.106   1.063  10.193  0.4375  0.4302 -2.1418
  668MOL0     H90155  10.956   1.082  10.112 -1.3097  0.4995  0.8136
  668MOL0     H90156  11.021   1.053  10.396 -1.0952 -2.8336  1.9279
  668MOL0     H90157  10.851   1.000  10.348 -2.6056  2.3295 -3.8087
  668MOL0     H90158  10.930   1.273  10.245  2.7050 -2.3275  0.3644
  668MOL0     H90159  10.777   1.211  10.262  0.8190  1.4301 -1.8435
  668MOL0     H90160  11.045   0.991   9.410  1.0883  2.3218 -0.5747
  668MOL0     H90161  10.949   1.135   9.268  1.8573 -0.0926  1.5078
  668MOL0     H90162  10.765   1.418   8.979  2.3014  4.5195 -0.9720
  668MOL0     H90163  10.632   1.567   8.857 -1.1732 -1.5915 -1.1934
  668MOL0     H90164   9.975   1.824   8.105  0.6467  4.5468 -2.8328
  668MOL0     H90165   9.865   1.666   7.955  2.0198  0.0153  1.1206
  668MOL0     H90166   9.570   1.755   7.506 -0.0675  2.6943  2.6516
  668MOL0     H90167   9.410   1.663   7.365  1.6865  2.3081  0.6306
  668MOL0     H90168   9.312   1.524   7.236 -0.9422 -2.1305 -2.4044
  668MOL0     H90169   9.148   1.537   7.315 -0.5308  0.0346 -1.1529
  668MOL0     H90170   9.160   1.406   7.086 -0.2212 -0.7493 -0.3627
  668MOL0     H90171   9.085   1.324   7.211  0.4077 -0.2101 -1.1357
  668MOL0     H90172   9.302   1.198   7.262  0.1780 -1.1212 -0.0218
  668MOL0     H90173   9.387   1.297   7.149 -0.6776  0.7478  1.6536
  668MOL0     H90174   9.141   1.154   7.042 -0.9490  1.0395  0.7411
  668MOL0     H90175   9.279   1.211   6.949 -0.1001 -2.1165 -0.0516
  668MOL0     H90176   9.422   0.832   7.085 -0.0559  0.5620  1.5908
  668MOL0     H90177   9.351   1.326   7.626  2.0154 -0.1485  0.3971
  668MOL0     H90178   9.466   1.313   7.819 -1.5793  1.4375  0.6295
  668MOL0     H90179   9.620   1.411   7.833  0.3770  1.9109  1.5733
  668MOL0     H90180   9.474   1.467   7.911  2.5054  0.3551  1.3779
  669MOL0     O90181   9.630   7.486   7.022  0.2690 -0.1561  0.3252
  669MOL0     C90182   9.641   7.610   7.026  0.1440  1.2113  0.0956
  669MOL0     O90183   9.572   7.696   7.106  0.1679 -0.4378  0.2284
  669MOL0     C90184   9.493   7.664   7.218  0.1839 -1.5702  0.4418
  669MOL0     C90185   9.426   7.775   7.277  0.0022  1.1516  0.3160
  669MOL0     C90186   9.319   7.756   7.368 -0.4283 -0.3667 -0.3961
  669MOL0     C90187   9.299   7.627   7.415  0.0106  0.6884  0.6891
  669MOL0     O90188   9.208   7.603   7.509 -0.2022 -0.0800  0.6372
  669MOL0     C90189   9.113   7.696   7.554 -0.7039  0.5352 -0.8852
  669MOL0     C90190   9.029   7.621   7.657  0.5837 -1.3869 -0.0443
  669MOL0     C90191   8.939   7.522   7.590 -0.0020  1.1526  0.0808
  669MOL0     C90192   8.911   7.408   7.687  0.6729  0.3633  0.0223
  669MOL0     C90193   8.818   7.285   7.647 -0.2349  0.4074  0.2222
  669MOL0     C90194   8.688   7.358   7.611 -0.5473 -1.2230 -1.1254
  669MOL0     C90195   8.569   7.263   7.612  0.6473  0.0498 -0.0898
  669MOL0     C90196   8.596   7.134   7.516  0.5180  0.0597 -0.0942
  669MOL0     N90197   8.481   7.046   7.519  0.4188 -0.1665  0.0959
  669MOL0     C90198   8.445   6.974   7.630 -0.2374 -0.7035 -0.1169
  669MOL0     C90199   8.365   6.871   7.585  0.5072 -0.1930 -1.5314
  669MOL0     C90200   8.296   6.773   7.667  1.1041  0.1731  0.3030
  669MOL0     C90201   8.216   6.665   7.584 -0.0774 -0.3938 -0.3827
  669MOL0     C90202   8.096   6.584   7.647 -0.1022 -0.5737  0.0832
  669MOL0     C90203   7.975   6.667   7.674  0.2216 -0.2878  0.4472
  669MOL0     O90204   7.936   6.721   7.549 -0.4072  0.8532  0.1845
  669MOL0     C90205   7.829   6.809   7.551  0.0801 -0.8244  0.6684
  669MOL0     C90206   7.776   6.840   7.420  0.6651 -0.0552 -0.6852
  669MOL0     C90207   7.664   6.930   7.414  0.3892 -0.0563 -0.3361
  669MOL0     C90208   7.606   6.980   7.525  0.1121 -0.5744 -0.1631
  669MOL0     C90209   7.490   7.059   7.518 -0.4483 -0.2171 -0.1819
  669MOL0     O90210   7.443   7.068   7.393  0.2045  0.3617 -0.1879
  669MOL0     C90211   7.340   7.143   7.359  0.3942  0.1021 -0.0047
  669MOL0     C90212   7.206   7.118   7.403 -0.7812 -0.2065  0.1912
  669MOL0     C90213   7.101   7.207   7.364 -0.9172 -0.4493 -0.6039
  669MOL0     C90214   7.129   7.321   7.285 -1.0831  0.3570  0.3831
  669MOL0     O90215   7.035   7.413   7.256 -0.3054  0.3015  0.4478
  669MOL0     C90216   6.904   7.418   7.317  1.1390 -0.1522  0.2273
  669MOL0     C90217   6.800   7.335   7.234  0.8295  0.3326  0.6562
  669MOL0     C90218   6.761   7.385   7.095  0.8055  0.2775  0.5895
  669MOL0     C90219   6.699   7.527   7.117 -0.0097  0.5499 -0.6511
  669MOL0     C90220   6.638   7.578   6.982 -0.0738 -0.1668 -0.3169
  669MOL0     C90221   6.501   7.506   6.946 -0.7048  0.3139 -0.1640
  669MOL0     C90222   6.417   7.580   6.833 -0.2640 -0.3140  0.4057
  669MOL0     C90223   6.347   7.475   6.749  0.4279  0.7398  0.2805
  669MOL0    Cl90224   6.281   7.558   6.603 -0.2975 -0.4285  0.2548
  669MOL0     C90225   7.262   7.342   7.234  0.4314  0.4759 -0.1991
  669MOL0     C90226   7.365   7.249   7.273  0.2540 -0.2176 -0.4487
  669MOL0     O90227   7.445   7.109   7.618  0.3222 -0.0551 -0.5446
  669MOL0     C90228   7.656   6.950   7.649  1.0762 -0.4302 -0.1321
  669MOL0     C90229   7.769   6.873   7.665 -0.4367 -0.1931  0.5466
  669MOL0     N90230   8.365   6.879   7.448  0.5705  0.5002 -0.0100
  669MOL0     N90231   8.424   6.979   7.417 -0.6510 -0.2794  0.1267
  669MOL0     C90232   9.374   7.517   7.362  0.4829  0.4591 -0.2201
  669MOL0     C90233   9.463   7.531   7.260  0.3129 -0.2180 -0.4541
  669MOL0     C90234   9.723   7.677   6.915 -0.1586  0.9868 -0.0206
  669MOL0     C90235   9.742   7.817   6.931  0.2669  0.2261 -0.0820
  669MOL0     C90236   9.805   7.907   6.845 -0.3146  1.0948  0.9756
  669MOL0     C90237   9.876   7.847   6.730  0.9195 -0.9070 -0.1425
  669MOL0     O90238   9.953   7.916   6.644  0.1440  0.4228  0.9356
  669MOL0     C90239   9.871   7.990   6.553  0.4219  0.2300  0.2793
  669MOL0     C90240   9.963   8.086   6.479  0.1804  0.0655 -0.4501
  669MOL0     C90241   9.878   8.184   6.382  0.2768  0.6585  0.1734
  669MOL0     C90242   9.865   8.125   6.243 -1.0215  0.2356 -0.2671
  669MOL0     C90243   9.773   8.216   6.167  0.0655 -0.2872 -0.6867
  669MOL0     C90244   9.689   8.286   6.113 -0.2134 -1.0605  0.6401
  669MOL0     C90245   9.866   7.704   6.712 -0.1211 -0.5634  0.0496
  669MOL0     C90246   9.785   7.619   6.798 -0.4785  0.5919  0.2137
  669MOL0     C90247   9.792   7.479   6.756 -0.7546  0.0414  0.6824
  669MOL0     H90248   9.461   7.874   7.249 -0.6375  2.1117  2.6530
  669MOL0     H90249   9.266   7.839   7.414  3.6073  1.2068  1.8821
  669MOL0     H90250   9.154   7.780   7.610 -1.6842  0.5049 -0.1015
  669MOL0     H90251   9.044   7.734   7.478 -0.9314  1.8934 -0.0388
  669MOL0     H90252   8.958   7.693   7.698 -0.3235 -2.7247  0.8382
  669MOL0     H90253   9.086   7.584   7.743  1.7664 -0.5325 -0.4369
  669MOL0     H90254   8.983   7.475   7.501 -0.1016 -1.2458  1.2264
  669MOL0     H90255   8.845   7.568   7.558  0.1134 -1.4110 -4.8438
  669MOL0     H90256   9.009   7.372   7.721  1.8680  1.8618 -1.6440
  669MOL0     H90257   8.853   7.453   7.768 -2.5597  1.7737 -2.8347
  669MOL0     H90258   8.843   7.247   7.547 -0.7602  1.6398 -0.4021
  669MOL0     H90259   8.805   7.201   7.716  0.0415 -3.0713 -3.5557
  669MOL0     H90260   8.667   7.425   7.695  0.0024 -1.2272 -0.9802
  669MOL0     H90261   8.689   7.408   7.514 -2.8382 -3.7507 -2.6145
  669MOL0     H90262   8.486   7.317   7.566  0.2770 -0.8457 -0.5084
  669MOL0     H90263   8.545   7.230   7.714  1.0633  0.8076  0.2635
  669MOL0     H90264   8.621   7.174   7.418  1.2846 -4.8843 -2.1940
  669MOL0     H90265   8.687   7.079   7.542  1.9887  0.5161 -3.6707
  669MOL0     H90266   8.467   6.995   7.734 -1.6808  0.9920 -0.0988
  669MOL0     H90267   8.378   6.737   7.730  3.1605  3.7224 -0.1091
  669MOL0     H90268   8.221   6.820   7.731 -3.1308 -0.5230 -3.6040
  669MOL0     H90269   8.173   6.715   7.496  1.6536 -0.2018 -1.1467
  669MOL0     H90270   8.290   6.596   7.542  0.6542 -0.3665  0.8363
  669MOL0     H90271   8.139   6.519   7.724 -2.8284 -2.3734  0.2179
  669MOL0     H90272   8.066   6.516   7.567 -0.4370  0.1146 -0.3950
  669MOL0     H90273   8.006   6.747   7.742  0.0565 -0.3926  0.6462
  669MOL0     H90274   7.901   6.600   7.720 -0.0664  0.0059  0.4203
  669MOL0     H90275   7.817   6.810   7.323  2.3587  0.2074 -0.0889
  669MOL0     H90276   7.622   6.947   7.315 -0.8180  1.3207  0.3838
  669MOL0     H90277   7.194   7.041   7.478  1.4669  0.4993  1.3989
  669MOL0     H90278   6.999   7.187   7.396 -0.7952 -0.6297 -0.3207
  669MOL0     H90279   6.895   7.379   7.419 -0.7360  0.2336  0.2456
  669MOL0     H90280   6.867   7.520   7.328 -0.9912 -1.1047  3.2847
  669MOL0     H90281   6.840   7.234   7.220  0.2747  0.1288  0.5016
  669MOL0     H90282   6.710   7.333   7.297 -1.0794  1.2267 -1.8616
  669MOL0     H90283   6.841   7.394   7.022 -0.2630  2.4912 -0.3863
  669MOL0     H90284   6.698   7.309   7.047  0.8857  0.3874  0.3109
  669MOL0     H90285   6.770   7.605   7.145 -2.0968  1.3420  3.0779
  669MOL0     H90286   6.636   7.515   7.206  5.1423  0.2825  3.4045
  669MOL0     H90287   6.717   7.563   6.908 -0.8224 -0.8825 -0.9979
  669MOL0     H90288   6.611   7.683   6.975  0.8412 -0.0157 -2.0519
  669MOL0     H90289   6.524   7.404   6.913  0.0043  0.1343  0.8564
  669MOL0     H90290   6.445   7.503   7.040  3.3901  0.6506  2.5448
  669MOL0     H90291   6.482   7.637   6.767 -1.2581  0.2731 -0.0821
  669MOL0     H90292   6.350   7.646   6.889  0.2531  1.3686 -0.8842
  669MOL0     H90293   6.412   7.405   6.696 -1.0081  1.3116 -2.3654
  669MOL0     H90294   6.277   7.411   6.804  4.1617 -3.8877  0.4097
  669MOL0     H90295   7.297   7.433   7.188  1.3562 -0.8312 -2.2210
  669MOL0     H90296   7.470   7.263   7.250  1.0281 -0.5019  2.4922
  669MOL0     H90297   7.625   7.002   7.740 -2.4939  1.0148 -1.9596
  669MOL0     H90298   7.828   6.867   7.756  2.1622  1.5423 -0.8568
  669MOL0     H90299   9.358   7.418   7.402 -2.9826  1.2234  0.6404
  669MOL0     H90300   9.499   7.437   7.218 -3.3227 -0.3527 -3.8511
  669MOL0     H90301   9.701   7.877   7.012 -0.7450  0.7515 -0.9598
  669MOL0     H90302   9.820   8.011   6.868  1.0290  0.6553  2.2403
  669MOL0     H90303   9.795   8.046   6.608 -0.1815 -1.2898  1.0519
  669MOL0     H90304   9.822   7.931   6.475  0.2472  0.3972  0.2592
  669MOL0     H90305  10.035   8.032   6.416  1.1278  1.1353 -0.3088
  669MOL0     H90306  10.008   8.160   6.546  1.5437  0.6108 -1.9320
  669MOL0     H90307   9.930   8.280   6.383 -1.2656  1.6316 -2.3936
  669MOL0     H90308   9.779   8.181   6.428 -0.8880  0.4563 -2.2340
  669MOL0     H90309   9.954   8.104   6.183 -1.2838  1.5965 -1.1671
  669MOL0     H90310   9.819   8.025   6.246 -3.0628  1.1488  1.3311
  669MOL0     H90311   9.618   8.346   6.059  2.3954  1.2611 -0.4108
  669MOL0     H90312   9.918   7.661   6.628 -1.0359 -3.2417  0.7493
  669MOL0     H90313   9.706   7.431   6.802 -1.7880  0.3657 -0.8548
  669MOL0     H90314   9.798   7.459   6.648  0.4096 -0.9734  0.9074
  669MOL0     H90315   9.884   7.439   6.800  0.5589 -0.2075 -2.0746
  670MOL0     O90316   1.058   0.487   5.302 -0.6188  0.6766 -0.7897
  670MOL0     C90317   1.026   0.430   5.194 -0.6428 -0.3238 -0.4376
  670MOL0     O90318   0.993   0.298   5.186 -0.4983  0.0315 -0.6390
  670MOL0     C90319   0.975   0.231   5.305  1.1758  0.5268  1.2719
  670MOL0     C90320   0.880   0.272   5.406  0.0962 -0.2174  0.2042
  670MOL0     C90321   0.863   0.188   5.512 -0.3542  0.8897  0.8074
  670MOL0     C90322   0.944   0.069   5.535  0.4101 -1.3416  0.7512
  670MOL0     O90323   0.923  -0.016   5.631  0.5116  0.3803  0.2185
  670MOL0     C90324   0.791  -0.046   5.672 -0.0997 -1.2741  0.0911
  670MOL0     C90325   0.789  -0.127   5.801 -0.2883 -0.0021  0.5504
  670MOL0     C90326   0.840  -0.277   5.776 -0.7775 -1.3007 -1.1056
  670MOL0     C90327   0.805  -0.371   5.891  0.1579 -0.0197 -0.0255
  670MOL0     C90328   0.788  -0.513   5.853 -0.2057  0.0914 -1.1327
  670MOL0     C90329   0.914  -0.591   5.805  0.3404  0.3444  0.4399
  670MOL0     C90330   0.886  -0.738   5.798 -0.4169  0.8964  0.1915
  670MOL0     C90331   1.004  -0.798   5.725  0.4059  0.7034  0.1910
  670MOL0     N90332   0.948  -0.909   5.634 -0.2285  0.3731  0.7141
  670MOL0     C90333   0.884  -0.887   5.508  0.1055 -0.2466 -0.5254
  670MOL0     C90334   0.839  -1.013   5.476  0.7630  0.2757 -0.1313
  670MOL0     C90335   0.735  -1.049   5.370  0.2467  0.1392  0.7353
  670MOL0     C90336   0.646  -0.930   5.335  0.7023 -0.4268  0.4600
  670MOL0     C90337   0.506  -0.983   5.304 -0.7575  0.0184 -1.1194
  670MOL0     C90338   0.469  -0.996   5.157  0.2045  0.2322  0.0509
  670MOL0     O90339   0.549  -1.102   5.104 -0.0955  0.6389 -0.0492
  670MOL0     C90340   0.553  -1.110   4.969  0.6260 -0.0778  0.7530
  670MOL0     C90341   0.663  -1.167   4.904  0.5282  0.7810  0.3274
  670MOL0     C90342   0.666  -1.182   4.764 -0.1275 -0.5607  0.3421
  670MOL0     C90343   0.565  -1.120   4.681 -0.6560  1.0421 -1.0524
  670MOL0     C90344   0.568  -1.127   4.531  0.4414 -0.2321  0.8907
  670MOL0     O90345   0.672  -1.201   4.479 -0.3336 -0.5218 -0.0560
  670MOL0     C90346   0.676  -1.236   4.345  0.6577  0.2310 -0.3314
  670MOL0     C90347   0.602  -1.189   4.234  0.5922  0.4625 -0.2866
  670MOL0     C90348   0.611  -1.256   4.112 -0.1888  0.7095  0.1435
  670MOL0     C90349   0.701  -1.358   4.089 -0.3243 -0.1845  1.2044
  670MOL0     O90350   0.694  -1.413   3.966 -0.3286  0.1788 -0.2194
  670MOL0     C90351   0.722  -1.555   3.959  1.8436 -0.6831  0.4977
  670MOL0     C90352   0.664  -1.611   3.822 -0.6409  0.2977  0.2298
  670MOL0     C90353   0.513  -1.620   3.834 -0.3021  0.0423 -1.8850
  670MOL0     C90354   0.449  -1.716   3.732 -0.2705  0.6454 -0.1247
  670MOL0     C90355   0.472  -1.662   3.586  0.9617 -0.0928  1.1994
  670MOL0     C90356   0.392  -1.754   3.487  0.0580 -0.8498  0.2131
  670MOL0     C90357   0.452  -1.884   3.451  0.0766 -0.2038 -0.4902
  670MOL0     C90358   0.362  -1.993   3.392  0.6859 -0.2606 -0.2951
  670MOL0    Cl90359   0.232  -2.035   3.509  0.0597  0.1044  0.0101
  670MOL0     C90360   0.782  -1.398   4.193 -0.8993 -1.0042  0.4262
  670MOL0     C90361   0.768  -1.336   4.317 -0.5337 -0.3547 -0.2302
  670MOL0     O90362   0.483  -1.070   4.464 -0.7412 -0.1698 -0.3855
  670MOL0     C90363   0.453  -1.071   4.752  0.4261 -0.4810  0.3257
  670MOL0     C90364   0.449  -1.060   4.893  0.2397  0.4506  0.0181
  670MOL0     N90365   0.870  -1.105   5.570 -0.5347  0.8090  0.6686
  670MOL0     N90366   0.947  -1.048   5.656  0.2780  0.1034 -0.2639
  670MOL0     C90367   1.042   0.043   5.445  0.0226  0.9585  0.2820
  670MOL0     C90368   1.055   0.118   5.330 -0.4427 -0.2788 -0.3770
  670MOL0     C90369   1.030   0.512   5.056 -0.5907  0.3712 -0.1631
  670MOL0     C90370   1.083   0.639   5.071 -0.6559  1.5100 -0.0970
  670MOL0     C90371   1.097   0.722   4.971 -0.0665 -0.4249  1.0477
  670MOL0     C90372   1.056   0.687   4.840 -0.3546  0.2944 -0.2418
  670MOL0     O90373   1.055   0.763   4.727 -0.4589  0.0153 -1.1144
  670MOL0     C90374   1.131   0.889   4.742 -0.0698  0.3905 -0.5777
  670MOL0     C90375   1.281   0.862   4.758 -0.9612  0.2187 -0.1430
  670MOL0     C90376   1.325   0.769   4.652 -0.0140  0.7732  0.1183
  670MOL0     C90377   1.316   0.824   4.502 -0.4256 -0.2062  0.0639
  670MOL0     C90378   1.375   0.717   4.417 -0.0476 -1.0054 -0.8889
  670MOL0     C90379   1.420   0.640   4.338 -0.1063  0.8953 -0.0747
  670MOL0     C90380   1.018   0.558   4.823 -0.3828 -0.0056  0.7141
  670MOL0     C90381   1.004   0.470   4.924 -0.7169 -0.2945 -0.5439
  670MOL0     C90382   0.967   0.332   4.883 -0.4035  0.9243 -0.7018
  670MOL0     H90383   0.828   0.367   5.392  0.1823 -0.3677 -1.3421
  670MOL0     H90384   0.804   0.231   5.593  0.1360 -0.9081  2.1938
  670MOL0     H90385   0.732   0.044   5.691  0.6132 -0.3247 -1.8480
  670MOL0     H90386   0.728  -0.094   5.597  0.4278 -0.9748 -0.5641
  670MOL0     H90387   0.693  -0.119   5.854  0.4428 -0.0922  1.9122
  670MOL0     H90388   0.850  -0.070   5.871 -4.9471  3.3741  2.4277
  670MOL0     H90389   0.948  -0.277   5.762 -0.7632 -0.4940 -1.0307
  670MOL0     H90390   0.795  -0.321   5.687  0.6744 -1.5591 -1.7373
  670MOL0     H90391   0.880  -0.370   5.970 -1.0584 -1.0340  1.2060
  670MOL0     H90392   0.707  -0.340   5.930  0.0182 -0.9396  0.3758
  670MOL0     H90393   0.756  -0.556   5.948  2.0280  0.4815 -0.1450
  670MOL0     H90394   0.705  -0.533   5.784  0.1571 -3.4537 -0.7126
  670MOL0     H90395   0.945  -0.558   5.705 -1.4369 -3.2673 -1.5170
  670MOL0     H90396   0.995  -0.570   5.875  0.7738  2.8929 -0.7050
  670MOL0     H90397   0.787  -0.751   5.753 -0.9477  0.9665  1.2929
  670MOL0     H90398   0.878  -0.795   5.891  4.4497 -0.9327 -0.2405
  670MOL0     H90399   1.055  -0.722   5.665  0.2786  3.5759  3.4368
  670MOL0     H90400   1.077  -0.840   5.795  1.1808 -4.7341 -3.3131
  670MOL0     H90401   0.863  -0.785   5.477  1.8271  1.3022  2.7810
  670MOL0     H90402   0.797  -1.074   5.283 -0.8958  1.3988 -0.4965
  670MOL0     H90403   0.679  -1.135   5.407  1.4853 -1.5266 -1.0450
  670MOL0     H90404   0.637  -0.859   5.418 -0.8098 -1.0733  0.8879
  670MOL0     H90405   0.695  -0.882   5.249 -0.5064 -1.6690 -0.9777
  670MOL0     H90406   0.445  -0.917   5.366 -0.3726  0.9909 -1.7511
  670MOL0     H90407   0.494  -1.080   5.353  0.9444 -0.7134 -2.0829
  670MOL0     H90408   0.500  -0.912   5.095 -0.2491 -0.8941 -1.7613
  670MOL0     H90409   0.363  -1.022   5.151  0.6522 -1.4915 -1.2128
  670MOL0     H90410   0.748  -1.199   4.963 -0.1005  1.2520  1.5339
  670MOL0     H90411   0.763  -1.217   4.732  0.5222  0.7217  0.8430
  670MOL0     H90412   0.544  -1.097   4.238  1.6088  1.1391 -0.6781
  670MOL0     H90413   0.548  -1.222   4.031 -1.0150  0.7452  0.7872
  670MOL0     H90414   0.831  -1.566   3.969  2.1770  2.4274  1.4109
  670MOL0     H90415   0.692  -1.616   4.045  2.4117 -1.7533 -0.0323
  670MOL0     H90416   0.693  -1.557   3.731 -0.2968 -0.4752 -0.1312
  670MOL0     H90417   0.710  -1.709   3.814 -0.4736  0.1682  2.2858
  670MOL0     H90418   0.497  -1.672   3.929  2.5108  1.4687 -0.4787
  670MOL0     H90419   0.464  -1.523   3.832 -2.5295 -0.7250  2.8046
  670MOL0     H90420   0.344  -1.736   3.752 -0.0664  1.2709  1.8915
  670MOL0     H90421   0.488  -1.818   3.743  1.5760  1.1709 -1.3223
  670MOL0     H90422   0.581  -1.668   3.579  1.0798  1.7219  1.1373
  670MOL0     H90423   0.445  -1.557   3.575  2.2596  0.2958  1.5385
  670MOL0     H90424   0.289  -1.766   3.521 -0.4334  0.4924 -0.6810
  670MOL0     H90425   0.385  -1.696   3.395  2.6559 -1.9827 -0.7855
  670MOL0     H90426   0.510  -1.926   3.533 -1.0476  2.0606  1.6090
  670MOL0     H90427   0.527  -1.855   3.377  0.6982 -0.2645  0.1097
  670MOL0     H90428   0.307  -1.951   3.307  0.2305  0.0225  0.1317
  670MOL0     H90429   0.421  -2.082   3.367  2.6688  0.0811  2.7370
  670MOL0     H90430   0.845  -1.485   4.176 -0.7614 -0.4827 -2.0885
  670MOL0     H90431   0.826  -1.372   4.401 -1.4334 -0.5552  0.3228
  670MOL0     H90432   0.371  -1.040   4.688  0.3432  0.1354  0.7213
  670MOL0     H90433   0.352  -1.039   4.936 -0.9414 -1.1335 -1.6877
  670MOL0     H90434   1.099  -0.049   5.452 -3.6944 -1.6164 -0.5370
  670MOL0     H90435   1.115   0.081   5.248 -0.0206 -0.4000 -0.0200
  670MOL0     H90436   1.121   0.686   5.162 -0.1808  2.9863 -1.0278
  670MOL0     H90437   1.133   0.820   5.000  0.0638 -1.1569  3.5832
  670MOL0     H90438   1.099   0.949   4.827  1.9806  1.2419 -0.3545
  670MOL0     H90439   1.113   0.943   4.648 -1.8503 -4.8557 -3.6708
  670MOL0     H90440   1.297   0.812   4.854  3.2687  0.1255 -0.7138
  670MOL0     H90441   1.345   0.951   4.754 -0.9369  0.1726 -0.8107
  670MOL0     H90442   1.269   0.675   4.656 -1.5421  1.5364 -1.7099
  670MOL0     H90443   1.431   0.751   4.672 -0.1372 -1.4303 -0.9078
  670MOL0     H90444   1.209   0.827   4.479 -0.5393 -1.3091  0.3596
  670MOL0     H90445   1.358   0.922   4.482  2.3428 -1.0392  1.4146
  670MOL0     H90446   1.466   0.571   4.270 -0.8794  0.5395 -0.2529
  670MOL0     H90447   0.992   0.525   4.722 -0.6183  1.5358  0.2498
  670MOL0     H90448   1.039   0.278   4.820 -1.7528  1.0773 -2.4594
  670MOL0     H90449   0.938   0.263   4.962 -0.0079  1.3037 -0.2127
  670MOL0     H90450   0.883   0.343   4.814 -2.4086  0.0887  1.4977
  671MOL0     O90451   6.570   5.281   0.800  0.2982  0.1865  0.0654
  671MOL0     C90452   6.582   5.389   0.732  0.4181  0.0356 -1.1859
  671MOL0     O90453   6.474   5.469   0.715 -0.4320  0.1443 -0.1279
  671MOL0     C90454   6.350   5.434   0.735 -0.0184  0.0896 -1.3545
  671MOL0     C90455   6.301   5.438   0.865  0.4868 -0.9549 -0.1704
  671MOL0     C90456   6.165   5.397   0.891 -0.3442 -0.8288 -1.2232
  671MOL0     C90457   6.082   5.356   0.794  0.4724  0.4522  0.1356
  671MOL0     O90458   5.946   5.323   0.798  0.0267 -0.4158 -0.0308
  671MOL0     C90459   5.898   5.301   0.934  1.3153  0.8353 -0.0847
  671MOL0     C90460   5.749   5.252   0.924  0.0650 -0.0964 -0.5020
  671MOL0     C90461   5.654   5.323   0.824 -0.0249  0.1433  0.1531
  671MOL0     C90462   5.528   5.235   0.834 -0.6185  1.0111 -0.4601
  671MOL0     C90463   5.422   5.295   0.738 -0.0477  0.2342  0.3877
  671MOL0     C90464   5.297   5.214   0.725 -0.4010 -0.2339  0.5455
  671MOL0     C90465   5.319   5.090   0.637  0.1760  0.0045  0.1038
  671MOL0     C90466   5.256   5.088   0.495  0.0310 -0.4405  0.4336
  671MOL0     N90467   5.114   5.102   0.505  0.1350 -0.5854  0.0576
  671MOL0     C90468   5.031   5.196   0.452  0.0619 -0.0293  0.2314
  671MOL0     C90469   4.901   5.155   0.477  0.4346 -0.6023  0.5419
  671MOL0     C90470   4.778   5.218   0.411  1.0717  0.0992  0.4617
  671MOL0     C90471   4.695   5.092   0.356  0.0744 -0.1805 -0.5615
  671MOL0     C90472   4.591   5.131   0.241 -0.2431 -0.3816 -0.4164
  671MOL0     C90473   4.488   5.009   0.222  0.4810  0.4468 -0.0173
  671MOL0     O90474   4.402   4.996   0.342  0.1760  0.2837  0.0803
  671MOL0     C90475   4.390   4.866   0.375 -0.0444  0.7230  0.2283
  671MOL0     C90476   4.445   4.821   0.504  0.9891  0.2228  0.2638
  671MOL0     C90477   4.441   4.696   0.542 -0.2815 -0.2511 -1.0030
  671MOL0     C90478   4.406   4.593   0.454  0.1403 -0.2220  0.3906
  671MOL0     C90479   4.424   4.450   0.500 -0.3708 -0.4128  0.5754
  671MOL0     O90480   4.451   4.356   0.396  1.0476  0.0528  0.6565
  671MOL0     C90481   4.513   4.241   0.436  0.0266  1.0661  0.3091
  671MOL0     C90482   4.488   4.119   0.372 -0.0142  0.1775  0.4454
  671MOL0     C90483   4.548   3.993   0.409 -0.7337 -1.0586  0.2241
  671MOL0     C90484   4.651   4.000   0.495  0.9399 -0.2470  0.1908
  671MOL0     O90485   4.700   3.881   0.531 -0.9236  0.7011  0.6259
  671MOL0     C90486   4.681   3.850   0.671  0.7032 -0.2069  0.4997
  671MOL0     C90487   4.596   3.719   0.686 -0.3527  0.6816  0.4813
  671MOL0     C90488   4.459   3.713   0.616  0.3870 -0.1092  0.0427
  671MOL0     C90489   4.356   3.808   0.672 -0.2428 -0.2953 -0.4904
  671MOL0     C90490   4.214   3.777   0.622 -0.2240 -0.1811 -1.0765
  671MOL0     C90491   4.102   3.886   0.642 -0.0593  0.5773 -0.1822
  671MOL0     C90492   4.151   4.024   0.589  0.0065  0.9287 -0.2781
  671MOL0     C90493   4.040   4.130   0.591 -0.0787  0.6092 -0.3976
  671MOL0    Cl90494   3.896   4.067   0.496  0.1440  0.2958  0.1615
  671MOL0     C90495   4.690   4.120   0.557  0.1365 -0.7501  0.0401
  671MOL0     C90496   4.624   4.234   0.523  1.1213 -1.2322  0.1113
  671MOL0     O90497   4.410   4.418   0.618 -0.0727  0.2568  0.6793
  671MOL0     C90498   4.357   4.630   0.322  0.1203  0.6540 -0.4132
  671MOL0     C90499   4.352   4.763   0.283 -0.3996  0.2097 -0.2506
  671MOL0     N90500   4.914   5.049   0.571  0.2462  0.1606 -0.1747
  671MOL0     N90501   5.036   5.017   0.576  0.0040 -0.5568 -0.6408
  671MOL0     C90502   6.137   5.351   0.664 -0.2011  0.1401 -0.3775
  671MOL0     C90503   6.268   5.385   0.632 -0.1389  0.6040 -0.5870
  671MOL0     C90504   6.707   5.444   0.694  0.7280  0.1115 -0.1248
  671MOL0     C90505   6.805   5.353   0.640  0.1389  0.6929 -0.1457
  671MOL0     C90506   6.932   5.395   0.587  0.4193 -0.5165  0.1708
  671MOL0     C90507   6.969   5.523   0.611  0.5039 -0.2459 -0.4048
  671MOL0     O90508   7.095   5.564   0.574 -0.4018  0.1903  0.8381
  671MOL0     C90509   7.106   5.696   0.523  0.9711 -0.4615 -1.1341
  671MOL0     C90510   7.195   5.779   0.617 -0.4120  0.7798  0.6910
  671MOL0     C90511   7.252   5.915   0.570  0.5703  0.4288  0.1443
  671MOL0     C90512   7.137   6.009   0.534  0.5212  0.7395 -0.0574
  671MOL0     C90513   7.043   6.038   0.642 -0.0582 -0.3301 -1.0884
  671MOL0     C90514   6.964   6.070   0.730 -0.5737  0.3200  0.9067
  671MOL0     C90515   6.880   5.618   0.676 -0.5110 -0.6987 -0.1852
  671MOL0     C90516   6.748   5.579   0.716  0.1662  0.4178 -0.0458
  671MOL0     C90517   6.661   5.684   0.778  0.2450  0.4779 -0.0814
  671MOL0     H90518   6.352   5.486   0.948 -2.0975  3.1963 -0.7043
  671MOL0     H90519   6.146   5.429   0.993  2.7736  0.3264 -0.9227
  671MOL0     H90520   5.958   5.227   0.989  1.5474  2.1793  1.5774
  671MOL0     H90521   5.905   5.396   0.989 -0.3893  2.0507 -1.8551
  671MOL0     H90522   5.713   5.251   1.027 -0.9744 -3.6164 -0.7707
  671MOL0     H90523   5.751   5.147   0.892 -1.0596  0.2714 -1.8889
  671MOL0     H90524   5.701   5.327   0.726  3.4776  1.2257  1.7011
  671MOL0     H90525   5.632   5.423   0.862  1.5547 -1.5214  6.8688
  671MOL0     H90526   5.546   5.132   0.804  2.7257  1.1781  0.6076
  671MOL0     H90527   5.492   5.244   0.937  3.2719 -1.5214  1.3225
  671MOL0     H90528   5.399   5.394   0.779  2.0371  1.6468 -1.5965
  671MOL0     H90529   5.455   5.319   0.637  0.1661  0.5603  0.5328
  671MOL0     H90530   5.257   5.188   0.824 -2.4782 -0.6917 -0.3579
  671MOL0     H90531   5.228   5.274   0.665  0.9935 -0.9012 -1.8575
  671MOL0     H90532   5.281   5.007   0.697  2.5252 -3.1347 -2.4224
  671MOL0     H90533   5.427   5.074   0.630  0.5666  1.8348  1.1492
  671MOL0     H90534   5.297   5.169   0.435  0.5693 -1.0158  0.0150
  671MOL0     H90535   5.284   5.003   0.432 -1.4635 -1.2144  0.7471
  671MOL0     H90536   5.061   5.284   0.395 -1.7968  0.9700  0.7045
  671MOL0     H90537   4.738   5.282   0.490  2.1250  1.7055 -0.2462
  671MOL0     H90538   4.807   5.286   0.330 -1.9104  1.3216  0.2928
  671MOL0     H90539   4.766   5.019   0.316 -0.3945  1.0854 -4.0299
  671MOL0     H90540   4.651   5.045   0.444 -3.3919 -1.1159 -2.6319
  671MOL0     H90541   4.653   5.149   0.152  2.0952 -1.0177  0.9813
  671MOL0     H90542   4.526   5.216   0.262  1.6100  0.6802  1.4677
  671MOL0     H90543   4.546   4.917   0.208  0.3431 -0.0378  2.1463
  671MOL0     H90544   4.424   5.030   0.136  2.5662 -0.7848 -1.9951
  671MOL0     H90545   4.479   4.904   0.566  0.9496 -2.0083  3.5382
  671MOL0     H90546   4.485   4.666   0.637 -1.0486 -2.3939 -1.2790
  671MOL0     H90547   4.411   4.117   0.295 -0.6779 -2.8612  1.0320
  671MOL0     H90548   4.529   3.897   0.361 -5.1538 -0.4883  0.4480
  671MOL0     H90549   4.775   3.830   0.725 -0.0558  2.2386  2.9943
  671MOL0     H90550   4.631   3.935   0.718 -1.2964 -1.5140  0.8419
  671MOL0     H90551   4.654   3.643   0.631 -5.0573 -2.8242 -0.2948
  671MOL0     H90552   4.589   3.673   0.785  1.0003 -1.0138 -0.1479
  671MOL0     H90553   4.460   3.728   0.508 -2.7366 -0.5128 -0.1342
  671MOL0     H90554   4.413   3.616   0.635  0.2861  0.0940  0.9089
  671MOL0     H90555   4.395   3.905   0.639 -0.2212 -0.2587 -0.3564
  671MOL0     H90556   4.351   3.806   0.781  4.1602  0.7151 -0.0714
  671MOL0     H90557   4.186   3.695   0.689  1.1036  0.3464  0.1714
  671MOL0     H90558   4.224   3.752   0.516  2.3170  1.3683 -1.2767
  671MOL0     H90559   4.006   3.866   0.594 -0.8230  0.9956  1.0898
  671MOL0     H90560   4.081   3.910   0.747  0.2962  0.3026 -0.0442
  671MOL0     H90561   4.170   4.009   0.482 -0.3350  0.9035 -0.3341
  671MOL0     H90562   4.244   4.058   0.636 -0.6560  2.6234 -0.1531
  671MOL0     H90563   4.012   4.146   0.695  1.7028 -0.5781  0.2954
  671MOL0     H90564   4.094   4.220   0.559  0.8696  1.9962  4.3508
  671MOL0     H90565   4.772   4.134   0.628  1.2490  3.8586 -1.7599
  671MOL0     H90566   4.647   4.331   0.566  1.8201 -2.2966  2.2630
  671MOL0     H90567   4.331   4.554   0.249  3.7584  0.1196 -1.3871
  671MOL0     H90568   4.302   4.792   0.192  0.5531  3.0811  0.0332
  671MOL0     H90569   6.063   5.315   0.593 -0.3577 -0.1235 -0.0841
  671MOL0     H90570   6.319   5.383   0.536  1.2929  3.0358  0.0492
  671MOL0     H90571   6.780   5.248   0.630 -0.4124  0.8218 -0.1681
  671MOL0     H90572   7.003   5.328   0.541 -0.4826 -1.1127 -0.3950
  671MOL0     H90573   7.014   5.752   0.508  0.8320  0.5474  2.5605
  671MOL0     H90574   7.164   5.696   0.430  3.3124  3.9988  0.0371
  671MOL0     H90575   7.282   5.715   0.636 -0.6806  0.8323  2.2272
  671MOL0     H90576   7.139   5.792   0.709  0.6367  0.5129  1.3826
  671MOL0     H90577   7.328   5.910   0.491  0.3118 -1.3504 -0.0298
  671MOL0     H90578   7.298   5.955   0.661 -0.3877  1.7938  0.0500
  671MOL0     H90579   7.195   6.099   0.510  2.4519 -0.3840  0.1176
  671MOL0     H90580   7.084   5.978   0.444  0.8324 -0.1072  0.0391
  671MOL0     H90581   6.895   6.110   0.802 -3.3806 -1.5635 -0.5827
  671MOL0     H90582   6.903   5.723   0.685 -0.5142 -0.8246  1.7819
  671MOL0     H90583   6.554   5.673   0.757  0.1580  0.2690  0.4608
  671MOL0     H90584   6.667   5.680   0.887 -1.5903 -2.3307  0.0143
  671MOL0     H90585   6.678   5.787   0.745  0.3252  0.1931 -0.9708
  672MOL0     O90586  10.693   3.163  10.589 -0.6531  0.6487 -0.6144
  672MOL0     C90587  10.803   3.160  10.535  0.8760 -0.3348  0.6147
  672MOL0     O90588  10.919   3.116  10.592 -0.2051  0.2629 -0.2760
  672MOL0     C90589  10.956   3.143  10.726  0.4512  0.2439 -0.0259
  672MOL0     C90590  10.889   3.229  10.815  0.3462 -0.6626  0.3371
  672MOL0     C90591  10.922   3.234  10.947  0.3851  0.9648  0.1236
  672MOL0     C90592  11.027   3.150  11.002  0.8577  0.8632 -0.0031
  672MOL0     O90593  11.067   3.165  11.131 -0.0485 -0.2621  0.9983
  672MOL0     C90594  11.068   3.299  11.191  0.2661  0.8033 -0.2808
  672MOL0     C90595  11.137   3.301  11.325  0.5221 -0.7396  0.3090
  672MOL0     C90596  11.061   3.200  11.415  0.6444 -1.4867  0.4003
  672MOL0     C90597  11.134   3.199  11.556  0.3705  0.1820 -0.8495
  672MOL0     C90598  11.110   3.069  11.636 -1.2690 -1.2542  0.1502
  672MOL0     C90599  10.959   3.052  11.671  0.3301 -0.3341 -0.3690
  672MOL0     C90600  10.945   2.914  11.742  0.2826 -0.7517 -0.3072
  672MOL0     C90601  10.828   2.830  11.677  0.3873 -0.0645 -0.7432
  672MOL0     N90602  10.851   2.762  11.548 -1.4797 -0.5304 -0.0708
  672MOL0     C90603  10.913   2.828  11.436  0.6711 -0.5958  0.6341
  672MOL0     C90604  10.901   2.736  11.343 -0.3046  0.2598  1.5963
  672MOL0     C90605  10.913   2.773  11.196 -0.4514  1.0685  0.0992
  672MOL0     C90606  10.998   2.672  11.114 -0.5564 -0.0561  0.4566
  672MOL0     C90607  10.992   2.708  10.968  0.7037 -0.3263 -0.2145
  672MOL0     C90608  10.848   2.677  10.906 -0.1724  1.1460  0.3287
  672MOL0     O90609  10.851   2.731  10.773  0.8925  0.1595  0.4097
  672MOL0     C90610  10.751   2.703  10.692  0.0656  0.2998 -1.0009
  672MOL0     C90611  10.689   2.577  10.687 -0.2860  0.4328 -1.4291
  672MOL0     C90612  10.589   2.551  10.604 -0.5177 -0.8492 -0.0693
  672MOL0     C90613  10.528   2.646  10.526  0.9270  0.1489 -1.1120
  672MOL0     C90614  10.444   2.616  10.413  0.7479 -0.6017  1.4817
  672MOL0     O90615  10.421   2.478  10.391 -0.2464 -0.6916 -0.5260
  672MOL0     C90616  10.330   2.430  10.303 -0.5368 -1.0205  0.2588
  672MOL0     C90617  10.341   2.439  10.163 -0.2614 -0.4131 -0.9878
  672MOL0     C90618  10.241   2.395  10.077  0.8403 -0.2049 -0.2857
  672MOL0     C90619  10.125   2.343  10.129 -1.5229  0.0023 -0.3712
  672MOL0     O90620  10.034   2.289  10.034 -0.3229 -0.6619  0.5874
  672MOL0     C90621   9.922   2.208  10.073 -0.4575  0.0337  0.3839
  672MOL0     C90622   9.854   2.145   9.953 -0.5420 -0.0383 -0.4112
  672MOL0     C90623   9.953   2.035   9.902  0.2309 -0.5771  0.3219
  672MOL0     C90624   9.882   1.989   9.764  0.2635 -0.1706 -0.9251
  672MOL0     C90625   9.933   1.846   9.739  0.1800 -0.2336 -0.4526
  672MOL0     C90626   9.838   1.742   9.690 -0.0403  0.2676 -0.2688
  672MOL0     C90627   9.751   1.686   9.802 -1.0897 -0.3787 -0.1527
  672MOL0     C90628   9.654   1.590   9.745 -0.1101  0.1831  0.3322
  672MOL0    Cl90629   9.510   1.573   9.850  0.6585  0.0191  0.1390
  672MOL0     C90630  10.113   2.327  10.272 -0.2248  0.4420  1.2506
  672MOL0     C90631  10.215   2.372  10.353 -0.7534 -0.3612  0.8809
  672MOL0     O90632  10.390   2.708  10.355  0.2244  0.5506 -0.8272
  672MOL0     C90633  10.572   2.777  10.544 -0.2265 -0.3238 -0.8283
  672MOL0     C90634  10.676   2.811  10.633  0.6181  0.3176 -0.1554
  672MOL0     N90635  10.857   2.614  11.387 -1.1563 -0.2680 -0.1886
  672MOL0     N90636  10.824   2.627  11.512  0.0108 -0.0394  0.6023
  672MOL0     C90637  11.094   3.065  10.919 -0.2422 -0.1339  0.0469
  672MOL0     C90638  11.052   3.056  10.777 -0.6244 -0.4537  0.1735
  672MOL0     C90639  10.791   3.167  10.387 -0.3824 -1.2858  0.4673
  672MOL0     C90640  10.887   3.104  10.315 -0.1629 -0.0609 -0.3451
  672MOL0     C90641  10.874   3.088  10.177 -0.9408 -0.0670 -0.5099
  672MOL0     C90642  10.762   3.127  10.104  1.0401 -0.1639  0.4910
  672MOL0     O90643  10.740   3.120   9.966 -0.6769  0.0315  0.2092
  672MOL0     C90644  10.786   3.002   9.890 -0.2681 -0.6596  0.1207
  672MOL0     C90645  10.824   3.041   9.751 -0.4941 -0.3859 -0.1689
  672MOL0     C90646  10.945   3.134   9.757 -0.6539  0.1464  0.5485
  672MOL0     C90647  10.999   3.175   9.618  0.1076  0.7890 -0.6828
  672MOL0     C90648  10.907   3.264   9.553 -0.2024  0.5486  0.5140
  672MOL0     C90649  10.831   3.333   9.497  0.0843  0.1693  0.3223
  672MOL0     C90650  10.665   3.200  10.175 -0.3197 -0.9432  0.1075
  672MOL0     C90651  10.673   3.221  10.315 -0.8265 -0.1984  1.2189
  672MOL0     C90652  10.571   3.312  10.375 -0.3769 -0.1987  0.4970
  672MOL0     H90653  10.804   3.291  10.787  0.5876  0.0788  1.2297
  672MOL0     H90654  10.860   3.307  10.997 -3.1252 -1.7488  0.1106
  672MOL0     H90655  11.096   3.378  11.122  0.4215 -0.1906 -1.3944
  672MOL0     H90656  10.964   3.327  11.207  0.2901  0.8339 -0.1791
  672MOL0     H90657  11.127   3.399  11.374 -1.2835 -0.4398 -0.6123
  672MOL0     H90658  11.243   3.274  11.317  0.8567  0.5578  0.0073
  672MOL0     H90659  11.053   3.105  11.360 -3.8873  0.1939 -2.4382
  672MOL0     H90660  10.962   3.245  11.423  1.9681  1.5999  0.7703
  672MOL0     H90661  11.243   3.209  11.553  0.6946 -2.7260 -1.9694
  672MOL0     H90662  11.102   3.274  11.628  0.1412 -2.1501  1.6544
  672MOL0     H90663  11.141   2.983  11.576  2.6180 -1.2127  1.8187
  672MOL0     H90664  11.177   3.065  11.722  0.2980  1.0262 -0.8835
  672MOL0     H90665  10.917   3.141  11.719 -0.7067 -2.1732  2.3326
  672MOL0     H90666  10.919   3.054  11.569  0.7818 -1.0334 -0.5656
  672MOL0     H90667  10.920   2.945  11.844  1.6248  2.0060 -0.7092
  672MOL0     H90668  11.039   2.859  11.746  2.4537  2.6387 -0.5179
  672MOL0     H90669  10.808   2.746  11.744 -1.5063 -0.9489 -2.3082
  672MOL0     H90670  10.738   2.890  11.661  1.7734  2.3507  0.0967
  672MOL0     H90671  10.920   2.935  11.423  0.4380 -0.4412  1.7086
  672MOL0     H90672  10.809   2.769  11.162 -1.1641  1.5250  2.0724
  672MOL0     H90673  10.949   2.874  11.176 -1.9159  1.2363 -2.0530
  672MOL0     H90674  11.101   2.674  11.151 -0.1200  1.4185 -0.7486
  672MOL0     H90675  10.943   2.580  11.137  0.2027 -0.4415  0.7605
  672MOL0     H90676  11.075   2.647  10.931  0.4589 -2.0010  1.7631
  672MOL0     H90677  11.008   2.816  10.962 -2.3480  0.4749  2.7638
  672MOL0     H90678  10.767   2.727  10.959 -0.2370  1.4310 -0.0386
  672MOL0     H90679  10.843   2.567  10.908  0.6792  1.0655 -0.8787
  672MOL0     H90680  10.707   2.492  10.752 -3.1769  1.4868  0.9263
  672MOL0     H90681  10.562   2.447  10.589 -0.9822 -0.3341 -3.8344
  672MOL0     H90682  10.443   2.449  10.127 -0.3674 -1.2385 -1.5401
  672MOL0     H90683  10.259   2.419   9.972 -2.6222  1.7737 -0.5656
  672MOL0     H90684   9.966   2.138  10.145 -1.2844  0.3821  1.2398
  672MOL0     H90685   9.846   2.273  10.116  0.8983  1.5493  0.5617
  672MOL0     H90686   9.753   2.109   9.975 -1.7641  2.4264 -1.5835
  672MOL0     H90687   9.850   2.217   9.870  4.4247 -0.0967 -0.9945
  672MOL0     H90688  10.053   2.077   9.886  0.5493 -0.9495  1.2379
  672MOL0     H90689   9.970   1.953   9.973  1.9994 -0.2385  0.3563
  672MOL0     H90690   9.917   2.052   9.682  1.6018 -2.9624 -2.6189
  672MOL0     H90691   9.773   2.000   9.755  0.1851 -1.1450 -1.3361
  672MOL0     H90692   9.989   1.802   9.822  1.0351 -1.3038 -1.5571
  672MOL0     H90693  10.009   1.848   9.660 -1.3289 -1.3277 -2.0092
  672MOL0     H90694   9.763   1.783   9.622  1.4972 -0.5371 -2.5736
  672MOL0     H90695   9.895   1.662   9.642  2.6139 -0.0687  3.0329
  672MOL0     H90696   9.700   1.767   9.854  1.2324  0.0204  1.6923
  672MOL0     H90697   9.809   1.646   9.886  2.3434  4.5679  0.2814
  672MOL0     H90698   9.641   1.611   9.639 -1.6839 -2.9185 -0.1987
  672MOL0     H90699   9.706   1.494   9.753  1.7378  1.2027  1.2423
  672MOL0     H90700  10.026   2.273  10.307 -0.4453 -1.0135 -1.2960
  672MOL0     H90701  10.201   2.356  10.460  0.9366  2.3332  1.6091
  672MOL0     H90702  10.532   2.861  10.486 -0.7871 -1.2411 -1.8070
  672MOL0     H90703  10.704   2.915  10.626 -0.0471  0.3999 -2.8452
  672MOL0     H90704  11.181   3.009  10.950  0.8951  0.8370 -1.3034
  672MOL0     H90705  11.092   2.981  10.710 -0.3276  0.4829 -0.7096
  672MOL0     H90706  10.981   3.085  10.367  0.6304 -0.9118 -1.9930
  672MOL0     H90707  10.952   3.054  10.111 -0.7816  5.6343 -3.9550
  672MOL0     H90708  10.710   2.925   9.880 -0.1095 -0.7837 -0.1397
  672MOL0     H90709  10.872   2.951   9.933  0.9951 -0.7066 -2.2711
  672MOL0     H90710  10.746   3.087   9.690  0.2170  0.8998 -0.1373
  672MOL0     H90711  10.852   2.950   9.695  0.3998  0.5416 -1.2932
  672MOL0     H90712  11.032   3.091   9.807  0.7819  2.5415  0.2309
  672MOL0     H90713  10.910   3.223   9.810  0.9591  0.0046  1.9394
  672MOL0     H90714  11.099   3.218   9.628  0.7379 -0.9258  1.0919
  672MOL0     H90715  10.997   3.083   9.558 -1.0679 -0.2855  0.8980
  672MOL0     H90716  10.772   3.401   9.439 -1.8285 -2.8330 -1.5425
  672MOL0     H90717  10.571   3.237  10.135 -0.0703  0.7101  0.9479
  672MOL0     H90718  10.500   3.250  10.431 -1.3064  0.5914  0.2362
  672MOL0     H90719  10.608   3.386  10.446 -0.5723 -2.0806  2.6721
  672MOL0     H90720  10.510   3.356  10.295  0.9157  2.9937  1.1120
  673MOL0     O90721   3.239   0.839   4.207 -0.6228 -0.4416  0.4603
  673MOL0     C90722   3.164   0.763   4.141  0.2256  0.0006 -0.0604
  673MOL0     O90723   3.168   0.627   4.155 -0.3529 -0.4243 -0.1976
  673MOL0     C90724   3.277   0.573   4.216 -0.5587 -0.3182  0.1506
  673MOL0     C90725   3.410   0.623   4.229 -0.8981 -0.0472 -0.2787
  673MOL0     C90726   3.504   0.548   4.300 -0.0356  0.0352  1.0150
  673MOL0     C90727   3.482   0.419   4.339 -0.1708 -0.4264 -1.1089
  673MOL0     O90728   3.576   0.328   4.386 -0.1322 -0.3126 -0.2777
  673MOL0     C90729   3.714   0.364   4.379 -0.3210  0.0193 -0.1071
  673MOL0     C90730   3.809   0.282   4.474 -0.0584 -0.9806 -0.0174
  673MOL0     C90731   3.834   0.143   4.416 -0.2811 -0.0937  1.3438
  673MOL0     C90732   3.897   0.038   4.506  0.5989 -0.5559  0.5864
  673MOL0     C90733   3.929  -0.091   4.429 -0.3095 -0.1577  0.3189
  673MOL0     C90734   3.927  -0.221   4.511 -0.6530  0.4058 -0.6252
  673MOL0     C90735   3.783  -0.275   4.541 -0.9168 -0.0033 -0.4604
  673MOL0     C90736   3.687  -0.289   4.421 -0.9463  0.4068 -0.1742
  673MOL0     N90737   3.718  -0.400   4.326  0.0570  0.1466 -0.3650
  673MOL0     C90738   3.774  -0.386   4.202 -0.3125  0.1321  0.0894
  673MOL0     C90739   3.778  -0.512   4.151 -1.3278 -0.2626 -0.5800
  673MOL0     C90740   3.844  -0.570   4.020  0.2441  0.7877  0.3510
  673MOL0     C90741   3.745  -0.650   3.937  0.1937 -0.4485 -0.2125
  673MOL0     C90742   3.618  -0.571   3.897 -0.2273 -1.8523 -0.4807
  673MOL0     C90743   3.528  -0.654   3.818 -0.3899  0.2158  0.2955
  673MOL0     O90744   3.400  -0.586   3.801  0.5800 -0.2071 -0.3144
  673MOL0     C90745   3.313  -0.624   3.701  0.4698 -0.3154  0.0774
  673MOL0     C90746   3.183  -0.644   3.754 -0.6646 -0.6520  0.1363
  673MOL0     C90747   3.084  -0.666   3.663 -0.3456  0.7869 -0.0142
  673MOL0     C90748   3.124  -0.696   3.529  0.7396  0.4702 -0.6152
  673MOL0     C90749   3.019  -0.730   3.421  0.0358 -0.3547 -0.8816
  673MOL0     O90750   2.888  -0.760   3.475  0.1036  0.5525 -0.4359
  673MOL0     C90751   2.781  -0.790   3.394 -1.2075  0.0283  0.1449
  673MOL0     C90752   2.682  -0.873   3.446  0.2024  0.2549  0.2300
  673MOL0     C90753   2.572  -0.909   3.377  0.3730  0.0917 -0.0445
  673MOL0     C90754   2.548  -0.851   3.245 -0.6456 -0.4395 -0.4769
  673MOL0     O90755   2.447  -0.871   3.155 -0.0179 -0.2450  0.0438
  673MOL0     C90756   2.323  -0.942   3.191 -0.0258  0.2157 -0.7047
  673MOL0     C90757   2.228  -0.964   3.067  1.2543  0.1468 -0.1622
  673MOL0     C90758   2.278  -0.943   2.920  0.3172 -0.0041 -0.2926
  673MOL0     C90759   2.209  -1.032   2.821  0.5970 -1.0361 -0.5537
  673MOL0     C90760   2.265  -1.007   2.682  0.4579 -0.1754 -0.1636
  673MOL0     C90761   2.404  -1.070   2.664 -0.3667  0.1231 -0.7220
  673MOL0     C90762   2.468  -1.080   2.527 -0.1687 -0.6483  1.0235
  673MOL0     C90763   2.481  -0.930   2.466 -0.9011  2.0546  0.2532
  673MOL0    Cl90764   2.588  -0.931   2.320  0.0250  0.1275 -0.4228
  673MOL0     C90765   2.641  -0.766   3.198 -0.4207 -1.3931  0.5291
  673MOL0     C90766   2.762  -0.733   3.264 -0.1647  1.1324 -0.7706
  673MOL0     O90767   3.054  -0.747   3.303 -0.5133  0.1050  0.0069
  673MOL0     C90768   3.257  -0.684   3.481  0.3388 -0.4119  0.4117
  673MOL0     C90769   3.347  -0.639   3.570  0.3782 -0.6277 -0.1801
  673MOL0     N90770   3.729  -0.595   4.249 -0.1058  0.5876  0.4762
  673MOL0     N90771   3.718  -0.534   4.361 -0.0806 -0.0063  0.4431
  673MOL0     C90772   3.354   0.375   4.332 -0.2821 -0.6244  0.6136
  673MOL0     C90773   3.255   0.447   4.268 -0.4276 -0.2547  0.6989
  673MOL0     C90774   3.064   0.818   4.050  0.1948 -0.8568  0.1168
  673MOL0     C90775   2.990   0.729   3.978  0.5240  0.4522 -0.6895
  673MOL0     C90776   2.896   0.781   3.889  1.2810  0.6935  0.1509
  673MOL0     C90777   2.873   0.918   3.868  0.4204 -0.1195  0.2715
  673MOL0     O90778   2.776   0.964   3.785  0.7033  0.5716  0.7380
  673MOL0     C90779   2.702   0.872   3.700  0.3391  0.0768 -0.3035
  673MOL0     C90780   2.592   0.946   3.616  0.2380 -0.0995  0.5115
  673MOL0     C90781   2.457   0.983   3.689 -0.3183 -1.2753 -0.5170
  673MOL0     C90782   2.480   1.106   3.780 -0.5319  0.3574 -0.5233
  673MOL0     C90783   2.356   1.132   3.852 -0.6280  0.4621 -0.7045
  673MOL0     C90784   2.254   1.156   3.918  0.4549  0.5245  0.8181
  673MOL0     C90785   2.956   1.002   3.935  0.6657  0.4705  0.1744
  673MOL0     C90786   3.048   0.957   4.025  0.5152 -0.4973 -0.3082
  673MOL0     C90787   3.134   1.071   4.079 -0.5340 -0.0943 -0.8939
  673MOL0     H90788   3.438   0.716   4.180  0.5976  0.0320  0.6433
  673MOL0     H90789   3.597   0.604   4.305 -1.1853  2.2534 -0.5786
  673MOL0     H90790   3.754   0.347   4.278 -0.1685 -1.0256  0.1096
  673MOL0     H90791   3.723   0.468   4.409 -4.4949  0.9207 -1.3806
  673MOL0     H90792   3.763   0.289   4.573 -0.2467  0.7709 -0.2011
  673MOL0     H90793   3.904   0.335   4.488 -1.3823  1.1632  1.5467
  673MOL0     H90794   3.912   0.157   4.341 -0.4911 -2.1290  0.6658
  673MOL0     H90795   3.744   0.111   4.362  0.6603  1.9208 -1.6584
  673MOL0     H90796   3.977   0.067   4.575 -1.6786  0.6272  2.8861
  673MOL0     H90797   3.820   0.010   4.578  0.0675 -1.1670 -0.1949
  673MOL0     H90798   3.867  -0.092   4.339  1.7649  0.5924 -1.1903
  673MOL0     H90799   4.034  -0.087   4.398 -0.7043  2.5429 -1.0684
  673MOL0     H90800   3.985  -0.307   4.475 -1.0368  1.3357 -3.7190
  673MOL0     H90801   3.970  -0.201   4.610 -1.0907  3.7231 -1.0215
  673MOL0     H90802   3.733  -0.218   4.620  1.1622 -0.3865  1.2073
  673MOL0     H90803   3.780  -0.370   4.596 -2.5377  1.5077  2.2934
  673MOL0     H90804   3.591  -0.306   4.469 -1.5730  2.4971 -0.5707
  673MOL0     H90805   3.682  -0.195   4.364  2.1575  1.0219  0.3825
  673MOL0     H90806   3.804  -0.293   4.153  0.4760 -1.0035 -1.7048
  673MOL0     H90807   3.881  -0.485   3.961  1.1149  1.4049  1.7150
  673MOL0     H90808   3.933  -0.627   4.048 -0.8073  0.8123  4.2610
  673MOL0     H90809   3.790  -0.682   3.843 -0.0817 -2.0224  0.1700
  673MOL0     H90810   3.727  -0.743   3.992  1.6076  0.1308  1.3287
  673MOL0     H90811   3.635  -0.483   3.834  0.4393 -0.4915  1.5129
  673MOL0     H90812   3.565  -0.551   3.991  0.1806 -0.6104 -0.4997
  673MOL0     H90813   3.507  -0.743   3.878 -1.1304  0.0807 -0.1495
  673MOL0     H90814   3.571  -0.681   3.720 -4.3412 -1.3614 -1.1988
  673MOL0     H90815   3.159  -0.652   3.860  0.0632 -0.6036  0.3092
  673MOL0     H90816   2.985  -0.685   3.704 -0.4723  3.0629  0.8440
  673MOL0     H90817   2.700  -0.914   3.544  1.2764  1.2456  0.4820
  673MOL0     H90818   2.496  -0.975   3.417  1.5846 -2.0040 -1.0235
  673MOL0     H90819   2.344  -1.036   3.242 -0.3483  1.2206  1.4202
  673MOL0     H90820   2.267  -0.887   3.268 -1.2290 -0.0370 -1.3725
  673MOL0     H90821   2.199  -1.069   3.068  1.1735  0.1705  0.0202
  673MOL0     H90822   2.147  -0.891   3.082  3.6506  4.1581 -4.2030
  673MOL0     H90823   2.270  -0.840   2.886  1.3528 -0.4023 -1.8680
  673MOL0     H90824   2.384  -0.967   2.930  0.0922 -1.7009 -1.4467
  673MOL0     H90825   2.101  -1.013   2.827  0.9475  0.7233  1.0338
  673MOL0     H90826   2.235  -1.131   2.860 -0.5685 -1.5155 -0.9455
  673MOL0     H90827   2.259  -0.905   2.644 -5.6337 -0.0267  0.2216
  673MOL0     H90828   2.194  -1.064   2.621 -0.4326 -0.7694  1.3720
  673MOL0     H90829   2.473  -1.011   2.726 -4.1649  2.6131  1.5805
  673MOL0     H90830   2.385  -1.173   2.695 -1.2347  0.1975 -0.9752
  673MOL0     H90831   2.413  -1.136   2.452 -0.2409  0.3972  0.2785
  673MOL0     H90832   2.561  -1.137   2.535  0.0549 -0.4797 -0.2544
  673MOL0     H90833   2.386  -0.880   2.446 -1.2406  2.0747  1.7841
  673MOL0     H90834   2.514  -0.867   2.549 -3.8222 -0.7578  3.8555
  673MOL0     H90835   2.635  -0.717   3.102 -2.5348  0.8001  1.6730
  673MOL0     H90836   2.839  -0.663   3.233 -0.5174  2.1352  0.5112
  673MOL0     H90837   3.294  -0.711   3.382 -0.2846 -0.1343  0.0987
  673MOL0     H90838   3.450  -0.621   3.544  0.9073  0.4427  2.3812
  673MOL0     H90839   3.333   0.271   4.352  1.3850 -1.1782 -0.2825
  673MOL0     H90840   3.158   0.398   4.270 -0.6216  0.1368  0.9624
  673MOL0     H90841   2.974   0.626   4.009  0.2683  0.9856  1.0530
  673MOL0     H90842   2.846   0.699   3.838  1.2104  0.7617  0.1109
  673MOL0     H90843   2.656   0.808   3.775  0.5708  0.9166  0.5658
  673MOL0     H90844   2.775   0.814   3.643 -1.4260 -0.7108 -1.8790
  673MOL0     H90845   2.569   0.884   3.530 -0.7220 -0.1807  0.8132
  673MOL0     H90846   2.635   1.036   3.570 -2.0579  0.1078 -1.4275
  673MOL0     H90847   2.408   0.904   3.746 -0.8973 -0.6823 -0.1842
  673MOL0     H90848   2.385   1.018   3.615  1.8046  5.5068 -0.0601
  673MOL0     H90849   2.568   1.088   3.843 -0.8483 -2.8977 -0.8483
  673MOL0     H90850   2.496   1.195   3.718 -1.0918  0.4502 -0.5418
  673MOL0     H90851   2.170   1.189   3.975  0.7958  1.3577  0.8572
  673MOL0     H90852   2.940   1.109   3.927  0.1976  0.3543 -0.5802
  673MOL0     H90853   3.239   1.041   4.074 -0.8106 -0.9519 -2.1822
  673MOL0     H90854   3.133   1.162   4.020 -0.8709  0.0042 -0.7392
  673MOL0     H90855   3.121   1.090   4.186  3.3014 -2.5155  0.2053
  674MOL0     O90856   4.438  11.008   2.898  0.2244  0.0936 -0.1977
  674MOL0     C90857   4.345  10.984   2.823  0.3509 -1.7370 -0.4906
  674MOL0     O90858   4.263  11.089   2.776 -0.7166 -0.1851 -0.0416
  674MOL0     C90859   4.321  11.219   2.765  0.4455  0.6084 -0.2162
  674MOL0     C90860   4.449  11.244   2.713  0.0423  0.8153 -0.0401
  674MOL0     C90861   4.499  11.373   2.693  0.8142 -1.0828 -0.0425
  674MOL0     C90862   4.430  11.483   2.734  0.0957  0.5574 -0.3130
  674MOL0     O90863   4.475  11.616   2.730 -0.1837  0.6546  0.4184
  674MOL0     C90864   4.572  11.649   2.835 -0.3182  0.2322 -1.0893
  674MOL0     C90865   4.577  11.801   2.842 -0.0206 -0.3871  0.8144
  674MOL0     C90866   4.449  11.862   2.898 -0.7816 -0.1769  0.9661
  674MOL0     C90867   4.467  12.007   2.941 -1.5902  0.5906 -0.5997
  674MOL0     C90868   4.324  12.067   2.972 -0.2882  1.6855 -0.4162
  674MOL0     C90869   4.348  12.209   3.019  0.3039  0.6373  0.6198
  674MOL0     C90870   4.220  12.265   3.091 -0.7443 -0.4719  0.0345
  674MOL0     C90871   4.202  12.243   3.238 -0.5622 -0.3967 -0.3403
  674MOL0     N90872   4.178  12.100   3.272 -0.6091 -0.7288 -0.7465
  674MOL0     C90873   4.060  12.049   3.264 -0.1491 -0.2963 -0.1540
  674MOL0     C90874   4.061  11.926   3.319  0.4927 -0.2168  0.8006
  674MOL0     C90875   3.941  11.836   3.327 -0.6215 -0.4010 -0.0904
  674MOL0     C90876   3.814  11.896   3.373 -0.0237 -0.7373 -0.4396
  674MOL0     C90877   3.693  11.804   3.336 -0.2131 -0.3707 -0.3198
  674MOL0     C90878   3.556  11.854   3.388  0.7248 -0.5762 -0.4165
  674MOL0     O90879   3.483  11.732   3.383  0.2363  0.4785 -0.3223
  674MOL0     C90880   3.350  11.736   3.364 -0.2444  0.2515 -0.1299
  674MOL0     C90881   3.278  11.837   3.431  0.0575 -0.5136 -0.5194
  674MOL0     C90882   3.143  11.831   3.405 -0.1549  0.4407  0.1926
  674MOL0     C90883   3.072  11.746   3.326 -0.4645  0.5171  1.0554
  674MOL0     C90884   2.917  11.753   3.308  0.3815 -0.2448  0.6283
  674MOL0     O90885   2.844  11.640   3.295 -0.5459  0.4385 -0.1775
  674MOL0     C90886   2.712  11.644   3.318  0.4867 -0.9251  0.8714
  674MOL0     C90887   2.624  11.679   3.213  0.6771  0.0438  0.7915
  674MOL0     C90888   2.493  11.679   3.232  0.9797  1.4920 -0.0949
  674MOL0     C90889   2.433  11.654   3.356  0.2892 -0.1872  0.3794
  674MOL0     O90890   2.298  11.656   3.359  0.2470  0.3064  0.5240
  674MOL0     C90891   2.222  11.640   3.476  0.3442  1.7642 -0.1035
  674MOL0     C90892   2.241  11.760   3.571  0.3555  0.7458 -0.6381
  674MOL0     C90893   2.210  11.732   3.723 -0.3045  0.4695  0.2843
  674MOL0     C90894   2.136  11.851   3.774  1.3910  1.1211  0.8186
  674MOL0     C90895   2.073  11.820   3.913  0.9507  0.0432 -0.5884
  674MOL0     C90896   1.923  11.852   3.923 -0.4841  0.5160  0.1460
  674MOL0     C90897   1.872  11.823   4.067 -0.2036  0.8747 -0.7026
  674MOL0     C90898   1.716  11.827   4.067 -1.1604  1.0366 -0.6714
  674MOL0    Cl90899   1.637  11.984   4.063 -0.6299  0.4231  0.1690
  674MOL0     C90900   2.520  11.610   3.457  0.9141 -1.1964  0.3909
  674MOL0     C90901   2.658  11.602   3.443 -0.3402 -0.9577 -0.1358
  674MOL0     O90902   2.866  11.865   3.308 -0.2690  0.6312 -0.0040
  674MOL0     C90903   3.152  11.649   3.261  0.1397  0.4274 -0.4332
  674MOL0     C90904   3.289  11.648   3.276  0.1644 -0.0143  0.9192
  674MOL0     N90905   4.194  11.901   3.350  0.4631  0.5567 -0.8724
  674MOL0     N90906   4.266  12.003   3.315  0.1791  1.0156 -0.0815
  674MOL0     C90907   4.296  11.462   2.785  1.2274 -0.6712 -0.3247
  674MOL0     C90908   4.251  11.328   2.809 -0.3938 -0.2109  0.0892
  674MOL0     C90909   4.310  10.851   2.794 -0.3123  0.4042  0.4984
  674MOL0     C90910   4.173  10.836   2.745  0.6866  0.1467 -0.2672
  674MOL0     C90911   4.125  10.710   2.714 -0.2382  0.4754  0.8823
  674MOL0     C90912   4.216  10.602   2.724  0.3460 -0.0709  0.4272
  674MOL0     O90913   4.182  10.470   2.694  0.1995 -0.4425 -0.2662
  674MOL0     C90914   4.110  10.421   2.812 -0.0054 -0.3590  0.0991
  674MOL0     C90915   4.099  10.270   2.803  0.3375  0.7888  0.6008
  674MOL0     C90916   4.025  10.223   2.934 -0.1681 -0.9834  0.8992
  674MOL0     C90917   4.040  10.070   2.986  0.0319 -0.5622 -0.2365
  674MOL0     C90918   4.008   9.968   2.894  0.8294  0.3858 -0.3362
  674MOL0     C90919   3.953   9.898   2.813 -0.2601 -0.0488  0.2454
  674MOL0     C90920   4.349  10.620   2.753 -0.0288  0.2907  0.4486
  674MOL0     C90921   4.404  10.742   2.797  0.1244 -0.3885 -0.6281
  674MOL0     C90922   4.553  10.760   2.821  0.8185  0.8129 -0.1667
  674MOL0     H90923   4.498  11.154   2.677 -5.2831 -1.3498 -2.9832
  674MOL0     H90924   4.590  11.391   2.639  0.4880 -0.5064 -0.4101
  674MOL0     H90925   4.536  11.609   2.930  1.0026  3.1389  0.8078
  674MOL0     H90926   4.672  11.610   2.816  0.9229  1.0700  2.7630
  674MOL0     H90927   4.596  11.839   2.741 -0.5332  0.5032  1.0469
  674MOL0     H90928   4.668  11.836   2.892 -0.0521  0.5847  0.2143
  674MOL0     H90929   4.419  11.808   2.989  0.3238  2.5370  3.1129
  674MOL0     H90930   4.373  11.858   2.821  1.1962 -1.6072 -1.0396
  674MOL0     H90931   4.528  12.013   3.032 -2.7705  0.2704  0.2325
  674MOL0     H90932   4.513  12.054   2.854  4.9317 -1.4119  1.1622
  674MOL0     H90933   4.258  12.084   2.887  0.2589 -1.2896 -1.5777
  674MOL0     H90934   4.274  11.998   3.041 -0.3168  3.9063  1.9096
  674MOL0     H90935   4.435  12.210   3.085  1.7272  3.2130 -1.1434
  674MOL0     H90936   4.361  12.267   2.927 -3.5689  0.5277 -0.1611
  674MOL0     H90937   4.127  12.232   3.043 -0.3310  0.0050 -1.1339
  674MOL0     H90938   4.237  12.372   3.074 -1.7558 -0.6086 -2.2877
  674MOL0     H90939   4.281  12.295   3.293  1.0185 -1.1544 -1.7784
  674MOL0     H90940   4.108  12.292   3.261 -0.4517 -0.7490  0.9810
  674MOL0     H90941   3.978  12.101   3.214 -2.2131 -2.9560  0.2082
  674MOL0     H90942   3.929  11.796   3.225  0.6140  0.4229 -0.5824
  674MOL0     H90943   3.962  11.757   3.400 -1.4821  1.9112  2.8526
  674MOL0     H90944   3.829  11.916   3.480  0.1847  0.0074 -0.6032
  674MOL0     H90945   3.804  11.988   3.315  2.5253 -0.3528 -0.3698
  674MOL0     H90946   3.721  11.705   3.375 -2.1501  0.0971  2.5860
  674MOL0     H90947   3.691  11.783   3.229 -4.4398 -0.2290 -0.4429
  674MOL0     H90948   3.507  11.933   3.329 -1.9294 -0.5282  1.6686
  674MOL0     H90949   3.560  11.870   3.496  0.8104  0.4177 -0.5515
  674MOL0     H90950   3.336  11.896   3.501  1.8654 -1.6996 -0.9521
  674MOL0     H90951   3.081  11.896   3.466 -0.2768  1.1264 -0.6423
  674MOL0     H90952   2.656  11.683   3.109 -3.4285 -1.4934 -0.6887
  674MOL0     H90953   2.424  11.696   3.149 -0.1014  0.5542  0.5796
  674MOL0     H90954   2.116  11.641   3.448  0.2507  3.0554  0.2720
  674MOL0     H90955   2.240  11.540   3.518 -1.2498  0.7866 -1.5883
  674MOL0     H90956   2.339  11.807   3.558  1.1735 -1.3437 -2.7336
  674MOL0     H90957   2.171  11.830   3.525  1.2442 -0.2959 -3.8041
  674MOL0     H90958   2.140  11.648   3.735 -1.3515  1.3247  0.2588
  674MOL0     H90959   2.307  11.711   3.769  0.0797  1.0767 -0.2346
  674MOL0     H90960   2.056  11.884   3.708  1.6621  1.3730  0.6144
  674MOL0     H90961   2.213  11.929   3.771  0.7812  1.6851 -1.5506
  674MOL0     H90962   2.130  11.885   3.980  0.5414  1.0915 -1.2324
  674MOL0     H90963   2.083  11.714   3.939 -1.3775 -0.8877 -3.0310
  674MOL0     H90964   1.914  11.957   3.894 -0.3853  0.3465 -0.5191
  674MOL0     H90965   1.868  11.790   3.852  1.2207 -1.1171  0.1604
  674MOL0     H90966   1.910  11.889   4.145 -0.5931 -0.9131  1.0892
  674MOL0     H90967   1.892  11.718   4.089 -2.7225 -0.2470 -3.1786
  674MOL0     H90968   1.675  11.762   3.990 -0.4600 -0.8317  0.4484
  674MOL0     H90969   1.683  11.770   4.155  1.1308 -4.3266 -2.8394
  674MOL0     H90970   2.486  11.590   3.558  0.6880  0.3648  0.6457
  674MOL0     H90971   2.723  11.559   3.518 -0.8505  3.9871  3.6847
  674MOL0     H90972   3.099  11.589   3.188 -0.0329 -0.2773  0.2521
  674MOL0     H90973   3.348  11.577   3.219 -1.6095 -3.6653  3.2405
  674MOL0     H90974   4.229  11.535   2.830  0.4077 -1.4232 -0.2962
  674MOL0     H90975   4.155  11.328   2.859 -0.3224  4.3715  0.5999
  674MOL0     H90976   4.099  10.913   2.729 -2.7983 -3.2744 -2.3117
  674MOL0     H90977   4.023  10.697   2.679  1.4308 -0.4471 -4.5479
  674MOL0     H90978   4.007  10.456   2.823  0.4780  1.1759  0.0784
  674MOL0     H90979   4.168  10.445   2.901  0.8341  1.7969 -0.9392
  674MOL0     H90980   4.196  10.220   2.791  0.7574  1.4071  1.2930
  674MOL0     H90981   4.045  10.236   2.714  0.4482  2.4206 -0.1413
  674MOL0     H90982   3.920  10.245   2.915  0.7954  1.7069 -2.1396
  674MOL0     H90983   4.066  10.290   3.011  0.9411  1.1557 -1.4134
  674MOL0     H90984   4.146  10.051   3.005 -0.0518  0.3819  1.4023
  674MOL0     H90985   3.984  10.073   3.080  1.5499  2.2564  0.7128
  674MOL0     H90986   3.895   9.831   2.753 -5.4748  1.2163  3.1956
  674MOL0     H90987   4.411  10.532   2.736 -2.9414 -1.5222 -1.6236
  674MOL0     H90988   4.601  10.663   2.840  0.2778  1.1261  3.5178
  674MOL0     H90989   4.595  10.811   2.734  1.3201  1.1878  0.2911
  674MOL0     H90990   4.575  10.810   2.916 -0.7149 -2.2453  1.9990
  675MOL0     O90991   9.356   3.543   7.599 -0.2136 -0.3031  0.2900
  675MOL0     C90992   9.233   3.545   7.578 -0.1347  0.0838  0.0990
  675MOL0     O90993   9.170   3.614   7.477 -0.0217 -0.5369 -0.2651
  675MOL0     C90994   9.251   3.653   7.370  0.4814  0.4768 -0.5438
  675MOL0     C90995   9.225   3.785   7.328 -0.1004 -0.4032  0.7486
  675MOL0     C90996   9.297   3.833   7.215  0.4679  1.1740 -0.8114
  675MOL0     C90997   9.371   3.742   7.135 -0.0578 -0.1139 -0.1717
  675MOL0     O90998   9.440   3.779   7.025 -0.0487  0.3232 -0.2387
  675MOL0     C90999   9.408   3.716   6.901 -0.8545  1.0240 -0.2687
  675MOL0     C91000   9.482   3.817   6.802  0.0865  0.0664 -0.1315
  675MOL0     C91001   9.490   3.781   6.657  0.5630 -0.1586  0.3702
  675MOL0     C91002   9.363   3.823   6.582 -0.5778  0.6692  0.1503
  675MOL0     C91003   9.381   3.806   6.429  0.0282  1.3005 -1.1887
  675MOL0     C91004   9.253   3.780   6.346  0.3267  1.0024 -1.3833
  675MOL0     C91005   9.291   3.755   6.198  0.9452 -0.2187 -0.1178
  675MOL0     C91006   9.179   3.685   6.120  0.9861  0.0620  0.2006
  675MOL0     N91007   9.059   3.771   6.124  0.1477  0.3921  0.2480
  675MOL0     C91008   9.020   3.871   6.037  0.2567  0.3906  0.2128
  675MOL0     C91009   8.927   3.945   6.105  0.5155 -0.9213 -1.2461
  675MOL0     C91010   8.862   4.077   6.062 -0.5723  0.6040  0.9013
  675MOL0     C91011   8.775   4.130   6.175  0.8257 -0.4919  0.2095
  675MOL0     C91012   8.708   4.254   6.122  0.1748 -0.4180  0.2722
  675MOL0     C91013   8.604   4.302   6.220  0.0595 -1.3757 -0.7360
  675MOL0     O91014   8.677   4.351   6.338 -0.5980  0.3652 -0.9575
  675MOL0     C91015   8.607   4.317   6.458 -1.1217  0.1526 -0.1112
  675MOL0     C91016   8.494   4.380   6.500 -0.1549 -0.5904 -0.1133
  675MOL0     C91017   8.423   4.335   6.624  0.6129 -0.0881 -0.4852
  675MOL0     C91018   8.480   4.226   6.698 -0.1778  0.0082 -0.0961
  675MOL0     C91019   8.428   4.190   6.832 -1.4224 -1.0872  0.8121
  675MOL0     O91020   8.472   4.068   6.888 -0.3790  0.0823  0.4392
  675MOL0     C91021   8.420   4.041   7.014 -0.0753 -0.3534  1.0907
  675MOL0     C91022   8.499   4.038   7.128  0.9368 -0.7461  0.2800
  675MOL0     C91023   8.440   3.993   7.248  0.1402  0.2328  0.3435
  675MOL0     C91024   8.310   3.959   7.255  0.0016  0.3140 -0.6399
  675MOL0     O91025   8.254   3.927   7.375 -0.0081  0.0569 -0.9640
  675MOL0     C91026   8.145   3.831   7.371 -0.0121  0.5499 -1.0883
  675MOL0     C91027   8.108   3.786   7.509  0.1736  1.3456 -0.1089
  675MOL0     C91028   8.106   3.633   7.506  1.1226 -0.9864 -0.5288
  675MOL0     C91029   8.063   3.569   7.639 -0.8801  0.1024  0.2519
  675MOL0     C91030   8.179   3.601   7.744  0.0450 -0.7068  0.8085
  675MOL0     C91031   8.141   3.551   7.889  0.4031  0.0348  0.2113
  675MOL0     C91032   8.253   3.602   7.984 -0.3182  0.3122 -0.4781
  675MOL0     C91033   8.198   3.698   8.086  0.7437 -0.6272  0.0426
  675MOL0    Cl91034   8.155   3.856   7.999 -0.0189 -0.1089 -0.6282
  675MOL0     C91035   8.232   3.966   7.139 -0.6497 -0.4110  0.7226
  675MOL0     C91036   8.283   4.013   7.020 -0.4718  0.2846  0.2696
  675MOL0     O91037   8.357   4.273   6.892  0.0317  0.2272  0.6514
  675MOL0     C91038   8.601   4.166   6.658  0.2486 -0.0336  0.0226
  675MOL0     C91039   8.665   4.208   6.538  0.1175  0.1756 -0.2349
  675MOL0     N91040   8.890   3.866   6.214  0.4625 -0.8597 -0.0812
  675MOL0     N91041   8.983   3.777   6.232  1.0941 -0.2261  0.1968
  675MOL0     C91042   9.379   3.611   7.175 -0.0168  0.5965 -0.0594
  675MOL0     C91043   9.319   3.565   7.293  0.0881  0.0411  0.3754
  675MOL0     C91044   9.146   3.475   7.674  0.2662  0.0756  0.4736
  675MOL0     C91045   9.044   3.401   7.601  0.3800  0.5275 -0.2027
  675MOL0     C91046   8.944   3.334   7.673 -0.7382 -0.4440 -0.2861
  675MOL0     C91047   8.943   3.337   7.814 -0.3521  0.2501 -0.2918
  675MOL0     O91048   8.854   3.275   7.900 -0.2148  0.0735 -0.6691
  675MOL0     C91049   8.747   3.211   7.841  0.0072  0.7204  0.9150
  675MOL0     C91050   8.610   3.286   7.862  0.1299  1.1995 -0.2040
  675MOL0     C91051   8.558   3.292   8.010  0.9069  0.2548 -0.4658
  675MOL0     C91052   8.611   3.191   8.114  0.6328 -0.2012  0.0862
  675MOL0     C91053   8.545   3.203   8.251  0.3794 -0.6835  0.8636
  675MOL0     C91054   8.501   3.226   8.362 -0.2084  0.1863  0.0554
  675MOL0     C91055   9.044   3.410   7.880 -0.0330 -1.0006 -0.3001
  675MOL0     C91056   9.150   3.481   7.811  0.0653 -1.0585 -0.8522
  675MOL0     C91057   9.243   3.554   7.903  0.3983  0.5549 -0.0076
  675MOL0     H91058   9.180   3.855   7.397 -1.5948 -0.4458 -0.1535
  675MOL0     H91059   9.277   3.934   7.179 -0.2907  0.8129 -1.4209
  675MOL0     H91060   9.447   3.614   6.885  1.0913  1.7385 -0.3526
  675MOL0     H91061   9.300   3.710   6.885 -0.8250 -0.6204 -0.1116
  675MOL0     H91062   9.587   3.827   6.830 -0.4106  2.1863  1.2959
  675MOL0     H91063   9.438   3.917   6.803  2.2203  1.1322 -2.7933
  675MOL0     H91064   9.522   3.676   6.651  0.5146 -0.0726 -3.3926
  675MOL0     H91065   9.569   3.835   6.605  0.6932  3.4191  3.7633
  675MOL0     H91066   9.285   3.757   6.621  1.9553 -0.4273  3.9124
  675MOL0     H91067   9.339   3.927   6.605 -0.5847  1.3908 -2.7286
  675MOL0     H91068   9.422   3.898   6.385  0.3344  1.1648 -1.1841
  675MOL0     H91069   9.441   3.719   6.404  0.5357  1.7961 -1.7220
  675MOL0     H91070   9.207   3.691   6.391 -0.7030  1.8648 -0.6791
  675MOL0     H91071   9.180   3.858   6.368 -2.9357 -2.3620  1.0399
  675MOL0     H91072   9.382   3.695   6.185  0.2596 -1.7037  1.4476
  675MOL0     H91073   9.316   3.849   6.149  0.5268 -0.5292 -0.9385
  675MOL0     H91074   9.205   3.662   6.017  2.6785  0.5994  0.4787
  675MOL0     H91075   9.162   3.591   6.173 -2.1705  0.1488 -0.4613
  675MOL0     H91076   9.075   3.890   5.945  0.2954 -0.4614  0.0481
  675MOL0     H91077   8.929   4.151   6.018 -3.7424  2.7676 -0.6787
  675MOL0     H91078   8.790   4.040   5.988  1.9598 -0.7461 -1.0340
  675MOL0     H91079   8.701   4.057   6.212 -2.4389  2.4280 -0.0738
  675MOL0     H91080   8.833   4.153   6.265  0.1723  1.3924  0.1744
  675MOL0     H91081   8.662   4.237   6.024  2.7416  0.8762 -1.2699
  675MOL0     H91082   8.781   4.336   6.117 -1.1847  0.7960 -0.1028
  675MOL0     H91083   8.528   4.224   6.235  0.3524 -1.8181 -1.5242
  675MOL0     H91084   8.554   4.388   6.175  2.6865  0.1489 -0.9077
  675MOL0     H91085   8.475   4.461   6.431  4.9352  1.6916  0.6996
  675MOL0     H91086   8.332   4.385   6.654  1.3084 -0.4459  2.5217
  675MOL0     H91087   8.606   4.055   7.126  0.6944  0.9931 -1.1511
  675MOL0     H91088   8.506   3.955   7.326 -1.4098 -1.2973  0.9871
  675MOL0     H91089   8.058   3.884   7.331  0.0493  3.2433  1.9563
  675MOL0     H91090   8.180   3.755   7.301  0.7917  0.8335 -1.0040
  675MOL0     H91091   8.173   3.830   7.586 -0.7670  0.4969  1.2047
  675MOL0     H91092   8.009   3.817   7.541 -0.9922 -1.2612 -0.9065
  675MOL0     H91093   8.030   3.594   7.437 -2.1725 -0.0098  2.3020
  675MOL0     H91094   8.203   3.589   7.480  0.2352 -3.2991 -0.1787
  675MOL0     H91095   8.064   3.461   7.623 -2.1447 -0.1062  1.3789
  675MOL0     H91096   7.963   3.598   7.671 -0.8456 -0.5404  0.9862
  675MOL0     H91097   8.194   3.709   7.757  1.4641 -0.8795  0.7756
  675MOL0     H91098   8.275   3.559   7.714  0.5960 -0.3655  2.0241
  675MOL0     H91099   8.043   3.595   7.908  0.8875  0.9342  0.7206
  675MOL0     H91100   8.125   3.443   7.889 -1.7126  0.2574  2.0983
  675MOL0     H91101   8.352   3.630   7.947  0.9885  1.7020  3.5331
  675MOL0     H91102   8.287   3.515   8.042  2.1035  1.9739  0.8021
  675MOL0     H91103   8.106   3.672   8.139 -0.2176  0.3253 -1.1037
  675MOL0     H91104   8.277   3.721   8.159 -0.9248  0.8434  1.4932
  675MOL0     H91105   8.132   3.923   7.134 -0.1929 -1.9183  2.9683
  675MOL0     H91106   8.217   4.022   6.935  0.0162  1.0796 -0.0336
  675MOL0     H91107   8.645   4.096   6.728 -1.9548  0.5436  2.0898
  675MOL0     H91108   8.763   4.182   6.499 -0.5703 -2.8277 -0.2180
  675MOL0     H91109   9.432   3.542   7.110  0.8989  0.7425  0.5124
  675MOL0     H91110   9.319   3.461   7.323  0.3888  0.2375  1.0849
  675MOL0     H91111   9.050   3.393   7.492 -3.1947 -0.8512 -0.4340
  675MOL0     H91112   8.861   3.299   7.612 -1.4922  1.0709 -0.1716
  675MOL0     H91113   8.738   3.113   7.889  1.6921 -0.0680 -0.2849
  675MOL0     H91114   8.751   3.181   7.735 -5.8498 -0.4149  0.6571
  675MOL0     H91115   8.539   3.244   7.790  1.3507  0.8310 -1.2206
  675MOL0     H91116   8.605   3.390   7.827  0.7853  1.4464  0.4167
  675MOL0     H91117   8.449   3.295   8.000  1.0129  2.3648 -1.5753
  675MOL0     H91118   8.583   3.394   8.042 -0.5532  1.7260 -3.5829
  675MOL0     H91119   8.587   3.088   8.085 -0.8506  0.3148 -0.6335
  675MOL0     H91120   8.719   3.193   8.127  0.9370  0.6178 -2.1387
  675MOL0     H91121   8.458   3.242   8.459 -1.8540 -0.0342 -0.6100
  675MOL0     H91122   9.030   3.411   7.988 -3.0599 -2.0293 -0.6062
  675MOL0     H91123   9.316   3.487   7.949  1.2426 -0.0419 -2.1148
  675MOL0     H91124   9.302   3.630   7.850 -0.9509  1.9040  0.3461
  675MOL0     H91125   9.183   3.587   7.988 -0.7561  0.2715 -0.6926
  676MOL0     O91126   1.705   3.379  10.560  0.1898 -0.5278  0.9673
  676MOL0     C91127   1.598   3.414  10.510 -0.4279  1.2744  0.6215
  676MOL0     O91128   1.544   3.362  10.396  0.3136  0.4481 -0.1157
  676MOL0     C91129   1.611   3.257  10.335 -0.2796 -0.4864 -0.7881
  676MOL0     C91130   1.581   3.118  10.367 -0.3549  0.5183  0.4394
  676MOL0     C91131   1.670   3.018  10.306  0.0969  0.8057  0.0574
  676MOL0     C91132   1.764   3.057  10.211  0.0269  0.3568  0.1077
  676MOL0     O91133   1.850   2.957  10.180  0.2538 -0.3414 -0.9003
  676MOL0     C91134   1.986   2.987  10.131  0.2261 -0.2890 -1.1132
  676MOL0     C91135   2.036   2.841  10.107  0.0386 -0.3402  0.1750
  676MOL0     C91136   2.183   2.839  10.050  1.1236 -0.5774  0.1147
  676MOL0     C91137   2.248   2.701  10.032  0.1712 -0.0516  0.2028
  676MOL0     C91138   2.401   2.702  10.041 -0.0819  0.8127 -0.6898
  676MOL0     C91139   2.462   2.798   9.955  0.1110  0.7291  0.7980
  676MOL0     C91140   2.617   2.781   9.977  0.3070  0.9969  0.2258
  676MOL0     C91141   2.693   2.840   9.854 -0.3901  0.4514 -0.6312
  676MOL0     N91142   2.837   2.836   9.891 -0.2893  0.5380  0.4820
  676MOL0     C91143   2.901   2.930   9.966  0.6233  0.4586 -0.4015
  676MOL0     C91144   3.023   2.889   9.992 -0.2825 -0.4224 -0.2346
  676MOL0     C91145   3.136   2.950  10.065  0.1283 -0.5838 -0.8844
  676MOL0     C91146   3.084   2.998  10.196 -0.5179 -0.6018 -0.2656
  676MOL0     C91147   3.004   2.894  10.282  0.4782 -0.4959 -0.6117
  676MOL0     C91148   2.927   2.971  10.409  0.4967 -0.3854  0.0497
  676MOL0     O91149   2.896   3.109  10.380  0.2056 -0.1020 -0.6953
  676MOL0     C91150   2.777   3.138  10.330  0.5696 -0.5076  0.8558
  676MOL0     C91151   2.690   3.050  10.255  0.6972 -1.7608  0.7601
  676MOL0     C91152   2.561   3.089  10.222  1.0525 -0.5822 -0.1559
  676MOL0     C91153   2.509   3.216  10.247  0.8471  1.5462  0.4646
  676MOL0     C91154   2.366   3.241  10.213 -0.2079  0.1758 -0.2791
  676MOL0     O91155   2.339   3.371  10.236  0.2160  0.8028  0.5568
  676MOL0     C91156   2.211   3.418  10.224  0.5904 -0.3585 -1.5765
  676MOL0     C91157   2.165   3.491  10.331  0.5743 -0.0835  0.5589
  676MOL0     C91158   2.048   3.565  10.316  0.5311 -1.1407 -0.6127
  676MOL0     C91159   1.982   3.582  10.193 -0.7595  1.0278 -0.3003
  676MOL0     O91160   1.863   3.653  10.196 -0.1210  0.6379  0.7340
  676MOL0     C91161   1.791   3.675  10.072 -0.4949 -0.8408  0.3275
  676MOL0     C91162   1.724   3.815  10.072  0.1264 -0.7204 -0.4937
  676MOL0     C91163   1.656   3.844   9.939  0.0023 -0.6773 -0.9705
  676MOL0     C91164   1.548   3.943   9.927 -0.2792 -0.6882  0.0751
  676MOL0     C91165   1.497   3.978   9.793 -0.7182  0.2067  0.7968
  676MOL0     C91166   1.405   3.869   9.742 -0.5586  1.3342  0.6508
  676MOL0     C91167   1.461   3.735   9.685 -0.0923 -0.4659  0.9013
  676MOL0     C91168   1.429   3.697   9.542 -0.3009 -0.7425 -0.2829
  676MOL0    Cl91169   1.513   3.559   9.484  0.0004  0.0294 -0.2699
  676MOL0     C91170   2.016   3.488  10.094  0.1919 -0.8363  1.3034
  676MOL0     C91171   2.139   3.421  10.100  0.3078  0.9871 -1.1594
  676MOL0     O91172   2.286   3.160  10.169 -0.1101 -0.1695  0.4719
  676MOL0     C91173   2.596   3.306  10.311 -0.0561 -0.9729 -0.4115
  676MOL0     C91174   2.722   3.270  10.350 -0.5005 -1.1898  0.5925
  676MOL0     N91175   3.032   2.761   9.942  0.1322  0.0464 -0.5230
  676MOL0     N91176   2.920   2.725   9.881 -0.0171 -0.3428 -0.4120
  676MOL0     C91177   1.771   3.191  10.171  0.2667  0.8654 -0.2414
  676MOL0     C91178   1.696   3.294  10.232  0.1196 -0.4387  0.7649
  676MOL0     C91179   1.512   3.501  10.592  1.0689 -0.0195  0.8863
  676MOL0     C91180   1.514   3.491  10.736 -0.0066  0.5194  0.5964
  676MOL0     C91181   1.422   3.571  10.808  0.4081 -0.2461 -0.3937
  676MOL0     C91182   1.339   3.661  10.748 -0.0937 -0.2204  0.0749
  676MOL0     O91183   1.262   3.751  10.813 -0.1546  0.2506  0.3850
  676MOL0     C91184   1.209   3.718  10.948 -0.7906 -0.4303 -0.5171
  676MOL0     C91185   1.127   3.598  10.952  0.4367  0.0887  0.4777
  676MOL0     C91186   1.013   3.582  10.847 -0.7633 -0.1891  0.0227
  676MOL0     C91187   0.957   3.432  10.844  0.1441  0.1043 -0.0700
  676MOL0     C91188   0.871   3.390  10.961  0.5537  0.3856  0.6495
  676MOL0     C91189   0.807   3.380  11.062 -0.3452  0.3437  0.0231
  676MOL0     C91190   1.345   3.671  10.611 -0.3026  0.0658 -0.4379
  676MOL0     C91191   1.430   3.596  10.533  0.1945 -1.7588 -0.2630
  676MOL0     C91192   1.423   3.639  10.387  0.2663 -0.6936 -0.5923
  676MOL0     H91193   1.508   3.089  10.442 -0.3060  0.1804  0.3609
  676MOL0     H91194   1.682   2.918  10.347 -1.7634  0.8864  0.9026
  676MOL0     H91195   1.983   3.040  10.036 -0.9908  1.6133 -0.0867
  676MOL0     H91196   2.050   3.038  10.204  1.4605  0.6498 -2.7787
  676MOL0     H91197   1.971   2.776  10.047 -1.2026  0.5059  0.5703
  676MOL0     H91198   2.039   2.797  10.207  0.8458 -0.6167  0.0338
  676MOL0     H91199   2.239   2.903  10.119  2.6324  0.8239 -2.2574
  676MOL0     H91200   2.191   2.888   9.952 -1.0405 -2.3242 -1.0188
  676MOL0     H91201   2.207   2.621  10.093  0.6593  0.7963  1.6861
  676MOL0     H91202   2.211   2.688   9.930 -3.2260  0.8310  1.1970
  676MOL0     H91203   2.412   2.713  10.149 -1.4714  1.3538 -0.5788
  676MOL0     H91204   2.439   2.602  10.022  0.6915  0.4457  2.2855
  676MOL0     H91205   2.441   2.769   9.852 -0.4958 -1.9731  1.5848
  676MOL0     H91206   2.439   2.899   9.989 -1.8150  0.8317 -0.6631
  676MOL0     H91207   2.640   2.674   9.973 -0.1572  0.8723  0.7544
  676MOL0     H91208   2.652   2.831  10.068  2.1850 -0.9016  0.6258
  676MOL0     H91209   2.675   2.789   9.759  2.9726  0.9046 -1.6449
  676MOL0     H91210   2.672   2.946   9.839 -1.1938  0.2741 -0.8255
  676MOL0     H91211   2.860   3.023  10.004  1.3113 -0.3593  2.5892
  676MOL0     H91212   3.220   2.881  10.078  2.4412  1.9664 -1.2659
  676MOL0     H91213   3.187   3.027  10.006 -0.9222  0.1396 -0.8668
  676MOL0     H91214   3.173   3.026  10.254 -0.0294  1.1983 -1.8026
  676MOL0     H91215   3.025   3.089  10.187 -0.2320  0.1851  3.6700
  676MOL0     H91216   3.066   2.809  10.312  1.2999 -0.7150 -2.7669
  676MOL0     H91217   2.925   2.860  10.215 -1.6198  0.0293  1.4562
  676MOL0     H91218   2.991   2.978  10.497 -0.4599  3.8797  0.6477
  676MOL0     H91219   2.841   2.914  10.444 -0.8185  0.1281 -2.1395
  676MOL0     H91220   2.724   2.957  10.212  0.6074 -0.6899 -1.7962
  676MOL0     H91221   2.507   3.013  10.168 -0.2315  0.7259 -0.7898
  676MOL0     H91222   2.216   3.489  10.427 -1.7389 -1.6281  1.8659
  676MOL0     H91223   2.016   3.622  10.402  3.7156  1.0455 -0.7247
  676MOL0     H91224   1.868   3.672   9.994 -3.2917 -3.5402 -2.6647
  676MOL0     H91225   1.710   3.602  10.058 -0.4336 -1.1106  1.3463
  676MOL0     H91226   1.652   3.804  10.154  1.9199  0.7948  1.4125
  676MOL0     H91227   1.789   3.896  10.106  0.2801 -0.8233 -0.5439
  676MOL0     H91228   1.739   3.864   9.870 -0.7589 -1.6422 -2.2046
  676MOL0     H91229   1.621   3.746   9.905 -1.1323  0.0154 -1.8611
  676MOL0     H91230   1.580   4.040   9.967 -3.4214  1.9380 -3.1584
  676MOL0     H91231   1.456   3.912   9.976 -0.5113 -2.1955 -1.2396
  676MOL0     H91232   1.581   3.999   9.726 -1.1814  1.2856  0.5281
  676MOL0     H91233   1.442   4.073   9.796  0.2682  0.9373 -1.6925
  676MOL0     H91234   1.327   3.855   9.817 -0.4366  2.6159  1.0617
  676MOL0     H91235   1.346   3.898   9.655  0.5014 -4.6011 -2.5555
  676MOL0     H91236   1.433   3.659   9.759  1.9282 -0.9581  1.2242
  676MOL0     H91237   1.569   3.749   9.677  0.0714 -2.7563 -3.2139
  676MOL0     H91238   1.321   3.688   9.524  0.0345  1.4017 -4.7552
  676MOL0     H91239   1.460   3.786   9.487  3.8134 -1.7111  0.1866
  676MOL0     H91240   1.966   3.476   9.998  1.3195  0.7159  0.4824
  676MOL0     H91241   2.186   3.367  10.018  2.4760 -1.7614  1.6621
  676MOL0     H91242   2.568   3.410  10.328  1.3102 -0.6977  0.3040
  676MOL0     H91243   2.793   3.338  10.395  1.6488 -1.7866 -1.6791
  676MOL0     H91244   1.848   3.223  10.103  2.4780  0.8827  2.1206
  676MOL0     H91245   1.684   3.398  10.201 -3.6560 -1.1413 -0.7535
  676MOL0     H91246   1.576   3.412  10.778 -1.7217  0.3641  3.0639
  676MOL0     H91247   1.408   3.560  10.915  3.6485 -0.3840  0.1220
  676MOL0     H91248   1.155   3.803  10.991 -0.4253 -1.1906  1.5687
  676MOL0     H91249   1.294   3.714  11.017 -2.2280  1.8179  1.5727
  676MOL0     H91250   1.083   3.585  11.051  1.3662 -1.3380  0.7382
  676MOL0     H91251   1.194   3.511  10.952  0.6331  0.0825  4.1966
  676MOL0     H91252   1.061   3.595  10.749  1.2265 -2.3592  0.6092
  676MOL0     H91253   0.930   3.649  10.873  0.4260  0.0839  3.7923
  676MOL0     H91254   0.903   3.406  10.752 -1.3472  0.4599  0.6726
  676MOL0     H91255   1.041   3.363  10.854  0.3002  0.0606 -1.4566
  676MOL0     H91256   0.753   3.375  11.154 -0.8639 -1.8910 -0.3561
  676MOL0     H91257   1.275   3.743  10.570  0.5372  1.3070  0.2348
  676MOL0     H91258   1.367   3.555  10.343  0.5389 -2.1200  1.6244
  676MOL0     H91259   1.367   3.732  10.370 -1.1832 -1.5215 -0.5253
  676MOL0     H91260   1.524   3.637  10.346 -0.5453 -2.3437 -2.7477
  677MOL0     O91261  10.886   6.311   6.018 -0.1288  0.3504  0.0268
  677MOL0     C91262  10.979   6.245   6.072  0.4730 -0.0969  0.5306
  677MOL0     O91263  11.059   6.156   6.018  0.1519  0.3846 -0.5488
  677MOL0     C91264  11.083   6.147   5.881  0.1776 -0.3879  0.1212
  677MOL0     C91265  11.116   6.019   5.823 -0.5131  1.0250 -0.8320
  677MOL0     C91266  11.153   6.011   5.690  0.1891 -0.2157 -1.2573
  677MOL0     C91267  11.128   6.113   5.602 -0.1956 -0.8107 -0.7381
  677MOL0     O91268  11.161   6.096   5.471  0.0616 -0.0264  0.2240
  677MOL0     C91269  11.286   6.159   5.438  0.6697  0.3705  0.1349
  677MOL0     C91270  11.332   6.113   5.299 -0.2526 -0.2401  0.2046
  677MOL0     C91271  11.238   6.171   5.192 -1.4583 -0.0055  0.9404
  677MOL0     C91272  11.298   6.157   5.050 -0.7355 -0.0115 -0.2124
  677MOL0     C91273  11.180   6.194   4.964 -0.2582 -0.0929 -0.8933
  677MOL0     C91274  11.237   6.244   4.832  0.0206 -0.6322  0.6619
  677MOL0     C91275  11.323   6.146   4.749  0.8672 -0.5884 -0.8330
  677MOL0     C91276  11.361   6.212   4.620 -0.1578 -0.3544 -0.2183
  677MOL0     N91277  11.256   6.227   4.518 -0.5398  0.7751 -0.9758
  677MOL0     C91278  11.253   6.167   4.402 -0.0090 -0.1674 -0.4282
  677MOL0     C91279  11.137   6.202   4.345 -1.2570  1.0207  0.1025
  677MOL0     C91280  11.075   6.157   4.208 -0.1338 -0.3678 -0.5324
  677MOL0     C91281  10.933   6.194   4.188  0.6415  0.5242  0.2278
  677MOL0     C91282  10.874   6.108   4.067  0.3430  0.1022  0.0976
  677MOL0     C91283  10.727   6.145   4.036  0.1559 -0.6043  0.6975
  677MOL0     O91284  10.722   6.252   3.941 -0.0471 -0.1429  0.1101
  677MOL0     C91285  10.621   6.347   3.949  0.4190 -0.2739  0.2373
  677MOL0     C91286  10.498   6.321   4.023 -0.4409 -1.0440  1.2795
  677MOL0     C91287  10.408   6.418   4.022 -0.0739 -0.1336 -0.6728
  677MOL0     C91288  10.427   6.543   3.952 -0.7759 -0.2763  0.0965
  677MOL0     C91289  10.351   6.659   3.974  0.6744  0.2530 -0.2302
  677MOL0     O91290  10.389   6.770   3.909 -0.6577 -0.6461  0.1999
  677MOL0     C91291  10.300   6.879   3.890 -0.7231  0.1705 -0.4660
  677MOL0     C91292  10.168   6.859   3.850 -0.5426 -0.9091  0.6569
  677MOL0     C91293  10.091   6.971   3.805 -0.5269  0.4725  0.4874
  677MOL0     C91294  10.145   7.100   3.806  0.4538 -0.8211 -0.8419
  677MOL0     O91295  10.083   7.214   3.768 -0.8541 -0.1918  0.4092
  677MOL0     C91296   9.966   7.203   3.689 -0.3245  0.3753  0.5878
  677MOL0     C91297   9.841   7.209   3.781  0.8295 -0.5067 -0.3026
  677MOL0     C91298   9.710   7.240   3.701 -0.7469  0.5333  0.1108
  677MOL0     C91299   9.591   7.256   3.803 -0.1407  0.3602  0.2834
  677MOL0     C91300   9.465   7.219   3.735  0.2831 -0.4134 -0.8063
  677MOL0     C91301   9.345   7.233   3.827  0.1319 -0.1140  0.6570
  677MOL0     C91302   9.328   7.383   3.872 -1.2864  0.1821  0.5079
  677MOL0     C91303   9.185   7.416   3.910 -0.4916 -0.8189  0.4758
  677MOL0    Cl91304   9.169   7.584   3.977  0.3366 -0.1853 -0.0619
  677MOL0     C91305  10.269   7.106   3.845  0.6780 -0.3655  1.8047
  677MOL0     C91306  10.350   7.008   3.896  0.3724 -0.7328 -0.5034
  677MOL0     O91307  10.250   6.656   4.043  0.0642  0.3847  0.3238
  677MOL0     C91308  10.541   6.553   3.875 -0.5341  0.4808  0.3121
  677MOL0     C91309  10.638   6.462   3.884 -0.1405  0.6461 -0.3733
  677MOL0     N91310  11.072   6.290   4.429 -0.6409 -0.4301 -0.3136
  677MOL0     N91311  11.143   6.300   4.537 -0.4093 -0.2060 -0.7450
  677MOL0     C91312  11.083   6.239   5.649 -0.8826 -0.2761  0.2151
  677MOL0     C91313  11.057   6.253   5.789 -0.8252  0.4402 -0.0582
  677MOL0     C91314  10.984   6.284   6.227  1.6562  0.5007  0.2616
  677MOL0     C91315  10.890   6.383   6.280  0.4691 -0.1899  0.0720
  677MOL0     C91316  10.894   6.420   6.414  0.3847  0.8899  0.0781
  677MOL0     C91317  10.969   6.348   6.506 -0.0027 -0.4674 -0.0956
  677MOL0     O91318  10.961   6.358   6.640  0.6921 -0.4084  0.0247
  677MOL0     C91319  10.870   6.450   6.707  0.3691  0.2129 -0.1793
  677MOL0     C91320  10.723   6.396   6.734 -0.4249  0.2781 -0.3896
  677MOL0     C91321  10.614   6.459   6.641  0.7711  0.4855 -0.4330
  677MOL0     C91322  10.465   6.425   6.668  0.1286 -0.1413  0.8096
  677MOL0     C91323  10.429   6.287   6.686  0.8265  1.2175  0.0602
  677MOL0     C91324  10.399   6.166   6.700 -1.0408  1.2776 -0.9563
  677MOL0     C91325  11.059   6.259   6.458 -0.3341 -0.3789 -1.2456
  677MOL0     C91326  11.068   6.225   6.326  0.1274  0.9993  0.3985
  677MOL0     C91327  11.164   6.112   6.289  0.2410  0.7894 -1.0412
  677MOL0     H91328  11.131   5.941   5.897  2.6633 -1.1721 -3.5143
  677MOL0     H91329  11.186   5.915   5.652 -2.1549 -1.7935  0.3718
  677MOL0     H91330  11.288   6.268   5.441 -0.4367  0.5947 -2.9743
  677MOL0     H91331  11.367   6.116   5.498 -0.3206 -0.2574  1.0635
  677MOL0     H91332  11.337   6.004   5.302 -1.3068 -0.3095  0.0839
  677MOL0     H91333  11.432   6.154   5.284 -0.1424 -0.7041 -0.3789
  677MOL0     H91334  11.223   6.279   5.204  0.5940  0.2054  2.1500
  677MOL0     H91335  11.143   6.123   5.218 -1.2303 -1.4319 -0.6840
  677MOL0     H91336  11.384   6.225   5.050 -0.1368 -0.7401  0.2942
  677MOL0     H91337  11.329   6.052   5.041  0.7991  0.3382  0.5772
  677MOL0     H91338  11.114   6.112   4.934  0.6918  0.1852 -4.1270
  677MOL0     H91339  11.122   6.276   5.008  1.0567  0.6340 -0.4850
  677MOL0     H91340  11.145   6.275   4.781  1.0739 -0.5201 -1.2558
  677MOL0     H91341  11.297   6.330   4.864 -2.2202  0.9166  1.0276
  677MOL0     H91342  11.277   6.050   4.725  0.5517 -0.5364 -0.4440
  677MOL0     H91343  11.415   6.127   4.805  0.5577  0.0528 -0.0799
  677MOL0     H91344  11.404   6.311   4.642 -0.2266 -0.3011 -0.3236
  677MOL0     H91345  11.439   6.157   4.567 -1.4615 -1.2898 -1.1874
  677MOL0     H91346  11.320   6.090   4.364 -1.8345 -1.6812 -0.7239
  677MOL0     H91347  11.144   6.206   4.139  2.2274  0.3006  2.1389
  677MOL0     H91348  11.085   6.048   4.204 -1.2032 -0.5051  0.0383
  677MOL0     H91349  10.866   6.177   4.273 -2.0086 -1.0055 -1.9626
  677MOL0     H91350  10.924   6.300   4.164 -3.1566  0.8138  2.2236
  677MOL0     H91351  10.879   6.005   4.103  0.9858 -0.6563 -2.0048
  677MOL0     H91352  10.935   6.118   3.977  2.0966  0.1081  1.2254
  677MOL0     H91353  10.663   6.156   4.124  3.0566 -0.0699  2.9190
  677MOL0     H91354  10.690   6.056   3.985  0.8437 -1.3233  1.4189
  677MOL0     H91355  10.478   6.240   4.092 -0.9254 -1.0894  1.0907
  677MOL0     H91356  10.312   6.408   4.073 -0.3155  1.7245 -0.7074
  677MOL0     H91357  10.124   6.760   3.855  0.7546 -1.6311 -1.1301
  677MOL0     H91358   9.988   6.949   3.779 -0.1490 -0.6599 -0.1047
  677MOL0     H91359   9.975   7.278   3.610  2.3604 -1.4788 -1.0374
  677MOL0     H91360   9.975   7.114   3.626 -0.1199  0.9611 -0.2148
  677MOL0     H91361   9.830   7.117   3.839  3.3256 -2.0946 -2.1514
  677MOL0     H91362   9.858   7.288   3.854 -0.0464 -2.0811  1.7088
  677MOL0     H91363   9.724   7.336   3.651 -0.9515  0.8126  0.5702
  677MOL0     H91364   9.695   7.157   3.631  0.1554 -0.1664  0.7205
  677MOL0     H91365   9.590   7.361   3.833 -0.9471  0.4090  0.1134
  677MOL0     H91366   9.606   7.194   3.892 -1.5472 -0.0524  0.2596
  677MOL0     H91367   9.472   7.115   3.704  0.0764 -0.5481 -0.4054
  677MOL0     H91368   9.457   7.275   3.640  2.9150  0.8170 -0.3878
  677MOL0     H91369   9.257   7.188   3.779  2.7511 -2.0227 -2.8397
  677MOL0     H91370   9.360   7.166   3.912 -2.3619  1.2444  2.2947
  677MOL0     H91371   9.340   7.448   3.785 -1.9746 -0.4086 -0.0332
  677MOL0     H91372   9.397   7.411   3.953 -1.2388  1.0466  0.1750
  677MOL0     H91373   9.119   7.408   3.824  1.6721  2.8275 -1.7631
  677MOL0     H91374   9.152   7.344   3.987  1.8917 -0.8293  1.5886
  677MOL0     H91375  10.304   7.209   3.844 -0.6882  0.2180 -1.7429
  677MOL0     H91376  10.455   7.030   3.913 -0.6061  4.5490  0.3747
  677MOL0     H91377  10.567   6.645   3.824  2.6274 -0.8523 -0.7467
  677MOL0     H91378  10.739   6.491   3.857  0.4457 -0.9769 -0.0534
  677MOL0     H91379  11.059   6.327   5.591 -4.2238 -1.3453 -0.2129
  677MOL0     H91380  11.020   6.352   5.816  2.9252  2.0004  0.0754
  677MOL0     H91381  10.808   6.412   6.215  3.2130  0.9691 -3.1160
  677MOL0     H91382  10.822   6.495   6.447  0.4404  0.4792  1.1752
  677MOL0     H91383  10.869   6.546   6.653 -0.7812  1.5082  1.9974
  677MOL0     H91384  10.918   6.474   6.802  0.5419 -0.4210 -0.1045
  677MOL0     H91385  10.688   6.412   6.836  1.7579  2.4747  0.1112
  677MOL0     H91386  10.726   6.287   6.729  0.9312  0.2157  0.9830
  677MOL0     H91387  10.637   6.445   6.535  2.8621  0.6959 -0.0625
  677MOL0     H91388  10.619   6.567   6.655  0.1693  0.7333 -1.9324
  677MOL0     H91389  10.435   6.480   6.757 -2.3909  0.8434 -0.5334
  677MOL0     H91390  10.409   6.476   6.589  2.0377  1.9575  0.7133
  677MOL0     H91391  10.364   6.068   6.728 -0.6508  1.2849 -0.4498
  677MOL0     H91392  11.113   6.208   6.538 -0.6865 -2.6480 -2.3759
  677MOL0     H91393  11.108   6.031   6.242 -2.8675  2.0772  0.1831
  677MOL0     H91394  11.244   6.150   6.225  0.6014 -0.3610 -1.2992
  677MOL0     H91395  11.207   6.071   6.381 -2.1125  0.8288  0.1708
  678MOL0     O91396   5.473   9.969   2.736 -0.1168  0.4652  0.4504
  678MOL0     C91397   5.395  10.024   2.663  0.6010  0.3991 -0.4738
  678MOL0     O91398   5.345   9.969   2.548  0.3361  0.5983 -0.6479
  678MOL0     C91399   5.386   9.847   2.528  0.0415 -0.2875  0.5096
  678MOL0     C91400   5.301   9.736   2.541 -0.7500  0.2475 -0.0120
  678MOL0     C91401   5.352   9.611   2.524  0.5392 -0.6098  0.7322
  678MOL0     C91402   5.484   9.586   2.489  0.2468 -0.7282  0.2413
  678MOL0     O91403   5.538   9.459   2.479  0.0984 -0.6779 -0.5705
  678MOL0     C91404   5.499   9.347   2.560  0.5470 -0.4499 -0.0155
  678MOL0     C91405   5.424   9.248   2.470 -0.7165 -0.5697 -0.0450
  678MOL0     C91406   5.483   9.183   2.341 -0.0308  0.0800 -0.7516
  678MOL0     C91407   5.584   9.066   2.384  0.1777  1.0877  0.2833
  678MOL0     C91408   5.615   8.976   2.269 -0.5546 -0.6770 -0.5009
  678MOL0     C91409   5.726   8.879   2.302  0.0359  0.3700 -0.3863
  678MOL0     C91410   5.724   8.763   2.198  0.1142  0.6793  0.0471
  678MOL0     C91411   5.729   8.804   2.054 -0.3388 -0.3039  0.1633
  678MOL0     N91412   5.605   8.796   1.982  0.1868  0.5432 -0.2789
  678MOL0     C91413   5.508   8.887   1.965 -0.8606 -0.5203 -1.0737
  678MOL0     C91414   5.424   8.851   1.869 -0.1060 -0.3073  0.3827
  678MOL0     C91415   5.300   8.927   1.820  0.7400  1.6675  0.5062
  678MOL0     C91416   5.283   8.894   1.667 -0.2751 -0.3211  0.1065
  678MOL0     C91417   5.147   8.961   1.630  0.8413  0.5369  0.3722
  678MOL0     C91418   5.146   9.013   1.489  0.0922 -0.0213  0.3656
  678MOL0     O91419   5.016   9.055   1.452  0.2617 -0.0088 -0.0473
  678MOL0     C91420   4.954   9.169   1.493  0.2402 -0.1425  0.5395
  678MOL0     C91421   5.012   9.256   1.580 -0.2275 -1.2146  0.2814
  678MOL0     C91422   4.930   9.368   1.620 -0.1316  0.1018  0.5232
  678MOL0     C91423   4.792   9.387   1.592  0.2641 -0.2906  0.8254
  678MOL0     C91424   4.701   9.495   1.643  0.5216  0.4394 -0.1164
  678MOL0     O91425   4.571   9.503   1.595 -0.0311 -0.2495 -0.4647
  678MOL0     C91426   4.478   9.585   1.653 -0.3042 -0.2556 -0.5787
  678MOL0     C91427   4.485   9.651   1.782  0.3604  0.5973  0.1142
  678MOL0     C91428   4.372   9.731   1.818 -0.4484  0.2073 -0.8798
  678MOL0     C91429   4.262   9.748   1.734 -0.2519 -0.1817 -0.4236
  678MOL0     O91430   4.160   9.832   1.757 -0.3227 -0.7157 -0.4919
  678MOL0     C91431   4.120   9.919   1.656  0.5127  0.2200 -1.0346
  678MOL0     C91432   4.086  10.052   1.726  0.4734 -0.6649  0.7701
  678MOL0     C91433   4.077  10.164   1.614  0.4188 -0.2231 -0.7714
  678MOL0     C91434   4.055  10.303   1.679  0.1914 -0.4317  0.8898
  678MOL0     C91435   4.043  10.426   1.575  0.3494 -0.4895  0.6305
  678MOL0     C91436   3.914  10.407   1.474 -0.5178 -0.6531  0.4853
  678MOL0     C91437   3.867  10.547   1.425  0.3081 -0.0879  0.0770
  678MOL0     C91438   3.748  10.533   1.327 -0.0578 -0.7669 -0.5654
  678MOL0    Cl91439   3.804  10.446   1.171  0.0029  0.0879 -0.3720
  678MOL0     C91440   4.263   9.683   1.612  0.4465  0.3396  0.2106
  678MOL0     C91441   4.362   9.599   1.578 -0.6166 -1.1030 -0.9898
  678MOL0     O91442   4.758   9.576   1.712  0.2697 -0.5454  0.9741
  678MOL0     C91443   4.745   9.298   1.498  0.2368  0.7568 -0.2686
  678MOL0     C91444   4.826   9.186   1.452  0.1150  0.7904  0.8676
  678MOL0     N91445   5.459   8.712   1.849  0.4365  0.5268  0.2558
  678MOL0     N91446   5.569   8.684   1.911 -0.2764 -0.2382  0.5086
  678MOL0     C91447   5.559   9.694   2.449 -0.1246  0.1225  0.3380
  678MOL0     C91448   5.516   9.822   2.480 -0.2189 -0.2326 -0.0924
  678MOL0     C91449   5.391  10.174   2.669 -0.0767 -0.3916 -0.5120
  678MOL0     C91450   5.366  10.238   2.551 -0.0609  0.6648  0.0529
  678MOL0     C91451   5.329  10.368   2.536  0.1321 -1.7906  0.2913
  678MOL0     C91452   5.342  10.449   2.651 -1.3824  0.6502 -0.3030
  678MOL0     O91453   5.313  10.581   2.638 -0.3619 -0.6160 -0.0544
  678MOL0     C91454   5.350  10.685   2.734  0.0739 -1.3458  0.1294
  678MOL0     C91455   5.344  10.817   2.673 -0.1573 -0.0862  0.1688
  678MOL0     C91456   5.353  10.929   2.786  0.6143 -0.3980  0.0612
  678MOL0     C91457   5.338  11.064   2.711 -0.0849 -0.3192 -0.7962
  678MOL0     C91458   5.362  11.166   2.803  0.2139  0.2372  0.4039
  678MOL0     C91459   5.392  11.262   2.874  0.1271 -0.0451  0.4603
  678MOL0     C91460   5.388  10.395   2.770  0.7663  0.7062  0.4489
  678MOL0     C91461   5.407  10.256   2.784  0.2793  0.7166  0.2464
  678MOL0     C91462   5.424  10.198   2.914 -0.0890 -0.6893 -0.4856
  678MOL0     H91463   5.200   9.766   2.568 -0.2395  1.2910  0.8412
  678MOL0     H91464   5.287   9.527   2.546  0.8673 -1.3295 -0.9095
  678MOL0     H91465   5.583   9.292   2.601  1.9755 -0.8510 -3.1896
  678MOL0     H91466   5.442   9.379   2.648  0.3343  1.0933 -0.6746
  678MOL0     H91467   5.335   9.306   2.441  1.0408  3.5375  1.9740
  678MOL0     H91468   5.391   9.171   2.540 -2.4422  0.3408  0.2007
  678MOL0     H91469   5.539   9.257   2.284  2.2065 -0.5356  0.5340
  678MOL0     H91470   5.408   9.135   2.277 -0.7383 -1.6478  1.2436
  678MOL0     H91471   5.678   9.118   2.399 -0.0440  2.6951 -3.0687
  678MOL0     H91472   5.554   9.000   2.466 -1.4120 -1.2874 -2.0283
  678MOL0     H91473   5.526   8.923   2.233 -3.0647  2.1631  1.0110
  678MOL0     H91474   5.647   9.046   2.191  4.2924 -0.7254  1.1315
  678MOL0     H91475   5.824   8.927   2.301 -0.7718  2.3202  1.8952
  678MOL0     H91476   5.717   8.845   2.406  1.0288 -0.4652 -0.5624
  678MOL0     H91477   5.637   8.698   2.211  0.3583  0.2535 -0.4120
  678MOL0     H91478   5.806   8.695   2.225 -1.5043 -1.9760 -1.2243
  678MOL0     H91479   5.761   8.908   2.044 -2.9771  0.5041 -0.7309
  678MOL0     H91480   5.792   8.736   1.997 -3.2627 -1.1692 -2.2900
  678MOL0     H91481   5.493   8.983   2.013  0.4084 -0.0853 -1.5033
  678MOL0     H91482   5.213   8.883   1.870  1.2371  1.1136  0.9061
  678MOL0     H91483   5.299   9.036   1.822  0.6629  1.6590  1.3830
  678MOL0     H91484   5.368   8.932   1.609 -2.0892 -0.2913 -2.7540
  678MOL0     H91485   5.277   8.787   1.644  4.0722 -1.0233  1.3288
  678MOL0     H91486   5.115   9.031   1.708 -0.1920  3.9726 -2.8672
  678MOL0     H91487   5.069   8.885   1.625 -0.6220  2.0546 -0.8349
  678MOL0     H91488   5.172   8.935   1.417 -0.0916 -1.6135  1.9554
  678MOL0     H91489   5.214   9.099   1.483  2.1405 -1.6031 -0.1143
  678MOL0     H91490   5.116   9.252   1.609  0.7001  1.2409 -2.2282
  678MOL0     H91491   4.984   9.438   1.684 -0.2804  1.3927 -0.6904
  678MOL0     H91492   4.570   9.646   1.849  0.6755 -0.0589 -0.3204
  678MOL0     H91493   4.364   9.787   1.911 -0.3388 -1.2785  0.0584
  678MOL0     H91494   4.206   9.939   1.591  4.3230 -1.5511  2.9357
  678MOL0     H91495   4.035   9.870   1.608  0.0255 -2.0517  1.8916
  678MOL0     H91496   3.986  10.048   1.770 -2.1429  2.3271 -3.9475
  678MOL0     H91497   4.169  10.055   1.796  1.0142 -2.0484  0.2362
  678MOL0     H91498   4.163  10.166   1.546  1.7272  2.1698  0.8457
  678MOL0     H91499   3.987  10.148   1.554 -1.0430  2.3949  0.5480
  678MOL0     H91500   4.128  10.320   1.759  0.0979 -2.6695  1.5279
  678MOL0     H91501   3.970  10.293   1.747  0.9021 -2.3042  1.5856
  678MOL0     H91502   4.134  10.429   1.515 -1.1414 -1.8306 -1.8689
  678MOL0     H91503   4.040  10.523   1.627 -0.1553  2.2167 -3.8751
  678MOL0     H91504   3.937  10.336   1.393 -3.8418  2.5402 -3.7193
  678MOL0     H91505   3.824  10.379   1.529 -1.4265  2.7202  0.9243
  678MOL0     H91506   3.945  10.604   1.374 -0.8321 -1.0940 -2.9960
  678MOL0     H91507   3.840  10.607   1.513  1.8301  2.1072 -0.8627
  678MOL0     H91508   3.676  10.473   1.383  2.9491 -2.0186  2.2729
  678MOL0     H91509   3.711  10.635   1.311  1.2761  0.2014  1.9671
  678MOL0     H91510   4.182   9.694   1.541  1.1757 -0.9492 -0.8867
  678MOL0     H91511   4.341   9.545   1.486 -3.5405 -2.7385  0.4922
  678MOL0     H91512   4.642   9.306   1.464  0.1699 -3.1515 -1.4455
  678MOL0     H91513   4.786   9.111   1.384  2.2133 -0.4161  0.8808
  678MOL0     H91514   5.662   9.677   2.419 -1.2995 -1.5797 -3.2761
  678MOL0     H91515   5.574   9.912   2.463  1.6584 -0.7455  2.7535
  678MOL0     H91516   5.370  10.177   2.462 -2.2967  2.3348 -1.2991
  678MOL0     H91517   5.297  10.413   2.442  0.5675  0.0645  0.9820
  678MOL0     H91518   5.455  10.667   2.756  0.2855  1.3532  1.8265
  678MOL0     H91519   5.285  10.690   2.822  1.1679  1.2264  0.8890
  678MOL0     H91520   5.248  10.835   2.623 -1.8501 -2.3111  2.3674
  678MOL0     H91521   5.426  10.845   2.606  1.1203 -1.5703  1.0700
  678MOL0     H91522   5.445  10.928   2.846  0.9608 -2.5661 -0.4310
  678MOL0     H91523   5.270  10.911   2.855  1.7105 -0.1202  1.5116
  678MOL0     H91524   5.424  11.063   2.643  0.2739  2.8576 -0.5135
  678MOL0     H91525   5.245  11.081   2.656 -1.8587  0.1388  2.1205
  678MOL0     H91526   5.421  11.345   2.936  1.6781 -1.1123  1.2380
  678MOL0     H91527   5.395  10.453   2.862  1.5451 -0.6054  1.2478
  678MOL0     H91528   5.343  10.228   2.981 -0.1775 -4.0092  1.1396
  678MOL0     H91529   5.417  10.089   2.923  0.2132 -0.6454  0.3093
  678MOL0     H91530   5.522  10.229   2.950  1.1459 -1.0861 -3.2256
  679MOL0     O91531   4.493  11.307   8.604  0.2957 -0.4663 -0.5234
  679MOL0     C91532   4.475  11.278   8.488 -0.4981 -0.1065 -1.2724
  679MOL0     O91533   4.359  11.308   8.422  0.4273  0.2346 -0.2660
  679MOL0     C91534   4.240  11.359   8.470 -0.3133 -0.7556  0.0060
  679MOL0     C91535   4.136  11.369   8.384 -0.4283  0.2523 -0.0160
  679MOL0     C91536   4.005  11.396   8.420  0.2523  0.4595  0.4354
  679MOL0     C91537   3.979  11.435   8.557 -0.3366  1.0863  0.3794
  679MOL0     O91538   3.854  11.465   8.594 -0.4846 -0.1178  0.2065
  679MOL0     C91539   3.818  11.391   8.716 -0.4025  0.9782  0.3085
  679MOL0     C91540   3.675  11.429   8.738 -0.0592  1.2893  0.2571
  679MOL0     C91541   3.606  11.379   8.857 -0.4737 -0.3123  0.0571
  679MOL0     C91542   3.469  11.444   8.873 -0.5231  0.2536  0.2403
  679MOL0     C91543   3.385  11.414   8.999 -0.1222  0.8594  0.1043
  679MOL0     C91544   3.244  11.465   8.985 -0.0292  0.0241 -0.9165
  679MOL0     C91545   3.153  11.385   9.084 -0.0916 -0.0976 -0.4606
  679MOL0     C91546   3.155  11.425   9.232  0.2684  0.1705 -0.3708
  679MOL0     N91547   3.055  11.533   9.247 -0.6427  1.2163 -0.7924
  679MOL0     C91548   3.073  11.662   9.205 -0.3772  0.7163  0.8340
  679MOL0     C91549   2.960  11.721   9.245  0.1093 -0.1241 -0.3160
  679MOL0     C91550   2.934  11.864   9.213 -0.4234  0.7875  0.0638
  679MOL0     C91551   2.991  11.949   9.331 -0.8146 -0.5259 -1.0841
  679MOL0     C91552   2.924  12.088   9.346  0.6786  0.0738 -0.0092
  679MOL0     C91553   2.970  12.171   9.469 -0.4008 -0.5228 -0.7965
  679MOL0     O91554   2.976  12.309   9.433 -0.3261 -0.5541 -0.3080
  679MOL0     C91555   2.862  12.383   9.422  0.9854 -0.3597  0.1356
  679MOL0     C91556   2.736  12.338   9.475 -0.5256  0.6154  0.3642
  679MOL0     C91557   2.629  12.421   9.466 -0.0722  0.4144 -0.2799
  679MOL0     C91558   2.634  12.554   9.415 -0.3421  0.4254 -0.5956
  679MOL0     C91559   2.504  12.641   9.416  0.3526 -0.1940 -0.1610
  679MOL0     O91560   2.514  12.754   9.341 -0.1796 -1.1401 -0.8851
  679MOL0     C91561   2.405  12.815   9.279 -0.2512  1.6528 -0.2504
  679MOL0     C91562   2.415  12.845   9.138 -0.2987  0.2951  0.1317
  679MOL0     C91563   2.302  12.885   9.074 -0.2061  0.3815  0.5813
  679MOL0     C91564   2.181  12.925   9.151 -0.2724  0.6758 -0.0269
  679MOL0     O91565   2.068  12.963   9.094  0.1084  0.1569  0.3065
  679MOL0     C91566   2.086  13.090   9.032 -0.4666  0.2776  0.4428
  679MOL0     C91567   1.963  13.148   8.969 -0.1249  0.7429  0.3210
  679MOL0     C91568   1.851  13.178   9.078 -0.2565 -0.1864  0.6221
  679MOL0     C91569   1.731  13.221   9.002  0.3088 -0.7053  0.7583
  679MOL0     C91570   1.656  13.109   8.941 -0.5614  0.2616  1.2059
  679MOL0     C91571   1.539  13.159   8.869  0.1229 -0.2899 -0.7670
  679MOL0     C91572   1.552  13.255   8.745 -0.0219  0.3406 -0.2095
  679MOL0     C91573   1.555  13.172   8.622 -0.3834  1.2640  1.1184
  679MOL0    Cl91574   1.546  13.283   8.495 -0.4420  0.1854 -0.1808
  679MOL0     C91575   2.177  12.890   9.281  0.1629  0.4136 -1.0551
  679MOL0     C91576   2.287  12.840   9.355  0.1055  0.0017  0.3017
  679MOL0     O91577   2.406  12.608   9.477  0.1473  0.7040  0.6589
  679MOL0     C91578   2.756  12.599   9.352 -0.1370 -0.0765  0.2538
  679MOL0     C91579   2.866  12.508   9.360 -0.0575 -0.5202 -0.3519
  679MOL0     N91580   2.881  11.628   9.309  0.0888  0.2315  0.2114
  679MOL0     N91581   2.937  11.522   9.307 -0.5459  0.3664  0.2758
  679MOL0     C91582   4.089  11.422   8.648  0.5280 -0.1132 -0.6724
  679MOL0     C91583   4.224  11.396   8.608  0.0096  0.2930  0.8105
  679MOL0     C91584   4.588  11.195   8.414 -0.4000  0.4302  0.3529
  679MOL0     C91585   4.614  11.221   8.281 -0.5550  0.0432  1.1353
  679MOL0     C91586   4.709  11.162   8.205 -0.6517 -1.2697  0.6061
  679MOL0     C91587   4.783  11.055   8.265  0.0811  0.9010  0.4254
  679MOL0     O91588   4.865  10.985   8.182 -0.1620  0.5456  0.9520
  679MOL0     C91589   4.958  11.066   8.099 -0.3787 -0.6051  0.1891
  679MOL0     C91590   5.089  10.980   8.055 -0.3874 -0.3993  0.2654
  679MOL0     C91591   5.174  11.076   7.959  0.9642 -0.8082 -0.2878
  679MOL0     C91592   5.124  11.066   7.821  0.3557  0.4593 -0.2119
  679MOL0     C91593   5.208  10.971   7.748  0.4247  0.3387  0.1665
  679MOL0     C91594   5.271  10.888   7.694 -0.2429 -0.6440 -0.5544
  679MOL0     C91595   4.751  11.010   8.399 -0.6084  0.0664  0.7803
  679MOL0     C91596   4.660  11.083   8.476  0.0825  0.1020  0.1290
  679MOL0     C91597   4.638  11.052   8.625  0.1524 -0.2336 -0.2951
  679MOL0     H91598   4.139  11.327   8.283 -2.0273  0.3130 -0.1147
  679MOL0     H91599   3.938  11.424   8.340 -1.1940 -1.4718  0.8908
  679MOL0     H91600   3.824  11.284   8.698 -2.3563  1.2672 -2.8247
  679MOL0     H91601   3.888  11.411   8.798  2.7434 -3.8388 -0.8078
  679MOL0     H91602   3.618  11.397   8.650  0.5615 -2.1342  0.9692
  679MOL0     H91603   3.681  11.538   8.737  0.4246  1.2599 -0.1848
  679MOL0     H91604   3.667  11.392   8.947  0.4797  3.6255 -0.9645
  679MOL0     H91605   3.585  11.272   8.853  1.3482 -0.6529 -0.9822
  679MOL0     H91606   3.485  11.551   8.857  2.2795 -0.4637 -3.3161
  679MOL0     H91607   3.410  11.404   8.790 -0.2376  0.3734 -0.0199
  679MOL0     H91608   3.384  11.310   9.033 -0.1980  1.5858  2.5345
  679MOL0     H91609   3.442  11.465   9.077  3.1218  0.0739 -1.5735
  679MOL0     H91610   3.250  11.573   8.999  1.5223 -0.3428  2.2432
  679MOL0     H91611   3.215  11.450   8.881  3.3160 -0.1349 -1.9448
  679MOL0     H91612   3.175  11.278   9.084  0.5666 -0.0926  2.9051
  679MOL0     H91613   3.052  11.400   9.047 -0.0787  1.1027 -0.0783
  679MOL0     H91614   3.135  11.336   9.294 -1.6197  1.7228  1.3935
  679MOL0     H91615   3.249  11.465   9.272 -1.6575  0.0179  5.3593
  679MOL0     H91616   3.156  11.720   9.164  0.7836 -1.1527  0.4205
  679MOL0     H91617   2.979  11.883   9.115  0.0339  1.3785  0.3779
  679MOL0     H91618   2.825  11.873   9.217 -0.5870 -1.2807  1.4148
  679MOL0     H91619   2.964  11.905   9.427  3.1512 -0.0602  0.4132
  679MOL0     H91620   3.099  11.966   9.320 -0.2697  1.6882  4.4050
  679MOL0     H91621   2.818  12.063   9.355  0.6894 -0.4127 -1.1035
  679MOL0     H91622   2.937  12.139   9.251 -4.6328 -1.3587 -1.8695
  679MOL0     H91623   3.075  12.145   9.484 -0.1044  0.1569 -1.6485
  679MOL0     H91624   2.916  12.141   9.560  0.4816  1.4789  0.4797
  679MOL0     H91625   2.720  12.245   9.529  0.8111 -2.3471 -3.8062
  679MOL0     H91626   2.530  12.389   9.496  0.0377  0.0026 -0.3490
  679MOL0     H91627   2.505  12.829   9.079 -0.2384  0.7405  0.0943
  679MOL0     H91628   2.326  12.898   8.969 -1.2646 -1.3093  0.0856
  679MOL0     H91629   2.133  13.161   9.101  2.1051 -0.7157 -0.1529
  679MOL0     H91630   2.161  13.089   8.953  0.5146  0.6875  1.3349
  679MOL0     H91631   1.988  13.237   8.911 -0.7327  0.7023 -0.0096
  679MOL0     H91632   1.917  13.073   8.905  3.3966 -0.8710 -0.5569
  679MOL0     H91633   1.830  13.092   9.143 -2.4066  0.3625  0.7291
  679MOL0     H91634   1.895  13.262   9.134  1.7397 -0.2209 -0.7994
  679MOL0     H91635   1.763  13.294   8.927 -1.9354 -1.8588 -1.4679
  679MOL0     H91636   1.671  13.276   9.075  1.6801 -1.9603  2.9726
  679MOL0     H91637   1.630  13.030   9.012  1.4491 -0.8528  0.7791
  679MOL0     H91638   1.717  13.056   8.867  1.8060  3.1182  0.9523
  679MOL0     H91639   1.473  13.077   8.842 -0.7709 -0.4518  1.6335
  679MOL0     H91640   1.487  13.216   8.947  1.1528 -0.4669  0.0743
  679MOL0     H91641   1.644  13.315   8.751 -0.2505  0.5993  1.1713
  679MOL0     H91642   1.458  13.312   8.739 -1.6614 -2.2841 -0.7429
  679MOL0     H91643   1.647  13.113   8.623  0.2983  2.1997 -1.0362
  679MOL0     H91644   1.467  13.107   8.620  0.6061 -0.1020 -0.5046
  679MOL0     H91645   2.082  12.905   9.332  1.1660  1.2300  0.6438
  679MOL0     H91646   2.279  12.830   9.463 -1.4234  1.3525  0.3612
  679MOL0     H91647   2.761  12.702   9.316  3.7029 -0.6196 -1.2519
  679MOL0     H91648   2.967  12.529   9.324 -0.5132 -0.1359 -1.4268
  679MOL0     H91649   4.064  11.448   8.750 -3.7102  0.9674 -1.7790
  679MOL0     H91650   4.288  11.391   8.696 -1.6827  0.8273  2.1285
  679MOL0     H91651   4.551  11.301   8.243 -0.2863 -0.1951  0.1574
  679MOL0     H91652   4.716  11.187   8.099 -1.5664  1.4845  1.1413
  679MOL0     H91653   4.990  11.159   8.147 -1.9047  0.9010 -1.5464
  679MOL0     H91654   4.909  11.101   8.008 -0.0591  1.0256  0.6020
  679MOL0     H91655   5.069  10.881   8.014  1.6612 -1.3553  1.4741
  679MOL0     H91656   5.144  10.969   8.148  1.7095 -0.0670 -0.8765
  679MOL0     H91657   5.276  11.046   7.982  1.4376 -1.9591 -3.4395
  679MOL0     H91658   5.180  11.182   7.983  2.4414 -0.5998 -1.4201
  679MOL0     H91659   5.016  11.051   7.824  0.4958 -0.8031  3.3395
  679MOL0     H91660   5.139  11.167   7.781  0.6794  1.3521  1.9924
  679MOL0     H91661   5.329  10.803   7.661 -0.6026 -1.8207  1.6953
  679MOL0     H91662   4.792  10.915   8.433 -3.6980 -1.8046 -0.2717
  679MOL0     H91663   4.671  10.950   8.644  2.0003  0.1242 -1.3030
  679MOL0     H91664   4.700  11.121   8.682 -0.7810  2.1605 -2.0090
  679MOL0     H91665   4.532  11.056   8.653  0.8618 -0.0598  2.6217
  680MOL0     O91666   0.295  11.098   7.867 -0.6294  0.4051 -0.7535
  680MOL0     C91667   0.400  11.128   7.816 -0.1979 -0.4100 -0.4766
  680MOL0     O91668   0.426  11.137   7.678 -0.0619  0.4122 -0.1381
  680MOL0     C91669   0.323  11.113   7.602  1.0446 -0.1420 -0.7081
  680MOL0     C91670   0.242  10.993   7.603 -0.2221 -0.1350 -0.8786
  680MOL0     C91671   0.133  10.974   7.516 -0.6781 -0.0859  0.0655
  680MOL0     C91672   0.110  11.072   7.422 -0.6860  1.3581  0.6137
  680MOL0     O91673   0.001  11.066   7.334 -0.0897  0.3541  0.3569
  680MOL0     C91674  -0.052  10.936   7.295  0.2037 -0.1585 -1.1155
  680MOL0     C91675  -0.127  10.943   7.173 -0.4106  0.4070 -0.1073
  680MOL0     C91676  -0.040  10.963   7.058 -0.0195 -0.1185 -0.1625
  680MOL0     C91677  -0.107  10.990   6.918  0.4389 -0.4874 -0.4890
  680MOL0     C91678  -0.021  11.076   6.819 -0.0927  0.3358  0.3666
  680MOL0     C91679  -0.028  11.228   6.841 -0.0063 -0.2052 -0.1863
  680MOL0     C91680   0.020  11.296   6.721 -0.1288 -0.8087  0.7729
  680MOL0     C91681   0.170  11.335   6.732  0.1242 -0.6344 -0.5732
  680MOL0     N91682   0.226  11.418   6.631 -0.3492  0.2515 -0.9616
  680MOL0     C91683   0.232  11.555   6.635  0.6479 -1.0608 -0.2157
  680MOL0     C91684   0.275  11.597   6.519  0.5145  0.0491  0.0034
  680MOL0     C91685   0.288  11.742   6.475 -0.2312  0.5789 -0.4253
  680MOL0     C91686   0.169  11.826   6.480  0.0821 -1.1159  0.2221
  680MOL0     C91687   0.205  11.969   6.424  0.5170 -0.0359  0.3262
  680MOL0     C91688   0.252  11.975   6.275  0.4104 -0.0110 -0.4184
  680MOL0     O91689   0.178  11.876   6.192 -0.9066 -0.6483  0.4426
  680MOL0     C91690   0.157  11.891   6.055 -0.0615 -0.8211  0.5380
  680MOL0     C91691   0.171  12.015   5.982  0.0006 -0.3963  0.5054
  680MOL0     C91692   0.157  12.013   5.847  0.0815  0.4200 -1.3165
  680MOL0     C91693   0.109  11.901   5.777  0.6354  0.1625  0.1303
  680MOL0     C91694   0.073  11.914   5.638 -0.4079 -0.7411  0.1309
  680MOL0     O91695   0.084  12.030   5.576 -0.3696  0.3342 -0.5021
  680MOL0     C91696   0.083  12.007   5.441  0.2333  1.0378 -0.5223
  680MOL0     C91697  -0.022  12.055   5.361  0.5068 -1.1083 -0.7813
  680MOL0     C91698  -0.024  12.041   5.227  0.7977  0.3073 -0.2850
  680MOL0     C91699   0.086  11.985   5.160  0.2457 -0.6430 -0.8783
  680MOL0     O91700   0.100  11.956   5.027 -0.2350  0.1198  0.1611
  680MOL0     C91701   0.002  12.009   4.931 -0.4933  0.1844  0.6531
  680MOL0     C91702   0.083  12.006   4.801  0.5759 -0.4644 -0.0750
  680MOL0     C91703   0.004  12.049   4.677 -0.4332  0.8000 -0.6669
  680MOL0     C91704   0.087  12.029   4.549 -0.6416 -0.0845 -0.1680
  680MOL0     C91705   0.006  12.064   4.418 -0.5630 -0.4527  0.1717
  680MOL0     C91706  -0.108  11.966   4.389 -0.0347 -0.2836 -0.0407
  680MOL0     C91707  -0.182  11.984   4.255  0.4209  0.4402  0.0666
  680MOL0     C91708  -0.299  11.886   4.259 -0.4192  0.3122  0.5760
  680MOL0    Cl91709  -0.456  11.958   4.340 -0.2471 -0.2577  0.5986
  680MOL0     C91710   0.188  11.938   5.235  0.1896  0.1496 -0.2145
  680MOL0     C91711   0.188  11.947   5.376 -0.4293  0.4843  0.3485
  680MOL0     O91712   0.036  11.811   5.584 -0.2911  0.1278 -0.0918
  680MOL0     C91713   0.087  11.778   5.853 -0.4540 -0.3242  0.5831
  680MOL0     C91714   0.113  11.779   5.991 -0.4003  0.0074 -1.0121
  680MOL0     N91715   0.310  11.474   6.457 -0.1491 -0.3489  0.3389
  680MOL0     N91716   0.297  11.375   6.530  0.5703  0.2257 -0.1630
  680MOL0     C91717   0.195  11.181   7.413  0.1392 -0.2741  0.4683
  680MOL0     C91718   0.300  11.202   7.491  0.3598 -0.3599 -0.5351
  680MOL0     C91719   0.511  11.163   7.918 -0.5429  0.1822  1.1135
  680MOL0     C91720   0.489  11.165   8.054  0.1271  0.0479  0.1055
  680MOL0     C91721   0.587  11.192   8.148 -0.1327 -0.2777 -0.1553
  680MOL0     C91722   0.706  11.243   8.106  0.0406  0.5038  0.5329
  680MOL0     O91723   0.812  11.262   8.189  0.9699  0.4243  0.5207
  680MOL0     C91724   0.944  11.276   8.134 -1.1170 -0.2034  0.2350
  680MOL0     C91725   1.023  11.283   8.261  0.3352  0.7238 -0.2853
  680MOL0     C91726   0.985  11.395   8.357 -0.6362 -0.5115  0.0740
  680MOL0     C91727   0.954  11.350   8.502 -0.7043  0.2688 -0.7000
  680MOL0     C91728   0.839  11.258   8.497 -0.4024  0.1819 -0.0281
  680MOL0     C91729   0.746  11.184   8.517 -0.3189 -1.6260 -0.5930
  680MOL0     C91730   0.711  11.269   7.966 -0.9913  0.2228  0.3264
  680MOL0     C91731   0.626  11.216   7.873 -1.4640  1.5899  0.3299
  680MOL0     C91732   0.663  11.254   7.734 -0.7580  0.7305 -0.6311
  680MOL0     H91733   0.275  10.925   7.680  1.5379 -2.2439 -3.3352
  680MOL0     H91734   0.061  10.894   7.527 -2.3205  1.5835  2.6777
  680MOL0     H91735   0.029  10.864   7.280 -1.2825 -2.0252 -0.5725
  680MOL0     H91736  -0.115  10.888   7.370  1.4779  2.6695  2.0218
  680MOL0     H91737  -0.205  11.019   7.182 -0.9466 -0.2786  1.4916
  680MOL0     H91738  -0.188  10.854   7.152 -2.9368  2.3041 -1.3157
  680MOL0     H91739   0.031  10.881   7.048 -0.2315 -0.3234  0.0274
  680MOL0     H91740   0.033  11.041   7.083 -2.2438  1.5547  1.5632
  680MOL0     H91741  -0.124  10.884   6.897 -0.9306 -0.3184 -0.3478
  680MOL0     H91742  -0.200  11.045   6.933  0.3841 -0.3691 -1.2308
  680MOL0     H91743   0.084  11.046   6.823  0.1851  1.1770 -0.3284
  680MOL0     H91744  -0.068  11.057   6.721 -0.7360 -4.2865  1.3096
  680MOL0     H91745  -0.127  11.268   6.864 -0.0947 -0.3018 -0.3968
  680MOL0     H91746   0.040  11.245   6.925  0.8597  2.8155 -1.3494
  680MOL0     H91747  -0.036  11.389   6.712  0.3862 -0.3560  2.0157
  680MOL0     H91748  -0.006  11.242   6.629  0.7747  0.3146 -0.1876
  680MOL0     H91749   0.181  11.396   6.823 -0.5042 -1.2091 -0.1019
  680MOL0     H91750   0.233  11.248   6.753  3.7801  1.5837 -1.4132
  680MOL0     H91751   0.207  11.610   6.725  3.2744  0.6479 -0.4236
  680MOL0     H91752   0.364  11.786   6.540 -1.3833  1.6525  0.2506
  680MOL0     H91753   0.335  11.742   6.376  0.8789 -1.0529  0.0775
  680MOL0     H91754   0.081  11.784   6.431 -0.1772 -1.6361  1.1122
  680MOL0     H91755   0.149  11.843   6.587 -2.9731  1.8034 -0.6172
  680MOL0     H91756   0.284  12.014   6.486  0.4842 -1.3957  1.4063
  680MOL0     H91757   0.120  12.038   6.433  1.8304  1.5998  0.6830
  680MOL0     H91758   0.360  11.958   6.279  0.5148  0.8633  1.7067
  680MOL0     H91759   0.229  12.076   6.242  1.0290  0.7390  1.3257
  680MOL0     H91760   0.209  12.105   6.029 -1.2417  0.7199 -0.5534
  680MOL0     H91761   0.167  12.112   5.803 -2.7474  2.1810  1.5768
  680MOL0     H91762  -0.109  12.106   5.403 -0.0771  0.9387 -4.0883
  680MOL0     H91763  -0.104  12.085   5.170 -1.1305  0.7663  2.5539
  680MOL0     H91764  -0.096  11.962   4.920 -0.8744  1.6293 -5.4712
  680MOL0     H91765  -0.021  12.112   4.959 -1.3975  0.3031 -0.4686
  680MOL0     H91766   0.174  12.064   4.820  2.6122 -4.1148  2.7248
  680MOL0     H91767   0.115  11.902   4.785 -1.1981 -0.7644 -2.0551
  680MOL0     H91768  -0.088  11.990   4.678 -0.1911  0.4147 -0.8153
  680MOL0     H91769  -0.007  12.158   4.678  3.1484  1.3948  3.2806
  680MOL0     H91770   0.128  11.930   4.528  0.5071  0.0340  1.3549
  680MOL0     H91771   0.169  12.102   4.559 -1.3162  0.7395 -0.4919
  680MOL0     H91772   0.070  12.083   4.331  0.3829 -0.3859  0.8635
  680MOL0     H91773  -0.042  12.161   4.433  0.9506  0.6270 -1.4879
  680MOL0     H91774  -0.068  11.865   4.401  0.0469 -0.1429  0.9474
  680MOL0     H91775  -0.180  11.971   4.471 -0.0960 -4.6372  0.3882
  680MOL0     H91776  -0.114  11.946   4.178  1.1752  1.4394  0.2290
  680MOL0     H91777  -0.217  12.087   4.245 -0.0228  0.2402 -0.5438
  680MOL0     H91778  -0.313  11.846   4.158  0.0352 -1.8885  1.3152
  680MOL0     H91779  -0.258  11.801   4.315 -0.4186 -2.4877 -3.2451
  680MOL0     H91780   0.272  11.884   5.192 -2.0138 -1.6267 -2.4912
  680MOL0     H91781   0.279  11.910   5.421  0.7139  1.6424 -0.9144
  680MOL0     H91782   0.044  11.693   5.801  1.9045 -3.9169  3.8983
  680MOL0     H91783   0.077  11.697   6.052 -3.8718  1.6604 -0.6014
  680MOL0     H91784   0.159  11.255   7.344  0.3702 -3.2842 -3.1893
  680MOL0     H91785   0.353  11.292   7.461  2.0627 -1.9902 -2.8813
  680MOL0     H91786   0.391  11.140   8.093 -0.7653  0.3099 -1.8274
  680MOL0     H91787   0.585  11.184   8.256  1.3875 -3.4598 -0.2694
  680MOL0     H91788   0.968  11.370   8.083 -1.2394 -0.0462  0.4639
  680MOL0     H91789   0.973  11.189   8.075  0.0698 -0.2027  0.7926
  680MOL0     H91790   1.128  11.303   8.238  0.8593 -0.4189  0.9454
  680MOL0     H91791   1.014  11.179   8.296  1.0020  0.1193 -1.8385
  680MOL0     H91792   0.915  11.468   8.315  1.3786  1.8404  0.5272
  680MOL0     H91793   1.076  11.456   8.358 -0.9252 -0.0700 -0.2895
  680MOL0     H91794   1.038  11.301   8.553 -0.8006  2.1025  1.3344
  680MOL0     H91795   0.930  11.437   8.563 -0.4517 -0.8118  1.0185
  680MOL0     H91796   0.664  11.119   8.537 -0.0763 -1.8717 -0.3875
  680MOL0     H91797   0.783  11.339   7.925 -1.2182  0.3975  0.2251
  680MOL0     H91798   0.679  11.163   7.674  2.3982  2.6481 -3.0209
  680MOL0     H91799   0.580  11.318   7.705 -0.7143  1.0593 -0.0421
  680MOL0     H91800   0.752  11.316   7.721 -0.9315  1.1511  0.1881
  681MOL0     O91801   5.541   9.757   7.319  1.2949  0.1232 -0.8462
  681MOL0     C91802   5.604   9.745   7.426  0.2133 -0.2455  0.0258
  681MOL0     O91803   5.736   9.717   7.434  0.0782 -0.6587  0.0300
  681MOL0     C91804   5.822   9.694   7.325 -0.4468 -0.0161  0.5055
  681MOL0     C91805   5.932   9.625   7.360 -0.0151  0.1529  0.1276
  681MOL0     C91806   6.029   9.585   7.269 -0.2080 -0.3475 -0.4583
  681MOL0     C91807   6.029   9.636   7.137 -0.2150  1.3551  0.2875
  681MOL0     O91808   6.136   9.628   7.054  0.3914 -0.8889  0.3675
  681MOL0     C91809   6.250   9.538   7.075 -0.5575  0.3423  0.7273
  681MOL0     C91810   6.318   9.495   6.947 -0.4127 -0.1240 -0.5874
  681MOL0     C91811   6.419   9.600   6.884  0.6559  1.1682 -0.4984
  681MOL0     C91812   6.494   9.538   6.769 -0.4878 -0.3287  1.0699
  681MOL0     C91813   6.589   9.632   6.688  0.1152  1.0616  0.1505
  681MOL0     C91814   6.666   9.531   6.604  0.6129 -0.9337  0.7972
  681MOL0     C91815   6.588   9.459   6.496 -0.1429 -0.2757  0.3177
  681MOL0     C91816   6.683   9.347   6.450  0.1424 -0.8129 -0.0260
  681MOL0     N91817   6.615   9.254   6.360 -0.1460 -0.4515 -0.2523
  681MOL0     C91818   6.486   9.192   6.374 -0.1594 -0.7311  0.1367
  681MOL0     C91819   6.485   9.086   6.289 -0.5888 -0.2702 -0.2888
  681MOL0     C91820   6.376   8.980   6.269  0.1707  0.4450 -0.3974
  681MOL0     C91821   6.419   8.824   6.271  0.1106 -0.5632  0.4118
  681MOL0     C91822   6.502   8.802   6.139  0.3055 -0.4556  0.4827
  681MOL0     C91823   6.531   8.662   6.101 -0.5920 -0.5957  0.2898
  681MOL0     O91824   6.411   8.594   6.106  0.5703 -0.3079  0.9295
  681MOL0     C91825   6.425   8.461   6.081 -0.2533  0.9168 -0.0975
  681MOL0     C91826   6.389   8.368   6.176  0.1555 -0.4193 -0.2001
  681MOL0     C91827   6.388   8.232   6.142  1.1593  0.2655 -0.3792
  681MOL0     C91828   6.444   8.183   6.015  1.4550 -0.0684 -0.5355
  681MOL0     C91829   6.448   8.041   5.980  1.1953 -0.5062  0.3922
  681MOL0     O91830   6.491   7.996   5.862 -0.1522 -0.1106  0.7165
  681MOL0     C91831   6.484   7.861   5.835  1.0141  0.3597  0.0162
  681MOL0     C91832   6.458   7.833   5.696  0.9186 -1.0893  0.3513
  681MOL0     C91833   6.461   7.701   5.660 -0.4396 -0.6555 -1.3390
  681MOL0     C91834   6.500   7.595   5.750  0.7469  0.6873 -0.3578
  681MOL0     O91835   6.515   7.466   5.698 -0.0256  0.1880 -0.3135
  681MOL0     C91836   6.509   7.348   5.778  0.2756  1.0304 -1.0859
  681MOL0     C91837   6.548   7.225   5.693 -0.8142  0.7066  0.0888
  681MOL0     C91838   6.613   7.116   5.783 -0.8761 -0.6810  0.0569
  681MOL0     C91839   6.506   7.035   5.858  0.0692 -0.3100 -0.0150
  681MOL0     C91840   6.562   6.907   5.929 -1.0799 -0.1851 -0.2191
  681MOL0     C91841   6.444   6.825   6.006 -0.3502  0.6407  0.2613
  681MOL0     C91842   6.497   6.690   6.063 -0.2343  0.3853 -0.4849
  681MOL0     C91843   6.510   6.574   5.955  0.2551 -0.2263 -0.0056
  681MOL0    Cl91844   6.583   6.432   6.031 -0.1631 -0.7173  0.4723
  681MOL0     C91845   6.546   7.629   5.882 -0.1220  0.3052  0.2807
  681MOL0     C91846   6.541   7.764   5.918  0.4191 -0.2438 -0.8225
  681MOL0     O91847   6.398   7.971   6.070  0.4634 -0.5483  0.1664
  681MOL0     C91848   6.497   8.283   5.925  0.1439  1.2098 -0.5452
  681MOL0     C91849   6.473   8.418   5.958  0.1389  1.1246 -0.4009
  681MOL0     N91850   6.605   9.089   6.227 -0.3598 -0.6902  0.9468
  681MOL0     N91851   6.685   9.178   6.275 -0.1702  0.0991 -0.1793
  681MOL0     C91852   5.915   9.702   7.092  0.6492  0.4929  0.1605
  681MOL0     C91853   5.808   9.725   7.187 -0.1940 -0.0791  0.2039
  681MOL0     C91854   5.532   9.783   7.553 -0.8289  0.3074  0.4412
  681MOL0     C91855   5.588   9.731   7.666 -0.4171  0.6422 -0.0119
  681MOL0     C91856   5.514   9.738   7.790 -0.1889  0.1478  0.1452
  681MOL0     C91857   5.398   9.821   7.799 -1.2324 -0.0090  0.1436
  681MOL0     O91858   5.336   9.825   7.914  0.7043  0.2054 -0.2070
  681MOL0     C91859   5.187   9.835   7.915 -0.1765 -0.3370 -0.5613
  681MOL0     C91860   5.119   9.719   7.977 -0.3626  0.0677 -0.7131
  681MOL0     C91861   5.175   9.670   8.115 -0.1778  0.0320 -0.2839
  681MOL0     C91862   5.187   9.791   8.207  0.5279 -0.3369 -0.7384
  681MOL0     C91863   5.233   9.758   8.342  0.1507  1.1370  0.2439
  681MOL0     C91864   5.255   9.696   8.447 -0.4050  0.4878 -0.2935
  681MOL0     C91865   5.350   9.878   7.683 -0.7031 -1.1027 -0.8357
  681MOL0     C91866   5.414   9.863   7.562  0.7310  0.2861  0.7648
  681MOL0     C91867   5.362   9.942   7.446  0.5110  0.7448 -0.2189
  681MOL0     H91868   5.958   9.614   7.465  1.8610 -0.2392 -0.3371
  681MOL0     H91869   6.118   9.534   7.305 -1.1511 -1.8125 -0.0754
  681MOL0     H91870   6.331   9.575   7.139  0.4537 -2.1066  0.9995
  681MOL0     H91871   6.222   9.442   7.119  4.6166 -1.1635  1.4798
  681MOL0     H91872   6.248   9.453   6.875 -2.4716  0.3431  1.0471
  681MOL0     H91873   6.389   9.417   6.978 -2.2177 -0.7737  2.1903
  681MOL0     H91874   6.494   9.637   6.954  2.7512 -1.3995 -1.2572
  681MOL0     H91875   6.363   9.683   6.839 -0.9507 -0.8763 -2.5706
  681MOL0     H91876   6.550   9.458   6.818  0.2736 -1.3221 -1.2949
  681MOL0     H91877   6.424   9.486   6.702 -0.3171  1.1831 -0.3330
  681MOL0     H91878   6.531   9.699   6.623 -1.4125 -0.4482 -0.1348
  681MOL0     H91879   6.651   9.685   6.760 -1.9993 -0.3775  3.2528
  681MOL0     H91880   6.752   9.583   6.561 -0.0746  0.6313  1.2201
  681MOL0     H91881   6.711   9.456   6.670 -1.6813 -3.3760 -0.2414
  681MOL0     H91882   6.559   9.516   6.407 -3.3816 -1.4939  0.4481
  681MOL0     H91883   6.492   9.412   6.518 -1.1958  0.5962 -2.0699
  681MOL0     H91884   6.759   9.404   6.396 -2.2541  3.5439  0.7163
  681MOL0     H91885   6.746   9.306   6.528  0.2461  2.4246  1.7654
  681MOL0     H91886   6.397   9.210   6.435 -0.5890 -0.9495 -0.4149
  681MOL0     H91887   6.302   9.007   6.345  0.3000  2.9146 -1.0853
  681MOL0     H91888   6.336   9.008   6.172 -2.1084  2.5209  1.0295
  681MOL0     H91889   6.480   8.792   6.356  1.9135 -1.5843 -1.1700
  681MOL0     H91890   6.322   8.773   6.274  0.0456 -0.4336  0.5437
  681MOL0     H91891   6.599   8.854   6.143  0.1834 -0.2822  1.2373
  681MOL0     H91892   6.457   8.856   6.055 -1.3529 -2.4599  0.0010
  681MOL0     H91893   6.596   8.614   6.174 -1.0363 -1.0826  0.3737
  681MOL0     H91894   6.579   8.660   6.003 -1.2994 -2.4440 -0.0613
  681MOL0     H91895   6.337   8.384   6.270 -2.3709 -1.3158 -1.3419
  681MOL0     H91896   6.345   8.165   6.216 -0.2014 -1.3606 -2.5182
  681MOL0     H91897   6.445   7.917   5.629 -0.0805  1.0023  2.9900
  681MOL0     H91898   6.439   7.673   5.558  1.7610 -0.4168 -1.9407
  681MOL0     H91899   6.582   7.359   5.858 -0.8541  0.4141  0.0697
  681MOL0     H91900   6.412   7.330   5.827  0.5295 -1.3769 -1.3885
  681MOL0     H91901   6.464   7.183   5.638 -1.5544  2.2259  0.0026
  681MOL0     H91902   6.634   7.247   5.629  0.9952 -1.3048  1.6620
  681MOL0     H91903   6.658   7.044   5.714 -0.7169 -0.5403  0.0153
  681MOL0     H91904   6.687   7.167   5.845 -3.8577  3.8810  0.3376
  681MOL0     H91905   6.419   7.010   5.796 -0.3907  0.4873  0.2980
  681MOL0     H91906   6.459   7.091   5.939  1.1715 -2.2147  2.0642
  681MOL0     H91907   6.648   6.930   5.993 -0.3783 -1.4882 -0.6664
  681MOL0     H91908   6.604   6.839   5.855  2.0563 -0.2216  1.4173
  681MOL0     H91909   6.411   6.897   6.082 -1.4371  0.8712 -0.4178
  681MOL0     H91910   6.364   6.804   5.935  0.7463 -0.0178 -0.8076
  681MOL0     H91911   6.437   6.655   6.148 -2.8423  0.5045 -2.1677
  681MOL0     H91912   6.597   6.709   6.104  0.9016  1.1413 -3.3867
  681MOL0     H91913   6.410   6.553   5.915 -0.3103  0.2108  1.1230
  681MOL0     H91914   6.575   6.608   5.874 -0.2401  0.2884 -0.1939
  681MOL0     H91915   6.594   7.556   5.945 -0.3861  0.6194  0.8554
  681MOL0     H91916   6.569   7.794   6.018 -0.4953 -0.0097 -0.6321
  681MOL0     H91917   6.529   8.250   5.826  3.5348 -2.3400  1.4702
  681MOL0     H91918   6.492   8.505   5.895 -0.1486  1.0944 -0.5278
  681MOL0     H91919   5.915   9.746   6.993  0.3692 -0.5314 -0.3097
  681MOL0     H91920   5.715   9.775   7.161 -0.8176 -1.5204 -0.4761
  681MOL0     H91921   5.658   9.649   7.660 -2.4267 -1.1935  0.5404
  681MOL0     H91922   5.542   9.676   7.875 -5.5244 -2.2584  0.5221
  681MOL0     H91923   5.146   9.826   7.814 -1.2213 -1.4816 -0.0486
  681MOL0     H91924   5.149   9.933   7.944 -0.3379 -0.8674  1.0967
  681MOL0     H91925   5.114   9.642   7.899 -0.7750  1.8905 -2.5901
  681MOL0     H91926   5.018   9.754   8.000 -0.0795  0.5843 -0.2347
  681MOL0     H91927   5.269   9.618   8.095 -1.0101 -1.4883 -0.4303
  681MOL0     H91928   5.122   9.585   8.161  1.9084 -1.4379 -0.4696
  681MOL0     H91929   5.253   9.874   8.182 -0.7808  0.6819 -0.8772
  681MOL0     H91930   5.083   9.822   8.222  0.4166 -0.3230 -1.5245
  681MOL0     H91931   5.267   9.622   8.524 -0.9489  2.9312  2.3353
  681MOL0     H91932   5.254   9.929   7.688 -0.9401 -1.4107 -1.9892
  681MOL0     H91933   5.433   9.979   7.371 -1.9666  2.3964 -1.8823
  681MOL0     H91934   5.291   9.877   7.395  0.6129  0.5449 -0.1093
  681MOL0     H91935   5.315  10.034   7.482  1.8272  1.0569  0.8079
  682MOL0     O91936   8.291   6.471   8.579 -0.2140 -0.3480  0.5391
  682MOL0     C91937   8.290   6.541   8.476 -0.3615 -0.7159 -0.2088
  682MOL0     O91938   8.357   6.524   8.354 -0.6352 -0.1634 -0.0380
  682MOL0     C91939   8.470   6.449   8.366 -0.3004  0.2302 -0.5069
  682MOL0     C91940   8.596   6.503   8.350 -0.4977 -0.3413  0.4461
  682MOL0     C91941   8.710   6.422   8.356 -0.4559 -0.5984  0.9985
  682MOL0     C91942   8.699   6.283   8.351 -0.2292 -0.8043  0.6318
  682MOL0     O91943   8.808   6.198   8.376  0.2299 -0.0121 -0.0317
  682MOL0     C91944   8.829   6.095   8.269 -0.8408 -0.4914  0.1847
  682MOL0     C91945   8.903   5.965   8.321  0.1006 -0.6771 -0.0858
  682MOL0     C91946   9.022   6.010   8.422  0.0694 -1.2645  0.4661
  682MOL0     C91947   9.108   5.891   8.472  0.1422 -0.2560  0.0282
  682MOL0     C91948   9.217   5.938   8.559  0.7235  0.5483 -0.0651
  682MOL0     C91949   9.313   5.838   8.606  0.1186 -1.0432  0.5907
  682MOL0     C91950   9.413   5.900   8.707  0.4972  0.3437  0.7395
  682MOL0     C91951   9.520   5.810   8.775  0.1969  0.3842 -0.4651
  682MOL0     N91952   9.458   5.694   8.838 -0.2519  0.4030  0.4588
  682MOL0     C91953   9.439   5.560   8.798 -0.3475  0.4618  0.9394
  682MOL0     C91954   9.361   5.502   8.892  0.0011 -0.0253  0.4630
  682MOL0     C91955   9.308   5.358   8.885  0.6473 -0.0815 -0.4519
  682MOL0     C91956   9.432   5.262   8.870  0.1093  0.1026 -0.3065
  682MOL0     C91957   9.532   5.261   8.981  0.0162 -0.2793  0.4933
  682MOL0     C91958   9.638   5.149   8.970  0.5286  0.4833  0.5092
  682MOL0     O91959   9.572   5.022   8.985 -0.1142  0.3303  0.8026
  682MOL0     C91960   9.509   4.999   9.099  0.8163 -0.9387 -0.5191
  682MOL0     C91961   9.565   5.014   9.229  0.0400  0.1336 -0.7417
  682MOL0     C91962   9.491   4.980   9.344 -0.4881  0.2659 -0.1220
  682MOL0     C91963   9.363   4.922   9.328  0.3758  0.2130 -0.6651
  682MOL0     C91964   9.298   4.864   9.454  0.0138 -0.5336 -0.5369
  682MOL0     O91965   9.169   4.830   9.428  0.1724 -0.1481  0.0121
  682MOL0     C91966   9.074   4.806   9.523  0.1470  0.4779 -0.8169
  682MOL0     C91967   9.091   4.803   9.668  0.3215  0.3283  0.0692
  682MOL0     C91968   8.983   4.770   9.749  0.6235  0.2037  0.2179
  682MOL0     C91969   8.857   4.751   9.703 -0.9115  0.3455  0.9212
  682MOL0     O91970   8.751   4.725   9.789  0.6387  0.7104  0.0110
  682MOL0     C91971   8.627   4.796   9.771 -0.8002  0.3393  0.4311
  682MOL0     C91972   8.645   4.923   9.846 -0.2274  0.0095 -0.9779
  682MOL0     C91973   8.568   5.038   9.788  0.7464 -0.4742  0.2643
  682MOL0     C91974   8.601   5.085   9.638 -0.6532  0.6830 -0.3821
  682MOL0     C91975   8.750   5.129   9.631 -0.5341 -0.0806 -0.2233
  682MOL0     C91976   8.790   5.168   9.487 -0.2778  0.2703  0.4878
  682MOL0     C91977   8.922   5.238   9.471  0.3387 -0.4599 -0.0838
  682MOL0     C91978   9.035   5.134   9.494  0.9044  0.8477  0.5496
  682MOL0    Cl91979   9.201   5.218   9.502  0.0442 -0.7596 -0.3379
  682MOL0     C91980   8.835   4.743   9.566  0.0369 -0.4466  0.3721
  682MOL0     C91981   8.944   4.771   9.482 -0.1611  0.4442  0.7680
  682MOL0     O91982   9.363   4.844   9.558 -0.1820  0.4725  0.2350
  682MOL0     C91983   9.299   4.911   9.199 -0.2837  0.0297 -0.1706
  682MOL0     C91984   9.380   4.952   9.092  0.6951 -0.1614  0.0925
  682MOL0     N91985   9.351   5.591   8.998  0.7598 -0.1341 -0.4194
  682MOL0     N91986   9.407   5.704   8.967  0.9311  0.2976  0.2622
  682MOL0     C91987   8.573   6.232   8.341 -1.3865  0.0411  0.7232
  682MOL0     C91988   8.463   6.306   8.364  0.1066  0.7200 -0.1441
  682MOL0     C91989   8.217   6.674   8.488  0.6127 -0.3986 -0.2774
  682MOL0     C91990   8.287   6.788   8.528 -0.0743 -0.8224 -0.5551
  682MOL0     C91991   8.219   6.911   8.549  0.4408 -0.3044 -0.0033
  682MOL0     C91992   8.088   6.930   8.498  0.4566 -0.0429 -0.5869
  682MOL0     O91993   8.012   7.044   8.499 -0.4975  0.8298 -0.9299
  682MOL0     C91994   8.067   7.169   8.531 -0.5933 -1.3993 -0.2052
  682MOL0     C91995   8.112   7.248   8.412 -0.3015  0.2496 -0.0805
  682MOL0     C91996   7.992   7.305   8.327 -0.4987  0.3931 -1.1917
  682MOL0     C91997   8.036   7.372   8.192 -0.3944  0.6509  0.6248
  682MOL0     C91998   7.976   7.309   8.071  0.4863 -0.9625 -0.4363
  682MOL0     C91999   7.919   7.259   7.978  0.3342  0.0444  0.4794
  682MOL0     C92000   8.029   6.821   8.438  0.1305  0.1283 -0.2256
  682MOL0     C92001   8.087   6.694   8.442  0.5343  0.3722 -0.9677
  682MOL0     C92002   8.015   6.577   8.384  0.1069  0.1048  0.8919
  682MOL0     H92003   8.600   6.610   8.332 -0.6005 -0.4970 -0.5522
  682MOL0     H92004   8.810   6.463   8.348 -0.9113  0.8392  2.1602
  682MOL0     H92005   8.734   6.064   8.226  0.3202  0.8344 -3.8537
  682MOL0     H92006   8.889   6.145   8.191  1.4359 -1.9275  0.9200
  682MOL0     H92007   8.945   5.915   8.234 -1.9159  0.8717 -2.0523
  682MOL0     H92008   8.833   5.911   8.385  0.5614  0.4867  1.4811
  682MOL0     H92009   8.989   6.072   8.506  3.4998 -0.1678  1.1754
  682MOL0     H92010   9.083   6.079   8.362  1.1611 -0.2714  2.5978
  682MOL0     H92011   9.054   5.832   8.546  3.6944 -0.4565  2.7160
  682MOL0     H92012   9.132   5.838   8.380  2.0961  0.4498  0.0788
  682MOL0     H92013   9.269   6.019   8.506  0.6803 -0.4282 -1.6951
  682MOL0     H92014   9.178   5.994   8.643  0.9088  0.1834  0.2665
  682MOL0     H92015   9.257   5.758   8.654 -2.4141 -0.1251 -0.6221
  682MOL0     H92016   9.357   5.791   8.518  0.3708  0.8931 -0.3790
  682MOL0     H92017   9.350   5.944   8.785  1.5085  0.9773  1.2247
  682MOL0     H92018   9.468   5.988   8.671 -0.9476  1.7783  1.8546
  682MOL0     H92019   9.594   5.771   8.705 -3.6737 -2.3423 -3.5226
  682MOL0     H92020   9.561   5.866   8.859 -1.8906 -1.0941  1.6917
  682MOL0     H92021   9.466   5.521   8.700 -0.7874  1.9078  0.2169
  682MOL0     H92022   9.240   5.337   8.968 -0.0985  1.4840 -0.6362
  682MOL0     H92023   9.250   5.346   8.793  2.0525 -2.6649 -1.0787
  682MOL0     H92024   9.396   5.159   8.860  0.3755 -0.2239  1.7891
  682MOL0     H92025   9.472   5.287   8.771  0.4250 -0.0130 -0.2070
  682MOL0     H92026   9.498   5.259   9.085 -0.9722 -0.6902  0.1667
  682MOL0     H92027   9.582   5.358   8.976  0.9659 -0.5608  2.9932
  682MOL0     H92028   9.726   5.176   9.029 -0.2426  1.6676  1.1588
  682MOL0     H92029   9.676   5.148   8.868 -1.8845 -0.7065 -0.4479
  682MOL0     H92030   9.667   5.052   9.223 -0.1975  1.4615  2.1406
  682MOL0     H92031   9.545   4.979   9.438  2.4301 -0.7481 -1.7037
  682MOL0     H92032   9.190   4.835   9.699  1.0037  1.1176 -2.6314
  682MOL0     H92033   8.999   4.786   9.855 -1.1491  2.2122  0.2414
  682MOL0     H92034   8.596   4.797   9.666 -1.5128 -1.2299  0.6029
  682MOL0     H92035   8.543   4.737   9.807  2.3755 -5.2069 -0.1155
  682MOL0     H92036   8.606   4.911   9.948  0.9733  1.2645 -0.3406
  682MOL0     H92037   8.751   4.945   9.856  0.1157 -1.1859 -1.7875
  682MOL0     H92038   8.465   5.000   9.787  1.0099 -1.3028 -1.9613
  682MOL0     H92039   8.571   5.135   9.839 -0.1573  0.9355 -2.1435
  682MOL0     H92040   8.535   5.157   9.588 -1.6416 -1.2787 -2.0552
  682MOL0     H92041   8.598   5.002   9.566  1.3166  1.2768 -1.2016
  682MOL0     H92042   8.815   5.043   9.648  1.5609  1.2460 -1.1942
  682MOL0     H92043   8.772   5.208   9.703 -0.6051  0.0920 -0.3881
  682MOL0     H92044   8.801   5.089   9.412  4.3565  0.6500  0.4992
  682MOL0     H92045   8.709   5.232   9.451  1.4226  1.7923 -0.8133
  682MOL0     H92046   8.934   5.327   9.534  2.9936 -1.4009  0.8712
  682MOL0     H92047   8.933   5.266   9.365 -0.8131  0.2864 -0.0308
  682MOL0     H92048   9.023   5.076   9.586  1.5697  1.9720  1.3835
  682MOL0     H92049   9.039   5.056   9.417 -0.2157 -1.0265  2.2970
  682MOL0     H92050   8.742   4.708   9.523 -0.1131 -0.7409  0.9321
  682MOL0     H92051   8.936   4.743   9.378  1.9957  1.7915  0.1496
  682MOL0     H92052   9.206   4.859   9.181 -0.4715  1.1506 -3.0189
  682MOL0     H92053   9.320   4.940   9.003 -0.1019 -0.2758  0.6324
  682MOL0     H92054   8.566   6.124   8.331 -3.1458  0.3065 -1.8691
  682MOL0     H92055   8.364   6.269   8.340  0.7227 -2.3705  1.5022
  682MOL0     H92056   8.395   6.787   8.543  0.1164  1.7429 -1.2456
  682MOL0     H92057   8.267   7.002   8.583  2.3850 -1.0380 -0.6465
  682MOL0     H92058   8.146   7.159   8.606 -1.3829  1.2374  1.0841
  682MOL0     H92059   7.987   7.226   8.579  1.3523  0.5451  0.8999
  682MOL0     H92060   8.176   7.182   8.353  3.9446  4.1362 -0.3919
  682MOL0     H92061   8.179   7.329   8.441  0.7998 -0.8806  0.6289
  682MOL0     H92062   7.929   7.372   8.385  0.9898 -0.8537  2.1065
  682MOL0     H92063   7.930   7.219   8.298  0.2794  0.0482 -1.8785
  682MOL0     H92064   8.004   7.476   8.207  0.7814  0.7260  3.1662
  682MOL0     H92065   8.143   7.365   8.173 -0.8252 -1.3931 -1.4780
  682MOL0     H92066   7.875   7.216   7.890  1.8500  0.4109 -0.5133
  682MOL0     H92067   7.933   6.833   8.388  1.9858  5.1027 -3.3973
  682MOL0     H92068   8.077   6.526   8.310  1.6609  0.2788  2.0179
  682MOL0     H92069   8.000   6.498   8.458  0.3543  1.6777  2.6818
  682MOL0     H92070   7.917   6.594   8.338 -0.3498  0.7882  2.0867
  683MOL0     O92071   2.301   8.299   2.685  0.7764 -0.0189 -0.6893
  683MOL0     C92072   2.416   8.307   2.731 -0.4445 -0.3895 -0.0903
  683MOL0     O92073   2.461   8.411   2.799 -0.2706 -0.2657 -0.1083
  683MOL0     C92074   2.375   8.503   2.834 -0.2110 -0.2384 -0.5133
  683MOL0     C92075   2.357   8.616   2.755  0.7862 -0.4766  0.6958
  683MOL0     C92076   2.259   8.714   2.786 -0.6177  1.1179  0.4443
  683MOL0     C92077   2.168   8.695   2.891 -0.5132  0.1622 -0.5042
  683MOL0     O92078   2.080   8.804   2.912  0.5086  0.4466  0.2626
  683MOL0     C92079   2.001   8.792   3.032 -0.2910  1.2195  0.5537
  683MOL0     C92080   1.901   8.916   3.025  0.2563  1.0964  0.2788
  683MOL0     C92081   1.829   8.937   3.159  1.2167 -0.0435 -0.2179
  683MOL0     C92082   1.693   9.006   3.132 -0.7498 -0.0703  0.5523
  683MOL0     C92083   1.617   9.004   3.256  0.2948 -0.7245  0.5122
  683MOL0     C92084   1.472   9.049   3.243 -0.0612 -0.3839 -0.1678
  683MOL0     C92085   1.457   9.202   3.218 -0.8182  1.0387 -0.2741
  683MOL0     C92086   1.306   9.240   3.204 -0.3542  0.0017 -0.3045
  683MOL0     N92087   1.280   9.332   3.097 -0.0384 -0.0362  0.7269
  683MOL0     C92088   1.187   9.314   2.993  1.4061  0.1166 -0.7112
  683MOL0     C92089   1.156   9.437   2.943  0.2301 -0.6983 -1.3189
  683MOL0     C92090   1.063   9.463   2.829 -0.3055  0.2965 -0.0623
  683MOL0     C92091   1.074   9.349   2.725 -0.1118  0.3086 -0.3943
  683MOL0     C92092   1.170   9.391   2.609 -0.4321 -0.3112 -0.5909
  683MOL0     C92093   1.177   9.304   2.488 -0.0048 -0.0804  0.7276
  683MOL0     O92094   1.249   9.186   2.520  0.1695 -0.7006 -0.1414
  683MOL0     C92095   1.288   9.113   2.410 -0.0493 -0.1980  0.6560
  683MOL0     C92096   1.219   9.112   2.291  0.5337  0.4532  0.3535
  683MOL0     C92097   1.275   9.045   2.181  0.6625 -0.0408  0.3173
  683MOL0     C92098   1.389   8.968   2.186  0.6580 -0.3592 -0.6452
  683MOL0     C92099   1.450   8.910   2.059  0.4475 -0.1983  0.4102
  683MOL0     O92100   1.584   8.888   2.060  0.3985 -0.1242 -0.0357
  683MOL0     C92101   1.666   8.840   1.955  0.1713 -0.3256  0.4461
  683MOL0     C92102   1.644   8.854   1.815 -0.2997  0.5251  0.4426
  683MOL0     C92103   1.726   8.793   1.719  0.0279 -0.8699  0.9249
  683MOL0     C92104   1.847   8.733   1.759 -0.6318 -0.4196 -0.3052
  683MOL0     O92105   1.941   8.695   1.669 -0.9910 -0.4280  0.0311
  683MOL0     C92106   2.041   8.588   1.692 -0.6586  0.8823 -0.3707
  683MOL0     C92107   2.192   8.619   1.729 -0.3120 -0.0772 -2.1551
  683MOL0     C92108   2.228   8.747   1.808 -1.0497  0.1582  0.4947
  683MOL0     C92109   2.381   8.746   1.821  0.7232  0.6496  0.1635
  683MOL0     C92110   2.430   8.847   1.916 -0.2077 -0.3754 -0.9470
  683MOL0     C92111   2.577   8.809   1.944  0.8000  0.2715  0.0995
  683MOL0     C92112   2.616   8.929   2.024 -0.6180  0.4551  0.4176
  683MOL0     C92113   2.757   8.923   2.076  0.9138 -0.3978  0.1460
  683MOL0    Cl92114   2.784   8.756   2.157 -0.4118  0.1433  0.8715
  683MOL0     C92115   1.870   8.714   1.895 -0.0880  0.4404 -1.4627
  683MOL0     C92116   1.780   8.759   1.992 -0.5033 -0.5187  0.0720
  683MOL0     O92117   1.372   8.892   1.962  0.1322 -0.2582 -0.0610
  683MOL0     C92118   1.445   8.954   2.311 -0.3964 -0.4615 -0.0397
  683MOL0     C92119   1.408   9.048   2.412 -0.3334  0.2255 -0.5809
  683MOL0     N92120   1.243   9.532   3.020 -0.8683 -0.0353  0.6789
  683MOL0     N92121   1.321   9.461   3.100  0.7131  1.1213 -0.4811
  683MOL0     C92122   2.193   8.585   2.982 -0.6724  0.2743 -0.6165
  683MOL0     C92123   2.293   8.488   2.958 -0.2236  0.0195  0.2830
  683MOL0     C92124   2.517   8.199   2.691 -0.0316 -0.2481  0.9338
  683MOL0     C92125   2.652   8.234   2.707 -0.7813 -0.4293  0.0034
  683MOL0     C92126   2.752   8.145   2.670  0.0218  0.0140 -1.0993
  683MOL0     C92127   2.718   8.018   2.623 -0.0599 -0.6942 -0.6037
  683MOL0     O92128   2.806   7.928   2.576 -0.0385 -0.4467 -0.3386
  683MOL0     C92129   2.948   7.948   2.562  0.2526  0.1460 -0.6401
  683MOL0     C92130   2.980   8.055   2.454 -1.1844 -0.4256 -0.4486
  683MOL0     C92131   2.928   8.021   2.318  0.3638 -0.3590  0.2716
  683MOL0     C92132   3.018   8.117   2.237 -0.3065 -0.2397  0.8896
  683MOL0     C92133   2.960   8.120   2.104 -0.7657  0.1873  0.0940
  683MOL0     C92134   2.911   8.136   1.996  0.2211  0.2550  0.3550
  683MOL0     C92135   2.582   7.978   2.614  0.5441 -1.3062 -0.2713
  683MOL0     C92136   2.480   8.066   2.646  0.5609 -0.4560  0.2172
  683MOL0     C92137   2.340   8.015   2.636 -0.2480 -0.3889 -0.3349
  683MOL0     H92138   2.393   8.596   2.655 -3.0766 -2.2165 -0.5676
  683MOL0     H92139   2.251   8.795   2.714  0.0457  0.9246  0.1471
  683MOL0     H92140   1.952   8.696   3.051  1.5874  0.1388  0.2265
  683MOL0     H92141   2.065   8.810   3.120  3.1663 -1.9707 -0.9975
  683MOL0     H92142   1.822   8.876   2.960  0.9145 -3.7800  2.0146
  683MOL0     H92143   1.960   9.002   2.994  1.7517  1.0139  2.6195
  683MOL0     H92144   1.897   9.003   3.215  0.6142  1.1358 -0.8349
  683MOL0     H92145   1.811   8.842   3.211 -2.4070  0.5316 -0.1451
  683MOL0     H92146   1.709   9.110   3.102 -0.4233 -0.7230 -1.7237
  683MOL0     H92147   1.650   8.946   3.051  0.3989  0.4504 -0.4729
  683MOL0     H92148   1.611   8.902   3.295 -0.2303 -0.7031  0.5052
  683MOL0     H92149   1.658   9.066   3.335 -1.0832 -0.1542  0.8152
  683MOL0     H92150   1.414   8.992   3.170 -5.0127  0.6589  2.4783
  683MOL0     H92151   1.430   9.010   3.337  0.9978 -2.6073 -0.5625
  683MOL0     H92152   1.503   9.237   3.126 -1.1313  1.6405 -0.2049
  683MOL0     H92153   1.495   9.258   3.303 -1.9110 -1.0676  1.7190
  683MOL0     H92154   1.256   9.146   3.176 -0.9883  0.1013  0.4666
  683MOL0     H92155   1.270   9.270   3.302 -2.2145 -1.6942 -0.3863
  683MOL0     H92156   1.137   9.221   2.969 -0.8520  1.6509 -2.3876
  683MOL0     H92157   0.968   9.472   2.882 -0.4589  1.9662 -0.5863
  683MOL0     H92158   1.081   9.558   2.779  0.7315 -0.9282 -2.1771
  683MOL0     H92159   1.108   9.257   2.773 -3.6214  0.9173  3.9900
  683MOL0     H92160   0.974   9.331   2.684 -0.0338  1.2265 -1.0192
  683MOL0     H92161   1.272   9.377   2.646  0.0428  0.6416 -1.5000
  683MOL0     H92162   1.153   9.494   2.578  2.5287  0.2668 -0.6227
  683MOL0     H92163   1.222   9.352   2.402 -3.6414  0.6776 -0.9639
  683MOL0     H92164   1.073   9.284   2.459  0.7142  0.0941 -2.1864
  683MOL0     H92165   1.133   9.174   2.268 -1.6665 -3.0567 -1.7288
  683MOL0     H92166   1.230   9.070   2.086 -0.3418  0.5735  0.9457
  683MOL0     H92167   1.566   8.924   1.785 -2.4007 -0.6527  2.8130
  683MOL0     H92168   1.696   8.810   1.616 -3.0704  0.1258  1.8711
  683MOL0     H92169   1.997   8.532   1.775 -2.6117 -0.3213 -2.1410
  683MOL0     H92170   2.039   8.528   1.601 -3.0362  0.5130 -0.1369
  683MOL0     H92171   2.236   8.527   1.768 -0.7393  1.4989  2.7099
  683MOL0     H92172   2.241   8.628   1.632  0.3432  2.0607 -1.6865
  683MOL0     H92173   2.200   8.833   1.747 -2.7571 -0.3182  0.5749
  683MOL0     H92174   2.182   8.755   1.907  1.5973 -0.3509  1.8502
  683MOL0     H92175   2.432   8.757   1.725  1.5420 -4.0119 -0.1704
  683MOL0     H92176   2.401   8.649   1.866  0.6531  1.2275  1.4981
  683MOL0     H92177   2.367   8.856   2.005 -0.0592  3.4949 -1.0685
  683MOL0     H92178   2.426   8.943   1.865 -0.1133  1.0144  1.5242
  683MOL0     H92179   2.593   8.723   2.010  2.3162  1.1400  0.9013
  683MOL0     H92180   2.633   8.797   1.851  0.0228 -1.5206 -0.1881
  683MOL0     H92181   2.558   8.935   2.117  0.5613 -1.7243  1.3774
  683MOL0     H92182   2.600   9.021   1.968 -3.1388 -0.3162 -0.2388
  683MOL0     H92183   2.824   8.936   1.991  2.6506 -0.9106  1.3834
  683MOL0     H92184   2.756   8.999   2.155 -5.0818  1.9928 -1.6708
  683MOL0     H92185   1.967   8.679   1.929 -0.9898 -1.9817 -1.1936
  683MOL0     H92186   1.781   8.735   2.098 -1.7703  1.2502  0.5343
  683MOL0     H92187   1.527   8.884   2.324  2.4259  2.1055 -2.4869
  683MOL0     H92188   1.452   9.049   2.511 -4.4446  2.3106  1.5057
  683MOL0     H92189   2.135   8.570   3.072 -0.7002  0.8132 -0.5367
  683MOL0     H92190   2.308   8.409   3.031 -2.3300  0.4938  1.2963
  683MOL0     H92191   2.688   8.330   2.743  1.5847 -1.4616  0.6245
  683MOL0     H92192   2.858   8.162   2.682  0.1582 -0.8813 -1.0130
  683MOL0     H92193   2.995   7.855   2.529  1.1136  0.7461 -1.1515
  683MOL0     H92194   2.987   7.968   2.662 -3.4083  1.3205  0.7517
  683MOL0     H92195   3.089   8.044   2.452 -1.1902 -0.7944  0.4355
  683MOL0     H92196   2.952   8.154   2.491  0.0953 -0.7013  1.4167
  683MOL0     H92197   2.824   8.050   2.302  0.5299  0.9631  1.4045
  683MOL0     H92198   2.939   7.918   2.283  1.6258 -0.1483 -0.0148
  683MOL0     H92199   2.998   8.216   2.280 -4.3226 -0.7484  0.5095
  683MOL0     H92200   3.124   8.089   2.235 -0.3330 -0.3194 -0.6542
  683MOL0     H92201   2.863   8.165   1.904 -1.8505 -0.7097  1.0740
  683MOL0     H92202   2.561   7.876   2.582  2.6253 -1.9850  0.3256
  683MOL0     H92203   2.335   7.910   2.606  1.6330  0.3246 -3.6466
  683MOL0     H92204   2.286   8.035   2.729  1.2891  1.2804  0.2502
  683MOL0     H92205   2.287   8.074   2.561 -0.3498  2.6172  1.9051
  684MOL0     O92206   5.651   8.539   5.625  0.0891 -0.2980  0.0074
  684MOL0     C92207   5.551   8.603   5.660 -0.5700  0.0996 -0.5736
  684MOL0     O92208   5.441   8.559   5.716  0.9137 -0.0510 -0.2388
  684MOL0     C92209   5.327   8.623   5.745  0.5977  0.3167  0.2454
  684MOL0     C92210   5.252   8.690   5.644  0.2389  0.5186  0.0586
  684MOL0     C92211   5.124   8.741   5.674  0.6850 -0.8697 -0.0012
  684MOL0     C92212   5.083   8.736   5.814  0.4800  0.7075  0.7532
  684MOL0     O92213   4.969   8.806   5.847 -0.3015  1.0136 -0.3745
  684MOL0     C92214   4.882   8.755   5.946 -0.1017  1.0055 -0.5882
  684MOL0     C92215   4.744   8.822   5.922  0.2172 -0.5681 -0.7703
  684MOL0     C92216   4.670   8.734   5.822  0.4282  0.1227  0.7508
  684MOL0     C92217   4.646   8.825   5.698  0.4160  0.5742 -1.1873
  684MOL0     C92218   4.543   8.756   5.610  0.4948  0.3449 -0.1057
  684MOL0     C92219   4.513   8.847   5.491 -0.4526  0.1623  0.4367
  684MOL0     C92220   4.400   8.799   5.408 -0.3938 -0.5627  0.0297
  684MOL0     C92221   4.386   8.893   5.286  0.0127 -0.2868  0.1901
  684MOL0     N92222   4.345   9.032   5.312 -0.5107 -0.4068  1.3449
  684MOL0     C92223   4.286   9.087   5.424 -0.4898 -0.4799  0.1667
  684MOL0     C92224   4.308   9.223   5.405  0.1481  0.1242 -0.0112
  684MOL0     C92225   4.281   9.338   5.504 -0.6052 -0.4106 -0.3408
  684MOL0     C92226   4.249   9.478   5.437  0.2132  0.3672  0.4325
  684MOL0     C92227   4.099   9.490   5.396  0.3734  0.2244 -0.2042
  684MOL0     C92228   4.032   9.385   5.314  0.5961  0.2123 -0.0035
  684MOL0     O92229   3.891   9.434   5.285 -0.3635  0.2692  0.4017
  684MOL0     C92230   3.831   9.339   5.200 -0.4120 -1.6143 -0.4983
  684MOL0     C92231   3.844   9.202   5.190  0.0613 -0.1879  0.0797
  684MOL0     C92232   3.764   9.120   5.114 -0.1263 -0.4748  0.5492
  684MOL0     C92233   3.674   9.170   5.022  0.1388 -0.3167 -0.9792
  684MOL0     C92234   3.612   9.095   4.915  0.6417 -0.3577  0.3675
  684MOL0     O92235   3.659   8.979   4.898  0.6304  0.5175  0.3744
  684MOL0     C92236   3.603   8.900   4.801  0.1726  0.1092  0.1252
  684MOL0     C92237   3.646   8.907   4.672 -1.0151  0.6852 -0.2249
  684MOL0     C92238   3.603   8.820   4.577 -0.4014 -0.4421  0.6062
  684MOL0     C92239   3.505   8.726   4.608  0.4171 -0.1690 -0.4295
  684MOL0     O92240   3.453   8.648   4.512 -0.0178  0.2304  0.6482
  684MOL0     C92241   3.351   8.557   4.530 -0.2922  0.2395 -0.1575
  684MOL0     C92242   3.212   8.621   4.537  0.9769 -0.3622 -0.4744
  684MOL0     C92243   3.183   8.696   4.410  0.1193 -0.8049 -0.3764
  684MOL0     C92244   3.030   8.673   4.382 -0.0561 -0.4243  0.0154
  684MOL0     C92245   2.986   8.791   4.306 -0.5382  0.7097  0.3750
  684MOL0     C92246   2.841   8.796   4.265  0.6243 -1.9210  0.1626
  684MOL0     C92247   2.738   8.795   4.396 -0.5349 -0.0860  0.0457
  684MOL0     C92248   2.594   8.832   4.377 -0.4621 -0.6346  0.7370
  684MOL0    Cl92249   2.570   8.986   4.285  0.4828  0.3417 -0.5048
  684MOL0     C92250   3.455   8.736   4.738 -0.1330  0.8305 -0.1710
  684MOL0     C92251   3.503   8.817   4.838  0.8667  0.2860 -0.6627
  684MOL0     O92252   3.518   9.140   4.846  0.5078 -0.4384  0.1300
  684MOL0     C92253   3.657   9.313   5.032 -0.4770 -0.7161  0.2350
  684MOL0     C92254   3.737   9.394   5.115 -0.0649 -0.2426 -0.1009
  684MOL0     N92255   4.375   9.248   5.286 -0.3811  0.3632 -0.0264
  684MOL0     N92256   4.396   9.133   5.233  0.3397 -0.5232 -0.1262
  684MOL0     C92257   5.160   8.667   5.912 -0.3113  0.6220  0.0722
  684MOL0     C92258   5.279   8.600   5.870  0.5449  0.7219  0.2424
  684MOL0     C92259   5.576   8.745   5.643  1.2528 -0.5228 -0.1485
  684MOL0     C92260   5.588   8.830   5.755 -0.1190  0.1152 -0.1634
  684MOL0     C92261   5.621   8.967   5.740  0.8217  1.1581  0.2267
  684MOL0     C92262   5.645   9.026   5.614 -0.6450 -0.1645  0.3241
  684MOL0     O92263   5.670   9.156   5.619  0.6459 -0.4512  1.1577
  684MOL0     C92264   5.713   9.219   5.494 -1.2258  0.0334  0.1649
  684MOL0     C92265   5.719   9.370   5.522  1.4362 -0.6495  1.1794
  684MOL0     C92266   5.573   9.425   5.516  0.0583  0.3645 -0.3227
  684MOL0     C92267   5.560   9.574   5.542  0.5165 -0.6217 -0.0946
  684MOL0     C92268   5.608   9.669   5.442 -0.3166  0.0538 -0.5504
  684MOL0     C92269   5.655   9.741   5.362 -1.2819 -0.1410  0.4125
  684MOL0     C92270   5.634   8.939   5.498 -0.9041  0.2054 -1.3991
  684MOL0     C92271   5.595   8.806   5.514  0.0606  0.2172 -0.2757
  684MOL0     C92272   5.569   8.724   5.385 -0.9275 -0.1362  0.0567
  684MOL0     H92273   5.291   8.690   5.543 -2.1301 -1.0187 -0.9347
  684MOL0     H92274   5.090   8.795   5.585  2.1931 -0.8252 -0.5764
  684MOL0     H92275   4.877   8.646   5.945  0.7111  0.9584 -2.1064
  684MOL0     H92276   4.919   8.781   6.046 -0.0746  1.0727 -0.6148
  684MOL0     H92277   4.747   8.930   5.901 -1.4216 -0.2837  0.2706
  684MOL0     H92278   4.710   8.804   6.024  0.2547 -4.0780 -1.2569
  684MOL0     H92279   4.573   8.720   5.869  0.5609  0.9328  1.2827
  684MOL0     H92280   4.723   8.641   5.799 -0.2614 -1.0366  3.5088
  684MOL0     H92281   4.604   8.921   5.730 -0.2125  0.2652 -1.0784
  684MOL0     H92282   4.736   8.843   5.638  1.2480 -0.1672 -0.2158
  684MOL0     H92283   4.594   8.667   5.572  0.5612 -0.2872  1.3879
  684MOL0     H92284   4.448   8.739   5.662  1.4631  1.7792  2.3390
  684MOL0     H92285   4.501   8.947   5.532 -2.1483  0.2079 -0.1051
  684MOL0     H92286   4.601   8.850   5.427 -2.1261  2.6106 -1.9370
  684MOL0     H92287   4.299   8.784   5.447 -0.3286 -1.1220 -0.0022
  684MOL0     H92288   4.431   8.696   5.386  1.9417  0.1873 -0.4221
  684MOL0     H92289   4.478   8.889   5.227 -0.2773 -1.0861 -0.2239
  684MOL0     H92290   4.309   8.840   5.229 -2.0848  3.8617 -1.2085
  684MOL0     H92291   4.240   9.025   5.500  1.6918 -2.0215  0.3374
  684MOL0     H92292   4.203   9.314   5.576  2.9487 -0.9904  3.7490
  684MOL0     H92293   4.370   9.354   5.566 -1.7578  0.7171  1.0705
  684MOL0     H92294   4.268   9.565   5.500 -3.4024  3.0573 -1.7299
  684MOL0     H92295   4.319   9.489   5.353  1.1677  2.9609  1.4432
  684MOL0     H92296   4.082   9.590   5.355 -1.2548  0.6402  1.3554
  684MOL0     H92297   4.040   9.515   5.485  1.6826 -1.2871  1.1342
  684MOL0     H92298   4.036   9.291   5.370 -1.9124 -0.3442 -0.6500
  684MOL0     H92299   4.083   9.361   5.220 -2.9805 -1.9140 -1.5852
  684MOL0     H92300   3.918   9.146   5.247 -0.9153 -0.8515  0.7282
  684MOL0     H92301   3.790   9.015   5.115  0.2290 -0.4068 -0.4196
  684MOL0     H92302   3.720   8.979   4.637  0.3073  0.0816  1.2236
  684MOL0     H92303   3.644   8.819   4.477 -1.2983  2.1128  0.1502
  684MOL0     H92304   3.360   8.476   4.458  1.5386 -0.8200  1.1873
  684MOL0     H92305   3.369   8.508   4.626  0.1957 -0.2918 -0.5229
  684MOL0     H92306   3.149   8.533   4.548  0.6443  0.0818  1.5109
  684MOL0     H92307   3.200   8.678   4.630 -1.0593 -0.6728 -0.4857
  684MOL0     H92308   3.205   8.801   4.430 -1.3582 -0.0177 -2.4447
  684MOL0     H92309   3.246   8.661   4.327  1.5153 -3.4079  1.6147
  684MOL0     H92310   2.989   8.680   4.483  5.5198 -2.1926  2.7606
  684MOL0     H92311   2.995   8.581   4.335 -1.5811  0.6161 -1.0082
  684MOL0     H92312   3.031   8.790   4.206 -1.1455 -0.5306  0.0888
  684MOL0     H92313   3.017   8.875   4.368 -1.7241  0.8624  0.7926
  684MOL0     H92314   2.850   8.893   4.215 -0.5893 -0.4372  2.5713
  684MOL0     H92315   2.810   8.714   4.200 -1.0455 -0.9849 -0.2895
  684MOL0     H92316   2.790   8.833   4.484  4.0534 -0.6411 -2.1765
  684MOL0     H92317   2.729   8.687   4.411 -3.6853  0.2784  1.8230
  684MOL0     H92318   2.541   8.745   4.339  0.5223 -0.9435  0.0472
  684MOL0     H92319   2.549   8.845   4.476  1.7777 -3.5204  2.2791
  684MOL0     H92320   3.381   8.664   4.773 -1.6951  1.2621 -2.3842
  684MOL0     H92321   3.486   8.790   4.941 -2.0675 -3.9324 -1.9721
  684MOL0     H92322   3.587   9.369   4.971 -0.5931 -0.2012  0.8244
  684MOL0     H92323   3.710   9.499   5.128  0.6316  0.2930 -2.4664
  684MOL0     H92324   5.117   8.645   6.009 -2.5113 -1.5621 -1.2758
  684MOL0     H92325   5.331   8.521   5.924 -1.1870 -0.2802  0.5465
  684MOL0     H92326   5.591   8.787   5.854 -2.3897  0.2218  0.0016
  684MOL0     H92327   5.643   9.013   5.836  0.4893 -0.6918  1.2482
  684MOL0     H92328   5.642   9.199   5.413 -1.4645 -2.1266  0.8389
  684MOL0     H92329   5.808   9.168   5.478 -0.4659  1.1474  0.9281
  684MOL0     H92330   5.779   9.422   5.448 -0.5258 -0.1382 -0.1348
  684MOL0     H92331   5.758   9.392   5.621  0.7159 -1.4927  1.6657
  684MOL0     H92332   5.521   9.361   5.587  0.2943 -0.2621 -0.7029
  684MOL0     H92333   5.534   9.413   5.415  1.4517  3.0780 -1.3169
  684MOL0     H92334   5.459   9.615   5.540  1.4779  2.1691 -3.9809
  684MOL0     H92335   5.604   9.599   5.639  3.5370 -1.9815 -1.0087
  684MOL0     H92336   5.699   9.814   5.297 -0.5948 -0.1907  0.8030
  684MOL0     H92337   5.670   8.964   5.399  1.1110 -0.3895 -0.8603
  684MOL0     H92338   5.511   8.794   5.323  1.6152  2.8395  0.8093
  684MOL0     H92339   5.667   8.688   5.352 -1.4988 -1.1871 -0.5401
  684MOL0     H92340   5.511   8.634   5.406  0.4966 -0.4283  3.3435
  685MOL0     O92341  11.278   3.214   2.885  0.3015 -0.5780 -0.0861
  685MOL0     C92342  11.271   3.235   3.005 -0.2188  0.3649  0.2376
  685MOL0     O92343  11.373   3.255   3.089 -0.2015 -0.2107 -0.8598
  685MOL0     C92344  11.496   3.287   3.034 -0.3664  0.2123  0.6146
  685MOL0     C92345  11.550   3.405   3.078 -0.1289 -0.5981  0.2898
  685MOL0     C92346  11.674   3.444   3.030 -0.5509  0.4917  0.0337
  685MOL0     C92347  11.738   3.383   2.923 -0.1344  0.7566 -0.5406
  685MOL0     O92348  11.852   3.433   2.874 -0.6730  0.3940  0.9888
  685MOL0     C92349  11.839   3.546   2.788 -0.3677 -0.2794  0.5024
  685MOL0     C92350  11.812   3.516   2.644  0.4349 -0.5593  0.0761
  685MOL0     C92351  11.839   3.631   2.545 -0.4656 -0.2549 -0.3303
  685MOL0     C92352  11.796   3.579   2.404  0.6153 -0.5021 -0.6880
  685MOL0     C92353  11.772   3.686   2.300  0.4497 -0.8253 -0.2565
  685MOL0     C92354  11.905   3.754   2.254 -0.7962 -0.7635  0.3100
  685MOL0     C92355  12.002   3.680   2.159 -0.8157  0.2898 -0.3992
  685MOL0     C92356  11.942   3.624   2.033  0.9783 -0.6015  0.0700
  685MOL0     N92357  12.039   3.552   1.954 -0.1727  0.7552  0.9846
  685MOL0     C92358  12.108   3.433   1.988  1.0243 -0.4784 -0.5774
  685MOL0     C92359  12.203   3.419   1.889 -0.6490  0.8734  0.2545
  685MOL0     C92360  12.304   3.318   1.883 -1.1481 -0.0776  0.0399
  685MOL0     C92361  12.316   3.231   1.754 -1.0262 -0.0686  0.4990
  685MOL0     C92362  12.179   3.179   1.713  0.0395 -0.6562  0.5546
  685MOL0     C92363  12.188   3.095   1.586  0.2454 -0.9694  0.3827
  685MOL0     O92364  12.058   3.025   1.574  0.8908 -0.6536  0.0449
  685MOL0     C92365  11.978   3.043   1.459 -0.9502 -0.5213 -0.3083
  685MOL0     C92366  11.838   3.007   1.458  0.0162  0.3689  1.1487
  685MOL0     C92367  11.762   2.997   1.339 -0.0407  0.1399 -0.5584
  685MOL0     C92368  11.820   3.042   1.219 -0.2580 -0.1873 -0.5052
  685MOL0     C92369  11.752   3.029   1.092  0.1139  1.4494 -0.5104
  685MOL0     O92370  11.813   3.083   0.988 -0.2739  0.5275  0.1653
  685MOL0     C92371  11.766   3.055   0.864  0.6286  0.6053  0.1314
  685MOL0     C92372  11.778   2.927   0.803  1.0494 -1.0762 -0.1711
  685MOL0     C92373  11.749   2.913   0.664  0.6675 -0.1168  0.1737
  685MOL0     C92374  11.685   3.021   0.593 -0.2149  0.6291 -0.5468
  685MOL0     O92375  11.649   3.003   0.459 -0.3099  0.1803 -0.5494
  685MOL0     C92376  11.571   3.093   0.381  0.6266  1.0990 -0.5107
  685MOL0     C92377  11.567   3.058   0.232 -0.1281  0.9808  0.0411
  685MOL0     C92378  11.514   2.917   0.209 -0.4998  1.4191 -0.9093
  685MOL0     C92379  11.462   2.895   0.071  0.4680  0.2972  0.0724
  685MOL0     C92380  11.371   2.776   0.064 -0.2465  0.6071 -0.0382
  685MOL0     C92381  11.377   2.709  -0.075 -0.0016 -0.0668  1.1750
  685MOL0     C92382  11.258   2.718  -0.172 -0.0706  0.8745  0.0269
  685MOL0     C92383  11.259   2.857  -0.235  0.4500  0.2814 -0.3597
  685MOL0    Cl92384  11.407   2.884  -0.340 -0.0321  0.4298  0.1646
  685MOL0     C92385  11.664   3.137   0.661  0.2380 -0.9086 -0.8642
  685MOL0     C92386  11.725   3.158   0.791  0.5616  0.2605 -0.0942
  685MOL0     O92387  11.650   2.957   1.092  0.0643 -0.4981 -0.2294
  685MOL0     C92388  11.954   3.084   1.220  0.9022  0.5379  0.1020
  685MOL0     C92389  12.023   3.087   1.336 -0.5890 -0.1585  0.1609
  685MOL0     N92390  12.168   3.501   1.785  0.1042 -0.5316 -0.0451
  685MOL0     N92391  12.072   3.583   1.828 -0.3598 -0.5915 -0.0647
  685MOL0     C92392  11.684   3.269   2.870 -0.4722 -0.3611  0.2182
  685MOL0     C92393  11.562   3.217   2.927  1.1010  0.2129  0.2246
  685MOL0     C92394  11.132   3.221   3.055  0.6665  0.5667 -0.4383
  685MOL0     C92395  11.024   3.254   2.963  0.0279  0.0260 -0.8613
  685MOL0     C92396  10.894   3.253   3.007 -0.0317  0.0711  0.5063
  685MOL0     C92397  10.863   3.204   3.131 -0.4672 -0.8691 -0.2504
  685MOL0     O92398  10.738   3.179   3.176 -0.2418  1.2837 -0.1624
  685MOL0     C92399  10.620   3.199   3.091 -0.1434 -0.1769  0.9193
  685MOL0     C92400  10.524   3.098   3.144 -0.5244 -0.2876  0.2289
  685MOL0     C92401  10.473   3.107   3.291 -0.7261  0.6379 -0.4419
  685MOL0     C92402  10.417   2.979   3.337 -0.1593  1.2474 -0.4607
  685MOL0     C92403  10.293   2.949   3.257  0.8083  0.6931  0.0605
  685MOL0     C92404  10.190   2.935   3.190  0.0036  0.5769  0.1406
  685MOL0     C92405  10.967   3.169   3.213 -1.0320  0.0149 -0.6033
  685MOL0     C92406  11.099   3.178   3.187  0.0877 -0.0842 -0.2524
  685MOL0     C92407  11.186   3.118   3.292 -0.1471 -0.0411 -0.6129
  685MOL0     H92408  11.506   3.458   3.162 -0.1404  0.9625 -0.6542
  685MOL0     H92409  11.714   3.531   3.082 -1.6827  0.2825  1.3388
  685MOL0     H92410  11.769   3.620   2.828  0.3341  1.6343 -1.6147
  685MOL0     H92411  11.932   3.602   2.798 -1.9007  2.3079  1.3584
  685MOL0     H92412  11.708   3.483   2.636 -0.4934  2.0291  0.7013
  685MOL0     H92413  11.881   3.435   2.618  0.8610 -0.3902  0.6446
  685MOL0     H92414  11.947   3.633   2.527 -0.0140  3.4811  1.7672
  685MOL0     H92415  11.789   3.726   2.569 -0.2480  0.7703 -3.4597
  685MOL0     H92416  11.879   3.514   2.376 -0.4325 -2.0250 -0.3912
  685MOL0     H92417  11.703   3.522   2.406 -2.2230  3.5998 -1.6700
  685MOL0     H92418  11.713   3.651   2.215  1.1029 -3.9487  0.4576
  685MOL0     H92419  11.720   3.767   2.353 -3.5640  0.6200 -5.5548
  685MOL0     H92420  11.869   3.846   2.208 -2.1094 -0.4863  1.8060
  685MOL0     H92421  11.965   3.784   2.340  1.5578 -0.4999 -1.3361
  685MOL0     H92422  12.032   3.593   2.218 -1.0680  1.1742  1.0878
  685MOL0     H92423  12.097   3.732   2.148 -1.2834  1.9570  2.4774
  685MOL0     H92424  11.859   3.553   2.043  1.1359 -0.5871  1.7652
  685MOL0     H92425  11.903   3.697   1.962  1.2187 -0.7898 -0.2583
  685MOL0     H92426  12.086   3.385   2.082 -2.1141 -3.0545 -2.4370
  685MOL0     H92427  12.405   3.351   1.911 -1.2007 -2.3338  3.5425
  685MOL0     H92428  12.272   3.249   1.961 -1.1978  0.9680  0.9806
  685MOL0     H92429  12.351   3.293   1.671 -0.3110 -0.8504  0.2097
  685MOL0     H92430  12.397   3.160   1.772 -0.9236  0.5868  3.1200
  685MOL0     H92431  12.118   3.264   1.683  1.2236  0.4571  1.2174
  685MOL0     H92432  12.118   3.125   1.787  0.7530 -0.7339  1.0944
  685MOL0     H92433  12.276   3.033   1.604  0.6303 -0.7459 -0.6924
  685MOL0     H92434  12.205   3.174   1.512 -0.9733  0.9272  2.0092
  685MOL0     H92435  11.792   2.965   1.547  0.0189  0.1073  1.0271
  685MOL0     H92436  11.675   2.932   1.341  0.0632 -0.3483 -4.4085
  685MOL0     H92437  11.818   2.842   0.855 -3.1464 -3.0541  0.2238
  685MOL0     H92438  11.771   2.820   0.613  1.1603 -0.9875  1.8980
  685MOL0     H92439  11.468   3.088   0.417  0.8968 -4.7040  0.4190
  685MOL0     H92440  11.611   3.194   0.391 -0.5927  1.6242 -0.7655
  685MOL0     H92441  11.503   3.133   0.184  0.9434  0.7600 -1.8382
  685MOL0     H92442  11.667   3.069   0.188 -0.0229 -1.9366 -0.6721
  685MOL0     H92443  11.594   2.845   0.223 -0.9305  0.2242 -3.7358
  685MOL0     H92444  11.439   2.893   0.284 -1.3309  2.6049 -1.3196
  685MOL0     H92445  11.549   2.885   0.005 -0.9460 -2.4883 -1.6343
  685MOL0     H92446  11.395   2.977   0.045  1.5997  1.6544  1.3109
  685MOL0     H92447  11.271   2.803   0.099 -0.0865 -2.4632  3.3552
  685MOL0     H92448  11.413   2.699   0.130  3.4532  1.4323 -1.1946
  685MOL0     H92449  11.475   2.719  -0.122 -0.9107 -2.3283 -1.4450
  685MOL0     H92450  11.398   2.602  -0.066  2.7382  0.1326 -1.5134
  685MOL0     H92451  11.162   2.702  -0.122 -0.9658  0.9600 -1.5918
  685MOL0     H92452  11.270   2.641  -0.250  1.2076  1.7651 -0.6972
  685MOL0     H92453  11.174   2.867  -0.303  1.7005 -0.6838 -2.1558
  685MOL0     H92454  11.253   2.939  -0.164 -1.5417  0.6385 -0.8592
  685MOL0     H92455  11.621   3.226   0.615  0.0668 -0.7996 -0.4969
  685MOL0     H92456  11.732   3.256   0.837 -0.9957  0.2887  0.1531
  685MOL0     H92457  12.000   3.114   1.127  0.2464  3.3621  0.5932
  685MOL0     H92458  12.128   3.112   1.332 -1.4959  4.6363  0.5226
  685MOL0     H92459  11.747   3.224   2.793  0.5173  1.4758 -0.1138
  685MOL0     H92460  11.518   3.125   2.891  1.6367  0.7324 -1.9266
  685MOL0     H92461  11.031   3.273   2.857 -1.8559 -2.3248 -1.4882
  685MOL0     H92462  10.814   3.299   2.949  2.2451  3.8294 -0.0395
  685MOL0     H92463  10.639   3.189   2.984 -1.6984 -0.7507  0.6587
  685MOL0     H92464  10.585   3.300   3.117 -0.4252 -0.0763  0.1907
  685MOL0     H92465  10.585   3.007   3.144  3.0568  1.8598  2.0434
  685MOL0     H92466  10.443   3.099   3.071 -0.3512  0.1357  0.0393
  685MOL0     H92467  10.399   3.187   3.299 -2.2456 -0.8147  0.6875
  685MOL0     H92468  10.558   3.144   3.349 -0.5787  0.8628 -0.7960
  685MOL0     H92469  10.491   2.901   3.322  2.4889  3.7428 -1.3808
  685MOL0     H92470  10.394   2.988   3.444  0.4581  0.2767 -0.2368
  685MOL0     H92471  10.097   2.911   3.143 -1.1632  5.7658 -0.8183
  685MOL0     H92472  10.919   3.139   3.306 -0.3050  1.7965  0.3972
  685MOL0     H92473  11.194   3.175   3.385  2.5963  0.5407 -1.1377
  685MOL0     H92474  11.170   3.011   3.309  1.8003 -0.8046 -3.0554
  685MOL0     H92475  11.289   3.128   3.256  1.0553  0.4543  2.6353
  686MOL0     O92476   0.057   6.371   1.397  0.5181  0.1418  0.4297
  686MOL0     C92477  -0.059   6.341   1.369 -0.3322 -0.7229  0.7698
  686MOL0     O92478  -0.161   6.432   1.313 -0.5067 -0.6781 -0.9541
  686MOL0     C92479  -0.128   6.567   1.302  0.8428  0.8381 -0.0200
  686MOL0     C92480  -0.129   6.633   1.178  0.0205  0.6750 -0.0428
  686MOL0     C92481  -0.117   6.765   1.168 -0.2736  0.0297  0.7388
  686MOL0     C92482  -0.083   6.839   1.284 -0.1255 -0.5568 -0.6897
  686MOL0     O92483  -0.080   6.975   1.269  0.2434  0.1145  0.5851
  686MOL0     C92484  -0.163   7.055   1.353 -0.2012 -0.8875  0.3861
  686MOL0     C92485  -0.244   7.141   1.255  0.7409  0.6442 -0.0005
  686MOL0     C92486  -0.391   7.108   1.257 -1.0799  0.8386 -0.7984
  686MOL0     C92487  -0.465   7.214   1.340  0.0216  0.1283  1.1688
  686MOL0     C92488  -0.624   7.203   1.343  0.6082  0.7980 -0.3267
  686MOL0     C92489  -0.673   7.066   1.318 -0.2331  0.2139 -0.1823
  686MOL0     C92490  -0.827   7.071   1.324  0.0424 -0.1208  0.2607
  686MOL0     C92491  -0.885   7.063   1.470  0.1970  0.0142 -1.2789
  686MOL0     N92492  -1.035   7.049   1.488 -0.0285  0.7373  0.2908
  686MOL0     C92493  -1.129   7.000   1.393  0.8883 -0.3810  0.8682
  686MOL0     C92494  -1.246   7.012   1.453 -0.5118  0.2406  0.0090
  686MOL0     C92495  -1.368   6.951   1.392  0.1506 -0.9361  0.1269
  686MOL0     C92496  -1.452   6.878   1.491 -1.0140 -1.0096 -0.1983
  686MOL0     C92497  -1.566   6.812   1.408  0.3821 -0.2873 -0.5911
  686MOL0     C92498  -1.655   6.917   1.329 -0.0788  0.5278 -0.6308
  686MOL0     O92499  -1.773   6.844   1.299  0.8251  0.1422 -0.2732
  686MOL0     C92500  -1.863   6.806   1.394  0.0468 -1.2871  0.0415
  686MOL0     C92501  -1.934   6.689   1.354 -0.4041 -1.1696  0.3659
  686MOL0     C92502  -2.029   6.645   1.447 -0.2074  0.1995  0.5436
  686MOL0     C92503  -2.045   6.704   1.576  0.5577 -0.4981  0.0887
  686MOL0     C92504  -2.143   6.644   1.675  0.0331  0.0504 -0.1638
  686MOL0     O92505  -2.152   6.718   1.788 -0.1599 -0.5398 -0.4919
  686MOL0     C92506  -2.246   6.675   1.882 -1.4286 -0.2517  0.3138
  686MOL0     C92507  -2.361   6.743   1.907  0.1242 -0.3319 -1.2742
  686MOL0     C92508  -2.442   6.702   2.016  0.1749 -0.2125 -0.4710
  686MOL0     C92509  -2.405   6.591   2.095 -1.2297 -0.2085  0.7836
  686MOL0     O92510  -2.485   6.583   2.206  0.0629 -0.9952  0.1841
  686MOL0     C92511  -2.442   6.494   2.311 -0.0995 -1.2300  0.8840
  686MOL0     C92512  -2.536   6.502   2.432  0.0203 -0.5815 -0.2070
  686MOL0     C92513  -2.538   6.628   2.509  0.9688  0.0497  0.5650
  686MOL0     C92514  -2.683   6.669   2.545  0.2009  0.1946 -0.0860
  686MOL0     C92515  -2.715   6.640   2.691 -0.8921  0.5925 -0.7671
  686MOL0     C92516  -2.862   6.682   2.728 -0.2929 -0.1367 -0.1520
  686MOL0     C92517  -2.892   6.653   2.877  0.4004 -0.6792  0.0200
  686MOL0     C92518  -3.026   6.699   2.927  0.8127 -0.5297  0.3358
  686MOL0    Cl92519  -3.046   6.879   2.920 -0.0307  0.2740  0.0213
  686MOL0     C92520  -2.288   6.518   2.067 -0.1189 -0.5740  0.4487
  686MOL0     C92521  -2.207   6.572   1.960  0.7675  0.4170 -1.2054
  686MOL0     O92522  -2.206   6.538   1.650 -0.3814  0.2454 -0.5134
  686MOL0     C92523  -1.978   6.820   1.608 -0.3947  0.6309  0.1964
  686MOL0     C92524  -1.894   6.875   1.513 -0.7603  0.0638  0.4131
  686MOL0     N92525  -1.231   7.079   1.573  0.1758 -0.2233 -0.3031
  686MOL0     N92526  -1.105   7.092   1.597  0.0393 -0.3955 -0.8473
  686MOL0     C92527  -0.059   6.775   1.409  1.2352  0.0791 -0.4530
  686MOL0     C92528  -0.093   6.640   1.419  0.2793 -0.2936  0.0981
  686MOL0     C92529  -0.105   6.202   1.398 -0.6658  0.5198 -0.2421
  686MOL0     C92530  -0.234   6.191   1.428  0.4853 -0.6969  0.2897
  686MOL0     C92531  -0.302   6.072   1.447  0.4332 -0.1731  0.9094
  686MOL0     C92532  -0.239   5.945   1.428 -0.7797 -0.3406  0.3412
  686MOL0     O92533  -0.319   5.835   1.437  0.6706  0.0984  0.7583
  686MOL0     C92534  -0.258   5.709   1.401  0.2335 -0.4812 -1.2954
  686MOL0     C92535  -0.318   5.656   1.282 -0.3587  0.1611  0.1276
  686MOL0     C92536  -0.292   5.742   1.168 -0.0219  0.1328 -0.3239
  686MOL0     C92537  -0.328   5.679   1.036  0.9301  0.0603 -0.5085
  686MOL0     C92538  -0.313   5.778   0.926  0.0385 -1.1577 -0.3085
  686MOL0     C92539  -0.305   5.847   0.826 -0.1669  0.3132 -0.7017
  686MOL0     C92540  -0.099   5.955   1.408 -0.4133  0.7358 -0.6858
  686MOL0     C92541  -0.031   6.077   1.397 -0.4785  0.1967  0.2641
  686MOL0     C92542   0.123   6.069   1.377  0.1535  0.3316  0.7289
  686MOL0     H92543  -0.148   6.576   1.088  1.8265  0.2165 -0.1682
  686MOL0     H92544  -0.124   6.820   1.075 -1.6412 -1.7368 -0.2592
  686MOL0     H92545  -0.230   7.012   1.428 -1.7631  0.5265 -0.1428
  686MOL0     H92546  -0.098   7.123   1.409 -0.5476 -0.0965 -0.1617
  686MOL0     H92547  -0.201   7.151   1.155  2.5216  1.3138  0.7952
  686MOL0     H92548  -0.212   7.240   1.288  2.5633  0.7742 -1.9082
  686MOL0     H92549  -0.399   7.011   1.305  2.8667  1.0795  0.7662
  686MOL0     H92550  -0.434   7.112   1.157 -5.2027  2.8394  0.8142
  686MOL0     H92551  -0.420   7.213   1.440  0.2910 -2.8004  1.0935
  686MOL0     H92552  -0.440   7.311   1.294 -1.4039  1.2012  2.5252
  686MOL0     H92553  -0.667   7.242   1.435 -1.8004 -2.7589  0.2428
  686MOL0     H92554  -0.658   7.270   1.263 -3.9716  0.4538  1.0489
  686MOL0     H92555  -0.633   7.021   1.226 -1.1116  0.1974 -0.5705
  686MOL0     H92556  -0.642   6.995   1.395 -3.3181  2.0697  3.0659
  686MOL0     H92557  -0.873   6.986   1.272 -1.3230  0.1893  0.9347
  686MOL0     H92558  -0.865   7.159   1.270  0.8168 -0.3246 -0.6437
  686MOL0     H92559  -0.845   6.977   1.524  2.3951  1.5284 -0.3682
  686MOL0     H92560  -0.853   7.155   1.521  4.1563 -0.5066 -2.4695
  686MOL0     H92561  -1.108   6.964   1.292 -4.1917 -0.4593 -0.4821
  686MOL0     H92562  -1.432   7.025   1.344  1.1804  0.2584  0.5156
  686MOL0     H92563  -1.328   6.890   1.311  3.7972  1.0903  0.1566
  686MOL0     H92564  -1.390   6.795   1.525  1.2155  0.9172  0.6996
  686MOL0     H92565  -1.492   6.936   1.575 -1.7033  0.9598 -1.7964
  686MOL0     H92566  -1.634   6.759   1.476  0.6230  1.1380  0.8126
  686MOL0     H92567  -1.533   6.739   1.334 -0.0516 -1.9504  0.7852
  686MOL0     H92568  -1.607   6.948   1.236 -0.4873  1.5804 -0.5012
  686MOL0     H92569  -1.686   7.002   1.390 -1.7022 -0.2324 -0.3430
  686MOL0     H92570  -1.912   6.640   1.260  3.0720 -2.9115  1.8729
  686MOL0     H92571  -2.089   6.557   1.426  0.7862 -0.3183 -0.2285
  686MOL0     H92572  -2.379   6.827   1.840 -0.3125 -0.3471 -1.1794
  686MOL0     H92573  -2.536   6.751   2.041 -0.6446 -1.5624 -0.7956
  686MOL0     H92574  -2.422   6.393   2.274 -0.7067 -1.2506  0.6007
  686MOL0     H92575  -2.346   6.536   2.343  0.2861 -3.2313  2.6337
  686MOL0     H92576  -2.635   6.466   2.402 -0.2896 -0.6957  0.9343
  686MOL0     H92577  -2.498   6.427   2.502  0.3963 -0.0427  0.1734
  686MOL0     H92578  -2.471   6.623   2.595  1.5390 -1.8425  0.0555
  686MOL0     H92579  -2.495   6.712   2.454 -1.7339  3.5816  3.4088
  686MOL0     H92580  -2.752   6.609   2.485  0.7962 -0.6963  0.1033
  686MOL0     H92581  -2.696   6.778   2.540  1.7849  0.3799 -0.8814
  686MOL0     H92582  -2.652   6.690   2.764 -1.2146  0.2112 -0.2198
  686MOL0     H92583  -2.705   6.533   2.712  1.5628  1.0934  1.0010
  686MOL0     H92584  -2.880   6.787   2.702 -3.2351 -0.2088  1.1673
  686MOL0     H92585  -2.936   6.623   2.671  0.2631  0.4354 -1.5121
  686MOL0     H92586  -2.809   6.705   2.926 -1.6478  3.2386 -0.2940
  686MOL0     H92587  -2.887   6.546   2.899 -1.6080 -0.9011 -0.4308
  686MOL0     H92588  -3.099   6.651   2.861  1.5103  0.0771 -0.9173
  686MOL0     H92589  -3.044   6.678   3.033  1.4394 -1.3983  0.2795
  686MOL0     H92590  -2.254   6.432   2.122 -0.6613 -1.6709 -0.8596
  686MOL0     H92591  -2.120   6.509   1.946  0.0486 -1.1471  0.7470
  686MOL0     H92592  -1.972   6.865   1.706 -0.7349  4.4987 -1.3752
  686MOL0     H92593  -1.844   6.968   1.539 -0.9853  0.7759 -1.5751
  686MOL0     H92594  -0.024   6.841   1.488 -1.8391  1.4538 -0.0889
  686MOL0     H92595  -0.085   6.585   1.512  4.4886  0.3774  0.2974
  686MOL0     H92596  -0.305   6.274   1.426  1.0790  0.0215  3.6047
  686MOL0     H92597  -0.409   6.069   1.465  0.4343 -2.4720  0.8757
  686MOL0     H92598  -0.277   5.641   1.485  1.1115  0.4801 -0.2864
  686MOL0     H92599  -0.151   5.704   1.383  1.2213 -2.2940  3.5713
  686MOL0     H92600  -0.427   5.649   1.289 -0.4168  0.4577 -0.4003
  686MOL0     H92601  -0.286   5.552   1.271 -0.8034  0.1007 -0.6975
  686MOL0     H92602  -0.184   5.759   1.173  0.1994 -1.2578 -0.0312
  686MOL0     H92603  -0.348   5.836   1.168 -2.2196 -1.0825  1.2995
  686MOL0     H92604  -0.260   5.596   1.015  2.7856  1.7431 -1.5771
  686MOL0     H92605  -0.430   5.641   1.029  0.8680  0.1573 -0.1459
  686MOL0     H92606  -0.310   5.912   0.741  0.6518  1.0230 -0.2287
  686MOL0     H92607  -0.046   5.861   1.398 -0.7531  0.1251  2.3466
  686MOL0     H92608   0.166   6.092   1.475  2.5147 -1.1734  0.1060
  686MOL0     H92609   0.141   5.971   1.332 -3.1839  0.4046 -1.1117
  686MOL0     H92610   0.160   6.145   1.308 -0.3284 -1.0111 -1.1005
  687MOL0     O92611   3.103   2.198   1.323 -0.5978 -0.0173 -0.1478
  687MOL0     C92612   3.038   2.101   1.357 -0.3371 -0.1652 -0.0039
  687MOL0     O92613   3.075   2.015   1.457 -0.3529  0.2251  0.3939
  687MOL0     C92614   3.184   2.042   1.535  0.3428 -0.2535 -0.1156
  687MOL0     C92615   3.153   2.034   1.670  0.7320 -0.1671  0.0835
  687MOL0     C92616   3.256   2.055   1.761 -0.4761  0.2056 -0.3565
  687MOL0     C92617   3.389   2.077   1.721 -0.1085 -0.5443 -0.0868
  687MOL0     O92618   3.476   2.092   1.823 -1.2402  0.0726 -0.3890
  687MOL0     C92619   3.590   2.170   1.789  0.5880 -0.5942  0.5300
  687MOL0     C92620   3.552   2.318   1.780 -0.3110 -0.6102  0.0320
  687MOL0     C92621   3.667   2.384   1.715 -0.0197 -0.6465  0.3106
  687MOL0     C92622   3.670   2.539   1.738  0.2748  0.2228 -0.0988
  687MOL0     C92623   3.781   2.618   1.668  0.1076 -1.5016  0.2198
  687MOL0     C92624   3.923   2.582   1.724 -0.6865 -0.2555 -0.3835
  687MOL0     C92625   4.029   2.575   1.615 -0.8805  0.2251 -0.0591
  687MOL0     C92626   4.173   2.573   1.655 -1.4536  0.6624  0.0330
  687MOL0     N92627   4.200   2.650   1.779 -0.1274 -0.5431  0.1735
  687MOL0     C92628   4.239   2.595   1.894 -0.1134  0.2646 -1.7004
  687MOL0     C92629   4.242   2.701   1.982  0.5908  0.0136 -0.2405
  687MOL0     C92630   4.291   2.706   2.130  0.0552  0.4921  1.1704
  687MOL0     C92631   4.183   2.648   2.225 -0.3129  1.3205 -0.2888
  687MOL0     C92632   4.214   2.629   2.372 -0.1398 -0.6011 -0.0857
  687MOL0     C92633   4.306   2.511   2.388  0.1205 -0.4539  0.7183
  687MOL0     O92634   4.389   2.538   2.501  0.3317  0.1548 -0.9497
  687MOL0     C92635   4.484   2.634   2.502 -0.4826 -0.7689 -0.3281
  687MOL0     C92636   4.522   2.694   2.619  0.0791  0.1931  0.0116
  687MOL0     C92637   4.633   2.775   2.623 -0.5099 -0.2653  0.2281
  687MOL0     C92638   4.704   2.816   2.513 -0.6299  0.2002  0.3939
  687MOL0     C92639   4.821   2.916   2.517 -0.2966  0.9804 -0.0421
  687MOL0     O92640   4.861   2.960   2.395 -0.5129 -0.5786  0.2719
  687MOL0     C92641   4.976   3.035   2.374  0.8072 -0.6511  0.6444
  687MOL0     C92642   4.976   3.092   2.246 -0.4259  1.0858 -0.1146
  687MOL0     C92643   5.093   3.161   2.203 -0.5253  0.0548 -0.4148
  687MOL0     C92644   5.206   3.176   2.300 -0.3235 -0.8484 -0.8985
  687MOL0     O92645   5.324   3.245   2.277  0.5421  0.3564  0.7443
  687MOL0     C92646   5.355   3.314   2.152 -0.5064 -0.2097  0.1268
  687MOL0     C92647   5.461   3.416   2.194  0.7492  0.2027 -0.2711
  687MOL0     C92648   5.588   3.358   2.262 -0.0479 -0.3745  0.8416
  687MOL0     C92649   5.687   3.479   2.273  0.4323  0.8862  0.2329
  687MOL0     C92650   5.832   3.439   2.301 -0.4846  0.1625  0.1925
  687MOL0     C92651   5.899   3.555   2.380 -0.0296 -0.4410 -0.1084
  687MOL0     C92652   5.922   3.676   2.292 -1.1565 -0.9582 -0.5707
  687MOL0     C92653   5.985   3.780   2.380 -0.5453  0.5759  0.2206
  687MOL0    Cl92654   5.895   3.843   2.522 -0.0891  0.4713  0.1242
  687MOL0     C92655   5.196   3.124   2.425  0.3631 -0.2523 -0.0761
  687MOL0     C92656   5.080   3.064   2.467  0.3357 -0.8483 -0.3263
  687MOL0     O92657   4.871   2.952   2.628 -0.8969  0.9773 -0.5317
  687MOL0     C92658   4.659   2.765   2.391  0.0686  0.2987  1.0728
  687MOL0     C92659   4.554   2.679   2.388  0.4764  0.0507 -0.3190
  687MOL0     N92660   4.204   2.818   1.912 -0.0970 -0.5201  0.0149
  687MOL0     N92661   4.184   2.789   1.790 -0.4817  0.8191 -0.8316
  687MOL0     C92662   3.414   2.088   1.582  0.1260 -0.4386  0.4905
  687MOL0     C92663   3.312   2.069   1.486  0.7908 -0.3710  0.8622
  687MOL0     C92664   2.913   2.067   1.282 -0.1144  0.4746 -0.5536
  687MOL0     C92665   2.799   2.013   1.362 -1.0856  0.1646 -0.4395
  687MOL0     C92666   2.678   2.013   1.301  1.1665  0.2253 -0.5245
  687MOL0     C92667   2.661   2.035   1.172  0.3724 -0.5003  0.4384
  687MOL0     O92668   2.538   2.039   1.121 -0.0484  0.3014 -0.3140
  687MOL0     C92669   2.516   2.036   0.981  0.7682 -0.1834 -0.5485
  687MOL0     C92670   2.365   1.989   0.955 -0.0341 -0.0966 -0.2941
  687MOL0     C92671   2.256   2.067   1.027  0.0403 -0.1956  0.4597
  687MOL0     C92672   2.205   1.993   1.157  0.7405  0.1494 -1.1752
  687MOL0     C92673   2.079   2.059   1.209 -0.6003  0.2359  0.0546
  687MOL0     C92674   1.969   2.102   1.229  1.5758 -0.4870 -0.0515
  687MOL0     C92675   2.774   2.052   1.083 -0.2736 -1.1477  0.3070
  687MOL0     C92676   2.899   2.077   1.141 -0.3666 -0.2554 -0.1166
  687MOL0     C92677   3.010   2.110   1.049 -1.0137  0.9194  0.0496
  687MOL0     H92678   3.047   2.027   1.695  0.7942 -1.4760  0.0197
  687MOL0     H92679   3.250   2.038   1.868 -0.9174 -0.8040 -0.5272
  687MOL0     H92680   3.663   2.158   1.870  1.8768  0.4702 -0.4219
  687MOL0     H92681   3.636   2.141   1.694 -1.0478 -1.8535  0.0789
  687MOL0     H92682   3.532   2.349   1.883 -1.2934 -0.4283 -0.2058
  687MOL0     H92683   3.465   2.343   1.719  0.1751 -0.3655 -0.5661
  687MOL0     H92684   3.648   2.366   1.609  0.5713 -3.8094  0.6513
  687MOL0     H92685   3.762   2.345   1.753  0.7250  0.2604 -0.5628
  687MOL0     H92686   3.574   2.585   1.713 -0.0381 -0.4547 -0.1609
  687MOL0     H92687   3.673   2.548   1.847 -2.5645 -2.4384  0.3395
  687MOL0     H92688   3.771   2.604   1.560  0.3793  0.6872 -0.1328
  687MOL0     H92689   3.765   2.725   1.683 -1.6159 -1.8177  0.9055
  687MOL0     H92690   3.954   2.658   1.795  2.8190 -0.0171 -1.9459
  687MOL0     H92691   3.919   2.491   1.784 -0.9185  0.1175  0.1740
  687MOL0     H92692   4.003   2.656   1.546 -1.9194  0.3931  0.5064
  687MOL0     H92693   4.008   2.486   1.554  1.4205 -0.4882  0.0808
  687MOL0     H92694   4.221   2.477   1.674  0.1114  1.8084  2.4199
  687MOL0     H92695   4.246   2.612   1.584 -0.0190 -0.8159  0.6208
  687MOL0     H92696   4.258   2.491   1.915  0.1382  0.8259  1.2130
  687MOL0     H92697   4.387   2.656   2.144  0.1878  0.3487 -0.1448
  687MOL0     H92698   4.308   2.809   2.160  0.4916  0.8434 -0.2068
  687MOL0     H92699   4.111   2.731   2.223 -0.8482  0.8611 -2.3081
  687MOL0     H92700   4.145   2.555   2.181 -2.0556  1.0307  1.6577
  687MOL0     H92701   4.126   2.599   2.431  0.0430 -0.7715  0.1013
  687MOL0     H92702   4.251   2.724   2.411  1.4131 -1.0544 -0.3894
  687MOL0     H92703   4.364   2.491   2.298  1.0013  0.7817  0.9894
  687MOL0     H92704   4.251   2.423   2.423  1.5809 -1.4106  0.6620
  687MOL0     H92705   4.463   2.678   2.709 -4.0209  2.0142 -2.0742
  687MOL0     H92706   4.670   2.819   2.715 -2.5383  0.7137  0.6376
  687MOL0     H92707   4.900   3.068   2.172 -0.2190  0.9751 -0.2950
  687MOL0     H92708   5.096   3.211   2.107  0.7838 -2.9646 -2.0836
  687MOL0     H92709   5.403   3.246   2.081  0.5129  2.4722 -1.9409
  687MOL0     H92710   5.277   3.360   2.091 -1.6404 -0.1667  1.5645
  687MOL0     H92711   5.493   3.456   2.097 -1.6542  2.9641 -0.0363
  687MOL0     H92712   5.435   3.502   2.256  0.1167  1.8433 -2.6530
  687MOL0     H92713   5.556   3.312   2.356  1.5853  0.6215  1.9414
  687MOL0     H92714   5.628   3.275   2.204  1.5084  0.8298  0.1080
  687MOL0     H92715   5.650   3.553   2.345 -1.2851 -0.9206  1.3052
  687MOL0     H92716   5.681   3.536   2.179  0.0470 -0.2239 -0.4378
  687MOL0     H92717   5.888   3.427   2.208  0.5303  0.8698  0.6965
  687MOL0     H92718   5.829   3.342   2.349 -0.3042 -0.2059 -0.5245
  687MOL0     H92719   5.833   3.580   2.464  2.5014 -1.2897  2.2490
  687MOL0     H92720   5.988   3.513   2.427 -0.3773 -0.6709  0.3576
  687MOL0     H92721   5.824   3.715   2.263 -1.0613  0.7844  1.2105
  687MOL0     H92722   5.983   3.654   2.204 -0.2682 -1.7081  0.2082
  687MOL0     H92723   6.078   3.732   2.410 -1.4361 -2.5068 -1.5587
  687MOL0     H92724   6.009   3.876   2.333  4.2411 -0.8397 -0.6720
  687MOL0     H92725   5.275   3.145   2.496  1.9659 -0.7708 -1.6447
  687MOL0     H92726   5.072   3.033   2.571 -2.2562  2.5200  0.6338
  687MOL0     H92727   4.703   2.791   2.295 -0.3340 -1.6772  0.3219
  687MOL0     H92728   4.523   2.620   2.302 -1.4537 -0.8145  0.9059
  687MOL0     H92729   3.510   2.113   1.538  0.3541 -0.0822  1.1819
  687MOL0     H92730   3.318   2.091   1.380 -0.9039  1.1524  1.0249
  687MOL0     H92731   2.817   2.005   1.468 -3.1679 -2.3409 -0.1848
  687MOL0     H92732   2.588   1.990   1.358  1.1178 -1.6080 -1.2778
  687MOL0     H92733   2.583   1.964   0.934  1.1948  1.3510 -2.4148
  687MOL0     H92734   2.530   2.130   0.928 -1.0598 -1.1698 -2.9327
  687MOL0     H92735   2.358   1.880   0.965  0.6751  0.0480  2.4142
  687MOL0     H92736   2.356   2.007   0.847 -3.0458 -0.5907 -0.2181
  687MOL0     H92737   2.171   2.082   0.959 -1.2001  3.9853  2.5860
  687MOL0     H92738   2.278   2.169   1.059 -1.8788 -0.3536  2.5577
  687MOL0     H92739   2.180   1.887   1.143  0.0242  0.2773 -0.9640
  687MOL0     H92740   2.285   1.993   1.231 -1.2291  1.8430  1.1353
  687MOL0     H92741   1.868   2.131   1.246  0.7128 -3.4109  0.3527
  687MOL0     H92742   2.771   2.086   0.980  1.2269  1.0776  0.9468
  687MOL0     H92743   3.035   2.217   1.048  0.5518  0.5834  0.5775
  687MOL0     H92744   3.096   2.058   1.092 -0.3500  2.5693  0.8159
  687MOL0     H92745   2.977   2.091   0.946 -2.7341  1.7040  0.4230
  688MOL0     O92746   1.397   3.517   4.788  0.7393  1.3150 -0.0397
  688MOL0     C92747   1.275   3.506   4.819 -0.3672 -0.7867 -0.4701
  688MOL0     O92748   1.221   3.392   4.860 -0.6830  0.6521  0.4007
  688MOL0     C92749   1.295   3.282   4.889  0.4056 -0.9067  0.4338
  688MOL0     C92750   1.323   3.185   4.790  0.5838 -0.9325 -0.4121
  688MOL0     C92751   1.395   3.077   4.829  0.3870  0.0701  0.1514
  688MOL0     C92752   1.427   3.049   4.958  0.1342  0.1311  0.0314
  688MOL0     O92753   1.497   2.932   4.997 -0.1240 -0.9633 -0.3179
  688MOL0     C92754   1.570   2.856   4.900  0.4400  0.6826  0.9917
  688MOL0     C92755   1.698   2.929   4.848 -0.2367 -0.4944 -0.4240
  688MOL0     C92756   1.770   2.854   4.739  0.8706 -0.2890 -0.9270
  688MOL0     C92757   1.816   2.701   4.768  0.2045  0.5360  0.4109
  688MOL0     C92758   1.864   2.630   4.636  0.0064 -0.4492 -0.3414
  688MOL0     C92759   1.983   2.706   4.574 -0.6430 -0.6136  0.8009
  688MOL0     C92760   2.075   2.599   4.499  1.0967  0.1344 -0.6886
  688MOL0     C92761   2.151   2.658   4.383  0.1395  0.3033  0.1445
  688MOL0     N92762   2.220   2.565   4.298 -0.6994  0.7163  0.8373
  688MOL0     C92763   2.352   2.533   4.326 -0.6516  0.4675  0.0102
  688MOL0     C92764   2.386   2.446   4.232 -0.2032  0.2981 -0.0856
  688MOL0     C92765   2.522   2.410   4.207  1.0337 -0.1925 -0.4274
  688MOL0     C92766   2.604   2.382   4.340 -0.2652 -0.4443  0.0599
  688MOL0     C92767   2.749   2.378   4.296  0.5195  0.0285  0.3657
  688MOL0     C92768   2.850   2.347   4.403  0.2863 -0.5958  0.1305
  688MOL0     O92769   2.853   2.454   4.494  0.1794  0.3540  0.0569
  688MOL0     C92770   2.924   2.436   4.612  0.9839  0.7369  0.1426
  688MOL0     C92771   2.996   2.318   4.653 -0.1503 -0.3122  0.6008
  688MOL0     C92772   3.066   2.307   4.773 -0.4110 -1.7001  0.1662
  688MOL0     C92773   3.054   2.407   4.865 -0.4191  0.5725  0.1076
  688MOL0     C92774   3.120   2.368   4.998 -0.1818 -1.3750  0.1117
  688MOL0     O92775   3.046   2.419   5.096 -0.3854 -0.0669  0.4527
  688MOL0     C92776   3.088   2.393   5.224 -0.4058  0.6460  0.4840
  688MOL0     C92777   3.176   2.479   5.282  0.0224 -0.7529 -0.2668
  688MOL0     C92778   3.240   2.460   5.397 -0.0776 -0.5182  0.8632
  688MOL0     C92779   3.214   2.344   5.464 -0.1932 -0.5967 -1.0575
  688MOL0     O92780   3.286   2.311   5.579 -0.0003  0.8582  0.6497
  688MOL0     C92781   3.405   2.380   5.624 -0.1283  0.1286  0.8262
  688MOL0     C92782   3.495   2.299   5.715 -0.4820 -0.0604 -0.7109
  688MOL0     C92783   3.631   2.283   5.654  0.6861 -0.3898 -0.0745
  688MOL0     C92784   3.720   2.196   5.732 -0.9652 -0.1440 -0.1438
  688MOL0     C92785   3.841   2.141   5.651 -0.0411 -0.0389  0.8927
  688MOL0     C92786   3.950   2.254   5.627 -0.5865 -0.3020  0.4899
  688MOL0     C92787   4.033   2.217   5.500 -0.5668  0.1348 -0.2897
  688MOL0     C92788   4.102   2.336   5.438  0.4463 -0.3066  0.0352
  688MOL0    Cl92789   4.226   2.401   5.550 -0.4144  0.1218 -0.3557
  688MOL0     C92790   3.107   2.258   5.418 -0.1508  0.2915  0.7546
  688MOL0     C92791   3.038   2.284   5.299 -0.4067  0.2055  0.0072
  688MOL0     O92792   3.223   2.297   5.017  1.3272  0.7536 -0.2434
  688MOL0     C92793   2.974   2.529   4.844 -0.9080  0.4923  0.1355
  688MOL0     C92794   2.918   2.538   4.712 -0.7544 -0.0961 -0.4062
  688MOL0     N92795   2.282   2.428   4.146 -1.1939  0.3046 -0.4068
  688MOL0     N92796   2.183   2.490   4.191 -0.3225  0.1751 -0.5513
  688MOL0     C92797   1.400   3.149   5.057  1.0071 -0.4908 -0.8185
  688MOL0     C92798   1.329   3.268   5.025 -0.1573 -0.0062  0.1597
  688MOL0     C92799   1.185   3.622   4.807  0.2869  0.5680  0.4915
  688MOL0     C92800   1.069   3.619   4.882 -0.1302  0.0867 -0.0346
  688MOL0     C92801   0.965   3.719   4.884  0.2305 -0.1069  0.0523
  688MOL0     C92802   0.985   3.835   4.809  0.1280  0.9925  1.0021
  688MOL0     O92803   0.907   3.944   4.814  0.5471  0.0715  0.7040
  688MOL0     C92804   0.798   3.941   4.913  1.1832 -0.1149  0.4305
  688MOL0     C92805   0.677   3.851   4.867 -0.2549  0.3401  0.0137
  688MOL0     C92806   0.565   3.845   4.973 -0.5341 -0.9609  0.4424
  688MOL0     C92807   0.462   3.957   4.960 -0.0827  0.5645  0.4295
  688MOL0     C92808   0.354   3.924   4.864  0.5627 -0.0983 -0.2293
  688MOL0     C92809   0.257   3.918   4.793  0.3906  0.3678 -0.5067
  688MOL0     C92810   1.086   3.831   4.708 -0.3711 -0.3459  0.1237
  688MOL0     C92811   1.186   3.730   4.707  0.2744  0.1729  0.5103
  688MOL0     C92812   1.289   3.744   4.605  0.0684  0.0877 -0.0689
  688MOL0     H92813   1.296   3.216   4.689  1.0587 -2.6487 -1.1084
  688MOL0     H92814   1.443   3.012   4.756  0.9374  0.1810  0.4105
  688MOL0     H92815   1.606   2.773   4.962 -0.3034 -0.0989  0.4010
  688MOL0     H92816   1.504   2.820   4.821 -0.9422  2.7775  1.0994
  688MOL0     H92817   1.773   2.941   4.927  2.0819 -1.0872 -2.4128
  688MOL0     H92818   1.689   3.035   4.822 -1.1717 -0.7235 -1.0770
  688MOL0     H92819   1.853   2.912   4.696 -0.3718  3.4065  1.1744
  688MOL0     H92820   1.697   2.847   4.658  0.3450 -3.6499 -0.3257
  688MOL0     H92821   1.887   2.702   4.851  0.6666  3.0071  0.0710
  688MOL0     H92822   1.730   2.638   4.794 -2.3155  2.8170 -1.7029
  688MOL0     H92823   1.896   2.526   4.652  1.8216 -0.2903 -2.4448
  688MOL0     H92824   1.776   2.625   4.572 -0.4647  0.0454  0.2558
  688MOL0     H92825   1.972   2.795   4.512  3.2016  1.4445  2.7287
  688MOL0     H92826   2.053   2.739   4.652  0.8839 -0.7274 -0.4798
  688MOL0     H92827   2.014   2.510   4.475 -0.5593  0.6950  1.1483
  688MOL0     H92828   2.143   2.559   4.575 -1.6722 -1.1944  1.2637
  688MOL0     H92829   2.079   2.699   4.311  0.5334 -2.0401 -1.6860
  688MOL0     H92830   2.215   2.742   4.414 -0.4678  0.1699  1.8326
  688MOL0     H92831   2.421   2.571   4.401 -0.7788 -0.4108  0.5816
  688MOL0     H92832   2.541   2.330   4.135  2.0692  2.4021 -3.2702
  688MOL0     H92833   2.551   2.504   4.159 -3.8133  1.6085 -0.4265
  688MOL0     H92834   2.588   2.460   4.414 -2.9810 -2.6191  1.9930
  688MOL0     H92835   2.573   2.285   4.382 -0.0827  0.6860  3.0008
  688MOL0     H92836   2.778   2.472   4.248  0.8809  1.0313  2.4258
  688MOL0     H92837   2.756   2.288   4.235  1.6797 -1.7573  2.9305
  688MOL0     H92838   2.954   2.342   4.371  0.9690 -0.0347  2.0921
  688MOL0     H92839   2.828   2.250   4.450 -0.1638 -0.7020 -0.2971
  688MOL0     H92840   3.003   2.241   4.577 -4.1164  1.2026 -1.6079
  688MOL0     H92841   3.112   2.211   4.793  1.2794 -0.6762  1.3949
  688MOL0     H92842   3.201   2.572   5.233 -0.7399 -0.8810 -0.9362
  688MOL0     H92843   3.320   2.526   5.426  0.8246 -1.9626  1.7969
  688MOL0     H92844   3.462   2.394   5.532  1.2750 -2.8629  1.0987
  688MOL0     H92845   3.387   2.478   5.668 -0.3875  0.8751 -0.8876
  688MOL0     H92846   3.506   2.346   5.813  1.6303  1.1281 -1.4626
  688MOL0     H92847   3.448   2.201   5.730 -1.0732  0.5848  2.2030
  688MOL0     H92848   3.610   2.241   5.555 -0.6805 -0.7466  0.3463
  688MOL0     H92849   3.688   2.374   5.632 -2.2535  1.6381  0.1536
  688MOL0     H92850   3.670   2.118   5.789  0.5100 -1.1606 -0.1936
  688MOL0     H92851   3.758   2.260   5.812 -0.5785  0.4303 -0.7749
  688MOL0     H92852   3.802   2.110   5.553 -1.4120 -0.8500  1.6574
  688MOL0     H92853   3.892   2.057   5.699  0.7581 -0.0148  0.1174
  688MOL0     H92854   3.895   2.346   5.608 -0.7554 -0.4912  0.0618
  688MOL0     H92855   4.018   2.267   5.711  1.1939 -1.3943 -0.7244
  688MOL0     H92856   3.970   2.172   5.422  0.6142 -1.0725 -0.5667
  688MOL0     H92857   4.109   2.144   5.527  2.2978  2.6739 -0.9825
  688MOL0     H92858   4.136   2.318   5.336 -0.2626  0.2510 -0.3141
  688MOL0     H92859   4.022   2.411   5.436  1.0669  0.5114  2.2237
  688MOL0     H92860   3.070   2.173   5.473 -0.3180  0.4805  0.9319
  688MOL0     H92861   2.958   2.223   5.258  0.4623 -2.4314  1.9079
  688MOL0     H92862   2.950   2.596   4.926  1.4780  1.2961  0.2472
  688MOL0     H92863   2.860   2.628   4.694 -0.9799  0.2874  1.9101
  688MOL0     H92864   1.424   3.133   5.162 -0.8816 -0.9189 -0.4158
  688MOL0     H92865   1.308   3.333   5.110  0.8393  3.8796 -2.3210
  688MOL0     H92866   1.053   3.546   4.961 -0.3399  1.5423  1.3071
  688MOL0     H92867   0.882   3.713   4.954  0.6337  4.9166  1.4244
  688MOL0     H92868   0.760   4.042   4.930 -1.1258 -0.5300 -1.5942
  688MOL0     H92869   0.824   3.902   5.012  4.8329  0.4044 -0.1908
  688MOL0     H92870   0.713   3.748   4.859  0.7730  0.2397  3.8490
  688MOL0     H92871   0.634   3.876   4.770 -0.9950  0.8524  0.4638
  688MOL0     H92872   0.601   3.860   5.075  0.2198 -1.8633  0.3197
  688MOL0     H92873   0.517   3.746   4.969  2.4264 -2.5485  1.4499
  688MOL0     H92874   0.412   3.949   5.057 -1.9870 -1.0656 -0.6259
  688MOL0     H92875   0.500   4.052   4.921  3.0286 -1.0781 -0.8606
  688MOL0     H92876   0.168   3.918   4.733 -2.0820 -5.2701  2.3672
  688MOL0     H92877   1.108   3.916   4.644 -0.0392  0.8863  1.7792
  688MOL0     H92878   1.375   3.801   4.641  0.1233  0.7837 -1.2363
  688MOL0     H92879   1.336   3.650   4.574  2.9729  0.9647  1.3293
  688MOL0     H92880   1.253   3.792   4.513  0.1459 -0.4773 -0.3989
  689MOL0     O92881   8.226   1.193   4.455 -0.0105 -0.1754 -0.8437
  689MOL0     C92882   8.132   1.259   4.504  0.7634  0.3734  0.9214
  689MOL0     O92883   8.136   1.335   4.616 -0.9528 -0.3052  0.1683
  689MOL0     C92884   8.264   1.385   4.659  0.0453  0.3507 -0.0518
  689MOL0     C92885   8.268   1.520   4.668 -1.5513 -0.4504 -0.5074
  689MOL0     C92886   8.387   1.580   4.725  0.4264  0.3310  0.3163
  689MOL0     C92887   8.503   1.506   4.763 -0.1157 -0.1668 -0.4186
  689MOL0     O92888   8.602   1.572   4.822 -0.2502  0.0648 -0.0401
  689MOL0     C92889   8.709   1.512   4.886 -0.2365  0.1501 -0.5578
  689MOL0     C92890   8.778   1.623   4.970 -0.0188  0.5150 -0.9451
  689MOL0     C92891   8.888   1.563   5.050 -0.4475  0.7970 -0.4681
  689MOL0     C92892   8.999   1.500   4.965  0.5716  1.0640 -0.4568
  689MOL0     C92893   9.074   1.606   4.876 -0.4741 -0.8868 -0.5741
  689MOL0     C92894   9.188   1.544   4.808  0.2424 -0.3026  0.4474
  689MOL0     C92895   9.303   1.629   4.762  1.2427  0.6037  0.8452
  689MOL0     C92896   9.372   1.685   4.889 -0.8222 -0.7698  0.3472
  689MOL0     N92897   9.511   1.729   4.863 -1.0215  0.0044 -0.4820
  689MOL0     C92898   9.611   1.663   4.798  0.1770  0.1962  0.0862
  689MOL0     C92899   9.719   1.743   4.821 -0.8158  0.0147 -1.0398
  689MOL0     C92900   9.850   1.729   4.766  0.7581  0.4241  0.7786
  689MOL0     C92901   9.949   1.723   4.882 -0.0076  0.8347 -0.6278
  689MOL0     C92902   9.907   1.625   4.986  0.0557 -0.1920 -0.5362
  689MOL0     C92903  10.022   1.576   5.082  0.1151  0.5091 -0.3823
  689MOL0     O92904  10.103   1.471   5.030 -0.0351 -0.4896  0.1275
  689MOL0     C92905  10.199   1.424   5.115 -0.0056  0.1991  1.0448
  689MOL0     C92906  10.224   1.466   5.242  0.9348 -0.2172 -1.4265
  689MOL0     C92907  10.320   1.412   5.325 -0.2538 -1.3643 -0.7170
  689MOL0     C92908  10.405   1.321   5.274 -1.0098  0.1662  0.1963
  689MOL0     C92909  10.529   1.265   5.348 -0.8352 -0.5720  0.0296
  689MOL0     O92910  10.607   1.166   5.294 -0.4597  0.1155 -0.2355
  689MOL0     C92911  10.683   1.096   5.377  0.0371 -0.5701  0.0107
  689MOL0     C92912  10.623   1.010   5.468  0.4461 -0.1563 -0.3404
  689MOL0     C92913  10.694   0.922   5.549 -0.0569 -0.3627  0.8589
  689MOL0     C92914  10.836   0.915   5.522  1.9654 -0.1039 -0.1298
  689MOL0     O92915  10.917   0.832   5.596  0.2090 -0.2239 -0.0312
  689MOL0     C92916  10.874   0.798   5.730 -0.6275 -0.0673  0.0636
  689MOL0     C92917  10.892   0.919   5.830  1.3800  0.8484  0.1841
  689MOL0     C92918  10.975   0.888   5.953 -0.2925 -0.4115 -0.8590
  689MOL0     C92919  10.913   0.781   6.038 -0.1111  0.7691  0.3843
  689MOL0     C92920  11.006   0.693   6.116  0.5183 -0.9564  0.5902
  689MOL0     C92921  10.933   0.641   6.241 -0.1194  0.0203 -0.7012
  689MOL0     C92922  11.024   0.540   6.316  0.2211  0.5626 -0.3041
  689MOL0     C92923  10.985   0.501   6.456  0.4983 -0.7058 -0.9587
  689MOL0    Cl92924  10.834   0.382   6.441 -0.2505 -0.2984 -0.2144
  689MOL0     C92925  10.890   1.005   5.427 -0.7716  0.7422 -0.1758
  689MOL0     C92926  10.814   1.095   5.361  0.1533 -0.4814 -1.1808
  689MOL0     O92927  10.533   1.298   5.464  0.8193 -0.0016 -0.4878
  689MOL0     C92928  10.380   1.266   5.149  0.7537 -0.3236 -0.4931
  689MOL0     C92929  10.274   1.316   5.067 -0.0954 -0.1370 -0.5199
  689MOL0     N92930   9.677   1.854   4.898 -0.5373  0.5710  0.2672
  689MOL0     N92931   9.557   1.838   4.925  0.2418 -0.6496 -0.1488
  689MOL0     C92932   8.484   1.360   4.762 -1.0189  0.6724 -0.2312
  689MOL0     C92933   8.370   1.305   4.705 -0.8249  0.1216  0.5376
  689MOL0     C92934   7.995   1.259   4.435 -0.4161  0.7737 -0.9065
  689MOL0     C92935   7.921   1.369   4.446 -0.4143  0.5462 -0.4372
  689MOL0     C92936   7.808   1.383   4.370  0.3020  0.7432 -1.3471
  689MOL0     C92937   7.770   1.291   4.279  0.2187  0.8032 -0.4709
  689MOL0     O92938   7.654   1.305   4.204  0.7012 -0.1019  0.1036
  689MOL0     C92939   7.594   1.204   4.127 -0.0335 -0.8423 -0.2696
  689MOL0     C92940   7.437   1.232   4.098 -0.1467 -0.0039 -0.3068
  689MOL0     C92941   7.357   1.132   4.179  1.0184  0.4689 -0.3343
  689MOL0     C92942   7.208   1.119   4.123  0.6854 -0.3516  0.8040
  689MOL0     C92943   7.177   0.995   4.050 -1.0679 -0.4326 -0.1089
  689MOL0     C92944   7.154   0.898   3.985  0.4884  0.0473  0.1065
  689MOL0     C92945   7.847   1.178   4.267 -0.4675 -0.3860 -1.3143
  689MOL0     C92946   7.956   1.157   4.355  0.7212  0.1490  0.1639
  689MOL0     C92947   8.016   1.022   4.348  0.3479  0.9871  0.7353
  689MOL0     H92948   8.184   1.580   4.634 -4.6669 -3.7690  0.7332
  689MOL0     H92949   8.396   1.687   4.714 -1.9723  0.5133 -0.4689
  689MOL0     H92950   8.687   1.434   4.960  2.5464  0.7195  0.9971
  689MOL0     H92951   8.782   1.489   4.808 -0.0033 -3.3049  0.5430
  689MOL0     H92952   8.714   1.674   5.042  1.0603  0.8575 -0.2041
  689MOL0     H92953   8.819   1.701   4.905  0.6778  0.6770 -0.3162
  689MOL0     H92954   8.838   1.489   5.114 -0.7428  0.0764 -1.4997
  689MOL0     H92955   8.928   1.644   5.111  1.8841  1.5547 -2.8225
  689MOL0     H92956   9.063   1.453   5.040 -3.3976 -1.1065  1.9069
  689MOL0     H92957   8.958   1.417   4.907  3.0704 -0.9452  0.4496
  689MOL0     H92958   9.019   1.672   4.808  1.4097  1.3318 -0.0711
  689MOL0     H92959   9.106   1.681   4.949  1.8294 -0.4818 -1.9238
  689MOL0     H92960   9.227   1.469   4.878  0.2700 -0.4848  0.2369
  689MOL0     H92961   9.142   1.490   4.725 -0.4571  0.3093  0.4284
  689MOL0     H92962   9.257   1.705   4.699 -2.3681  0.3628  2.9178
  689MOL0     H92963   9.369   1.557   4.713 -0.8682 -0.2829 -0.8388
  689MOL0     H92964   9.318   1.775   4.921 -0.2711 -0.0327 -0.7297
  689MOL0     H92965   9.366   1.610   4.969 -2.5198 -1.9514 -0.8292
  689MOL0     H92966   9.608   1.571   4.741  1.0853 -0.4365  1.0325
  689MOL0     H92967   9.852   1.629   4.722 -1.2976  0.8223 -0.3357
  689MOL0     H92968   9.877   1.807   4.693 -2.1743  0.7432 -0.0909
  689MOL0     H92969  10.047   1.691   4.848  0.0677  1.1332 -0.6970
  689MOL0     H92970   9.958   1.828   4.913  0.8806  0.8909 -1.0648
  689MOL0     H92971   9.857   1.537   4.945  0.4164 -1.0849  0.8699
  689MOL0     H92972   9.837   1.669   5.058  1.3569 -0.1703  0.7822
  689MOL0     H92973   9.980   1.530   5.172 -0.7902  1.1518 -0.4596
  689MOL0     H92974  10.082   1.659   5.120  3.3309 -1.5458 -0.5519
  689MOL0     H92975  10.180   1.553   5.291 -0.1986 -2.5110  1.9963
  689MOL0     H92976  10.343   1.474   5.412 -0.3877 -0.0214 -1.6009
  689MOL0     H92977  10.515   1.022   5.469  0.6303  2.4263  1.9783
  689MOL0     H92978  10.640   0.858   5.618 -3.1721  3.6241  2.5451
  689MOL0     H92979  10.774   0.755   5.738 -0.9113  0.9210  3.7647
  689MOL0     H92980  10.946   0.722   5.764  0.3650  1.1305  0.7186
  689MOL0     H92981  10.940   0.992   5.765 -0.2155  1.8832  0.1341
  689MOL0     H92982  10.791   0.949   5.859 -0.3842  0.5556 -4.7168
  689MOL0     H92983  11.070   0.870   5.903  0.6111  1.4193  0.0801
  689MOL0     H92984  10.985   0.977   6.016 -3.1522 -0.9664  0.5488
  689MOL0     H92985  10.856   0.714   5.973 -1.3374  2.7114 -0.6588
  689MOL0     H92986  10.848   0.841   6.103  3.3731  3.3469  1.8902
  689MOL0     H92987  11.097   0.742   6.152 -0.0739  0.7758 -0.1676
  689MOL0     H92988  11.038   0.617   6.045  2.4563  0.4828 -0.1547
  689MOL0     H92989  10.911   0.729   6.301  0.4150  1.0156 -1.9221
  689MOL0     H92990  10.841   0.598   6.201 -1.9909  2.6745  0.4633
  689MOL0     H92991  11.124   0.585   6.310 -0.9719  3.2930 -1.4053
  689MOL0     H92992  11.042   0.447   6.261  0.9913  1.0185 -0.8564
  689MOL0     H92993  11.061   0.452   6.518  1.0880  0.3059 -0.8658
  689MOL0     H92994  10.963   0.593   6.512 -3.9661 -3.5705  2.7970
  689MOL0     H92995  10.998   1.012   5.432 -0.5368  4.9649 -4.0440
  689MOL0     H92996  10.859   1.163   5.289 -0.8872  1.7228  0.1434
  689MOL0     H92997  10.436   1.179   5.113 -0.9381 -1.2654 -0.9557
  689MOL0     H92998  10.251   1.267   4.973 -0.2766  0.8462 -0.9994
  689MOL0     H92999   8.556   1.288   4.800 -1.8224 -1.3218 -2.2380
  689MOL0     H93000   8.367   1.196   4.703 -1.9903 -0.1284  4.9848
  689MOL0     H93001   7.940   1.454   4.510 -2.4424 -1.0578  2.5171
  689MOL0     H93002   7.734   1.460   4.389 -0.5106 -0.6535  1.6643
  689MOL0     H93003   7.599   1.104   4.172 -3.1226 -0.8411  0.3448
  689MOL0     H93004   7.640   1.211   4.029 -1.2082 -0.1422 -0.7962
  689MOL0     H93005   7.410   1.221   3.992 -0.3229  0.5717 -0.3247
  689MOL0     H93006   7.408   1.334   4.124 -0.0173 -0.2038  0.6441
  689MOL0     H93007   7.370   1.164   4.283  2.3975  0.6742 -0.5538
  689MOL0     H93008   7.407   1.035   4.178 -0.6973 -0.4829 -2.3200
  689MOL0     H93009   7.137   1.126   4.206 -1.9015  0.8356 -1.3125
  689MOL0     H93010   7.185   1.197   4.049  1.0697 -1.3936 -0.4566
  689MOL0     H93011   7.114   0.812   3.935  2.5757 -0.3435 -1.0060
  689MOL0     H93012   7.818   1.103   4.194 -1.3148 -0.9793 -0.3919
  689MOL0     H93013   8.112   1.030   4.297 -0.7949 -0.2871 -1.7555
  689MOL0     H93014   8.031   0.978   4.447  2.9516  3.4646  1.5677
  689MOL0     H93015   7.956   0.958   4.283  3.7797  0.1400 -1.8719
  690MOL0     O93016  10.809   7.580   2.316  0.0216 -0.8547  0.5048
  690MOL0     C93017  10.744   7.486   2.350 -0.7582  0.9165  0.2317
  690MOL0     O93018  10.772   7.406   2.455  0.1684  0.2915 -0.2039
  690MOL0     C93019  10.882   7.426   2.532 -0.6444  0.6138 -0.2833
  690MOL0     C93020  10.927   7.313   2.601 -0.0639  0.1459  1.2073
  690MOL0     C93021  11.033   7.314   2.693  0.4412 -0.3795 -0.2997
  690MOL0     C93022  11.081   7.437   2.744 -0.5668 -0.6190  0.2537
  690MOL0     O93023  11.179   7.450   2.838  0.3112 -0.0091 -0.3972
  690MOL0     C93024  11.166   7.345   2.936 -0.3438  1.2542 -0.5709
  690MOL0     C93025  11.239   7.371   3.066 -0.1062  0.2636 -0.3567
  690MOL0     C93026  11.390   7.411   3.056 -0.0065  0.1032  1.0192
  690MOL0     C93027  11.472   7.391   3.183  1.2906  0.4883 -0.3749
  690MOL0     C93028  11.483   7.246   3.234 -0.1966  0.1660  0.2338
  690MOL0     C93029  11.581   7.236   3.349 -0.8486  0.3284 -0.2751
  690MOL0     C93030  11.612   7.085   3.386 -0.5095  0.3592  0.8039
  690MOL0     C93031  11.502   6.995   3.423  0.2114 -0.1402  0.6862
  690MOL0     N93032  11.416   7.043   3.524  0.9223  0.0470 -0.0061
  690MOL0     C93033  11.448   7.103   3.646 -1.0382  0.1212  0.7004
  690MOL0     C93034  11.328   7.130   3.704 -0.6141 -0.1603 -0.4155
  690MOL0     C93035  11.286   7.199   3.832  0.3034  0.4217  0.0001
  690MOL0     C93036  11.286   7.116   3.966  0.0947 -0.1347 -0.3345
  690MOL0     C93037  11.424   7.051   3.987 -1.2441 -1.0801  0.9168
  690MOL0     C93038  11.428   6.964   4.109 -0.5184 -0.6977 -0.2561
  690MOL0     O93039  11.550   6.889   4.105  0.5184  0.6074 -0.1227
  690MOL0     C93040  11.613   6.869   4.234 -0.4097 -0.0697 -0.0620
  690MOL0     C93041  11.732   6.802   4.236  0.3695  0.2414 -0.4977
  690MOL0     C93042  11.800   6.775   4.354 -0.5075  0.4257  0.8017
  690MOL0     C93043  11.753   6.810   4.480 -0.1105 -1.4545  0.9056
  690MOL0     C93044  11.833   6.792   4.600 -0.2743 -0.2497 -0.1851
  690MOL0     O93045  11.770   6.844   4.716 -0.2580 -0.5915 -0.1900
  690MOL0     C93046  11.830   6.851   4.844  0.3216 -1.8343  0.1679
  690MOL0     C93047  11.763   6.923   4.952 -1.3258  1.0739 -0.2902
  690MOL0     C93048  11.814   6.942   5.080  0.0648  0.4765 -0.2620
  690MOL0     C93049  11.930   6.880   5.107 -0.2510 -0.3069  0.2348
  690MOL0     O93050  11.988   6.888   5.228  0.2822  0.1146  0.6238
  690MOL0     C93051  11.935   6.807   5.326  0.8774  0.0089 -1.1113
  690MOL0     C93052  11.988   6.842   5.465  0.8002  0.4857 -0.4366
  690MOL0     C93053  11.927   6.740   5.570 -0.5398 -0.6859  0.5708
  690MOL0     C93054  11.989   6.756   5.709  0.5039  0.1699  0.9166
  690MOL0     C93055  11.938   6.656   5.813 -0.4999 -0.8423 -0.5413
  690MOL0     C93056  12.047   6.638   5.922  0.0226 -0.3656 -1.1164
  690MOL0     C93057  11.988   6.537   6.015 -0.7912  0.5308  0.5857
  690MOL0     C93058  12.095   6.509   6.117  0.7357 -0.3420 -0.0370
  690MOL0    Cl93059  12.095   6.649   6.223  0.1131  0.1591 -0.5183
  690MOL0     C93060  12.009   6.812   5.009  0.5828 -0.5309 -0.5944
  690MOL0     C93061  11.952   6.797   4.878 -0.3598  0.2863  0.3631
  690MOL0     O93062  11.934   6.729   4.594  0.0590 -0.0595  0.1306
  690MOL0     C93063  11.624   6.885   4.479  0.4038  0.8050 -0.5385
  690MOL0     C93064  11.557   6.909   4.358  0.8817 -0.2874 -0.0946
  690MOL0     N93065  11.228   7.075   3.638 -0.5321  0.6995  0.3259
  690MOL0     N93066  11.280   7.031   3.525 -0.1291 -0.5604 -0.8965
  690MOL0     C93067  11.046   7.546   2.672 -0.9627  0.4455  0.0513
  690MOL0     C93068  10.940   7.542   2.578  0.2227  0.4599 -0.7358
  690MOL0     C93069  10.653   7.431   2.248 -0.5836 -0.5707 -0.6146
  690MOL0     C93070  10.574   7.524   2.180 -0.1698  0.2408 -0.6716
  690MOL0     C93071  10.469   7.490   2.082 -0.0184 -0.6870  0.1889
  690MOL0     C93072  10.448   7.357   2.053  0.3138  0.2184 -0.4493
  690MOL0     O93073  10.350   7.313   1.972  0.0391 -0.3428 -0.7864
  690MOL0     C93074  10.329   7.379   1.847  0.0432 -0.5778  1.1607
  690MOL0     C93075  10.206   7.320   1.773  0.7567 -0.2463 -0.0181
  690MOL0     C93076  10.176   7.403   1.644 -0.3850  0.4109  0.5735
  690MOL0     C93077  10.054   7.347   1.564 -0.8839  0.9852  0.2274
  690MOL0     C93078   9.920   7.378   1.623  0.0619 -0.1338  0.8036
  690MOL0     C93079   9.813   7.419   1.654  0.1461 -0.8209  0.7423
  690MOL0     C93080  10.525   7.258   2.120 -0.4492  0.0365  0.4999
  690MOL0     C93081  10.630   7.300   2.214 -0.7620  0.4142  0.4922
  690MOL0     C93082  10.700   7.190   2.283  0.3173  0.8835  0.1241
  690MOL0     H93083  10.890   7.217   2.566  1.0701  0.8481 -2.3035
  690MOL0     H93084  11.058   7.214   2.728 -1.2557 -1.4626 -1.9597
  690MOL0     H93085  11.065   7.312   2.959  0.0403 -0.0633 -0.6751
  690MOL0     H93086  11.222   7.262   2.893  1.2874  1.7448  0.4928
  690MOL0     H93087  11.229   7.280   3.128  1.1006  0.6078  0.3811
  690MOL0     H93088  11.185   7.450   3.119 -2.0794 -1.1860 -0.0987
  690MOL0     H93089  11.397   7.518   3.033 -2.2932  0.2526  0.7964
  690MOL0     H93090  11.427   7.342   2.979 -3.1803 -0.3521 -0.2337
  690MOL0     H93091  11.574   7.423   3.158  1.0006  0.2837 -1.8917
  690MOL0     H93092  11.431   7.448   3.267  1.2531  0.0034 -0.0590
  690MOL0     H93093  11.389   7.200   3.265 -1.0405  1.3941 -0.4043
  690MOL0     H93094  11.521   7.184   3.152  0.6037  0.7397  0.1664
  690MOL0     H93095  11.674   7.286   3.323 -0.8038  2.4880  3.3468
  690MOL0     H93096  11.548   7.284   3.441 -3.6243 -2.7279  0.5317
  690MOL0     H93097  11.695   7.085   3.457 -1.0114  2.0757  1.4420
  690MOL0     H93098  11.654   7.035   3.298  1.1011 -0.0378  1.7503
  690MOL0     H93099  11.449   6.976   3.329 -0.1547 -0.7799  1.0153
  690MOL0     H93100  11.543   6.904   3.468  0.9551 -0.3015 -0.2800
  690MOL0     H93101  11.550   7.125   3.677 -0.3103 -1.2161 -0.6421
  690MOL0     H93102  11.360   7.276   3.856  0.5942 -0.9204  4.3344
  690MOL0     H93103  11.190   7.251   3.825  1.1346  2.5929  2.8123
  690MOL0     H93104  11.279   7.197   4.040  1.3897  1.4727 -1.8640
  690MOL0     H93105  11.204   7.045   3.964  2.0195 -2.4540 -1.6869
  690MOL0     H93106  11.517   7.108   3.987 -0.7601 -1.7663 -1.6426
  690MOL0     H93107  11.438   6.974   3.910  1.4867 -1.1094  1.3231
  690MOL0     H93108  11.337   6.903   4.108 -1.2002  0.2718 -2.0215
  690MOL0     H93109  11.425   7.044   4.183 -3.0540  0.3855 -1.4143
  690MOL0     H93110  11.780   6.776   4.142  0.5949 -1.0229 -0.0561
  690MOL0     H93111  11.889   6.715   4.341  0.2679  1.5025  1.0314
  690MOL0     H93112  11.663   6.965   4.943 -1.4578  1.0156  0.7854
  690MOL0     H93113  11.749   6.992   5.151 -0.0034 -2.6280  2.0803
  690MOL0     H93114  11.826   6.809   5.332  0.9837  0.5481  1.7158
  690MOL0     H93115  11.968   6.705   5.303  1.5488 -0.5242  1.7788
  690MOL0     H93116  12.097   6.828   5.466  0.7467 -0.4334  2.8109
  690MOL0     H93117  11.948   6.942   5.484 -1.0663 -0.0002 -1.5492
  690MOL0     H93118  11.820   6.756   5.583 -0.1353  0.9802  2.3014
  690MOL0     H93119  11.951   6.638   5.537  1.3874  0.1637 -0.8394
  690MOL0     H93120  11.970   6.854   5.755  0.6878  0.3348  0.6435
  690MOL0     H93121  12.097   6.755   5.691  0.2320 -2.0340 -1.0239
  690MOL0     H93122  11.916   6.555   5.777 -1.3143 -0.6022 -0.7348
  690MOL0     H93123  11.850   6.699   5.862 -1.5283 -0.5648 -2.5558
  690MOL0     H93124  12.140   6.605   5.876 -0.7316 -2.2592 -1.3797
  690MOL0     H93125  12.050   6.735   5.974 -0.6757  1.0582 -3.5627
  690MOL0     H93126  11.967   6.444   5.962  5.0357  0.0335 -1.6753
  690MOL0     H93127  11.894   6.563   6.064  0.8209  0.9720  3.7425
  690MOL0     H93128  12.074   6.415   6.170 -2.5073 -1.2167 -2.5327
  690MOL0     H93129  12.194   6.502   6.071 -0.0217 -3.6054 -1.4911
  690MOL0     H93130  12.104   6.775   5.046  1.2735 -0.8137 -2.5257
  690MOL0     H93131  12.014   6.750   4.802 -1.0308  1.0640 -0.6820
  690MOL0     H93132  11.588   6.930   4.570  0.7729 -0.7876  0.4285
  690MOL0     H93133  11.462   6.962   4.355  0.3403 -1.1711  0.9161
  690MOL0     H93134  11.093   7.641   2.696  0.0244  0.5047 -1.8969
  690MOL0     H93135  10.914   7.636   2.530 -4.9670 -0.1430  0.3584
  690MOL0     H93136  10.584   7.630   2.199  1.2805 -0.1722  1.1649
  690MOL0     H93137  10.414   7.576   2.045  0.5311 -0.4094  0.0143
  690MOL0     H93138  10.410   7.366   1.775  0.1263 -2.3707  1.5289
  690MOL0     H93139  10.315   7.487   1.863 -2.4510 -0.4709 -1.0645
  690MOL0     H93140  10.123   7.332   1.844  3.0937 -3.4263  3.6300
  690MOL0     H93141  10.217   7.214   1.752 -0.7869  0.0438 -2.9075
  690MOL0     H93142  10.265   7.410   1.581 -1.2044 -1.2053 -0.8515
  690MOL0     H93143  10.142   7.502   1.677  0.2254  0.7457  0.2224
  690MOL0     H93144  10.035   7.394   1.467 -2.9149  1.4576  0.8079
  690MOL0     H93145  10.074   7.241   1.547 -0.4901  1.2538 -1.1121
  690MOL0     H93146   9.716   7.460   1.676 -0.6591 -2.5251  0.4698
  690MOL0     H93147  10.501   7.153   2.107  0.4531  0.1757 -3.8110
  690MOL0     H93148  10.677   7.178   2.389  4.2887 -1.3558  0.9390
  690MOL0     H93149  10.662   7.097   2.240  0.0871  1.4413 -0.9175
  690MOL0     H93150  10.807   7.207   2.265  0.0818 -0.1302 -2.7614
  691MOL0     O93151   8.962  11.227   6.499 -0.5712 -0.3385 -0.4218
  691MOL0     C93152   8.890  11.264   6.402 -0.6635  0.2697 -0.5449
  691MOL0     O93153   8.883  11.389   6.347 -0.1889 -0.5113 -0.7000
  691MOL0     C93154   9.004  11.456   6.321  0.5371 -0.5898 -0.6744
  691MOL0     C93155   8.984  11.586   6.274 -0.1976 -0.2665  0.3205
  691MOL0     C93156   9.089  11.676   6.267 -0.1779 -0.5866  0.0442
  691MOL0     C93157   9.220  11.639   6.300  1.1665 -0.2855 -0.1774
  691MOL0     O93158   9.319  11.728   6.305 -0.0163 -0.7574 -0.2904
  691MOL0     C93159   9.321  11.786   6.436 -0.0969  0.0676  0.3509
  691MOL0     C93160   9.434  11.903   6.432  0.5172 -0.4467  1.3697
  691MOL0     C93161   9.390  12.025   6.342 -0.8510  0.1614  0.1588
  691MOL0     C93162   9.518  12.107   6.301  0.3491 -0.1485  0.4744
  691MOL0     C93163   9.548  12.075   6.154  0.8494 -0.5997  0.4231
  691MOL0     C93164   9.594  11.935   6.134  0.4416 -0.3867  0.2152
  691MOL0     C93165   9.629  11.919   5.982 -0.3086 -0.7510  0.5630
  691MOL0     C93166   9.507  11.891   5.889  0.4579 -0.8151 -0.5217
  691MOL0     N93167   9.464  11.751   5.892  0.3455  0.5852 -0.5597
  691MOL0     C93168   9.376  11.693   5.979 -0.7182  0.3642  0.3117
  691MOL0     C93169   9.366  11.565   5.929 -0.1074 -0.1015  0.0363
  691MOL0     C93170   9.284  11.459   5.994 -0.1827 -0.8270  0.4968
  691MOL0     C93171   9.135  11.458   5.934 -0.6798  0.0580  0.1801
  691MOL0     C93172   9.081  11.319   5.920 -0.4674  0.7223  0.3603
  691MOL0     C93173   9.075  11.237   6.057 -0.3441  0.0053 -0.2916
  691MOL0     O93174   9.067  11.096   6.027  0.9557  0.0723 -0.4561
  691MOL0     C93175   8.955  11.060   5.959 -0.5420  0.7928 -0.7046
  691MOL0     C93176   8.828  11.090   6.001  0.9318  0.1647 -0.1295
  691MOL0     C93177   8.713  11.040   5.940 -0.1121  0.6632  0.6341
  691MOL0     C93178   8.714  10.947   5.835  0.4893  0.5831  0.6313
  691MOL0     C93179   8.590  10.894   5.769 -0.8458 -0.2503 -0.2969
  691MOL0     O93180   8.475  10.955   5.810 -0.5234 -0.6737  1.2069
  691MOL0     C93181   8.368  10.898   5.749  0.3542  0.5414 -0.1714
  691MOL0     C93182   8.300  10.786   5.809  0.3253 -0.4065  0.3020
  691MOL0     C93183   8.204  10.722   5.725 -0.6695 -0.0442 -0.1576
  691MOL0     C93184   8.164  10.781   5.604  0.1846 -0.9123  0.0066
  691MOL0     O93185   8.063  10.725   5.528  0.3359 -0.1111  0.2953
  691MOL0     C93186   8.005  10.807   5.422  0.0028 -0.2807  0.1201
  691MOL0     C93187   7.882  10.738   5.353 -0.3325  0.7160 -0.4438
  691MOL0     C93188   7.921  10.597   5.320 -0.3269 -0.1878  1.0068
  691MOL0     C93189   7.819  10.530   5.224  0.7648 -1.5066 -0.3811
  691MOL0     C93190   7.867  10.378   5.210  0.7262  0.3701 -0.2097
  691MOL0     C93191   7.825  10.284   5.325  0.1885  0.2215 -0.9197
  691MOL0     C93192   7.873  10.138   5.315 -0.4478 -0.1316 -1.0336
  691MOL0     C93193   7.818  10.073   5.188 -0.1941  0.7663  0.8063
  691MOL0    Cl93194   7.861   9.900   5.175  0.2398  0.1982  0.1719
  691MOL0     C93195   8.223  10.903   5.557 -0.6130  0.2560 -0.1470
  691MOL0     C93196   8.323  10.952   5.633 -0.4416 -0.0936 -0.2292
  691MOL0     O93197   8.599  10.798   5.694  0.7804  0.0608  0.0058
  691MOL0     C93198   8.850  10.906   5.798  0.5939 -0.2001  0.6159
  691MOL0     C93199   8.960  10.965   5.854 -0.0741 -0.8061 -0.1344
  691MOL0     N93200   9.432  11.563   5.805 -0.9273 -0.4937 -0.8387
  691MOL0     N93201   9.503  11.672   5.789  0.2555  0.6962 -0.1787
  691MOL0     C93202   9.241  11.509   6.339  0.2420 -0.6614  0.6488
  691MOL0     C93203   9.138  11.412   6.345  0.6647  0.3341 -0.3704
  691MOL0     C93204   8.772  11.177   6.372  0.0796  0.4030  0.7065
  691MOL0     C93205   8.647  11.252   6.356  0.0273 -0.5217  0.0352
  691MOL0     C93206   8.541  11.169   6.331 -0.2370 -0.2826 -0.8013
  691MOL0     C93207   8.544  11.027   6.330  0.2670  0.5504  0.3971
  691MOL0     O93208   8.433  10.953   6.300  0.6194 -0.0763 -0.4226
  691MOL0     C93209   8.387  10.958   6.165 -0.0300 -0.4124  0.3400
  691MOL0     C93210   8.252  10.889   6.160 -0.1945  0.5307  0.6002
  691MOL0     C93211   8.257  10.735   6.177  0.4311  0.0463 -1.2349
  691MOL0     C93212   8.123  10.652   6.149  1.3765 -0.8302 -0.5042
  691MOL0     C93213   8.125  10.510   6.182 -1.1950 -0.1227 -0.8762
  691MOL0     C93214   8.120  10.394   6.226 -0.0825 -0.0394  0.4171
  691MOL0     C93215   8.666  10.960   6.328  0.4448 -0.7620 -0.0650
  691MOL0     C93216   8.779  11.034   6.370  0.6295  0.3435 -0.0804
  691MOL0     C93217   8.917  10.974   6.383  0.1292  0.1429  0.4444
  691MOL0     H93218   8.889  11.629   6.242 -0.4439  0.0464  1.4310
  691MOL0     H93219   9.074  11.777   6.230  2.4876 -0.2885 -0.4457
  691MOL0     H93220   9.220  11.827   6.440 -0.1511  0.1334 -1.0603
  691MOL0     H93221   9.340  11.708   6.510 -0.0377  2.0435  2.5294
  691MOL0     H93222   9.524  11.854   6.394  0.0985 -1.7574  2.0166
  691MOL0     H93223   9.460  11.949   6.528  2.0177  2.2703 -0.1879
  691MOL0     H93224   9.336  12.097   6.403  1.3166  0.5383  1.7542
  691MOL0     H93225   9.319  11.998   6.263 -2.3428 -0.4094  1.6235
  691MOL0     H93226   9.494  12.213   6.310 -2.8844 -0.9535  5.3761
  691MOL0     H93227   9.599  12.084   6.370 -1.7720 -1.7468  2.6320
  691MOL0     H93228   9.457  12.095   6.096  2.0623  0.7085 -1.0921
  691MOL0     H93229   9.630  12.140   6.126  1.0521  0.3367  2.9280
  691MOL0     H93230   9.682  11.917   6.197  0.5877  0.8517  0.3918
  691MOL0     H93231   9.522  11.859   6.168 -1.1960  1.0191  0.0307
  691MOL0     H93232   9.700  11.837   5.968  2.1569  1.5711 -1.8132
  691MOL0     H93233   9.687  12.001   5.940 -2.9794  0.0781 -1.8471
  691MOL0     H93234   9.425  11.954   5.924  0.9832  0.4790 -1.5230
  691MOL0     H93235   9.540  11.915   5.787  2.2256  1.4331  0.4749
  691MOL0     H93236   9.332  11.748   6.062  1.0430  4.5614 -1.2472
  691MOL0     H93237   9.334  11.372   5.952  0.3241 -0.1956 -0.2411
  691MOL0     H93238   9.259  11.462   6.100 -1.9716 -2.5437  0.1823
  691MOL0     H93239   9.064  11.520   5.988 -0.9516  1.3951 -1.6120
  691MOL0     H93240   9.153  11.500   5.835  4.9729  0.1442  0.8839
  691MOL0     H93241   9.139  11.264   5.845 -0.4065  1.5758 -0.2366
  691MOL0     H93242   8.984  11.320   5.870  0.1678 -5.0700 -1.7933
  691MOL0     H93243   8.986  11.269   6.112 -0.1671 -0.2368  0.1407
  691MOL0     H93244   9.157  11.258   6.126 -0.8167 -0.7247  0.5158
  691MOL0     H93245   8.803  11.143   6.092  0.8124  4.4968 -2.4391
  691MOL0     H93246   8.609  11.061   5.961 -2.0101 -2.4058 -3.9675
  691MOL0     H93247   8.338  10.750   5.904  1.0134  0.3634  0.3326
  691MOL0     H93248   8.146  10.635   5.754 -0.4281  0.0099  0.4971
  691MOL0     H93249   7.974  10.901   5.468  1.5676  2.5868 -4.0574
  691MOL0     H93250   8.077  10.825   5.342 -0.4316 -0.6381 -0.3641
  691MOL0     H93251   7.791  10.719   5.412 -0.9627 -1.5856 -2.0066
  691MOL0     H93252   7.848  10.782   5.258 -0.2673 -1.6205 -1.6268
  691MOL0     H93253   8.022  10.574   5.285 -1.3711  0.3992 -2.8473
  691MOL0     H93254   7.922  10.544   5.415  0.2146  1.4756  1.9697
  691MOL0     H93255   7.822  10.582   5.128  0.2717  2.3797  1.5270
  691MOL0     H93256   7.719  10.543   5.266  1.4392 -0.6619  1.0357
  691MOL0     H93257   7.977  10.378   5.205  0.9859  0.0116  3.0869
  691MOL0     H93258   7.829  10.323   5.124  0.0448 -0.4254  0.5791
  691MOL0     H93259   7.864  10.318   5.422 -2.3764  0.9456 -0.0781
  691MOL0     H93260   7.717  10.288   5.338  0.2858  0.0396  0.0540
  691MOL0     H93261   7.830  10.079   5.396 -2.9158  0.1271 -2.0678
  691MOL0     H93262   7.982  10.138   5.315 -0.4169  0.8481 -0.0550
  691MOL0     H93263   7.710  10.084   5.178 -0.5031 -0.7607  2.0564
  691MOL0     H93264   7.861  10.126   5.103  0.0464  3.1713  2.3281
  691MOL0     H93265   8.195  10.965   5.473 -1.5375 -1.3089 -1.0657
  691MOL0     H93266   8.373  11.044   5.606  1.0011 -0.4833  0.9576
  691MOL0     H93267   8.871  10.836   5.717  2.5436  1.5719 -0.4993
  691MOL0     H93268   9.051  10.935   5.803 -1.1847 -0.2351 -2.5725
  691MOL0     H93269   9.343  11.486   6.368 -0.0138 -2.8834 -0.0436
  691MOL0     H93270   9.169  11.315   6.383  3.5192 -0.4171 -4.0975
  691MOL0     H93271   8.630  11.359   6.368  1.5940 -0.2783  0.3009
  691MOL0     H93272   8.441  11.210   6.322 -0.3350  0.6364  2.9514
  691MOL0     H93273   8.467  10.908   6.109  0.7390  0.9197  0.1839
  691MOL0     H93274   8.384  11.057   6.119  0.5621 -0.3169  0.4945
  691MOL0     H93275   8.212  10.912   6.061  1.2678  1.3545  0.1828
  691MOL0     H93276   8.192  10.936   6.238  0.0907  1.3165  0.3476
  691MOL0     H93277   8.297  10.706   6.274 -2.7957  0.9221  0.4953
  691MOL0     H93278   8.324  10.702   6.097  0.0028  0.1016 -1.6193
  691MOL0     H93279   8.045  10.692   6.215  1.8473 -1.1334  0.2474
  691MOL0     H93280   8.079  10.670   6.051 -3.3104  0.2320  1.4820
  691MOL0     H93281   8.122  10.291   6.254  3.2775 -0.6311 -1.5018
  691MOL0     H93282   8.664  10.855   6.301 -0.7441 -0.8273  0.2678
  691MOL0     H93283   8.951  10.969   6.487  2.3556 -0.1436 -0.2464
  691MOL0     H93284   8.926  10.871   6.347 -0.4284 -0.3419  1.6422
  691MOL0     H93285   8.986  11.026   6.316 -0.7829 -2.3174 -2.6617
  692MOL0     O93286   6.489   6.947   1.358  0.4560 -0.1447  0.5039
  692MOL0     C93287   6.524   6.950   1.473  0.7497  0.6009 -0.6330
  692MOL0     O93288   6.586   7.054   1.531 -0.2175  0.0963 -0.8472
  692MOL0     C93289   6.605   7.168   1.457  0.4880  0.5605 -0.7902
  692MOL0     C93290   6.524   7.278   1.493  0.0855 -0.5601  0.6385
  692MOL0     C93291   6.537   7.393   1.423 -0.0511 -0.9398 -0.4112
  692MOL0     C93292   6.612   7.400   1.306 -0.7976  0.3618  0.2401
  692MOL0     O93293   6.603   7.518   1.241 -0.2506  0.1215 -0.3006
  692MOL0     C93294   6.724   7.566   1.181 -1.1429  0.1648  0.7295
  692MOL0     C93295   6.720   7.718   1.127 -0.4050 -0.0144 -0.9102
  692MOL0     C93296   6.629   7.744   1.011  1.2514  0.1115 -0.6885
  692MOL0     C93297   6.478   7.747   1.037 -0.5344  0.1912 -0.2019
  692MOL0     C93298   6.410   7.848   0.935 -0.1971  0.7445  0.9053
  692MOL0     C93299   6.259   7.851   0.968  0.9727 -0.3021 -0.6393
  692MOL0     C93300   6.177   7.955   0.899  0.3159  0.1906 -0.0707
  692MOL0     C93301   6.026   7.920   0.929 -0.3803 -0.1192 -0.9424
  692MOL0     N93302   5.953   8.037   0.875  0.1237  0.3345 -0.1291
  692MOL0     C93303   5.922   8.050   0.743  0.4836 -0.4296 -0.2016
  692MOL0     C93304   5.833   8.149   0.748  0.2478 -0.5402  0.6884
  692MOL0     C93305   5.757   8.202   0.623  0.2576 -0.0365  0.3827
  692MOL0     C93306   5.602   8.191   0.645 -0.2997 -0.8639  0.3223
  692MOL0     C93307   5.524   8.183   0.515 -0.6432  0.8895  0.2492
  692MOL0     C93308   5.378   8.133   0.547 -1.0511  0.3542 -0.5332
  692MOL0     O93309   5.310   8.125   0.427 -0.5414 -0.2892  0.5215
  692MOL0     C93310   5.322   8.016   0.345  0.2201  0.5740 -0.2713
  692MOL0     C93311   5.263   8.035   0.213  0.0575  0.1916 -0.4476
  692MOL0     C93312   5.257   7.937   0.117 -0.5435 -0.0546  0.7968
  692MOL0     C93313   5.323   7.817   0.128  0.1386  0.7956 -0.3607
  692MOL0     C93314   5.323   7.709   0.024 -0.2265  0.0186  0.0425
  692MOL0     O93315   5.227   7.710  -0.079  0.1391 -0.8116 -0.3989
  692MOL0     C93316   5.239   7.617  -0.175  0.6366 -0.0357  0.2840
  692MOL0     C93317   5.165   7.503  -0.178 -0.0154  0.1672 -0.5913
  692MOL0     C93318   5.172   7.414  -0.283  0.7053  0.1087  0.0078
  692MOL0     C93319   5.252   7.436  -0.393  0.2481 -0.7237  0.0985
  692MOL0     O93320   5.267   7.361  -0.508  0.6333  0.1750 -0.3463
  692MOL0     C93321   5.180   7.246  -0.527  0.1700 -0.2103 -0.5084
  692MOL0     C93322   5.229   7.164  -0.646 -0.4136 -0.6281  0.0293
  692MOL0     C93323   5.318   7.038  -0.612 -0.2415 -0.2727 -0.5742
  692MOL0     C93324   5.443   7.070  -0.515  0.7635 -0.9299 -0.5480
  692MOL0     C93325   5.513   6.930  -0.481  0.4341  1.0567  0.2707
  692MOL0     C93326   5.416   6.814  -0.447 -0.1505  0.1461 -0.3805
  692MOL0     C93327   5.480   6.685  -0.389 -0.4384 -0.5817 -0.0935
  692MOL0     C93328   5.396   6.576  -0.348  0.4690 -0.5649 -0.9776
  692MOL0    Cl93329   5.268   6.628  -0.221  0.0479  0.1011  0.2147
  692MOL0     C93330   5.328   7.555  -0.394 -0.5207  0.7757  1.0182
  692MOL0     C93331   5.318   7.646  -0.293 -0.1240 -0.3736  0.1829
  692MOL0     O93332   5.396   7.610   0.045  0.3527  0.0984  0.1995
  692MOL0     C93333   5.384   7.808   0.255 -0.2285  0.2618  0.7071
  692MOL0     C93334   5.379   7.890   0.366  0.6898  0.9092 -1.1941
  692MOL0     N93335   5.807   8.196   0.873  0.6368 -0.3153  0.1384
  692MOL0     N93336   5.884   8.124   0.951  0.0080 -0.5705 -0.6004
  692MOL0     C93337   6.691   7.287   1.272 -0.8804 -0.2740  0.6729
  692MOL0     C93338   6.691   7.182   1.350 -0.8469 -0.0729  1.1244
  692MOL0     C93339   6.490   6.829   1.552  0.1523  1.1452  0.4216
  692MOL0     C93340   6.408   6.724   1.502  0.9872  0.2372 -0.2918
  692MOL0     C93341   6.379   6.610   1.573  1.0324 -0.8606  0.8208
  692MOL0     C93342   6.415   6.593   1.707 -0.1921 -0.0842  0.4660
  692MOL0     O93343   6.388   6.479   1.778 -0.5769 -0.3071 -0.3618
  692MOL0     C93344   6.329   6.360   1.720 -1.1389  0.2511 -1.8717
  692MOL0     C93345   6.319   6.243   1.816  0.1104 -0.6956  0.5863
  692MOL0     C93346   6.196   6.261   1.910 -0.0784  1.5332 -0.0240
  692MOL0     C93347   6.189   6.391   1.977 -0.0791 -1.1261  0.0273
  692MOL0     C93348   6.268   6.387   2.095  0.7424  0.0960  0.3555
  692MOL0     C93349   6.338   6.414   2.191  0.1095 -0.0815  0.8941
  692MOL0     C93350   6.496   6.694   1.764  0.0567  0.2531  0.6844
  692MOL0     C93351   6.537   6.807   1.686 -0.0709 -0.1480  0.2765
  692MOL0     C93352   6.603   6.917   1.767 -0.0356  0.6406  0.1681
  692MOL0     H93353   6.461   7.283   1.581  0.7513  3.6352  1.0884
  692MOL0     H93354   6.491   7.490   1.443  0.4447 -0.0536 -3.0845
  692MOL0     H93355   6.800   7.551   1.258  0.8314 -3.4850 -1.6186
  692MOL0     H93356   6.753   7.502   1.097 -1.6342 -0.2095  0.8371
  692MOL0     H93357   6.821   7.744   1.093 -0.5700  1.5314 -0.3259
  692MOL0     H93358   6.691   7.784   1.210  0.6607  0.1963 -0.6805
  692MOL0     H93359   6.655   7.671   0.933 -0.2141 -1.1287 -0.0689
  692MOL0     H93360   6.656   7.846   0.984  0.7689  0.7858  1.2285
  692MOL0     H93361   6.448   7.643   1.031  2.5753 -0.7854 -0.8187
  692MOL0     H93362   6.456   7.797   1.132  3.2114  2.0208 -0.0748
  692MOL0     H93363   6.446   7.949   0.960 -1.3297  1.1527  0.9602
  692MOL0     H93364   6.424   7.814   0.833 -2.2028  0.4361  0.6840
  692MOL0     H93365   6.215   7.752   0.951 -4.1896  0.9567  2.8664
  692MOL0     H93366   6.255   7.862   1.077  3.3412 -1.3890 -0.3731
  692MOL0     H93367   6.202   7.952   0.793  0.7913  1.3730 -0.0131
  692MOL0     H93368   6.198   8.055   0.938  0.4366 -0.5267  1.8213
  692MOL0     H93369   5.986   7.826   0.890  2.2750 -1.5328 -0.4502
  692MOL0     H93370   6.017   7.917   1.038  0.4138  2.0140 -0.7800
  692MOL0     H93371   5.960   7.985   0.665  2.4986  0.9954 -0.4911
  692MOL0     H93372   5.776   8.310   0.610 -2.4894  0.7754  2.2682
  692MOL0     H93373   5.790   8.164   0.526 -0.0803  0.3529  0.1082
  692MOL0     H93374   5.582   8.108   0.713  0.5546 -1.2163  0.1587
  692MOL0     H93375   5.563   8.276   0.701  0.5912 -0.9390  1.0797
  692MOL0     H93376   5.568   8.099   0.459  1.6191  1.1204  1.5419
  692MOL0     H93377   5.519   8.273   0.454 -1.4213  0.6894  0.0056
  692MOL0     H93378   5.330   8.208   0.610 -1.4388 -1.1768  1.0726
  692MOL0     H93379   5.384   8.036   0.597 -0.7182  0.9206  0.5539
  692MOL0     H93380   5.211   8.126   0.186 -0.9769 -0.8088 -1.9801
  692MOL0     H93381   5.204   7.965   0.026  1.8723 -0.0276 -0.6857
  692MOL0     H93382   5.110   7.478  -0.088  3.1711 -2.2157  0.8550
  692MOL0     H93383   5.103   7.332  -0.298  1.5765 -0.7039  0.3571
  692MOL0     H93384   5.187   7.182  -0.439  0.8864 -1.3893 -1.3940
  692MOL0     H93385   5.082   7.295  -0.535  0.3821  0.6929  1.8189
  692MOL0     H93386   5.139   7.125  -0.695  0.4101 -3.3256  0.4973
  692MOL0     H93387   5.289   7.231  -0.708  0.1625 -1.1036  0.0679
  692MOL0     H93388   5.251   6.965  -0.565 -0.7315 -0.6908 -1.8578
  692MOL0     H93389   5.339   6.998  -0.712  1.7565 -1.4341  0.2578
  692MOL0     H93390   5.407   7.123  -0.426 -0.6859 -2.2737 -0.3065
  692MOL0     H93391   5.507   7.140  -0.570 -4.2675  2.4305 -2.8942
  692MOL0     H93392   5.585   6.942  -0.399 -0.4775 -1.4026  1.5422
  692MOL0     H93393   5.575   6.889  -0.561 -0.9220 -3.0457  1.0532
  692MOL0     H93394   5.342   6.850  -0.375  1.7707  0.9264  1.2927
  692MOL0     H93395   5.360   6.778  -0.534  0.6863 -0.1021 -0.8210
  692MOL0     H93396   5.553   6.715  -0.313  0.8503 -1.3395 -0.9889
  692MOL0     H93397   5.537   6.647  -0.475 -0.6684  0.7037 -0.8502
  692MOL0     H93398   5.354   6.536  -0.441  2.3513 -0.5437 -1.8996
  692MOL0     H93399   5.458   6.503  -0.295  1.7319  0.2338 -1.3040
  692MOL0     H93400   5.394   7.554  -0.479 -3.1328 -1.6774 -1.2108
  692MOL0     H93401   5.382   7.733  -0.295 -1.2875  0.5499 -2.6014
  692MOL0     H93402   5.454   7.727   0.277  0.4936  1.2796  2.3957
  692MOL0     H93403   5.425   7.869   0.462  0.9939  3.8440 -0.5872
  692MOL0     H93404   6.753   7.283   1.183  0.2691 -1.0291  1.4858
  692MOL0     H93405   6.750   7.101   1.309 -1.3683  0.2060 -0.2067
  692MOL0     H93406   6.379   6.737   1.399  0.5902 -1.9587 -0.4984
  692MOL0     H93407   6.324   6.546   1.505 -1.4221  2.6197 -0.7269
  692MOL0     H93408   6.393   6.331   1.636 -1.4620  0.7450 -2.2940
  692MOL0     H93409   6.235   6.383   1.668 -0.5262  0.6328 -2.8229
  692MOL0     H93410   6.412   6.218   1.868 -0.7453 -1.3576  1.8448
  692MOL0     H93411   6.289   6.150   1.767 -1.2552 -0.2732  0.5772
  692MOL0     H93412   6.193   6.178   1.982  3.8093  0.5012 -0.8330
  692MOL0     H93413   6.107   6.261   1.846 -0.8064 -0.0954  0.9340
  692MOL0     H93414   6.202   6.487   1.925 -7.4327  0.3537 -0.1727
  692MOL0     H93415   6.086   6.416   2.005  0.4682  3.6912 -1.3583
  692MOL0     H93416   6.403   6.438   2.274 -1.4748  4.9752  1.0365
  692MOL0     H93417   6.524   6.689   1.869  0.6676  0.5570  0.5423
  692MOL0     H93418   6.539   7.005   1.755 -1.0336 -0.2551 -1.4598
  692MOL0     H93419   6.619   6.888   1.871  1.6539 -1.3013 -0.5745
  692MOL0     H93420   6.699   6.941   1.721 -0.9626  0.6147 -1.9338
  693MOL0     O93421   3.389   6.812   9.770  0.5678 -0.2421  0.9592
  693MOL0     C93422   3.315   6.754   9.850 -0.9490  0.6794 -0.1841
  693MOL0     O93423   3.178   6.757   9.829  1.0897  0.0049 -0.7587
  693MOL0     C93424   3.121   6.832   9.732 -0.1205 -0.9543 -0.1590
  693MOL0     C93425   3.075   6.963   9.765  0.2020  0.4709 -0.5013
  693MOL0     C93426   3.000   7.025   9.659  0.6027 -0.1169  0.9273
  693MOL0     C93427   2.969   6.975   9.534  0.2683  0.2759 -0.3026
  693MOL0     O93428   2.894   7.054   9.450 -0.1446  0.0445 -0.8297
  693MOL0     C93429   2.846   7.010   9.317 -0.4924  0.4911 -0.1271
  693MOL0     C93430   2.772   7.125   9.244  0.0517 -0.1357 -0.2285
  693MOL0     C93431   2.856   7.238   9.186  0.1556  0.2854 -0.2534
  693MOL0     C93432   2.776   7.337   9.097  0.0329  0.3992 -0.3195
  693MOL0     C93433   2.641   7.385   9.152 -0.3722 -0.7317  0.1167
  693MOL0     C93434   2.596   7.506   9.058  0.0997  1.2545  0.3668
  693MOL0     C93435   2.489   7.586   9.128  0.1351  0.0504 -0.0125
  693MOL0     C93436   2.345   7.545   9.097 -0.0279  0.4334 -0.4043
  693MOL0     N93437   2.301   7.417   9.148  0.7420  0.4255 -0.8558
  693MOL0     C93438   2.264   7.388   9.280 -0.1547  0.3157 -0.7567
  693MOL0     C93439   2.243   7.253   9.270 -0.0077 -0.4134  0.9318
  693MOL0     C93440   2.198   7.159   9.384  0.2765  1.0297 -0.1672
  693MOL0     C93441   2.322   7.083   9.444  0.4651 -0.2858 -0.3702
  693MOL0     C93442   2.344   6.950   9.378 -0.3483  0.0406  0.1943
  693MOL0     C93443   2.464   6.868   9.435  0.1128  0.4107  0.0946
  693MOL0     O93444   2.440   6.842   9.567 -0.3247  0.3010 -0.3676
  693MOL0     C93445   2.528   6.772   9.644 -0.5951 -0.9546 -1.1313
  693MOL0     C93446   2.507   6.779   9.783  0.7604  0.2085  0.6426
  693MOL0     C93447   2.593   6.708   9.869 -0.6026 -0.7932 -0.0320
  693MOL0     C93448   2.717   6.645   9.826  0.4145 -0.9488  1.4190
  693MOL0     C93449   2.813   6.598   9.926  0.3407 -0.6593  1.2012
  693MOL0     O93450   2.778   6.613  10.059 -0.7347  0.8235  0.5060
  693MOL0     C93451   2.863   6.562  10.153  1.1384 -0.7384 -0.3518
  693MOL0     C93452   2.896   6.425  10.152  0.5470  0.8060  0.2489
  693MOL0     C93453   2.967   6.381  10.268 -0.9398  1.0756 -0.6375
  693MOL0     C93454   3.019   6.466  10.367  0.0865 -0.7049 -0.7678
  693MOL0     O93455   3.089   6.441  10.484 -0.0703  0.6816  0.1090
  693MOL0     C93456   3.104   6.301  10.539 -0.1163  0.0247  0.7027
  693MOL0     C93457   3.014   6.257  10.653 -0.4522 -0.5507 -0.3572
  693MOL0     C93458   3.038   6.351  10.778  0.2211  0.9925  0.5409
  693MOL0     C93459   2.986   6.498  10.768  0.3604 -0.2313 -0.7630
  693MOL0     C93460   2.985   6.581  10.899 -0.6208 -1.1023 -0.0843
  693MOL0     C93461   2.911   6.521  11.026  0.0613  0.4191  0.5950
  693MOL0     C93462   2.771   6.462  11.017  0.5275  0.8581 -0.4812
  693MOL0     C93463   2.706   6.420  11.149 -0.3660 -0.5614 -0.7608
  693MOL0    Cl93464   2.796   6.480  11.282 -0.2348  0.3440 -0.1436
  693MOL0     C93465   2.993   6.602  10.350  0.2961  0.2841 -0.6900
  693MOL0     C93466   2.920   6.647  10.249 -0.6698  0.4628 -0.7113
  693MOL0     O93467   2.918   6.559   9.882 -0.2101  0.3709 -0.0006
  693MOL0     C93468   2.738   6.650   9.683 -0.4640 -0.3465 -0.0885
  693MOL0     C93469   2.645   6.709   9.598 -0.2340  0.1287  0.1868
  693MOL0     N93470   2.275   7.209   9.143  0.4941 -0.0542  0.1513
  693MOL0     N93471   2.301   7.308   9.072  0.2683 -1.0104  0.1612
  693MOL0     C93472   3.016   6.850   9.507  0.0497  0.2397  0.2959
  693MOL0     C93473   3.087   6.777   9.608  0.4658  0.5350  0.1410
  693MOL0     C93474   3.367   6.654   9.952 -0.5672 -0.0538  0.7269
  693MOL0     C93475   3.280   6.567  10.003 -0.1223  0.1259 -0.0012
  693MOL0     C93476   3.319   6.470  10.098 -0.5281  0.2947  0.7558
  693MOL0     C93477   3.456   6.448  10.120  0.4527 -0.2350 -0.1050
  693MOL0     O93478   3.493   6.353  10.212 -0.7824  0.1922  0.6129
  693MOL0     C93479   3.627   6.339  10.258 -0.2263 -0.0262 -0.2214
  693MOL0     C93480   3.616   6.247  10.379 -0.1239  0.2216  0.1009
  693MOL0     C93481   3.534   6.306  10.502  0.2627  0.1002  0.7771
  693MOL0     C93482   3.554   6.220  10.631  0.7595  0.2670 -0.1567
  693MOL0     C93483   3.464   6.249  10.740 -1.6967  0.1405 -0.0917
  693MOL0     C93484   3.399   6.283  10.842  0.1865 -0.5532 -0.5535
  693MOL0     C93485   3.553   6.536  10.062  0.5159  0.3533  0.5675
  693MOL0     C93486   3.507   6.634   9.972 -1.1341 -0.7472 -0.2372
  693MOL0     C93487   3.615   6.719   9.917  0.8498 -0.5925  0.5352
  693MOL0     H93488   3.100   6.997   9.865 -3.8869 -0.6049  1.1030
  693MOL0     H93489   2.968   7.128   9.671 -1.9202 -0.9573  2.0336
  693MOL0     H93490   2.928   6.996   9.246 -1.0201  1.4998 -0.9723
  693MOL0     H93491   2.788   6.917   9.322 -0.4552  0.5337  3.1186
  693MOL0     H93492   2.698   7.170   9.311 -1.0647  0.7654 -1.9946
  693MOL0     H93493   2.702   7.091   9.167 -1.7997 -0.2918  1.4406
  693MOL0     H93494   2.935   7.198   9.122  0.0494 -0.5990  0.1600
  693MOL0     H93495   2.900   7.295   9.270 -0.8939 -0.1481  0.6083
  693MOL0     H93496   2.841   7.420   9.070  2.1663 -1.0763 -0.0045
  693MOL0     H93497   2.743   7.278   9.011 -0.3576 -0.3129  0.3009
  693MOL0     H93498   2.562   7.309   9.156  1.0613 -2.3564 -0.8417
  693MOL0     H93499   2.658   7.420   9.254  1.9662 -1.6274  0.0992
  693MOL0     H93500   2.681   7.572   9.039  0.8264  0.6981  1.6064
  693MOL0     H93501   2.571   7.469   8.959  2.3305  1.1091 -0.1899
  693MOL0     H93502   2.506   7.684   9.082  2.4572  0.0489  0.7132
  693MOL0     H93503   2.498   7.587   9.237  2.4238  2.4061 -0.1339
  693MOL0     H93504   2.285   7.624   9.143 -2.8109 -1.8770  0.2286
  693MOL0     H93505   2.330   7.555   8.989  3.5933  0.0155 -1.0863
  693MOL0     H93506   2.248   7.453   9.365 -0.7299  1.0302 -1.3944
  693MOL0     H93507   2.152   7.217   9.465  2.8321  0.9286  1.4755
  693MOL0     H93508   2.124   7.087   9.348 -0.7448  3.6872 -4.0199
  693MOL0     H93509   2.409   7.148   9.437 -0.4576  1.4574  2.4749
  693MOL0     H93510   2.308   7.061   9.551  1.8299 -1.5049 -0.4239
  693MOL0     H93511   2.360   6.953   9.269  0.2268 -1.9987  0.1727
  693MOL0     H93512   2.251   6.900   9.406  0.1540  0.2632  2.3845
  693MOL0     H93513   2.552   6.933   9.434  0.9178 -0.5710 -2.7981
  693MOL0     H93514   2.494   6.774   9.386 -3.7124 -1.1109  0.3295
  693MOL0     H93515   2.428   6.846   9.815 -2.6011 -1.6210 -2.9309
  693MOL0     H93516   2.564   6.719   9.973  0.6581 -1.7268  0.4478
  693MOL0     H93517   2.873   6.345  10.082  0.4813  1.0148  0.0318
  693MOL0     H93518   2.998   6.278  10.255  0.3567  1.0819  1.9102
  693MOL0     H93519   3.097   6.231  10.455 -1.9398  1.4478 -0.3937
  693MOL0     H93520   3.206   6.290  10.575 -0.1294 -0.5160  0.5908
  693MOL0     H93521   2.910   6.252  10.621 -0.3739  0.5185 -0.8507
  693MOL0     H93522   3.050   6.156  10.673 -0.2372 -0.4927 -0.4452
  693MOL0     H93523   2.981   6.296  10.853 -2.1593  1.6823 -0.6768
  693MOL0     H93524   3.146   6.358  10.792  0.1215  4.0910  0.3228
  693MOL0     H93525   2.888   6.492  10.719 -0.0887  1.6132 -0.1496
  693MOL0     H93526   3.047   6.557  10.699 -0.0041  1.4543  0.2996
  693MOL0     H93527   2.945   6.680  10.878  0.2475 -0.8044 -0.3838
  693MOL0     H93528   3.090   6.600  10.924 -0.4518  1.3393 -2.2725
  693MOL0     H93529   2.976   6.445  11.069  0.0241  0.8537  1.4371
  693MOL0     H93530   2.915   6.606  11.095 -3.0332  0.4678  0.8440
  693MOL0     H93531   2.761   6.376  10.950 -2.0764 -0.6812  1.6781
  693MOL0     H93532   2.698   6.539  10.987 -1.3743  0.5466  2.8079
  693MOL0     H93533   2.601   6.444  11.163  0.5044  1.7659  3.5407
  693MOL0     H93534   2.710   6.311  11.161 -0.0511 -0.2724  3.0668
  693MOL0     H93535   3.027   6.680  10.416  1.5819 -1.1340  0.3882
  693MOL0     H93536   2.896   6.752  10.233 -0.5352  0.4852 -0.7670
  693MOL0     H93537   2.829   6.597   9.657 -0.0483 -0.7262  1.9229
  693MOL0     H93538   2.669   6.715   9.493 -0.1784 -1.0060  0.1177
  693MOL0     H93539   2.985   6.797   9.418 -0.1564  0.4685  0.2324
  693MOL0     H93540   3.115   6.675   9.584  2.1321  1.2988 -1.2943
  693MOL0     H93541   3.175   6.588   9.990  0.1517  3.4433  2.0001
  693MOL0     H93542   3.253   6.403  10.151 -1.9329  2.9573  2.5745
  693MOL0     H93543   3.683   6.430  10.285  0.8038 -0.5708 -0.4837
  693MOL0     H93544   3.686   6.283  10.185  0.2787  2.0658 -1.5269
  693MOL0     H93545   3.713   6.228  10.424 -0.6200 -0.2619  0.9804
  693MOL0     H93546   3.566   6.159  10.338 -1.8623  1.6926 -1.1453
  693MOL0     H93547   3.427   6.309  10.477  0.0710 -0.5912  1.4776
  693MOL0     H93548   3.559   6.412  10.514 -1.6183  0.5289  1.2458
  693MOL0     H93549   3.544   6.116  10.599  1.0089 -0.1297  1.0007
  693MOL0     H93550   3.656   6.234  10.668  0.5050  1.7712  0.0461
  693MOL0     H93551   3.351   6.314  10.933  1.9631  0.2762  0.1486
  693MOL0     H93552   3.659   6.517  10.071  0.4724 -3.0980 -3.3862
  693MOL0     H93553   3.709   6.685   9.960 -0.0017 -1.3177  1.8610
  693MOL0     H93554   3.632   6.724   9.809 -2.5746  2.5380 -0.0928
  693MOL0     H93555   3.607   6.825   9.943  3.8882  0.3660 -1.7619
  694MOL0     O93556   6.159   3.065   9.876  0.5307  0.0905  0.2438
  694MOL0     C93557   6.253   2.988   9.899  0.2559 -0.3305  0.1303
  694MOL0     O93558   6.313   2.917   9.802  0.7131 -0.3197 -0.2627
  694MOL0     C93559   6.274   2.920   9.675 -0.0556  0.2662 -0.1089
  694MOL0     C93560   6.146   2.884   9.640  0.0001  0.7178 -0.0997
  694MOL0     C93561   6.103   2.893   9.506  0.3898 -0.0656 -0.1226
  694MOL0     C93562   6.188   2.930   9.404 -1.0861  0.3895 -0.6016
  694MOL0     O93563   6.153   2.934   9.269 -0.3938 -0.3253  0.2437
  694MOL0     C93564   6.038   2.859   9.214 -0.8363 -0.3785 -0.2571
  694MOL0     C93565   6.086   2.726   9.175 -0.1305  0.3427  0.6062
  694MOL0     C93566   6.055   2.624   9.284  0.3691  0.5628  0.0115
  694MOL0     C93567   6.109   2.483   9.242 -0.1151 -0.4180 -0.4845
  694MOL0     C93568   6.077   2.387   9.351  0.5577  0.0225 -0.4840
  694MOL0     C93569   6.098   2.244   9.300  0.8529 -0.8060  0.3887
  694MOL0     C93570   6.105   2.147   9.424 -1.0611  0.8671  0.0326
  694MOL0     C93571   6.064   2.011   9.369  0.0259  0.4383  0.7285
  694MOL0     N93572   6.171   1.928   9.315 -0.3208  0.0898 -0.4607
  694MOL0     C93573   6.186   1.893   9.178  0.4713  0.0547  0.5393
  694MOL0     C93574   6.246   1.769   9.177  0.2026  0.1587 -0.3450
  694MOL0     C93575   6.302   1.696   9.062 -0.3057  0.4541  0.5531
  694MOL0     C93576   6.419   1.601   9.083 -0.0881 -0.2213 -0.1624
  694MOL0     C93577   6.373   1.461   9.140 -0.5559 -0.0295 -0.3330
  694MOL0     C93578   6.500   1.376   9.169  0.9094 -0.1225  0.3954
  694MOL0     O93579   6.512   1.277   9.068 -0.0096  0.7595 -0.6708
  694MOL0     C93580   6.606   1.178   9.088 -0.3294 -0.2504  0.0909
  694MOL0     C93581   6.594   1.057   9.029 -0.4201  0.2804 -0.2740
  694MOL0     C93582   6.681   0.948   9.060  1.0189 -0.4697 -2.2863
  694MOL0     C93583   6.793   0.970   9.140  0.4132  0.1503 -0.5152
  694MOL0     C93584   6.885   0.856   9.183 -0.2859 -1.2739  0.2826
  694MOL0     O93585   6.861   0.746   9.108 -0.4463  0.5613  0.1900
  694MOL0     C93586   6.967   0.648   9.104  1.1828 -0.2087  0.7011
  694MOL0     C93587   6.942   0.510   9.068 -0.3009  0.0342 -0.5533
  694MOL0     C93588   7.033   0.413   9.042 -0.5469  1.0470  0.2978
  694MOL0     C93589   7.166   0.452   9.057 -0.3488  0.5530  0.4274
  694MOL0     O93590   7.274   0.373   9.050 -0.3205 -0.3118 -0.6024
  694MOL0     C93591   7.261   0.257   8.958  0.0158  0.4954 -0.8097
  694MOL0     C93592   7.229   0.121   9.024  1.0216 -0.4078 -0.1134
  694MOL0     C93593   7.127   0.041   8.947 -0.5034  0.4942 -0.2308
  694MOL0     C93594   7.130  -0.108   8.969 -0.1313  0.2663  0.7072
  694MOL0     C93595   7.014  -0.173   8.908 -0.2009  1.6872  0.3692
  694MOL0     C93596   7.031  -0.327   8.894 -0.5619  0.3351  0.9272
  694MOL0     C93597   6.916  -0.419   8.852  0.6182  0.4792  0.2235
  694MOL0     C93598   6.917  -0.554   8.929 -0.0117 -0.8194  0.5917
  694MOL0    Cl93599   7.060  -0.651   8.868 -0.2425 -0.3486  0.0996
  694MOL0     C93600   7.200   0.582   9.096 -0.0911 -0.2895 -0.3596
  694MOL0     C93601   7.102   0.670   9.123  0.1777  0.2977 -0.2779
  694MOL0     O93602   6.960   0.873   9.279 -0.1172  0.4359  0.2014
  694MOL0     C93603   6.802   1.096   9.201 -0.4198  1.5061 -0.8524
  694MOL0     C93604   6.716   1.189   9.174 -0.8017 -1.4849  0.5691
  694MOL0     N93605   6.279   1.738   9.307 -0.7732 -0.4416  0.4629
  694MOL0     N93606   6.230   1.824   9.386  0.4750 -0.9351  0.4156
  694MOL0     C93607   6.320   2.976   9.444 -0.5107 -0.1722 -0.1485
  694MOL0     C93608   6.367   2.940   9.574 -0.5845  1.4601  0.8512
  694MOL0     C93609   6.300   2.968  10.033  0.0736 -0.4913  0.0104
  694MOL0     C93610   6.361   2.842  10.058  0.2391 -0.8020 -0.2026
  694MOL0     C93611   6.416   2.814  10.181 -0.1112 -1.0671 -0.0115
  694MOL0     C93612   6.393   2.901  10.290 -0.5305  0.1198 -0.2333
  694MOL0     O93613   6.434   2.864  10.414  0.7091  1.3807 -0.2352
  694MOL0     C93614   6.549   2.935  10.459 -0.4599  0.3944  0.8475
  694MOL0     C93615   6.680   2.858  10.430  1.0843 -0.2560 -0.4593
  694MOL0     C93616   6.673   2.701  10.454  1.2328 -0.7375  1.1384
  694MOL0     C93617   6.818   2.646  10.407  0.0539 -0.0705 -0.5251
  694MOL0     C93618   6.836   2.658  10.261  0.3091 -0.5408  0.1781
  694MOL0     C93619   6.845   2.660  10.138 -0.5208 -0.3937 -0.8004
  694MOL0     C93620   6.310   3.010  10.273  1.3966  0.0612 -0.2001
  694MOL0     C93621   6.280   3.053  10.142  0.0994  0.4440 -1.1726
  694MOL0     C93622   6.211   3.189  10.133 -0.4720 -0.1460 -0.2044
  694MOL0     H93623   6.079   2.853   9.720  2.2805  2.0465  2.4823
  694MOL0     H93624   5.996   2.875   9.498 -0.1002  1.0282  2.7508
  694MOL0     H93625   5.949   2.857   9.278 -0.9752  3.9976  0.0196
  694MOL0     H93626   6.008   2.914   9.124 -0.0983  2.3475  1.0397
  694MOL0     H93627   6.195   2.719   9.164 -0.4169 -3.2799 -1.5138
  694MOL0     H93628   6.037   2.687   9.085  2.2790  1.0387 -1.1088
  694MOL0     H93629   5.949   2.604   9.299  0.5438 -2.6577 -1.9866
  694MOL0     H93630   6.104   2.664   9.373  0.2187  0.5350  0.1067
  694MOL0     H93631   6.078   2.441   9.146  0.8640  1.1078 -1.5114
  694MOL0     H93632   6.217   2.476   9.249  0.0628  1.3853 -0.7674
  694MOL0     H93633   6.132   2.404   9.444 -1.6778  1.1746  0.7254
  694MOL0     H93634   5.973   2.397   9.385  0.9207 -3.1387  2.0875
  694MOL0     H93635   6.024   2.227   9.221  1.3726  1.5265 -0.7001
  694MOL0     H93636   6.200   2.250   9.261  0.1240 -1.5297 -1.7564
  694MOL0     H93637   6.043   2.179   9.508 -0.6606 -2.5554  1.7980
  694MOL0     H93638   6.208   2.137   9.460 -2.1215 -0.7813  2.9090
  694MOL0     H93639   6.016   1.956   9.451 -2.5986  1.0907 -0.2995
  694MOL0     H93640   5.987   2.020   9.293 -1.3459 -1.1444  1.8518
  694MOL0     H93641   6.158   1.943   9.086 -2.9706  2.6845  2.7473
  694MOL0     H93642   6.218   1.653   9.006 -1.3757  3.5054 -0.3813
  694MOL0     H93643   6.340   1.777   8.999 -1.5681  1.1461  0.6458
  694MOL0     H93644   6.464   1.590   8.984 -1.3305  0.5291 -0.8471
  694MOL0     H93645   6.499   1.636   9.148 -0.5288  0.8449 -0.1612
  694MOL0     H93646   6.310   1.416   9.063 -0.5965  1.1453 -1.0102
  694MOL0     H93647   6.314   1.477   9.230 -0.3019  2.0635 -0.4776
  694MOL0     H93648   6.481   1.320   9.262  2.2262  0.1153  0.8326
  694MOL0     H93649   6.588   1.440   9.171  1.8415 -1.0503 -3.3010
  694MOL0     H93650   6.515   1.032   8.959 -0.5415 -3.3967  0.9484
  694MOL0     H93651   6.653   0.849   9.026 -5.3924 -0.1443  0.6036
  694MOL0     H93652   6.836   0.493   9.051 -0.6398  1.7096 -0.2726
  694MOL0     H93653   7.005   0.315   9.006 -1.1132  1.8314 -1.4851
  694MOL0     H93654   7.190   0.275   8.877  1.6439 -1.2083 -2.7377
  694MOL0     H93655   7.354   0.239   8.904 -1.4779 -1.7353 -2.8452
  694MOL0     H93656   7.324   0.067   9.029  1.2862  0.1320  1.0231
  694MOL0     H93657   7.188   0.144   9.123 -0.7340 -1.7151 -0.4878
  694MOL0     H93658   7.023   0.062   8.973 -1.3200 -3.7900  0.7761
  694MOL0     H93659   7.142   0.046   8.838 -2.6858 -1.3026 -0.7093
  694MOL0     H93660   7.141  -0.134   9.075  1.1736 -2.7248 -0.0418
  694MOL0     H93661   7.219  -0.147   8.919 -0.4095  0.6096 -0.0573
  694MOL0     H93662   6.994  -0.136   8.807  2.1576  3.7212  0.5580
  694MOL0     H93663   6.931  -0.168   8.979 -0.6572 -0.5279  0.0629
  694MOL0     H93664   7.121  -0.349   8.834 -1.7443  0.7947 -1.1107
  694MOL0     H93665   7.063  -0.363   8.992  0.6379  0.7346  0.7090
  694MOL0     H93666   6.926  -0.436   8.745  1.0547 -0.1400  0.3580
  694MOL0     H93667   6.816  -0.380   8.870  0.3261 -0.1544 -0.0373
  694MOL0     H93668   6.937  -0.546   9.036  2.8512 -2.6693  0.3219
  694MOL0     H93669   6.824  -0.609   8.912 -1.5449  1.8041  0.0364
  694MOL0     H93670   7.303   0.616   9.108 -1.1545  2.2014  3.3996
  694MOL0     H93671   7.129   0.771   9.154 -2.0086  0.0559  2.8869
  694MOL0     H93672   6.875   1.113   9.279 -1.5419  3.2284 -0.1020
  694MOL0     H93673   6.738   1.281   9.226 -0.1442 -0.1918 -1.8284
  694MOL0     H93674   6.392   3.003   9.368 -0.4262 -0.2816 -0.1069
  694MOL0     H93675   6.471   2.929   9.603 -1.1051 -1.1980  2.0962
  694MOL0     H93676   6.367   2.770   9.978 -0.3998 -2.5524  1.2416
  694MOL0     H93677   6.475   2.725  10.200  0.4417 -0.7162 -0.0643
  694MOL0     H93678   6.547   2.933  10.568 -0.9463  1.5923  0.8710
  694MOL0     H93679   6.543   3.039  10.425 -2.4191 -0.0627 -0.3193
  694MOL0     H93680   6.764   2.894  10.490 -1.9059 -1.4082  5.0498
  694MOL0     H93681   6.699   2.877  10.324  0.8763  1.0558 -0.2663
  694MOL0     H93682   6.591   2.657  10.396 -0.8349  0.2869  3.1224
  694MOL0     H93683   6.641   2.681  10.557 -0.9635 -0.7140  0.5161
  694MOL0     H93684   6.898   2.701  10.457  0.6295 -1.2212 -0.1568
  694MOL0     H93685   6.822   2.543  10.444 -0.8467  0.6134  1.6559
  694MOL0     H93686   6.869   2.634  10.037 -2.6494  1.6207 -1.9270
  694MOL0     H93687   6.291   3.066  10.364 -1.1057  2.1424 -1.8374
  694MOL0     H93688   6.263   3.262  10.197 -1.5342  1.1292 -0.7454
  694MOL0     H93689   6.210   3.236  10.034 -1.4927  1.9938  0.7598
  694MOL0     H93690   6.112   3.186  10.180  0.2793  1.6858  1.6844
  695MOL0     O93691   8.102   9.080   2.237  0.5322  0.2047  0.1160
  695MOL0     C93692   8.088   9.174   2.168  0.0636  0.5957  0.0270
  695MOL0     O93693   7.974   9.194   2.094 -0.1613 -0.1543  0.0882
  695MOL0     C93694   7.855   9.113   2.114  0.4965 -0.5344  0.7002
  695MOL0     C93695   7.733   9.178   2.151 -0.5064  0.1312  0.7751
  695MOL0     C93696   7.614   9.097   2.168  0.4599 -0.0101  0.1553
  695MOL0     C93697   7.621   8.959   2.142 -0.2108  1.0225 -0.0404
  695MOL0     O93698   7.512   8.881   2.156 -0.7730  0.6956  0.5200
  695MOL0     C93699   7.398   8.935   2.224  0.5575 -0.3220  0.1545
  695MOL0     C93700   7.298   8.824   2.236 -0.0513 -0.2106 -0.2267
  695MOL0     C93701   7.159   8.883   2.276  0.1590  0.7022  0.3188
  695MOL0     C93702   7.085   8.785   2.373  0.3229  0.1689  0.7263
  695MOL0     C93703   6.947   8.845   2.414 -0.5502  0.1017  0.2434
  695MOL0     C93704   6.872   8.786   2.530  0.5676  0.2734  1.3377
  695MOL0     C93705   6.715   8.830   2.538 -0.3438  0.6418  0.3153
  695MOL0     C93706   6.693   8.972   2.570  0.1356 -0.8797  0.3035
  695MOL0     N93707   6.738   9.033   2.699  0.2379 -0.7500  0.1527
  695MOL0     C93708   6.864   9.052   2.737 -0.0854  0.9291  0.1195
  695MOL0     C93709   6.848   9.077   2.871 -0.3528 -0.1037 -0.3067
  695MOL0     C93710   6.972   9.093   2.952 -0.8575  0.3210 -0.1429
  695MOL0     C93711   6.985   8.996   3.075  0.2143  0.8884  0.1380
  695MOL0     C93712   7.118   8.962   3.141  0.1159 -0.9596 -0.4150
  695MOL0     C93713   7.111   8.887   3.273  0.4637 -0.0656 -0.8098
  695MOL0     O93714   7.244   8.885   3.324 -0.0294  0.1267  0.4373
  695MOL0     C93715   7.292   8.990   3.399  0.5179  0.3092  0.9224
  695MOL0     C93716   7.419   8.975   3.455  0.0929 -0.8135 -0.2560
  695MOL0     C93717   7.489   9.080   3.517  0.1103 -0.2007  0.3096
  695MOL0     C93718   7.427   9.202   3.522  0.1387  0.1937 -0.7250
  695MOL0     C93719   7.494   9.306   3.598  0.1187  0.0314  0.9931
  695MOL0     O93720   7.600   9.270   3.677  0.2200  0.0061 -0.2598
  695MOL0     C93721   7.639   9.352   3.783 -1.2203 -0.5488 -0.4475
  695MOL0     C93722   7.708   9.469   3.770  0.4897 -0.3059 -0.4655
  695MOL0     C93723   7.744   9.531   3.893 -0.0257  0.0075  0.5244
  695MOL0     C93724   7.709   9.471   4.014  0.0226  0.2945 -0.9818
  695MOL0     O93725   7.735   9.526   4.138  0.1373 -0.0555 -0.7881
  695MOL0     C93726   7.797   9.650   4.145 -0.6230  0.2259  0.1323
  695MOL0     C93727   7.806   9.718   4.290  0.5773  0.1340  0.3806
  695MOL0     C93728   7.843   9.859   4.285  0.5400  0.2813 -0.1340
  695MOL0     C93729   7.731   9.970   4.269 -1.1755  0.0438 -0.4673
  695MOL0     C93730   7.787  10.105   4.296 -0.3879 -0.4426  0.3904
  695MOL0     C93731   7.679  10.223   4.268  0.5294 -0.2401  0.6156
  695MOL0     C93732   7.639  10.210   4.118  0.2410  0.4721  0.5853
  695MOL0     C93733   7.752  10.220   4.018  0.7022  0.2498 -0.7293
  695MOL0    Cl93734   7.794  10.054   3.947 -0.2874 -0.1019 -0.2198
  695MOL0     C93735   7.633   9.356   4.016  0.3159  0.0906  0.5680
  695MOL0     C93736   7.604   9.291   3.901  0.4615  0.3615  0.2489
  695MOL0     O93737   7.450   9.415   3.584  0.8559 -0.3539  0.0944
  695MOL0     C93738   7.296   9.210   3.470  0.6556 -0.1797 -0.0951
  695MOL0     C93739   7.228   9.112   3.416  0.3413  0.0484 -0.1669
  695MOL0     N93740   6.719   9.067   2.909  0.0014 -0.4392  0.8620
  695MOL0     N93741   6.657   9.038   2.802 -0.2672 -0.4376  0.3278
  695MOL0     C93742   7.745   8.899   2.115 -0.4644  0.5733  0.2764
  695MOL0     C93743   7.860   8.972   2.100  0.6368  0.2365  0.3945
  695MOL0     C93744   8.210   9.253   2.141 -0.1636  0.3148 -0.4999
  695MOL0     C93745   8.203   9.360   2.049 -0.3259 -0.6114  0.6632
  695MOL0     C93746   8.309   9.422   1.991  0.0746  0.6383  0.3149
  695MOL0     C93747   8.438   9.388   2.021  1.0557 -0.2750 -0.2722
  695MOL0     O93748   8.553   9.434   1.958  0.8485 -0.9757  0.4711
  695MOL0     C93749   8.543   9.499   1.824 -0.4878  0.1410  0.2872
  695MOL0     C93750   8.675   9.469   1.739  0.0538 -0.2649 -1.0480
  695MOL0     C93751   8.694   9.541   1.605  0.4256 -0.2827  0.2221
  695MOL0     C93752   8.745   9.675   1.614 -0.8097 -1.0397 -0.3461
  695MOL0     C93753   8.894   9.677   1.607 -0.5386  0.1313  0.1128
  695MOL0     C93754   9.009   9.689   1.590  0.0938 -0.5746  0.0244
  695MOL0     C93755   8.445   9.301   2.134 -0.5317  0.1416 -0.2376
  695MOL0     C93756   8.342   9.229   2.191  1.0995  1.0620 -0.2754
  695MOL0     C93757   8.373   9.134   2.311 -0.7756 -0.6069  0.6061
  695MOL0     H93758   7.735   9.287   2.159 -0.8416  0.1244  0.9825
  695MOL0     H93759   7.529   9.149   2.210 -0.9977 -1.3110 -1.0496
  695MOL0     H93760   7.422   8.968   2.326 -1.3736  2.3683 -0.1597
  695MOL0     H93761   7.355   9.026   2.180 -0.4625 -0.4990  0.7706
  695MOL0     H93762   7.341   8.748   2.301  2.9059  1.2325 -0.2870
  695MOL0     H93763   7.296   8.777   2.137  3.7548 -0.7098 -0.2340
  695MOL0     H93764   7.108   8.910   2.183  1.6547  3.4452  0.1913
  695MOL0     H93765   7.180   8.977   2.329  4.7994  0.9805 -1.5187
  695MOL0     H93766   7.069   8.685   2.333 -0.0183  1.0833 -1.5488
  695MOL0     H93767   7.150   8.768   2.459  0.5284  3.4672  1.3571
  695MOL0     H93768   6.973   8.948   2.438 -1.0889 -0.2716  2.6928
  695MOL0     H93769   6.879   8.844   2.328 -1.1762 -2.5526  0.6798
  695MOL0     H93770   6.881   8.678   2.548 -1.0002 -0.2733 -0.7857
  695MOL0     H93771   6.913   8.829   2.622  0.6967 -1.4955  2.1475
  695MOL0     H93772   6.677   8.767   2.620  1.3978 -0.8978  0.0168
  695MOL0     H93773   6.666   8.812   2.442  1.7018  0.1698 -0.6999
  695MOL0     H93774   6.716   9.036   2.484  0.6088 -0.5795  0.6439
  695MOL0     H93775   6.584   8.971   2.577  0.1777  1.3947  2.5794
  695MOL0     H93776   6.950   9.037   2.674 -1.8700 -1.6607 -1.9026
  695MOL0     H93777   7.055   9.079   2.881 -0.7803 -4.0508  0.5521
  695MOL0     H93778   6.988   9.192   2.996  3.7519  0.7403 -2.1150
  695MOL0     H93779   6.917   9.039   3.149 -2.5571 -0.6171 -1.3762
  695MOL0     H93780   6.940   8.903   3.039 -1.0363  1.7723 -0.7288
  695MOL0     H93781   7.173   9.055   3.157 -0.2998 -0.0775 -3.3891
  695MOL0     H93782   7.173   8.909   3.063 -2.3059 -3.0862 -0.8145
  695MOL0     H93783   7.070   8.787   3.257 -1.3836  0.4998  0.1040
  695MOL0     H93784   7.045   8.945   3.338  0.4240  0.0809 -0.9818
  695MOL0     H93785   7.474   8.881   3.448  2.3091  0.5061 -2.2040
  695MOL0     H93786   7.590   9.066   3.553  0.9398  3.0723 -0.3487
  695MOL0     H93787   7.720   9.512   3.671  2.0761  2.9099  0.9729
  695MOL0     H93788   7.784   9.631   3.883  1.3132 -0.2717  2.5398
  695MOL0     H93789   7.899   9.630   4.112 -0.9221 -0.6037 -0.3016
  695MOL0     H93790   7.735   9.705   4.074 -2.5831 -2.1145 -0.0948
  695MOL0     H93791   7.702   9.717   4.324 -0.7663  0.6962 -3.2744
  695MOL0     H93792   7.863   9.663   4.365  0.6770  1.1399  1.0696
  695MOL0     H93793   7.880   9.872   4.387 -2.5392 -1.0990  1.2727
  695MOL0     H93794   7.927   9.869   4.216  0.4170 -1.5356 -0.6122
  695MOL0     H93795   7.651   9.945   4.339  0.4863 -3.4814  0.3891
  695MOL0     H93796   7.686   9.954   4.171  0.0640 -1.5193 -0.8277
  695MOL0     H93797   7.875  10.131   4.236 -1.1917  1.5277 -0.0250
  695MOL0     H93798   7.823  10.095   4.398 -0.4355 -0.7231  0.3824
  695MOL0     H93799   7.588  10.183   4.314  2.4121 -3.1075  2.1335
  695MOL0     H93800   7.706  10.326   4.290 -0.4620  0.7059 -2.1497
  695MOL0     H93801   7.564  10.283   4.085 -0.4619 -0.7769 -0.6895
  695MOL0     H93802   7.601  10.111   4.089 -0.5149  0.8340  0.3211
  695MOL0     H93803   7.716  10.290   3.943  1.2439  2.8169  1.2636
  695MOL0     H93804   7.837  10.258   4.076 -0.8009  2.0313  0.3888
  695MOL0     H93805   7.616   9.308   4.112  1.1336  0.6276  0.9925
  695MOL0     H93806   7.560   9.192   3.901 -0.4234  0.7458  0.4773
  695MOL0     H93807   7.252   9.308   3.481 -1.9969 -1.4430  1.4850
  695MOL0     H93808   7.129   9.143   3.384  0.1459  0.5503  0.8779
  695MOL0     H93809   7.730   8.793   2.097 -3.8789  0.6730  1.8506
  695MOL0     H93810   7.954   8.934   2.061  1.5581  1.3499  1.4446
  695MOL0     H93811   8.112   9.392   2.000  0.5449 -2.0859 -2.1323
  695MOL0     H93812   8.290   9.491   1.908 -0.2777 -0.6892 -0.7515
  695MOL0     H93813   8.513   9.604   1.834  2.0330  0.9717 -0.0277
  695MOL0     H93814   8.460   9.451   1.772 -1.7919  2.4756  0.0921
  695MOL0     H93815   8.675   9.360   1.740  2.0489 -0.3259  1.3749
  695MOL0     H93816   8.760   9.495   1.803 -0.5379  0.2941 -0.4721
  695MOL0     H93817   8.589   9.551   1.577  0.4318 -3.9419 -1.7803
  695MOL0     H93818   8.726   9.484   1.517 -0.4256  2.6707 -2.1573
  695MOL0     H93819   8.701   9.738   1.537 -0.9380 -0.1529  0.4272
  695MOL0     H93820   8.717   9.714   1.713  4.0105 -2.3277  1.8382
  695MOL0     H93821   9.109   9.719   1.569  0.5090 -0.5296  1.8695
  695MOL0     H93822   8.546   9.283   2.171 -1.2583 -1.0647  1.2715
  695MOL0     H93823   8.468   9.162   2.357 -0.8809  2.2232 -0.7224
  695MOL0     H93824   8.293   9.153   2.384 -0.8158 -0.1172  0.4375
  695MOL0     H93825   8.364   9.027   2.291  0.5134 -0.5100 -0.6142
  696MOL0     O93826   3.458  10.369   0.896 -0.3522 -0.9592  1.1148
  696MOL0     C93827   3.366  10.373   0.979 -0.1203  0.9355  0.5851
  696MOL0     O93828   3.236  10.388   0.950  0.2488 -0.2803  0.7969
  696MOL0     C93829   3.195  10.424   0.819 -0.3009 -0.8189  0.2092
  696MOL0     C93830   3.211  10.348   0.702  0.1691 -0.2113  0.2692
  696MOL0     C93831   3.160  10.396   0.577 -0.2842  0.3331  0.3332
  696MOL0     C93832   3.083  10.513   0.576  0.8753  1.3669 -0.5816
  696MOL0     O93833   3.010  10.555   0.475 -0.5928 -0.1987 -0.6362
  696MOL0     C93834   3.069  10.658   0.395 -0.3940  0.0571 -0.1373
  696MOL0     C93835   2.952  10.704   0.312  0.2546 -0.9823 -0.2502
  696MOL0     C93836   2.966  10.815   0.209 -0.3222  0.8453 -0.3235
  696MOL0     C93837   3.038  10.932   0.278 -0.5296 -0.0460  0.9862
  696MOL0     C93838   3.056  11.056   0.197  0.4259  0.2759  0.1424
  696MOL0     C93839   2.925  11.127   0.155 -0.1758 -0.8368  0.0607
  696MOL0     C93840   2.956  11.270   0.085 -0.2244  0.2609 -0.7741
  696MOL0     C93841   2.840  11.353   0.045  0.5163  0.5971 -0.1536
  696MOL0     N93842   2.768  11.390   0.165  0.3469 -0.5532  1.4325
  696MOL0     C93843   2.811  11.482   0.262  1.1868  0.0086  0.8405
  696MOL0     C93844   2.712  11.503   0.348 -0.5134  0.6247 -1.3429
  696MOL0     C93845   2.711  11.613   0.461  0.0482  0.6411 -0.9366
  696MOL0     C93846   2.785  11.559   0.589 -0.1058  0.4666 -0.4837
  696MOL0     C93847   2.764  11.650   0.717  0.2197 -0.0269  1.2911
  696MOL0     C93848   2.615  11.648   0.771 -0.6378 -0.1816  0.0720
  696MOL0     O93849   2.611  11.684   0.917  0.5882 -0.3293  0.4308
  696MOL0     C93850   2.648  11.588   1.009 -0.9326 -0.3541 -0.0691
  696MOL0     C93851   2.680  11.446   0.984  0.0579 -0.0897 -1.2900
  696MOL0     C93852   2.713  11.365   1.091 -0.6016 -0.2760  0.0732
  696MOL0     C93853   2.717  11.417   1.224 -0.4433 -0.7123  0.8087
  696MOL0     C93854   2.761  11.338   1.337 -0.1475 -0.7624  0.2360
  696MOL0     O93855   2.799  11.202   1.323  0.8996  0.3038  0.2551
  696MOL0     C93856   2.811  11.129   1.440  0.4062  0.5481 -1.0111
  696MOL0     C93857   2.699  11.130   1.529 -0.4712 -0.5967 -0.1213
  696MOL0     C93858   2.703  11.058   1.652  0.8240 -0.2864  0.7850
  696MOL0     C93859   2.816  10.988   1.677 -0.2300 -0.0146  0.4300
  696MOL0     O93860   2.803  10.912   1.785  0.6393  0.1800  0.4043
  696MOL0     C93861   2.902  10.817   1.829 -0.2471  0.7025  1.5927
  696MOL0     C93862   2.843  10.735   1.932  0.4000  0.9094 -0.1853
  696MOL0     C93863   2.937  10.632   1.995  0.0388  0.4417  0.1193
  696MOL0     C93864   2.988  10.668   2.133 -0.0258 -0.3112  0.5099
  696MOL0     C93865   3.101  10.586   2.175 -0.2554  0.2486 -0.3251
  696MOL0     C93866   3.152  10.615   2.318 -0.7125  0.4625 -0.1105
  696MOL0     C93867   3.041  10.590   2.420 -0.0378 -0.3184 -0.9288
  696MOL0     C93868   3.091  10.588   2.562  0.2938  0.1604  0.2175
  696MOL0    Cl93869   3.154  10.428   2.594  0.2745 -0.1845 -0.1842
  696MOL0     C93870   2.933  10.997   1.595  0.9357 -1.0536  0.3103
  696MOL0     C93871   2.929  11.071   1.481 -0.7661 -0.1504  0.6773
  696MOL0     O93872   2.769  11.396   1.449  0.0726  0.7212  0.0954
  696MOL0     C93873   2.667  11.546   1.242 -0.0427  0.4614 -0.4938
  696MOL0     C93874   2.627  11.627   1.142  0.5720  0.6950  0.3480
  696MOL0     N93875   2.620  11.408   0.312 -0.2743  0.1544  0.0455
  696MOL0     N93876   2.651  11.340   0.199 -0.3703 -1.0384 -0.7609
  696MOL0     C93877   3.074  10.589   0.691 -0.1420 -0.1092  0.0064
  696MOL0     C93878   3.134  10.548   0.809  0.6758  0.3189  0.2456
  696MOL0     C93879   3.402  10.347   1.115 -0.7230  0.3871 -0.5496
  696MOL0     C93880   3.396  10.449   1.207  0.0415  0.8906 -1.3064
  696MOL0     C93881   3.404  10.419   1.342 -0.1921 -0.8920 -0.1048
  696MOL0     C93882   3.438  10.290   1.388  0.2247  0.4774  0.5887
  696MOL0     O93883   3.447  10.269   1.523 -0.0564  0.1621  1.1957
  696MOL0     C93884   3.462  10.360   1.625 -0.1066  0.2183 -0.7558
  696MOL0     C93885   3.507  10.277   1.747  0.0597 -0.1686 -0.1721
  696MOL0     C93886   3.656  10.234   1.736  0.5185 -0.3024  0.1366
  696MOL0     C93887   3.688  10.122   1.840  0.1252 -0.1839  0.1933
  696MOL0     C93888   3.634  10.158   1.974 -0.2738 -0.4615  0.4692
  696MOL0     C93889   3.565  10.212   2.059 -0.4424 -0.3038 -0.5739
  696MOL0     C93890   3.470  10.190   1.292  0.1641 -0.7280  0.5737
  696MOL0     C93891   3.446  10.211   1.157  0.0350  0.6059 -0.2921
  696MOL0     C93892   3.466  10.087   1.067 -0.1655 -0.4702  0.8302
  696MOL0     H93893   3.277  10.263   0.718 -1.1606 -1.7736 -1.9278
  696MOL0     H93894   3.170  10.341   0.485  1.0068 -2.2578  1.9075
  696MOL0     H93895   3.102  10.735   0.465  0.1472 -0.5799  0.3267
  696MOL0     H93896   3.155  10.624   0.336 -1.2364 -1.0345 -0.7797
  696MOL0     H93897   2.875  10.742   0.380  0.1722  0.0198 -0.8810
  696MOL0     H93898   2.904  10.620   0.260 -0.0363 -1.4685  0.7939
  696MOL0     H93899   2.863  10.848   0.193 -1.8252 -1.9216  2.6949
  696MOL0     H93900   3.015  10.793   0.114  0.7054  3.7576 -0.5678
  696MOL0     H93901   2.985  10.964   0.368 -0.4019 -1.3208  1.5316
  696MOL0     H93902   3.130  10.885   0.311 -0.8708  0.5849  2.9821
  696MOL0     H93903   3.117  11.121   0.260  0.3829 -1.2522  1.8180
  696MOL0     H93904   3.123  11.034   0.113  2.0100 -2.3262  1.9488
  696MOL0     H93905   2.855  11.069   0.093 -1.8883  0.8822  0.3039
  696MOL0     H93906   2.859  11.148   0.240  2.7360  1.9612  1.8213
  696MOL0     H93907   3.005  11.237  -0.008  1.2786 -2.0260  0.7345
  696MOL0     H93908   3.025  11.336   0.139 -0.2373  0.1503 -0.6215
  696MOL0     H93909   2.858  11.444  -0.012 -1.2424 -0.8687 -3.3658
  696MOL0     H93910   2.774  11.297  -0.021 -0.9438  2.3228 -0.2351
  696MOL0     H93911   2.902  11.541   0.259  1.4140 -0.3929 -1.0377
  696MOL0     H93912   2.761  11.704   0.428 -0.1953  0.5959 -1.4353
  696MOL0     H93913   2.607  11.628   0.492 -0.5520 -1.9285 -1.4584
  696MOL0     H93914   2.768  11.452   0.606 -1.8729  0.6566 -0.8654
  696MOL0     H93915   2.890  11.567   0.562  0.1627  2.5828  0.9411
  696MOL0     H93916   2.813  11.747   0.704 -0.2395  0.1815  1.0700
  696MOL0     H93917   2.832  11.606   0.790 -0.7124 -3.5318  0.2182
  696MOL0     H93918   2.574  11.549   0.751 -3.0200  0.8444 -0.4845
  696MOL0     H93919   2.568  11.729   0.715  2.3143  0.0930 -2.2684
  696MOL0     H93920   2.679  11.410   0.882  0.8008  2.1035 -2.1370
  696MOL0     H93921   2.724  11.258   1.073 -0.6304 -0.7875  2.7039
  696MOL0     H93922   2.603  11.176   1.506 -1.1182 -2.6748 -1.8493
  696MOL0     H93923   2.611  11.072   1.709  0.7784  0.8836  0.4480
  696MOL0     H93924   2.924  10.751   1.745 -3.4008  1.5697 -0.0545
  696MOL0     H93925   2.989  10.871   1.868  0.3957 -2.0822  4.3883
  696MOL0     H93926   2.808  10.796   2.015  1.4546  1.2389  0.0374
  696MOL0     H93927   2.767  10.678   1.877  0.2935 -0.8022  1.6510
  696MOL0     H93928   2.885  10.536   2.000  0.4966  0.2117  0.6906
  696MOL0     H93929   3.021  10.619   1.925  0.0946 -1.8527  0.5108
  696MOL0     H93930   2.911  10.653   2.209 -0.1045 -0.5340  0.3882
  696MOL0     H93931   3.026  10.770   2.142  0.9866 -0.4158 -1.9050
  696MOL0     H93932   3.180  10.587   2.099 -0.0200 -2.6902 -0.2435
  696MOL0     H93933   3.066  10.482   2.167  1.2347 -0.4518  1.4875
  696MOL0     H93934   3.239  10.553   2.343 -1.3193 -0.3548  0.0118
  696MOL0     H93935   3.195  10.716   2.326  0.3594 -0.1251  2.9860
  696MOL0     H93936   2.986  10.498   2.397  1.5578 -1.0311 -2.0783
  696MOL0     H93937   2.975  10.677   2.428 -1.6431 -1.4662 -1.1685
  696MOL0     H93938   3.169  10.663   2.576 -0.7406  1.9731 -2.9039
  696MOL0     H93939   3.010  10.605   2.634 -0.3669 -2.6395  0.2545
  696MOL0     H93940   3.023  10.943   1.625  3.4898  1.5851 -1.9522
  696MOL0     H93941   3.017  11.088   1.420 -3.3388  2.9744 -2.5678
  696MOL0     H93942   2.644  11.572   1.345 -2.2645 -0.6262 -0.6332
  696MOL0     H93943   2.590  11.726   1.165 -1.2676 -0.2425  1.6836
  696MOL0     H93944   3.025  10.686   0.685 -0.9142 -0.4636  0.5369
  696MOL0     H93945   3.132  10.605   0.902 -2.1487  1.0283 -0.1317
  696MOL0     H93946   3.370  10.551   1.179  2.1268  1.8103 -0.2112
  696MOL0     H93947   3.383  10.500   1.411  0.5464  2.1414 -3.1841
  696MOL0     H93948   3.367  10.411   1.640 -0.8282 -0.8351 -1.5573
  696MOL0     H93949   3.537  10.432   1.591  1.0968 -1.5045 -1.9319
  696MOL0     H93950   3.454  10.182   1.762  1.7188 -0.9408  1.2619
  696MOL0     H93951   3.487  10.337   1.836 -2.2808 -0.5719 -0.3716
  696MOL0     H93952   3.717  10.324   1.748 -0.4649  0.3075  0.7469
  696MOL0     H93953   3.679  10.200   1.635  0.1182 -0.0922 -0.0290
  696MOL0     H93954   3.642  10.024   1.823 -0.6385 -0.0542  1.3879
  696MOL0     H93955   3.796  10.111   1.832  0.1262  0.4663 -0.8684
  696MOL0     H93956   3.520  10.270   2.138 -0.0332  1.4489 -1.5798
  696MOL0     H93957   3.481  10.092   1.337 -0.1406 -0.9542  0.1674
  696MOL0     H93958   3.447   9.994   1.122 -5.3113 -2.5676 -3.6371
  696MOL0     H93959   3.399  10.079   0.981  2.1823 -1.0864 -1.0493
  696MOL0     H93960   3.571  10.077   1.037 -0.1269  1.3716  0.2282
  697MOL0     O93961   6.543   3.255   9.664  0.6990 -0.3778 -0.7758
  697MOL0     C93962   6.556   3.291   9.550 -0.5108 -0.3111 -0.0627
  697MOL0     O93963   6.669   3.264   9.479 -0.0220  0.3592  1.1664
  697MOL0     C93964   6.770   3.205   9.553  0.2964  0.6886  0.4815
  697MOL0     C93965   6.845   3.273   9.649  0.8624 -0.5674  0.2177
  697MOL0     C93966   6.944   3.216   9.731  0.2825 -0.1855  1.0376
  697MOL0     C93967   6.961   3.077   9.720  0.0494  0.0442  0.7854
  697MOL0     O93968   7.069   3.013   9.788 -0.1092  0.2299 -0.1558
  697MOL0     C93969   7.174   3.095   9.846 -0.2455  0.1509  0.2666
  697MOL0     C93970   7.286   3.003   9.902 -0.6616  0.4035 -0.2921
  697MOL0     C93971   7.399   3.063   9.968 -0.3257  0.0102  0.0528
  697MOL0     C93972   7.356   3.134  10.098 -0.9855  0.4194 -0.4989
  697MOL0     C93973   7.476   3.198  10.165 -0.3856  0.8617 -0.2667
  697MOL0     C93974   7.438   3.273  10.301 -0.0979  0.5394 -0.2414
  697MOL0     C93975   7.416   3.173  10.419 -0.1847 -0.2559  0.6134
  697MOL0     C93976   7.304   3.216  10.510  1.0973  0.9766  0.1526
  697MOL0     N93977   7.177   3.207  10.443 -0.1424  0.6030  0.2660
  697MOL0     C93978   7.110   3.099  10.383  0.5829 -0.5285 -0.1055
  697MOL0     C93979   7.026   3.158  10.285  0.1232  0.1141 -0.1664
  697MOL0     C93980   6.919   3.101  10.197 -0.8846 -0.2482  1.1435
  697MOL0     C93981   6.781   3.149  10.231 -0.0624  1.2148  0.2073
  697MOL0     C93982   6.674   3.089  10.129 -0.2649 -0.2341 -0.7676
  697MOL0     C93983   6.630   3.192  10.025  0.1063  0.3275 -0.3835
  697MOL0     O93984   6.553   3.293  10.096 -0.1164  0.5158  0.1317
  697MOL0     C93985   6.576   3.428  10.084 -0.5211  0.3441 -1.3215
  697MOL0     C93986   6.485   3.508  10.149 -0.0442  1.0633  0.1742
  697MOL0     C93987   6.490   3.650  10.134 -0.1419 -0.2227  0.2781
  697MOL0     C93988   6.591   3.708  10.057  0.1394 -0.3941  0.2859
  697MOL0     C93989   6.599   3.855  10.043  0.2671 -0.7851 -0.2930
  697MOL0     O93990   6.506   3.933  10.101 -0.2801  0.2160  0.1950
  697MOL0     C93991   6.514   4.075  10.075 -0.2477 -0.0128  0.1038
  697MOL0     C93992   6.546   4.149  10.191 -0.0631  0.0337  0.0214
  697MOL0     C93993   6.564   4.287  10.187 -0.1274 -0.1587 -0.4020
  697MOL0     C93994   6.543   4.348  10.065  0.8192 -0.0298  0.6736
  697MOL0     O93995   6.528   4.482  10.056  0.2090  0.4081  0.3237
  697MOL0     C93996   6.398   4.532  10.020  0.1928 -0.0102  0.0658
  697MOL0     C93997   6.376   4.679  10.041 -0.3927 -0.0202  0.1969
  697MOL0     C93998   6.439   4.774   9.939 -0.3864 -0.0756  0.5478
  697MOL0     C93999   6.596   4.770   9.938  0.9732 -1.1100  0.1023
  697MOL0     C94000   6.646   4.882   9.857  0.7896  0.0517 -0.5410
  697MOL0     C94001   6.786   4.913   9.873 -1.1688 -0.2405 -0.2651
  697MOL0     C94002   6.817   4.983  10.014 -1.2603 -0.6208  0.9697
  697MOL0     C94003   6.966   5.017  10.041  0.1680 -1.0587 -0.1031
  697MOL0    Cl94004   7.086   4.922   9.962  0.4058  0.3623  0.1720
  697MOL0     C94005   6.523   4.274   9.946  0.6616  0.6403 -0.4352
  697MOL0     C94006   6.502   4.138   9.953  0.1354 -0.8709  1.2003
  697MOL0     O94007   6.693   3.894   9.971  0.0320 -0.5308  0.4621
  697MOL0     C94008   6.682   3.618   9.991 -0.1472  0.1694  0.0751
  697MOL0     C94009   6.675   3.483  10.004 -1.0780 -0.3262  0.6410
  697MOL0     N94010   7.038   3.292  10.301 -0.8293  1.1131  0.5667
  697MOL0     N94011   7.117   3.319  10.386  0.4243  0.8067  0.8981
  697MOL0     C94012   6.880   3.007   9.628 -0.4931 -0.1817  0.7795
  697MOL0     C94013   6.786   3.071   9.541 -0.4991  0.6479 -0.1646
  697MOL0     C94014   6.435   3.346   9.473 -0.1343  0.4473 -0.2827
  697MOL0     C94015   6.456   3.415   9.348 -0.2528 -0.0962  0.1928
  697MOL0     C94016   6.355   3.500   9.289  0.2897  0.0197  0.2858
  697MOL0     C94017   6.232   3.510   9.352  0.5082  0.7360 -0.6799
  697MOL0     O94018   6.133   3.594   9.298  0.7205  0.6319  0.9479
  697MOL0     C94019   6.053   3.666   9.392  0.5181 -0.9512  0.5298
  697MOL0     C94020   6.001   3.799   9.332  0.1952  0.2009 -0.5966
  697MOL0     C94021   5.937   3.896   9.434 -0.5739 -0.1136  0.0296
  697MOL0     C94022   5.813   3.841   9.512  0.2234  0.4911 -0.8228
  697MOL0     C94023   5.849   3.760   9.632 -0.1591 -0.6970  0.5463
  697MOL0     C94024   5.859   3.671   9.708 -0.6207  1.2031 -0.3921
  697MOL0     C94025   6.204   3.438   9.472 -0.3025  0.8081 -1.0102
  697MOL0     C94026   6.307   3.355   9.523 -0.0926  0.5879  0.5036
  697MOL0     C94027   6.247   3.273   9.635  0.7544 -0.2518  0.4195
  697MOL0     H94028   6.834   3.381   9.655  0.4976 -0.4326 -2.0762
  697MOL0     H94029   7.006   3.282   9.790  2.5588 -0.4121 -0.9456
  697MOL0     H94030   7.210   3.165   9.770 -2.3524  0.6424 -0.3442
  697MOL0     H94031   7.144   3.163   9.926  0.3715  3.0340 -1.7663
  697MOL0     H94032   7.332   2.956   9.815  0.6750 -1.1130  1.1715
  697MOL0     H94033   7.237   2.926   9.962 -1.8659  0.5238 -1.0871
  697MOL0     H94034   7.460   3.135   9.913  0.3841 -0.0425  0.7548
  697MOL0     H94035   7.462   2.979   9.997 -1.7190 -1.1170 -0.0466
  697MOL0     H94036   7.281   3.214  10.089 -0.6670  0.5851 -2.1949
  697MOL0     H94037   7.308   3.062  10.164  0.8819  1.9088  2.7306
  697MOL0     H94038   7.552   3.121  10.183 -1.2957  0.1746  0.7175
  697MOL0     H94039   7.530   3.259  10.092 -0.4467 -2.9578 -3.8978
  697MOL0     H94040   7.505   3.357  10.320  1.8110 -0.8739 -0.3416
  697MOL0     H94041   7.345   3.328  10.286  1.9911  5.2571  2.0361
  697MOL0     H94042   7.511   3.182  10.472  0.5887 -0.3247 -0.7018
  697MOL0     H94043   7.396   3.075  10.375 -2.3952  0.0505  0.8155
  697MOL0     H94044   7.311   3.162  10.605 -1.1921  2.4221  1.2408
  697MOL0     H94045   7.324   3.321  10.532  2.9304  1.1168 -1.7794
  697MOL0     H94046   7.131   2.993  10.391 -0.1517 -0.7052 -0.4343
  697MOL0     H94047   6.948   3.136  10.097 -3.0092 -1.8393 -0.1228
  697MOL0     H94048   6.923   2.992  10.187 -1.7516 -0.1596 -0.5384
  697MOL0     H94049   6.754   3.115  10.332 -0.7229  1.1559  0.0108
  697MOL0     H94050   6.781   3.258  10.238  1.6194  1.1302  3.3912
  697MOL0     H94051   6.596   3.059  10.200  0.3340 -3.7311 -1.3880
  697MOL0     H94052   6.714   2.999  10.082  2.8938  1.0584 -0.8292
  697MOL0     H94053   6.571   3.136   9.952  3.0257  0.2217 -2.8336
  697MOL0     H94054   6.706   3.230   9.956 -0.2684 -0.3045 -1.1588
  697MOL0     H94055   6.405   3.468  10.210  0.5187  1.1330  0.9798
  697MOL0     H94056   6.430   3.726  10.184  0.7695 -0.9454  2.6096
  697MOL0     H94057   6.557   4.094  10.283  0.1433  2.6723  1.6850
  697MOL0     H94058   6.587   4.332  10.283  0.2846  1.6208 -1.2942
  697MOL0     H94059   6.370   4.494   9.922  2.2082 -0.9589 -0.1853
  697MOL0     H94060   6.325   4.488  10.088  0.5258  2.3221  2.0877
  697MOL0     H94061   6.269   4.700  10.036 -0.5636 -0.1087  2.4662
  697MOL0     H94062   6.401   4.689  10.147  2.4912 -2.5465 -0.1240
  697MOL0     H94063   6.419   4.721   9.845  0.7373  1.1994 -0.4587
  697MOL0     H94064   6.399   4.874   9.923 -2.5838 -1.3451 -3.1164
  697MOL0     H94065   6.629   4.673   9.899  0.5544 -0.4631 -1.9680
  697MOL0     H94066   6.627   4.770  10.043 -0.6577 -1.9615  0.6168
  697MOL0     H94067   6.593   4.973   9.884 -0.6192 -0.6921 -0.7366
  697MOL0     H94068   6.624   4.854   9.753 -1.7816 -3.5796  0.8039
  697MOL0     H94069   6.851   4.827   9.854 -1.5501 -0.3008 -1.3860
  697MOL0     H94070   6.818   4.986   9.799  0.5660  1.7748  2.2741
  697MOL0     H94071   6.798   4.905  10.089  0.6131  2.4790  5.0819
  697MOL0     H94072   6.777   5.085  10.016  0.9135  0.4127 -1.6461
  697MOL0     H94073   6.981   5.119  10.005  2.5437 -1.1783  0.3464
  697MOL0     H94074   6.983   5.029  10.149 -1.7645  1.0245  0.0390
  697MOL0     H94075   6.505   4.316   9.847  0.0209  0.9423 -0.1944
  697MOL0     H94076   6.458   4.093   9.865  0.2099  1.0021  0.1417
  697MOL0     H94077   6.769   3.662   9.942  0.5890  1.0404  2.0779
  697MOL0     H94078   6.750   3.435   9.943 -0.4464 -0.3955  1.4557
  697MOL0     H94079   6.906   2.902   9.622  0.9874  0.2589 -2.5291
  697MOL0     H94080   6.735   3.001   9.475  1.2361 -0.5731 -0.2539
  697MOL0     H94081   6.548   3.420   9.291  0.9297  0.8549  2.0691
  697MOL0     H94082   6.380   3.558   9.200  2.4434 -2.9220 -1.1910
  697MOL0     H94083   6.097   3.681   9.491 -2.0420 -1.1376  1.7837
  697MOL0     H94084   5.968   3.597   9.402 -0.7482  0.8413  3.5113
  697MOL0     H94085   5.922   3.769   9.263  2.0261 -0.1326 -2.6636
  697MOL0     H94086   6.089   3.840   9.282  2.3630 -2.1702  0.9785
  697MOL0     H94087   5.909   3.988   9.382  0.3773  0.4302  0.4463
  697MOL0     H94088   6.003   3.928   9.516  0.5192 -0.9502 -0.4980
  697MOL0     H94089   5.755   3.925   9.550 -1.2516 -0.5867 -0.6381
  697MOL0     H94090   5.756   3.785   9.439  1.6682 -1.0883 -0.8022
  697MOL0     H94091   5.884   3.592   9.776  0.6087 -0.6316 -2.8549
  697MOL0     H94092   6.108   3.441   9.522  0.2959 -0.8874  0.3581
  697MOL0     H94093   6.204   3.331   9.717  1.3843 -0.1528  0.6867
  697MOL0     H94094   6.170   3.211   9.588  1.7490 -0.8821 -0.4326
  697MOL0     H94095   6.327   3.212   9.679  1.0297 -0.5491 -0.4695
  698MOL0     O94096   1.607   3.532   4.144  0.2260  0.0361 -0.2683
  698MOL0     C94097   1.636   3.645   4.176 -0.0404  0.2119  0.6804
  698MOL0     O94098   1.765   3.694   4.159 -0.6626 -0.8032 -0.3363
  698MOL0     C94099   1.867   3.607   4.185 -0.4748  0.2432 -0.1471
  698MOL0     C94100   1.904   3.510   4.084 -0.0544  0.7696  1.7453
  698MOL0     C94101   2.015   3.427   4.105  0.6713 -0.4187  0.6601
  698MOL0     C94102   2.091   3.435   4.217 -0.2214  0.0276  0.5027
  698MOL0     O94103   2.200   3.359   4.233 -0.7415  0.9141 -0.6787
  698MOL0     C94104   2.327   3.421   4.221 -0.4837 -0.2044  0.3542
  698MOL0     C94105   2.431   3.325   4.283  0.5247  0.4842 -0.9721
  698MOL0     C94106   2.435   3.315   4.432 -0.6885 -0.9877 -0.5762
  698MOL0     C94107   2.518   3.206   4.503 -0.3613 -0.3839 -1.0096
  698MOL0     C94108   2.497   3.222   4.649 -0.0207  0.4263 -0.4725
  698MOL0     C94109   2.602   3.142   4.731 -0.2976 -1.0179  0.1416
  698MOL0     C94110   2.561   3.131   4.878 -0.2923 -1.0015  0.2696
  698MOL0     C94111   2.548   3.276   4.948 -0.4321 -0.0099  0.1845
  698MOL0     N94112   2.668   3.357   4.916  0.1610  0.7458  0.6286
  698MOL0     C94113   2.674   3.461   4.830 -0.7759  0.4889 -1.0952
  698MOL0     C94114   2.783   3.527   4.859 -0.1349 -0.0919 -0.1141
  698MOL0     C94115   2.827   3.644   4.792  0.5073  0.2177  0.0938
  698MOL0     C94116   2.750   3.775   4.835 -0.0376  0.3456 -0.2621
  698MOL0     C94117   2.780   3.889   4.739 -0.5616 -1.1511 -0.2433
  698MOL0     C94118   2.791   4.035   4.798  1.0004  0.5518 -0.3652
  698MOL0     O94119   2.845   4.135   4.719 -0.1434  0.0538  0.6040
  698MOL0     C94120   2.847   4.269   4.764  0.0586 -0.8972 -0.1143
  698MOL0     C94121   2.731   4.331   4.820  1.0963  0.5118  0.8004
  698MOL0     C94122   2.728   4.474   4.843 -0.3672  0.5934  0.1291
  698MOL0     C94123   2.849   4.547   4.813 -0.9206 -0.2740 -0.1436
  698MOL0     C94124   2.856   4.699   4.829 -0.0487  0.2335 -0.6100
  698MOL0     O94125   2.775   4.747   4.922  0.0953 -0.3433  0.6017
  698MOL0     C94126   2.750   4.879   4.918 -1.0593 -0.3672 -0.0792
  698MOL0     C94127   2.620   4.932   4.930  0.2362  1.0657 -0.6246
  698MOL0     C94128   2.584   5.061   4.916  0.4767  0.4288 -0.8471
  698MOL0     C94129   2.689   5.147   4.920  0.2601 -1.0534 -0.2632
  698MOL0     O94130   2.673   5.284   4.933  0.1560 -0.0372 -0.7967
  698MOL0     C94131   2.559   5.358   4.890  0.3392  0.2903  0.2577
  698MOL0     C94132   2.561   5.497   4.927  0.4063 -0.6897  0.1255
  698MOL0     C94133   2.437   5.581   4.888 -0.3266 -0.4524  0.0566
  698MOL0     C94134   2.443   5.733   4.879 -0.1091  1.1307  0.1387
  698MOL0     C94135   2.563   5.768   4.783  0.0141 -0.0778  0.1349
  698MOL0     C94136   2.571   5.916   4.768 -0.0290  0.4304 -1.0934
  698MOL0     C94137   2.463   5.979   4.686 -0.3456 -0.1240  1.0247
  698MOL0     C94138   2.509   6.104   4.606  0.7502  0.2797  0.5036
  698MOL0    Cl94139   2.600   6.047   4.454  0.3353 -0.1856  0.0096
  698MOL0     C94140   2.822   5.100   4.906 -0.0354  0.0515  0.1833
  698MOL0     C94141   2.853   4.975   4.898 -0.2749 -0.2080  0.3117
  698MOL0     O94142   2.944   4.758   4.762  0.6658  0.0569 -0.2522
  698MOL0     C94143   2.970   4.479   4.780 -0.2294  0.5195  0.9126
  698MOL0     C94144   2.974   4.346   4.743 -0.2355  0.4922  0.4626
  698MOL0     N94145   2.862   3.449   4.939 -0.3675  0.5933  0.5165
  698MOL0     N94146   2.790   3.343   4.977 -0.0701 -1.4474 -0.5740
  698MOL0     C94147   2.058   3.531   4.313 -0.1060  0.3053  0.4501
  698MOL0     C94148   1.946   3.613   4.302  0.6507  1.1021 -0.1000
  698MOL0     C94149   1.519   3.742   4.192  0.1596 -0.5602  0.7217
  698MOL0     C94150   1.529   3.869   4.137  0.0797 -0.2720  0.1858
  698MOL0     C94151   1.409   3.951   4.121 -0.1330 -0.0453 -0.3868
  698MOL0     C94152   1.287   3.909   4.172  0.2380  0.3212 -0.0894
  698MOL0     O94153   1.173   3.988   4.149 -0.3183  0.1091  0.0005
  698MOL0     C94154   1.123   4.076   4.251 -0.2802  0.1378  0.9196
  698MOL0     C94155   1.221   4.188   4.286 -1.2549  0.5273 -0.1626
  698MOL0     C94156   1.145   4.303   4.336  0.4557  0.2902  0.2366
  698MOL0     C94157   1.240   4.414   4.384 -0.2313 -0.0051 -0.0063
  698MOL0     C94158   1.153   4.499   4.466 -0.7141  0.3378  0.0537
  698MOL0     C94159   1.082   4.575   4.535  0.7247  0.7781 -0.1964
  698MOL0     C94160   1.281   3.779   4.241  0.5422 -0.5886 -0.1416
  698MOL0     C94161   1.394   3.692   4.235  0.9071  0.6421  0.6522
  698MOL0     C94162   1.379   3.554   4.298 -0.5537  1.1594  0.2952
  698MOL0     H94163   1.847   3.509   3.992  0.3531 -1.8919  1.4645
  698MOL0     H94164   2.029   3.348   4.032 -0.3031  1.4722 -1.7436
  698MOL0     H94165   2.354   3.442   4.117 -0.7273  2.3641  0.7467
  698MOL0     H94166   2.317   3.516   4.274  0.5703 -0.3393  0.8121
  698MOL0     H94167   2.524   3.373   4.251  0.5915  2.3091  1.6161
  698MOL0     H94168   2.427   3.224   4.240 -2.6965 -0.2772  0.8172
  698MOL0     H94169   2.333   3.298   4.468  0.0123  0.0450  2.1734
  698MOL0     H94170   2.469   3.406   4.482 -2.3648 -1.6427  1.9317
  698MOL0     H94171   2.483   3.106   4.473  3.6234 -1.8379 -1.3806
  698MOL0     H94172   2.621   3.222   4.468 -0.5510 -1.8563 -2.3722
  698MOL0     H94173   2.496   3.329   4.675 -2.4390 -0.0912  2.0451
  698MOL0     H94174   2.392   3.196   4.662  0.5394 -1.2972  1.0149
  698MOL0     H94175   2.626   3.048   4.681  1.2305  1.0346 -3.4074
  698MOL0     H94176   2.691   3.206   4.733 -0.1149 -1.2893  0.8402
  698MOL0     H94177   2.625   3.067   4.939 -2.2237 -1.5423  1.8482
  698MOL0     H94178   2.465   3.080   4.891 -1.7023  0.6555 -2.5316
  698MOL0     H94179   2.456   3.323   4.913 -0.3209 -1.2989 -1.9580
  698MOL0     H94180   2.541   3.258   5.056  0.3553  1.0612  0.4347
  698MOL0     H94181   2.599   3.488   4.757 -1.3110  1.1894 -0.3076
  698MOL0     H94182   2.930   3.667   4.820  0.5421  0.3262 -0.1197
  698MOL0     H94183   2.819   3.632   4.684 -0.1600  2.8908 -0.2236
  698MOL0     H94184   2.641   3.772   4.849  0.2365 -0.8621  2.0090
  698MOL0     H94185   2.792   3.804   4.932 -1.5830 -0.3907  0.6732
  698MOL0     H94186   2.691   3.891   4.675 -1.6462 -0.0338  1.2285
  698MOL0     H94187   2.869   3.882   4.675 -0.8311  0.9550 -0.9361
  698MOL0     H94188   2.851   4.022   4.889 -1.8612  1.7470  1.8234
  698MOL0     H94189   2.694   4.058   4.842  0.2275 -1.2389 -1.0404
  698MOL0     H94190   2.631   4.288   4.825  0.8446  0.8062 -0.8821
  698MOL0     H94191   2.642   4.517   4.893 -0.8934 -1.9100  1.5600
  698MOL0     H94192   2.539   4.864   4.954  1.6184  0.0516  1.3998
  698MOL0     H94193   2.482   5.097   4.902 -0.2946 -1.3155 -0.0337
  698MOL0     H94194   2.560   5.354   4.781  2.4587 -0.7747  0.2571
  698MOL0     H94195   2.468   5.315   4.932  1.8174 -2.7322  0.6634
  698MOL0     H94196   2.563   5.518   5.035 -1.7217 -0.5335  0.1847
  698MOL0     H94197   2.657   5.538   4.896  1.3729 -3.0778 -0.2726
  698MOL0     H94198   2.402   5.535   4.795 -0.5452 -2.6071  1.1386
  698MOL0     H94199   2.364   5.577   4.969  1.0217  0.8303  1.3907
  698MOL0     H94200   2.454   5.781   4.977  2.9087  1.4335 -0.2338
  698MOL0     H94201   2.345   5.763   4.843 -0.3770  0.1404  0.0180
  698MOL0     H94202   2.554   5.720   4.685 -0.6739  0.5902 -0.1425
  698MOL0     H94203   2.661   5.748   4.826  1.5700 -0.5993 -3.3103
  698MOL0     H94204   2.559   5.959   4.868 -1.0934  0.8611 -1.3822
  698MOL0     H94205   2.670   5.944   4.732  0.4023  2.6279  1.4470
  698MOL0     H94206   2.371   6.004   4.739 -2.6529 -4.2031 -0.5328
  698MOL0     H94207   2.440   5.898   4.615  0.7181  2.9179 -3.1701
  698MOL0     H94208   2.415   6.152   4.575 -1.2466 -3.4755  0.0931
  698MOL0     H94209   2.566   6.176   4.665  1.4045  1.2332 -1.2236
  698MOL0     H94210   2.899   5.176   4.897 -0.9173  1.6696  4.1284
  698MOL0     H94211   2.957   4.946   4.907 -0.0960  0.7638  1.7010
  698MOL0     H94212   3.059   4.539   4.759 -0.2178  0.1594 -0.1127
  698MOL0     H94213   3.060   4.298   4.698 -0.4073  0.0854  0.5610
  698MOL0     H94214   2.122   3.546   4.400  1.5335  3.3287 -1.1108
  698MOL0     H94215   1.914   3.689   4.373 -2.7696 -0.2234 -0.0546
  698MOL0     H94216   1.619   3.912   4.095  0.2622  2.3663  2.9500
  698MOL0     H94217   1.421   4.050   4.076 -2.4184 -0.5582 -2.3059
  698MOL0     H94218   1.087   4.030   4.343 -2.8256  2.5132  1.2413
  698MOL0     H94219   1.038   4.116   4.195  2.7225  2.1795 -2.6623
  698MOL0     H94220   1.295   4.213   4.211 -0.2944 -0.0341  0.5711
  698MOL0     H94221   1.289   4.146   4.361 -1.1228  1.6299  0.3538
  698MOL0     H94222   1.074   4.268   4.412  0.3086  1.1311  0.4883
  698MOL0     H94223   1.082   4.349   4.260 -2.2293 -2.9377  0.2421
  698MOL0     H94224   1.310   4.377   4.459  0.3146 -0.0395 -0.5267
  698MOL0     H94225   1.283   4.472   4.302  0.3816  0.4668  0.6357
  698MOL0     H94226   1.024   4.636   4.602 -1.2401 -0.6325 -0.5049
  698MOL0     H94227   1.187   3.737   4.275  0.3054 -0.1351 -0.2242
  698MOL0     H94228   1.356   3.482   4.219 -5.2502  1.3315  1.2169
  698MOL0     H94229   1.465   3.532   4.362 -0.5283 -0.1948 -0.1819
  698MOL0     H94230   1.285   3.558   4.353 -1.0807  5.5491 -0.5104
  699MOL0     O94231   7.567  11.278   2.452 -0.9023  0.5381 -0.0079
  699MOL0     C94232   7.573  11.350   2.552  0.2198  0.9918  0.5738
  699MOL0     O94233   7.670  11.435   2.586  0.5602  0.4610  0.0170
  699MOL0     C94234   7.775  11.440   2.497 -0.5871 -0.1688 -0.8071
  699MOL0     C94235   7.761  11.468   2.363  0.3453  0.4659 -1.0486
  699MOL0     C94236   7.871  11.452   2.281 -0.9917 -0.1524 -0.4609
  699MOL0     C94237   8.001  11.425   2.335  0.3834 -0.5330  0.0956
  699MOL0     O94238   8.107  11.401   2.249 -0.2371 -0.2748 -0.7511
  699MOL0     C94239   8.163  11.516   2.182 -0.0620  0.0780 -0.2122
  699MOL0     C94240   8.127  11.513   2.027  0.0488  0.8256  0.0417
  699MOL0     C94241   8.201  11.403   1.954 -0.2625  0.1884  0.7559
  699MOL0     C94242   8.179  11.404   1.800 -0.4168 -0.4044  0.4074
  699MOL0     C94243   8.301  11.380   1.723  0.3281 -0.9340  0.3683
  699MOL0     C94244   8.291  11.428   1.575 -0.0788 -0.1610 -0.4334
  699MOL0     C94245   8.418  11.382   1.508  0.1639 -0.8652  0.2148
  699MOL0     C94246   8.420  11.396   1.358  0.5324  0.7242  0.6419
  699MOL0     N94247   8.552  11.381   1.302 -0.0596 -0.0220  0.8440
  699MOL0     C94248   8.647  11.480   1.280  0.6668  0.2040 -0.0473
  699MOL0     C94249   8.746  11.412   1.214  0.1680  0.0745  0.4514
  699MOL0     C94250   8.876  11.466   1.174  0.0914  0.3082  1.5406
  699MOL0     C94251   8.997  11.410   1.244  0.7156  0.8479 -0.1884
  699MOL0     C94252   8.983  11.337   1.387  0.2772  0.0819  1.2065
  699MOL0     C94253   8.998  11.184   1.371  0.3285  0.5704  0.1076
  699MOL0     O94254   8.999  11.125   1.503 -0.1087 -1.1485 -0.5089
  699MOL0     C94255   8.878  11.094   1.559 -0.2883 -0.5459  0.0225
  699MOL0     C94256   8.893  11.030   1.690  0.5653 -1.2163 -0.4330
  699MOL0     C94257   8.789  10.980   1.762 -0.9297 -0.2572 -0.8087
  699MOL0     C94258   8.653  11.011   1.718 -0.4609 -0.4105 -1.0488
  699MOL0     C94259   8.539  10.949   1.780  0.5550  0.3985  0.4793
  699MOL0     O94260   8.419  10.971   1.710 -0.4621 -0.4996  0.0434
  699MOL0     C94261   8.305  10.910   1.762 -0.3107 -1.1204  0.3015
  699MOL0     C94262   8.276  10.778   1.734  0.3973  0.8393 -0.4045
  699MOL0     C94263   8.170  10.711   1.801 -1.3222  0.1898  0.5420
  699MOL0     C94264   8.106  10.779   1.913  0.6724 -1.4199 -0.6483
  699MOL0     O94265   8.012  10.718   1.988 -0.7225  0.1839 -1.3552
  699MOL0     C94266   7.924  10.640   1.915 -0.2078 -0.0758  0.6815
  699MOL0     C94267   7.799  10.596   1.990  0.4951  0.1981 -0.9394
  699MOL0     C94268   7.737  10.725   2.069  0.4253  0.1049  0.0537
  699MOL0     C94269   7.587  10.690   2.123 -0.1088 -0.5384 -0.5575
  699MOL0     C94270   7.470  10.681   2.029  0.0503  0.1119  0.4633
  699MOL0     C94271   7.345  10.636   2.106  0.8485  0.5708 -0.1285
  699MOL0     C94272   7.218  10.598   2.022 -0.2907  0.4043 -0.7948
  699MOL0     C94273   7.175  10.717   1.938  0.3508  0.8602 -0.5527
  699MOL0    Cl94274   7.105  10.675   1.791 -0.2600 -0.0193 -0.0761
  699MOL0     C94275   8.137  10.916   1.936  0.0073  0.4094  1.0627
  699MOL0     C94276   8.230  10.983   1.851  0.2212 -0.0249  0.0996
  699MOL0     O94277   8.555  10.886   1.884 -0.4835  0.4298  0.0142
  699MOL0     C94278   8.640  11.074   1.596  0.2775 -0.8929 -0.9260
  699MOL0     C94279   8.752  11.103   1.516  1.0688 -0.2421 -0.3201
  699MOL0     N94280   8.719  11.278   1.216  0.4506 -0.0223  0.0606
  699MOL0     N94281   8.600  11.263   1.252 -0.4993  0.3600  0.4762
  699MOL0     C94282   8.017  11.403   2.467  0.0033  0.3124  0.4147
  699MOL0     C94283   7.909  11.421   2.558  0.1067  0.2163 -0.1157
  699MOL0     C94284   7.450  11.365   2.623 -0.1042  0.8662  0.1300
  699MOL0     C94285   7.391  11.490   2.617 -0.1411  0.5073  0.3435
  699MOL0     C94286   7.271  11.516   2.685  0.2977  0.0675 -0.0161
  699MOL0     C94287   7.207  11.415   2.757 -0.3381 -0.2493  0.5453
  699MOL0     O94288   7.092  11.437   2.806  0.2918 -0.6879 -0.5208
  699MOL0     C94289   7.090  11.467   2.943  0.4228 -0.4708  0.3301
  699MOL0     C94290   6.981  11.562   2.989 -0.3272 -0.6275  0.1459
  699MOL0     C94291   6.990  11.700   2.920  0.1522 -0.7125  0.1974
  699MOL0     C94292   6.882  11.796   2.970 -0.3815 -0.3439  0.0491
  699MOL0     C94293   6.751  11.738   2.933 -0.4330 -0.0932  0.0079
  699MOL0     C94294   6.646  11.702   2.880  0.0378 -0.4511  0.5612
  699MOL0     C94295   7.261  11.290   2.761 -0.5994  0.3630 -0.3543
  699MOL0     C94296   7.377  11.262   2.695 -0.0036 -0.1579  0.2659
  699MOL0     C94297   7.423  11.114   2.701 -0.0851  0.0915 -0.7361
  699MOL0     H94298   7.669  11.481   2.307 -1.0509  0.2190  1.0731
  699MOL0     H94299   7.859  11.454   2.174  1.4616  3.1871 -0.8490
  699MOL0     H94300   8.116  11.603   2.230 -0.4969  0.0735 -0.6249
  699MOL0     H94301   8.271  11.526   2.189 -0.2622  1.9514  0.8693
  699MOL0     H94302   8.138  11.612   1.982  3.5554  0.6368  0.2541
  699MOL0     H94303   8.020  11.494   2.009  0.5053  0.3723 -2.7274
  699MOL0     H94304   8.179  11.303   1.991  2.9310 -0.7657  0.3621
  699MOL0     H94305   8.299  11.443   1.982 -1.9843  1.9603  4.9640
  699MOL0     H94306   8.116  11.316   1.781  1.2938 -2.0094  1.7469
  699MOL0     H94307   8.131  11.494   1.761  0.8112  0.5175  0.9745
  699MOL0     H94308   8.379  11.443   1.766 -0.3143 -1.3821  2.3455
  699MOL0     H94309   8.331  11.275   1.733  0.5242 -0.9727 -0.5816
  699MOL0     H94310   8.199  11.395   1.526 -1.5079  0.8895  1.3700
  699MOL0     H94311   8.283  11.536   1.561  0.2778  0.3131  2.4070
  699MOL0     H94312   8.441  11.280   1.538 -0.8430 -0.5068  2.3961
  699MOL0     H94313   8.502  11.449   1.533 -0.4259  1.3480 -3.0477
  699MOL0     H94314   8.354  11.313   1.330  1.1791  0.2106  0.6255
  699MOL0     H94315   8.376  11.493   1.333  0.5773  0.5829  0.0140
  699MOL0     H94316   8.640  11.588   1.293  0.3600  0.3595 -1.3489
  699MOL0     H94317   8.894  11.435   1.071 -1.2921 -3.4882  2.3012
  699MOL0     H94318   8.869  11.575   1.177  0.8794  0.5543 -1.8814
  699MOL0     H94319   9.043  11.333   1.182  1.6434  0.7594  0.5757
  699MOL0     H94320   9.060  11.496   1.268  0.9340 -0.0699  3.0790
  699MOL0     H94321   8.885  11.352   1.433 -0.1808  0.1687  0.2149
  699MOL0     H94322   9.058  11.378   1.456 -0.0631  0.7742  1.1646
  699MOL0     H94323   9.099  11.171   1.331  0.4132 -2.2235  1.0371
  699MOL0     H94324   8.922  11.150   1.300  0.2362 -0.5979  0.7476
  699MOL0     H94325   8.998  11.023   1.718  0.1778 -1.0832  1.1666
  699MOL0     H94326   8.812  10.930   1.856  4.2132  0.5031 -1.3647
  699MOL0     H94327   8.343  10.724   1.667  2.1858  1.3034  0.9259
  699MOL0     H94328   8.145  10.609   1.774 -0.9885  0.4092 -0.6671
  699MOL0     H94329   7.897  10.702   1.829  1.1590 -0.6897 -0.2277
  699MOL0     H94330   7.975  10.551   1.877 -0.6357  0.8260 -2.2462
  699MOL0     H94331   7.721  10.565   1.919  2.0702 -0.9814 -2.2252
  699MOL0     H94332   7.836  10.516   2.055  1.6141 -0.8626 -2.7788
  699MOL0     H94333   7.794  10.756   2.156 -0.2207  2.2116 -0.2351
  699MOL0     H94334   7.733  10.812   2.004  1.1273  1.7135  2.0725
  699MOL0     H94335   7.567  10.772   2.193  2.5181  2.4967 -3.0619
  699MOL0     H94336   7.592  10.603   2.189  1.2200 -0.9394 -1.1494
  699MOL0     H94337   7.488  10.592   1.968 -0.5681  0.4051 -0.1561
  699MOL0     H94338   7.442  10.773   1.977  0.8666 -0.0932 -0.3675
  699MOL0     H94339   7.371  10.555   2.174 -2.2616  1.4331  2.2961
  699MOL0     H94340   7.303  10.718   2.164 -0.9596 -0.0960 -0.4361
  699MOL0     H94341   7.134  10.565   2.084  0.0598 -3.2401 -2.0258
  699MOL0     H94342   7.247  10.514   1.958  1.0537  1.3124 -1.4330
  699MOL0     H94343   7.105  10.778   1.996  1.3597  1.4846  0.0416
  699MOL0     H94344   7.252  10.788   1.906  1.4490 -1.5299 -3.6925
  699MOL0     H94345   8.077  10.966   2.011 -2.7606  0.3534 -0.9764
  699MOL0     H94346   8.258  11.086   1.868  1.4145 -0.4272  0.6795
  699MOL0     H94347   8.540  11.095   1.561 -0.9480 -2.4692  1.3222
  699MOL0     H94348   8.732  11.151   1.421 -2.1675 -0.1639  0.2677
  699MOL0     H94349   8.119  11.388   2.501  0.1110  2.3183  1.1018
  699MOL0     H94350   7.921  11.408   2.665 -2.5604  3.4691  0.7176
  699MOL0     H94351   7.439  11.579   2.576 -1.0075  0.6344 -0.4306
  699MOL0     H94352   7.243  11.621   2.685  0.8323  0.2128 -0.1476
  699MOL0     H94353   7.185  11.510   2.977 -0.6177  1.5713  0.8144
  699MOL0     H94354   7.084  11.371   2.995  0.7971 -1.4969 -1.4305
  699MOL0     H94355   6.991  11.568   3.098  1.9234 -0.4651 -0.0165
  699MOL0     H94356   6.888  11.511   2.963  0.8679 -1.3769 -3.1885
  699MOL0     H94357   6.983  11.688   2.811 -1.2758  1.2745  0.0065
  699MOL0     H94358   7.077  11.754   2.959  1.1208 -0.0585 -2.6086
  699MOL0     H94359   6.884  11.794   3.079  0.2526 -0.5683  0.0408
  699MOL0     H94360   6.900  11.898   2.934 -0.3505  0.3371  1.9213
  699MOL0     H94361   6.560  11.662   2.830 -1.6275  4.7002 -1.2677
  699MOL0     H94362   7.208  11.210   2.811  0.5293  0.5253  1.1553
  699MOL0     H94363   7.415  11.069   2.601 -1.0494  1.8522 -1.4938
  699MOL0     H94364   7.524  11.100   2.741  0.9891 -1.3418 -3.6029
  699MOL0     H94365   7.357  11.060   2.770  3.1857 -3.9101 -0.3378
  700MOL0     O94366   5.092   3.211   6.513 -0.6396 -0.0832 -0.0420
  700MOL0     C94367   5.082   3.221   6.634 -0.0262 -0.0167  0.3798
  700MOL0     O94368   4.967   3.195   6.701  0.0312 -0.3249 -0.5060
  700MOL0     C94369   4.847   3.145   6.642 -0.0314  0.0132 -0.7586
  700MOL0     C94370   4.737   3.197   6.703 -0.1659 -0.3781  0.1755
  700MOL0     C94371   4.619   3.151   6.654  1.3659 -0.0830 -0.6018
  700MOL0     C94372   4.600   3.060   6.551 -0.2721 -0.3385  0.0850
  700MOL0     O94373   4.476   3.021   6.501 -0.0358  0.6220 -0.0389
  700MOL0     C94374   4.383   3.120   6.492  0.7374  0.0845 -0.4391
  700MOL0     C94375   4.298   3.090   6.357 -0.3994 -0.1431 -0.5763
  700MOL0     C94376   4.212   3.212   6.321  0.3612  0.4386  0.3310
  700MOL0     C94377   4.082   3.156   6.253 -0.0279  1.1983  0.4399
  700MOL0     C94378   3.991   3.252   6.193  0.1838  0.5943 -0.1708
  700MOL0     C94379   4.042   3.314   6.070  0.0055 -0.5088  0.1402
  700MOL0     C94380   3.961   3.445   6.046  0.0957  0.5965  0.4953
  700MOL0     C94381   3.832   3.427   5.957  0.1025 -0.2418 -0.2508
  700MOL0     N94382   3.843   3.446   5.807  0.2992  0.9990  0.0417
  700MOL0     C94383   3.956   3.436   5.730  0.2626  0.9036 -0.6235
  700MOL0     C94384   3.911   3.414   5.606  0.3794  0.2320  0.0093
  700MOL0     C94385   3.977   3.425   5.466 -0.0723  0.4935  0.0309
  700MOL0     C94386   4.127   3.386   5.462  0.1105 -0.3796 -0.5851
  700MOL0     C94387   4.180   3.322   5.335 -0.6422 -0.5109  0.1940
  700MOL0     C94388   4.213   3.424   5.230 -0.4340 -0.2324  0.5631
  700MOL0     O94389   4.220   3.380   5.089  0.2516  0.5022  0.7246
  700MOL0     C94390   4.130   3.426   4.996 -0.0615 -0.3222 -0.4903
  700MOL0     C94391   4.099   3.347   4.885  0.3190 -1.2091 -0.8912
  700MOL0     C94392   4.024   3.400   4.782 -0.6035  0.5321 -0.2666
  700MOL0     C94393   3.972   3.529   4.785 -0.0601 -0.1372  0.4543
  700MOL0     C94394   3.890   3.588   4.672 -0.5007 -1.1662 -0.6958
  700MOL0     O94395   3.862   3.518   4.561  0.3904 -0.3360 -0.4345
  700MOL0     C94396   3.783   3.574   4.463 -0.1284 -0.4596  0.1309
  700MOL0     C94397   3.825   3.559   4.326 -1.0122  0.0051 -0.3268
  700MOL0     C94398   3.748   3.590   4.214  1.0665  0.0456 -0.4293
  700MOL0     C94399   3.624   3.650   4.245  0.5085  0.4036 -0.1129
  700MOL0     O94400   3.548   3.680   4.141  1.0197  0.1747  1.3794
  700MOL0     C94401   3.471   3.564   4.118  0.4959  1.0201 -0.2085
  700MOL0     C94402   3.354   3.603   4.028  0.3011  0.6782 -0.2837
  700MOL0     C94403   3.383   3.647   3.887 -1.1688 -0.0424 -1.2002
  700MOL0     C94404   3.287   3.587   3.783  0.0900 -0.4244 -0.5511
  700MOL0     C94405   3.354   3.590   3.648  0.3943  0.4278  0.4313
  700MOL0     C94406   3.375   3.731   3.596 -0.0630  0.6821  0.3967
  700MOL0     C94407   3.264   3.842   3.609 -0.8210  0.5053  0.2737
  700MOL0     C94408   3.149   3.802   3.516 -0.1621 -0.0230 -0.1945
  700MOL0    Cl94409   3.203   3.833   3.347  0.2994  0.4377 -0.1362
  700MOL0     C94410   3.579   3.665   4.380 -0.0402 -1.1355  0.2851
  700MOL0     C94411   3.651   3.620   4.485  0.7181 -0.8525 -0.5790
  700MOL0     O94412   3.867   3.712   4.678 -0.4131  0.6741 -0.0316
  700MOL0     C94413   4.001   3.605   4.889  1.0388 -0.0762 -0.3313
  700MOL0     C94414   4.086   3.560   4.993  0.3306  0.1180  0.1739
  700MOL0     N94415   3.779   3.399   5.620  0.1305  0.3756  0.6265
  700MOL0     N94416   3.729   3.431   5.734  0.0921  0.2803  1.0089
  700MOL0     C94417   4.709   3.027   6.478  0.4758 -0.5522  0.4598
  700MOL0     C94418   4.831   3.061   6.531  0.3269  0.3210  0.5939
  700MOL0     C94419   5.210   3.255   6.709 -0.5281 -0.3585 -0.4276
  700MOL0     C94420   5.206   3.225   6.850  0.0687 -0.1698  0.2941
  700MOL0     C94421   5.316   3.250   6.923 -0.7957 -0.0930  0.0067
  700MOL0     C94422   5.431   3.317   6.871  0.8739 -0.3927 -0.2632
  700MOL0     O94423   5.546   3.353   6.944  0.3721 -0.0113  0.3040
  700MOL0     C94424   5.571   3.327   7.084  0.4180  0.0913  0.3291
  700MOL0     C94425   5.660   3.428   7.144  0.8097  1.0028 -0.5180
  700MOL0     C94426   5.611   3.571   7.146 -0.2865  0.0282  0.1543
  700MOL0     C94427   5.725   3.663   7.210  0.6521  0.5172 -0.1162
  700MOL0     C94428   5.845   3.643   7.135  0.2691  0.8710 -0.5071
  700MOL0     C94429   5.950   3.638   7.072  0.4847 -0.3224 -0.1816
  700MOL0     C94430   5.427   3.355   6.739  0.5902 -0.7766 -0.2129
  700MOL0     C94431   5.321   3.325   6.653 -0.1714 -0.6150  0.1001
  700MOL0     C94432   5.327   3.358   6.510  0.1485 -0.4371  0.0054
  700MOL0     H94433   4.739   3.256   6.795  0.7089  0.2178 -0.2202
  700MOL0     H94434   4.533   3.175   6.716  2.4433 -1.5340  1.5906
  700MOL0     H94435   4.322   3.136   6.582  1.4996  0.2550  0.0543
  700MOL0     H94436   4.439   3.212   6.474  1.4621 -0.2026  0.3061
  700MOL0     H94437   4.227   3.007   6.367 -0.2795 -0.0046  1.9802
  700MOL0     H94438   4.373   3.069   6.280  1.4171 -0.9624  1.3411
  700MOL0     H94439   4.270   3.282   6.260 -0.1181 -0.2842 -1.0029
  700MOL0     H94440   4.189   3.267   6.412  0.2853 -0.5925  0.9478
  700MOL0     H94441   4.116   3.095   6.169 -1.2951  1.3506 -0.2146
  700MOL0     H94442   4.033   3.080   6.314 -1.6011 -0.3166 -2.4512
  700MOL0     H94443   3.898   3.203   6.165 -0.5337  1.2032  1.0642
  700MOL0     H94444   3.968   3.333   6.263  0.2215 -3.0796  4.6722
  700MOL0     H94445   4.146   3.340   6.086  0.5349 -3.5802  2.5614
  700MOL0     H94446   4.028   3.251   5.981 -4.7377 -0.8535  0.8593
  700MOL0     H94447   4.017   3.521   5.991  0.2805 -1.3367 -2.1869
  700MOL0     H94448   3.943   3.493   6.142 -1.2978 -2.1449  1.7189
  700MOL0     H94449   3.776   3.336   5.982 -2.2112  1.3171  0.6320
  700MOL0     H94450   3.767   3.507   5.995 -0.2170 -0.2649 -0.7320
  700MOL0     H94451   4.058   3.454   5.761  0.2389  0.7258 -0.4455
  700MOL0     H94452   3.918   3.376   5.387  0.6162  1.8540 -1.3911
  700MOL0     H94453   3.968   3.532   5.446 -0.3542  0.2099 -1.5271
  700MOL0     H94454   4.187   3.476   5.477 -1.8705  0.7557  1.0925
  700MOL0     H94455   4.150   3.314   5.540 -3.3259 -0.4460  0.5047
  700MOL0     H94456   4.104   3.250   5.300  1.7318 -1.0774 -4.5992
  700MOL0     H94457   4.271   3.266   5.358 -0.5639 -0.3140  0.3596
  700MOL0     H94458   4.306   3.477   5.253 -1.0831  0.0135  3.0148
  700MOL0     H94459   4.136   3.501   5.244  0.5109  1.1296 -1.3656
  700MOL0     H94460   4.147   3.250   4.882  4.0333  0.1700  3.0623
  700MOL0     H94461   4.009   3.330   4.701  2.2419 -1.0698  0.4400
  700MOL0     H94462   3.930   3.536   4.317 -1.3687 -0.9377 -2.9990
  700MOL0     H94463   3.790   3.586   4.114  2.4452 -0.6419  0.1448
  700MOL0     H94464   3.531   3.490   4.064  0.9146  0.2348  1.2600
  700MOL0     H94465   3.415   3.530   4.206  0.5387 -1.4282 -1.0487
  700MOL0     H94466   3.282   3.521   4.024 -1.9359  2.5793 -3.1476
  700MOL0     H94467   3.296   3.675   4.086  0.0288 -2.4987  3.8948
  700MOL0     H94468   3.391   3.756   3.873 -1.5481  0.5067  2.1431
  700MOL0     H94469   3.485   3.618   3.861 -1.8568 -1.4864 -2.4769
  700MOL0     H94470   3.188   3.635   3.781 -0.7303 -1.8734  1.6402
  700MOL0     H94471   3.261   3.483   3.805 -1.8967 -0.1410 -1.3167
  700MOL0     H94472   3.288   3.539   3.577 -0.0395  0.3724  0.8747
  700MOL0     H94473   3.450   3.537   3.645  0.0530 -0.6859  4.0999
  700MOL0     H94474   3.468   3.774   3.636 -0.7840  2.4547  0.2680
  700MOL0     H94475   3.391   3.726   3.487 -2.2058 -0.0119  0.0670
  700MOL0     H94476   3.304   3.936   3.570 -0.9875  0.7721  0.7432
  700MOL0     H94477   3.228   3.847   3.712  0.2992 -0.7243  0.7565
  700MOL0     H94478   3.109   3.701   3.532 -1.8326  0.6821  0.3503
  700MOL0     H94479   3.064   3.867   3.537 -0.2381  0.7236 -2.4906
  700MOL0     H94480   3.475   3.692   4.394 -0.2241  1.1257 -3.8103
  700MOL0     H94481   3.606   3.632   4.583  0.9672 -2.3947 -0.2464
  700MOL0     H94482   3.954   3.701   4.904 -1.2492 -1.1294 -0.3033
  700MOL0     H94483   4.124   3.625   5.071  1.7979 -3.2344  2.5120
  700MOL0     H94484   4.684   2.991   6.379 -1.5176  1.6628  0.0605
  700MOL0     H94485   4.922   3.029   6.480 -0.4034 -0.8528 -0.0120
  700MOL0     H94486   5.125   3.172   6.901 -1.0705  1.0639 -0.1893
  700MOL0     H94487   5.324   3.205   7.022  1.3786 -0.2547 -0.1931
  700MOL0     H94488   5.615   3.227   7.082 -1.4723 -0.7715 -0.1190
  700MOL0     H94489   5.471   3.322   7.129  0.2740  0.5632  0.0701
  700MOL0     H94490   5.764   3.418   7.111  1.9114 -0.5189  2.9295
  700MOL0     H94491   5.669   3.404   7.250 -3.0052 -2.4333 -0.7359
  700MOL0     H94492   5.519   3.584   7.203 -0.7763 -1.4919 -0.2562
  700MOL0     H94493   5.586   3.610   7.047 -0.0098  0.8992  0.4216
  700MOL0     H94494   5.691   3.767   7.202 -2.0357 -0.3530 -1.2305
  700MOL0     H94495   5.733   3.648   7.318 -2.2905  2.3422  0.4736
  700MOL0     H94496   6.041   3.643   7.016  0.4637  0.3770 -0.1604
  700MOL0     H94497   5.518   3.405   6.707 -0.1717  1.0816  0.4178
  700MOL0     H94498   5.423   3.397   6.475 -0.3286  0.0665 -0.7755
  700MOL0     H94499   5.308   3.271   6.448 -2.1292  0.3219 -0.4504
  700MOL0     H94500   5.255   3.439   6.494  0.4119  1.1404  4.9827
  701MOL0     O94501  11.450   0.429  10.921  0.2294  0.5117 -0.0004
  701MOL0     C94502  11.402   0.476  11.022  0.0369 -0.4277  0.5693
  701MOL0     O94503  11.458   0.587  11.084  0.5929  0.5820  0.1033
  701MOL0     C94504  11.580   0.634  11.029  0.3114  0.0794 -0.2300
  701MOL0     C94505  11.695   0.557  11.005 -0.1945 -0.5320 -0.2253
  701MOL0     C94506  11.805   0.602  10.936  0.0171 -0.0372  0.2097
  701MOL0     C94507  11.802   0.727  10.881  0.1056  1.0372 -0.2693
  701MOL0     O94508  11.899   0.770  10.794  0.1853 -0.0450  0.0848
  701MOL0     C94509  12.017   0.691  10.760  0.5228 -0.0611  0.3445
  701MOL0     C94510  12.127   0.754  10.681  0.2877 -0.3798  0.2074
  701MOL0     C94511  12.214   0.835  10.771  0.1790  0.3905  0.7842
  701MOL0     C94512  12.326   0.904  10.689  0.0859  0.1608  0.3163
  701MOL0     C94513  12.419   0.987  10.770  0.4658  1.2170 -0.2628
  701MOL0     C94514  12.520   1.058  10.688  0.7188 -0.0889  1.0298
  701MOL0     C94515  12.633   1.127  10.775  0.1112  0.5051  0.3227
  701MOL0     C94516  12.754   1.173  10.690 -0.2093 -0.4801  0.5695
  701MOL0     N94517  12.870   1.206  10.768  0.8464  0.2890 -0.2148
  701MOL0     C94518  12.991   1.148  10.776  0.8095  0.6363 -0.2187
  701MOL0     C94519  13.055   1.222  10.875 -0.4171  0.0561  0.2089
  701MOL0     C94520  13.182   1.182  10.958 -0.2628  0.1391  0.4168
  701MOL0     C94521  13.149   1.042  11.016  0.3232  0.0018  0.7597
  701MOL0     C94522  13.027   1.023  11.120 -0.6908 -0.3832  1.1060
  701MOL0     C94523  13.065   1.086  11.250 -0.6424  0.0371 -0.2234
  701MOL0     O94524  12.965   1.093  11.351  0.2952  0.6554  0.0299
  701MOL0     C94525  12.911   0.974  11.398  0.6615  0.0143  1.0937
  701MOL0     C94526  12.823   0.890  11.313 -1.4341  0.6179 -0.2851
  701MOL0     C94527  12.783   0.764  11.359 -1.0515 -0.4388 -0.3136
  701MOL0     C94528  12.827   0.721  11.485  0.4586  0.6136 -0.8116
  701MOL0     C94529  12.764   0.600  11.540  0.4425  0.1038  0.0483
  701MOL0     O94530  12.694   0.518  11.444 -0.4174  0.6272  0.4894
  701MOL0     C94531  12.635   0.404  11.487 -0.3536  0.1678  0.0188
  701MOL0     C94532  12.714   0.293  11.490 -0.6191  0.5523  0.5196
  701MOL0     C94533  12.662   0.161  11.528  0.3589  0.1156  0.1862
  701MOL0     C94534  12.526   0.155  11.565 -0.4044 -0.7711  0.5300
  701MOL0     O94535  12.460   0.033  11.578  0.5037 -0.4915 -0.8246
  701MOL0     C94536  12.530  -0.084  11.569  0.2297  0.1015  0.4462
  701MOL0     C94537  12.417  -0.199  11.574 -0.3076  0.4918 -0.1216
  701MOL0     C94538  12.308  -0.213  11.464  0.0559 -0.2280 -0.6028
  701MOL0     C94539  12.206  -0.099  11.442  0.6141 -0.6385 -0.7291
  701MOL0     C94540  12.092  -0.163  11.358  0.1145  0.2263  0.0740
  701MOL0     C94541  11.964  -0.183  11.451  0.7162 -0.3477  1.0579
  701MOL0     C94542  11.986  -0.279  11.566  0.0093 -0.5434  0.9354
  701MOL0     C94543  11.862  -0.309  11.648  1.4225 -0.8742 -0.1320
  701MOL0    Cl94544  11.758  -0.436  11.573  0.0865  0.3106  0.2111
  701MOL0     C94545  12.445   0.271  11.562 -1.0037 -0.0547 -0.4706
  701MOL0     C94546  12.503   0.393  11.520  0.7342  1.4376  0.7124
  701MOL0     O94547  12.772   0.570  11.664  0.0807  0.5798 -0.6247
  701MOL0     C94548  12.915   0.799  11.557  1.3035 -0.2845 -0.4671
  701MOL0     C94549  12.950   0.933  11.526 -0.2609  0.1814 -0.2048
  701MOL0     N94550  12.982   1.330  10.912  0.7001 -0.8247 -0.4777
  701MOL0     N94551  12.865   1.317  10.856 -0.6467  0.0554  0.2885
  701MOL0     C94552  11.691   0.807  10.902 -0.6562  0.3444  0.1968
  701MOL0     C94553  11.582   0.765  10.979  0.5341 -0.2194  0.6017
  701MOL0     C94554  11.294   0.423  11.099 -0.0597  1.4122  0.0809
  701MOL0     C94555  11.301   0.432  11.233 -0.4675  0.2110  0.0061
  701MOL0     C94556  11.216   0.360  11.311  0.5428  0.4156 -0.7986
  701MOL0     C94557  11.110   0.289  11.259 -0.8197  0.2659 -0.1994
  701MOL0     O94558  11.018   0.238  11.349 -0.2585 -0.5546 -0.0306
  701MOL0     C94559  10.882   0.232  11.333  0.2749 -0.4268  0.4073
  701MOL0     C94560  10.835   0.096  11.394  0.7572  1.1591 -0.1136
  701MOL0     C94561  10.681   0.089  11.432 -0.4126 -0.0832 -0.2039
  701MOL0     C94562  10.591   0.097  11.299  1.1773  0.8777  0.4872
  701MOL0     C94563  10.603  -0.038  11.236  0.8437  0.5250  0.6339
  701MOL0     C94564  10.596  -0.143  11.174  0.1000 -0.5630  0.2145
  701MOL0     C94565  11.104   0.269  11.115 -0.6736 -0.4448 -0.5419
  701MOL0     C94566  11.197   0.336  11.037 -0.0442  0.6397 -0.2628
  701MOL0     C94567  11.200   0.305  10.890  0.0299  0.6010  0.5904
  701MOL0     H94568  11.709   0.460  11.052  0.3622  0.2064  1.1591
  701MOL0     H94569  11.891   0.536  10.925  1.3481  1.3788  1.6353
  701MOL0     H94570  12.052   0.643  10.851 -0.0658 -0.1484  0.5297
  701MOL0     H94571  11.975   0.621  10.687  1.5989  1.1447 -1.5047
  701MOL0     H94572  12.085   0.818  10.604 -0.3413 -2.3788 -1.1780
  701MOL0     H94573  12.186   0.677  10.631 -0.4809 -0.8605  0.0295
  701MOL0     H94574  12.248   0.767  10.850 -1.1863 -0.6661  0.4946
  701MOL0     H94575  12.152   0.912  10.819  3.0731  2.6854  1.1390
  701MOL0     H94576  12.391   0.830  10.642 -0.1346 -2.2621  3.4383
  701MOL0     H94577  12.281   0.974  10.619 -2.1492  0.6493  2.0905
  701MOL0     H94578  12.364   1.066  10.822 -0.3514  1.4872 -1.5071
  701MOL0     H94579  12.467   0.919  10.842 -2.1517 -2.4749 -1.6890
  701MOL0     H94580  12.562   0.982  10.621 -2.5320 -1.1040 -0.0314
  701MOL0     H94581  12.475   1.138  10.629 -1.9673  0.2196  3.2892
  701MOL0     H94582  12.669   1.046  10.839 -0.3176 -0.9534 -1.2024
  701MOL0     H94583  12.591   1.204  10.839 -3.5542 -1.7037  0.8599
  701MOL0     H94584  12.766   1.085  10.627 -0.6008  0.0840 -0.3157
  701MOL0     H94585  12.723   1.260  10.631 -0.4916  1.5140  3.4409
  701MOL0     H94586  13.021   1.059  10.722  1.3896  0.2255  0.7563
  701MOL0     H94587  13.268   1.163  10.894  0.7468 -1.6165  2.2022
  701MOL0     H94588  13.214   1.254  11.034  1.8597  0.4037 -0.6576
  701MOL0     H94589  13.133   0.976  10.930  5.0486 -0.1250 -0.3350
  701MOL0     H94590  13.242   0.999  11.053 -0.0420 -0.9637  0.5819
  701MOL0     H94591  12.999   0.918  11.134 -1.4890 -0.5523 -1.2492
  701MOL0     H94592  12.943   1.075  11.075 -0.2215  1.2592  2.0411
  701MOL0     H94593  13.079   1.193  11.233 -2.1848  0.2478 -0.3158
  701MOL0     H94594  13.151   1.036  11.295 -1.7486 -1.2217  0.5843
  701MOL0     H94595  12.790   0.923  11.215 -2.3365  0.0074 -0.1951
  701MOL0     H94596  12.714   0.702  11.301  0.7346 -4.0250  1.0872
  701MOL0     H94597  12.819   0.305  11.462 -0.1564 -1.3259  1.2773
  701MOL0     H94598  12.713   0.066  11.524 -1.6656 -1.1006  1.4362
  701MOL0     H94599  12.581  -0.095  11.472 -0.7505 -0.4925 -0.0192
  701MOL0     H94600  12.593  -0.096  11.658 -4.3933 -2.3029  3.8325
  701MOL0     H94601  12.468  -0.295  11.589  0.7416  1.2763  1.7335
  701MOL0     H94602  12.366  -0.193  11.670 -0.2480  1.0420 -0.1229
  701MOL0     H94603  12.357  -0.226  11.367  3.9357  1.4489  0.9346
  701MOL0     H94604  12.245  -0.298  11.491 -1.2267  1.4648  2.3028
  701MOL0     H94605  12.254  -0.017  11.389 -1.4971  2.5001  1.8883
  701MOL0     H94606  12.174  -0.051  11.534 -0.1684 -1.0410 -0.7793
  701MOL0     H94607  12.123  -0.259  11.315 -2.7097 -0.0865 -1.5038
  701MOL0     H94608  12.072  -0.104  11.268  0.1702  2.5866  1.5214
  701MOL0     H94609  11.918  -0.093  11.494 -1.8938  0.1591 -2.3992
  701MOL0     H94610  11.882  -0.212  11.385  3.0251  1.0980 -2.8101
  701MOL0     H94611  12.063  -0.241  11.633  0.5703 -0.7530  0.4243
  701MOL0     H94612  12.027  -0.376  11.536 -1.9079 -1.2800  0.5428
  701MOL0     H94613  11.886  -0.354  11.745  0.8761 -0.7479  0.0658
  701MOL0     H94614  11.810  -0.218  11.676  1.4155 -0.8796 -0.1257
  701MOL0     H94615  12.340   0.259  11.588 -1.1141 -0.5552 -1.1343
  701MOL0     H94616  12.436   0.479  11.514 -0.1126  0.8693  1.6840
  701MOL0     H94617  12.946   0.764  11.655  1.7108  1.2186 -0.0370
  701MOL0     H94618  13.019   0.993  11.586  1.8165  0.5219 -2.7795
  701MOL0     H94619  11.704   0.910  10.870  4.5275 -0.4168 -1.0284
  701MOL0     H94620  11.497   0.820  11.018  0.9930  0.1001  1.1588
  701MOL0     H94621  11.376   0.488  11.288 -0.6683 -2.2802  3.0922
  701MOL0     H94622  11.215   0.357  11.419  1.1174 -1.7589 -0.8024
  701MOL0     H94623  10.854   0.238  11.228  0.8886 -1.2151  0.1927
  701MOL0     H94624  10.835   0.324  11.371 -2.6867 -0.1359 -3.3808
  701MOL0     H94625  10.883   0.066  11.488  0.5862 -0.9279 -0.6419
  701MOL0     H94626  10.845   0.022  11.314 -0.9426  0.7671 -0.0017
  701MOL0     H94627  10.652   0.163  11.508  0.1801 -0.3975  0.3355
  701MOL0     H94628  10.669  -0.010  11.477 -1.3634 -1.5360 -3.3336
  701MOL0     H94629  10.492   0.137  11.323  0.8910  0.5458 -0.1216
  701MOL0     H94630  10.631   0.174  11.233 -1.1364  0.0582 -2.1135
  701MOL0     H94631  10.592  -0.235  11.120 -0.6648 -0.9391  0.8980
  701MOL0     H94632  11.020   0.213  11.076 -1.8294  1.6832 -1.2803
  701MOL0     H94633  11.112   0.246  10.863  0.1376  0.2979  0.8939
  701MOL0     H94634  11.213   0.402  10.841  5.0082 -0.4366 -0.6402
  701MOL0     H94635  11.290   0.245  10.879 -0.6727 -0.2332 -0.9301
  702MOL0     O94636  11.228   5.957   2.089 -0.0359  0.6258  0.0380
  702MOL0     C94637  11.340   5.973   2.133 -0.3043  0.7722  0.3559
  702MOL0     O94638  11.387   6.069   2.221  0.3826 -0.1692 -0.3251
  702MOL0     C94639  11.324   6.187   2.246  0.7867 -0.2720  0.2878
  702MOL0     C94640  11.354   6.240   2.370 -0.0094 -0.4151 -0.0292
  702MOL0     C94641  11.303   6.373   2.405  0.6794  0.2553  0.2763
  702MOL0     C94642  11.211   6.436   2.324 -1.0020 -0.6250  0.0392
  702MOL0     O94643  11.181   6.567   2.367  1.2630 -0.6256 -0.2200
  702MOL0     C94644  11.060   6.623   2.312 -0.5997 -0.3221 -0.2491
  702MOL0     C94645  11.015   6.761   2.364  0.5168 -0.0535 -0.3586
  702MOL0     C94646  11.000   6.769   2.520 -0.1807 -0.3965  0.0003
  702MOL0     C94647  10.940   6.644   2.579  0.0292 -0.8273  0.1581
  702MOL0     C94648  10.943   6.633   2.731 -0.1620  0.2793 -0.8702
  702MOL0     C94649  11.084   6.621   2.795  1.2873  0.5814 -0.6221
  702MOL0     C94650  11.153   6.489   2.770 -0.4722  0.4193 -0.8986
  702MOL0     C94651  11.246   6.460   2.886 -0.2660 -0.2212 -0.2276
  702MOL0     N94652  11.320   6.336   2.855  0.1156  0.4542  0.9895
  702MOL0     C94653  11.278   6.208   2.883  0.4036  0.5935  0.4992
  702MOL0     C94654  11.386   6.132   2.869  1.2793  0.5921  0.0873
  702MOL0     C94655  11.407   5.982   2.889  0.7023  0.4770 -0.0301
  702MOL0     C94656  11.326   5.891   2.797  0.5835 -0.3345 -0.2444
  702MOL0     C94657  11.375   5.904   2.645  0.9384  0.1764 -0.8727
  702MOL0     C94658  11.259   5.883   2.548 -0.1197 -0.6666  0.2338
  702MOL0     O94659  11.206   5.745   2.540 -0.8056 -0.4533  0.2814
  702MOL0     C94660  11.177   5.679   2.420  0.3446  0.3633  0.5199
  702MOL0     C94661  11.263   5.614   2.338 -0.0091 -0.6931  1.4650
  702MOL0     C94662  11.213   5.541   2.226  1.4255 -0.2214  0.9281
  702MOL0     C94663  11.078   5.552   2.192  0.9875  0.6203  0.2499
  702MOL0     C94664  11.036   5.498   2.060 -0.2193 -0.3633  0.5441
  702MOL0     O94665  10.920   5.438   2.055 -0.4138 -0.2611 -1.0438
  702MOL0     C94666  10.910   5.335   1.966 -0.5807  0.7716 -0.4674
  702MOL0     C94667  10.804   5.344   1.872  0.4356 -0.4808  0.5506
  702MOL0     C94668  10.780   5.238   1.793  0.0169  0.1255 -0.0257
  702MOL0     C94669  10.871   5.129   1.788 -0.1115  0.1571  0.6683
  702MOL0     O94670  10.857   5.034   1.685  0.6813 -0.6327 -0.1303
  702MOL0     C94671  10.835   4.905   1.739  0.5798  0.0223  0.8025
  702MOL0     C94672  10.755   4.808   1.646 -0.2298 -1.1386  0.1025
  702MOL0     C94673  10.615   4.872   1.630 -0.2064  0.2685 -0.2654
  702MOL0     C94674  10.530   4.833   1.508 -0.4708  0.2570 -0.0508
  702MOL0     C94675  10.394   4.893   1.484  0.7759 -0.0678  0.1655
  702MOL0     C94676  10.398   5.049   1.480 -0.0891 -1.4059 -0.3616
  702MOL0     C94677  10.266   5.094   1.423  0.7077 -0.4307  0.7729
  702MOL0     C94678  10.260   5.242   1.426 -0.2879  0.6451 -0.2713
  702MOL0    Cl94679  10.351   5.318   1.303  0.2423  0.5288 -0.0992
  702MOL0     C94680  10.980   5.117   1.877  0.3975 -0.0481 -0.5793
  702MOL0     C94681  10.992   5.219   1.973  0.1138  0.3844 -0.9129
  702MOL0     O94682  11.118   5.497   1.968 -0.7237  0.2087 -0.9239
  702MOL0     C94683  10.985   5.623   2.277  0.2281 -0.2239 -0.8716
  702MOL0     C94684  11.042   5.680   2.390  0.2414 -0.3266  0.0945
  702MOL0     N94685  11.489   6.219   2.836  0.2998 -0.1075  1.1935
  702MOL0     N94686  11.451   6.342   2.829 -0.5620 -0.0512 -0.2711
  702MOL0     C94687  11.192   6.384   2.196  1.0731  0.8662 -0.7982
  702MOL0     C94688  11.244   6.260   2.158  0.4575 -0.4101  0.0975
  702MOL0     C94689  11.440   5.860   2.107 -0.2353 -0.4382 -0.3042
  702MOL0     C94690  11.531   5.832   2.208  1.0036 -0.9062  0.2967
  702MOL0     C94691  11.608   5.723   2.199  0.3312 -0.3304 -0.2295
  702MOL0     C94692  11.612   5.631   2.091 -0.1363  0.3721  0.6970
  702MOL0     O94693  11.710   5.532   2.086  0.1137 -0.4243  0.5416
  702MOL0     C94694  11.802   5.524   1.970  0.7516 -0.3256 -0.6036
  702MOL0     C94695  11.943   5.502   2.015  0.0371 -0.7598 -0.2585
  702MOL0     C94696  11.964   5.378   2.111  0.3622 -1.0819  0.3038
  702MOL0     C94697  12.076   5.415   2.206 -0.8914  0.2050  0.1368
  702MOL0     C94698  12.113   5.296   2.287  0.2387  0.8145  0.3093
  702MOL0     C94699  12.133   5.195   2.356  0.4525 -0.1665 -0.3263
  702MOL0     C94700  11.527   5.666   1.987 -0.2569 -0.1827 -0.6321
  702MOL0     C94701  11.431   5.768   2.002 -0.1168 -0.1829  1.3869
  702MOL0     C94702  11.339   5.784   1.876 -0.2125 -0.9283 -0.8037
  702MOL0     H94703  11.399   6.185   2.452 -0.7293  1.8666  2.0336
  702MOL0     H94704  11.323   6.422   2.499 -2.4771 -0.7939  1.6265
  702MOL0     H94705  11.084   6.636   2.206 -2.1680  4.4545 -0.2492
  702MOL0     H94706  10.982   6.549   2.335 -1.0967 -0.1025 -1.1343
  702MOL0     H94707  10.911   6.776   2.335 -0.1864  1.3964  2.5299
  702MOL0     H94708  11.082   6.842   2.334  1.9899 -0.8688  0.6098
  702MOL0     H94709  10.949   6.859   2.556  0.5380 -1.2279  3.4354
  702MOL0     H94710  11.104   6.778   2.555  1.4473 -2.5834 -3.6785
  702MOL0     H94711  10.835   6.652   2.552 -0.7430  0.7988  3.1733
  702MOL0     H94712  10.984   6.550   2.544  1.2411 -0.0323 -0.5735
  702MOL0     H94713  10.884   6.719   2.762 -2.7623 -1.6012 -0.2845
  702MOL0     H94714  10.891   6.543   2.765 -3.2255  1.6500 -1.5771
  702MOL0     H94715  11.139   6.709   2.759  2.8363 -0.5697 -1.2140
  702MOL0     H94716  11.044   6.634   2.896 -2.4853 -0.8678 -1.7750
  702MOL0     H94717  11.211   6.483   2.677 -0.9124  3.4222 -1.4828
  702MOL0     H94718  11.074   6.414   2.769 -0.3294  0.2665 -1.3688
  702MOL0     H94719  11.305   6.548   2.913  0.3001  0.1633 -2.5612
  702MOL0     H94720  11.195   6.445   2.982 -0.2801  0.5502 -0.1058
  702MOL0     H94721  11.185   6.165   2.918  1.3966 -0.3813  2.1040
  702MOL0     H94722  11.511   5.963   2.863  0.5128 -2.1641  0.8501
  702MOL0     H94723  11.390   5.947   2.991  0.7228  0.3036 -0.0867
  702MOL0     H94724  11.338   5.787   2.827 -1.2479 -1.2753 -2.4602
  702MOL0     H94725  11.224   5.911   2.831  1.2930  1.0999  1.1692
  702MOL0     H94726  11.446   5.825   2.619 -0.0087 -1.7730  1.9370
  702MOL0     H94727  11.421   6.003   2.639  1.3038  0.1839  1.3025
  702MOL0     H94728  11.299   5.903   2.448 -2.5566  2.4149 -0.3224
  702MOL0     H94729  11.170   5.946   2.560  1.1152  1.4432 -1.0185
  702MOL0     H94730  11.370   5.624   2.348 -0.1738  3.1784  0.9199
  702MOL0     H94731  11.284   5.498   2.156  0.9339  2.1286 -1.1683
  702MOL0     H94732  10.739   5.431   1.864  1.0510 -0.2042 -5.1568
  702MOL0     H94733  10.692   5.254   1.730 -0.9950 -2.3153  0.6435
  702MOL0     H94734  10.936   4.864   1.751 -0.0229 -2.4529 -1.7501
  702MOL0     H94735  10.794   4.911   1.840  0.7392  0.5348  0.8421
  702MOL0     H94736  10.820   4.801   1.558 -2.2631  0.8606 -1.6720
  702MOL0     H94737  10.746   4.707   1.689 -0.3573 -0.2699  2.2307
  702MOL0     H94738  10.580   4.841   1.729  1.0646 -0.5491 -0.0464
  702MOL0     H94739  10.625   4.981   1.631  0.6252  0.1993 -0.2315
  702MOL0     H94740  10.529   4.723   1.512  2.9744  0.1007 -0.5577
  702MOL0     H94741  10.590   4.865   1.423 -0.1904 -0.1236 -0.0011
  702MOL0     H94742  10.334   4.859   1.568  1.4433 -1.4170  0.1220
  702MOL0     H94743  10.370   4.858   1.383  1.7664 -2.0106  0.5590
  702MOL0     H94744  10.423   5.092   1.578  1.8795 -1.0643 -0.9624
  702MOL0     H94745  10.482   5.077   1.415  1.1137 -3.0128  0.4144
  702MOL0     H94746  10.176   5.063   1.477  0.2867  1.4678  1.2401
  702MOL0     H94747  10.274   5.077   1.315 -1.3589 -1.0472  0.6648
  702MOL0     H94748  10.156   5.275   1.418 -0.4936  1.0268  2.9155
  702MOL0     H94749  10.289   5.275   1.526 -2.2267 -4.0049  2.1631
  702MOL0     H94750  11.055   5.041   1.858  0.0187 -1.3321  2.4715
  702MOL0     H94751  11.062   5.218   2.055  0.2331  3.8139 -0.8379
  702MOL0     H94752  10.878   5.622   2.258  0.4490 -2.1053 -2.3823
  702MOL0     H94753  10.964   5.734   2.442  0.2157  0.7228 -0.9824
  702MOL0     H94754  11.133   6.447   2.130 -0.8506 -1.2240 -1.2014
  702MOL0     H94755  11.222   6.217   2.060 -0.9173 -3.1113  1.4711
  702MOL0     H94756  11.535   5.889   2.300  0.2753 -0.5818  0.1343
  702MOL0     H94757  11.658   5.699   2.292  0.7073 -0.5345 -0.4803
  702MOL0     H94758  11.792   5.606   1.897 -1.3973 -0.4640 -0.5401
  702MOL0     H94759  11.780   5.428   1.923  2.4400 -2.1080  1.9996
  702MOL0     H94760  11.989   5.593   2.055  1.9250 -0.9041 -1.9478
  702MOL0     H94761  11.994   5.472   1.923  0.2793 -1.1559  0.0018
  702MOL0     H94762  11.999   5.299   2.044 -3.5207 -2.3709 -0.4462
  702MOL0     H94763  11.873   5.344   2.159 -0.2074  0.4053  0.3509
  702MOL0     H94764  12.163   5.444   2.147 -1.2653 -0.6709 -0.8807
  702MOL0     H94765  12.051   5.492   2.279  0.2910  1.3168 -0.5910
  702MOL0     H94766  12.151   5.107   2.415  1.7291  0.8773  0.9114
  702MOL0     H94767  11.531   5.615   1.891 -0.2727  2.4169 -2.1312
  702MOL0     H94768  11.319   5.702   1.806  1.8090 -1.5958 -0.6573
  702MOL0     H94769  11.242   5.812   1.918  0.9787  1.7219  0.4045
  702MOL0     H94770  11.383   5.860   1.812 -3.4220  0.9076 -1.0385
  703MOL0     O94771   5.156   9.953   6.091  0.2740  0.3710  0.0297
  703MOL0     C94772   5.090   9.962   6.189 -0.0385 -0.2703 -0.8784
  703MOL0     O94773   4.956   9.912   6.195  0.0120 -0.4798  0.0968
  703MOL0     C94774   4.908   9.890   6.070  0.0105  0.5271 -1.0842
  703MOL0     C94775   4.868  10.000   5.996 -0.5453  0.1164 -0.5701
  703MOL0     C94776   4.816   9.989   5.863  0.4580 -0.0375  0.3693
  703MOL0     C94777   4.777   9.862   5.824 -0.2970 -0.5558  0.4522
  703MOL0     O94778   4.718   9.849   5.706  0.7507  0.6200  0.2432
  703MOL0     C94779   4.765   9.736   5.630 -0.0530 -0.0708  0.9324
  703MOL0     C94780   4.708   9.765   5.483  0.1701  0.0602  0.1594
  703MOL0     C94781   4.730   9.651   5.386  1.0306  0.1159  0.2718
  703MOL0     C94782   4.675   9.678   5.240 -0.1635  0.3263 -0.8786
  703MOL0     C94783   4.735   9.582   5.134 -0.4020  0.5105  0.4811
  703MOL0     C94784   4.694   9.431   5.160 -1.1641  0.0348  0.6784
  703MOL0     C94785   4.714   9.355   5.032  0.1052  0.4748 -0.1005
  703MOL0     C94786   4.684   9.208   5.041  0.0910 -0.0879 -0.5056
  703MOL0     N94787   4.723   9.135   4.918 -0.1562  0.0493  0.9487
  703MOL0     C94788   4.644   9.139   4.802 -0.1086  0.4770  0.4208
  703MOL0     C94789   4.719   9.063   4.715 -0.9519  0.4343 -0.9572
  703MOL0     C94790   4.684   9.033   4.576  0.0482 -0.1401  0.0475
  703MOL0     C94791   4.781   9.097   4.475 -0.5504  1.1025 -0.6598
  703MOL0     C94792   4.748   9.236   4.436  0.4441  0.1040  0.3757
  703MOL0     C94793   4.712   9.344   4.543 -0.0803  0.5204 -0.7836
  703MOL0     O94794   4.568   9.333   4.566  0.5526  0.4260 -0.3799
  703MOL0     C94795   4.480   9.431   4.538 -0.6454  0.1783  0.8944
  703MOL0     C94796   4.353   9.399   4.506  0.8846  0.0487 -0.6667
  703MOL0     C94797   4.240   9.488   4.502  0.0873 -0.7480  0.3081
  703MOL0     C94798   4.282   9.627   4.491  0.7072  0.8203  0.1285
  703MOL0     C94799   4.175   9.727   4.451  0.6232  0.0220 -0.2388
  703MOL0     O94800   4.057   9.673   4.413 -0.0234  0.4659 -0.0958
  703MOL0     C94801   3.963   9.765   4.373 -0.5755 -0.0921 -0.0881
  703MOL0     C94802   3.891   9.732   4.258 -0.6674  0.0979 -0.1101
  703MOL0     C94803   3.780   9.816   4.214 -0.7048 -0.7963  0.0601
  703MOL0     C94804   3.745   9.927   4.283  1.2155  0.6740 -0.5845
  703MOL0     O94805   3.632   9.987   4.241  0.3644 -1.0069  0.7267
  703MOL0     C94806   3.609  10.126   4.273  0.0882  0.1535  0.6761
  703MOL0     C94807   3.498  10.198   4.189 -0.4274  0.4528 -0.0712
  703MOL0     C94808   3.519  10.352   4.203 -0.3236 -0.0208 -0.2611
  703MOL0     C94809   3.401  10.407   4.128  0.2447 -0.0072 -0.0095
  703MOL0     C94810   3.415  10.557   4.089  0.5299 -0.0511  0.6216
  703MOL0     C94811   3.422  10.647   4.217  0.4815  0.0407  0.6023
  703MOL0     C94812   3.446  10.788   4.181 -0.4389  0.0343 -0.3461
  703MOL0     C94813   3.333  10.876   4.118 -0.4554  0.2864  0.2129
  703MOL0    Cl94814   3.188  10.868   4.215 -0.4387  0.1897 -0.2589
  703MOL0     C94815   3.816   9.960   4.396 -0.2007  0.4111  0.0041
  703MOL0     C94816   3.916   9.876   4.448 -0.2577 -0.1452  1.1730
  703MOL0     O94817   4.199   9.847   4.468  0.1970  0.2374 -0.3339
  703MOL0     C94818   4.417   9.662   4.518 -0.7595  0.3973  0.5764
  703MOL0     C94819   4.513   9.569   4.547 -0.6515 -0.6513 -1.0507
  703MOL0     N94820   4.834   9.026   4.781 -0.6298  0.2049  0.1445
  703MOL0     N94821   4.837   9.063   4.900 -0.6271 -0.3079 -0.1814
  703MOL0     C94822   4.797   9.750   5.899 -0.2778  0.3265 -0.2487
  703MOL0     C94823   4.867   9.759   6.023 -0.3093  0.1704 -0.7720
  703MOL0     C94824   5.157  10.000   6.322 -0.0020  1.0221 -0.1515
  703MOL0     C94825   5.101   9.941   6.436 -0.9691 -0.5108  0.7481
  703MOL0     C94826   5.159   9.960   6.561 -0.1847  0.9520 -0.2687
  703MOL0     C94827   5.278  10.027   6.578  0.8970  0.3433  0.1879
  703MOL0     O94828   5.336  10.042   6.708 -0.2215  0.3117  0.2777
  703MOL0     C94829   5.456  10.116   6.704 -0.2391 -0.0851  0.5799
  703MOL0     C94830   5.492  10.138   6.852 -0.2948  0.1954  0.5289
  703MOL0     C94831   5.492  10.009   6.934 -0.5165  0.2494 -0.7533
  703MOL0     C94832   5.582   9.902   6.889 -0.0758  0.7571  0.2376
  703MOL0     C94833   5.712   9.952   6.852  0.2118  0.0935  0.1387
  703MOL0     C94834   5.826   9.988   6.855  0.2385  0.5198  0.4571
  703MOL0     C94835   5.336  10.086   6.460  0.5360 -0.3763 -0.3649
  703MOL0     C94836   5.276  10.076   6.336 -0.3703  0.4179  0.5906
  703MOL0     C94837   5.356  10.141   6.222  0.1197 -0.3356 -0.2173
  703MOL0     H94838   4.886  10.101   6.031 -1.7508  0.3960 -0.7375
  703MOL0     H94839   4.798  10.072   5.796 -1.1660  0.9759  1.9621
  703MOL0     H94840   4.873   9.731   5.620  0.0418  2.6556 -0.3465
  703MOL0     H94841   4.728   9.639   5.664 -1.9500  0.6792  1.1549
  703MOL0     H94842   4.764   9.852   5.447  1.3776  0.1686  2.1267
  703MOL0     H94843   4.599   9.768   5.493  0.0537 -3.6710  1.8243
  703MOL0     H94844   4.663   9.575   5.427 -0.2771  2.1127  2.0741
  703MOL0     H94845   4.836   9.623   5.382  1.5966  2.1430  0.0453
  703MOL0     H94846   4.574   9.639   5.253  0.0418  0.4474  1.5853
  703MOL0     H94847   4.673   9.783   5.211 -0.7670  0.9419  1.2570
  703MOL0     H94848   4.711   9.607   5.030  0.0684 -2.1747 -0.3565
  703MOL0     H94849   4.843   9.595   5.139 -0.5629  3.0165 -0.7834
  703MOL0     H94850   4.739   9.393   5.252 -2.5554 -3.0752  0.1902
  703MOL0     H94851   4.587   9.425   5.180 -1.3805  1.0791 -0.1044
  703MOL0     H94852   4.822   9.367   5.018  0.7580 -0.0220  3.4816
  703MOL0     H94853   4.658   9.406   4.953 -0.4041  3.2558  1.9010
  703MOL0     H94854   4.736   9.161   5.125 -1.5575  0.0437  0.6559
  703MOL0     H94855   4.579   9.190   5.067  0.2511  3.2640  3.5095
  703MOL0     H94856   4.553   9.197   4.795 -0.1058  0.4623  0.2576
  703MOL0     H94857   4.688   8.924   4.562  0.3403  0.0691 -1.6957
  703MOL0     H94858   4.580   9.065   4.570  0.2100  1.2470  2.8932
  703MOL0     H94859   4.882   9.099   4.515 -1.2714  0.2141  1.3525
  703MOL0     H94860   4.783   9.033   4.386 -4.5115  0.4471 -0.4734
  703MOL0     H94861   4.671   9.232   4.358 -0.9222 -1.6351  1.7242
  703MOL0     H94862   4.841   9.276   4.397  0.6057  0.9252  1.5347
  703MOL0     H94863   4.729   9.446   4.506 -0.8649  0.5414 -1.1231
  703MOL0     H94864   4.755   9.329   4.642 -1.2190 -1.5631 -0.5517
  703MOL0     H94865   4.342   9.292   4.512  3.9295 -0.3287 -0.2321
  703MOL0     H94866   4.139   9.449   4.503  0.3293 -1.6051 -2.0708
  703MOL0     H94867   3.912   9.643   4.199  2.0073  0.6184 -0.0916
  703MOL0     H94868   3.734   9.790   4.119 -3.0625  1.9963  0.3118
  703MOL0     H94869   3.584  10.137   4.378 -1.9370 -0.5034  0.3134
  703MOL0     H94870   3.703  10.174   4.245  1.6734 -3.5233 -0.9472
  703MOL0     H94871   3.505  10.163   4.086 -2.7935 -1.9178  0.4868
  703MOL0     H94872   3.397  10.168   4.217 -0.7236  2.3472  1.0706
  703MOL0     H94873   3.528  10.385   4.307  2.1089  0.7994 -0.6769
  703MOL0     H94874   3.615  10.378   4.159 -0.9063  1.0215 -0.9437
  703MOL0     H94875   3.308  10.404   4.185  0.8531 -1.1876  0.9997
  703MOL0     H94876   3.388  10.348   4.037 -1.1943  2.2980 -1.3961
  703MOL0     H94877   3.329  10.587   4.028  2.4588 -1.8383 -3.3261
  703MOL0     H94878   3.502  10.575   4.026  0.0806  2.5564  0.6282
  703MOL0     H94879   3.322  10.643   4.263 -0.2559 -2.8095 -0.9965
  703MOL0     H94880   3.503  10.614   4.283 -0.1795 -1.7514  0.5925
  703MOL0     H94881   3.543  10.783   4.132 -0.6869 -2.7480 -0.6686
  703MOL0     H94882   3.467  10.836   4.277 -0.3401 -2.3747  0.9075
  703MOL0     H94883   3.364  10.979   4.097  0.8174 -0.5048 -2.2216
  703MOL0     H94884   3.302  10.839   4.020 -1.0107 -1.1294  0.9044
  703MOL0     H94885   3.774  10.036   4.462 -0.6952 -0.0051  0.1759
  703MOL0     H94886   3.977   9.895   4.535  0.5316  0.7359  0.4498
  703MOL0     H94887   4.446   9.767   4.511 -3.0091  1.1432  1.6842
  703MOL0     H94888   4.611   9.602   4.578 -0.8701 -1.4403  0.6004
  703MOL0     H94889   4.773   9.652   5.860  3.0915 -1.0069  0.6419
  703MOL0     H94890   4.905   9.671   6.074 -1.5633 -1.2755 -2.2207
  703MOL0     H94891   5.018   9.871   6.429 -1.0413 -0.2654 -2.3818
  703MOL0     H94892   5.132   9.895   6.644 -0.1021 -1.8330 -2.2882
  703MOL0     H94893   5.441  10.216   6.662 -0.1699 -0.5763 -0.6754
  703MOL0     H94894   5.537  10.078   6.640 -0.3403  0.4430  0.1296
  703MOL0     H94895   5.418  10.207   6.894  1.6870  2.3774  0.6500
  703MOL0     H94896   5.592  10.183   6.852 -0.0894 -0.2044 -1.3458
  703MOL0     H94897   5.388   9.973   6.939 -0.6785  0.7458 -0.4617
  703MOL0     H94898   5.501  10.041   7.038 -0.4009  1.6831 -1.1765
  703MOL0     H94899   5.609   9.823   6.960 -0.0488  0.1181 -0.4683
  703MOL0     H94900   5.538   9.851   6.802 -0.7739  0.4392  0.7589
  703MOL0     H94901   5.925  10.027   6.848  0.0523  0.7647 -1.1651
  703MOL0     H94902   5.432  10.137   6.466  1.0011 -1.3541  2.3093
  703MOL0     H94903   5.403  10.068   6.157 -2.7629 -0.8162 -1.9246
  703MOL0     H94904   5.279  10.193   6.164  0.6949 -0.8386 -1.4561
  703MOL0     H94905   5.429  10.218   6.249  0.0632 -0.6616  0.9113
  704MOL0     O94906   4.581   4.668   9.043 -0.2817  0.3919 -0.5709
  704MOL0     C94907   4.509   4.580   8.990  0.5238  0.8141 -0.3301
  704MOL0     O94908   4.426   4.608   8.885 -0.0206  0.2531  0.3102
  704MOL0     C94909   4.416   4.734   8.846 -0.4837 -0.1531 -0.5610
  704MOL0     C94910   4.515   4.802   8.769  1.1517  0.0088  0.1380
  704MOL0     C94911   4.491   4.933   8.728 -0.1307 -0.7166 -1.2556
  704MOL0     C94912   4.378   5.010   8.754  0.0121  0.4300 -0.7146
  704MOL0     O94913   4.365   5.144   8.720 -0.6560  0.0911  0.2994
  704MOL0     C94914   4.344   5.241   8.819  0.6851 -0.7078 -0.8421
  704MOL0     C94915   4.238   5.327   8.748  0.5621  0.8043  0.1037
  704MOL0     C94916   4.295   5.418   8.642  0.4812  0.5024 -0.2105
  704MOL0     C94917   4.171   5.485   8.580 -0.5248  0.4236 -0.3834
  704MOL0     C94918   4.200   5.543   8.442  0.6733 -0.6387  0.8454
  704MOL0     C94919   4.325   5.630   8.428 -0.1965 -0.0900 -0.8024
  704MOL0     C94920   4.338   5.730   8.305  0.4859  0.1812 -0.1501
  704MOL0     C94921   4.407   5.659   8.185 -0.1321 -0.1395 -0.3118
  704MOL0     N94922   4.336   5.551   8.120  0.7233  0.1631 -0.9057
  704MOL0     C94923   4.201   5.545   8.086 -0.0893 -0.1043  0.2995
  704MOL0     C94924   4.171   5.417   8.056 -0.1941  0.4060 -0.2916
  704MOL0     C94925   4.043   5.351   8.012 -0.2707 -0.4252  0.4683
  704MOL0     C94926   4.065   5.300   7.865 -0.2542 -0.0360  0.7264
  704MOL0     C94927   4.128   5.405   7.774  0.3065 -0.1410  1.1445
  704MOL0     C94928   4.040   5.537   7.754  0.5293 -0.0875 -0.7236
  704MOL0     O94929   3.901   5.511   7.721  0.2959  0.2208  0.1559
  704MOL0     C94930   3.882   5.503   7.581 -0.4972 -0.0705  0.3633
  704MOL0     C94931   3.751   5.479   7.548 -0.3884  0.2428  0.2203
  704MOL0     C94932   3.709   5.509   7.420 -0.3646  0.0520 -0.3490
  704MOL0     C94933   3.784   5.558   7.317  0.6117  0.6123  0.3068
  704MOL0     C94934   3.737   5.595   7.177  0.0295 -0.3124 -0.7694
  704MOL0     O94935   3.819   5.673   7.100 -0.8362  1.1410 -0.4499
  704MOL0     C94936   3.775   5.728   6.988 -0.2336 -0.2494  0.0139
  704MOL0     C94937   3.683   5.830   7.001 -0.0099  0.4255  0.8097
  704MOL0     C94938   3.666   5.920   6.897 -0.4807 -0.3275 -0.1140
  704MOL0     C94939   3.740   5.905   6.781 -0.0689  0.2321  0.3920
  704MOL0     O94940   3.724   5.998   6.686  0.5593 -0.2593  0.1117
  704MOL0     C94941   3.825   6.012   6.582 -0.7309  0.0556 -0.2749
  704MOL0     C94942   3.770   6.120   6.481  0.4900 -0.5053  0.0869
  704MOL0     C94943   3.644   6.078   6.410 -0.0654 -1.1385  0.3650
  704MOL0     C94944   3.658   5.969   6.304 -0.1292  0.2379  1.7140
  704MOL0     C94945   3.538   5.977   6.211  0.4226 -1.1650 -0.2714
  704MOL0     C94946   3.555   5.900   6.087 -0.0270 -0.1631  0.2887
  704MOL0     C94947   3.442   5.814   6.042 -0.1263 -0.1349  0.1926
  704MOL0     C94948   3.461   5.725   5.922 -0.3026  0.5245  0.4187
  704MOL0    Cl94949   3.609   5.612   5.929 -0.3344  0.5839 -0.0153
  704MOL0     C94950   3.824   5.794   6.763  0.4933 -0.3849  0.1163
  704MOL0     C94951   3.854   5.719   6.878 -0.5220  0.1662  1.1640
  704MOL0     O94952   3.619   5.564   7.158 -0.3515 -0.2430 -0.0157
  704MOL0     C94953   3.919   5.568   7.344 -0.7806 -0.4031 -0.9250
  704MOL0     C94954   3.971   5.534   7.477 -0.8626 -0.2884  0.2172
  704MOL0     N94955   4.287   5.348   8.079  0.3098 -0.7294  0.2347
  704MOL0     N94956   4.379   5.423   8.121 -0.4877  0.0640  0.1271
  704MOL0     C94957   4.280   4.943   8.829 -0.1650  0.1358 -0.1639
  704MOL0     C94958   4.301   4.810   8.879  0.6311 -0.1805  0.5597
  704MOL0     C94959   4.522   4.443   9.046 -0.3040  0.4690 -0.1611
  704MOL0     C94960   4.608   4.437   9.153  0.2239  0.0712 -0.0164
  704MOL0     C94961   4.652   4.313   9.194  0.0046  0.0006 -0.2564
  704MOL0     C94962   4.625   4.198   9.122  0.2485 -0.1784 -0.5601
  704MOL0     O94963   4.672   4.075   9.174  0.2428  1.4756  0.1880
  704MOL0     C94964   4.675   3.955   9.086 -0.1616 -0.1939  0.0483
  704MOL0     C94965   4.806   3.950   9.011 -0.9500 -0.4798  0.0251
  704MOL0     C94966   4.863   3.809   8.995 -1.2354  0.5191  0.5998
  704MOL0     C94967   4.774   3.723   8.900  0.3247  0.0462 -0.2456
  704MOL0     C94968   4.785   3.780   8.769 -0.7814  1.2836  0.0449
  704MOL0     C94969   4.810   3.841   8.666 -0.1016  0.1226  1.2377
  704MOL0     C94970   4.547   4.219   9.003  0.1160  0.8555 -0.6597
  704MOL0     C94971   4.482   4.333   8.971 -0.2262 -1.0034  0.0913
  704MOL0     C94972   4.387   4.332   8.866 -0.3446  0.0258  0.9936
  704MOL0     H94973   4.608   4.748   8.755  0.5342 -2.2518  3.5779
  704MOL0     H94974   4.571   4.979   8.671 -0.2030 -2.2353 -2.6424
  704MOL0     H94975   4.306   5.193   8.910  0.0816  1.2092 -0.0414
  704MOL0     H94976   4.435   5.300   8.834  1.0388 -1.3289 -0.4847
  704MOL0     H94977   4.186   5.395   8.816  0.5442  0.3980  0.5032
  704MOL0     H94978   4.156   5.261   8.718 -0.0399  1.5780  0.0362
  704MOL0     H94979   4.350   5.347   8.580 -0.5282 -1.6224  1.1925
  704MOL0     H94980   4.365   5.482   8.696  2.3458  0.4780 -2.4331
  704MOL0     H94981   4.085   5.419   8.564  0.4785 -0.6603 -1.6528
  704MOL0     H94982   4.147   5.562   8.653  2.8788  0.1564  1.2549
  704MOL0     H94983   4.194   5.456   8.375 -0.5704 -1.1444  1.5881
  704MOL0     H94984   4.112   5.601   8.414 -0.1615 -1.6438  1.3000
  704MOL0     H94985   4.339   5.690   8.519  4.0706 -2.2826  0.2779
  704MOL0     H94986   4.399   5.550   8.425 -1.7174 -1.9006  3.2850
  704MOL0     H94987   4.386   5.823   8.338 -2.1078  1.7837 -0.6240
  704MOL0     H94988   4.236   5.755   8.276  1.2093  3.7198 -0.0625
  704MOL0     H94989   4.414   5.738   8.109  3.4729 -0.7604 -0.8340
  704MOL0     H94990   4.512   5.636   8.205  0.0836  2.5391  2.3229
  704MOL0     H94991   4.130   5.626   8.074  1.8536  2.2897  3.4242
  704MOL0     H94992   4.018   5.267   8.078 -1.8037  0.8602  1.6229
  704MOL0     H94993   3.965   5.428   8.007 -0.8492 -1.0274 -0.0840
  704MOL0     H94994   4.136   5.218   7.877 -0.1233  0.0554  0.5715
  704MOL0     H94995   3.971   5.257   7.828 -0.7141  0.0470  1.7525
  704MOL0     H94996   4.137   5.354   7.678  1.6546 -2.1443  2.2473
  704MOL0     H94997   4.232   5.433   7.793 -0.2596  3.5876 -0.3408
  704MOL0     H94998   4.086   5.612   7.689 -0.7351  0.8690 -0.5602
  704MOL0     H94999   4.028   5.577   7.855 -0.5232 -5.0409  1.4258
  704MOL0     H95000   3.683   5.439   7.622  0.6310  1.9243  2.1563
  704MOL0     H95001   3.608   5.483   7.390  0.5531 -2.6479 -1.4074
  704MOL0     H95002   3.626   5.852   7.091  1.3112  0.9392  1.5581
  704MOL0     H95003   3.592   5.997   6.914  1.1903  0.7882  2.7889
  704MOL0     H95004   3.919   6.046   6.627  1.8194 -4.0829 -1.9156
  704MOL0     H95005   3.842   5.917   6.531 -0.0171  0.6082 -1.0982
  704MOL0     H95006   3.756   6.211   6.540  4.4366  0.9355 -0.8723
  704MOL0     H95007   3.847   6.144   6.407  0.3878  0.9015  0.4059
  704MOL0     H95008   3.569   6.040   6.480 -2.3558  2.7624  0.3202
  704MOL0     H95009   3.607   6.176   6.377 -0.0505 -0.8513  1.1690
  704MOL0     H95010   3.662   5.869   6.348 -0.3073  0.1224  1.4699
  704MOL0     H95011   3.751   5.996   6.255 -0.1533  0.5783  1.8492
  704MOL0     H95012   3.513   6.082   6.195 -1.8914 -1.5064  0.5768
  704MOL0     H95013   3.450   5.959   6.274  2.1194  2.3527  3.6324
  704MOL0     H95014   3.590   5.975   6.015 -1.2089  0.8789  0.7677
  704MOL0     H95015   3.632   5.824   6.102 -2.7304 -2.7758  2.0525
  704MOL0     H95016   3.351   5.873   6.032  1.0527  1.6208 -0.5949
  704MOL0     H95017   3.418   5.746   6.125  1.0532 -0.6530  0.1299
  704MOL0     H95018   3.374   5.659   5.906 -0.8436  0.2419  3.8673
  704MOL0     H95019   3.477   5.779   5.828  0.4338 -0.0610  0.2015
  704MOL0     H95020   3.884   5.790   6.673 -0.0398  2.2535 -0.4164
  704MOL0     H95021   3.942   5.656   6.884 -0.7656 -0.2582  0.4546
  704MOL0     H95022   3.979   5.599   7.260 -0.5713 -3.5946 -2.0882
  704MOL0     H95023   4.079   5.543   7.484 -0.8492 -0.5665  0.3779
  704MOL0     H95024   4.189   5.002   8.831  1.6894  3.2784 -1.7594
  704MOL0     H95025   4.219   4.772   8.939  0.2274 -3.3712 -1.7541
  704MOL0     H95026   4.648   4.517   9.214  3.2711  0.0053 -1.7290
  704MOL0     H95027   4.723   4.296   9.273  1.1597  0.6085 -1.1327
  704MOL0     H95028   4.589   3.936   9.021 -0.9345 -3.2171  1.7547
  704MOL0     H95029   4.664   3.865   9.147 -2.0490  0.6239  1.0057
  704MOL0     H95030   4.888   4.000   9.064  0.8692 -2.3653 -0.8473
  704MOL0     H95031   4.792   3.992   8.910  0.2886  2.6679  1.0249
  704MOL0     H95032   4.885   3.766   9.093 -2.3090 -1.5725 -0.0241
  704MOL0     H95033   4.963   3.809   8.950 -1.9659  1.7496 -1.1419
  704MOL0     H95034   4.823   3.627   8.884  0.5653 -0.7701  4.0629
  704MOL0     H95035   4.674   3.706   8.941  1.3965  1.7210  3.6042
  704MOL0     H95036   4.825   3.913   8.587 -1.5316 -0.4942  0.3723
  704MOL0     H95037   4.518   4.128   8.953 -2.3119  2.3355 -2.1272
  704MOL0     H95038   4.434   4.356   8.771 -0.3592 -0.7188  0.7927
  704MOL0     H95039   4.350   4.229   8.868 -1.6113  0.4535  3.4205
  704MOL0     H95040   4.312   4.410   8.880  0.8558  1.6248 -0.8973
  705MOL0     O95041   1.778   7.716   8.971 -0.1530 -0.1113 -0.9022
  705MOL0     C95042   1.873   7.653   8.913  0.0244 -0.2940 -0.7780
  705MOL0     O95043   1.986   7.607   8.984 -0.5932 -0.1864  1.1647
  705MOL0     C95044   1.963   7.548   9.107 -0.2044  0.2016 -0.2478
  705MOL0     C95045   2.022   7.618   9.215  0.2206 -0.7430  0.8068
  705MOL0     C95046   2.010   7.580   9.350  0.6555  0.5467 -0.1056
  705MOL0     C95047   1.928   7.471   9.381 -0.3070  0.5587  0.0965
  705MOL0     O95048   1.919   7.436   9.513 -0.2331 -0.1053 -0.3553
  705MOL0     C95049   1.805   7.355   9.544  0.5878 -0.5022 -0.9523
  705MOL0     C95050   1.841   7.207   9.545 -0.1809  0.5168 -1.2590
  705MOL0     C95051   1.912   7.165   9.681  0.2011  0.3712 -1.0964
  705MOL0     C95052   1.973   7.026   9.678  0.7336 -0.6990 -0.8969
  705MOL0     C95053   1.880   6.901   9.693  0.6930 -0.3990  0.3531
  705MOL0     C95054   1.953   6.768   9.693 -0.3897  0.2800 -0.0897
  705MOL0     C95055   2.064   6.751   9.591  0.6342  0.1692  0.2258
  705MOL0     C95056   2.136   6.624   9.588 -0.0940  0.4019  0.6996
  705MOL0     N95057   2.216   6.602   9.471 -0.7215  0.7670  0.0202
  705MOL0     C95058   2.340   6.529   9.471  0.7445 -0.3015 -0.5639
  705MOL0     C95059   2.367   6.524   9.340 -0.2179 -0.2830  0.2003
  705MOL0     C95060   2.489   6.452   9.280 -0.5941  0.5819  0.5191
  705MOL0     C95061   2.585   6.550   9.206 -0.7581  0.0104  0.4751
  705MOL0     C95062   2.688   6.479   9.120 -0.2226 -0.7756  0.5797
  705MOL0     C95063   2.808   6.564   9.101 -0.5406  0.3100 -0.4491
  705MOL0     O95064   2.896   6.542   9.216  0.8800  0.1000 -0.0777
  705MOL0     C95065   3.027   6.595   9.216  0.9589  0.0388 -0.6757
  705MOL0     C95066   3.106   6.542   9.319  0.6304  0.7332 -0.1629
  705MOL0     C95067   3.243   6.571   9.320  0.1339 -0.7339  0.7242
  705MOL0     C95068   3.299   6.669   9.232 -0.1402  0.2237 -0.3361
  705MOL0     C95069   3.439   6.712   9.233 -0.2499  0.3144 -0.3150
  705MOL0     O95070   3.495   6.729   9.369 -0.5276  0.2371  0.2053
  705MOL0     C95071   3.617   6.799   9.385  0.1679 -0.5457 -0.1732
  705MOL0     C95072   3.623   6.881   9.506  0.5232  0.2176 -0.5555
  705MOL0     C95073   3.740   6.964   9.533  0.2324  0.1572 -0.4510
  705MOL0     C95074   3.837   6.967   9.428 -0.2905  1.5316 -0.3173
  705MOL0     O95075   3.950   7.050   9.434 -0.1256 -0.1092  0.1138
  705MOL0     C95076   3.914   7.184   9.445  0.0198 -0.1804 -0.2998
  705MOL0     C95077   4.010   7.264   9.378 -0.6701  0.0926  0.6705
  705MOL0     C95078   3.967   7.414   9.363 -0.4907  0.0173  0.2307
  705MOL0     C95079   3.967   7.482   9.497  0.7160  0.7477 -0.4140
  705MOL0     C95080   3.964   7.633   9.500  0.9464 -0.5198  0.1691
  705MOL0     C95081   3.837   7.692   9.446  0.7704  0.4878  0.4025
  705MOL0     C95082   3.704   7.658   9.509 -0.0529  1.3157 -0.2852
  705MOL0     C95083   3.700   7.634   9.661  0.8771  0.1670  0.4253
  705MOL0    Cl95084   3.524   7.613   9.713  0.0995 -0.6332 -0.1967
  705MOL0     C95085   3.834   6.880   9.325 -0.2698  1.0229 -0.1957
  705MOL0     C95086   3.729   6.788   9.301  0.8754 -0.9504  0.8915
  705MOL0     O95087   3.495   6.746   9.128 -0.6138  0.0783  0.1236
  705MOL0     C95088   3.223   6.705   9.125  1.1119 -0.8773  1.5982
  705MOL0     C95089   3.087   6.680   9.120 -0.4177 -0.1148 -0.2847
  705MOL0     N95090   2.260   6.571   9.259  0.3808 -0.4364  0.8737
  705MOL0     N95091   2.174   6.607   9.339 -0.3168 -0.3732 -0.3473
  705MOL0     C95092   1.863   7.405   9.275 -0.5384 -0.7367  0.1377
  705MOL0     C95093   1.883   7.445   9.145 -0.3177 -0.8589 -0.0811
  705MOL0     C95094   1.873   7.664   8.767 -0.1328  0.0810 -0.6500
  705MOL0     C95095   1.750   7.715   8.711  0.0188  0.5031 -0.5379
  705MOL0     C95096   1.741   7.732   8.574 -0.4084  1.0988  0.4096
  705MOL0     C95097   1.854   7.701   8.490 -0.9025  0.0693  0.9653
  705MOL0     O95098   1.863   7.723   8.355 -0.4754 -0.6256 -0.3039
  705MOL0     C95099   1.794   7.841   8.313  0.5027  0.3339  0.2489
  705MOL0     C95100   1.899   7.946   8.260  0.1712  1.0566  0.5313
  705MOL0     C95101   1.950   7.910   8.119 -0.4840  0.5300 -0.3178
  705MOL0     C95102   1.890   7.989   8.004  0.2007  0.2734  0.1426
  705MOL0     C95103   1.913   7.922   7.872  0.2144  0.1223  0.3310
  705MOL0     C95104   1.921   7.860   7.770 -0.4743 -0.0305  0.7351
  705MOL0     C95105   1.971   7.661   8.552  0.3809 -0.7131  0.5661
  705MOL0     C95106   1.987   7.659   8.692 -0.5206  0.7241 -0.5159
  705MOL0     C95107   2.121   7.618   8.749 -0.5858  1.1577  0.3936
  705MOL0     H95108   2.085   7.702   9.189 -0.7957 -0.2996 -0.3074
  705MOL0     H95109   2.060   7.638   9.426 -0.2841 -0.0710  1.0021
  705MOL0     H95110   1.769   7.388   9.641  3.4875  2.0999 -0.6047
  705MOL0     H95111   1.716   7.374   9.484 -0.0781 -1.4205 -0.2709
  705MOL0     H95112   1.897   7.182   9.455 -1.6338  1.1930 -2.3941
  705MOL0     H95113   1.749   7.146   9.543  1.2588 -1.8286 -0.4273
  705MOL0     H95114   1.846   7.159   9.768  0.8910 -0.0241 -0.5868
  705MOL0     H95115   1.993   7.237   9.700  2.5506 -2.0304 -1.4511
  705MOL0     H95116   2.004   7.019   9.573 -1.9683  0.0193 -1.8306
  705MOL0     H95117   2.051   7.012   9.753 -0.8811 -1.1099  0.7803
  705MOL0     H95118   1.821   6.916   9.783  1.7667  3.3933  0.5882
  705MOL0     H95119   1.812   6.896   9.607 -0.2313 -0.7773  1.0865
  705MOL0     H95120   2.005   6.753   9.788 -0.0256  3.2047  0.2645
  705MOL0     H95121   1.888   6.681   9.680  1.4392 -1.1824  0.1512
  705MOL0     H95122   2.138   6.829   9.612  1.8499  0.1021 -3.1417
  705MOL0     H95123   2.011   6.754   9.495  1.9195  0.6764 -0.5050
  705MOL0     H95124   2.197   6.615   9.679 -0.5268 -2.9110  0.8056
  705MOL0     H95125   2.072   6.535   9.590  3.5121 -2.4335  1.2355
  705MOL0     H95126   2.399   6.495   9.556  1.7051 -0.0255 -1.1123
  705MOL0     H95127   2.545   6.416   9.367 -1.1210 -0.2752  0.5141
  705MOL0     H95128   2.457   6.373   9.211  1.9284 -1.2675  1.3326
  705MOL0     H95129   2.530   6.625   9.149 -0.8132  1.1008  1.8943
  705MOL0     H95130   2.625   6.596   9.297  1.6939  0.1591 -0.6078
  705MOL0     H95131   2.647   6.460   9.021  1.3058 -3.0241  0.3153
  705MOL0     H95132   2.722   6.384   9.163  1.8470 -0.6056 -0.5344
  705MOL0     H95133   2.773   6.668   9.101  3.4062  1.8066 -0.7632
  705MOL0     H95134   2.867   6.548   9.010 -0.3130 -0.3964 -0.1834
  705MOL0     H95135   3.077   6.483   9.406  1.7085  1.5798  0.8072
  705MOL0     H95136   3.313   6.526   9.390  0.4145 -1.3256  0.0720
  705MOL0     H95137   3.545   6.874   9.580  2.5980 -1.9310  1.6023
  705MOL0     H95138   3.779   7.024   9.615  1.8278  1.3431 -1.9805
  705MOL0     H95139   3.824   7.205   9.386 -0.1791  0.3089  0.1672
  705MOL0     H95140   3.900   7.215   9.550 -1.4322  0.1442 -0.5644
  705MOL0     H95141   4.106   7.263   9.430 -0.5770  1.8111  0.5870
  705MOL0     H95142   4.025   7.216   9.280  0.5335  2.2356 -0.2878
  705MOL0     H95143   4.049   7.468   9.314 -0.9770 -0.6652 -1.3793
  705MOL0     H95144   3.882   7.436   9.298  2.4775 -1.2778 -4.5718
  705MOL0     H95145   4.062   7.449   9.540  1.0777  1.7113 -0.4650
  705MOL0     H95146   3.890   7.432   9.558  0.2096  1.2240 -0.6546
  705MOL0     H95147   4.051   7.654   9.437 -0.7566  0.0926 -2.1059
  705MOL0     H95148   3.967   7.683   9.598 -3.2697  0.4004  0.0100
  705MOL0     H95149   3.850   7.800   9.447 -2.3119  0.9943 -1.8524
  705MOL0     H95150   3.829   7.672   9.339  0.6040 -0.5802  0.5970
  705MOL0     H95151   3.669   7.568   9.459 -0.0723  0.9538  0.3684
  705MOL0     H95152   3.640   7.740   9.474 -1.6250 -2.1806 -7.4840
  705MOL0     H95153   3.763   7.547   9.681  2.1080  1.2790  1.6795
  705MOL0     H95154   3.749   7.722   9.703  0.8562  1.1876 -1.5760
  705MOL0     H95155   3.922   6.879   9.261 -0.6003  3.1227 -0.7627
  705MOL0     H95156   3.727   6.732   9.208  0.0455  1.3451 -0.5509
  705MOL0     H95157   3.259   6.769   9.045 -1.8245 -0.8774  0.1755
  705MOL0     H95158   3.043   6.724   9.031  0.3821 -0.0479 -0.6576
  705MOL0     H95159   1.799   7.321   9.300 -3.3911  0.4817 -2.4927
  705MOL0     H95160   1.842   7.381   9.067 -2.5335  0.7159 -0.3068
  705MOL0     H95161   1.662   7.736   8.771 -0.8042 -1.6707 -0.8880
  705MOL0     H95162   1.646   7.767   8.536  0.2059 -0.1968 -2.6446
  705MOL0     H95163   1.734   7.897   8.386 -0.6643  1.5795 -1.5714
  705MOL0     H95164   1.723   7.834   8.230 -0.7811  2.5829  1.0512
  705MOL0     H95165   1.977   7.954   8.336 -0.6488 -1.2096  1.7060
  705MOL0     H95166   1.848   8.043   8.254  0.7544  1.4974  2.2291
  705MOL0     H95167   1.939   7.802   8.111  0.0749  0.5186 -0.9401
  705MOL0     H95168   2.056   7.932   8.131 -0.4680 -0.2014  1.1417
  705MOL0     H95169   1.782   8.001   8.019  0.0870  0.6404 -0.8530
  705MOL0     H95170   1.949   8.080   7.995  2.1275 -0.8435  0.9856
  705MOL0     H95171   1.935   7.791   7.689  2.0687 -1.7442  2.4958
  705MOL0     H95172   2.056   7.636   8.489  0.8296 -0.7424  1.1701
  705MOL0     H95173   2.193   7.610   8.667 -1.9822  2.0837 -0.9630
  705MOL0     H95174   2.165   7.693   8.816  3.2625  0.3816 -1.0010
  705MOL0     H95175   2.103   7.520   8.795  0.4753  0.8820  0.2434
  706MOL0     O95176   8.751   7.577   6.516 -0.4428  0.1301  0.8325
  706MOL0     C95177   8.837   7.666   6.530 -0.4342 -0.8817 -1.1382
  706MOL0     O95178   8.942   7.658   6.608  0.0267 -0.0228 -0.4292
  706MOL0     C95179   8.975   7.530   6.655  0.2675  0.1876  0.6682
  706MOL0     C95180   9.068   7.461   6.580 -0.0577  0.2013  0.8888
  706MOL0     C95181   9.094   7.327   6.624  1.0533  0.2405  0.0412
  706MOL0     C95182   9.040   7.272   6.734  0.6568  0.1795 -1.0486
  706MOL0     O95183   9.090   7.151   6.777  0.1476  0.1353 -0.3280
  706MOL0     C95184   9.031   7.098   6.903 -0.2948 -0.7771 -0.2204
  706MOL0     C95185   9.079   6.957   6.917 -0.2237  0.0081 -0.4643
  706MOL0     C95186   9.208   6.947   7.004  0.0522  0.6071 -0.1932
  706MOL0     C95187   9.212   6.810   7.065  0.6401 -0.1170  0.1416
  706MOL0     C95188   9.301   6.795   7.184 -0.3208 -0.2202  0.9098
  706MOL0     C95189   9.315   6.651   7.232 -1.0076 -0.9787 -0.0228
  706MOL0     C95190   9.391   6.565   7.135  0.2010  0.6239  0.1864
  706MOL0     C95191   9.455   6.437   7.184  0.2232  0.7001 -0.1695
  706MOL0     N95192   9.585   6.475   7.241 -0.4490 -0.7480 -0.1251
  706MOL0     C95193   9.599   6.511   7.377 -0.0106 -0.5166  0.7329
  706MOL0     C95194   9.726   6.505   7.401 -0.5025 -0.1430  0.7535
  706MOL0     C95195   9.788   6.527   7.537  0.7541 -0.0829  0.1357
  706MOL0     C95196   9.762   6.669   7.593 -0.2304 -0.4264  0.2925
  706MOL0     C95197   9.775   6.683   7.744  0.1343 -0.5850  0.7162
  706MOL0     C95198   9.928   6.699   7.792 -0.3533  0.1509  0.7458
  706MOL0     O95199   9.999   6.580   7.761 -0.5294 -0.1419 -0.2237
  706MOL0     C95200  10.002   6.476   7.850  0.5511  0.7540 -0.5006
  706MOL0     C95201   9.906   6.448   7.944  0.0164  0.2640 -0.0739
  706MOL0     C95202   9.918   6.335   8.023 -0.0760  0.1936 -0.2543
  706MOL0     C95203  10.031   6.243   8.009 -0.3534 -1.2393 -0.9176
  706MOL0     C95204  10.049   6.115   8.073  0.3727 -0.4748  0.5718
  706MOL0     O95205  10.155   6.035   8.050  0.5731  0.8707  0.1871
  706MOL0     C95206  10.175   5.918   8.120  1.1612  0.8248 -0.2670
  706MOL0     C95207  10.295   5.854   8.085 -0.2825 -0.0097 -0.0482
  706MOL0     C95208  10.335   5.725   8.142  0.6196 -0.5563  0.3941
  706MOL0     C95209  10.246   5.647   8.213  0.8846  0.1334  0.0107
  706MOL0     O95210  10.279   5.526   8.262  0.9242 -1.0215  0.3236
  706MOL0     C95211  10.385   5.447   8.193 -0.2874  1.7738  0.8868
  706MOL0     C95212  10.333   5.302   8.202  0.2854 -1.2265  0.5497
  706MOL0     C95213  10.320   5.259   8.344 -0.4861  0.0888  0.1891
  706MOL0     C95214  10.303   5.109   8.365 -0.0616  0.1780  0.5206
  706MOL0     C95215  10.272   5.081   8.511  0.4941  0.2382  0.3246
  706MOL0     C95216  10.265   4.929   8.516 -0.5197  0.4066 -0.2983
  706MOL0     C95217  10.219   4.897   8.653 -0.1348  0.5678 -0.5717
  706MOL0     C95218  10.064   4.859   8.653  0.6493  0.3011 -0.4387
  706MOL0    Cl95219   9.948   4.963   8.540  0.1704 -0.4255 -0.3800
  706MOL0     C95220  10.128   5.702   8.248  0.0982 -0.3583 -0.6427
  706MOL0     C95221  10.092   5.834   8.212 -0.7138  0.2087  0.9419
  706MOL0     O95222   9.969   6.101   8.165  1.0207  0.2370 -0.1235
  706MOL0     C95223  10.131   6.285   7.920 -0.5399  0.8238  0.2136
  706MOL0     C95224  10.108   6.393   7.843 -0.2764 -0.5721 -1.0880
  706MOL0     N95225   9.792   6.454   7.289 -0.0858 -0.7870 -0.1760
  706MOL0     N95226   9.704   6.444   7.197 -0.5132  1.0014  0.6105
  706MOL0     C95227   8.958   7.348   6.811  0.3877 -1.1621  0.1929
  706MOL0     C95228   8.928   7.481   6.778  0.1871  0.3135 -0.3615
  706MOL0     C95229   8.823   7.797   6.460  0.5924  0.8195 -0.0266
  706MOL0     C95230   8.688   7.838   6.433 -0.3405 -0.1323 -0.2395
  706MOL0     C95231   8.666   7.937   6.342  0.0398  0.7686 -0.3591
  706MOL0     C95232   8.771   8.001   6.281  0.2391  0.1776  0.4228
  706MOL0     O95233   8.727   8.089   6.188 -0.7791 -0.4491 -0.8744
  706MOL0     C95234   8.755   8.223   6.225 -0.1857  0.1709  0.5978
  706MOL0     C95235   8.640   8.287   6.289  0.7752 -0.0859 -0.2078
  706MOL0     C95236   8.537   8.330   6.179 -0.4115 -0.5700  0.4386
  706MOL0     C95237   8.427   8.234   6.132  0.5999 -0.5530  0.9818
  706MOL0     C95238   8.295   8.288   6.155 -0.4777  0.0939 -0.4508
  706MOL0     C95239   8.187   8.324   6.185 -0.0357  1.2304  0.8275
  706MOL0     C95240   8.900   7.967   6.314  1.0982  0.4592 -0.0377
  706MOL0     C95241   8.929   7.866   6.402 -0.7091  0.2108 -0.6711
  706MOL0     C95242   9.074   7.833   6.407  0.3476 -0.2785 -0.1636
  706MOL0     H95243   9.106   7.504   6.488  1.2177 -0.3487  1.1326
  706MOL0     H95244   9.154   7.263   6.560  2.6871  1.3834  0.3747
  706MOL0     H95245   9.058   7.152   6.994  1.7517 -0.2797 -1.0536
  706MOL0     H95246   8.923   7.118   6.900  0.1135  2.1400  0.9962
  706MOL0     H95247   9.096   6.903   6.823 -1.5376  0.2104 -0.8449
  706MOL0     H95248   9.001   6.905   6.975 -0.6536  0.4968 -0.5975
  706MOL0     H95249   9.207   7.019   7.086  2.3116 -0.3771  0.7668
  706MOL0     H95250   9.294   6.984   6.947 -0.4698  2.5591  0.1972
  706MOL0     H95251   9.110   6.795   7.101 -0.3875  2.1329 -1.5345
  706MOL0     H95252   9.232   6.730   6.993  0.8960 -1.7224  1.9472
  706MOL0     H95253   9.393   6.843   7.152 -0.2449 -1.8476 -1.5628
  706MOL0     H95254   9.261   6.848   7.271  1.1378 -0.9754  2.0968
  706MOL0     H95255   9.353   6.649   7.335 -1.9261  2.1224  0.4867
  706MOL0     H95256   9.213   6.612   7.242 -1.7881  0.8359 -0.3525
  706MOL0     H95257   9.457   6.624   7.070  1.1856  0.4264  0.9735
  706MOL0     H95258   9.322   6.524   7.061 -0.1735  0.1419  0.7946
  706MOL0     H95259   9.394   6.383   7.256 -0.1177 -0.1305 -1.0538
  706MOL0     H95260   9.474   6.375   7.096  4.1409  0.1676  0.8392
  706MOL0     H95261   9.520   6.526   7.450  1.6444  1.0624  2.3200
  706MOL0     H95262   9.747   6.451   7.604  4.3898  0.9660  4.0540
  706MOL0     H95263   9.895   6.504   7.542  0.5062 -1.1773  0.7739
  706MOL0     H95264   9.821   6.748   7.545 -2.7943  1.5322  0.0967
  706MOL0     H95265   9.657   6.695   7.575  0.0071  2.4595  2.3673
  706MOL0     H95266   9.723   6.600   7.793  0.9179 -1.6961 -0.2658
  706MOL0     H95267   9.728   6.775   7.781  4.0451  1.5743  0.8513
  706MOL0     H95268   9.927   6.726   7.898  1.8143  1.7710  0.4224
  706MOL0     H95269   9.967   6.784   7.737  1.2715 -0.2730  1.1935
  706MOL0     H95270   9.816   6.507   7.956 -0.0927  0.1876 -0.5042
  706MOL0     H95271   9.849   6.327   8.106  0.7773  0.3007  0.4824
  706MOL0     H95272  10.349   5.922   8.020  1.3512 -1.5324 -0.3648
  706MOL0     H95273  10.434   5.695   8.105 -0.5239 -2.4673 -1.3867
  706MOL0     H95274  10.389   5.470   8.086  2.9225 -0.5567  0.3447
  706MOL0     H95275  10.485   5.465   8.235 -0.6311  2.1884  1.5420
  706MOL0     H95276  10.239   5.302   8.146  0.4797  3.1941 -0.1116
  706MOL0     H95277  10.403   5.237   8.147  3.3666  1.7710  0.6145
  706MOL0     H95278  10.411   5.280   8.400 -0.2113 -2.1054  0.6639
  706MOL0     H95279  10.241   5.319   8.391 -0.5866  3.0469 -3.2921
  706MOL0     H95280  10.386   5.045   8.333  0.6438  1.5041 -0.3853
  706MOL0     H95281  10.228   5.075   8.293 -0.2651  1.4491  0.1098
  706MOL0     H95282  10.179   5.136   8.529  0.7200  0.3451  1.1821
  706MOL0     H95283  10.359   5.122   8.563  0.6845  0.9175 -0.5079
  706MOL0     H95284  10.184   4.891   8.452  1.1577  1.9792 -3.5966
  706MOL0     H95285  10.361   4.879   8.498  1.9231  3.0112  3.9003
  706MOL0     H95286  10.246   4.973   8.726 -0.5920 -1.4894  1.8817
  706MOL0     H95287  10.278   4.817   8.698 -2.3967 -1.1896 -0.5245
  706MOL0     H95288  10.056   4.762   8.602 -1.8247  1.1298 -1.7880
  706MOL0     H95289  10.024   4.841   8.753 -3.7987  3.0862 -1.4272
  706MOL0     H95290  10.054   5.654   8.311  1.3148 -0.3068  0.8973
  706MOL0     H95291   9.995   5.865   8.248 -3.9121 -4.2912 -2.5819
  706MOL0     H95292  10.228   6.237   7.926 -1.1761 -1.0007 -2.2753
  706MOL0     H95293  10.199   6.436   7.804 -0.7312  1.8686  0.3280
  706MOL0     H95294   8.915   7.317   6.906  1.1140 -2.7078  0.0492
  706MOL0     H95295   8.862   7.535   6.844 -1.4501 -0.9455 -0.9111
  706MOL0     H95296   8.614   7.795   6.501  0.1405  0.3511  0.6150
  706MOL0     H95297   8.564   7.971   6.330 -1.3925 -2.0473  2.4111
  706MOL0     H95298   8.762   8.281   6.133 -5.2136 -2.2055 -1.6697
  706MOL0     H95299   8.847   8.227   6.284  2.4082  0.0786 -3.1107
  706MOL0     H95300   8.676   8.379   6.336 -0.6970 -1.6456  4.5785
  706MOL0     H95301   8.585   8.235   6.368 -3.1845 -0.1741 -2.7614
  706MOL0     H95302   8.596   8.362   6.094  2.9539 -0.1529  2.7385
  706MOL0     H95303   8.479   8.413   6.222  1.0200 -0.1978  1.7265
  706MOL0     H95304   8.437   8.233   6.023  0.1367 -1.2300  0.9405
  706MOL0     H95305   8.436   8.135   6.177  2.0365  0.0128  2.0199
  706MOL0     H95306   8.082   8.346   6.195 -0.2449  0.0399  1.5037
  706MOL0     H95307   8.969   8.009   6.241  1.3611  1.4824  0.7792
  706MOL0     H95308   9.131   7.906   6.349  1.0224 -1.5708 -1.1850
  706MOL0     H95309   9.102   7.850   6.511 -4.2506  0.9306  1.1305
  706MOL0     H95310   9.088   7.736   6.359  2.5547  1.1174 -2.6238
  707MOL0     O95311   0.661   4.148   5.578  0.3617 -0.5100  0.0737
  707MOL0     C95312   0.607   4.083   5.665 -0.3175 -0.0373 -0.6242
  707MOL0     O95313   0.671   4.046   5.769 -0.0055  0.3288 -0.7965
  707MOL0     C95314   0.799   4.090   5.783  0.3867 -0.4448  0.3184
  707MOL0     C95315   0.893   3.989   5.809 -0.4075  0.1017  0.1201
  707MOL0     C95316   1.034   4.008   5.816 -0.2643  0.2626  0.3605
  707MOL0     C95317   1.077   4.141   5.795  0.1114  0.6671 -0.7098
  707MOL0     O95318   1.209   4.192   5.812 -0.1243  0.1747  0.0639
  707MOL0     C95319   1.308   4.123   5.745  0.1491  0.3663  0.9409
  707MOL0     C95320   1.431   4.120   5.841 -0.2452 -0.0004  0.3506
  707MOL0     C95321   1.550   4.051   5.773 -0.3814 -0.5575 -0.5104
  707MOL0     C95322   1.670   4.056   5.868  0.0833  0.1030 -0.4281
  707MOL0     C95323   1.788   4.104   5.775 -0.5170 -0.2746 -0.8568
  707MOL0     C95324   1.911   4.148   5.867  0.3335  0.2783  0.3696
  707MOL0     C95325   2.034   4.070   5.829 -0.2736 -0.1692 -0.3827
  707MOL0     C95326   2.140   4.095   5.941  0.8162 -0.7155 -0.9341
  707MOL0     N95327   2.274   4.040   5.927  0.0862  0.3591  0.1856
  707MOL0     C95328   2.372   4.091   5.849 -0.1004  0.7180 -0.3501
  707MOL0     C95329   2.477   4.004   5.855  0.1684 -0.5743 -0.1808
  707MOL0     C95330   2.607   4.017   5.781  1.1698 -0.1419 -0.4359
  707MOL0     C95331   2.586   3.979   5.630  0.1518  0.2407 -0.6431
  707MOL0     C95332   2.515   3.842   5.593  0.1570 -1.2033 -0.6019
  707MOL0     C95333   2.364   3.846   5.576 -0.2011 -0.1998 -0.6079
  707MOL0     O95334   2.338   3.966   5.502  0.2203  1.0049 -0.5311
  707MOL0     C95335   2.212   4.017   5.490 -0.7327 -0.4743  0.7096
  707MOL0     C95336   2.196   4.152   5.453  0.1365 -0.2390 -0.2716
  707MOL0     C95337   2.067   4.204   5.433 -0.3498 -0.2951 -0.1843
  707MOL0     C95338   1.961   4.120   5.443  1.3260 -0.1459  0.2633
  707MOL0     C95339   1.823   4.169   5.422 -0.4362  1.1019 -0.5019
  707MOL0     O95340   1.799   4.299   5.464 -0.0188  0.3676  0.6748
  707MOL0     C95341   1.663   4.334   5.471 -0.2889  0.4236  1.0275
  707MOL0     C95342   1.601   4.368   5.590 -0.1098 -0.9865  0.3051
  707MOL0     C95343   1.467   4.411   5.596 -0.2316 -1.2226  0.5024
  707MOL0     C95344   1.388   4.419   5.482  0.4147  0.7973  0.0278
  707MOL0     O95345   1.254   4.457   5.502 -0.1558 -0.6480 -0.1906
  707MOL0     C95346   1.170   4.478   5.388 -0.0579  0.4261  0.2599
  707MOL0     C95347   1.026   4.508   5.437 -0.2999 -0.2136  0.8990
  707MOL0     C95348   0.979   4.658   5.463 -0.2439  0.0393  0.9624
  707MOL0     C95349   1.032   4.731   5.589 -0.9677  0.2756 -0.1423
  707MOL0     C95350   1.000   4.664   5.726 -0.6002 -0.0496  0.3874
  707MOL0     C95351   1.079   4.719   5.838 -0.8639 -0.7858 -0.2577
  707MOL0     C95352   1.018   4.673   5.967  0.0095  0.3663 -0.9146
  707MOL0     C95353   0.907   4.764   6.016 -0.0776  0.2775  0.5540
  707MOL0    Cl95354   0.950   4.940   6.036 -0.1703  0.1547  0.4125
  707MOL0     C95355   1.443   4.362   5.369  0.9400  0.6719 -0.2152
  707MOL0     C95356   1.581   4.336   5.361 -0.2850  0.4385 -0.2017
  707MOL0     O95357   1.741   4.078   5.407 -0.6952  0.2323 -0.3216
  707MOL0     C95358   1.982   3.988   5.483  0.5410 -0.4785 -0.0556
  707MOL0     C95359   2.106   3.939   5.507  0.4909 -0.6415 -0.0353
  707MOL0     N95360   2.439   3.910   5.945 -0.9465  0.2884  0.1948
  707MOL0     N95361   2.319   3.928   5.992  0.3083 -1.1177  0.4373
  707MOL0     C95362   0.987   4.238   5.778  0.5738 -0.5685  0.9869
  707MOL0     C95363   0.847   4.220   5.773  0.0133  0.4504  0.1651
  707MOL0     C95364   0.465   4.030   5.647  0.2481  0.5476  0.6564
  707MOL0     C95365   0.427   3.944   5.751 -0.1986 -0.4575 -0.2105
  707MOL0     C95366   0.305   3.878   5.741 -0.1717  0.2797  0.2645
  707MOL0     C95367   0.221   3.899   5.632  0.5742  0.1411  0.8813
  707MOL0     O95368   0.119   3.812   5.620  0.3430  0.3071  0.6968
  707MOL0     C95369  -0.005   3.857   5.554 -0.3752  0.5982 -0.4558
  707MOL0     C95370  -0.069   3.949   5.649 -0.0146  0.3709 -0.6249
  707MOL0     C95371  -0.085   3.891   5.791 -0.8396  0.1243 -1.0393
  707MOL0     C95372  -0.145   3.749   5.807 -0.2211 -0.1801  0.8086
  707MOL0     C95373  -0.259   3.728   5.719  0.4604 -0.1101  1.0960
  707MOL0     C95374  -0.367   3.720   5.670 -0.8004 -0.6429  0.3856
  707MOL0     C95375   0.250   3.997   5.538  0.1426 -0.0742 -0.6677
  707MOL0     C95376   0.373   4.061   5.546  0.2367  0.0649  1.1874
  707MOL0     C95377   0.414   4.150   5.431  0.8410 -0.2062  0.2162
  707MOL0     H95378   0.844   3.893   5.824  1.3376 -0.5445  2.1842
  707MOL0     H95379   1.110   3.931   5.823 -1.1765 -0.5540  1.9382
  707MOL0     H95380   1.293   4.017   5.723  2.2848  0.0698  0.6783
  707MOL0     H95381   1.345   4.179   5.659  0.2224  1.0346  1.4001
  707MOL0     H95382   1.393   4.061   5.924 -2.7088  0.4713 -0.3501
  707MOL0     H95383   1.463   4.221   5.869  1.0246 -0.7512  1.7515
  707MOL0     H95384   1.569   4.098   5.676  3.4069 -1.8343 -0.5592
  707MOL0     H95385   1.516   3.948   5.754  1.4974 -1.3800  0.2967
  707MOL0     H95386   1.662   4.122   5.954 -2.4153  2.0782 -2.0400
  707MOL0     H95387   1.689   3.952   5.897  0.2597 -1.7876 -6.1064
  707MOL0     H95388   1.809   4.015   5.715 -0.9304 -0.5625 -0.5745
  707MOL0     H95389   1.755   4.187   5.712 -2.5663 -1.0790 -0.9200
  707MOL0     H95390   1.946   4.252   5.861  3.0185 -0.6373 -2.8190
  707MOL0     H95391   1.875   4.129   5.969 -2.1328  0.4528 -0.4058
  707MOL0     H95392   2.073   4.103   5.733  0.3760  0.9410  0.2403
  707MOL0     H95393   2.019   3.962   5.834  2.4146 -0.5946 -0.2960
  707MOL0     H95394   2.155   4.204   5.940 -1.3509 -0.3272  1.1969
  707MOL0     H95395   2.099   4.075   6.040  1.5352  0.7462 -0.2971
  707MOL0     H95396   2.382   4.181   5.789  2.9073  0.5414 -0.2605
  707MOL0     H95397   2.645   4.119   5.787 -1.8541  1.0649  0.4454
  707MOL0     H95398   2.673   3.962   5.847 -0.7803 -1.3517  0.6125
  707MOL0     H95399   2.539   4.066   5.583  0.2412 -0.4578 -2.0822
  707MOL0     H95400   2.691   3.980   5.599  0.3210 -2.0501 -0.2950
  707MOL0     H95401   2.543   3.760   5.659  0.0804 -1.0999 -0.4380
  707MOL0     H95402   2.547   3.831   5.489 -1.8452  2.5563 -1.8220
  707MOL0     H95403   2.313   3.854   5.672 -0.5868  0.1250 -0.8331
  707MOL0     H95404   2.322   3.756   5.529 -0.0432  0.9854 -3.2128
  707MOL0     H95405   2.292   4.203   5.445 -0.2234  0.6931  0.9655
  707MOL0     H95406   2.056   4.308   5.403  0.7010  0.6399  2.3676
  707MOL0     H95407   1.657   4.366   5.684 -2.9756 -4.9037  2.2229
  707MOL0     H95408   1.442   4.439   5.698  2.6066  1.0377  0.7074
  707MOL0     H95409   1.213   4.543   5.312  0.7947 -3.3331 -2.7891
  707MOL0     H95410   1.156   4.383   5.335  0.8398  0.3110  0.2232
  707MOL0     H95411   0.958   4.463   5.364 -1.6356  0.1020  1.9007
  707MOL0     H95412   1.000   4.446   5.524 -0.5427 -3.2467 -1.1763
  707MOL0     H95413   0.995   4.716   5.372 -0.2660 -2.1526 -0.5016
  707MOL0     H95414   0.870   4.650   5.468 -0.4728  0.8803 -1.4877
  707MOL0     H95415   0.992   4.833   5.597 -0.9433  0.3096 -0.4379
  707MOL0     H95416   1.140   4.742   5.573 -0.6493  0.2746  1.7754
  707MOL0     H95417   1.013   4.556   5.732 -0.5318  0.0192  3.5620
  707MOL0     H95418   0.896   4.690   5.748 -0.2894  0.9429  0.7605
  707MOL0     H95419   1.184   4.689   5.825 -0.2094  1.0263  0.5931
  707MOL0     H95420   1.080   4.826   5.816 -1.4435 -0.9717 -1.2303
  707MOL0     H95421   1.089   4.674   6.050 -1.7376 -0.2203  0.6253
  707MOL0     H95422   0.987   4.571   5.945 -1.9057  0.2743  1.8013
  707MOL0     H95423   0.814   4.762   5.958 -0.8022  0.8473  1.6504
  707MOL0     H95424   0.871   4.716   6.108 -0.8778 -0.0158  0.0985
  707MOL0     H95425   1.382   4.360   5.280 -1.3544  0.5810  1.2726
  707MOL0     H95426   1.635   4.304   5.272 -1.0166 -0.0476 -0.4825
  707MOL0     H95427   1.900   3.918   5.490  1.8434 -2.2174 -1.5379
  707MOL0     H95428   2.103   3.832   5.523  0.8989 -0.5021  1.0705
  707MOL0     H95429   1.033   4.336   5.776 -0.2603 -0.1626  1.2603
  707MOL0     H95430   0.767   4.290   5.749 -0.1079 -0.1780 -1.4276
  707MOL0     H95431   0.488   3.912   5.834 -1.2119 -2.1590 -0.0728
  707MOL0     H95432   0.283   3.809   5.821  5.1244 -1.2769  0.7678
  707MOL0     H95433  -0.063   3.768   5.528  3.2570 -4.1491  5.1055
  707MOL0     H95434   0.015   3.911   5.461  3.0046 -1.7691 -1.3094
  707MOL0     H95435  -0.169   3.972   5.611  0.1142  0.0386 -1.1672
  707MOL0     H95436  -0.007   4.038   5.669 -0.2492  0.2197  0.9405
  707MOL0     H95437  -0.150   3.951   5.855 -2.2572 -2.2545 -0.1455
  707MOL0     H95438   0.009   3.900   5.846 -1.4780  1.9784 -0.1606
  707MOL0     H95439  -0.075   3.669   5.781  0.8980  1.0602 -0.1774
  707MOL0     H95440  -0.178   3.739   5.910 -2.9655 -0.2047 -0.0058
  707MOL0     H95441  -0.464   3.730   5.624 -0.3087  0.6390 -0.4311
  707MOL0     H95442   0.184   4.003   5.452 -0.1565 -1.2171 -0.5419
  707MOL0     H95443   0.438   4.246   5.477 -3.1741  0.5321  1.0919
  707MOL0     H95444   0.499   4.103   5.379 -0.4071 -0.3264 -1.8049
  707MOL0     H95445   0.335   4.173   5.359  0.8513 -1.4228 -0.2046
  708MOL0     O95446   4.397   0.305   6.583  0.0188 -0.1752  0.1530
  708MOL0     C95447   4.360   0.243   6.476  0.0273 -0.3536 -0.2876
  708MOL0     O95448   4.440   0.147   6.412  0.3761  0.2368  0.0107
  708MOL0     C95449   4.575   0.148   6.447  0.0329 -0.7924 -0.0875
  708MOL0     C95450   4.637   0.035   6.492 -0.9623  0.3238 -1.3392
  708MOL0     C95451   4.772   0.037   6.518 -0.8890 -0.5722 -0.0717
  708MOL0     C95452   4.843   0.166   6.504 -0.2067 -0.0645  0.2353
  708MOL0     O95453   4.976   0.193   6.528  0.9197 -0.0293 -1.0440
  708MOL0     C95454   5.035   0.130   6.637 -1.3003  0.0363  0.4626
  708MOL0     C95455   5.077   0.234   6.738  0.2847  0.1020  0.2780
  708MOL0     C95456   5.185   0.329   6.700 -0.4511  0.1706 -1.2062
  708MOL0     C95457   5.303   0.279   6.618 -0.1073 -0.2314  0.5146
  708MOL0     C95458   5.395   0.386   6.586 -0.2037 -0.7767 -0.5217
  708MOL0     C95459   5.524   0.365   6.503 -1.4768  0.0783 -0.0917
  708MOL0     C95460   5.566   0.476   6.414  0.1863 -0.1661 -0.2848
  708MOL0     C95461   5.607   0.607   6.496 -0.1148  0.3416 -0.4851
  708MOL0     N95462   5.726   0.571   6.578  0.3666  0.1536 -0.3554
  708MOL0     C95463   5.842   0.525   6.527  0.9786 -0.1259 -0.0304
  708MOL0     C95464   5.916   0.495   6.634  0.5635  0.4471  0.8092
  708MOL0     C95465   6.067   0.467   6.618  0.2040  0.4542  0.1957
  708MOL0     C95466   6.144   0.588   6.556 -0.1314  0.1823 -0.1415
  708MOL0     C95467   6.282   0.546   6.567  0.4484 -1.0273  0.1404
  708MOL0     C95468   6.363   0.665   6.510 -0.3312  1.2278  1.2784
  708MOL0     O95469   6.502   0.636   6.510 -0.6405  0.0542  0.4800
  708MOL0     C95470   6.575   0.666   6.623  0.3010  0.5705 -0.1024
  708MOL0     C95471   6.711   0.665   6.612 -0.5542 -0.3371 -0.0884
  708MOL0     C95472   6.786   0.692   6.727  0.9052 -0.6444 -0.8638
  708MOL0     C95473   6.735   0.716   6.852  0.6652 -0.0380 -0.3944
  708MOL0     C95474   6.828   0.728   6.964 -0.0497  0.7470 -0.0221
  708MOL0     O95475   6.777   0.669   7.082 -0.0514 -0.5154  0.2346
  708MOL0     C95476   6.855   0.679   7.194 -0.0447  0.2296  0.5202
  708MOL0     C95477   6.962   0.584   7.212  0.5480 -0.2827  0.2458
  708MOL0     C95478   7.035   0.590   7.334  1.3548 -0.3603  0.4153
  708MOL0     C95479   7.011   0.694   7.428 -0.2104 -0.2221  0.2434
  708MOL0     O95480   7.068   0.698   7.557  0.2420 -0.2931 -0.2463
  708MOL0     C95481   7.172   0.604   7.591 -0.2044  0.1426 -0.3414
  708MOL0     C95482   7.191   0.607   7.749 -0.2940  0.2585  0.4828
  708MOL0     C95483   7.261   0.733   7.795 -0.2904 -0.3467 -0.3134
  708MOL0     C95484   7.275   0.730   7.952 -0.3863 -0.3421  0.1344
  708MOL0     C95485   7.296   0.867   8.016 -0.1849  0.8824  0.5430
  708MOL0     C95486   7.290   0.860   8.174 -0.5007  0.5955 -1.2785
  708MOL0     C95487   7.359   0.733   8.242  0.5436  0.0488  1.4118
  708MOL0     C95488   7.371   0.737   8.395  0.3439 -0.4649 -1.0527
  708MOL0    Cl95489   7.467   0.884   8.442  0.4076 -0.0555  0.3014
  708MOL0     C95490   6.909   0.785   7.403  0.4236 -0.5169  0.2211
  708MOL0     C95491   6.831   0.782   7.293  0.5647 -0.6434 -0.1369
  708MOL0     O95492   6.936   0.778   6.946 -0.2850 -0.2663  0.0398
  708MOL0     C95493   6.597   0.724   6.860 -0.2829 -0.3883 -0.4360
  708MOL0     C95494   6.513   0.699   6.749 -0.3670 -0.5419  0.1701
  708MOL0     N95495   5.841   0.511   6.749  0.7206  0.0929 -0.2861
  708MOL0     N95496   5.720   0.561   6.712 -0.0503  0.4906  0.2768
  708MOL0     C95497   4.780   0.284   6.463  0.3567 -0.0356 -0.2433
  708MOL0     C95498   4.643   0.270   6.425 -0.5608  0.3215 -0.5989
  708MOL0     C95499   4.243   0.302   6.415  1.2008 -0.1944 -0.2577
  708MOL0     C95500   4.213   0.257   6.288 -0.3411 -0.3704  0.3578
  708MOL0     C95501   4.085   0.257   6.231 -0.2871  0.4846 -0.8651
  708MOL0     C95502   3.986   0.314   6.308  0.6475 -0.2154  0.6956
  708MOL0     O95503   3.865   0.325   6.229 -0.5679  0.3920  0.0510
  708MOL0     C95504   3.757   0.398   6.290 -0.0315  0.2101  0.3912
  708MOL0     C95505   3.617   0.343   6.251  0.4126 -0.7858 -0.6110
  708MOL0     C95506   3.600   0.203   6.270 -0.6001 -0.1158  0.7292
  708MOL0     C95507   3.603   0.127   6.129 -0.4390 -0.0285  0.6693
  708MOL0     C95508   3.484   0.147   6.044  0.2732  0.3341  0.3601
  708MOL0     C95509   3.386   0.185   5.978 -0.1172 -0.4693 -0.2234
  708MOL0     C95510   4.020   0.386   6.426 -0.1992 -0.1329 -0.3746
  708MOL0     C95511   4.141   0.392   6.477 -0.5991 -0.1776 -0.0460
  708MOL0     C95512   4.164   0.462   6.600 -0.2882 -0.1022 -1.1571
  708MOL0     H95513   4.577  -0.055   6.498 -0.2055 -0.1107  0.6560
  708MOL0     H95514   4.830  -0.053   6.537 -0.9260 -1.0236 -1.9824
  708MOL0     H95515   4.979   0.049   6.685  0.0696 -1.1083  0.2011
  708MOL0     H95516   5.126   0.084   6.597 -1.5786  0.6898 -0.9877
  708MOL0     H95517   5.119   0.182   6.824  3.9909  0.8272 -0.8897
  708MOL0     H95518   4.984   0.280   6.770 -0.4127  0.3679 -1.9337
  708MOL0     H95519   5.228   0.380   6.787 -0.5066 -0.6131 -0.7060
  708MOL0     H95520   5.150   0.417   6.645  1.9004  0.8972 -1.6594
  708MOL0     H95521   5.342   0.194   6.675  0.4431 -1.1145 -1.1098
  708MOL0     H95522   5.271   0.230   6.525 -0.2703 -3.0023  1.9181
  708MOL0     H95523   5.327   0.453   6.533 -2.4160 -0.2426  2.7168
  708MOL0     H95524   5.419   0.435   6.681 -2.0284  0.4621 -0.6537
  708MOL0     H95525   5.608   0.334   6.566 -2.7735 -1.2277  1.0683
  708MOL0     H95526   5.509   0.290   6.425 -0.9352  2.0495 -2.1790
  708MOL0     H95527   5.476   0.514   6.364  0.3446 -0.7916 -1.0620
  708MOL0     H95528   5.640   0.447   6.339  1.3272 -3.6690  1.9500
  708MOL0     H95529   5.634   0.679   6.418  0.1571  2.6138  1.5844
  708MOL0     H95530   5.529   0.664   6.547  0.6057  1.9914 -1.1529
  708MOL0     H95531   5.874   0.530   6.423  2.0762 -1.3524  0.2160
  708MOL0     H95532   6.109   0.446   6.717  4.8958  1.2492 -1.3967
  708MOL0     H95533   6.079   0.374   6.561 -0.8992 -0.7955  1.9008
  708MOL0     H95534   6.107   0.612   6.455  0.6569 -0.0070 -0.4787
  708MOL0     H95535   6.141   0.686   6.604  0.9555  0.9932 -1.6407
  708MOL0     H95536   6.308   0.459   6.505 -1.0837 -1.1329 -0.3876
  708MOL0     H95537   6.319   0.533   6.669  2.3754  2.0625 -0.0318
  708MOL0     H95538   6.353   0.757   6.568 -1.1492  1.7471  0.3439
  708MOL0     H95539   6.330   0.688   6.409  1.2035  1.1637  0.7427
  708MOL0     H95540   6.771   0.641   6.526 -1.3134 -3.1013  0.0805
  708MOL0     H95541   6.894   0.691   6.723  0.9412 -0.9959  0.0459
  708MOL0     H95542   6.984   0.508   7.137  1.8561  1.0822 -0.8271
  708MOL0     H95543   7.094   0.507   7.371 -2.5109 -2.0106  3.6779
  708MOL0     H95544   7.148   0.501   7.563  5.2009 -1.3792 -0.5543
  708MOL0     H95545   7.266   0.629   7.541  0.4075 -1.0120  0.1896
  708MOL0     H95546   7.094   0.595   7.798  0.3065 -0.7659  1.4620
  708MOL0     H95547   7.241   0.514   7.779 -3.2409 -3.2127 -3.9489
  708MOL0     H95548   7.350   0.749   7.733 -0.8101 -5.2101 -2.8116
  708MOL0     H95549   7.195   0.818   7.775  1.2548  1.0954  0.5028
  708MOL0     H95550   7.361   0.665   7.972  1.1832  1.5700 -0.0280
  708MOL0     H95551   7.189   0.682   7.998  0.2798 -1.2088  0.5023
  708MOL0     H95552   7.218   0.939   7.992 -1.0579 -0.6279 -1.4494
  708MOL0     H95553   7.389   0.906   7.974  0.2093 -0.6546 -0.1037
  708MOL0     H95554   7.349   0.940   8.219  0.3571 -1.6252  1.9705
  708MOL0     H95555   7.187   0.864   8.211  0.5579  1.9425  1.8615
  708MOL0     H95556   7.461   0.736   8.204 -0.5662  2.2936 -1.8500
  708MOL0     H95557   7.305   0.641   8.217 -0.5445  1.1601 -0.5802
  708MOL0     H95558   7.270   0.735   8.437  0.1503  1.0019 -1.3982
  708MOL0     H95559   7.419   0.643   8.422 -0.0422 -0.7067 -1.1986
  708MOL0     H95560   6.895   0.861   7.479  1.3625 -0.3054  0.1967
  708MOL0     H95561   6.742   0.843   7.284  1.3338  0.4776 -0.4432
  708MOL0     H95562   6.556   0.744   6.958  0.0488  1.1752 -0.5914
  708MOL0     H95563   6.407   0.685   6.768  0.4379 -4.3134  3.0722
  708MOL0     H95564   4.833   0.378   6.450  1.9869 -0.9550 -0.4621
  708MOL0     H95565   4.589   0.354   6.380 -0.3420  0.3005 -0.9022
  708MOL0     H95566   4.291   0.209   6.230  0.4974 -0.0366  1.1814
  708MOL0     H95567   4.073   0.218   6.131  4.0790 -1.3941 -0.8913
  708MOL0     H95568   3.768   0.502   6.258 -1.1194 -0.4031 -2.3018
  708MOL0     H95569   3.766   0.391   6.398  0.0949 -2.4610  0.2688
  708MOL0     H95570   3.591   0.375   6.150  0.4437  1.7737  0.1042
  708MOL0     H95571   3.545   0.391   6.319 -1.9123 -0.4837 -3.1204
  708MOL0     H95572   3.501   0.176   6.308 -0.7119  2.1947  2.2930
  708MOL0     H95573   3.670   0.162   6.343  0.8745  2.3262  0.7862
  708MOL0     H95574   3.695   0.165   6.083  0.1204  0.3243  2.0119
  708MOL0     H95575   3.610   0.022   6.157 -2.2060 -0.9462 -1.9811
  708MOL0     H95576   3.290   0.190   5.930 -1.4834 -2.6951  2.0246
  708MOL0     H95577   3.944   0.448   6.471 -3.6920 -1.8308 -3.3832
  708MOL0     H95578   4.091   0.541   6.621 -1.6458 -1.7462  0.6729
  708MOL0     H95579   4.151   0.395   6.686  3.9629  0.5059  0.1779
  708MOL0     H95580   4.263   0.508   6.595  0.1029 -0.7320  0.1073
  709MOL0     O95581   1.895   2.735   8.546  0.1619  0.3955 -0.0788
  709MOL0     C95582   1.967   2.673   8.463  0.7817 -0.2100 -0.0981
  709MOL0     O95583   2.067   2.721   8.385 -0.5787 -0.6172  0.0473
  709MOL0     C95584   2.122   2.854   8.393  0.3944  0.1924  0.3294
  709MOL0     C95585   2.160   2.919   8.274 -0.5271 -0.5601 -0.3458
  709MOL0     C95586   2.218   3.040   8.282  0.5866  0.5759  1.4639
  709MOL0     C95587   2.266   3.092   8.400 -1.4254  0.7879  0.7387
  709MOL0     O95588   2.340   3.204   8.393  0.0679  0.3684 -0.4798
  709MOL0     C95589   2.401   3.260   8.510  1.3890 -0.8432 -0.5448
  709MOL0     C95590   2.449   3.398   8.466  0.2526  0.2708  0.6889
  709MOL0     C95591   2.467   3.492   8.580  0.1739  0.1183  0.6401
  709MOL0     C95592   2.531   3.625   8.556  0.5001  0.6524 -0.1650
  709MOL0     C95593   2.508   3.724   8.670  0.0106  0.4147  0.9666
  709MOL0     C95594   2.590   3.851   8.651 -0.4662 -0.1089  0.6958
  709MOL0     C95595   2.576   3.943   8.771 -0.0734 -1.0343  0.5058
  709MOL0     C95596   2.648   4.080   8.740  0.0355 -0.1865  0.1680
  709MOL0     N95597   2.797   4.081   8.747  0.0381  0.0343  1.1947
  709MOL0     C95598   2.884   3.998   8.820  0.1864  0.1264 -0.4202
  709MOL0     C95599   3.010   4.039   8.793  0.2618  0.5223 -0.8356
  709MOL0     C95600   3.134   3.992   8.860 -0.2636 -0.0503  1.0409
  709MOL0     C95601   3.117   3.903   8.982 -0.5704  0.8966  0.1613
  709MOL0     C95602   3.247   3.840   9.032  0.7554 -0.8216  0.4322
  709MOL0     C95603   3.268   3.705   8.965 -0.3302  0.5901  0.2796
  709MOL0     O95604   3.203   3.608   9.043 -0.0265  0.6672  0.2637
  709MOL0     C95605   3.270   3.553   9.154  0.1038  0.1363 -0.1177
  709MOL0     C95606   3.190   3.474   9.237 -0.0527 -0.1068  1.2733
  709MOL0     C95607   3.255   3.403   9.335  0.4305  0.3537  0.0604
  709MOL0     C95608   3.386   3.421   9.360 -0.5819 -0.2217 -0.0960
  709MOL0     C95609   3.460   3.360   9.478 -0.2041  0.0071 -0.2451
  709MOL0     O95610   3.594   3.332   9.471  0.4781  0.5530  0.1664
  709MOL0     C95611   3.667   3.292   9.579 -0.3711  0.8029  0.0737
  709MOL0     C95612   3.741   3.375   9.667 -0.1014  0.4767 -0.0285
  709MOL0     C95613   3.826   3.322   9.765  0.5576 -0.6339  0.1001
  709MOL0     C95614   3.840   3.185   9.787  0.4690  0.2149 -0.0749
  709MOL0     O95615   3.909   3.147   9.903 -0.3861  0.8673  0.2113
  709MOL0     C95616   3.904   3.007   9.928 -0.7480  0.3093 -1.1316
  709MOL0     C95617   3.954   2.982  10.062  0.8736  0.8070 -0.3513
  709MOL0     C95618   4.104   3.018  10.086 -0.7492  0.2594 -0.3994
  709MOL0     C95619   4.167   2.960  10.212  0.2172 -0.6309  0.4286
  709MOL0     C95620   4.324   2.979  10.206  0.0847 -0.3790 -0.0815
  709MOL0     C95621   4.390   2.934  10.338 -0.2692  0.5305 -0.9083
  709MOL0     C95622   4.361   2.780  10.362 -0.6563 -0.4836 -0.7091
  709MOL0     C95623   4.470   2.722  10.452  0.3605 -1.4192 -0.8940
  709MOL0    Cl95624   4.453   2.551  10.491 -0.5936 -0.3582 -0.1377
  709MOL0     C95625   3.768   3.097   9.702 -0.2837 -0.2728 -0.3785
  709MOL0     C95626   3.680   3.149   9.609 -0.0259  0.5238  0.1000
  709MOL0     O95627   3.391   3.323   9.575  0.2954 -0.1874 -0.3086
  709MOL0     C95628   3.463   3.510   9.284  0.0289  0.1062  0.8739
  709MOL0     C95629   3.401   3.575   9.178 -0.4341 -0.6001 -0.3483
  709MOL0     N95630   2.996   4.138   8.698 -0.1460  0.7494 -0.2813
  709MOL0     N95631   2.867   4.171   8.683 -0.7587 -0.3928  0.7836
  709MOL0     C95632   2.223   3.033   8.514  0.8233  0.1965  0.0701
  709MOL0     C95633   2.146   2.914   8.508 -0.7684 -0.4778  0.3240
  709MOL0     C95634   1.921   2.535   8.450  0.4987  0.9015 -0.5885
  709MOL0     C95635   1.812   2.491   8.531  1.3038 -0.3704 -0.1028
  709MOL0     C95636   1.775   2.353   8.540 -0.3085 -0.3106 -0.6829
  709MOL0     C95637   1.847   2.263   8.455 -0.2279  0.4147 -0.1213
  709MOL0     O95638   1.823   2.130   8.457 -0.1592  0.9367  0.1385
  709MOL0     C95639   1.867   2.060   8.574  1.0771 -0.1180  0.4032
  709MOL0     C95640   1.884   1.913   8.553  0.5940  0.8286 -0.4861
  709MOL0     C95641   1.994   1.886   8.449 -0.0819  0.0443  0.8287
  709MOL0     C95642   1.979   1.739   8.415 -0.0118 -0.9733 -0.7005
  709MOL0     C95643   2.019   1.651   8.517 -0.8620 -0.6047 -0.3451
  709MOL0     C95644   2.048   1.570   8.605 -0.2888  1.1528 -0.2326
  709MOL0     C95645   1.943   2.306   8.360 -0.5219 -0.3232  0.4504
  709MOL0     C95646   1.977   2.442   8.362  0.4843  0.4154 -0.2474
  709MOL0     C95647   2.080   2.477   8.257 -0.1789  0.1592 -0.4736
  709MOL0     H95648   2.130   2.895   8.173 -1.3892 -0.7747 -0.0487
  709MOL0     H95649   2.253   3.085   8.189 -4.7706  1.0215 -0.6697
  709MOL0     H95650   2.330   3.277   8.592 -0.5151  0.7307 -2.4216
  709MOL0     H95651   2.487   3.204   8.548  1.5061 -0.5242 -0.3343
  709MOL0     H95652   2.382   3.439   8.390 -1.0363  0.2681  1.7923
  709MOL0     H95653   2.548   3.389   8.419 -1.3505  0.1584 -3.0330
  709MOL0     H95654   2.528   3.448   8.659  1.8261 -3.9970 -2.5508
  709MOL0     H95655   2.366   3.520   8.611  0.7780  0.2525  2.6199
  709MOL0     H95656   2.638   3.607   8.545  0.7210 -0.3221  2.7877
  709MOL0     H95657   2.505   3.663   8.457  0.7780  0.3908 -0.3391
  709MOL0     H95658   2.400   3.732   8.682  0.1049 -0.6631  3.1228
  709MOL0     H95659   2.548   3.675   8.759  1.7444  0.7272  0.3881
  709MOL0     H95660   2.695   3.824   8.633 -1.3660 -2.2732 -1.8374
  709MOL0     H95661   2.565   3.908   8.562  2.3213 -1.0514 -0.8161
  709MOL0     H95662   2.604   3.910   8.872 -1.3764 -0.9600  0.9007
  709MOL0     H95663   2.471   3.964   8.790 -0.3548 -1.5558 -0.4391
  709MOL0     H95664   2.616   4.127   8.647  2.4769 -1.0754 -1.2142
  709MOL0     H95665   2.622   4.151   8.820  0.0843 -3.4985  3.3732
  709MOL0     H95666   2.845   3.928   8.894  0.7820  0.8660  0.6202
  709MOL0     H95667   3.203   3.943   8.790  2.2720  0.5363  2.9502
  709MOL0     H95668   3.181   4.085   8.893  1.0902 -0.7413  1.1675
  709MOL0     H95669   3.066   3.951   9.067 -2.5914 -2.1181  0.8528
  709MOL0     H95670   3.043   3.827   8.956  1.0877 -0.2532 -1.4204
  709MOL0     H95671   3.236   3.819   9.138 -0.4906  3.5139  1.3967
  709MOL0     H95672   3.325   3.916   9.026 -1.4147  1.5091 -0.5931
  709MOL0     H95673   3.370   3.678   8.937  0.1921  3.0913 -0.5585
  709MOL0     H95674   3.224   3.718   8.866 -2.7758  0.0729  1.2110
  709MOL0     H95675   3.085   3.462   9.210  0.1427 -1.4909  1.0309
  709MOL0     H95676   3.188   3.342   9.395 -0.0845  0.2800 -0.5748
  709MOL0     H95677   3.743   3.484   9.667 -1.1195  0.5407  1.9972
  709MOL0     H95678   3.883   3.404   9.808 -2.4271  2.1896 -0.8336
  709MOL0     H95679   3.806   2.959   9.917  0.8789 -3.9563  0.6893
  709MOL0     H95680   3.959   2.951   9.852 -0.5212  0.8639 -1.3834
  709MOL0     H95681   3.892   3.037  10.134  3.0033 -0.0144  2.3227
  709MOL0     H95682   3.939   2.876  10.084  1.5507  0.4365 -1.6080
  709MOL0     H95683   4.163   2.986   9.999  0.6278  0.9591  0.2356
  709MOL0     H95684   4.125   3.125  10.093  1.6210 -0.0059 -2.2335
  709MOL0     H95685   4.139   2.857  10.240  0.2735 -0.1174  2.5550
  709MOL0     H95686   4.143   3.020  10.300  0.5317 -0.7566  0.6033
  709MOL0     H95687   4.348   3.084  10.189 -0.0005 -0.3146  0.1985
  709MOL0     H95688   4.352   2.909  10.127 -1.9323  1.1306 -2.2918
  709MOL0     H95689   4.498   2.950  10.349 -0.6216  2.4055  0.2083
  709MOL0     H95690   4.349   2.991  10.422 -2.5855 -1.1426 -0.7910
  709MOL0     H95691   4.358   2.727  10.267 -2.8838 -2.2299  0.2338
  709MOL0     H95692   4.268   2.762  10.417  0.5061 -1.1528  1.1523
  709MOL0     H95693   4.571   2.732  10.410  0.9130  1.6331  0.8552
  709MOL0     H95694   4.469   2.781  10.544 -1.5575 -3.1892  0.2858
  709MOL0     H95695   3.780   2.989   9.713 -1.5565 -0.7936 -3.0731
  709MOL0     H95696   3.617   3.080   9.554 -2.3968  2.4978  0.1475
  709MOL0     H95697   3.565   3.529   9.314  0.1355  1.5009 -0.2660
  709MOL0     H95698   3.456   3.653   9.127  0.0372 -2.5044 -2.9873
  709MOL0     H95699   2.245   3.070   8.613 -3.3794 -0.4112  1.3955
  709MOL0     H95700   2.118   2.865   8.601 -3.4575  1.7508  0.7993
  709MOL0     H95701   1.763   2.555   8.603 -0.3584 -0.1870 -1.3389
  709MOL0     H95702   1.705   2.309   8.610  0.9856 -0.6144  0.4606
  709MOL0     H95703   1.800   2.078   8.658  0.4762 -3.9648  0.9237
  709MOL0     H95704   1.960   2.110   8.604  0.0783  2.5845 -0.6228
  709MOL0     H95705   1.787   1.874   8.519  1.0220 -0.3478 -0.3913
  709MOL0     H95706   1.909   1.874   8.652  2.1851 -0.0002 -1.1853
  709MOL0     H95707   2.085   1.919   8.499 -1.0927  2.1977  1.3842
  709MOL0     H95708   1.966   1.951   8.365  0.5102  1.7785  1.9240
  709MOL0     H95709   1.879   1.700   8.394 -0.4835 -2.3756  3.2477
  709MOL0     H95710   2.051   1.728   8.334  0.3558 -1.2317 -0.3454
  709MOL0     H95711   2.078   1.501   8.681 -0.9418 -0.1977 -1.1807
  709MOL0     H95712   2.000   2.240   8.296 -0.1883  0.3520  0.0378
  709MOL0     H95713   2.182   2.476   8.296 -0.0792 -2.1760 -0.6653
  709MOL0     H95714   2.090   2.390   8.192  1.9450 -1.4183  1.8057
  709MOL0     H95715   2.051   2.571   8.207 -0.1989 -0.6408 -2.0492
  710MOL0     O95716   1.434   3.270   0.632  0.2871  0.2653 -1.0474
  710MOL0     C95717   1.548   3.266   0.582  0.2574  0.4395 -0.2264
  710MOL0     O95718   1.650   3.366   0.602  0.2181 -0.6789  0.1695
  710MOL0     C95719   1.632   3.451   0.704 -0.4713  0.0409 -0.5293
  710MOL0     C95720   1.581   3.583   0.685 -0.3367 -0.1482  1.1431
  710MOL0     C95721   1.582   3.668   0.792  0.2063  0.8723  0.0177
  710MOL0     C95722   1.613   3.627   0.918  0.3773 -0.9011 -0.5228
  710MOL0     O95723   1.597   3.724   1.023  0.3149  0.3706 -0.2236
  710MOL0     C95724   1.552   3.681   1.145  0.1827  0.2373  0.5949
  710MOL0     C95725   1.513   3.812   1.219  0.0862 -1.2052  0.5642
  710MOL0     C95726   1.404   3.896   1.150 -0.6306  0.0056 -0.0669
  710MOL0     C95727   1.379   4.035   1.214 -0.3439  0.2724  0.5993
  710MOL0     C95728   1.281   4.022   1.335  0.0869  0.1590 -0.7471
  710MOL0     C95729   1.263   4.152   1.416  0.2361  0.0452  1.7660
  710MOL0     C95730   1.253   4.141   1.571  0.3495 -0.7895  0.1804
  710MOL0     C95731   1.390   4.113   1.631 -0.0136 -1.5063 -0.5450
  710MOL0     N95732   1.481   4.228   1.611 -0.2002  0.5214  0.1290
  710MOL0     C95733   1.586   4.231   1.518 -0.2404  0.2437  0.5776
  710MOL0     C95734   1.643   4.355   1.533 -0.2185  0.0899  0.6265
  710MOL0     C95735   1.775   4.369   1.456  0.2021 -0.9090 -0.5403
  710MOL0     C95736   1.847   4.500   1.474  0.1893  0.5036  0.2098
  710MOL0     C95737   1.987   4.483   1.516 -0.7224 -0.1360  0.3673
  710MOL0     C95738   2.072   4.608   1.522  0.1724 -0.6049  0.0484
  710MOL0     O95739   2.214   4.579   1.549 -0.5123  0.4093  0.4940
  710MOL0     C95740   2.261   4.543   1.675  1.4854 -0.7236  0.2530
  710MOL0     C95741   2.183   4.510   1.789  0.6601  0.2811  0.1616
  710MOL0     C95742   2.256   4.469   1.907 -1.1362 -0.5651  0.0529
  710MOL0     C95743   2.396   4.458   1.903 -0.6411 -0.9904  0.2692
  710MOL0     C95744   2.470   4.411   2.026  0.9413  0.5401  0.0690
  710MOL0     O95745   2.604   4.423   2.033  1.0763 -0.2192 -0.3770
  710MOL0     C95746   2.659   4.388   2.149 -0.4516  0.6472 -0.0087
  710MOL0     C95747   2.694   4.489   2.239  0.3583 -0.7103 -0.2871
  710MOL0     C95748   2.764   4.454   2.356  0.0651 -0.4417  1.3833
  710MOL0     C95749   2.781   4.313   2.389  0.1408  0.7367 -0.1067
  710MOL0     O95750   2.836   4.298   2.513  0.0770  1.4747  1.0803
  710MOL0     C95751   2.976   4.292   2.519 -0.5957  0.5985 -0.0202
  710MOL0     C95752   3.017   4.367   2.643 -0.4557 -0.2612 -0.6221
  710MOL0     C95753   3.134   4.316   2.733  0.8796 -0.5193 -1.2375
  710MOL0     C95754   3.259   4.332   2.654  1.0085 -0.4962  0.0606
  710MOL0     C95755   3.322   4.458   2.684 -1.4849 -0.8512  1.5465
  710MOL0     C95756   3.464   4.455   2.618  0.9467 -1.0040  0.3052
  710MOL0     C95757   3.542   4.591   2.633  0.1152 -0.1889 -0.2281
  710MOL0     C95758   3.485   4.710   2.551 -0.5313  0.4102  0.5612
  710MOL0    Cl95759   3.460   4.675   2.377  0.2029  0.2163  0.3347
  710MOL0     C95760   2.721   4.214   2.309 -0.8134  0.3043  0.4402
  710MOL0     C95761   2.662   4.247   2.187 -0.7557 -0.1165  0.2892
  710MOL0     O95762   2.398   4.354   2.109 -0.5811  0.1273  0.2549
  710MOL0     C95763   2.467   4.495   1.786  0.1915 -0.6952 -1.2136
  710MOL0     C95764   2.394   4.538   1.672 -0.4823 -0.8921  0.9396
  710MOL0     N95765   1.570   4.429   1.628 -0.4944 -0.3161  0.1433
  710MOL0     N95766   1.475   4.347   1.672  0.8769 -1.1812 -0.0129
  710MOL0     C95767   1.641   3.493   0.947  1.1201 -0.4877  0.9855
  710MOL0     C95768   1.656   3.405   0.834 -0.0467 -0.0823 -0.3839
  710MOL0     C95769   1.592   3.155   0.506  0.5549 -0.4218  0.2271
  710MOL0     C95770   1.599   3.028   0.565  0.1893 -0.6135  0.1791
  710MOL0     C95771   1.649   2.913   0.510  0.1536  0.6802 -0.1157
  710MOL0     C95772   1.683   2.922   0.373  0.2437 -0.0012 -0.1101
  710MOL0     O95773   1.716   2.796   0.314  0.1905 -0.2035 -0.1249
  710MOL0     C95774   1.702   2.784   0.172 -0.3332 -0.2200 -0.3369
  710MOL0     C95775   1.736   2.643   0.131  0.3018  0.1371  0.5490
  710MOL0     C95776   1.861   2.581   0.186 -0.4621 -0.4425 -0.4578
  710MOL0     C95777   1.921   2.461   0.095 -0.8568  0.4328  0.0966
  710MOL0     C95778   1.978   2.500  -0.041 -0.2938 -0.2638  0.9859
  710MOL0     C95779   2.027   2.510  -0.157  1.3381 -0.1457 -0.1886
  710MOL0     C95780   1.691   3.046   0.311  0.9856 -0.2359  1.2306
  710MOL0     C95781   1.634   3.166   0.370  0.3295  0.2043 -0.5204
  710MOL0     C95782   1.643   3.291   0.295 -0.5311  0.1088  0.2700
  710MOL0     H95783   1.554   3.614   0.584 -1.0965  1.1889  1.7283
  710MOL0     H95784   1.549   3.770   0.774  0.2007  0.7299 -0.8055
  710MOL0     H95785   1.479   3.601   1.131  1.6203 -0.8165 -1.3408
  710MOL0     H95786   1.642   3.640   1.191  0.2024  0.4835  0.7804
  710MOL0     H95787   1.606   3.866   1.242 -0.7226  1.2097 -1.4113
  710MOL0     H95788   1.477   3.781   1.317 -0.8776 -1.1515  0.2324
  710MOL0     H95789   1.315   3.835   1.130 -0.5040 -0.4004  0.5745
  710MOL0     H95790   1.443   3.930   1.053  1.7615  3.1078  1.7753
  710MOL0     H95791   1.474   4.072   1.255  0.7980 -2.0224  0.1755
  710MOL0     H95792   1.335   4.111   1.149 -0.8121  2.1848  2.9991
  710MOL0     H95793   1.184   3.986   1.298 -0.4471 -0.6804  1.3488
  710MOL0     H95794   1.319   3.949   1.406  0.5878  2.5095  1.5728
  710MOL0     H95795   1.348   4.216   1.391 -1.0128  0.6608 -1.2921
  710MOL0     H95796   1.177   4.206   1.376  2.0064  2.4488  1.0332
  710MOL0     H95797   1.201   4.045   1.586 -0.1568 -0.2476  2.2382
  710MOL0     H95798   1.194   4.221   1.616  0.7256 -0.6839  0.4865
  710MOL0     H95799   1.370   4.113   1.738 -1.1023  1.3530 -0.6633
  710MOL0     H95800   1.452   4.031   1.591  2.5053  0.2972 -0.5923
  710MOL0     H95801   1.624   4.147   1.461 -0.1503  1.1601 -0.7629
  710MOL0     H95802   1.840   4.287   1.489  1.3746 -0.3929 -1.4678
  710MOL0     H95803   1.757   4.364   1.349  0.6912  2.2233 -0.8543
  710MOL0     H95804   1.848   4.548   1.375 -2.6391  4.2587  1.7580
  710MOL0     H95805   1.790   4.562   1.544  0.3604  2.7165 -1.5040
  710MOL0     H95806   2.036   4.430   1.434 -1.8195  0.2660 -0.5626
  710MOL0     H95807   1.994   4.420   1.606  2.0285  1.5698  1.4858
  710MOL0     H95808   2.041   4.672   1.606 -0.2560 -0.5091 -0.1834
  710MOL0     H95809   2.052   4.657   1.426 -0.0577  0.4953  0.6426
  710MOL0     H95810   2.075   4.523   1.792  0.4290 -1.5579  2.1179
  710MOL0     H95811   2.198   4.431   1.991 -1.7630 -0.0647 -0.1491
  710MOL0     H95812   2.685   4.593   2.211  1.2252 -0.8084 -0.9657
  710MOL0     H95813   2.794   4.537   2.420 -1.0317  0.1082  1.2126
  710MOL0     H95814   3.001   4.186   2.524  0.9149  0.9581  0.6553
  710MOL0     H95815   3.031   4.336   2.435 -0.7788  2.6739  0.8684
  710MOL0     H95816   3.043   4.470   2.618 -0.9995  0.5830  2.0376
  710MOL0     H95817   2.932   4.375   2.711 -0.6015 -0.9045 -0.7237
  710MOL0     H95818   3.131   4.384   2.819  1.0679 -0.9910 -0.8545
  710MOL0     H95819   3.127   4.219   2.783  1.8632 -0.1178 -0.2560
  710MOL0     H95820   3.250   4.323   2.546 -0.6596  2.6557 -0.1818
  710MOL0     H95821   3.331   4.257   2.688 -0.1718 -1.2572  0.9497
  710MOL0     H95822   3.337   4.478   2.790 -2.7418  0.3078  1.5342
  710MOL0     H95823   3.265   4.536   2.632 -2.1977 -1.7529  0.9385
  710MOL0     H95824   3.525   4.378   2.667  3.2339 -0.4051 -1.4260
  710MOL0     H95825   3.458   4.434   2.511 -0.9911 -0.4937  0.2808
  710MOL0     H95826   3.648   4.573   2.611  0.5639  0.4583  1.2496
  710MOL0     H95827   3.538   4.636   2.732  0.0193  1.7439 -1.0567
  710MOL0     H95828   3.379   4.714   2.578 -0.2305  0.1040  1.8262
  710MOL0     H95829   3.535   4.807   2.560  1.1908 -0.1811 -1.7430
  710MOL0     H95830   2.726   4.111   2.345 -0.2870  1.3469  3.7579
  710MOL0     H95831   2.625   4.169   2.121 -1.4914  0.0817  0.4549
  710MOL0     H95832   2.575   4.498   1.791  0.1833 -1.1092  2.6874
  710MOL0     H95833   2.453   4.566   1.585 -0.8659  0.5786  1.1230
  710MOL0     H95834   1.642   3.457   1.049 -3.4141 -1.7653  0.8133
  710MOL0     H95835   1.683   3.304   0.861 -5.3777 -2.4484 -2.5411
  710MOL0     H95836   1.571   3.025   0.669  2.3848  0.1705  0.8606
  710MOL0     H95837   1.650   2.821   0.568 -1.6328  0.6193 -0.1120
  710MOL0     H95838   1.772   2.858   0.131 -0.4351  0.3493  0.4857
  710MOL0     H95839   1.601   2.816   0.145  0.6465  0.7815 -3.0975
  710MOL0     H95840   1.751   2.643   0.022  1.7917 -0.1640  0.7368
  710MOL0     H95841   1.646   2.581   0.144  0.0015  0.1178 -1.3151
  710MOL0     H95842   1.840   2.539   0.285 -0.7420 -0.1776 -0.4048
  710MOL0     H95843   1.933   2.661   0.203  0.3693 -0.6207 -2.8252
  710MOL0     H95844   2.005   2.412   0.145 -0.0720  1.6481  0.0087
  710MOL0     H95845   1.844   2.384   0.085 -1.1884  0.6525  0.8562
  710MOL0     H95846   2.049   2.504  -0.261 -0.4831  4.4916 -1.0376
  710MOL0     H95847   1.729   3.056   0.210 -1.3585  3.2713  0.5394
  710MOL0     H95848   1.650   3.375   0.364 -2.7047  0.2119  0.4358
  710MOL0     H95849   1.733   3.284   0.233 -0.5527 -3.1404  0.3998
  710MOL0     H95850   1.556   3.307   0.230 -0.4799  0.4851  0.2943
  711MOL0     O95851   7.424   3.218   1.162  0.1128 -0.3118  0.1336
  711MOL0     C95852   7.390   3.249   1.046 -0.6844  0.1429 -0.5522
  711MOL0     O95853   7.469   3.264   0.940 -0.0426 -0.0014 -0.5599
  711MOL0     C95854   7.599   3.220   0.959 -0.3143 -0.9168 -0.4635
  711MOL0     C95855   7.697   3.292   1.025 -1.1133  0.0059  0.0959
  711MOL0     C95856   7.832   3.245   1.026 -0.5023 -0.3543 -0.5870
  711MOL0     C95857   7.869   3.128   0.977  0.6671  0.3718  0.8352
  711MOL0     O95858   7.998   3.079   0.981 -0.2286 -0.6799  1.2614
  711MOL0     C95859   8.094   3.155   1.052 -0.2776  1.0050  0.5181
  711MOL0     C95860   8.215   3.076   1.093  0.0663 -0.1248  0.6764
  711MOL0     C95861   8.178   2.937   1.137  0.1207 -0.5865 -0.6701
  711MOL0     C95862   8.300   2.889   1.233 -0.3468  0.2757 -0.3284
  711MOL0     C95863   8.281   2.757   1.305  0.6850 -0.5180  1.0845
  711MOL0     C95864   8.275   2.653   1.191 -0.1602  1.1217 -0.2895
  711MOL0     C95865   8.288   2.508   1.243 -0.6236 -0.1181  0.7843
  711MOL0     C95866   8.432   2.473   1.258  0.7875 -0.4711 -0.3265
  711MOL0     N95867   8.455   2.346   1.330  0.8024 -0.9345 -0.0226
  711MOL0     C95868   8.379   2.235   1.344 -0.1821 -0.3683 -0.0212
  711MOL0     C95869   8.451   2.157   1.425  0.0573 -0.8552 -0.5545
  711MOL0     C95870   8.388   2.039   1.495  0.9739 -0.1687 -0.3819
  711MOL0     C95871   8.325   1.937   1.410  0.4907 -0.1490 -0.0934
  711MOL0     C95872   8.416   1.878   1.296  0.2787  0.0769 -0.3729
  711MOL0     C95873   8.344   1.809   1.185  0.1408 -0.0749 -1.5666
  711MOL0     O95874   8.295   1.698   1.255 -0.4436  0.1587  0.5391
  711MOL0     C95875   8.289   1.579   1.190  0.3546 -1.0228 -0.9674
  711MOL0     C95876   8.295   1.560   1.054  0.1837  0.5059  0.4050
  711MOL0     C95877   8.316   1.423   1.002 -0.6968 -0.9668  0.4681
  711MOL0     C95878   8.322   1.306   1.078  0.4907 -0.4288 -0.1589
  711MOL0     C95879   8.324   1.169   1.019 -0.7339  0.8775  0.5593
  711MOL0     O95880   8.331   1.169   0.891  0.3753  0.0092  0.4931
  711MOL0     C95881   8.312   1.053   0.817  0.7383  0.6275  0.5142
  711MOL0     C95882   8.412   0.960   0.784 -0.8095 -0.0015 -0.5768
  711MOL0     C95883   8.382   0.850   0.711 -0.7312  0.1692  0.1441
  711MOL0     C95884   8.257   0.823   0.658 -0.1247 -0.0199  0.1538
  711MOL0     O95885   8.253   0.707   0.577 -0.0425  0.8865 -0.2444
  711MOL0     C95886   8.149   0.682   0.480  0.6558 -0.3106  0.5150
  711MOL0     C95887   8.142   0.542   0.443 -0.0989 -0.3369 -0.2174
  711MOL0     C95888   8.251   0.494   0.338 -0.3992  0.2571 -0.9013
  711MOL0     C95889   8.318   0.376   0.386 -0.7055  0.6141  0.7038
  711MOL0     C95890   8.374   0.292   0.271 -0.3219  0.1505 -0.2602
  711MOL0     C95891   8.518   0.323   0.252 -0.8076  0.5129 -0.4309
  711MOL0     C95892   8.598   0.213   0.171 -0.8199 -0.2626 -0.0937
  711MOL0     C95893   8.582   0.224   0.022  0.5077  1.2606 -0.2786
  711MOL0    Cl95894   8.667   0.369  -0.028 -0.0161 -0.1002  0.1754
  711MOL0     C95895   8.158   0.911   0.687  0.4681  0.6817  0.0411
  711MOL0     C95896   8.184   1.023   0.769  0.5907  0.3939 -0.3162
  711MOL0     O95897   8.313   1.072   1.090  0.3502  0.1083  0.4714
  711MOL0     C95898   8.323   1.333   1.220  0.6054 -1.0656 -0.2223
  711MOL0     C95899   8.310   1.463   1.277 -0.1365  0.3555  0.6185
  711MOL0     N95900   8.571   2.219   1.453  0.0506 -1.3678 -0.1842
  711MOL0     N95901   8.568   2.339   1.409  1.1655  0.3549 -0.2270
  711MOL0     C95902   7.766   3.053   0.917 -0.6314  0.0289 -0.6440
  711MOL0     C95903   7.644   3.099   0.901  0.3836 -0.7173  0.1466
  711MOL0     C95904   7.249   3.257   1.024 -0.1717  0.3046  0.0772
  711MOL0     C95905   7.167   3.330   1.127  0.7625 -0.8968  0.4618
  711MOL0     C95906   7.026   3.340   1.110 -0.5816  0.3840  1.2743
  711MOL0     C95907   6.968   3.274   0.999  0.7822  0.1785  0.8504
  711MOL0     O95908   6.830   3.258   0.988  0.0160 -0.2523  0.2153
  711MOL0     C95909   6.748   3.306   1.099  0.7870  0.6851 -0.1405
  711MOL0     C95910   6.594   3.276   1.093  0.6791  0.2111 -0.1647
  711MOL0     C95911   6.565   3.117   1.075  1.0902 -0.1946 -0.1716
  711MOL0     C95912   6.584   3.069   0.923 -0.8518 -1.2988 -0.4702
  711MOL0     C95913   6.528   2.936   0.913 -1.0163 -0.2234  0.7656
  711MOL0     C95914   6.499   2.822   0.884  0.2228  0.2723 -0.2794
  711MOL0     C95915   7.053   3.189   0.906 -0.4243 -0.0983 -0.0565
  711MOL0     C95916   7.191   3.191   0.914 -0.3039 -0.0721  0.4653
  711MOL0     C95917   7.272   3.115   0.804  0.5966  0.6002 -0.9319
  711MOL0     H95918   7.678   3.389   1.070 -0.0052  0.4142 -0.2852
  711MOL0     H95919   7.903   3.311   1.074 -0.1517 -0.1415 -1.3812
  711MOL0     H95920   8.127   3.232   0.982  1.5257 -1.3861 -1.4233
  711MOL0     H95921   8.049   3.181   1.149  0.2260 -1.0912  1.3630
  711MOL0     H95922   8.280   3.137   1.157  2.5781  1.1431 -2.7834
  711MOL0     H95923   8.269   3.068   0.999 -1.8117  2.0895 -0.6747
  711MOL0     H95924   8.157   2.880   1.046 -1.4216 -0.6755 -0.2834
  711MOL0     H95925   8.092   2.952   1.204  2.8354  3.7803  2.3810
  711MOL0     H95926   8.390   2.875   1.172 -0.2121 -3.0468  0.4376
  711MOL0     H95927   8.309   2.967   1.309  1.7058  1.5847 -1.7889
  711MOL0     H95928   8.369   2.742   1.369  0.6925 -1.4031  0.8847
  711MOL0     H95929   8.193   2.747   1.368  1.5733 -1.4721  2.2173
  711MOL0     H95930   8.174   2.656   1.149 -2.1018  0.9233  3.8612
  711MOL0     H95931   8.356   2.673   1.121  1.2950  1.2576  1.3694
  711MOL0     H95932   8.235   2.443   1.173  1.4322  1.1553 -2.1418
  711MOL0     H95933   8.239   2.501   1.341 -2.5297 -0.4499 -0.1407
  711MOL0     H95934   8.482   2.462   1.162 -0.4085 -0.4228 -0.9694
  711MOL0     H95935   8.478   2.550   1.320  1.9086 -0.1128 -1.5654
  711MOL0     H95936   8.280   2.219   1.302  0.3298 -1.5810 -0.8202
  711MOL0     H95937   8.460   1.992   1.563 -1.2489 -2.4209  0.5504
  711MOL0     H95938   8.299   2.069   1.551  1.0489 -3.7178  1.9561
  711MOL0     H95939   8.291   1.854   1.472 -2.6359 -1.1149 -2.8139
  711MOL0     H95940   8.236   1.986   1.370  1.8235  2.0656 -0.5636
  711MOL0     H95941   8.481   1.800   1.335  0.4090  0.4085  0.0827
  711MOL0     H95942   8.471   1.957   1.243 -2.0259  0.4509 -2.3766
  711MOL0     H95943   8.423   1.799   1.110  2.0420  0.9469  0.1851
  711MOL0     H95944   8.261   1.863   1.140  0.2786 -0.3103 -2.1110
  711MOL0     H95945   8.289   1.645   0.987 -3.3407 -0.0675 -0.1976
  711MOL0     H95946   8.322   1.410   0.894 -1.7826 -2.6511  0.5768
  711MOL0     H95947   8.515   0.976   0.813 -0.8935 -0.2841 -0.1010
  711MOL0     H95948   8.453   0.777   0.676  0.6885  1.4063  0.3657
  711MOL0     H95949   8.050   0.703   0.521 -0.8082  0.6043 -3.1226
  711MOL0     H95950   8.170   0.743   0.392 -0.6372 -1.2894 -0.5236
  711MOL0     H95951   8.149   0.477   0.531  0.2772 -1.3062 -0.9457
  711MOL0     H95952   8.047   0.518   0.395 -0.5314 -0.2431  0.5710
  711MOL0     H95953   8.209   0.502   0.237 -0.3182  0.3156 -0.9306
  711MOL0     H95954   8.330   0.569   0.327 -0.9928  0.6708 -2.7502
  711MOL0     H95955   8.244   0.307   0.429  0.7215 -2.6593 -1.6323
  711MOL0     H95956   8.391   0.383   0.468  0.6065 -0.0662 -0.3599
  711MOL0     H95957   8.319   0.309   0.177 -0.9694  1.0014  0.2607
  711MOL0     H95958   8.356   0.186   0.292 -0.8908  0.6382  1.9125
  711MOL0     H95959   8.546   0.421   0.212  0.6883  0.4548  0.3620
  711MOL0     H95960   8.561   0.322   0.353 -2.5672 -0.7637  0.3571
  711MOL0     H95961   8.567   0.111   0.195 -1.6280  0.3961  1.9621
  711MOL0     H95962   8.701   0.222   0.208 -1.0195 -0.0458  0.4254
  711MOL0     H95963   8.626   0.134  -0.021  0.2162  0.3580  1.2224
  711MOL0     H95964   8.475   0.235  -0.001  0.2628  2.5641  1.2804
  711MOL0     H95965   8.058   0.892   0.648  0.8193 -0.6637 -0.2540
  711MOL0     H95966   8.095   1.083   0.783  1.3712  1.0823  2.1825
  711MOL0     H95967   8.328   1.246   1.285  1.3184 -0.6054  0.3458
  711MOL0     H95968   8.314   1.473   1.385 -0.3555 -2.3868  0.9516
  711MOL0     H95969   7.788   2.955   0.876  2.1221 -0.2765  1.3433
  711MOL0     H95970   7.580   3.035   0.842 -0.3595 -0.0388  0.1837
  711MOL0     H95971   7.203   3.393   1.207 -1.5775  0.4479  0.5440
  711MOL0     H95972   6.980   3.397   1.190  0.1424 -1.2504  2.9307
  711MOL0     H95973   6.768   3.413   1.107 -0.1499  0.7528  1.9633
  711MOL0     H95974   6.801   3.267   1.187 -1.4110  3.4700  2.6329
  711MOL0     H95975   6.555   3.337   1.010 -1.0811 -1.2117 -0.4393
  711MOL0     H95976   6.548   3.315   1.184 -0.0183  1.6668 -1.0919
  711MOL0     H95977   6.466   3.091   1.114  0.9949  1.8478  1.1011
  711MOL0     H95978   6.628   3.058   1.142 -1.1149 -0.6937  1.5765
  711MOL0     H95979   6.514   3.129   0.864 -0.3040 -0.7327 -0.5540
  711MOL0     H95980   6.682   3.073   0.874 -0.8282 -0.0422 -0.3725
  711MOL0     H95981   6.467   2.720   0.874 -2.7345  1.0776  0.0382
  711MOL0     H95982   7.007   3.133   0.825 -3.7088 -0.3299  1.8122
  711MOL0     H95983   7.368   3.084   0.846 -0.5001  0.8498  1.9580
  711MOL0     H95984   7.216   3.029   0.766 -0.0473 -0.4382  2.0601
  711MOL0     H95985   7.301   3.189   0.729  1.1833  0.0809 -1.2318
  712MOL0     O95986   0.830   9.442   2.368 -0.3596 -0.3427 -0.3190
  712MOL0     C95987   0.848   9.557   2.323  0.4901  0.1803  0.9477
  712MOL0     O95988   0.887   9.584   2.188 -0.4513  0.4169  0.2928
  712MOL0     C95989   0.890   9.485   2.094 -0.1625  0.2806 -0.3825
  712MOL0     C95990   1.009   9.433   2.048 -0.4863 -0.3660 -0.6669
  712MOL0     C95991   1.012   9.324   1.958  0.1512  0.4580 -0.3635
  712MOL0     C95992   0.890   9.282   1.902 -0.7060 -0.1496 -0.8907
  712MOL0     O95993   0.888   9.177   1.813 -0.0304  0.3567  0.2564
  712MOL0     C95994   0.999   9.080   1.806 -0.8733 -0.4444  0.6689
  712MOL0     C95995   0.932   8.964   1.728 -0.1617 -0.5354  0.6130
  712MOL0     C95996   0.920   8.988   1.571  0.2804 -0.3714 -0.4093
  712MOL0     C95997   0.903   8.861   1.488 -0.2080 -1.4336  0.2992
  712MOL0     C95998   1.033   8.791   1.463 -0.4040  0.7221 -0.0315
  712MOL0     C95999   1.035   8.640   1.407 -0.4505  0.2390 -0.5131
  712MOL0     C96000   1.056   8.625   1.255 -0.2279  0.2139 -0.6403
  712MOL0     C96001   0.926   8.630   1.165  0.2001  0.0372 -1.0301
  712MOL0     N96002   0.966   8.637   1.031 -0.5461 -0.3707  0.6792
  712MOL0     C96003   0.999   8.535   0.951 -0.1254 -0.3076 -0.1397
  712MOL0     C96004   1.025   8.596   0.831 -0.2474  0.2026  0.2937
  712MOL0     C96005   1.052   8.517   0.705 -0.8189 -0.6313 -0.2686
  712MOL0     C96006   1.179   8.549   0.627  0.3434 -1.1779  0.7742
  712MOL0     C96007   1.143   8.662   0.536  0.5227 -0.7654  0.2907
  712MOL0     C96008   1.266   8.706   0.476  0.4190 -0.0738  0.1809
  712MOL0     O96009   1.254   8.839   0.429 -0.0633  0.2828 -0.1042
  712MOL0     C96010   1.216   8.860   0.305 -0.1688  0.7638  0.4921
  712MOL0     C96011   1.085   8.867   0.263 -0.3548  0.4713 -0.0251
  712MOL0     C96012   1.048   8.871   0.129  0.2888 -0.3931 -0.4644
  712MOL0     C96013   1.150   8.883   0.031  0.9196 -0.4902 -0.4994
  712MOL0     C96014   1.126   8.908  -0.113 -0.7888 -0.1255  0.2521
  712MOL0     O96015   1.234   8.879  -0.196 -0.2834  0.6314 -0.0793
  712MOL0     C96016   1.232   8.912  -0.332 -0.4738  0.9261  0.5678
  712MOL0     C96017   1.165   9.023  -0.380 -0.6213 -0.5179 -0.4815
  712MOL0     C96018   1.161   9.055  -0.517 -0.4564  0.5186 -1.2844
  712MOL0     C96019   1.229   8.968  -0.607  0.0811  0.1684 -0.1227
  712MOL0     O96020   1.234   8.984  -0.747 -0.2426  0.1788 -0.5942
  712MOL0     C96021   1.137   9.072  -0.800 -0.0798 -0.3128 -0.5090
  712MOL0     C96022   1.126   9.050  -0.948 -0.2350 -0.0345  0.2286
  712MOL0     C96023   1.001   9.112  -1.012 -0.9522 -0.8263 -1.2586
  712MOL0     C96024   1.029   9.151  -1.155 -0.4380 -0.8446 -0.0394
  712MOL0     C96025   0.898   9.219  -1.209  0.4521  0.7810 -1.2957
  712MOL0     C96026   0.929   9.257  -1.344  0.3307  1.0088 -0.1751
  712MOL0     C96027   0.803   9.327  -1.414  0.2653  1.0105  1.1801
  712MOL0     C96028   0.834   9.348  -1.562  0.7568  0.6698  0.4782
  712MOL0    Cl96029   0.746   9.487  -1.640 -0.3019  0.2902 -0.0503
  712MOL0     C96030   1.311   8.871  -0.557  0.7480 -0.5692 -1.0915
  712MOL0     C96031   1.311   8.840  -0.419  0.1393  1.4597 -0.0115
  712MOL0     O96032   1.009   8.944  -0.148 -0.5564  0.3004 -0.2229
  712MOL0     C96033   1.285   8.880   0.071  0.0066 -0.0810 -0.7349
  712MOL0     C96034   1.312   8.858   0.206  0.2437 -0.4634 -0.1098
  712MOL0     N96035   0.996   8.733   0.837  0.0238 -0.3087  0.7642
  712MOL0     N96036   0.963   8.753   0.963 -0.1099  0.0789 -0.8004
  712MOL0     C96037   0.773   9.338   1.939 -0.2329 -0.5499  0.1160
  712MOL0     C96038   0.770   9.445   2.031 -0.1715 -0.4618  0.6573
  712MOL0     C96039   0.853   9.674   2.411 -0.1555  0.1993 -1.2191
  712MOL0     C96040   0.906   9.799   2.369  0.6580  0.3814  0.4584
  712MOL0     C96041   0.904   9.923   2.446  1.3473  0.1447 -1.2146
  712MOL0     C96042   0.833   9.924   2.565 -0.1064 -0.2566 -0.0714
  712MOL0     O96043   0.807  10.030   2.647  0.6429  0.2893 -1.2663
  712MOL0     C96044   0.864  10.156   2.618  0.1479  0.0048  0.0223
  712MOL0     C96045   0.784  10.237   2.513  0.6497 -0.1902  0.1455
  712MOL0     C96046   0.864  10.358   2.459  0.9979  0.7904 -0.2258
  712MOL0     C96047   0.782  10.439   2.364  0.0226  1.4251  1.8059
  712MOL0     C96048   0.864  10.556   2.303  0.2118  0.3739 -0.2133
  712MOL0     C96049   0.915  10.651   2.253 -0.9370  0.1954  0.9407
  712MOL0     C96050   0.778   9.801   2.608  0.4093 -0.7864 -0.1566
  712MOL0     C96051   0.785   9.681   2.539  0.3432 -0.5695 -0.5054
  712MOL0     C96052   0.734   9.550   2.605  0.8860 -0.3093  0.3529
  712MOL0     H96053   1.096   9.466   2.103  0.0644  1.3658 -2.4302
  712MOL0     H96054   1.104   9.274   1.928  1.1415  2.0616 -0.1427
  712MOL0     H96055   1.088   9.130   1.765 -1.3401  1.4320  1.8082
  712MOL0     H96056   1.025   9.049   1.908 -1.9347 -0.6315  0.8947
  712MOL0     H96057   0.839   8.939   1.779 -0.9503 -1.3747 -1.1464
  712MOL0     H96058   0.992   8.877   1.755 -2.0378 -2.3103 -0.6088
  712MOL0     H96059   1.012   9.039   1.542 -0.8174  1.9405 -0.0676
  712MOL0     H96060   0.831   9.052   1.568 -0.3856 -1.0199  2.3085
  712MOL0     H96061   0.821   8.802   1.531  1.5806 -2.5946  2.2633
  712MOL0     H96062   0.870   8.906   1.394 -0.8207  0.2840  1.2892
  712MOL0     H96063   1.104   8.856   1.412 -1.2568  1.6892 -0.0228
  712MOL0     H96064   1.065   8.780   1.567  3.6404 -0.1916 -1.1830
  712MOL0     H96065   1.120   8.585   1.447 -1.9417 -0.5303  1.7324
  712MOL0     H96066   0.951   8.587   1.451 -0.0966 -0.6605 -0.9031
  712MOL0     H96067   1.102   8.528   1.233  0.3445  0.4375 -0.4506
  712MOL0     H96068   1.125   8.703   1.221  0.0725 -1.3614 -4.1710
  712MOL0     H96069   0.860   8.545   1.186 -0.0978  0.3241 -0.7982
  712MOL0     H96070   0.866   8.719   1.188 -1.6320 -1.2254 -0.7076
  712MOL0     H96071   1.022   8.431   0.973 -2.1301 -0.4626  1.5129
  712MOL0     H96072   1.076   8.416   0.741  1.2382  0.3221  1.2481
  712MOL0     H96073   0.958   8.510   0.650 -0.1771 -0.4945 -1.4124
  712MOL0     H96074   1.254   8.579   0.701  1.5984  2.1888 -1.6374
  712MOL0     H96075   1.214   8.465   0.566 -2.6574 -1.4256 -0.8392
  712MOL0     H96076   1.088   8.743   0.584 -1.1883 -1.9374  0.4017
  712MOL0     H96077   1.071   8.629   0.461  0.4056  2.0712 -1.0062
  712MOL0     H96078   1.312   8.647   0.396  1.1515 -0.5164  0.9100
  712MOL0     H96079   1.347   8.703   0.550  1.3182 -1.2813 -0.8082
  712MOL0     H96080   1.013   8.868   0.344  1.2578 -0.5324  1.4996
  712MOL0     H96081   0.942   8.870   0.104  0.0870 -0.9882  0.3813
  712MOL0     H96082   1.114   9.095  -0.316 -1.7907 -1.8418  0.1224
  712MOL0     H96083   1.101   9.142  -0.541 -0.2632  0.8352 -0.6449
  712MOL0     H96084   1.039   9.039  -0.763  0.5099 -2.3253 -0.6244
  712MOL0     H96085   1.152   9.177  -0.773 -0.6716 -0.3462 -0.0085
  712MOL0     H96086   1.218   9.089  -0.992  1.0089  0.7627  3.2294
  712MOL0     H96087   1.129   8.943  -0.968  0.2310  0.1649 -0.8035
  712MOL0     H96088   0.915   9.045  -1.006 -0.4381 -1.3817  3.3455
  712MOL0     H96089   0.967   9.199  -0.954  0.1011 -0.1204 -1.6497
  712MOL0     H96090   1.051   9.060  -1.212 -2.1315 -0.8204 -0.8174
  712MOL0     H96091   1.112   9.221  -1.155  2.0778 -3.5204  2.4881
  712MOL0     H96092   0.878   9.301  -1.140 -2.8725  0.2452 -1.4833
  712MOL0     H96093   0.815   9.148  -1.204 -1.6417  3.1593 -0.6360
  712MOL0     H96094   1.004   9.336  -1.346  0.8105  0.8035  3.2242
  712MOL0     H96095   0.957   9.166  -1.399 -1.5835 -0.0740  0.5242
  712MOL0     H96096   0.795   9.430  -1.377  0.9227  1.3323  0.4556
  712MOL0     H96097   0.704   9.283  -1.397 -1.9052  4.3050 -1.6032
  712MOL0     H96098   0.942   9.360  -1.573  0.6681  1.3905  0.3957
  712MOL0     H96099   0.819   9.259  -1.624  2.1599  0.4293  0.4343
  712MOL0     H96100   1.381   8.814  -0.618  3.1041 -0.1131  1.0474
  712MOL0     H96101   1.353   8.747  -0.384 -2.1326 -0.0703 -1.0761
  712MOL0     H96102   1.365   8.886  -0.002 -1.4706 -1.5633 -2.5881
  712MOL0     H96103   1.413   8.847   0.244  0.1110 -2.1540 -0.1766
  712MOL0     H96104   0.684   9.285   1.907 -0.8006 -0.1550  1.0158
  712MOL0     H96105   0.673   9.487   2.056  0.3962  1.3709 -0.0606
  712MOL0     H96106   0.954   9.810   2.273 -0.6705 -0.5301 -0.3361
  712MOL0     H96107   0.950  10.014   2.408 -0.9544  2.3593  0.9515
  712MOL0     H96108   0.968  10.148   2.586 -0.5503 -0.6876 -2.2958
  712MOL0     H96109   0.864  10.218   2.708  2.4148  1.8797 -1.1308
  712MOL0     H96110   0.695  10.273   2.567  3.1699  1.4276  3.6215
  712MOL0     H96111   0.751  10.168   2.435  2.3326 -1.6667  0.6732
  712MOL0     H96112   0.957  10.325   2.412  0.3375 -1.3220 -0.1745
  712MOL0     H96113   0.877  10.416   2.551  2.4483  0.0631  0.0720
  712MOL0     H96114   0.763  10.379   2.275  1.0586  2.8391  0.5750
  712MOL0     H96115   0.685  10.467   2.408  0.4189 -0.6695  4.2707
  712MOL0     H96116   0.961  10.739   2.214 -2.0536 -0.6066 -2.5116
  712MOL0     H96117   0.712   9.803   2.695 -0.4277  0.2567 -0.7940
  712MOL0     H96118   0.678   9.579   2.694 -1.0720  3.5161 -1.8442
  712MOL0     H96119   0.665   9.499   2.538  0.5472 -0.3914  0.7680
  712MOL0     H96120   0.829   9.498   2.622  1.1167  0.3774  1.2001
  713MOL0     O96121  10.268   0.535   0.090 -1.1271 -0.4717  0.9285
  713MOL0     C96122  10.306   0.421   0.101  0.7315 -0.9087  1.0792
  713MOL0     O96123  10.421   0.381   0.052 -0.0248 -0.6476  0.0168
  713MOL0     C96124  10.506   0.448  -0.034  0.0557 -0.5425 -0.2004
  713MOL0     C96125  10.499   0.435  -0.170  0.0036  0.0278  0.0237
  713MOL0     C96126  10.588   0.482  -0.260  0.3680  0.3251  0.1708
  713MOL0     C96127  10.709   0.532  -0.213  0.1204  0.2415 -0.7606
  713MOL0     O96128  10.802   0.560  -0.316 -0.3985 -0.3307 -0.2872
  713MOL0     C96129  10.928   0.616  -0.279 -0.2522 -0.8902 -0.0142
  713MOL0     C96130  11.000   0.686  -0.394  0.0855  1.0805 -0.2247
  713MOL0     C96131  11.127   0.769  -0.354  0.4198  0.6995  1.4080
  713MOL0     C96132  11.083   0.896  -0.277 -0.0081 -0.0673  0.8546
  713MOL0     C96133  11.178   1.015  -0.273  0.2205  0.1559  1.3049
  713MOL0     C96134  11.312   0.978  -0.205  0.8117  0.9059  0.1762
  713MOL0     C96135  11.294   1.008  -0.060 -1.0134 -0.2543 -0.1498
  713MOL0     C96136  11.429   1.005   0.017  0.1760  0.1482 -0.5989
  713MOL0     N96137  11.526   1.116   0.006  0.2823 -0.1303 -0.0473
  713MOL0     C96138  11.636   1.124  -0.081 -0.1262  0.2232 -0.3448
  713MOL0     C96139  11.678   1.248  -0.066 -0.3587 -0.2897 -0.7378
  713MOL0     C96140  11.790   1.317  -0.134  0.0147  0.8253  0.2333
  713MOL0     C96141  11.920   1.282  -0.066 -0.9646 -0.3250 -0.1832
  713MOL0     C96142  12.033   1.338  -0.160  0.4229  0.4577  0.4663
  713MOL0     C96143  12.173   1.273  -0.156 -0.5817  0.3220  0.2991
  713MOL0     O96144  12.241   1.313  -0.034 -0.4150  0.4616  0.4287
  713MOL0     C96145  12.235   1.226   0.070 -0.2166  0.5229 -0.0572
  713MOL0     C96146  12.293   1.275   0.192 -0.2069  0.3191  1.0717
  713MOL0     C96147  12.284   1.212   0.313 -0.3217 -0.5075 -0.8869
  713MOL0     C96148  12.237   1.084   0.319 -0.6530  0.1457 -0.4611
  713MOL0     C96149  12.235   1.010   0.440  0.1898 -0.3966 -0.2112
  713MOL0     O96150  12.170   0.890   0.440 -0.2371  0.0698 -0.1841
  713MOL0     C96151  12.186   0.807   0.547  0.1094  0.4095 -0.5937
  713MOL0     C96152  12.237   0.672   0.533  0.6583 -0.1952  0.6173
  713MOL0     C96153  12.265   0.590   0.638 -0.7964 -0.0022  0.2588
  713MOL0     C96154  12.231   0.631   0.767 -0.0273 -0.4156  0.2243
  713MOL0     O96155  12.242   0.534   0.862 -0.2146 -0.3097  0.5052
  713MOL0     C96156  12.147   0.536   0.972 -0.9153 -0.0780 -0.2856
  713MOL0     C96157  12.220   0.602   1.084 -0.4860 -0.1605 -0.0048
  713MOL0     C96158  12.128   0.632   1.208  0.0146  0.8853 -0.2363
  713MOL0     C96159  12.076   0.503   1.271  0.1770  0.4874 -0.4960
  713MOL0     C96160  11.954   0.539   1.353  0.1519  0.4490  0.5235
  713MOL0     C96161  11.963   0.650   1.454  0.3031 -0.0492 -0.0129
  713MOL0     C96162  12.054   0.612   1.578 -0.4326 -0.5283 -0.0852
  713MOL0     C96163  12.045   0.732   1.677  0.8952 -0.0489  0.8115
  713MOL0    Cl96164  11.889   0.769   1.751  0.0706 -0.1895 -0.8364
  713MOL0     C96165  12.185   0.759   0.781  0.7350  0.0406 -0.1390
  713MOL0     C96166  12.170   0.848   0.682 -0.1398  0.6309  0.4602
  713MOL0     O96167  12.319   1.050   0.523 -0.8635 -0.3872  0.6559
  713MOL0     C96168  12.182   1.027   0.205  1.2985  0.5763  0.2612
  713MOL0     C96169  12.182   1.096   0.083  0.1972  0.0032  0.6674
  713MOL0     N96170  11.593   1.314   0.021 -0.5544 -0.4645  0.1520
  713MOL0     N96171  11.498   1.237   0.058  0.7316  0.0496 -0.9574
  713MOL0     C96172  10.718   0.553  -0.073  0.0138 -0.3943 -0.1228
  713MOL0     C96173  10.616   0.518   0.015 -0.5119 -0.7875 -0.8932
  713MOL0     C96174  10.213   0.331   0.178 -1.2990 -0.6657  0.1580
  713MOL0     C96175  10.135   0.394   0.275 -0.2036 -0.5367  0.6891
  713MOL0     C96176  10.042   0.324   0.354  0.5332  0.5193  0.2176
  713MOL0     C96177  10.038   0.187   0.334  0.8277 -0.2025  0.1991
  713MOL0     O96178   9.969   0.098   0.411  1.0209  0.3074 -0.0387
  713MOL0     C96179   9.909   0.138   0.535 -0.2039  0.3475 -0.2511
  713MOL0     C96180   9.814   0.044   0.603 -0.5980 -0.9383  0.2652
  713MOL0     C96181   9.676   0.042   0.549 -0.4854 -1.1848  0.3765
  713MOL0     C96182   9.588   0.171   0.538  0.5629 -1.1223 -0.9997
  713MOL0     C96183   9.452   0.166   0.482 -0.2427 -0.8999 -0.4807
  713MOL0     C96184   9.337   0.168   0.437  0.1379 -1.3887  0.6927
  713MOL0     C96185  10.108   0.121   0.234 -0.0562 -0.5315 -0.2291
  713MOL0     C96186  10.197   0.195   0.153 -0.7508  0.1767  0.5186
  713MOL0     C96187  10.280   0.118   0.043  0.1278 -0.0636  0.3713
  713MOL0     H96188  10.405   0.392  -0.204  0.1283  0.6515 -1.1759
  713MOL0     H96189  10.561   0.468  -0.364 -0.9658  2.2610  0.2133
  713MOL0     H96190  10.911   0.703  -0.214  3.6433 -1.8066  2.5289
  713MOL0     H96191  11.006   0.560  -0.227 -3.1898 -2.7311  2.7871
  713MOL0     H96192  10.924   0.753  -0.435  1.6736  1.6964 -2.3432
  713MOL0     H96193  11.019   0.611  -0.472  0.7531 -1.1972  1.9847
  713MOL0     H96194  11.184   0.786  -0.446 -0.6567  0.5317  0.6901
  713MOL0     H96195  11.185   0.706  -0.285 -3.7256 -0.2937  4.3844
  713MOL0     H96196  10.999   0.938  -0.334  2.3450  2.0182 -1.3830
  713MOL0     H96197  11.054   0.879  -0.173 -3.1917  5.0528  1.1862
  713MOL0     H96198  11.195   1.040  -0.379 -1.5539  0.8112  1.1374
  713MOL0     H96199  11.125   1.101  -0.230 -2.2484 -1.2988  1.3372
  713MOL0     H96200  11.352   0.879  -0.226 -1.0241  0.0566  0.4948
  713MOL0     H96201  11.387   1.043  -0.252 -0.0584  1.8571  0.0803
  713MOL0     H96202  11.225   0.931  -0.025 -3.1894  1.3396 -0.7308
  713MOL0     H96203  11.242   1.102  -0.043 -0.5357 -0.1608  0.8890
  713MOL0     H96204  11.413   0.975   0.121 -1.3406 -2.0562 -1.3900
  713MOL0     H96205  11.484   0.921  -0.024  0.0100 -0.4254  0.3251
  713MOL0     H96206  11.675   1.055  -0.156 -1.1499 -1.4898  0.6343
  713MOL0     H96207  11.790   1.284  -0.239  1.6511  4.5401 -1.0881
  713MOL0     H96208  11.757   1.420  -0.144 -3.8960 -0.3305 -0.6412
  713MOL0     H96209  11.923   1.331   0.032 -0.3669  2.4186 -1.4958
  713MOL0     H96210  11.929   1.173  -0.056 -0.7203 -0.2753  0.1871
  713MOL0     H96211  12.052   1.442  -0.133  0.5274  1.0256 -1.6335
  713MOL0     H96212  12.007   1.331  -0.266  2.8557 -0.1431 -0.1545
  713MOL0     H96213  12.231   1.303  -0.244  1.7811 -0.9860  1.3064
  713MOL0     H96214  12.170   1.165  -0.169  0.0171  0.6047 -2.8292
  713MOL0     H96215  12.351   1.366   0.191  0.8340 -0.3209 -0.5091
  713MOL0     H96216  12.326   1.271   0.394  1.5535 -0.6779 -1.6971
  713MOL0     H96217  12.259   0.649   0.429 -0.9071  0.0771  0.1976
  713MOL0     H96218  12.297   0.488   0.622 -1.5588 -0.1197 -0.6401
  713MOL0     H96219  12.050   0.584   0.953 -0.5426  1.5834  1.6491
  713MOL0     H96220  12.126   0.432   0.997 -0.1176 -0.0732  0.4197
  713MOL0     H96221  12.307   0.539   1.098 -0.7646 -1.3337 -2.7956
  713MOL0     H96222  12.257   0.696   1.041 -1.9753 -0.5698 -2.3973
  713MOL0     H96223  12.179   0.692   1.284  2.5600  0.0077 -1.1557
  713MOL0     H96224  12.043   0.690   1.171  0.2159  2.1616  1.1996
  713MOL0     H96225  12.159   0.453   1.320  2.6089  2.0031 -2.8011
  713MOL0     H96226  12.030   0.441   1.193  0.9794  2.2004 -2.4355
  713MOL0     H96227  11.915   0.442   1.386  2.7495 -0.1898  1.9401
  713MOL0     H96228  11.887   0.586   1.281  0.0369  0.2818  0.5208
  713MOL0     H96229  12.001   0.742   1.408 -1.6926  1.3443  0.9655
  713MOL0     H96230  11.864   0.672   1.496  1.6778  1.2303  2.8535
  713MOL0     H96231  12.157   0.593   1.546 -0.0018  0.5572  0.5945
  713MOL0     H96232  12.015   0.522   1.627 -4.2686 -0.8976 -3.3625
  713MOL0     H96233  12.119   0.718   1.757  0.9075  1.1807  1.0384
  713MOL0     H96234  12.070   0.820   1.617  1.3112 -0.4308  0.4147
  713MOL0     H96235  12.151   0.795   0.878 -1.3446  2.6116 -1.6860
  713MOL0     H96236  12.132   0.949   0.686 -0.0342  0.8490 -2.1970
  713MOL0     H96237  12.150   0.923   0.204 -2.6301  1.6421 -0.8323
  713MOL0     H96238  12.140   1.047  -0.004  3.6272 -0.1908 -1.0585
  713MOL0     H96239  10.807   0.606  -0.039 -4.1991  5.1190  4.0568
  713MOL0     H96240  10.634   0.542   0.120  0.7892  0.1929 -1.3072
  713MOL0     H96241  10.138   0.500   0.300  2.6265 -0.5236  0.6823
  713MOL0     H96242   9.996   0.372   0.439  0.2726 -0.1529  0.4663
  713MOL0     H96243   9.863   0.237   0.540 -0.9611 -0.0106  0.0005
  713MOL0     H96244   9.989   0.152   0.608  0.6140 -0.9386 -0.8567
  713MOL0     H96245   9.805   0.082   0.705  0.2565  4.2455 -1.3079
  713MOL0     H96246   9.842  -0.061   0.618 -4.0196 -1.8012  1.9039
  713MOL0     H96247   9.607  -0.028   0.598 -3.2549 -0.0385 -1.5893
  713MOL0     H96248   9.691   0.004   0.447 -2.0952 -4.1584  1.1076
  713MOL0     H96249   9.579   0.215   0.638 -0.2346 -2.6536 -0.3587
  713MOL0     H96250   9.647   0.236   0.472  0.6887 -0.9222 -0.6917
  713MOL0     H96251   9.238   0.173   0.394  0.1665  2.6140  0.7675
  713MOL0     H96252  10.102   0.013   0.226 -1.0004 -0.5373  0.4864
  713MOL0     H96253  10.270   0.184  -0.043 -1.6390 -0.1085  0.5083
  713MOL0     H96254  10.387   0.111   0.068 -0.3778 -1.6677  2.3702
  713MOL0     H96255  10.244   0.015   0.040  0.9963 -0.4084  1.0252
  714MOL0     O96256   9.724   7.511   9.430 -0.5199  0.6695 -0.3147
  714MOL0     C96257   9.732   7.558   9.313  1.0278  0.1200 -0.4948
  714MOL0     O96258   9.825   7.656   9.264 -0.2734  0.5343 -0.2966
  714MOL0     C96259   9.890   7.715   9.370  0.3241  0.2903 -0.5682
  714MOL0     C96260   9.843   7.831   9.433  0.4903 -0.1820  0.5155
  714MOL0     C96261   9.921   7.872   9.544 -1.0734  1.3755  0.1898
  714MOL0     C96262  10.051   7.824   9.576 -0.2436  1.2368 -0.1889
  714MOL0     O96263  10.126   7.887   9.673 -0.9247  0.0040 -0.4576
  714MOL0     C96264  10.163   8.022   9.642  0.2920  0.1186 -0.1552
  714MOL0     C96265  10.292   8.061   9.719  0.5403  0.1015  0.1039
  714MOL0     C96266  10.292   8.031   9.877 -0.3800 -0.3360  0.4988
  714MOL0     C96267  10.201   8.107   9.971 -1.6480  0.2037 -0.0257
  714MOL0     C96268  10.216   8.260   9.943 -0.7994 -0.1007 -0.3265
  714MOL0     C96269  10.359   8.315   9.974 -0.0774 -0.0499  0.5827
  714MOL0     C96270  10.420   8.271  10.112  0.5062 -0.1783 -0.2986
  714MOL0     C96271  10.351   8.357  10.223 -0.0433 -0.3691  0.0055
  714MOL0     N96272  10.383   8.309  10.362 -0.2211  0.1824  0.1092
  714MOL0     C96273  10.417   8.392  10.462  0.9456  1.3858  1.2495
  714MOL0     C96274  10.391   8.319  10.572  1.0155  0.5233  0.9182
  714MOL0     C96275  10.396   8.335  10.719  0.6095 -0.4374  0.3705
  714MOL0     C96276  10.531   8.288  10.794 -0.6233 -0.2345 -0.0941
  714MOL0     C96277  10.656   8.370  10.757 -1.0732  0.4606  0.8737
  714MOL0     C96278  10.646   8.515  10.826  0.0914  0.0073  0.7944
  714MOL0     O96279  10.585   8.602  10.732  0.2062  0.1101  0.4844
  714MOL0     C96280  10.608   8.731  10.745 -0.3998  0.0198  0.6895
  714MOL0     C96281  10.617   8.790  10.870  0.0213  0.3850 -0.5808
  714MOL0     C96282  10.633   8.927  10.881 -0.5759 -0.4353  0.5869
  714MOL0     C96283  10.621   9.003  10.764 -0.1523 -0.1689  0.4024
  714MOL0     C96284  10.634   9.148  10.771 -0.1635 -0.7637 -1.6911
  714MOL0     O96285  10.611   9.202  10.889  0.1898 -0.1686  0.4988
  714MOL0     C96286  10.584   9.334  10.899  0.4961  0.0995 -0.8965
  714MOL0     C96287  10.671   9.428  10.851 -0.1926 -0.8546 -0.5331
  714MOL0     C96288  10.658   9.566  10.868  0.9980 -0.6748  1.2245
  714MOL0     C96289  10.549   9.615  10.936  0.5555  0.4114  0.1997
  714MOL0     O96290  10.531   9.751  10.968  0.9424 -0.0197 -0.4837
  714MOL0     C96291  10.658   9.826  11.010  0.1251 -0.1462  0.0582
  714MOL0     C96292  10.633   9.975  11.026 -0.7148 -0.0543  0.2749
  714MOL0     C96293  10.756  10.045  11.051 -0.1334  0.3892 -0.2068
  714MOL0     C96294  10.750  10.185  11.112  0.3522 -0.2147  0.6042
  714MOL0     C96295  10.895  10.229  11.137  0.4195  0.2625 -1.1186
  714MOL0     C96296  10.937  10.182  11.281  0.2157 -0.4058 -0.0284
  714MOL0     C96297  11.078  10.128  11.274  0.0528  0.6357  0.4114
  714MOL0     C96298  11.198  10.221  11.260  0.4215 -0.1252  0.2628
  714MOL0    Cl96299  11.193  10.303  11.110  0.0289  0.2381  0.3150
  714MOL0     C96300  10.458   9.518  10.990  0.3474 -0.3001 -0.3704
  714MOL0     C96301  10.472   9.378  10.969 -0.6820  0.4403 -0.9628
  714MOL0     O96302  10.647   9.211  10.668 -0.1134  0.1712 -0.2388
  714MOL0     C96303  10.587   8.945  10.647  0.0822 -0.0118 -0.0921
  714MOL0     C96304  10.596   8.810  10.629 -0.4488  0.7922  0.0189
  714MOL0     N96305  10.346   8.195  10.535  0.8303  0.0150  0.0510
  714MOL0     N96306  10.330   8.193  10.408 -0.1161 -0.1150  0.4541
  714MOL0     C96307  10.094   7.713   9.508 -0.4758 -0.3350  0.1694
  714MOL0     C96308  10.015   7.661   9.407  0.3517 -0.4616  0.4356
  714MOL0     C96309   9.634   7.492   9.222  0.0953 -0.8714 -0.0449
  714MOL0     C96310   9.601   7.362   9.238 -0.0891  0.7690 -0.0884
  714MOL0     C96311   9.505   7.305   9.159  0.1652 -0.2654 -0.0400
  714MOL0     C96312   9.445   7.381   9.051  0.5382  0.3307 -0.2062
  714MOL0     O96313   9.345   7.338   8.967  0.3147  0.0023 -0.0475
  714MOL0     C96314   9.269   7.214   8.982 -0.6871 -0.4405 -0.5674
  714MOL0     C96315   9.154   7.224   9.084 -0.0983  0.3248  0.7809
  714MOL0     C96316   9.088   7.086   9.098 -0.3230  0.3475  0.0613
  714MOL0     C96317   8.936   7.111   9.108  0.2998  0.1525  0.0808
  714MOL0     C96318   8.870   6.986   9.144 -0.9107 -0.3152  0.6339
  714MOL0     C96319   8.805   6.886   9.169  0.1096  0.6719  0.0973
  714MOL0     C96320   9.490   7.512   9.037 -0.5584  0.0120  0.8067
  714MOL0     C96321   9.579   7.571   9.122 -0.6677 -0.2064  0.2470
  714MOL0     C96322   9.608   7.713   9.086  0.2211 -0.4943 -0.2958
  714MOL0     H96323   9.744   7.868   9.408 -0.0037  0.9680  3.7417
  714MOL0     H96324   9.863   7.945   9.599 -2.9254 -2.1442  3.3403
  714MOL0     H96325  10.182   8.028   9.535  2.4853  0.5850  0.2159
  714MOL0     H96326  10.080   8.088   9.669  1.1899  1.4669 -0.5891
  714MOL0     H96327  10.312   8.167   9.701 -1.3055  0.3741 -0.5551
  714MOL0     H96328  10.366   8.002   9.665 -0.3220  1.1429 -2.3780
  714MOL0     H96329  10.397   8.039   9.907 -0.3041  1.6165 -0.1424
  714MOL0     H96330  10.259   7.927   9.880  1.7435 -1.2338 -2.0809
  714MOL0     H96331  10.098   8.071   9.958 -1.6200 -0.3830  1.1832
  714MOL0     H96332  10.225   8.085  10.076 -0.1641  1.5202 -0.0540
  714MOL0     H96333  10.190   8.276   9.837 -2.2039 -2.0062 -0.3401
  714MOL0     H96334  10.148   8.323  10.001 -1.5112 -0.1558 -1.0716
  714MOL0     H96335  10.427   8.280   9.896  1.3394  0.8238  1.3938
  714MOL0     H96336  10.362   8.422   9.954 -0.8737 -0.1651 -0.2480
  714MOL0     H96337  10.529   8.286  10.109  0.6249 -0.6553  1.1555
  714MOL0     H96338  10.405   8.165  10.134 -0.0633  0.0324  0.3251
  714MOL0     H96339  10.394   8.457  10.208  4.0258 -1.8124  0.7460
  714MOL0     H96340  10.245   8.373  10.202 -0.1517  0.1761  0.9066
  714MOL0     H96341  10.454   8.494  10.459 -1.3462  2.2270 -0.5016
  714MOL0     H96342  10.374   8.439  10.743 -0.6011 -0.6494  0.2361
  714MOL0     H96343  10.316   8.292  10.780  0.1516 -1.2235 -0.7428
  714MOL0     H96344  10.523   8.291  10.903 -1.8127 -0.4673 -0.1532
  714MOL0     H96345  10.563   8.192  10.753  2.0541  0.9148 -0.8726
  714MOL0     H96346  10.657   8.374  10.647 -0.6059 -1.0129  0.8044
  714MOL0     H96347  10.743   8.324  10.804 -0.4434  1.2530  0.5018
  714MOL0     H96348  10.747   8.551  10.851  1.9471 -4.2396  0.2161
  714MOL0     H96349  10.589   8.507  10.919  1.5845  0.9948  1.8511
  714MOL0     H96350  10.628   8.724  10.956 -0.6994 -3.1534 -2.9845
  714MOL0     H96351  10.649   8.968  10.980  1.1363  1.2350 -0.2973
  714MOL0     H96352  10.760   9.392  10.800 -0.9125 -1.9369 -1.0725
  714MOL0     H96353  10.730   9.635  10.825 -0.1297 -0.3186 -0.1668
  714MOL0     H96354  10.709   9.782  11.095 -0.9595 -0.3373  0.6354
  714MOL0     H96355  10.729   9.805  10.929  0.8323 -3.7921  1.4426
  714MOL0     H96356  10.592  10.021  10.936 -1.5308  0.7232  1.0144
  714MOL0     H96357  10.558   9.990  11.104  0.4355  2.4452  1.0330
  714MOL0     H96358  10.812   9.975  11.114 -0.7297  0.2770  0.2051
  714MOL0     H96359  10.806  10.049  10.954 -2.4272 -5.5967 -2.0704
  714MOL0     H96360  10.687  10.186  11.201  1.7048  0.4814  1.5807
  714MOL0     H96361  10.708  10.263  11.048  3.3191  1.3807  0.4328
  714MOL0     H96362  10.892  10.338  11.145 -1.4601  0.1243  1.7020
  714MOL0     H96363  10.960  10.201  11.054  0.6855 -3.0721  0.0956
  714MOL0     H96364  10.933  10.258  11.360 -0.7471  0.7436 -1.1380
  714MOL0     H96365  10.860  10.110  11.309 -2.0876  1.3605 -1.3779
  714MOL0     H96366  11.072  10.049  11.199 -0.4107 -1.8818  2.9460
  714MOL0     H96367  11.087  10.067  11.364  0.7815  1.0965  0.6644
  714MOL0     H96368  11.197  10.287  11.347  3.9368 -1.0120  1.1463
  714MOL0     H96369  11.293  10.168  11.270 -0.0504 -1.5419 -1.9844
  714MOL0     H96370  10.376   9.553  11.051  0.5513 -0.9405  0.2776
  714MOL0     H96371  10.413   9.293  11.003  1.9357 -1.1294 -0.0455
  714MOL0     H96372  10.566   9.014  10.565 -2.0350 -1.1553 -0.5931
  714MOL0     H96373  10.589   8.778  10.526  3.2634 -0.5110  0.0381
  714MOL0     H96374  10.178   7.651   9.538 -1.1427  0.0913  3.2418
  714MOL0     H96375  10.044   7.572   9.353 -1.8385  1.1856 -3.8938
  714MOL0     H96376   9.648   7.287   9.302 -1.6136 -1.3782 -1.3562
  714MOL0     H96377   9.465   7.210   9.192 -1.1267  1.1851  2.9764
  714MOL0     H96378   9.335   7.129   9.004  1.0389  0.5118 -1.7974
  714MOL0     H96379   9.224   7.204   8.883  0.5520  2.7722 -1.5809
  714MOL0     H96380   9.080   7.299   9.053 -1.2580 -0.2102  2.1718
  714MOL0     H96381   9.198   7.256   9.179 -3.4629  5.3963  1.0556
  714MOL0     H96382   9.132   7.032   9.183  1.4802 -0.0156 -1.0347
  714MOL0     H96383   9.119   7.027   9.011 -1.8314  1.7509 -1.4880
  714MOL0     H96384   8.912   7.180   9.190  1.5788  0.0832  0.5376
  714MOL0     H96385   8.896   7.154   9.016  0.9328 -0.7313 -0.6138
  714MOL0     H96386   8.749   6.795   9.176 -0.3391  0.9114 -0.2597
  714MOL0     H96387   9.449   7.571   8.957 -1.7090  1.4532  2.3907
  714MOL0     H96388   9.513   7.755   9.052 -1.0230 -3.1213 -0.3728
  714MOL0     H96389   9.645   7.768   9.173  1.2474  1.8852 -2.1419
  714MOL0     H96390   9.682   7.722   9.005  0.8637  2.2617  0.5048
  715MOL0     O96391   5.305   5.826   3.581  0.5853  0.4948  0.3723
  715MOL0     C96392   5.382   5.737   3.545 -0.1617  0.5717 -1.0585
  715MOL0     O96393   5.419   5.628   3.623 -0.3087  0.3405 -0.2788
  715MOL0     C96394   5.343   5.587   3.726 -0.5130 -0.2858  0.4335
  715MOL0     C96395   5.291   5.457   3.726 -0.5325 -0.7466  0.7055
  715MOL0     C96396   5.231   5.396   3.837  0.7011 -0.3355 -0.1512
  715MOL0     C96397   5.215   5.481   3.949 -0.3194  0.3762  0.5782
  715MOL0     O96398   5.175   5.438   4.061 -0.6651  0.7151 -0.4667
  715MOL0     C96399   5.133   5.303   4.091  0.0382 -0.8483  0.6980
  715MOL0     C96400   4.978   5.282   4.063  0.0378 -0.4940  0.0642
  715MOL0     C96401   4.886   5.371   4.150  0.2360 -0.6193  0.1100
  715MOL0     C96402   4.929   5.374   4.305 -0.6485  0.8235 -0.0375
  715MOL0     C96403   4.842   5.457   4.401 -1.2460 -0.0616  0.1391
  715MOL0     C96404   4.704   5.391   4.414 -0.2488 -0.0813  0.6460
  715MOL0     C96405   4.630   5.453   4.531  0.6490 -0.4335  1.3055
  715MOL0     C96406   4.517   5.552   4.501  0.7650  0.4518  0.1512
  715MOL0     N96407   4.559   5.688   4.454 -0.3330 -0.2920  0.2018
  715MOL0     C96408   4.580   5.719   4.325  0.1882  0.1569 -1.1720
  715MOL0     C96409   4.579   5.856   4.319  0.5652  0.6193 -0.4380
  715MOL0     C96410   4.576   5.947   4.195  0.3153 -0.8756 -0.9547
  715MOL0     C96411   4.442   5.918   4.121  0.6022  0.2020 -0.1466
  715MOL0     C96412   4.433   6.007   3.997  1.0462 -1.0148  0.1067
  715MOL0     C96413   4.285   6.006   3.947 -1.1836  1.1797 -0.2248
  715MOL0     O96414   4.197   6.085   4.036  0.1118  0.0549 -0.4819
  715MOL0     C96415   4.069   6.128   3.996 -0.2518  0.3061  0.2053
  715MOL0     C96416   4.014   6.089   3.878  0.3468  1.0522 -0.2714
  715MOL0     C96417   3.898   6.126   3.818  0.0156 -0.1826 -0.4389
  715MOL0     C96418   3.815   6.222   3.892 -0.1176  0.4786 -0.6645
  715MOL0     C96419   3.672   6.258   3.844 -1.4895  0.2148 -0.4573
  715MOL0     O96420   3.592   6.304   3.937  0.5925 -0.1983 -0.0887
  715MOL0     C96421   3.467   6.346   3.907  0.4163  1.5965 -0.4218
  715MOL0     C96422   3.365   6.245   3.920  0.0030 -0.4839  0.3508
  715MOL0     C96423   3.237   6.279   3.878 -0.2367 -0.1012  0.2312
  715MOL0     C96424   3.204   6.407   3.836 -0.1857  0.8207 -0.5193
  715MOL0     O96425   3.079   6.441   3.797 -0.2967 -0.6311  0.7035
  715MOL0     C96426   3.012   6.353   3.705 -0.3733  0.2819  0.0913
  715MOL0     C96427   2.868   6.383   3.675 -0.0879 -0.2210  0.1237
  715MOL0     C96428   2.822   6.307   3.554 -0.0889  0.2716 -1.2691
  715MOL0     C96429   2.677   6.355   3.519 -0.2962 -1.2553  0.2885
  715MOL0     C96430   2.579   6.304   3.615  0.8863 -1.1117 -1.3265
  715MOL0     C96431   2.441   6.320   3.574  0.3770  0.1839 -0.0855
  715MOL0     C96432   2.338   6.316   3.691 -0.2611 -0.2687  0.0247
  715MOL0     C96433   2.195   6.334   3.652  0.8854  0.4246 -0.7203
  715MOL0    Cl96434   2.158   6.175   3.589 -0.3652 -0.7577  0.0415
  715MOL0     C96435   3.303   6.511   3.828 -0.4735 -1.0099 -0.3471
  715MOL0     C96436   3.434   6.477   3.870  0.4243  0.4314  0.1639
  715MOL0     O96437   3.648   6.262   3.723  0.7503  0.7858 -0.3877
  715MOL0     C96438   3.865   6.264   4.015  1.6526  0.0117 -0.3121
  715MOL0     C96439   3.992   6.216   4.064  0.1346 -0.2488 -0.7352
  715MOL0     N96440   4.571   5.904   4.447 -0.4573 -0.4066  0.2509
  715MOL0     N96441   4.551   5.809   4.527 -0.2897  0.4554  0.0516
  715MOL0     C96442   5.271   5.608   3.959 -0.6853 -0.0748 -0.1932
  715MOL0     C96443   5.338   5.659   3.848  0.1051 -0.4911 -0.3367
  715MOL0     C96444   5.459   5.734   3.413 -0.2534 -0.6109 -0.2100
  715MOL0     C96445   5.433   5.631   3.330  0.4158 -0.3348 -0.3075
  715MOL0     C96446   5.499   5.613   3.216  0.4349  0.7635  0.0433
  715MOL0     C96447   5.583   5.716   3.167 -0.1917 -0.1097 -0.3223
  715MOL0     O96448   5.635   5.721   3.040  0.1500  0.0440  0.0908
  715MOL0     C96449   5.597   5.620   2.954  0.0508 -0.3446 -0.0918
  715MOL0     C96450   5.652   5.649   2.813 -0.2323 -0.5935  0.4895
  715MOL0     C96451   5.594   5.773   2.745  0.0814 -0.1830 -0.3359
  715MOL0     C96452   5.649   5.808   2.609  0.7106 -0.5023  0.6291
  715MOL0     C96453   5.599   5.711   2.506  0.0774  0.2754 -0.3834
  715MOL0     C96454   5.564   5.621   2.425 -0.4945  0.1703  0.4587
  715MOL0     C96455   5.626   5.813   3.261 -0.1930  0.2464  0.4175
  715MOL0     C96456   5.567   5.825   3.387 -0.3268  1.3388 -0.4491
  715MOL0     C96457   5.616   5.935   3.477 -0.3306  0.5522 -0.5740
  715MOL0     H96458   5.297   5.407   3.630  0.0286  2.0613 -0.8286
  715MOL0     H96459   5.174   5.304   3.829  0.2276 -0.0157 -0.5288
  715MOL0     H96460   5.185   5.241   4.018  3.6974  3.2569 -0.5864
  715MOL0     H96461   5.155   5.268   4.192 -2.0316 -3.4679  0.3673
  715MOL0     H96462   4.957   5.176   4.080 -2.6161 -0.9052 -4.3188
  715MOL0     H96463   4.965   5.298   3.956 -0.2195  2.4995  0.4453
  715MOL0     H96464   4.783   5.337   4.146  0.1034 -0.1534 -3.5358
  715MOL0     H96465   4.887   5.473   4.111  1.5906 -0.5998  0.1257
  715MOL0     H96466   4.952   5.272   4.338 -0.9540 -0.1707 -2.6834
  715MOL0     H96467   5.030   5.416   4.297  0.8640 -2.3528  0.7261
  715MOL0     H96468   4.899   5.439   4.493 -0.2319 -1.4551 -0.7213
  715MOL0     H96469   4.840   5.565   4.389  1.1895 -0.0996 -1.4109
  715MOL0     H96470   4.645   5.402   4.323  2.3265 -0.6669 -1.2295
  715MOL0     H96471   4.714   5.283   4.428  0.1807  0.0337  1.2900
  715MOL0     H96472   4.685   5.499   4.613 -0.1143  1.6587  0.6999
  715MOL0     H96473   4.579   5.370   4.581 -0.5638 -0.6107 -0.1355
  715MOL0     H96474   4.444   5.517   4.427  2.3454  0.5070 -1.4977
  715MOL0     H96475   4.462   5.549   4.596  2.7071 -0.2376  1.3062
  715MOL0     H96476   4.576   5.657   4.236 -2.1532 -2.5755  0.6744
  715MOL0     H96477   4.564   6.046   4.239 -0.8976 -2.2937  2.1883
  715MOL0     H96478   4.657   5.930   4.123  0.4832 -2.5796 -0.3917
  715MOL0     H96479   4.444   5.813   4.088  2.5644  0.0505  0.3646
  715MOL0     H96480   4.361   5.943   4.190  2.3239  1.9904  1.3394
  715MOL0     H96481   4.500   5.968   3.920 -0.0677 -4.9302  0.9107
  715MOL0     H96482   4.463   6.107   4.030  2.5632 -2.1487  2.4310
  715MOL0     H96483   4.256   5.901   3.945  1.0574  0.4584  0.8323
  715MOL0     H96484   4.280   6.034   3.841 -2.4390  0.0559 -0.4822
  715MOL0     H96485   4.052   6.008   3.817 -1.7069 -0.1313 -0.0875
  715MOL0     H96486   3.882   6.098   3.715  4.3226 -1.0682 -1.0568
  715MOL0     H96487   3.396   6.152   3.966  0.4906  0.1121  1.2591
  715MOL0     H96488   3.157   6.205   3.875 -1.3007  1.0274  0.0149
  715MOL0     H96489   3.067   6.369   3.612  1.4841 -0.7270  0.9542
  715MOL0     H96490   3.014   6.245   3.723  1.1512 -0.0976 -2.0554
  715MOL0     H96491   2.799   6.359   3.756 -1.1849 -1.2162 -1.0620
  715MOL0     H96492   2.862   6.490   3.657 -1.5954 -0.0222  1.6135
  715MOL0     H96493   2.887   6.319   3.467 -0.7850 -0.7053 -1.9390
  715MOL0     H96494   2.827   6.200   3.572  0.2739 -0.0297 -2.9649
  715MOL0     H96495   2.643   6.318   3.422 -2.4384 -0.0415  0.5227
  715MOL0     H96496   2.669   6.464   3.512 -2.0067 -1.4311 -1.0211
  715MOL0     H96497   2.591   6.358   3.709 -1.8299  0.4033 -1.7512
  715MOL0     H96498   2.578   6.197   3.640 -4.7686 -0.9388  0.5276
  715MOL0     H96499   2.425   6.418   3.528 -1.1221  0.8184  1.6840
  715MOL0     H96500   2.418   6.244   3.498  1.1122 -1.0257  0.8590
  715MOL0     H96501   2.359   6.404   3.753  0.4817  1.9221 -3.1165
  715MOL0     H96502   2.366   6.228   3.750  1.5965 -0.3083 -0.8379
  715MOL0     H96503   2.127   6.348   3.737 -1.3507  2.0222 -2.6401
  715MOL0     H96504   2.188   6.418   3.583  1.1267 -0.3196 -1.6740
  715MOL0     H96505   3.282   6.614   3.801  3.1100  0.3798  1.4388
  715MOL0     H96506   3.522   6.536   3.847  1.3307 -2.3586 -4.8953
  715MOL0     H96507   3.796   6.328   4.069 -3.0951 -2.3938 -2.9115
  715MOL0     H96508   4.005   6.243   4.168 -0.3938  1.0780 -0.9861
  715MOL0     H96509   5.269   5.674   4.044 -3.2841  1.2279 -1.1627
  715MOL0     H96510   5.392   5.754   3.851 -1.0279  0.2183 -1.7061
  715MOL0     H96511   5.367   5.553   3.366 -0.3160 -0.2860 -1.5041
  715MOL0     H96512   5.471   5.521   3.165  2.0309  0.3368 -0.0930
  715MOL0     H96513   5.488   5.611   2.953 -0.1036  1.1197  0.8973
  715MOL0     H96514   5.649   5.530   2.990  2.1152  1.4599  1.7355
  715MOL0     H96515   5.641   5.557   2.755  0.7121 -1.2692  1.3442
  715MOL0     H96516   5.760   5.657   2.830 -0.0317 -0.1797 -0.9337
  715MOL0     H96517   5.618   5.857   2.811  1.2719  0.7842 -1.9416
  715MOL0     H96518   5.485   5.770   2.737  0.1960  1.0231 -4.2875
  715MOL0     H96519   5.615   5.909   2.586  0.0698 -0.5221  1.4416
  715MOL0     H96520   5.758   5.819   2.606  1.1336 -1.0208  5.2994
  715MOL0     H96521   5.549   5.537   2.360  0.7193  0.7160 -0.5547
  715MOL0     H96522   5.697   5.887   3.223 -2.1247  2.1736  0.3867
  715MOL0     H96523   5.595   6.034   3.434  1.5083  1.3725  0.3099
  715MOL0     H96524   5.574   5.937   3.578  1.2625 -1.2006  0.1755
  715MOL0     H96525   5.724   5.921   3.491  0.3534  4.9533 -0.0332
  716MOL0     O96526  11.470   2.661   7.341 -0.7371 -0.1909 -0.0740
  716MOL0     C96527  11.355   2.616   7.360  0.2284  0.0612  0.1914
  716MOL0     O96528  11.252   2.651   7.273 -0.7025  0.6114  0.3278
  716MOL0     C96529  11.269   2.750   7.179 -0.1653 -0.1659 -0.0618
  716MOL0     C96530  11.368   2.736   7.078  0.8598  0.3312  0.2931
  716MOL0     C96531  11.375   2.834   6.977 -0.5235 -0.1713  0.7442
  716MOL0     C96532  11.283   2.941   6.969  0.1452  1.0256 -0.9250
  716MOL0     O96533  11.273   3.028   6.863 -0.0314 -0.0849 -0.2558
  716MOL0     C96534  11.332   2.993   6.738 -0.6190  0.2596 -0.7767
  716MOL0     C96535  11.241   2.884   6.678  0.8711 -0.2296 -0.4860
  716MOL0     C96536  11.318   2.777   6.602 -0.0440  0.3706 -0.5687
  716MOL0     C96537  11.371   2.826   6.462  0.8648  0.9512 -0.8891
  716MOL0     C96538  11.503   2.753   6.419 -0.0229 -1.3379 -0.2941
  716MOL0     C96539  11.529   2.790   6.272  0.2827  0.4690  0.2081
  716MOL0     C96540  11.588   2.933   6.248  0.4928  0.3350 -0.8756
  716MOL0     C96541  11.592   2.976   6.101 -0.0454 -0.5307  0.6056
  716MOL0     N96542  11.486   2.919   6.011 -0.2326  0.0996  0.0429
  716MOL0     C96543  11.495   2.787   5.960  1.0060  0.6507 -1.0710
  716MOL0     C96544  11.387   2.787   5.880 -0.6643 -0.2923 -0.3985
  716MOL0     C96545  11.349   2.668   5.795 -0.3297  0.0415  1.3360
  716MOL0     C96546  11.344   2.540   5.868 -0.0269  0.1706 -0.7394
  716MOL0     C96547  11.244   2.543   5.989 -0.0168 -0.2838  0.5021
  716MOL0     C96548  11.233   2.399   6.046  0.0660 -0.1543  1.3908
  716MOL0     O96549  11.142   2.392   6.155  0.8810 -0.2314 -0.1865
  716MOL0     C96550  11.014   2.345   6.141  0.0719  0.3523  1.2025
  716MOL0     C96551  10.933   2.383   6.035 -0.3040 -1.3745  0.8581
  716MOL0     C96552  10.807   2.321   6.019  0.1942  0.3646  1.0937
  716MOL0     C96553  10.760   2.234   6.119 -0.2166  0.7354 -0.0476
  716MOL0     C96554  10.631   2.172   6.118 -0.4524  0.5247 -0.0485
  716MOL0     O96555  10.610   2.061   6.200  0.1352  0.0386 -0.0391
  716MOL0     C96556  10.510   1.975   6.187  0.2366  0.2923 -0.2242
  716MOL0     C96557  10.452   1.941   6.057  1.1128  0.5074  0.5587
  716MOL0     C96558  10.351   1.839   6.052  0.8108  0.6325  0.0389
  716MOL0     C96559  10.308   1.764   6.162  0.1705 -0.5051 -0.0229
  716MOL0     O96560  10.220   1.662   6.162 -0.1467 -0.2393 -0.1597
  716MOL0     C96561  10.212   1.587   6.038 -0.8360  0.8305  0.3907
  716MOL0     C96562  10.172   1.450   6.045 -0.1214  0.5755  0.0874
  716MOL0     C96563  10.139   1.400   5.898 -0.0593 -0.3266 -0.8048
  716MOL0     C96564  10.066   1.267   5.909 -0.0545  0.1421  0.6063
  716MOL0     C96565  10.017   1.229   5.771 -0.8867 -0.8792  0.4497
  716MOL0     C96566  10.121   1.222   5.669  0.6099  1.3058 -0.0135
  716MOL0     C96567  10.094   1.126   5.545  0.2560 -0.0886 -0.1783
  716MOL0     C96568  10.034   0.990   5.589  0.1261 -0.1721  0.2469
  716MOL0    Cl96569   9.849   0.993   5.587 -0.3547 -0.1261  0.6059
  716MOL0     C96570  10.356   1.798   6.286  0.4446 -0.5989  0.6762
  716MOL0     C96571  10.460   1.906   6.303  1.1216  0.1187  0.2969
  716MOL0     O96572  10.543   2.234   6.067  0.8505 -0.7272  0.0339
  716MOL0     C96573  10.854   2.189   6.215 -0.7709 -0.2528 -0.6275
  716MOL0     C96574  10.972   2.254   6.239  0.3496 -0.3323  1.1772
  716MOL0     N96575  11.324   2.907   5.873 -1.0067  0.3617 -0.0039
  716MOL0     N96576  11.371   2.976   5.970 -0.2923 -0.1192  0.2216
  716MOL0     C96577  11.191   2.948   7.062  0.1417  0.1034 -0.7568
  716MOL0     C96578  11.174   2.856   7.171 -0.5518  0.8799  0.3990
  716MOL0     C96579  11.323   2.504   7.456 -0.3880 -1.0875  0.3738
  716MOL0     C96580  11.238   2.405   7.413 -0.2066  0.9134  0.3426
  716MOL0     C96581  11.215   2.292   7.496  0.7928 -0.0338 -0.4005
  716MOL0     C96582  11.267   2.290   7.623  0.3396 -0.3676  0.0546
  716MOL0     O96583  11.251   2.168   7.685  0.7983 -0.1666  0.1516
  716MOL0     C96584  11.366   2.124   7.751  0.7208  0.4230 -0.4230
  716MOL0     C96585  11.489   2.093   7.662 -0.6368  0.3030  0.6821
  716MOL0     C96586  11.454   2.008   7.537  0.2512  0.4412  0.5240
  716MOL0     C96587  11.572   1.951   7.457  0.2887 -0.3924  0.2686
  716MOL0     C96588  11.682   1.906   7.541  0.4069  1.1549 -0.2306
  716MOL0     C96589  11.776   1.865   7.594 -0.3854  0.2012  0.5254
  716MOL0     C96590  11.344   2.392   7.666 -0.3605 -0.5896 -0.0295
  716MOL0     C96591  11.375   2.503   7.587 -0.8452 -0.5346 -0.1846
  716MOL0     C96592  11.465   2.611   7.657  0.5412 -0.5455  0.4759
  716MOL0     H96593  11.447   2.664   7.092  0.7819 -0.2399 -1.7930
  716MOL0     H96594  11.462   2.830   6.912 -0.3528  3.0450  0.6517
  716MOL0     H96595  11.332   3.088   6.683  3.1273 -0.8777 -3.0470
  716MOL0     H96596  11.435   2.959   6.748 -0.7753  0.0212  0.0711
  716MOL0     H96597  11.180   2.928   6.598  0.3678 -1.6579 -0.9074
  716MOL0     H96598  11.179   2.828   6.749 -1.9885  0.6601 -2.1298
  716MOL0     H96599  11.247   2.694   6.596  1.9287 -1.3779 -1.0909
  716MOL0     H96600  11.402   2.739   6.661 -1.6700  0.1576  1.7834
  716MOL0     H96601  11.287   2.797   6.398  0.1372 -3.5753  1.6999
  716MOL0     H96602  11.381   2.935   6.462 -1.0934  1.1651 -0.7217
  716MOL0     H96603  11.587   2.796   6.476 -1.2387  0.9782 -0.1147
  716MOL0     H96604  11.495   2.648   6.447  0.6388 -1.3088  0.0273
  716MOL0     H96605  11.602   2.713   6.244 -0.4787 -0.5778  1.0141
  716MOL0     H96606  11.433   2.776   6.220 -1.1930 -0.1279  2.8987
  716MOL0     H96607  11.686   2.944   6.295 -0.4405 -0.3170  1.3771
  716MOL0     H96608  11.518   3.002   6.295 -1.2567 -0.9001 -1.5377
  716MOL0     H96609  11.581   3.085   6.099  2.4724 -0.2170  1.3595
  716MOL0     H96610  11.694   2.956   6.070  0.1808 -1.9323  2.1028
  716MOL0     H96611  11.563   2.704   5.974  0.1407 -0.8790 -4.8536
  716MOL0     H96612  11.253   2.685   5.744 -0.0494 -0.4967  0.6022
  716MOL0     H96613  11.415   2.648   5.710  0.6029  2.1065  1.5199
  716MOL0     H96614  11.309   2.464   5.798  0.3736  0.3578 -1.1476
  716MOL0     H96615  11.439   2.498   5.901  1.1665  3.0031 -0.2466
  716MOL0     H96616  11.144   2.581   5.963 -0.5023 -0.6990  1.7055
  716MOL0     H96617  11.277   2.611   6.068  0.5489 -0.8603  0.7687
  716MOL0     H96618  11.327   2.366   6.090 -0.2451  1.5382  3.5092
  716MOL0     H96619  11.198   2.333   5.966 -1.8043  0.6206  1.5166
  716MOL0     H96620  10.955   2.452   5.955 -4.4082  0.8889  1.3981
  716MOL0     H96621  10.744   2.347   5.934  0.4149 -1.5956  0.2750
  716MOL0     H96622  10.484   1.983   5.961 -0.1339 -0.5735 -0.3656
  716MOL0     H96623  10.302   1.810   5.960 -1.6997 -1.3682  1.8520
  716MOL0     H96624  10.144   1.639   5.970 -1.9732 -0.1493  0.7454
  716MOL0     H96625  10.314   1.578   6.000 -2.3312 -1.9480 -3.6302
  716MOL0     H96626  10.249   1.383   6.084  0.3301  1.8370  1.4401
  716MOL0     H96627  10.084   1.435   6.109 -0.5354  0.6726 -0.4511
  716MOL0     H96628  10.063   1.462   5.849 -1.0766  0.5701  1.7270
  716MOL0     H96629  10.230   1.394   5.839 -0.0740  1.5177 -1.0772
  716MOL0     H96630   9.982   1.276   5.979 -1.0089  1.6396 -0.6740
  716MOL0     H96631  10.133   1.193   5.954 -0.5067  0.6113  2.1375
  716MOL0     H96632   9.945   1.303   5.735 -0.5647 -0.3411  0.8824
  716MOL0     H96633   9.965   1.135   5.788 -2.0721 -1.2314 -4.0794
  716MOL0     H96634  10.145   1.320   5.628  0.4327  1.8697  1.2044
  716MOL0     H96635  10.206   1.173   5.717 -1.6188 -1.6718  1.2061
  716MOL0     H96636  10.186   1.102   5.490 -0.7468  0.0533 -2.0033
  716MOL0     H96637  10.039   1.180   5.468 -1.5091 -0.1750  0.9600
  716MOL0     H96638  10.061   0.909   5.520 -2.0151 -0.5729 -0.1791
  716MOL0     H96639  10.067   0.954   5.687 -0.5348 -1.5082 -0.0055
  716MOL0     H96640  10.304   1.750   6.369 -2.6479  0.4337 -0.5224
  716MOL0     H96641  10.500   1.945   6.397  2.5282 -0.7854  0.0938
  716MOL0     H96642  10.830   2.123   6.297  1.2660  2.0668  2.0478
  716MOL0     H96643  11.031   2.221   6.324 -0.1505 -2.1700  0.8436
  716MOL0     H96644  11.116   3.020   7.032 -2.1099 -1.1262  1.5401
  716MOL0     H96645  11.088   2.863   7.236 -0.4843 -0.6572  0.7058
  716MOL0     H96646  11.186   2.413   7.318 -0.9637  0.0622  0.6700
  716MOL0     H96647  11.172   2.196   7.470 -0.5202  0.6303 -0.7290
  716MOL0     H96648  11.324   2.032   7.792  0.6253  0.8549  0.4796
  716MOL0     H96649  11.397   2.181   7.840  0.9342 -1.0722  0.4855
  716MOL0     H96650  11.563   2.040   7.723  2.2116  2.9646 -0.1607
  716MOL0     H96651  11.550   2.180   7.636  0.4543  0.1924  2.7209
  716MOL0     H96652  11.376   2.062   7.483  0.1615 -0.8334 -0.6760
  716MOL0     H96653  11.404   1.916   7.570 -0.7384  1.5417  2.2566
  716MOL0     H96654  11.537   1.871   7.391 -0.9697  1.7854 -1.8869
  716MOL0     H96655  11.612   2.029   7.392  2.4572  0.2345  2.2353
  716MOL0     H96656  11.863   1.838   7.651  0.2315  0.6870 -0.1580
  716MOL0     H96657  11.388   2.390   7.765 -2.0147  1.8798  0.8761
  716MOL0     H96658  11.561   2.584   7.703  0.1485 -0.2346  1.5060
  716MOL0     H96659  11.489   2.692   7.587 -1.1404  0.8406  1.4216
  716MOL0     H96660  11.416   2.652   7.746 -2.1529 -0.1797 -1.0813
  717MOL0     O96661   1.805   8.763   6.872 -0.2268 -0.2478  0.6216
  717MOL0     C96662   1.915   8.705   6.886  0.3124 -1.2277 -0.5566
  717MOL0     O96663   2.006   8.669   6.792 -0.2073  1.2537 -0.1927
  717MOL0     C96664   1.976   8.673   6.655 -0.5540  1.0884  0.4941
  717MOL0     C96665   1.856   8.674   6.600  0.9573  0.8959  1.3521
  717MOL0     C96666   1.839   8.709   6.464 -0.3802  0.0090  0.1151
  717MOL0     C96667   1.940   8.735   6.378 -0.1982  0.2534  0.9183
  717MOL0     O96668   1.905   8.770   6.246  0.2872  0.2717  0.5885
  717MOL0     C96669   2.015   8.801   6.152  0.1736 -0.7014  0.5727
  717MOL0     C96670   1.954   8.845   6.024  0.6577  0.0312 -1.3105
  717MOL0     C96671   1.904   8.727   5.930 -0.0299 -0.3709 -0.7079
  717MOL0     C96672   1.944   8.735   5.781  0.3591 -0.6922  1.1945
  717MOL0     C96673   1.869   8.861   5.718 -0.5305 -0.6787 -0.2760
  717MOL0     C96674   1.909   8.870   5.570 -0.1604 -0.4853  0.7681
  717MOL0     C96675   1.846   8.997   5.490 -0.9440  0.0530  0.4038
  717MOL0     C96676   1.942   9.085   5.423 -0.3317  0.4287  0.0499
  717MOL0     N96677   1.974   9.035   5.285  0.3109 -0.6105 -0.4216
  717MOL0     C96678   2.054   8.928   5.265 -0.2344 -0.0787 -0.1585
  717MOL0     C96679   2.055   8.919   5.128  0.7026 -0.0621 -0.0660
  717MOL0     C96680   2.121   8.817   5.042 -0.2299  1.2478  0.3992
  717MOL0     C96681   2.011   8.726   4.983  0.0832  0.4111 -0.1119
  717MOL0     C96682   2.061   8.594   4.906 -0.5029 -0.3001 -0.3383
  717MOL0     C96683   2.203   8.594   4.865 -0.4232 -0.7504  0.0429
  717MOL0     O96684   2.228   8.477   4.790 -0.4128  0.5594  0.9469
  717MOL0     C96685   2.355   8.467   4.742 -0.3098  0.0458  0.3585
  717MOL0     C96686   2.453   8.560   4.743  0.4017 -0.0390 -0.0630
  717MOL0     C96687   2.581   8.538   4.680 -0.7394  0.4409  0.0622
  717MOL0     C96688   2.609   8.416   4.608 -0.4180 -0.4578  0.0384
  717MOL0     C96689   2.743   8.390   4.533  0.9942 -0.4467  0.2875
  717MOL0     O96690   2.739   8.303   4.424 -0.0936  1.0048 -0.1472
  717MOL0     C96691   2.857   8.269   4.368 -0.1679  0.3039 -0.4456
  717MOL0     C96692   2.931   8.164   4.426  0.5841  0.0372  1.2022
  717MOL0     C96693   3.048   8.124   4.359 -0.2663 -0.5746  0.6558
  717MOL0     C96694   3.105   8.204   4.257  0.7960 -0.1265  0.1527
  717MOL0     O96695   3.225   8.157   4.196  0.2148 -0.0930 -0.4923
  717MOL0     C96696   3.302   8.228   4.096 -0.6662 -0.2158 -0.2227
  717MOL0     C96697   3.422   8.315   4.144  0.8477 -0.3425  0.0418
  717MOL0     C96698   3.357   8.458   4.160  0.0296 -0.0499 -0.4474
  717MOL0     C96699   3.466   8.564   4.182  0.4084  0.2095  0.2467
  717MOL0     C96700   3.524   8.609   4.049  0.8702 -0.2543 -0.0694
  717MOL0     C96701   3.662   8.678   4.059  0.8314  0.4938 -0.8475
  717MOL0     C96702   3.731   8.688   3.928 -0.3316  0.0667  0.6015
  717MOL0     C96703   3.880   8.717   3.951 -0.0559  0.0227  0.2202
  717MOL0    Cl96704   3.940   8.796   3.812 -0.5956 -0.1329 -0.1572
  717MOL0     C96705   3.027   8.313   4.198  0.1086  0.1416 -0.7246
  717MOL0     C96706   2.907   8.342   4.255 -0.3447 -0.3827 -0.2176
  717MOL0     O96707   2.843   8.448   4.570  0.2048  0.4591  0.0558
  717MOL0     C96708   2.497   8.335   4.593 -0.0628 -0.1316 -0.1425
  717MOL0     C96709   2.374   8.354   4.663 -0.2522 -0.6210 -0.2624
  717MOL0     N96710   1.979   9.010   5.074  0.6834  0.3004  0.6686
  717MOL0     N96711   1.920   9.081   5.167  0.5152  0.2478  0.3130
  717MOL0     C96712   2.070   8.722   6.433  0.5572  0.7433  0.5738
  717MOL0     C96713   2.084   8.695   6.569 -0.0923 -0.3346 -0.9514
  717MOL0     C96714   1.946   8.669   7.032  0.2003 -0.5834  0.1720
  717MOL0     C96715   1.893   8.756   7.132 -0.0539  0.8496 -0.2924
  717MOL0     C96716   1.924   8.728   7.267  0.5225 -0.3461 -0.5041
  717MOL0     C96717   1.989   8.616   7.316 -0.2502 -0.3053  1.0801
  717MOL0     O96718   1.995   8.587   7.449 -0.3527 -0.4045 -0.5011
  717MOL0     C96719   2.045   8.450   7.471  0.1127  0.9718 -0.4655
  717MOL0     C96720   2.061   8.417   7.622 -0.4844 -0.4762 -0.5762
  717MOL0     C96721   2.085   8.273   7.652  0.7763 -0.2631 -0.0282
  717MOL0     C96722   2.096   8.255   7.802 -0.2565 -0.5182 -0.6889
  717MOL0     C96723   2.218   8.312   7.865 -0.5900 -0.4175 -0.2455
  717MOL0     C96724   2.327   8.363   7.909 -1.0355  0.0796  0.2288
  717MOL0     C96725   2.042   8.536   7.214  0.7781 -0.7026  0.9153
  717MOL0     C96726   2.015   8.550   7.076  0.4228  0.0366  0.4567
  717MOL0     C96727   2.064   8.452   6.980 -0.0596  0.6780  0.5721
  717MOL0     H96728   1.767   8.646   6.655 -0.9568 -0.2514 -2.0015
  717MOL0     H96729   1.732   8.712   6.446 -0.3669 -0.2402 -0.0180
  717MOL0     H96730   2.071   8.886   6.193 -1.6030 -0.5281  2.8322
  717MOL0     H96731   2.080   8.717   6.124  0.1272 -0.5044 -0.1278
  717MOL0     H96732   2.029   8.894   5.962  1.2186  2.7922  1.3157
  717MOL0     H96733   1.874   8.917   6.044  2.2493  1.9127 -1.5067
  717MOL0     H96734   1.798   8.702   5.934  0.0983 -1.4289 -2.7399
  717MOL0     H96735   1.958   8.640   5.970  2.6473  1.9649  1.1956
  717MOL0     H96736   2.048   8.729   5.751 -0.4973 -4.4312 -1.8433
  717MOL0     H96737   1.908   8.643   5.733  0.0657  1.0924 -2.3018
  717MOL0     H96738   1.763   8.847   5.741 -0.7250 -0.2453 -0.9084
  717MOL0     H96739   1.909   8.953   5.761  3.0564 -1.4837 -1.5864
  717MOL0     H96740   2.015   8.895   5.573 -0.5863  2.2698 -2.1633
  717MOL0     H96741   1.892   8.776   5.517  1.1891  0.5418 -1.6390
  717MOL0     H96742   1.791   9.055   5.565  0.8954  2.8130 -0.2401
  717MOL0     H96743   1.770   8.958   5.421 -1.2141  2.2927 -0.6517
  717MOL0     H96744   1.886   9.178   5.405  1.6432  1.4293 -1.3639
  717MOL0     H96745   2.030   9.108   5.484  0.6526  0.2157 -1.2359
  717MOL0     H96746   2.101   8.868   5.341 -0.8771 -0.8963 -0.3844
  717MOL0     H96747   2.177   8.865   4.962 -0.5256 -1.0985 -1.3026
  717MOL0     H96748   2.192   8.755   5.098  2.1247  2.9409 -0.5559
  717MOL0     H96749   1.942   8.684   5.057  1.3400 -1.3107  0.1619
  717MOL0     H96750   1.943   8.782   4.919 -0.3500 -0.1622 -0.1677
  717MOL0     H96751   2.005   8.586   4.813  0.1990 -1.4543 -0.6791
  717MOL0     H96752   2.049   8.500   4.960  1.4451 -2.2936 -3.1540
  717MOL0     H96753   2.263   8.605   4.956 -1.0022  2.8352  0.1465
  717MOL0     H96754   2.222   8.682   4.803  1.1199 -0.3296  1.0442
  717MOL0     H96755   2.439   8.658   4.788 -1.0857 -0.4614  0.4277
  717MOL0     H96756   2.655   8.616   4.683  0.5773 -0.7844  0.8619
  717MOL0     H96757   2.906   8.102   4.512  3.8872  0.4965  2.6652
  717MOL0     H96758   3.111   8.037   4.372  1.3166  0.4902  0.4647
  717MOL0     H96759   3.350   8.156   4.028  1.5799 -0.7948  1.8438
  717MOL0     H96760   3.234   8.289   4.034  2.3332  2.0155 -1.5569
  717MOL0     H96761   3.466   8.284   4.239  0.9240  0.7283  0.3643
  717MOL0     H96762   3.498   8.307   4.066 -1.5261 -0.9322 -2.3972
  717MOL0     H96763   3.308   8.490   4.068  0.8193  2.3206 -0.1274
  717MOL0     H96764   3.285   8.463   4.242  0.3528 -0.2998 -0.1431
  717MOL0     H96765   3.542   8.529   4.253  1.7613 -1.2336 -1.7943
  717MOL0     H96766   3.428   8.656   4.227 -2.0482 -0.8444  0.4341
  717MOL0     H96767   3.456   8.675   3.995  1.3024 -0.6016 -1.0639
  717MOL0     H96768   3.515   8.529   3.975 -0.7962  2.0316 -2.4763
  717MOL0     H96769   3.638   8.775   4.103  0.8839 -1.1845  3.3163
  717MOL0     H96770   3.727   8.618   4.124  1.5289 -0.3012 -2.2014
  717MOL0     H96771   3.678   8.761   3.867 -0.4733 -1.7835 -1.6539
  717MOL0     H96772   3.727   8.586   3.889 -0.8951  0.1958  0.3177
  717MOL0     H96773   3.896   8.783   4.037  1.5036 -0.4142  0.2952
  717MOL0     H96774   3.929   8.622   3.973  0.4320  0.4853  1.1874
  717MOL0     H96775   3.045   8.383   4.117  0.1437  0.2687 -0.6066
  717MOL0     H96776   2.837   8.418   4.220 -2.2856 -2.3604 -0.8683
  717MOL0     H96777   2.506   8.251   4.526  1.5569  0.5155 -0.7805
  717MOL0     H96778   2.292   8.288   4.639 -1.0953  1.7509 -5.0695
  717MOL0     H96779   2.164   8.730   6.379  0.6267  0.6345  0.6779
  717MOL0     H96780   2.188   8.703   6.600 -0.3267  2.5203 -0.6602
  717MOL0     H96781   1.842   8.850   7.114  1.0980  1.8771  1.5552
  717MOL0     H96782   1.902   8.809   7.335  0.7999  2.0787 -3.1191
  717MOL0     H96783   2.148   8.441   7.437  0.9086  0.1759  1.9207
  717MOL0     H96784   1.983   8.375   7.421  2.8263 -0.8337 -1.3156
  717MOL0     H96785   1.978   8.451   7.685  0.2232 -0.7942  0.5536
  717MOL0     H96786   2.150   8.464   7.662 -0.2175 -1.7555  0.3961
  717MOL0     H96787   2.169   8.227   7.600  1.1357 -0.1108  0.4169
  717MOL0     H96788   1.995   8.212   7.635 -0.8214  2.0284 -0.2300
  717MOL0     H96789   2.009   8.302   7.849  1.4277  3.3762 -1.0202
  717MOL0     H96790   2.094   8.149   7.827 -1.3589 -0.3742 -0.1519
  717MOL0     H96791   2.416   8.397   7.957 -1.1777  1.3751 -0.3804
  717MOL0     H96792   2.104   8.451   7.240  2.5701  0.7939  1.7121
  717MOL0     H96793   2.162   8.473   6.935 -1.1874 -2.3703 -3.9404
  717MOL0     H96794   2.069   8.360   7.039 -0.2595  1.0094  1.1190
  717MOL0     H96795   1.993   8.424   6.902  0.8454 -1.5442  0.4838
  718MOL0     O96796   9.801   4.447   3.192  0.1678  0.0273 -0.1005
  718MOL0     C96797   9.761   4.343   3.146 -0.5032 -0.0019 -0.5594
  718MOL0     O96798   9.749   4.234   3.217 -0.4759  0.5650  0.7884
  718MOL0     C96799   9.818   4.218   3.331  0.4727  0.5181 -0.4826
  718MOL0     C96800   9.940   4.272   3.361  0.1382 -0.3171  0.4337
  718MOL0     C96801  10.007   4.250   3.482  0.8659 -1.2693 -0.9974
  718MOL0     C96802   9.956   4.169   3.579  0.2035  0.3680  0.2240
  718MOL0     O96803  10.014   4.151   3.702  0.1489  0.1856  0.2610
  718MOL0     C96804  10.161   4.140   3.714 -0.4525 -0.4560 -0.6724
  718MOL0     C96805  10.209   4.251   3.804 -0.1156  0.5909 -0.0265
  718MOL0     C96806  10.136   4.263   3.941 -0.8067  0.0851  0.3349
  718MOL0     C96807  10.167   4.149   4.046  1.2179  0.4574  0.3641
  718MOL0     C96808  10.308   4.159   4.095  0.1757 -0.5423 -0.1953
  718MOL0     C96809  10.358   4.035   4.176  0.4257  0.2026  0.2896
  718MOL0     C96810  10.290   4.008   4.314 -0.5090  1.2988  0.2970
  718MOL0     C96811  10.184   3.886   4.303 -1.0667  0.8266 -0.3045
  718MOL0     N96812  10.045   3.932   4.297  0.4761 -0.5947  0.5258
  718MOL0     C96813   9.953   3.874   4.212 -0.1666 -0.1707  0.0296
  718MOL0     C96814   9.835   3.940   4.240 -0.0809 -0.6402 -1.8505
  718MOL0     C96815   9.710   3.918   4.179  0.9042 -0.1604  0.2111
  718MOL0     C96816   9.706   3.930   4.023 -0.3605  0.6614  1.0246
  718MOL0     C96817   9.737   4.080   3.973  1.2678  0.0108  0.3086
  718MOL0     C96818   9.653   4.181   4.050  0.5220 -0.5656  0.3003
  718MOL0     O96819   9.684   4.314   3.998  0.3257  0.3297  0.3342
  718MOL0     C96820   9.776   4.392   4.072 -0.0949 -0.4538  0.9075
  718MOL0     C96821   9.796   4.523   4.017  0.1270  0.0496  0.0637
  718MOL0     C96822   9.888   4.609   4.077  0.0427 -0.2954  0.1216
  718MOL0     C96823   9.959   4.575   4.188 -0.4691  0.9382 -0.3137
  718MOL0     C96824  10.053   4.669   4.263 -0.3115  0.2835 -0.0486
  718MOL0     O96825  10.042   4.794   4.211 -0.2138  0.5365  0.2721
  718MOL0     C96826  10.137   4.884   4.239  0.0952  0.3832 -0.1659
  718MOL0     C96827  10.104   5.006   4.307  0.0363  0.2128  1.1851
  718MOL0     C96828  10.201   5.096   4.358 -0.4243  0.3607 -0.3020
  718MOL0     C96829  10.331   5.077   4.319 -0.5866  0.3654  0.2545
  718MOL0     O96830  10.414   5.181   4.344  0.1749 -0.8142 -0.1801
  718MOL0     C96831  10.541   5.141   4.379 -0.3672 -0.3259 -0.8188
  718MOL0     C96832  10.613   5.254   4.454  0.7807 -0.3336 -0.1387
  718MOL0     C96833  10.576   5.286   4.604 -0.1073  0.4131  1.0534
  718MOL0     C96834  10.545   5.163   4.689  0.1540  0.1298 -0.2230
  718MOL0     C96835  10.553   5.178   4.841  0.4960 -0.0444 -1.2991
  718MOL0     C96836  10.697   5.177   4.895  0.3548  0.8042 -0.0232
  718MOL0     C96837  10.749   5.041   4.945 -0.4342  0.5128  0.1247
  718MOL0     C96838  10.900   5.040   4.917 -0.6715 -0.1410 -0.6938
  718MOL0    Cl96839  10.949   5.021   4.749 -0.0214  0.4449 -0.6340
  718MOL0     C96840  10.363   4.964   4.234 -0.0653 -0.5233 -0.2240
  718MOL0     C96841  10.270   4.868   4.198 -0.8472  0.4223 -0.9579
  718MOL0     O96842  10.138   4.633   4.340 -0.6287 -0.4831 -0.0232
  718MOL0     C96843   9.949   4.444   4.241 -0.5315 -0.5949  0.1234
  718MOL0     C96844   9.862   4.350   4.179 -0.6025  0.0580  0.4133
  718MOL0     N96845   9.869   4.040   4.330 -0.4552 -0.4636  0.7859
  718MOL0     N96846   9.989   4.029   4.381  0.4192  0.2222  0.4812
  718MOL0     C96847   9.842   4.093   3.545  0.1739 -0.0623  0.2057
  718MOL0     C96848   9.769   4.129   3.428 -1.1874  0.7227 -0.1888
  718MOL0     C96849   9.731   4.344   2.998 -0.6672  1.2325 -0.0957
  718MOL0     C96850   9.713   4.217   2.939  1.0691  0.1081  0.3079
  718MOL0     C96851   9.688   4.211   2.804 -1.1179 -1.2239 -0.5903
  718MOL0     C96852   9.671   4.324   2.729 -0.3150 -0.5677  0.5204
  718MOL0     O96853   9.655   4.314   2.595  0.0073 -0.0466 -0.3045
  718MOL0     C96854   9.734   4.234   2.508  0.8223  0.3184 -0.8623
  718MOL0     C96855   9.876   4.280   2.529  0.2463 -0.6605  0.1856
  718MOL0     C96856   9.961   4.163   2.466  0.0794 -1.5444 -0.3805
  718MOL0     C96857  10.102   4.212   2.449 -0.9451  0.6680  0.4215
  718MOL0     C96858  10.162   4.259   2.568 -0.8207  0.1434 -0.6604
  718MOL0     C96859  10.211   4.313   2.667  1.1554  0.1929  0.2665
  718MOL0     C96860   9.665   4.452   2.794 -0.2930  0.3916  0.8121
  718MOL0     C96861   9.695   4.464   2.929  0.8003 -0.6733  0.7973
  718MOL0     C96862   9.658   4.588   3.005 -0.0306  0.7760 -0.5929
  718MOL0     H96863   9.994   4.333   3.289 -0.8907  0.2752  0.1306
  718MOL0     H96864  10.100   4.300   3.509 -0.2078  1.9349 -2.6588
  718MOL0     H96865  10.177   4.056   3.783 -2.5261  1.0792  1.8637
  718MOL0     H96866  10.223   4.135   3.624  1.8446  1.2796  0.6823
  718MOL0     H96867  10.185   4.352   3.768  0.2485  1.1361  1.2033
  718MOL0     H96868  10.319   4.249   3.806 -0.0755  0.1574 -1.6294
  718MOL0     H96869  10.029   4.260   3.916 -0.5031  0.7219 -1.1508
  718MOL0     H96870  10.161   4.362   3.982 -0.8452 -0.0475  0.6872
  718MOL0     H96871  10.110   4.154   4.139 -0.0586 -3.2547 -0.0737
  718MOL0     H96872  10.152   4.052   3.999  1.3416  0.9876 -0.8195
  718MOL0     H96873  10.384   4.175   4.018  0.4187  0.6990  0.2853
  718MOL0     H96874  10.313   4.247   4.160 -2.8419 -0.3432 -0.0990
  718MOL0     H96875  10.339   3.949   4.111 -0.3193 -0.5007  1.4016
  718MOL0     H96876  10.466   4.046   4.188  0.7227 -1.6794 -0.2958
  718MOL0     H96877  10.241   4.099   4.349 -0.9244  1.8237 -1.5399
  718MOL0     H96878  10.366   3.988   4.390 -2.1476  3.1446  2.5676
  718MOL0     H96879  10.197   3.816   4.220 -0.5558  0.5261  0.0262
  718MOL0     H96880  10.191   3.835   4.400 -0.0220  1.2964 -0.1262
  718MOL0     H96881   9.978   3.781   4.163  1.8143  0.5116 -0.3223
  718MOL0     H96882   9.663   3.822   4.202 -4.7763  2.0191 -0.8376
  718MOL0     H96883   9.637   3.984   4.227  1.3620 -0.5096  1.4317
  718MOL0     H96884   9.779   3.869   3.970  0.7610  2.8480 -0.1028
  718MOL0     H96885   9.611   3.891   3.987 -0.0558 -0.8118  1.7541
  718MOL0     H96886   9.714   4.087   3.866 -0.0085 -0.5581  0.5331
  718MOL0     H96887   9.844   4.096   3.991  1.9378 -2.4808 -0.9756
  718MOL0     H96888   9.671   4.168   4.157  1.8445 -2.2404 -0.0799
  718MOL0     H96889   9.547   4.156   4.053 -0.4933  2.8260 -1.5324
  718MOL0     H96890   9.734   4.568   3.941 -1.6985 -0.6461  1.0924
  718MOL0     H96891   9.888   4.708   4.032 -0.8134 -0.1292  0.4584
  718MOL0     H96892   9.998   5.006   4.329 -0.2734 -1.3133 -0.0737
  718MOL0     H96893  10.165   5.182   4.414  2.0782  1.4518 -0.2770
  718MOL0     H96894  10.531   5.063   4.455  0.5379  3.0399  3.1283
  718MOL0     H96895  10.598   5.100   4.296 -2.6369 -0.2231 -2.5039
  718MOL0     H96896  10.721   5.242   4.458  1.0067  1.6889  1.3358
  718MOL0     H96897  10.612   5.343   4.391  0.4532  1.1637  1.8960
  718MOL0     H96898  10.653   5.352   4.644 -0.0651 -0.1384  1.9047
  718MOL0     H96899  10.476   5.330   4.596 -0.7869 -1.0880  0.9785
  718MOL0     H96900  10.613   5.079   4.673  1.0636  1.0498 -1.4016
  718MOL0     H96901  10.439   5.143   4.671 -0.8214  1.4254  3.1868
  718MOL0     H96902  10.485   5.113   4.896 -0.4932  0.1999 -2.1923
  718MOL0     H96903  10.513   5.277   4.867 -0.6036 -1.1737  1.7586
  718MOL0     H96904  10.761   5.214   4.814  0.2788 -3.2437 -2.2072
  718MOL0     H96905  10.696   5.237   4.986 -0.2413  0.6282  0.0956
  718MOL0     H96906  10.708   4.954   4.894  3.8337 -2.3012  1.0391
  718MOL0     H96907  10.731   5.031   5.053  1.9708  1.5287  0.6768
  718MOL0     H96908  10.945   5.131   4.957  0.5410 -0.7272 -0.6829
  718MOL0     H96909  10.955   4.960   4.967 -1.1142  0.8282  1.4415
  718MOL0     H96910  10.466   4.943   4.208  0.5075  1.1048  0.5887
  718MOL0     H96911  10.312   4.792   4.133  1.5264 -0.4387  1.3684
  718MOL0     H96912  10.022   4.405   4.311 -1.8551 -1.1696  1.2448
  718MOL0     H96913   9.865   4.246   4.208  2.6482  0.3516  1.5410
  718MOL0     H96914   9.801   4.022   3.616  1.0851 -1.5879 -0.7352
  718MOL0     H96915   9.669   4.089   3.412 -0.4188 -0.4274 -2.4914
  718MOL0     H96916   9.721   4.125   2.995 -1.5777  0.8872  2.1954
  718MOL0     H96917   9.665   4.121   2.748 -1.1192 -0.0195 -2.6194
  718MOL0     H96918   9.694   4.244   2.407  1.2141 -0.0274 -1.0575
  718MOL0     H96919   9.723   4.130   2.540 -1.9394  1.5698  3.0848
  718MOL0     H96920   9.903   4.284   2.635 -2.0944 -0.0670  0.8266
  718MOL0     H96921   9.889   4.375   2.477 -1.9931  2.6320  4.9165
  718MOL0     H96922   9.921   4.128   2.371 -1.1511  2.6622 -1.6472
  718MOL0     H96923   9.955   4.088   2.546 -3.2276  1.2732  2.3521
  718MOL0     H96924  10.166   4.127   2.423  0.7273  1.7147  1.0159
  718MOL0     H96925  10.111   4.289   2.371  0.5578 -1.1332 -1.3140
  718MOL0     H96926  10.261   4.338   2.758 -0.6460 -2.0983  2.0203
  718MOL0     H96927   9.643   4.536   2.730  1.8516  1.2581  1.1577
  718MOL0     H96928   9.621   4.671   2.944 -3.9420  0.8682  1.5680
  718MOL0     H96929   9.566   4.572   3.063 -2.3421  0.2748 -4.0969
  718MOL0     H96930   9.740   4.626   3.067  1.8288 -3.8159  0.1336
  719MOL0     O96931   1.205  10.077   5.871  0.1914 -0.2802 -0.2740
  719MOL0     C96932   1.101  10.105   5.813  0.0591 -0.3058 -0.4182
  719MOL0     O96933   1.012  10.206   5.849 -0.0748 -0.4962  0.0529
  719MOL0     C96934   1.022  10.297   5.956 -0.2137 -0.3041  0.5604
  719MOL0     C96935   0.925  10.398   5.966  0.5924 -0.0844  0.0903
  719MOL0     C96936   0.923  10.492   6.065  0.2493 -1.0454 -0.9576
  719MOL0     C96937   1.033  10.506   6.147  0.2728  0.1169 -0.1424
  719MOL0     O96938   1.033  10.613   6.233  0.4768  0.1837  0.5021
  719MOL0     C96939   1.155  10.664   6.269 -0.1404  1.0486  0.1948
  719MOL0     C96940   1.161  10.812   6.313  0.2832  0.2061  0.4555
  719MOL0     C96941   1.084  10.892   6.208  0.4497  0.0252  0.1808
  719MOL0     C96942   1.064  11.042   6.246 -0.0595 -0.0734  0.4322
  719MOL0     C96943   1.181  11.125   6.202 -0.1968 -0.0786 -0.1784
  719MOL0     C96944   1.180  11.266   6.248  0.2138 -0.3474 -0.3131
  719MOL0     C96945   1.077  11.349   6.176  0.7787  0.3005 -0.3955
  719MOL0     C96946   1.083  11.501   6.216 -0.6162  0.2066 -0.6407
  719MOL0     N96947   0.961  11.563   6.169 -0.4093  0.3042 -0.1755
  719MOL0     C96948   0.843  11.566   6.234  0.0208 -0.0117  0.3906
  719MOL0     C96949   0.765  11.645   6.168 -0.5836 -0.0271  0.4288
  719MOL0     C96950   0.621  11.657   6.189  1.2931  0.0035 -0.0918
  719MOL0     C96951   0.533  11.545   6.124 -0.3301  0.5636 -0.0764
  719MOL0     C96952   0.390  11.574   6.114 -0.3830 -0.9125 -0.0452
  719MOL0     C96953   0.314  11.478   6.035  0.4389  0.3088  0.0517
  719MOL0     O96954   0.371  11.436   5.910  0.2697 -0.2274  0.1908
  719MOL0     C96955   0.375  11.304   5.883  1.8978 -0.2072  0.0332
  719MOL0     C96956   0.314  11.197   5.959 -0.4270 -0.3654 -0.9135
  719MOL0     C96957   0.354  11.064   5.939  0.2947  0.4787 -0.5557
  719MOL0     C96958   0.416  11.024   5.815 -0.3397 -0.4200  1.2040
  719MOL0     C96959   0.425  10.881   5.774  0.4402 -0.1131 -0.1475
  719MOL0     O96960   0.385  10.783   5.864  0.1120 -1.1253 -0.0759
  719MOL0     C96961   0.418  10.648   5.833 -0.6340  0.3529 -0.9654
  719MOL0     C96962   0.497  10.594   5.726  0.5554  0.7644  0.6988
  719MOL0     C96963   0.518  10.454   5.723 -0.0454 -0.4508 -0.7547
  719MOL0     C96964   0.482  10.364   5.822 -0.3838  0.3342  0.4468
  719MOL0     O96965   0.526  10.233   5.822  0.2186  0.1672 -0.2120
  719MOL0     C96966   0.622  10.178   5.728  0.4148  0.5327 -0.2344
  719MOL0     C96967   0.558  10.152   5.586  0.1575  0.2164 -1.1407
  719MOL0     C96968   0.481  10.017   5.582  0.2055 -0.0834  0.3569
  719MOL0     C96969   0.375   9.994   5.468 -0.4130 -0.8486 -0.7076
  719MOL0     C96970   0.301   9.859   5.481 -0.9211  0.7697  0.8259
  719MOL0     C96971   0.197   9.846   5.377  0.6394 -0.4371 -0.6866
  719MOL0     C96972   0.265   9.792   5.254  0.2260  0.6719 -0.7822
  719MOL0     C96973   0.152   9.741   5.152  0.2204 -0.2485 -0.0852
  719MOL0    Cl96974   0.213   9.725   4.981  0.2542  0.1612 -0.6579
  719MOL0     C96975   0.401  10.422   5.924 -0.8377 -0.0680  0.5587
  719MOL0     C96976   0.366  10.558   5.929  0.8951  0.7951  0.3748
  719MOL0     O96977   0.488  10.861   5.669 -0.0442 -0.1803  0.6110
  719MOL0     C96978   0.458  11.136   5.731  0.4204 -0.1009  0.2100
  719MOL0     C96979   0.438  11.271   5.759  0.8569  0.6701  0.0943
  719MOL0     N96980   0.827  11.689   6.050  0.0705 -0.4869 -0.9596
  719MOL0     N96981   0.947  11.646   6.052  0.0544 -0.0596  0.0435
  719MOL0     C96982   1.119  10.399   6.158 -1.3388  0.3608 -0.0358
  719MOL0     C96983   1.114  10.301   6.052 -0.4637  1.4678 -0.6294
  719MOL0     C96984   1.056  10.030   5.691 -0.1829 -0.3056 -0.2018
  719MOL0     C96985   1.017  10.099   5.579 -0.5265  0.1972 -0.5048
  719MOL0     C96986   0.972  10.026   5.466  0.7329  0.2022  0.1859
  719MOL0     C96987   0.948   9.886   5.473  1.1197 -0.1366  0.4086
  719MOL0     O96988   0.904   9.826   5.356  0.2080 -0.5441 -0.4131
  719MOL0     C96989   0.813   9.714   5.378  0.4611 -0.3109  0.2727
  719MOL0     C96990   0.702   9.697   5.269 -0.1350 -0.1246 -0.7038
  719MOL0     C96991   0.752   9.650   5.130 -0.4067 -0.8562 -0.8988
  719MOL0     C96992   0.635   9.624   5.025 -0.6026 -0.2623  0.0045
  719MOL0     C96993   0.584   9.750   4.980 -0.7066 -0.4255 -1.5168
  719MOL0     C96994   0.550   9.864   4.952  0.2935  0.2842 -0.5017
  719MOL0     C96995   1.003   9.808   5.578 -0.9870 -0.3496 -0.8141
  719MOL0     C96996   1.057   9.884   5.685 -0.0644 -0.2465 -0.4692
  719MOL0     C96997   1.090   9.817   5.809 -0.5773 -0.0524  0.5849
  719MOL0     H96998   0.855  10.393   5.884  3.1964  0.1986 -2.2909
  719MOL0     H96999   0.849  10.571   6.062  0.9799 -0.1936  1.2397
  719MOL0     H97000   1.174  10.605   6.359 -3.7980 -2.8250 -1.2407
  719MOL0     H97001   1.222  10.635   6.187 -0.8434 -0.5550  0.1428
  719MOL0     H97002   1.264  10.847   6.314 -0.1966  2.0843 -2.4821
  719MOL0     H97003   1.109  10.840   6.406  1.2932  2.6399  0.3677
  719MOL0     H97004   0.993  10.841   6.174 -0.0610  1.1367 -0.1961
  719MOL0     H97005   1.149  10.884   6.120 -0.0563 -0.9785 -0.1094
  719MOL0     H97006   0.978  11.072   6.185 -0.8170 -0.8745  1.0893
  719MOL0     H97007   1.048  11.065   6.352  1.6148  1.4533  0.4135
  719MOL0     H97008   1.258  11.070   6.256 -1.7357 -1.0638  1.1256
  719MOL0     H97009   1.197  11.108   6.095  0.0340 -0.2275 -0.1205
  719MOL0     H97010   1.174  11.272   6.357  0.0176 -2.3203 -0.1837
  719MOL0     H97011   1.274  11.317   6.223  0.6435 -1.3849 -0.8689
  719MOL0     H97012   0.973  11.326   6.200  1.5646  0.0404  3.3281
  719MOL0     H97013   1.079  11.333   6.068  0.5419 -1.9157 -0.1131
  719MOL0     H97014   1.088  11.506   6.326 -1.1688  1.3798 -0.6537
  719MOL0     H97015   1.171  11.557   6.186 -0.7114  1.5256  1.3569
  719MOL0     H97016   0.815  11.512   6.324  1.9191 -0.1353  0.9574
  719MOL0     H97017   0.610  11.656   6.298  0.0774  2.2665 -0.1139
  719MOL0     H97018   0.582  11.752   6.152  0.9534 -1.0889 -2.7324
  719MOL0     H97019   0.571  11.516   6.026  1.1578 -0.5310  0.7652
  719MOL0     H97020   0.545  11.452   6.181  1.3388  0.9652  0.3014
  719MOL0     H97021   0.382  11.671   6.064  2.6599  0.3157  1.5917
  719MOL0     H97022   0.353  11.568   6.217  0.6735 -5.0497  0.2838
  719MOL0     H97023   0.225  11.534   6.006  1.0584  1.7506  0.8359
  719MOL0     H97024   0.300  11.399   6.109 -0.3372  0.3954  0.0058
  719MOL0     H97025   0.262  11.210   6.054 -0.6656  0.2839 -1.1308
  719MOL0     H97026   0.309  10.984   5.996  0.5423  0.0975 -0.8922
  719MOL0     H97027   0.528  10.636   5.631 -6.4619  0.5588 -2.2813
  719MOL0     H97028   0.579  10.419   5.640 -0.7613 -1.0305 -1.0409
  719MOL0     H97029   0.703  10.252   5.720 -1.2919  2.8635  2.3570
  719MOL0     H97030   0.662  10.082   5.760 -0.4034 -0.5656 -2.2857
  719MOL0     H97031   0.483  10.230   5.571 -3.1589 -2.6522 -0.8021
  719MOL0     H97032   0.639  10.162   5.513 -0.0138 -0.4581 -1.4296
  719MOL0     H97033   0.557   9.940   5.570  2.0423  1.8065 -0.9750
  719MOL0     H97034   0.424   9.991   5.672 -3.5847  0.2356 -1.7076
  719MOL0     H97035   0.434   9.989   5.376 -1.6272 -0.8656 -1.5063
  719MOL0     H97036   0.312  10.084   5.471  1.5269  0.5601 -0.7286
  719MOL0     H97037   0.254   9.859   5.580 -0.6695  1.4519  0.9511
  719MOL0     H97038   0.375   9.779   5.470 -1.9652 -0.1206  0.1915
  719MOL0     H97039   0.132   9.768   5.418 -0.1960  0.9168  0.6844
  719MOL0     H97040   0.134   9.930   5.349  1.4737 -0.1954 -1.9330
  719MOL0     H97041   0.340   9.714   5.271  0.0573 -0.1008 -3.2027
  719MOL0     H97042   0.320   9.867   5.198  3.8838 -2.1618 -1.3979
  719MOL0     H97043   0.109   9.642   5.167 -0.2034 -0.6891 -3.5140
  719MOL0     H97044   0.067   9.806   5.129 -0.4887 -1.8346 -2.2832
  719MOL0     H97045   0.366  10.364   6.009  0.8327  0.6345  1.7833
  719MOL0     H97046   0.303  10.601   6.007 -0.6881 -1.5439  0.4645
  719MOL0     H97047   0.491  11.118   5.629  0.8497  0.6651  0.2028
  719MOL0     H97048   0.477  11.342   5.687  5.8059 -1.6474  0.0398
  719MOL0     H97049   1.192  10.388   6.237 -0.1634 -0.6023 -1.2116
  719MOL0     H97050   1.198  10.233   6.066 -0.6290  1.7052  2.1111
  719MOL0     H97051   1.026  10.207   5.573  0.0758  0.0539 -3.8890
  719MOL0     H97052   0.956  10.083   5.375  0.0860 -0.9624 -0.4462
  719MOL0     H97053   0.762   9.728   5.474 -2.6779 -1.0099 -1.1500
  719MOL0     H97054   0.858   9.615   5.381 -0.0614 -0.5294  1.5374
  719MOL0     H97055   0.659   9.796   5.253  0.7378 -0.1031 -3.2291
  719MOL0     H97056   0.617   9.636   5.305 -1.5992  2.2761  0.1590
  719MOL0     H97057   0.824   9.567   5.142  0.3775  0.0061  0.7623
  719MOL0     H97058   0.811   9.726   5.078 -2.0579 -0.9977 -3.1245
  719MOL0     H97059   0.678   9.570   4.940 -2.2983 -2.0114  0.1832
  719MOL0     H97060   0.547   9.580   5.072 -0.4506  1.5521  2.1221
  719MOL0     H97061   0.519   9.966   4.944 -1.3478 -0.2039 -0.6412
  719MOL0     H97062   0.988   9.700   5.571 -0.1093 -0.3530 -4.1359
  719MOL0     H97063   1.081   9.708   5.807  0.8725 -0.2017  0.9193
  719MOL0     H97064   1.199   9.816   5.818 -0.4991  0.6926 -0.2683
  719MOL0     H97065   1.050   9.857   5.903  1.3546 -0.9350  1.8557
  720MOL0     O97066   8.719   8.746   7.262  1.2834  1.0177  0.5745
  720MOL0     C97067   8.770   8.645   7.214 -0.6714 -0.3607 -0.8674
  720MOL0     O97068   8.714   8.520   7.214  0.2015 -0.7547 -0.2207
  720MOL0     C97069   8.590   8.502   7.280 -1.7960 -0.8304 -0.8546
  720MOL0     C97070   8.582   8.398   7.371 -0.4926  0.6884  0.3955
  720MOL0     C97071   8.465   8.360   7.431 -0.3481  0.7754  0.3378
  720MOL0     C97072   8.347   8.428   7.389  0.0369  0.4047 -0.2554
  720MOL0     O97073   8.232   8.387   7.442 -0.5756 -0.1899 -0.0815
  720MOL0     C97074   8.188   8.460   7.556  0.8480 -1.1850 -0.0914
  720MOL0     C97075   8.149   8.610   7.519 -0.2448  0.5305  0.4489
  720MOL0     C97076   8.036   8.626   7.423 -0.4177  0.5043  0.8835
  720MOL0     C97077   7.913   8.555   7.490 -0.5288 -0.1015 -1.1187
  720MOL0     C97078   7.783   8.579   7.405  0.7312 -0.0582 -0.2107
  720MOL0     C97079   7.650   8.516   7.456 -0.1448  0.2123  0.7762
  720MOL0     C97080   7.537   8.504   7.351 -0.6223  0.0059 -0.6463
  720MOL0     C97081   7.490   8.652   7.314  0.5366  0.5128 -0.5643
  720MOL0     N97082   7.354   8.644   7.257  0.1138 -1.2363 -0.3325
  720MOL0     C97083   7.239   8.611   7.322  0.3669 -0.1990 -1.2724
  720MOL0     C97084   7.140   8.653   7.244  0.1166  0.5364 -0.6723
  720MOL0     C97085   6.997   8.630   7.277 -0.1997  0.4997  1.1051
  720MOL0     C97086   6.953   8.485   7.239  0.1766 -0.1712 -0.2092
  720MOL0     C97087   6.817   8.455   7.302 -0.8491  0.1736  0.6366
  720MOL0     C97088   6.800   8.461   7.452  0.3964 -1.6799  0.5190
  720MOL0     O97089   6.892   8.373   7.508 -0.1282 -0.8969  0.5688
  720MOL0     C97090   6.835   8.255   7.556  1.2393  0.6217 -0.3791
  720MOL0     C97091   6.707   8.230   7.604  1.4888  0.0447 -0.0007
  720MOL0     C97092   6.666   8.104   7.641  0.7623  0.9169 -0.1421
  720MOL0     C97093   6.748   7.993   7.627  0.4446 -1.3732 -0.9760
  720MOL0     C97094   6.686   7.859   7.627 -0.5313  0.6106 -0.2843
  720MOL0     O97095   6.561   7.861   7.637 -0.6320  0.4481  0.2477
  720MOL0     C97096   6.489   7.755   7.683  0.8307  0.2916 -0.8834
  720MOL0     C97097   6.533   7.650   7.761  0.5628 -0.1470  0.4624
  720MOL0     C97098   6.433   7.563   7.806 -0.2306 -1.0830 -1.0406
  720MOL0     C97099   6.295   7.579   7.784  0.6738  0.0829  0.3506
  720MOL0     O97100   6.200   7.506   7.844  1.6323  0.3884  0.0342
  720MOL0     C97101   6.218   7.362   7.865 -0.8816 -0.8768  0.3781
  720MOL0     C97102   6.091   7.304   7.917  0.1521  0.9610  0.4349
  720MOL0     C97103   6.084   7.154   7.864 -0.9107 -0.2589 -0.3327
  720MOL0     C97104   5.965   7.083   7.929 -0.1659  0.5628  0.1989
  720MOL0     C97105   5.928   6.955   7.841  0.2501 -0.7846 -0.1151
  720MOL0     C97106   5.796   6.898   7.900  0.5116 -0.3620 -0.1375
  720MOL0     C97107   5.820   6.827   8.041  0.1720  0.6505  0.5335
  720MOL0     C97108   5.683   6.767   8.072 -0.8123  0.1749 -0.4078
  720MOL0    Cl97109   5.566   6.897   8.093 -0.0734  0.0370  0.3978
  720MOL0     C97110   6.255   7.681   7.702  0.8587  0.0142 -0.5802
  720MOL0     C97111   6.349   7.769   7.660  0.1078 -0.6673 -0.5590
  720MOL0     O97112   6.767   7.759   7.644 -0.1183 -0.9824  0.8330
  720MOL0     C97113   6.882   8.016   7.585  0.5292 -0.6940 -0.1938
  720MOL0     C97114   6.919   8.143   7.544 -0.0460  0.7717 -0.4952
  720MOL0     N97115   7.196   8.705   7.134  0.6543  0.2464 -0.0972
  720MOL0     N97116   7.323   8.688   7.134 -1.0246 -0.4542  0.1892
  720MOL0     C97117   8.345   8.516   7.283 -0.1358  0.5454  0.0892
  720MOL0     C97118   8.472   8.565   7.238 -0.5229  0.3851 -0.3808
  720MOL0     C97119   8.907   8.640   7.172 -0.1234  0.3469  0.3027
  720MOL0     C97120   8.937   8.540   7.086 -0.2764 -0.4201  0.1195
  720MOL0     C97121   9.071   8.524   7.039 -0.7316  0.0601 -0.2978
  720MOL0     C97122   9.170   8.613   7.080 -0.2375  0.0722 -0.6993
  720MOL0     O97123   9.297   8.588   7.022  0.1103  0.4941 -0.1989
  720MOL0     C97124   9.416   8.648   7.081 -0.0702  0.0414  1.2907
  720MOL0     C97125   9.474   8.759   6.998 -1.0879 -0.2833  0.0581
  720MOL0     C97126   9.513   8.731   6.849 -0.0681 -0.9190 -0.5250
  720MOL0     C97127   9.570   8.868   6.791 -0.2079  0.5988 -0.5002
  720MOL0     C97128   9.711   8.902   6.833  0.6516  0.3652  0.6503
  720MOL0     C97129   9.817   8.936   6.874 -0.2505 -1.1245 -0.0469
  720MOL0     C97130   9.134   8.709   7.181 -0.2469 -0.2616  0.7408
  720MOL0     C97131   9.005   8.728   7.222  0.1856  0.3346  0.6507
  720MOL0     C97132   8.977   8.829   7.331  0.0360 -0.2497 -0.0716
  720MOL0     H97133   8.669   8.335   7.386 -1.4025 -3.0909 -6.2526
  720MOL0     H97134   8.456   8.282   7.505  1.2541 -0.9620 -1.1963
  720MOL0     H97135   8.097   8.416   7.598 -0.5393  1.8110  0.2672
  720MOL0     H97136   8.263   8.467   7.636 -0.8011  5.1023  1.4809
  720MOL0     H97137   8.240   8.662   7.488  0.8850 -0.0017  2.6626
  720MOL0     H97138   8.118   8.658   7.612 -0.1700 -1.4862  1.5808
  720MOL0     H97139   8.065   8.578   7.329  0.2682  3.6337 -0.6367
  720MOL0     H97140   8.016   8.731   7.398 -1.3754  0.5095  1.6236
  720MOL0     H97141   7.926   8.447   7.504 -1.6575 -0.2918 -1.4071
  720MOL0     H97142   7.896   8.586   7.594  0.7052 -0.6172 -0.7434
  720MOL0     H97143   7.770   8.687   7.406 -1.2596 -0.2587  1.2665
  720MOL0     H97144   7.808   8.538   7.306  1.3028 -2.1544  0.7390
  720MOL0     H97145   7.671   8.414   7.490  0.4555 -0.6583 -1.9514
  720MOL0     H97146   7.618   8.563   7.550  0.3707  0.3588  0.8808
  720MOL0     H97147   7.454   8.454   7.402 -4.3193  3.0454 -3.0816
  720MOL0     H97148   7.565   8.455   7.257 -2.3217  0.5999 -1.5130
  720MOL0     H97149   7.482   8.707   7.408 -1.9581  4.1120 -2.6535
  720MOL0     H97150   7.566   8.694   7.248  1.1331  1.5963  0.7636
  720MOL0     H97151   7.240   8.552   7.413  1.1115 -0.5576 -1.5043
  720MOL0     H97152   6.977   8.664   7.379  0.0854  3.3598  0.2898
  720MOL0     H97153   6.939   8.699   7.216  1.3811  0.0943 -0.9701
  720MOL0     H97154   6.961   8.466   7.131  1.9328 -2.0202  0.1754
  720MOL0     H97155   7.025   8.425   7.295  0.2860  0.9668  0.8989
  720MOL0     H97156   6.782   8.354   7.281 -0.5419  0.3745 -0.9464
  720MOL0     H97157   6.758   8.532   7.251 -0.9956  1.0563  2.0905
  720MOL0     H97158   6.693   8.446   7.472 -0.2991  0.4516 -1.2373
  720MOL0     H97159   6.818   8.566   7.474  0.6471 -1.0605 -2.3025
  720MOL0     H97160   6.648   8.320   7.619  1.8375  0.3614 -0.4740
  720MOL0     H97161   6.568   8.089   7.686  0.8905  1.4580  0.3389
  720MOL0     H97162   6.639   7.631   7.778  0.5639 -0.7058 -0.1381
  720MOL0     H97163   6.461   7.476   7.865  0.0116 -1.1558 -1.2641
  720MOL0     H97164   6.266   7.320   7.777  0.3364 -1.3155  1.2233
  720MOL0     H97165   6.298   7.350   7.939  3.3781  3.2890 -2.9647
  720MOL0     H97166   6.082   7.311   8.025  5.0356 -0.0311  1.0944
  720MOL0     H97167   6.004   7.364   7.886 -0.9767 -0.5082  0.6304
  720MOL0     H97168   6.066   7.166   7.757 -2.5058  1.6090  0.0810
  720MOL0     H97169   6.182   7.106   7.874  1.1681  3.6265 -0.4021
  720MOL0     H97170   5.876   7.147   7.926 -0.3591  0.2594 -0.9667
  720MOL0     H97171   5.983   7.047   8.030 -2.7448 -1.7202 -0.0287
  720MOL0     H97172   6.006   6.879   7.843 -0.6254 -1.7239  2.1193
  720MOL0     H97173   5.910   6.989   7.739  1.1003 -1.8539 -0.6399
  720MOL0     H97174   5.738   6.989   7.918 -0.7131 -1.1854  0.1374
  720MOL0     H97175   5.751   6.836   7.822 -0.9522  0.9252 -0.3709
  720MOL0     H97176   5.852   6.898   8.117  0.6366  2.7607 -1.5097
  720MOL0     H97177   5.892   6.745   8.033 -1.9315 -1.4242  1.6616
  720MOL0     H97178   5.653   6.701   7.990  1.0762 -2.8750  1.1679
  720MOL0     H97179   5.694   6.711   8.166  0.9644  0.0083 -0.6823
  720MOL0     H97180   6.147   7.688   7.688  0.7364 -0.3828  0.1067
  720MOL0     H97181   6.308   7.855   7.608 -2.1167 -1.0787  0.3853
  720MOL0     H97182   6.946   7.931   7.563 -1.3411 -1.9998 -0.9153
  720MOL0     H97183   7.020   8.149   7.503 -0.5969  1.8369 -1.7602
  720MOL0     H97184   8.256   8.565   7.244 -2.2520 -1.7604  1.7128
  720MOL0     H97185   8.467   8.644   7.164  0.6141 -0.3949 -1.3171
  720MOL0     H97186   8.867   8.466   7.049 -0.3976 -0.1970 -0.0906
  720MOL0     H97187   9.088   8.441   6.971  0.5222  2.0023 -2.4968
  720MOL0     H97188   9.493   8.570   7.081 -1.0431 -0.9724 -0.6814
  720MOL0     H97189   9.404   8.686   7.183 -0.8458  2.9496  0.2046
  720MOL0     H97190   9.567   8.780   7.050 -0.5116 -2.9301  0.2224
  720MOL0     H97191   9.411   8.849   7.004 -1.2957 -0.2345 -1.9696
  720MOL0     H97192   9.420   8.701   6.798  0.4025 -2.6383 -0.4355
  720MOL0     H97193   9.582   8.646   6.839  2.0796  0.9538 -3.0407
  720MOL0     H97194   9.572   8.855   6.682 -1.8713  1.4711 -0.6650
  720MOL0     H97195   9.514   8.956   6.826  0.1907  0.4984  0.4127
  720MOL0     H97196   9.910   8.957   6.923 -0.4629  1.9645 -0.7858
  720MOL0     H97197   9.219   8.764   7.220  0.8863 -2.3109  1.2967
  720MOL0     H97198   8.922   8.914   7.289  1.3257 -0.8320 -3.1631
  720MOL0     H97199   8.921   8.785   7.415 -0.7801 -0.3946 -0.6757
  720MOL0     H97200   9.072   8.865   7.370 -1.3247  1.8799  1.5700
  721MOL0     O97201  11.178  10.669   7.648 -0.0180 -0.4219  0.6685
  721MOL0     C97202  11.225  10.761   7.581  0.9945  0.9585 -0.9898
  721MOL0     O97203  11.353  10.791   7.552  0.0556  0.4263 -0.1209
  721MOL0     C97204  11.438  10.699   7.599  0.7261  0.5235 -0.8427
  721MOL0     C97205  11.458  10.689   7.742  0.2722  0.4354  0.0065
  721MOL0     C97206  11.546  10.590   7.794 -0.1833 -0.8637 -0.7896
  721MOL0     C97207  11.622  10.512   7.711 -1.2593  0.5909 -0.1993
  721MOL0     O97208  11.720  10.427   7.766  0.1442  0.6006 -0.2349
  721MOL0     C97209  11.859  10.430   7.733 -0.4261  0.2558  0.4276
  721MOL0     C97210  11.936  10.336   7.822 -0.3404 -0.2635  0.5390
  721MOL0     C97211  12.091  10.361   7.809  1.4221  0.1091  0.6630
  721MOL0     C97212  12.164  10.272   7.906  0.1880  0.2189 -1.1862
  721MOL0     C97213  12.312  10.304   7.902  0.5768 -0.7712  0.3726
  721MOL0     C97214  12.376  10.289   7.767 -0.4408  0.6156 -0.1787
  721MOL0     C97215  12.375  10.163   7.684  0.0274 -0.9447 -1.3472
  721MOL0     C97216  12.458  10.037   7.741  0.3044 -0.4521  0.2598
  721MOL0     N97217  12.394   9.975   7.862 -0.0427  1.0419 -0.3433
  721MOL0     C97218  12.270   9.921   7.866  0.0059  0.2157 -0.4034
  721MOL0     C97219  12.249   9.885   7.996 -0.6417 -1.0959 -0.7817
  721MOL0     C97220  12.114   9.838   8.049 -0.4519  0.6646  0.0782
  721MOL0     C97221  12.096   9.860   8.201  0.6914 -0.2726 -0.5741
  721MOL0     C97222  12.071  10.007   8.245 -0.2643  0.0989 -0.5181
  721MOL0     C97223  11.959  10.080   8.177 -0.2131  0.4934 -1.5040
  721MOL0     O97224  11.835  10.028   8.218  0.0456  0.4172 -0.0265
  721MOL0     C97225  11.718  10.107   8.204 -1.2260  0.1465 -0.3090
  721MOL0     C97226  11.705  10.202   8.105 -1.3098 -0.8290 -0.2571
  721MOL0     C97227  11.585  10.273   8.093 -0.3881  0.7727 -0.6583
  721MOL0     C97228  11.483  10.265   8.193  0.0909 -1.2062 -0.2137
  721MOL0     C97229  11.354  10.346   8.191 -0.3570  0.5097 -0.5016
  721MOL0     O97230  11.320  10.421   8.085 -0.5923  0.4701  0.2823
  721MOL0     C97231  11.232  10.532   8.098 -0.3723 -0.2507 -0.0801
  721MOL0     C97232  11.196  10.600   8.219 -0.2945  0.4561 -0.2500
  721MOL0     C97233  11.112  10.700   8.224  0.4700 -0.0734  0.6362
  721MOL0     C97234  11.049  10.747   8.105  0.3087  0.6541  0.5548
  721MOL0     O97235  10.968  10.856   8.087  0.0044 -0.4245  0.3887
  721MOL0     C97236  10.865  10.882   8.184  1.1869 -0.5262 -0.9383
  721MOL0     C97237  10.913  10.993   8.276 -0.1962  0.2945 -0.1873
  721MOL0     C97238  10.810  11.034   8.393  0.0323  0.1133 -0.3765
  721MOL0     C97239  10.796  10.938   8.509  1.0611 -0.7140  0.0820
  721MOL0     C97240  10.734  10.993   8.631  0.2166  0.3152 -0.7863
  721MOL0     C97241  10.590  11.033   8.613 -0.3506 -0.8009 -1.1076
  721MOL0     C97242  10.523  11.024   8.755  0.6808  0.4387 -0.1306
  721MOL0     C97243  10.377  11.027   8.751 -0.0836 -0.8705  0.5979
  721MOL0    Cl97244  10.317  11.177   8.675  0.2935  0.1583 -0.3636
  721MOL0     C97245  11.089  10.684   7.984  0.8037  0.5851  0.5582
  721MOL0     C97246  11.186  10.579   7.984 -1.0373 -0.3044  0.5274
  721MOL0     O97247  11.280  10.319   8.291  0.8631  0.5399  0.0099
  721MOL0     C97248  11.513  10.175   8.301  0.8086  0.0025  0.4724
  721MOL0     C97249  11.627  10.099   8.303 -0.1117 -0.1069  0.6045
  721MOL0     N97250  12.366   9.913   8.070 -0.7301  0.5896  0.3462
  721MOL0     N97251  12.444   9.980   7.986 -0.1755  1.2031 -0.5286
  721MOL0     C97252  11.597  10.512   7.569  0.1473 -0.1126 -0.1099
  721MOL0     C97253  11.496  10.597   7.517 -0.7023 -0.1418 -0.5470
  721MOL0     C97254  11.131  10.853   7.540  0.0292  0.5339  0.5863
  721MOL0     C97255  11.161  10.988   7.522 -0.8959  0.4392  0.5001
  721MOL0     C97256  11.083  11.085   7.485 -0.0804  1.3759 -0.0639
  721MOL0     C97257  10.962  11.050   7.438  0.2374 -0.3522  0.0511
  721MOL0     O97258  10.885  11.151   7.398 -0.3984 -1.2721 -0.4664
  721MOL0     C97259  10.756  11.130   7.337  0.2646  0.0793 -0.2282
  721MOL0     C97260  10.638  11.105   7.432 -0.5965  0.8416  0.1442
  721MOL0     C97261  10.579  11.221   7.514  0.1001  0.5463 -0.1910
  721MOL0     C97262  10.672  11.313   7.575 -0.3704 -0.1304 -0.8073
  721MOL0     C97263  10.607  11.396   7.670  1.2956 -0.2911 -0.9173
  721MOL0     C97264  10.535  11.452   7.751  0.0222 -0.1618  0.4971
  721MOL0     C97265  10.925  10.922   7.437 -0.5611  0.0011 -1.2168
  721MOL0     C97266  11.000  10.821   7.488 -0.3040  0.7409 -0.1011
  721MOL0     C97267  10.939  10.688   7.492  0.0042  0.6950 -0.5944
  721MOL0     H97268  11.403  10.760   7.803  0.8435  1.2018 -0.3529
  721MOL0     H97269  11.551  10.586   7.903 -1.9263 -5.5695 -0.6451
  721MOL0     H97270  11.870  10.411   7.626 -1.3244 -1.1315  0.5522
  721MOL0     H97271  11.893  10.534   7.737 -3.6818  1.4796 -0.5761
  721MOL0     H97272  11.912  10.233   7.794 -0.4880 -0.5160  1.5376
  721MOL0     H97273  11.912  10.342   7.929  1.0114  1.0149  0.7967
  721MOL0     H97274  12.097  10.469   7.825  0.8782  0.7671 -2.8535
  721MOL0     H97275  12.127  10.338   7.709 -0.7721 -0.7532  0.0081
  721MOL0     H97276  12.138  10.303   8.007  2.9512  0.4195 -0.4581
  721MOL0     H97277  12.129  10.169   7.893 -1.7314  0.2242  2.6340
  721MOL0     H97278  12.326  10.405   7.941  2.7512 -1.3908  1.3617
  721MOL0     H97279  12.363  10.245   7.978 -2.3884 -1.3731  2.0608
  721MOL0     H97280  12.336  10.371   7.706  0.1469 -0.7249 -2.4832
  721MOL0     H97281  12.485  10.302   7.775 -0.5248  0.2432  2.2190
  721MOL0     H97282  12.410  10.193   7.585  0.4167  0.5940 -0.7646
  721MOL0     H97283  12.275  10.132   7.653  0.0316 -0.9306 -1.3759
  721MOL0     H97284  12.469   9.951   7.673  3.2143  0.0787 -0.0276
  721MOL0     H97285  12.559  10.072   7.758  0.8333 -1.1284 -1.2802
  721MOL0     H97286  12.203   9.924   7.780 -3.5096 -0.1045  2.1261
  721MOL0     H97287  12.042   9.898   7.993  1.3962  2.7257 -0.2474
  721MOL0     H97288  12.099   9.734   8.020 -0.2668  0.3157  1.2030
  721MOL0     H97289  12.012   9.798   8.233  0.2890 -0.9083 -2.6875
  721MOL0     H97290  12.190   9.832   8.249  0.1237 -1.5352 -0.1419
  721MOL0     H97291  12.167  10.059   8.243  2.1152 -3.8064  0.4724
  721MOL0     H97292  12.054  10.007   8.353  2.8821 -1.6110  0.1072
  721MOL0     H97293  11.976  10.078   8.069  1.9842  1.3016 -1.2255
  721MOL0     H97294  11.978  10.183   8.208  2.5398 -0.2118 -0.4599
  721MOL0     H97295  11.776  10.228   8.026 -1.4540  1.2561  0.2384
  721MOL0     H97296  11.584  10.336   8.004  0.6427 -0.6644 -1.7400
  721MOL0     H97297  11.233  10.565   8.314 -1.6549 -0.8727 -0.1765
  721MOL0     H97298  11.082  10.759   8.310 -2.2638  5.4852 -3.4770
  721MOL0     H97299  10.766  10.909   8.145 -0.5523 -2.4332  1.7675
  721MOL0     H97300  10.843  10.794   8.245  1.6219  1.6008  2.5741
  721MOL0     H97301  11.008  10.961   8.318  0.3915  0.5032 -1.3323
  721MOL0     H97302  10.939  11.079   8.214  2.5654 -0.4139 -0.1100
  721MOL0     H97303  10.839  11.130   8.436  0.2367 -1.2604  2.8297
  721MOL0     H97304  10.716  11.054   8.341  1.3226  2.3695 -2.0113
  721MOL0     H97305  10.898  10.902   8.525  2.3185  1.9233 -1.4207
  721MOL0     H97306  10.722  10.864   8.475 -3.4694  2.8356  1.1468
  721MOL0     H97307  10.792  11.079   8.665  2.4991 -1.3780 -0.1524
  721MOL0     H97308  10.748  10.911   8.702  1.2523 -0.0092 -1.3550
  721MOL0     H97309  10.596  11.132   8.568 -0.3439  0.5226  1.6335
  721MOL0     H97310  10.541  10.968   8.539 -1.5652  2.2327 -3.1472
  721MOL0     H97311  10.558  11.105   8.819  0.9802 -0.9720  1.5540
  721MOL0     H97312  10.565  10.940   8.811 -1.9291  0.6984  2.3965
  721MOL0     H97313  10.337  10.944   8.692 -1.7767  0.3230 -0.0245
  721MOL0     H97314  10.330  11.025   8.850  0.0058  3.2661  0.9199
  721MOL0     H97315  11.062  10.721   7.886 -1.5970 -1.9339  0.1465
  721MOL0     H97316  11.225  10.542   7.890  2.5038 -2.8032  2.7124
  721MOL0     H97317  11.440  10.166   8.381 -1.2306  2.4770 -0.9562
  721MOL0     H97318  11.663  10.035   8.383  4.0387  2.9946  1.4885
  721MOL0     H97319  11.637  10.433   7.506 -0.8408 -1.1418  0.5160
  721MOL0     H97320  11.468  10.589   7.412 -0.4099  1.1731 -0.7421
  721MOL0     H97321  11.257  11.006   7.568 -0.6427  0.0213  0.1437
  721MOL0     H97322  11.116  11.188   7.491 -3.8543  2.6654  1.7836
  721MOL0     H97323  10.751  11.043   7.271  0.5083 -0.3117  0.2562
  721MOL0     H97324  10.724  11.215   7.276  2.9811  0.7961 -0.8048
  721MOL0     H97325  10.669  11.025   7.500  0.8110 -2.0771 -3.5453
  721MOL0     H97326  10.555  11.061   7.376  0.8966 -3.9257  1.1982
  721MOL0     H97327  10.528  11.170   7.596  1.0292  0.3728  0.2931
  721MOL0     H97328  10.496  11.270   7.462 -1.7964 -1.8155  0.4854
  721MOL0     H97329  10.747  11.250   7.626 -2.0534 -0.7874  0.9874
  721MOL0     H97330  10.723  11.376   7.501  1.6357  1.3215  1.6408
  721MOL0     H97331  10.477  11.499   7.827 -1.4566 -2.0727  0.6238
  721MOL0     H97332  10.837  10.876   7.392  0.4417 -1.6400 -1.5726
  721MOL0     H97333  10.864  10.674   7.414 -2.5989 -1.0183  1.9972
  721MOL0     H97334  11.010  10.606   7.478  0.9570  1.3274  0.3684
  721MOL0     H97335  10.877  10.674   7.581 -2.2399 -0.9906 -2.3083
  722MOL0     O97336   3.733   2.393   6.113  0.9522 -0.5017  0.0904
  722MOL0     C97337   3.797   2.427   6.215 -0.9819  0.2514 -1.1274
  722MOL0     O97338   3.741   2.494   6.321 -0.2770  0.6687 -0.4082
  722MOL0     C97339   3.608   2.549   6.312 -1.1510  0.9783 -0.5314
  722MOL0     C97340   3.589   2.681   6.328 -0.0517 -0.0918 -0.4021
  722MOL0     C97341   3.462   2.740   6.328 -0.3329 -0.6196 -0.0566
  722MOL0     C97342   3.348   2.667   6.302  0.5017  0.0295  0.4066
  722MOL0     O97343   3.231   2.738   6.294  0.2355  0.6463 -0.3097
  722MOL0     C97344   3.126   2.709   6.207  0.4611 -0.2061 -0.4258
  722MOL0     C97345   2.996   2.752   6.270 -0.7322  0.6168 -0.6158
  722MOL0     C97346   2.932   2.657   6.370  0.7831  0.0757  0.4308
  722MOL0     C97347   2.789   2.693   6.411 -0.4527 -0.7913  0.4525
  722MOL0     C97348   2.747   2.599   6.529 -0.1961  0.1643  0.5937
  722MOL0     C97349   2.614   2.638   6.597 -0.3199 -0.3541 -0.1761
  722MOL0     C97350   2.574   2.541   6.715 -0.0981  0.8408  0.5220
  722MOL0     C97351   2.667   2.549   6.844 -0.2252  0.0919  0.0267
  722MOL0     N97352   2.623   2.468   6.961 -0.4716  1.3060 -0.1053
  722MOL0     C97353   2.676   2.347   6.991 -0.1185  0.2790 -1.1690
  722MOL0     C97354   2.585   2.297   7.078 -0.4886  0.1519  0.4328
  722MOL0     C97355   2.603   2.164   7.155 -1.0748 -0.3225 -0.2702
  722MOL0     C97356   2.625   2.194   7.310  0.3904  0.4014  0.2257
  722MOL0     C97357   2.503   2.241   7.380 -0.2575  0.0076 -0.4419
  722MOL0     C97358   2.465   2.157   7.507  0.2220  0.4013  0.8066
  722MOL0     O97359   2.343   2.212   7.558  0.8407 -1.2962 -0.1555
  722MOL0     C97360   2.351   2.342   7.602  0.0830 -0.5289  0.0581
  722MOL0     C97361   2.228   2.411   7.610  0.4400  0.5916  0.4570
  722MOL0     C97362   2.223   2.543   7.633  0.1647  0.6363  0.0252
  722MOL0     C97363   2.334   2.611   7.677  0.5821 -0.1292 -0.5814
  722MOL0     C97364   2.339   2.754   7.697  0.7222 -1.0969 -0.1365
  722MOL0     O97365   2.219   2.815   7.670  0.5523 -0.0345  0.0300
  722MOL0     C97366   2.205   2.954   7.658  0.2149 -0.1861  0.5114
  722MOL0     C97367   2.231   3.048   7.756  0.9484  0.4814  0.2389
  722MOL0     C97368   2.224   3.187   7.736 -0.4625 -0.8870 -0.1210
  722MOL0     C97369   2.200   3.228   7.608 -0.9564  0.4790  0.0531
  722MOL0     O97370   2.216   3.361   7.574 -0.6409  0.0601 -0.4932
  722MOL0     C97371   2.337   3.435   7.612  0.4379  0.4449 -0.3565
  722MOL0     C97372   2.328   3.575   7.538 -0.6419 -0.1518 -0.1613
  722MOL0     C97373   2.207   3.665   7.573 -0.5347 -0.2782 -0.6297
  722MOL0     C97374   2.215   3.736   7.712  0.2160 -0.2184  0.2083
  722MOL0     C97375   2.096   3.827   7.732  0.7029  0.6493  0.8541
  722MOL0     C97376   2.101   3.906   7.870 -0.7754  1.7245  1.4154
  722MOL0     C97377   2.009   4.030   7.857  0.8208  0.2910  0.4599
  722MOL0     C97378   2.043   4.117   7.975  0.1723 -0.1015 -0.7581
  722MOL0    Cl97379   1.919   4.237   7.984  0.3512  0.1650  0.4765
  722MOL0     C97380   2.148   3.141   7.511 -0.4154 -0.1048 -0.0829
  722MOL0     C97381   2.152   3.005   7.539 -0.5545 -0.4381 -0.3006
  722MOL0     O97382   2.446   2.813   7.731  0.3497  0.1674 -0.3017
  722MOL0     C97383   2.456   2.539   7.693 -0.0384 -0.5389  0.4116
  722MOL0     C97384   2.469   2.406   7.652  0.5392 -0.0342 -0.0309
  722MOL0     N97385   2.479   2.389   7.090  0.3799  0.1461 -0.5058
  722MOL0     N97386   2.497   2.489   7.009 -0.4316 -0.1951 -0.1610
  722MOL0     C97387   3.360   2.524   6.277  0.5759 -0.5464  0.1125
  722MOL0     C97388   3.488   2.465   6.294 -0.2889 -0.1098  0.4134
  722MOL0     C97389   3.935   2.370   6.240  0.4010 -0.6391  0.7748
  722MOL0     C97390   3.956   2.329   6.377 -0.3698  0.0641  0.7489
  722MOL0     C97391   4.071   2.259   6.406  0.2272 -0.4412  0.8980
  722MOL0     C97392   4.169   2.228   6.307 -0.0872  0.0012  1.1001
  722MOL0     O97393   4.290   2.183   6.345  0.9782 -0.5541  0.0763
  722MOL0     C97394   4.398   2.167   6.253 -0.5685 -0.7721  0.4578
  722MOL0     C97395   4.509   2.109   6.324  0.1389  0.1366 -0.5292
  722MOL0     C97396   4.566   2.206   6.431 -0.6823 -0.6601  0.9057
  722MOL0     C97397   4.561   2.146   6.568  0.0540 -0.2149 -0.2532
  722MOL0     C97398   4.624   2.011   6.578 -0.1945 -0.2737  0.2687
  722MOL0     C97399   4.687   1.908   6.585  0.1658 -0.1482  0.5160
  722MOL0     C97400   4.146   2.280   6.176  0.6075  0.6952 -0.2940
  722MOL0     C97401   4.031   2.349   6.142 -0.2695 -0.4549  0.3908
  722MOL0     C97402   4.019   2.401   6.002 -0.6274 -0.7591 -1.0368
  722MOL0     H97403   3.673   2.750   6.337  0.9417 -1.2559 -0.4609
  722MOL0     H97404   3.448   2.845   6.350  0.3257 -0.2729 -1.2237
  722MOL0     H97405   3.150   2.760   6.113  0.0887 -0.7043 -0.7984
  722MOL0     H97406   3.110   2.601   6.194  0.7396 -0.5210  1.5214
  722MOL0     H97407   2.923   2.785   6.196 -1.1652  2.2053  0.4682
  722MOL0     H97408   3.008   2.838   6.337 -1.9758 -0.3683  0.9541
  722MOL0     H97409   3.005   2.643   6.451  0.5510 -0.8783  0.4918
  722MOL0     H97410   2.919   2.558   6.326  0.5295  1.2093 -2.2110
  722MOL0     H97411   2.774   2.796   6.444 -1.0437 -0.0056 -1.9816
  722MOL0     H97412   2.722   2.679   6.325 -0.0178  1.3306 -0.2978
  722MOL0     H97413   2.746   2.495   6.495  3.1880  0.1276  0.2252
  722MOL0     H97414   2.825   2.608   6.604  0.7701  2.7798 -0.5796
  722MOL0     H97415   2.620   2.737   6.644 -3.8175  0.3921 -1.0007
  722MOL0     H97416   2.543   2.647   6.514 -2.4857 -4.7728  0.8882
  722MOL0     H97417   2.557   2.439   6.678  0.0698 -0.2740  3.3388
  722MOL0     H97418   2.474   2.566   6.749 -1.9178 -0.3441 -3.3571
  722MOL0     H97419   2.774   2.541   6.826 -0.0080  1.6635  0.5194
  722MOL0     H97420   2.666   2.653   6.875 -0.7455  1.3765 -3.7701
  722MOL0     H97421   2.773   2.306   6.966  1.0895  2.7115 -0.7976
  722MOL0     H97422   2.526   2.087   7.144  1.8878 -3.7821  0.9709
  722MOL0     H97423   2.693   2.110   7.125  0.1662  1.3463  0.2928
  722MOL0     H97424   2.657   2.101   7.357 -0.3305 -0.7469 -1.4836
  722MOL0     H97425   2.712   2.258   7.328  1.8769 -1.7662  1.1997
  722MOL0     H97426   2.419   2.239   7.310 -0.7343 -0.6014  0.1301
  722MOL0     H97427   2.530   2.343   7.409  1.1577 -0.3262 -0.5018
  722MOL0     H97428   2.544   2.159   7.582  3.3878  0.0942 -2.2404
  722MOL0     H97429   2.438   2.057   7.473 -3.1591  2.5483 -4.2157
  722MOL0     H97430   2.137   2.373   7.564 -1.3328  5.1527 -0.3573
  722MOL0     H97431   2.137   2.601   7.602 -0.1850  1.5435  2.5009
  722MOL0     H97432   2.267   3.013   7.852  1.8267 -1.1415 -0.6290
  722MOL0     H97433   2.245   3.259   7.814 -2.0691  0.2927 -0.7352
  722MOL0     H97434   2.332   3.458   7.719  2.4405 -2.0559  0.3597
  722MOL0     H97435   2.432   3.385   7.592  0.9328  2.7768 -5.1944
  722MOL0     H97436   2.424   3.625   7.558  1.6030 -3.2431 -2.1768
  722MOL0     H97437   2.322   3.558   7.430 -2.5760  3.6401 -0.8469
  722MOL0     H97438   2.207   3.739   7.493  4.0075 -2.1242 -2.7094
  722MOL0     H97439   2.121   3.601   7.555 -0.3806 -1.6235  2.7666
  722MOL0     H97440   2.306   3.796   7.721  2.6864 -3.4926 -1.1949
  722MOL0     H97441   2.214   3.663   7.793  2.9436 -2.0232 -1.2371
  722MOL0     H97442   1.999   3.776   7.734  0.0608  1.5519 -2.2823
  722MOL0     H97443   2.091   3.888   7.642 -0.5048 -0.0175  0.4298
  722MOL0     H97444   2.070   3.835   7.947 -0.3280 -1.7444 -1.3420
  722MOL0     H97445   2.207   3.918   7.896 -0.1255 -1.5416  0.7785
  722MOL0     H97446   1.905   3.998   7.853  0.9612 -0.1437  0.1935
  722MOL0     H97447   2.033   4.090   7.769 -0.8566 -0.7965 -0.7825
  722MOL0     H97448   2.033   4.061   8.069 -1.2258  2.6415  0.8515
  722MOL0     H97449   2.145   4.156   7.967  1.9043 -4.0553 -0.3003
  722MOL0     H97450   2.145   3.168   7.406 -0.5808 -1.2929 -0.4093
  722MOL0     H97451   2.111   2.938   7.464 -1.1107  1.5392 -1.8742
  722MOL0     H97452   2.539   2.586   7.743  0.5067 -2.7306  1.7110
  722MOL0     H97453   2.560   2.350   7.672  0.9993  1.1844  1.5437
  722MOL0     H97454   3.277   2.472   6.230  1.5133 -0.7422 -1.3769
  722MOL0     H97455   3.502   2.361   6.266 -0.1952  0.0803 -0.2742
  722MOL0     H97456   3.888   2.346   6.461  0.6448 -2.0132  2.0825
  722MOL0     H97457   4.087   2.225   6.508  0.1146 -2.6006  0.2390
  722MOL0     H97458   4.432   2.257   6.201 -1.3784  1.7560  3.9094
  722MOL0     H97459   4.370   2.107   6.165  4.2231  2.4850 -3.8389
  722MOL0     H97460   4.584   2.066   6.257  0.6868  1.2285 -0.6398
  722MOL0     H97461   4.473   2.018   6.373 -0.3808  2.2174  3.3339
  722MOL0     H97462   4.527   2.308   6.430  0.8814  0.3055 -5.1678
  722MOL0     H97463   4.669   2.227   6.402 -0.5169 -0.6754  1.4736
  722MOL0     H97464   4.604   2.220   6.637  1.2373 -0.4136 -0.7562
  722MOL0     H97465   4.460   2.144   6.610  1.3132  1.2291  3.2653
  722MOL0     H97466   4.752   1.823   6.582  1.0692  0.5487 -1.5776
  722MOL0     H97467   4.222   2.273   6.098 -0.0326 -0.8095 -0.8340
  722MOL0     H97468   3.945   2.342   5.946  1.4784 -3.0456 -1.5809
  722MOL0     H97469   3.988   2.506   6.003 -1.4499 -0.8576  2.9228
  722MOL0     H97470   4.117   2.391   5.955  0.3812  0.4850  0.7043
  723MOL0     O97471   9.860   9.249   4.248  1.3980 -1.0508  1.4747
  723MOL0     C97472   9.761   9.201   4.196 -0.6441  0.4567  0.1787
  723MOL0     O97473   9.634   9.214   4.236  0.2026 -1.5166 -0.1091
  723MOL0     C97474   9.610   9.316   4.326  0.0710  1.0462  0.9264
  723MOL0     C97475   9.581   9.448   4.283  0.5753  0.6414  0.0170
  723MOL0     C97476   9.536   9.542   4.370  0.2611 -0.2958  0.2561
  723MOL0     C97477   9.516   9.507   4.509  0.3614 -0.8709  0.5710
  723MOL0     O97478   9.461   9.594   4.600  0.2187  0.4851  0.7870
  723MOL0     C97479   9.378   9.703   4.563 -0.4778  0.0422 -0.0618
  723MOL0     C97480   9.262   9.735   4.656 -0.2582 -0.0657 -0.5866
  723MOL0     C97481   9.205   9.876   4.635 -0.0230  0.8342  0.4756
  723MOL0     C97482   9.088   9.904   4.729 -0.3302  0.1562  0.2573
  723MOL0     C97483   9.001  10.013   4.672  0.8846  0.5119 -0.1222
  723MOL0     C97484   8.891  10.064   4.771 -0.8452  0.0538  0.4456
  723MOL0     C97485   8.785  10.141   4.696 -0.1632 -0.2657 -0.4475
  723MOL0     C97486   8.679  10.201   4.789 -0.5865 -0.0993 -0.3908
  723MOL0     N97487   8.581  10.291   4.723 -0.5466  0.5196 -0.0244
  723MOL0     C97488   8.511  10.269   4.609 -0.2583 -0.3047  0.4392
  723MOL0     C97489   8.474  10.393   4.564  0.1272  0.6573 -0.1313
  723MOL0     C97490   8.391  10.423   4.436  0.3952  0.5457  0.1704
  723MOL0     C97491   8.256  10.327   4.446  0.0424 -0.1981 -0.1744
  723MOL0     C97492   8.161  10.335   4.331 -0.4130 -0.5332  0.1019
  723MOL0     C97493   8.091  10.472   4.324 -0.2238  0.4585  0.4424
  723MOL0     O97494   8.030  10.480   4.191  0.5985  0.0164 -0.1913
  723MOL0     C97495   7.904  10.542   4.183 -0.7667 -0.5994  0.5113
  723MOL0     C97496   7.846  10.620   4.279  0.8191 -0.2602 -0.5709
  723MOL0     C97497   7.722  10.686   4.258 -0.8529  0.1792  0.1589
  723MOL0     C97498   7.646  10.672   4.144  0.4180 -0.5816 -0.0643
  723MOL0     C97499   7.516  10.744   4.120  0.0947  0.1115  0.7812
  723MOL0     O97500   7.469  10.827   4.228 -0.1266  0.3929 -0.4807
  723MOL0     C97501   7.341  10.870   4.230  0.0077  0.1205  0.5755
  723MOL0     C97502   7.228  10.788   4.211  0.3616 -0.4363  0.2821
  723MOL0     C97503   7.098  10.828   4.239  0.0811  0.1503 -0.2549
  723MOL0     C97504   7.069  10.954   4.284 -0.7593 -0.4741 -0.0492
  723MOL0     O97505   6.944  10.991   4.299 -0.3265  0.3440  0.6642
  723MOL0     C97506   6.911  11.118   4.368  0.1754 -0.2059  1.0631
  723MOL0     C97507   6.867  11.219   4.273 -0.3772 -0.6755 -0.2535
  723MOL0     C97508   6.720  11.219   4.241 -0.0157  1.2285 -1.2313
  723MOL0     C97509   6.684  11.340   4.152  0.0771 -0.5408 -0.0289
  723MOL0     C97510   6.528  11.351   4.140 -0.1302 -0.1790  0.1535
  723MOL0     C97511   6.478  11.238   4.054 -0.5002 -0.1302  0.4799
  723MOL0     C97512   6.325  11.232   4.044 -1.2814  0.0366  0.7158
  723MOL0     C97513   6.252  11.357   3.999 -0.0452  0.2009  0.0114
  723MOL0    Cl97514   6.103  11.316   3.914  0.7706 -0.2289 -0.2587
  723MOL0     C97515   7.182  11.037   4.301 -0.3888  0.5767  0.2413
  723MOL0     C97516   7.311  10.992   4.281 -0.5257 -1.1996 -0.2799
  723MOL0     O97517   7.445  10.713   4.019  0.3755 -0.0577 -0.3497
  723MOL0     C97518   7.709  10.593   4.044  0.4755  0.3469 -1.0321
  723MOL0     C97519   7.837  10.532   4.061  0.1870  0.2045 -0.2291
  723MOL0     N97520   8.515  10.480   4.660 -0.8850 -0.5095 -0.6756
  723MOL0     N97521   8.578  10.418   4.755  0.5144 -0.1631  0.5167
  723MOL0     C97522   9.548   9.378   4.548 -0.5061  0.1773  0.0942
  723MOL0     C97523   9.586   9.278   4.459 -0.7071 -0.5069  0.0139
  723MOL0     C97524   9.777   9.106   4.080 -0.9119  0.2590 -0.0403
  723MOL0     C97525   9.659   9.072   4.004 -0.6948 -0.5089  0.5584
  723MOL0     C97526   9.669   8.970   3.904  0.4061  0.5208 -1.0260
  723MOL0     C97527   9.789   8.909   3.878 -0.0507  0.5176  0.2605
  723MOL0     O97528   9.813   8.811   3.779 -0.0347 -0.3579 -0.4042
  723MOL0     C97529   9.695   8.789   3.697  0.6959 -0.0446  0.6338
  723MOL0     C97530   9.729   8.675   3.599 -0.6119 -0.4850 -0.4200
  723MOL0     C97531   9.592   8.628   3.541  0.0353 -0.4879 -0.1825
  723MOL0     C97532   9.600   8.502   3.448  0.0127  0.6819 -0.3645
  723MOL0     C97533   9.606   8.384   3.530 -0.7945  0.1483  0.2703
  723MOL0     C97534   9.624   8.278   3.593  1.6803 -0.8377  0.1768
  723MOL0     C97535   9.899   8.932   3.960  0.4664  0.5117  0.0752
  723MOL0     C97536   9.900   9.032   4.061  0.3889 -1.0040 -0.9025
  723MOL0     C97537  10.022   9.045   4.138 -1.0682 -0.6443 -0.0932
  723MOL0     H97538   9.584   9.466   4.176  0.4795 -0.4419 -0.1856
  723MOL0     H97539   9.513   9.643   4.339 -0.6149 -0.7188 -0.5606
  723MOL0     H97540   9.440   9.793   4.558 -1.2591  0.7706  2.2455
  723MOL0     H97541   9.346   9.689   4.459  2.3280 -0.7118 -0.9144
  723MOL0     H97542   9.299   9.744   4.758 -1.7821 -0.9805  0.0716
  723MOL0     H97543   9.187   9.657   4.640  2.1845 -2.0886 -3.2507
  723MOL0     H97544   9.174   9.880   4.531 -0.8161 -3.5240  0.3599
  723MOL0     H97545   9.288   9.947   4.649  0.4859  0.4641 -0.5767
  723MOL0     H97546   9.027   9.813   4.728  1.1275 -0.8599  0.6551
  723MOL0     H97547   9.121   9.930   4.830 -0.6317  1.4760  0.0305
  723MOL0     H97548   9.057  10.100   4.636 -0.5246  0.6467 -2.1702
  723MOL0     H97549   8.951   9.976   4.582 -0.5150 -0.9177  1.1887
  723MOL0     H97550   8.851   9.975   4.820 -0.4443  0.6323  1.8656
  723MOL0     H97551   8.939  10.137   4.836  2.1352  0.6624 -2.1647
  723MOL0     H97552   8.731  10.081   4.623 -2.5174  1.5726 -0.3180
  723MOL0     H97553   8.832  10.230   4.653  2.3122  1.4887  4.9294
  723MOL0     H97554   8.618  10.124   4.836 -0.5194  0.9739  1.5424
  723MOL0     H97555   8.723  10.260   4.870  0.8810 -0.7340 -0.6896
  723MOL0     H97556   8.482  10.172   4.569 -0.8548  0.4852 -1.1147
  723MOL0     H97557   8.372  10.529   4.416  1.5203  0.9247  0.9973
  723MOL0     H97558   8.464  10.397   4.359  0.6607 -3.4304  1.5562
  723MOL0     H97559   8.295  10.226   4.451  0.4868 -0.2849 -3.2201
  723MOL0     H97560   8.207  10.352   4.540 -2.3466  0.7823 -1.5597
  723MOL0     H97561   8.092  10.259   4.369  2.3650 -1.8004  3.0968
  723MOL0     H97562   8.208  10.309   4.236  1.9015 -1.0694  1.3006
  723MOL0     H97563   8.147  10.561   4.351  0.9227  0.1558 -0.8134
  723MOL0     H97564   8.008  10.461   4.394 -2.0498 -1.8124 -1.8353
  723MOL0     H97565   7.897  10.649   4.370 -0.0570  1.5253 -0.6032
  723MOL0     H97566   7.679  10.760   4.324  0.9833  0.8036  0.7065
  723MOL0     H97567   7.243  10.685   4.179 -0.6328 -0.5027 -0.0004
  723MOL0     H97568   7.015  10.759   4.223  0.9646 -0.8426 -0.7387
  723MOL0     H97569   6.830  11.107   4.441 -1.3305 -1.0243 -0.6271
  723MOL0     H97570   6.997  11.159   4.422  2.8404 -1.6138 -1.7859
  723MOL0     H97571   6.894  11.314   4.322  0.1319 -1.2906  0.6824
  723MOL0     H97572   6.906  11.209   4.171 -2.6298 -1.3373 -1.1053
  723MOL0     H97573   6.699  11.123   4.192  0.0504  0.1274  0.7793
  723MOL0     H97574   6.659  11.215   4.331 -0.2730  0.6318 -1.4243
  723MOL0     H97575   6.745  11.344   4.061 -1.7600  4.9849 -1.3901
  723MOL0     H97576   6.711  11.434   4.200 -0.3279 -0.2735 -0.3201
  723MOL0     H97577   6.504  11.445   4.090 -0.3459 -1.5116 -2.4451
  723MOL0     H97578   6.477  11.336   4.236 -1.4662 -0.0995 -0.5109
  723MOL0     H97579   6.522  11.255   3.956  0.6686  5.0879  1.6020
  723MOL0     H97580   6.515  11.146   4.101  3.1069  2.7862  4.0782
  723MOL0     H97581   6.295  11.196   4.143 -0.6409  2.1513  1.7255
  723MOL0     H97582   6.287  11.158   3.974 -1.9894 -0.0097  1.1400
  723MOL0     H97583   6.240  11.427   4.083  1.3858 -0.9331  1.2248
  723MOL0     H97584   6.310  11.407   3.921 -1.9314  0.8387 -1.0653
  723MOL0     H97585   7.174  11.140   4.334  1.7665  0.1612  2.3287
  723MOL0     H97586   7.395  11.056   4.304  0.1905 -2.8521  2.0300
  723MOL0     H97587   7.648  10.584   3.955 -1.0980  3.2054 -0.3840
  723MOL0     H97588   7.889  10.479   3.981 -0.4406 -3.2240  1.4342
  723MOL0     H97589   9.537   9.353   4.653 -0.5610 -0.1256  0.0183
  723MOL0     H97590   9.612   9.175   4.483  1.9130  0.5048  1.8830
  723MOL0     H97591   9.567   9.129   4.011 -1.2669 -1.1193 -1.3912
  723MOL0     H97592   9.578   8.944   3.851  0.3899  2.1346 -1.8322
  723MOL0     H97593   9.674   8.878   3.637 -1.2135 -1.1389 -0.4300
  723MOL0     H97594   9.608   8.764   3.758  1.2703 -0.4213  1.3164
  723MOL0     H97595   9.773   8.596   3.661  1.6466  0.2963 -0.9586
  723MOL0     H97596   9.801   8.709   3.525  1.1159  0.2955  1.5363
  723MOL0     H97597   9.551   8.713   3.484 -0.1425 -0.9414 -0.7320
  723MOL0     H97598   9.514   8.620   3.618 -0.4714 -0.1219 -0.6499
  723MOL0     H97599   9.517   8.510   3.377  0.3196 -1.8493 -1.1003
  723MOL0     H97600   9.689   8.500   3.384 -0.5296 -0.4838 -1.1274
  723MOL0     H97601   9.612   8.187   3.649  2.5035 -1.1585 -0.1388
  723MOL0     H97602   9.986   8.875   3.930  1.2067  1.6272  0.0416
  723MOL0     H97603  10.056   9.148   4.153  4.7228 -2.5243  2.2357
  723MOL0     H97604  10.010   8.993   4.233  1.6376  1.5674  1.6259
  723MOL0     H97605  10.114   9.001   4.099 -1.5348 -0.3515 -1.6280
  724MOL0     O97606   7.728   4.409   3.534  0.3992 -0.3605  0.1119
  724MOL0     C97607   7.635   4.428   3.614  0.1624 -0.0954 -0.6006
  724MOL0     O97608   7.632   4.388   3.744 -0.1001  0.5443  0.4859
  724MOL0     C97609   7.740   4.305   3.787  0.1560  0.9741  0.0166
  724MOL0     C97610   7.698   4.181   3.835 -0.4389 -0.2443 -0.2119
  724MOL0     C97611   7.784   4.088   3.905 -0.2131  0.1873 -0.6748
  724MOL0     C97612   7.913   4.130   3.940 -0.6505 -0.7298  0.5556
  724MOL0     O97613   8.016   4.059   3.980 -0.0350 -0.3313 -0.2077
  724MOL0     C97614   7.986   3.941   4.057 -0.2732 -0.3749  0.5793
  724MOL0     C97615   8.119   3.881   4.114 -0.2049  0.0421  0.1943
  724MOL0     C97616   8.217   3.804   4.024  0.3220  0.5471 -0.8083
  724MOL0     C97617   8.273   3.895   3.920 -0.3974 -1.6106 -0.2204
  724MOL0     C97618   8.383   3.839   3.841 -1.4508 -0.3218 -0.0800
  724MOL0     C97619   8.462   3.948   3.763 -0.5215 -0.3619 -0.1534
  724MOL0     C97620   8.380   4.051   3.680  0.4776 -1.9691  0.1615
  724MOL0     C97621   8.317   3.985   3.557 -0.4169 -0.2394 -0.0321
  724MOL0     N97622   8.413   3.938   3.453 -0.0155 -0.0110 -0.3918
  724MOL0     C97623   8.426   4.010   3.339  0.1125 -0.2631  0.0488
  724MOL0     C97624   8.490   3.937   3.250  0.0306 -0.0012  0.0469
  724MOL0     C97625   8.504   3.959   3.095 -0.4719 -0.1687 -0.8171
  724MOL0     C97626   8.368   3.994   3.035 -0.2432  0.6073 -0.7511
  724MOL0     C97627   8.380   4.002   2.885  0.0719  0.4332 -0.0243
  724MOL0     C97628   8.411   4.136   2.832  0.2015 -0.9531 -0.0752
  724MOL0     O97629   8.341   4.248   2.892 -0.4895 -0.4073  0.5847
  724MOL0     C97630   8.204   4.243   2.911 -0.6775  0.9680 -0.1427
  724MOL0     C97631   8.120   4.200   2.807 -0.6401 -0.1640 -0.5035
  724MOL0     C97632   7.980   4.188   2.831  0.0893 -0.1375 -1.5315
  724MOL0     C97633   7.915   4.252   2.937 -0.3141 -0.5978 -0.2384
  724MOL0     C97634   7.762   4.245   2.956 -0.5192  0.2401  0.6592
  724MOL0     O97635   7.705   4.356   2.995 -0.2273  0.3429  0.5851
  724MOL0     C97636   7.571   4.366   3.027  0.3311 -1.0545  0.6085
  724MOL0     C97637   7.543   4.405   3.155 -0.3575  1.2140 -0.1168
  724MOL0     C97638   7.413   4.426   3.195 -0.1310  0.4166 -0.6085
  724MOL0     C97639   7.315   4.425   3.094 -0.1316 -0.1472  1.4644
  724MOL0     O97640   7.200   4.462   3.135  1.2014 -0.0830  0.1989
  724MOL0     C97641   7.131   4.362   3.211 -0.5892 -0.5792 -0.1648
  724MOL0     C97642   6.974   4.397   3.216 -0.6468 -0.4636 -0.1304
  724MOL0     C97643   6.936   4.537   3.280 -0.1026  0.5306  0.0530
  724MOL0     C97644   6.946   4.549   3.433 -0.2080  0.6983  0.1477
  724MOL0     C97645   6.832   4.633   3.487  0.8527 -0.1612 -0.0826
  724MOL0     C97646   6.835   4.789   3.469 -0.7084 -0.9987 -0.2433
  724MOL0     C97647   6.742   4.834   3.351 -0.3235  0.8215  0.1699
  724MOL0     C97648   6.728   4.986   3.342 -0.1705  0.7877 -0.6545
  724MOL0    Cl97649   6.887   5.047   3.291 -0.0791  0.1801 -0.3155
  724MOL0     C97650   7.332   4.375   2.961 -0.3796 -0.0788 -0.0010
  724MOL0     C97651   7.468   4.334   2.937  0.8497  0.5554  0.3982
  724MOL0     O97652   7.711   4.141   2.921 -0.5810  0.3002 -0.7753
  724MOL0     C97653   8.003   4.327   3.020  0.4016  0.0189  0.6434
  724MOL0     C97654   8.139   4.305   3.015  0.1477  0.0970 -0.0606
  724MOL0     N97655   8.512   3.819   3.317 -0.2343  0.2204  0.4648
  724MOL0     N97656   8.454   3.811   3.433 -0.4360  0.0952 -0.4930
  724MOL0     C97657   7.962   4.253   3.889 -0.0877 -0.4337  0.2903
  724MOL0     C97658   7.875   4.340   3.809  0.3563  0.1230  0.1007
  724MOL0     C97659   7.535   4.528   3.566 -0.3828 -0.0173 -0.4657
  724MOL0     C97660   7.395   4.515   3.609  0.6390 -0.3723 -0.3588
  724MOL0     C97661   7.299   4.607   3.572  0.2181 -0.0545  0.5446
  724MOL0     C97662   7.327   4.724   3.499 -0.8568 -0.1240  0.2736
  724MOL0     O97663   7.225   4.809   3.475  0.5353  0.5037 -0.5838
  724MOL0     C97664   7.241   4.909   3.366  0.0657  0.1355  0.3686
  724MOL0     C97665   7.226   4.855   3.224  0.0104  0.2610 -0.5526
  724MOL0     C97666   7.357   4.796   3.159 -0.0696 -0.2209  0.6726
  724MOL0     C97667   7.332   4.783   3.015 -0.2878  0.1780  0.7617
  724MOL0     C97668   7.457   4.763   2.949 -0.8712  0.0698 -0.3064
  724MOL0     C97669   7.566   4.738   2.902  0.3936 -0.9875 -0.3027
  724MOL0     C97670   7.459   4.737   3.458 -0.4618 -0.5465 -1.1053
  724MOL0     C97671   7.566   4.650   3.504 -0.1111 -0.5138  0.2442
  724MOL0     C97672   7.699   4.710   3.472 -0.3545  0.1195 -0.5389
  724MOL0     H97673   7.591   4.161   3.831 -0.2714 -0.8870 -2.7966
  724MOL0     H97674   7.744   3.996   3.945  0.5719 -1.4865 -3.4890
  724MOL0     H97675   7.909   3.964   4.131  0.5449  0.6288  1.1548
  724MOL0     H97676   7.942   3.868   3.990 -0.7822  1.5481 -1.2993
  724MOL0     H97677   8.091   3.813   4.196  2.7895  0.5489  1.7578
  724MOL0     H97678   8.165   3.969   4.159 -2.1304 -0.1186  2.6939
  724MOL0     H97679   8.171   3.714   3.982 -1.2165  0.2108  1.3857
  724MOL0     H97680   8.302   3.782   4.089  0.0363  0.8665 -0.3168
  724MOL0     H97681   8.195   3.928   3.851  0.4351 -0.3829 -0.6016
  724MOL0     H97682   8.310   3.987   3.965  0.3331 -1.9528 -0.1069
  724MOL0     H97683   8.446   3.783   3.910 -2.2081 -1.6476 -0.4371
  724MOL0     H97684   8.354   3.759   3.773 -2.7444 -1.6835  1.9490
  724MOL0     H97685   8.518   4.001   3.841 -1.7657  1.1572 -0.2528
  724MOL0     H97686   8.531   3.891   3.700 -0.2136  0.6089 -0.7062
  724MOL0     H97687   8.445   4.131   3.645 -3.0342  0.5418 -1.1867
  724MOL0     H97688   8.296   4.092   3.739  1.6792 -3.5274  3.1839
  724MOL0     H97689   8.249   3.901   3.577 -1.8837  0.9110  0.0617
  724MOL0     H97690   8.257   4.065   3.514  0.9918 -0.3725 -2.3766
  724MOL0     H97691   8.379   4.104   3.310 -0.7333 -0.9664 -0.9434
  724MOL0     H97692   8.581   4.031   3.066 -0.7805 -0.0149 -1.2652
  724MOL0     H97693   8.531   3.858   3.062 -0.7428 -0.9978  1.3480
  724MOL0     H97694   8.293   3.920   3.065  0.2433  0.3844 -0.0468
  724MOL0     H97695   8.332   4.089   3.076  0.0709  0.7988 -0.9120
  724MOL0     H97696   8.280   3.970   2.853  0.6736 -1.2189 -0.3658
  724MOL0     H97697   8.455   3.927   2.857 -1.4426 -1.0295 -0.3579
  724MOL0     H97698   8.391   4.141   2.725  1.9661  1.5499 -0.3758
  724MOL0     H97699   8.514   4.168   2.850 -0.2463 -0.4843  1.8594
  724MOL0     H97700   8.151   4.161   2.710 -4.3850 -0.9712 -1.5708
  724MOL0     H97701   7.918   4.154   2.749 -1.2147  2.8088 -1.9132
  724MOL0     H97702   7.621   4.434   3.225 -1.3375  0.5617  1.2635
  724MOL0     H97703   7.401   4.442   3.302 -0.7310  0.3580 -0.6658
  724MOL0     H97704   7.134   4.266   3.159 -2.6519 -0.2527 -0.9715
  724MOL0     H97705   7.169   4.349   3.313  0.5672 -0.5866 -0.5826
  724MOL0     H97706   6.951   4.407   3.110  0.0620 -0.8259 -0.3260
  724MOL0     H97707   6.922   4.314   3.266  1.3233 -1.7838 -0.1489
  724MOL0     H97708   6.990   4.611   3.220 -2.3701  2.9582  0.7641
  724MOL0     H97709   6.833   4.563   3.255  0.3122  0.9257 -1.3393
  724MOL0     H97710   7.047   4.591   3.442  0.6350 -1.5272  2.4682
  724MOL0     H97711   6.954   4.448   3.474  0.3300  0.2047 -1.1158
  724MOL0     H97712   6.836   4.626   3.596  2.7335  1.0409 -0.0250
  724MOL0     H97713   6.737   4.601   3.443  2.1601 -2.5922 -1.4073
  724MOL0     H97714   6.831   4.840   3.566  1.8709 -1.8664  0.3976
  724MOL0     H97715   6.936   4.798   3.428 -1.1690  2.8088 -0.9359
  724MOL0     H97716   6.642   4.791   3.360 -0.0711 -0.0272 -0.8354
  724MOL0     H97717   6.779   4.793   3.256 -2.4641 -0.1445 -0.3240
  724MOL0     H97718   6.645   5.019   3.279 -3.7425 -1.7599  2.2613
  724MOL0     H97719   6.706   5.044   3.432  1.6781  0.6378 -0.0661
  724MOL0     H97720   7.248   4.380   2.892  1.5322  3.0214 -2.3714
  724MOL0     H97721   7.505   4.303   2.840 -2.5727  1.0226 -1.1681
  724MOL0     H97722   7.950   4.386   3.095  1.0922  0.1176  1.0628
  724MOL0     H97723   8.213   4.334   3.089  0.6414 -3.4536  1.0519
  724MOL0     H97724   8.069   4.266   3.905 -0.7817  4.1041  3.1469
  724MOL0     H97725   7.915   4.436   3.782 -2.1336  1.7694  1.8117
  724MOL0     H97726   7.369   4.432   3.674  1.8544  0.6161  1.4782
  724MOL0     H97727   7.192   4.592   3.585  0.1846 -1.6074 -1.1379
  724MOL0     H97728   7.329   4.972   3.379 -0.8141  1.5476 -0.2308
  724MOL0     H97729   7.151   4.970   3.382 -0.4822 -0.2174 -1.1145
  724MOL0     H97730   7.201   4.940   3.160  2.3317  0.9753 -0.5997
  724MOL0     H97731   7.140   4.789   3.209  0.7735 -1.1451  0.9250
  724MOL0     H97732   7.373   4.694   3.196 -1.1593  0.4179  3.1705
  724MOL0     H97733   7.434   4.870   3.183 -1.3063  1.0606  0.8473
  724MOL0     H97734   7.273   4.692   3.002 -0.8673  0.6570 -0.0454
  724MOL0     H97735   7.282   4.872   2.976  3.9646  2.3004 -0.4669
  724MOL0     H97736   7.663   4.717   2.863  1.1360  2.5836 -0.6854
  724MOL0     H97737   7.499   4.826   3.409  1.4532 -1.7283 -1.8006
  724MOL0     H97738   7.738   4.652   3.388  0.6947  0.4334 -0.2874
  724MOL0     H97739   7.701   4.818   3.456  0.2350  0.2360  0.2563
  724MOL0     H97740   7.761   4.683   3.558  3.2002  2.6778 -2.0193
  725MOL0     O97741   8.397   6.815   0.140  0.2960  1.2891 -0.4871
  725MOL0     C97742   8.330   6.778   0.235 -0.4490 -0.0296 -0.1415
  725MOL0     O97743   8.375   6.686   0.321  0.4578 -0.0508 -0.4892
  725MOL0     C97744   8.475   6.607   0.279 -0.5641 -0.2220 -0.7219
  725MOL0     C97745   8.455   6.512   0.182  0.6084  0.7840 -0.5371
  725MOL0     C97746   8.546   6.430   0.135 -1.2234  0.3025  1.4653
  725MOL0     C97747   8.678   6.438   0.183 -0.3655 -0.4469  0.3460
  725MOL0     O97748   8.766   6.336   0.147 -0.0154  0.0594 -0.0605
  725MOL0     C97749   8.887   6.333   0.221 -1.1123  0.6615 -0.0571
  725MOL0     C97750   8.962   6.209   0.170  1.1417  0.0273 -0.7521
  725MOL0     C97751   9.007   6.240   0.029  0.7471  0.1295 -0.2594
  725MOL0     C97752   9.055   6.105  -0.032  0.4943  0.4020 -0.5764
  725MOL0     C97753   9.144   6.129  -0.153  0.5194  0.0441  0.2544
  725MOL0     C97754   9.085   6.190  -0.280  0.3517 -0.3783  0.7418
  725MOL0     C97755   8.972   6.104  -0.340  0.6927 -0.2954  1.1716
  725MOL0     C97756   8.952   6.116  -0.490  0.9133 -0.2076  0.9919
  725MOL0     N97757   8.963   6.254  -0.543  0.3429 -0.5184 -0.5959
  725MOL0     C97758   8.867   6.349  -0.538  0.1806 -0.5633 -0.0467
  725MOL0     C97759   8.901   6.449  -0.623  0.5502  0.4240  1.0912
  725MOL0     C97760   8.827   6.581  -0.646 -0.5960  0.0798  0.6551
  725MOL0     C97761   8.940   6.687  -0.665 -0.2342 -0.5694  0.0772
  725MOL0     C97762   8.884   6.834  -0.672 -1.0452  0.0723 -0.0610
  725MOL0     C97763   9.006   6.921  -0.685  0.3234  0.6003  0.0404
  725MOL0     O97764   8.963   7.060  -0.718  0.0940  0.0832  1.2293
  725MOL0     C97765   9.062   7.150  -0.729 -0.3870  0.7720  0.1698
  725MOL0     C97766   9.054   7.243  -0.827  0.7510 -0.5892 -1.4219
  725MOL0     C97767   9.155   7.348  -0.848  0.5362 -0.1328  1.5562
  725MOL0     C97768   9.262   7.351  -0.760  0.0874 -1.1292  0.1649
  725MOL0     C97769   9.354   7.460  -0.771 -0.5355 -0.2256  0.3094
  725MOL0     O97770   9.336   7.551  -0.875  0.8836 -0.2993  0.0038
  725MOL0     C97771   9.445   7.610  -0.930 -0.6247 -0.9712  0.6350
  725MOL0     C97772   9.575   7.559  -0.930  0.4888 -0.6848 -0.3583
  725MOL0     C97773   9.677   7.634  -0.992  0.0302  0.4387  0.4459
  725MOL0     C97774   9.655   7.755  -1.060 -0.1387  0.3763  0.2371
  725MOL0     O97775   9.749   7.828  -1.127 -0.6506  0.0850 -0.9326
  725MOL0     C97776   9.875   7.771  -1.160  0.0293 -0.4620  0.3199
  725MOL0     C97777   9.957   7.850  -1.265  0.0920 -0.5331 -0.3823
  725MOL0     C97778   9.872   7.874  -1.391 -0.4366  0.0304 -0.0783
  725MOL0     C97779   9.936   7.861  -1.529 -0.5554 -0.1125  0.4810
  725MOL0     C97780   9.894   7.747  -1.617  0.7003  0.6191 -0.6644
  725MOL0     C97781   9.947   7.608  -1.596  0.8634  0.4003  0.3144
  725MOL0     C97782   9.933   7.513  -1.708  0.3758 -0.9929  0.0094
  725MOL0     C97783   9.789   7.467  -1.743  1.2544  0.6331 -0.2362
  725MOL0    Cl97784   9.717   7.397  -1.592  0.1606  0.1012 -0.2764
  725MOL0     C97785   9.529   7.807  -1.061  0.1017 -0.3699 -0.4175
  725MOL0     C97786   9.415   7.731  -1.002 -0.1519  0.5822  1.2129
  725MOL0     O97787   9.442   7.470  -0.688  0.1723  0.0466  0.2874
  725MOL0     C97788   9.271   7.254  -0.659  0.5261 -0.0411 -0.2693
  725MOL0     C97789   9.178   7.153  -0.647  0.1488 -0.0417 -0.1995
  725MOL0     N97790   9.019   6.400  -0.681 -0.1902  0.0542  0.4773
  725MOL0     N97791   9.060   6.291  -0.627 -0.3522  0.8349 -0.0400
  725MOL0     C97792   8.704   6.533   0.281 -0.8007 -0.1262  0.1391
  725MOL0     C97793   8.604   6.618   0.325 -0.1096 -1.1652 -0.0200
  725MOL0     C97794   8.201   6.832   0.267  0.6328 -0.2492 -0.5196
  725MOL0     C97795   8.116   6.761   0.355 -0.4749  0.3210 -0.4367
  725MOL0     C97796   7.987   6.809   0.381 -0.0665  0.5139  0.5116
  725MOL0     C97797   7.939   6.928   0.329 -0.2892  0.2141 -0.4476
  725MOL0     O97798   7.808   6.968   0.350  0.1874  0.8892  0.8358
  725MOL0     C97799   7.741   6.922   0.468 -0.5746 -0.1604 -0.4489
  725MOL0     C97800   7.618   7.006   0.485 -0.0328 -1.6296 -0.5230
  725MOL0     C97801   7.664   7.143   0.558  0.1744  0.9255  0.2139
  725MOL0     C97802   7.545   7.246   0.572 -0.5819  0.1716  0.3129
  725MOL0     C97803   7.434   7.192   0.657 -0.3247 -0.4342  0.7215
  725MOL0     C97804   7.327   7.169   0.710 -0.3436 -1.1030 -1.1809
  725MOL0     C97805   8.019   6.995   0.231  1.2459 -0.4435  0.1560
  725MOL0     C97806   8.153   6.963   0.216  0.3011  1.2000  0.1667
  725MOL0     C97807   8.235   7.056   0.137 -0.6482 -0.5921  0.9105
  725MOL0     H97808   8.358   6.513   0.132  0.7071 -3.8561 -1.2262
  725MOL0     H97809   8.507   6.350   0.073  0.9486 -1.3475  2.1446
  725MOL0     H97810   8.950   6.422   0.208 -1.3091  1.4545  3.3460
  725MOL0     H97811   8.871   6.320   0.328 -0.7296 -0.7013 -0.1537
  725MOL0     H97812   8.894   6.124   0.173  0.2113  0.6926 -2.0491
  725MOL0     H97813   9.049   6.182   0.230  0.0711  1.4019  1.5299
  725MOL0     H97814   9.098   6.298   0.041 -0.3571  2.2413 -1.6038
  725MOL0     H97815   8.937   6.291  -0.039 -0.1133  2.0632  1.9623
  725MOL0     H97816   9.113   6.052   0.044  0.0714 -0.1601 -0.6399
  725MOL0     H97817   8.969   6.046  -0.065  1.5580 -0.6599 -1.5681
  725MOL0     H97818   9.232   6.186  -0.120  2.5952 -3.9004  2.2502
  725MOL0     H97819   9.188   6.033  -0.181 -1.0022 -0.8130  0.6977
  725MOL0     H97820   9.055   6.295  -0.274 -1.9629 -0.9424  0.1135
  725MOL0     H97821   9.180   6.196  -0.334  0.3762  0.3282  0.8523
  725MOL0     H97822   8.883   6.145  -0.292 -0.1655 -2.8376  1.8967
  725MOL0     H97823   8.986   5.998  -0.316  0.1900 -0.6480 -0.0027
  725MOL0     H97824   9.033   6.062  -0.538 -0.0332 -2.2081  1.5385
  725MOL0     H97825   8.856   6.067  -0.511  0.7009 -0.2418  2.0020
  725MOL0     H97826   8.778   6.352  -0.476  0.0745 -0.1498 -0.2109
  725MOL0     H97827   8.751   6.571  -0.724 -0.5461  2.6101  0.2128
  725MOL0     H97828   8.759   6.596  -0.562 -1.3465 -2.2691  0.5670
  725MOL0     H97829   8.996   6.694  -0.571  0.6974  5.4611 -0.5737
  725MOL0     H97830   9.011   6.673  -0.747 -1.3964  0.4963 -1.1493
  725MOL0     H97831   8.821   6.852  -0.584 -0.9436  0.0854  0.0097
  725MOL0     H97832   8.823   6.852  -0.760  1.8534  2.6404 -1.7420
  725MOL0     H97833   9.072   6.885  -0.765  3.1396 -1.5442  3.0787
  725MOL0     H97834   9.069   6.916  -0.597  1.1174 -0.0430 -0.5563
  725MOL0     H97835   8.963   7.243  -0.886  1.1716 -3.1817 -2.1616
  725MOL0     H97836   9.127   7.420  -0.924 -3.1250 -1.7035  1.2416
  725MOL0     H97837   9.604   7.463  -0.888  0.6647 -1.2060 -1.6210
  725MOL0     H97838   9.781   7.602  -0.992  0.0120  0.3112 -1.2347
  725MOL0     H97839   9.926   7.775  -1.063 -0.2680 -2.9565  0.6542
  725MOL0     H97840   9.870   7.668  -1.196  3.1813 -0.8018  0.4941
  725MOL0     H97841  10.007   7.938  -1.223 -0.7604  0.4053 -1.2544
  725MOL0     H97842  10.034   7.777  -1.288  2.4605  1.3841  0.9918
  725MOL0     H97843   9.777   7.821  -1.382 -0.2304 -0.1135  1.7158
  725MOL0     H97844   9.854   7.981  -1.385  0.5582  0.1564  1.0151
  725MOL0     H97845  10.044   7.868  -1.519 -0.6707  1.1175  1.0877
  725MOL0     H97846   9.915   7.955  -1.582  0.2010 -0.1295  0.1438
  725MOL0     H97847   9.927   7.762  -1.720  3.0081 -3.2514 -0.6577
  725MOL0     H97848   9.784   7.740  -1.620  0.4665  3.1789 -4.0553
  725MOL0     H97849  10.051   7.615  -1.562  0.2017  2.1546  2.2051
  725MOL0     H97850   9.897   7.557  -1.514  0.8129 -0.3424 -0.1694
  725MOL0     H97851  10.000   7.428  -1.692  0.8897 -1.3356 -3.3230
  725MOL0     H97852   9.967   7.551  -1.804 -2.1343 -0.3357 -0.6926
  725MOL0     H97853   9.718   7.539  -1.787  0.9745 -0.5004 -1.7237
  725MOL0     H97854   9.801   7.391  -1.821 -0.7882  0.6734 -0.6636
  725MOL0     H97855   9.516   7.905  -1.105  0.9719 -0.3330 -0.6165
  725MOL0     H97856   9.316   7.774  -0.993 -1.1133 -0.1602 -3.3222
  725MOL0     H97857   9.347   7.251  -0.582 -1.1544 -2.4058  1.4283
  725MOL0     H97858   9.207   7.082  -0.570 -3.0346  0.1293  1.3317
  725MOL0     H97859   8.805   6.544   0.319 -0.8438  2.4686 -0.2987
  725MOL0     H97860   8.614   6.694   0.402 -1.8862  0.2725 -1.1394
  725MOL0     H97861   8.142   6.662   0.391 -0.8340  1.0622  2.0555
  725MOL0     H97862   7.924   6.751   0.449  2.3441 -4.4351 -0.9918
  725MOL0     H97863   7.798   6.924   0.561 -1.0892  1.7823 -0.1320
  725MOL0     H97864   7.700   6.821   0.450 -1.4576  0.1758 -0.3838
  725MOL0     H97865   7.537   6.959   0.540 -0.2919 -0.1418  0.4225
  725MOL0     H97866   7.570   7.012   0.387 -2.6731  0.0156  0.7798
  725MOL0     H97867   7.743   7.198   0.507  2.1466  1.4742  3.5719
  725MOL0     H97868   7.690   7.119   0.661  3.7266 -0.8459 -0.9538
  725MOL0     H97869   7.577   7.351   0.571 -0.2875  0.0791  0.0820
  725MOL0     H97870   7.485   7.247   0.481 -2.2443  3.9379  1.2411
  725MOL0     H97871   7.224   7.155   0.739 -0.9662  2.7246 -1.0543
  725MOL0     H97872   7.972   7.088   0.202  0.8096 -0.4722  0.7596
  725MOL0     H97873   8.332   7.064   0.188 -0.0827 -0.2680 -0.1868
  725MOL0     H97874   8.250   7.018   0.036  2.1712 -0.0550  1.0217
  725MOL0     H97875   8.187   7.153   0.126 -0.8144 -0.4967  2.3149
  726MOL0     O97876   0.310   9.704   1.387  0.4852  0.0010  0.4244
  726MOL0     C97877   0.230   9.641   1.455  0.0116  0.8655  0.4245
  726MOL0     O97878   0.091   9.670   1.456 -0.6618  0.2486 -0.0841
  726MOL0     C97879   0.035   9.767   1.378 -0.4906  0.1527  0.0469
  726MOL0     C97880  -0.037   9.863   1.445  0.6150 -0.0386 -0.9741
  726MOL0     C97881  -0.110   9.962   1.380 -0.1672  0.4973 -0.5405
  726MOL0     C97882  -0.120   9.962   1.245  1.5248 -0.4569 -0.2831
  726MOL0     O97883  -0.205  10.047   1.175  1.0836  0.1498  0.2148
  726MOL0     C97884  -0.268  10.157   1.231  0.8091 -0.4817  0.0817
  726MOL0     C97885  -0.342  10.221   1.107  0.3918  0.2665 -0.1856
  726MOL0     C97886  -0.427  10.339   1.157  0.1201  0.9298  0.5141
  726MOL0     C97887  -0.365  10.474   1.135 -0.3194 -0.3239  0.0239
  726MOL0     C97888  -0.435  10.585   1.216  0.5556  0.2909  0.0744
  726MOL0     C97889  -0.574  10.624   1.197  0.9404  0.0018 -0.5195
  726MOL0     C97890  -0.620  10.639   1.056  0.4187 -0.0679  1.1997
  726MOL0     C97891  -0.747  10.726   1.049 -0.7293  0.5046 -1.2995
  726MOL0     N97892  -0.833  10.742   0.932 -0.5755  0.3073  0.2363
  726MOL0     C97893  -0.899  10.652   0.857  0.5253 -0.6490 -0.1204
  726MOL0     C97894  -0.949  10.727   0.756 -0.0783 -0.2362  0.1944
  726MOL0     C97895  -1.046  10.696   0.640 -0.1528  0.0392  0.0275
  726MOL0     C97896  -1.167  10.789   0.622 -0.5312 -0.3172  0.2740
  726MOL0     C97897  -1.240  10.733   0.503  0.1426  0.1991 -0.7780
  726MOL0     C97898  -1.179  10.784   0.369  0.5532 -0.2757 -0.2329
  726MOL0     O97899  -1.185  10.922   0.355  0.5867  0.1647 -0.2422
  726MOL0     C97900  -1.081  10.969   0.283 -0.1526  0.1878  0.0022
  726MOL0     C97901  -0.953  11.002   0.343  0.0537  0.3723  0.0924
  726MOL0     C97902  -0.855  11.067   0.272 -0.5131 -0.2283  0.6742
  726MOL0     C97903  -0.882  11.094   0.138  0.2664  1.0429  0.8274
  726MOL0     C97904  -0.776  11.141   0.051 -0.2999 -0.0905 -0.7006
  726MOL0     O97905  -0.652  11.139   0.107  0.2002 -0.3543  0.4864
  726MOL0     C97906  -0.540  11.186   0.048  0.0690  0.4453  0.4750
  726MOL0     C97907  -0.548  11.297  -0.037  0.3268 -0.2026 -0.4635
  726MOL0     C97908  -0.438  11.330  -0.116 -0.7991 -0.6431 -0.1367
  726MOL0     C97909  -0.316  11.264  -0.099 -0.0403 -0.5780  0.6117
  726MOL0     O97910  -0.215  11.310  -0.175  0.5385  0.3882 -0.2426
  726MOL0     C97911  -0.077  11.264  -0.167  0.1168 -0.1507 -0.4204
  726MOL0     C97912  -0.063  11.116  -0.216 -0.2895 -0.3097 -0.3967
  726MOL0     C97913  -0.105  11.102  -0.363 -0.0280  0.0797 -0.3889
  726MOL0     C97914  -0.165  10.960  -0.371  0.8185 -0.6625  0.1974
  726MOL0     C97915  -0.219  10.937  -0.507 -1.7808  0.1455 -0.1999
  726MOL0     C97916  -0.103  10.916  -0.604  0.5892  0.3569  0.9469
  726MOL0     C97917  -0.140  10.861  -0.742  0.7709  0.1214  0.6597
  726MOL0     C97918  -0.042  10.873  -0.857 -0.5904 -1.3142  0.8386
  726MOL0    Cl97919  -0.023  11.046  -0.914 -0.3780  0.0167  0.3744
  726MOL0     C97920  -0.306  11.181   0.011  0.4361 -0.3679 -0.9971
  726MOL0     C97921  -0.416  11.136   0.083 -0.0005 -0.3696 -0.3201
  726MOL0     O97922  -0.810  11.177  -0.062 -0.2411 -0.2114  0.4998
  726MOL0     C97923  -1.008  11.061   0.079 -0.2349 -0.3194 -0.7279
  726MOL0     C97924  -1.108  11.005   0.156 -0.4850  1.0067 -0.1935
  726MOL0     N97925  -0.897  10.856   0.762  0.5598  0.7270  0.4239
  726MOL0     N97926  -0.818  10.859   0.861 -0.5389  0.5982 -1.3859
  726MOL0     C97927  -0.043   9.863   1.170 -0.2807 -0.4381  0.2655
  726MOL0     C97928   0.038   9.765   1.236 -0.1694  0.1640 -0.3205
  726MOL0     C97929   0.287   9.515   1.535  0.4992  0.0843  0.3027
  726MOL0     C97930   0.427   9.491   1.524  0.9717 -0.4743 -0.9061
  726MOL0     C97931   0.489   9.385   1.591 -0.0622 -0.7973  0.1771
  726MOL0     C97932   0.408   9.303   1.668  0.4842 -0.5024 -0.1531
  726MOL0     O97933   0.461   9.197   1.744  0.2324 -0.2738  0.2156
  726MOL0     C97934   0.542   9.092   1.682  0.6930 -0.2280 -0.2548
  726MOL0     C97935   0.465   9.034   1.562  0.3656  0.7423  0.7034
  726MOL0     C97936   0.518   8.881   1.543 -0.4190  0.6133  0.8373
  726MOL0     C97937   0.460   8.797   1.428 -0.0092 -0.3277 -0.1347
  726MOL0     C97938   0.545   8.688   1.394  0.3418 -0.3153 -1.9090
  726MOL0     C97939   0.619   8.596   1.369  0.2868 -0.7026 -0.4073
  726MOL0     C97940   0.269   9.325   1.683 -0.3905 -0.4419  0.6975
  726MOL0     C97941   0.203   9.437   1.621  0.1282  0.5081 -0.4745
  726MOL0     C97942   0.063   9.463   1.668 -0.4705  0.6461  0.5272
  726MOL0     H97943  -0.036   9.863   1.554 -3.0608 -1.0410 -0.8143
  726MOL0     H97944  -0.169  10.026   1.445 -1.6042 -0.7507 -0.5678
  726MOL0     H97945  -0.333  10.121   1.312 -0.3107 -0.3528 -0.7276
  726MOL0     H97946  -0.189  10.224   1.265 -0.9019  0.7983  1.7316
  726MOL0     H97947  -0.415  10.149   1.068  0.6705  0.3605 -0.8965
  726MOL0     H97948  -0.271  10.240   1.026  0.0017 -0.5306 -0.7255
  726MOL0     H97949  -0.454  10.317   1.260  0.3255 -1.7325  0.0701
  726MOL0     H97950  -0.514  10.341   1.091  0.2402  2.1351  0.3657
  726MOL0     H97951  -0.265  10.478   1.180 -0.1556  2.7917 -0.4079
  726MOL0     H97952  -0.367  10.504   1.030  1.3371  0.5435  0.2084
  726MOL0     H97953  -0.424  10.581   1.325 -2.1241  0.6560  0.4257
  726MOL0     H97954  -0.376  10.673   1.188 -1.0622  0.5589 -2.8478
  726MOL0     H97955  -0.635  10.543   1.237  0.5773  0.2709 -0.5208
  726MOL0     H97956  -0.590  10.722   1.245  2.8039 -0.6006  1.5305
  726MOL0     H97957  -0.631  10.540   1.011 -0.0878  0.8881 -0.8948
  726MOL0     H97958  -0.546  10.694   0.999 -2.2850  0.4764 -2.1045
  726MOL0     H97959  -0.813  10.700   1.133  1.0807 -2.8704 -0.7103
  726MOL0     H97960  -0.719  10.827   1.079 -0.8118 -0.0169  0.6852
  726MOL0     H97961  -0.921  10.546   0.866 -1.0098 -0.2998  0.7544
  726MOL0     H97962  -0.982  10.696   0.551  0.2102  3.3113  0.1433
  726MOL0     H97963  -1.082  10.595   0.659  2.0189 -0.2272  3.7342
  726MOL0     H97964  -1.231  10.805   0.709 -0.4844 -1.2717  0.4901
  726MOL0     H97965  -1.137  10.893   0.604  0.6225 -0.3732  1.6871
  726MOL0     H97966  -1.342  10.770   0.514  0.7721  1.7598  0.2288
  726MOL0     H97967  -1.245  10.624   0.511  0.4016  0.3206  2.3015
  726MOL0     H97968  -1.222  10.733   0.283 -1.7504 -0.4592  0.9540
  726MOL0     H97969  -1.075  10.749   0.369  0.0148 -2.0758 -2.3031
  726MOL0     H97970  -0.945  10.988   0.451 -2.1594 -1.6769  0.0699
  726MOL0     H97971  -0.760  11.095   0.318  0.8131 -2.8610 -0.2747
  726MOL0     H97972  -0.645  11.337  -0.064 -0.2874  0.3445  2.2996
  726MOL0     H97973  -0.448  11.391  -0.205 -2.2060 -1.3744 -0.5101
  726MOL0     H97974  -0.021  11.335  -0.229 -1.4638  3.2075  1.7102
  726MOL0     H97975  -0.030  11.275  -0.070  2.5737  1.6087 -1.7038
  726MOL0     H97976   0.041  11.083  -0.202  0.6378  1.7888 -1.8324
  726MOL0     H97977  -0.132  11.070  -0.145  0.1011 -0.7890 -0.3171
  726MOL0     H97978  -0.172  11.185  -0.387  0.9026  1.6079  1.9442
  726MOL0     H97979  -0.019  11.098  -0.431 -0.5819 -3.4417 -1.1083
  726MOL0     H97980  -0.240  10.947  -0.292 -0.1199  0.5980 -0.4601
  726MOL0     H97981  -0.093  10.879  -0.350 -0.0909 -0.8297  3.1338
  726MOL0     H97982  -0.264  11.029  -0.545  0.2996  1.1603 -0.3921
  726MOL0     H97983  -0.297  10.860  -0.507 -1.9284  0.1591  3.1992
  726MOL0     H97984  -0.057  11.014  -0.620 -1.6626  1.0463 -2.3178
  726MOL0     H97985  -0.035  10.840  -0.566 -1.5204 -0.2683  3.8178
  726MOL0     H97986  -0.227  10.919  -0.774  1.5205  2.2157  2.2057
  726MOL0     H97987  -0.162  10.754  -0.745  3.2073 -0.4500 -2.6587
  726MOL0     H97988   0.053  10.826  -0.830  1.3367 -0.1371 -3.0365
  726MOL0     H97989  -0.068  10.813  -0.945  3.2183  1.5815 -2.6845
  726MOL0     H97990  -0.202  11.158   0.035  0.5854  1.6343  0.5348
  726MOL0     H97991  -0.418  11.066   0.166 -0.1888 -0.4430 -0.3853
  726MOL0     H97992  -1.036  11.056  -0.026 -3.3876  1.0850 -0.0791
  726MOL0     H97993  -1.194  10.972   0.100  0.2535  1.5675 -1.7297
  726MOL0     H97994  -0.058   9.877   1.064 -4.8315  6.1004  1.1852
  726MOL0     H97995   0.099   9.698   1.177 -0.6102  0.3685 -1.0291
  726MOL0     H97996   0.487   9.567   1.474  1.0715  0.5599  0.7148
  726MOL0     H97997   0.597   9.382   1.582  0.0557 -0.2354  1.1758
  726MOL0     H97998   0.561   9.013   1.755 -1.0167 -1.9663 -1.6000
  726MOL0     H97999   0.635   9.130   1.639 -0.2419  2.2281 -0.2736
  726MOL0     H98000   0.498   9.094   1.477 -1.9602  0.8937 -0.1588
  726MOL0     H98001   0.356   9.038   1.566  0.3307  0.6893 -0.0823
  726MOL0     H98002   0.508   8.823   1.635  3.4116  0.0822  1.0842
  726MOL0     H98003   0.624   8.900   1.522 -0.6905 -0.1191 -1.5063
  726MOL0     H98004   0.357   8.777   1.457  0.1915  0.3519  1.0932
  726MOL0     H98005   0.448   8.869   1.346  0.8489 -0.2629 -0.2111
  726MOL0     H98006   0.690   8.518   1.350  3.0709  1.4550  0.6014
  726MOL0     H98007   0.213   9.255   1.745 -1.3002  0.4948  0.9711
  726MOL0     H98008   0.005   9.435   1.580  0.7876 -1.2792  0.2451
  726MOL0     H98009   0.037   9.396   1.749  1.4549  1.4228  1.8797
  726MOL0     H98010   0.042   9.565   1.701  0.1789  0.3790  1.8270
  727MOL0     O98011   8.523   9.070   4.592 -1.2380  0.7144 -0.0124
  727MOL0     C98012   8.528   9.186   4.630 -0.0161  0.3574 -0.3608
  727MOL0     O98013   8.465   9.298   4.577 -0.3402 -0.1713 -0.8686
  727MOL0     C98014   8.394   9.285   4.470 -0.7747 -0.3275 -0.1916
  727MOL0     C98015   8.449   9.221   4.360 -0.1560  0.8004  0.6793
  727MOL0     C98016   8.372   9.217   4.246  0.9847  0.2032  1.2063
  727MOL0     C98017   8.254   9.280   4.241 -0.1362  0.3493 -0.1944
  727MOL0     O98018   8.190   9.269   4.119 -0.5758  0.1416  0.0881
  727MOL0     C98019   8.088   9.363   4.072 -0.0487  0.6400  0.0522
  727MOL0     C98020   8.056   9.317   3.930  1.4764  0.2350 -0.5531
  727MOL0     C98021   7.977   9.194   3.911  0.5226 -0.8244  0.2649
  727MOL0     C98022   8.027   9.098   3.806  0.2336  0.1083 -0.3125
  727MOL0     C98023   7.928   8.977   3.794 -0.1821  0.0338 -0.0725
  727MOL0     C98024   7.874   8.953   3.652 -0.0210  0.8933  0.1154
  727MOL0     C98025   7.824   8.805   3.629 -0.4798 -0.7121  0.5223
  727MOL0     C98026   7.950   8.725   3.593 -0.5170 -1.1959 -0.0193
  727MOL0     N98027   7.917   8.586   3.562 -0.7084  0.3678  0.6266
  727MOL0     C98028   7.970   8.475   3.625 -0.2177  0.7881  0.6851
  727MOL0     C98029   7.909   8.367   3.566 -0.1633  0.6830 -0.7437
  727MOL0     C98030   7.955   8.220   3.591 -0.3254 -0.6128  0.8649
  727MOL0     C98031   8.103   8.181   3.608  0.0918  1.7755 -0.0091
  727MOL0     C98032   8.202   8.243   3.504  0.3374  0.0747 -0.6249
  727MOL0     C98033   8.350   8.206   3.529  1.2644 -0.6732  1.2011
  727MOL0     O98034   8.376   8.123   3.417 -0.2168 -0.9257  0.1222
  727MOL0     C98035   8.502   8.119   3.363  0.5972  0.3530  0.3969
  727MOL0     C98036   8.609   8.167   3.424 -0.0499 -0.2992 -0.6672
  727MOL0     C98037   8.741   8.141   3.370  1.3344  0.2986  0.0811
  727MOL0     C98038   8.758   8.088   3.244 -0.1828  0.0216  0.4398
  727MOL0     C98039   8.889   8.082   3.178  0.0330 -0.2280 -0.8842
  727MOL0     O98040   8.989   8.090   3.266  0.8340 -0.3787 -0.0531
  727MOL0     C98041   9.117   8.053   3.237 -0.7179 -0.2162 -0.3084
  727MOL0     C98042   9.215   8.116   3.320  0.1930 -0.1548 -0.4037
  727MOL0     C98043   9.356   8.108   3.301  0.3198  0.3167  0.6843
  727MOL0     C98044   9.398   8.029   3.196 -0.5881  1.1119 -0.6303
  727MOL0     O98045   9.527   8.012   3.166 -0.1160 -0.2891  0.4019
  727MOL0     C98046   9.632   8.088   3.227  0.0847 -0.2839  0.2616
  727MOL0     C98047   9.645   8.231   3.169  0.4246 -0.2822  0.2079
  727MOL0     C98048   9.642   8.244   3.017 -0.2689 -0.1977 -0.6572
  727MOL0     C98049   9.772   8.195   2.944  0.4152 -0.1767 -0.4041
  727MOL0     C98050   9.765   8.234   2.799 -0.0827  0.1396 -0.0885
  727MOL0     C98051   9.678   8.136   2.728  0.3195 -0.4072  0.6512
  727MOL0     C98052   9.677   8.166   2.572  0.0522 -0.9456 -0.7620
  727MOL0     C98053   9.798   8.111   2.492  1.4699 -0.1046  0.8744
  727MOL0    Cl98054   9.776   8.118   2.317  0.2483  0.6033  0.0084
  727MOL0     C98055   9.305   7.962   3.116 -0.1191  1.0635  0.9743
  727MOL0     C98056   9.171   7.966   3.140 -1.5658 -0.9305 -1.0409
  727MOL0     O98057   8.903   8.048   3.064 -0.1337  0.2837  0.3253
  727MOL0     C98058   8.643   8.051   3.167  0.1508  0.8351 -1.0657
  727MOL0     C98059   8.520   8.060   3.242 -0.1010  0.7949  0.7487
  727MOL0     N98060   7.823   8.419   3.470 -0.0180 -0.0920 -0.2214
  727MOL0     N98061   7.846   8.547   3.456  0.4016  1.1976 -0.1592
  727MOL0     C98062   8.192   9.344   4.347 -0.8243  0.3125  0.1280
  727MOL0     C98063   8.265   9.342   4.475  0.0389 -0.5809  0.6968
  727MOL0     C98064   8.599   9.200   4.755  0.2241 -0.3828 -0.1092
  727MOL0     C98065   8.523   9.240   4.868 -0.1821 -1.0167  0.3159
  727MOL0     C98066   8.572   9.253   4.995 -0.5644 -0.0620  0.8418
  727MOL0     C98067   8.710   9.218   5.005  0.0260 -0.2560 -0.6493
  727MOL0     O98068   8.759   9.239   5.128 -0.4853  0.5641  0.3010
  727MOL0     C98069   8.843   9.129   5.181  0.3734  0.3186  0.1430
  727MOL0     C98070   8.849   9.149   5.332 -0.2968  0.1695 -0.3589
  727MOL0     C98071   8.911   9.270   5.388  0.1847 -0.5842 -0.0322
  727MOL0     C98072   8.929   9.263   5.537  0.2160 -0.2402  0.0708
  727MOL0     C98073   9.000   9.391   5.577  0.5630  0.5541 -0.8066
  727MOL0     C98074   9.058   9.489   5.614  0.0806 -0.5030 -0.3364
  727MOL0     C98075   8.788   9.167   4.896  0.3736 -0.8432  0.1099
  727MOL0     C98076   8.735   9.158   4.767 -0.2637  0.2939 -0.6424
  727MOL0     C98077   8.818   9.110   4.649  0.5242 -0.8051 -0.3320
  727MOL0     H98078   8.554   9.192   4.354 -0.2999  0.4866 -0.9256
  727MOL0     H98079   8.418   9.168   4.160 -0.0040  0.7114  0.3705
  727MOL0     H98080   7.988   9.364   4.118 -0.2187  0.1088 -0.3044
  727MOL0     H98081   8.123   9.467   4.069  1.4170  0.4801  4.5802
  727MOL0     H98082   8.147   9.292   3.877  0.2802 -1.4492 -1.9154
  727MOL0     H98083   8.003   9.399   3.881 -0.0586 -1.3660 -1.7003
  727MOL0     H98084   7.880   9.233   3.877  0.1571 -1.4369  0.5910
  727MOL0     H98085   7.966   9.143   4.006  2.2798 -0.9416  0.4276
  727MOL0     H98086   8.034   9.140   3.705 -0.7719 -1.5041 -1.0997
  727MOL0     H98087   8.123   9.056   3.838  0.1025  0.9542  1.3013
  727MOL0     H98088   7.997   8.899   3.829  1.9216  2.3774  1.3447
  727MOL0     H98089   7.850   8.980   3.870  0.1997 -0.6808  0.3622
  727MOL0     H98090   7.788   9.019   3.636 -0.6664  0.0687  0.1024
  727MOL0     H98091   7.956   8.977   3.584  1.9272  0.4852  2.2375
  727MOL0     H98092   7.754   8.805   3.546  0.1462  1.4990 -0.1008
  727MOL0     H98093   7.776   8.772   3.722  0.1056 -0.8918  0.7701
  727MOL0     H98094   8.004   8.767   3.507 -1.6126 -0.0490 -0.1854
  727MOL0     H98095   8.030   8.736   3.667  1.1701  1.6213 -2.0688
  727MOL0     H98096   8.058   8.477   3.689  1.7355  1.2175 -1.8221
  727MOL0     H98097   7.900   8.185   3.679  1.0691 -4.4963  0.3872
  727MOL0     H98098   7.919   8.168   3.502  0.7773 -0.3238  0.2308
  727MOL0     H98099   8.139   8.220   3.704  2.1644  1.0919 -0.4673
  727MOL0     H98100   8.115   8.073   3.596 -0.9543  1.8607 -2.3473
  727MOL0     H98101   8.191   8.349   3.528 -1.1621 -0.3521  0.7510
  727MOL0     H98102   8.162   8.232   3.403 -0.9104  1.0667 -0.2648
  727MOL0     H98103   8.364   8.147   3.620 -0.6468 -1.3141  1.1127
  727MOL0     H98104   8.403   8.301   3.539  0.5331  0.0809 -1.2555
  727MOL0     H98105   8.581   8.202   3.523 -0.6141 -1.7508 -0.2859
  727MOL0     H98106   8.828   8.183   3.419 -0.3368  3.5032  0.5500
  727MOL0     H98107   9.200   8.203   3.383  4.1109  1.8140 -1.7983
  727MOL0     H98108   9.421   8.175   3.356  0.1943  0.8319  0.2169
  727MOL0     H98109   9.610   8.087   3.334  0.0837 -0.3805  0.2610
  727MOL0     H98110   9.731   8.042   3.218 -0.0955 -1.2794  2.4957
  727MOL0     H98111   9.567   8.295   3.211  1.2682  0.1675  1.1443
  727MOL0     H98112   9.742   8.265   3.207  0.0577  0.8482  0.1674
  727MOL0     H98113   9.560   8.196   2.964 -1.8490  0.7335  0.8149
  727MOL0     H98114   9.636   8.352   2.999 -0.0786  0.0021  0.3644
  727MOL0     H98115   9.783   8.087   2.952 -1.2807 -0.3626 -0.0403
  727MOL0     H98116   9.861   8.244   2.983 -1.3219  0.7003  2.8767
  727MOL0     H98117   9.869   8.226   2.765 -0.0190 -2.2233  0.5190
  727MOL0     H98118   9.728   8.336   2.789 -0.0820  0.4602  2.3591
  727MOL0     H98119   9.699   8.029   2.727  1.0688 -0.2846  1.7212
  727MOL0     H98120   9.575   8.138   2.766 -0.6419 -0.4986 -1.8215
  727MOL0     H98121   9.676   8.274   2.557 -0.5351 -0.8731 -0.2728
  727MOL0     H98122   9.582   8.123   2.539 -1.0200 -1.9818  3.1721
  727MOL0     H98123   9.892   8.152   2.529  1.0987  0.2556  1.4404
  727MOL0     H98124   9.794   8.005   2.519 -1.6736 -0.0035  1.2562
  727MOL0     H98125   9.344   7.908   3.030 -0.1287 -1.0272  2.2066
  727MOL0     H98126   9.110   7.905   3.073  0.1353 -2.7556 -1.0248
  727MOL0     H98127   8.653   7.996   3.074  2.8163 -0.0091 -0.3665
  727MOL0     H98128   8.437   8.008   3.196  1.6627 -1.1417 -0.4100
  727MOL0     H98129   8.096   9.389   4.327 -1.7520 -1.4008  0.4889
  727MOL0     H98130   8.229   9.377   4.572  0.6813 -3.0512  1.9011
  727MOL0     H98131   8.417   9.249   4.846  0.3060  2.0373 -1.3066
  727MOL0     H98132   8.520   9.299   5.079  1.0863  2.4522  0.5946
  727MOL0     H98133   8.948   9.134   5.152  0.8989  0.3120  1.9034
  727MOL0     H98134   8.794   9.041   5.138  0.8211  1.0870 -2.0434
  727MOL0     H98135   8.915   9.066   5.359 -1.1315 -1.9507 -4.0911
  727MOL0     H98136   8.743   9.150   5.358 -0.6935  0.3302 -1.8650
  727MOL0     H98137   8.848   9.357   5.366 -1.2584 -1.8926 -1.3641
  727MOL0     H98138   9.010   9.277   5.344 -0.0191 -1.0030 -0.5742
  727MOL0     H98139   8.832   9.259   5.588  0.1538 -0.1379 -0.0405
  727MOL0     H98140   8.989   9.175   5.561 -0.7433 -0.3959  2.1231
  727MOL0     H98141   9.114   9.574   5.650  1.5630 -2.5715  2.6601
  727MOL0     H98142   8.895   9.161   4.914  0.3175 -2.0926  0.1134
  727MOL0     H98143   8.774   9.136   4.552 -0.7882 -4.7759 -1.0212
  727MOL0     H98144   8.920   9.150   4.645 -0.1953  1.2322  0.5877
  727MOL0     H98145   8.829   9.001   4.642 -0.8127 -1.1063  1.5994
  728MOL0     O98146   9.980   7.196  10.371 -0.5190 -0.4445 -0.1688
  728MOL0     C98147  10.047   7.288  10.325  0.4586 -0.2321  0.8514
  728MOL0     O98148  10.110   7.279  10.204 -0.7057 -0.1909 -0.5661
  728MOL0     C98149  10.076   7.168  10.127 -0.0789 -0.1049  0.3805
  728MOL0     C98150  10.158   7.066  10.090 -0.3529  0.6793 -0.1394
  728MOL0     C98151  10.118   6.968  10.000  0.1430  0.1270 -0.1270
  728MOL0     C98152   9.990   6.974   9.938 -0.8760 -0.4973 -0.1166
  728MOL0     O98153   9.951   6.878   9.849 -0.4780  0.1439 -0.2205
  728MOL0     C98154   9.992   6.914   9.714 -0.2014  0.0727  0.0080
  728MOL0     C98155   9.898   6.862   9.607 -0.5739 -0.4312 -0.3849
  728MOL0     C98156   9.936   6.721   9.544  0.1458  0.3240 -0.5441
  728MOL0     C98157  10.070   6.733   9.454  1.1657 -0.2164  0.5853
  728MOL0     C98158  10.176   6.620   9.471 -0.5731 -0.8851 -0.1540
  728MOL0     C98159  10.096   6.486   9.449 -0.4382 -0.1068  0.6307
  728MOL0     C98160  10.195   6.372   9.432 -0.0633 -0.3294  0.1506
  728MOL0     C98161  10.266   6.306   9.553  0.8649  0.3616 -0.0444
  728MOL0     N98162  10.320   6.172   9.510 -0.8694  0.3222  0.8508
  728MOL0     C98163  10.274   6.048   9.538  0.4211 -0.2995 -0.4130
  728MOL0     C98164  10.316   5.960   9.444 -1.0594  0.0947  0.4485
  728MOL0     C98165  10.278   5.815   9.456 -0.3769  0.0230  1.3260
  728MOL0     C98166  10.319   5.730   9.321  0.0497  0.1272  0.3704
  728MOL0     C98167  10.224   5.607   9.318  1.6718  0.0525 -0.9789
  728MOL0     C98168  10.104   5.633   9.225 -0.3129  0.0607 -0.3170
  728MOL0     O98169  10.036   5.518   9.203 -0.0167  0.2825  0.7830
  728MOL0     C98170   9.989   5.504   9.078 -0.3692  0.6278 -0.4925
  728MOL0     C98171  10.038   5.388   8.997  0.4639 -0.1597  0.0359
  728MOL0     C98172   9.982   5.366   8.866 -0.5322  0.0650 -0.2125
  728MOL0     C98173   9.893   5.453   8.811  0.5527 -0.0372  0.2532
  728MOL0     C98174   9.840   5.427   8.677  0.2722 -0.3818 -0.4236
  728MOL0     O98175   9.929   5.368   8.589  0.0104  0.8216 -0.3683
  728MOL0     C98176   9.878   5.320   8.469 -0.3323 -0.0441 -0.9239
  728MOL0     C98177   9.775   5.217   8.458 -0.4957 -0.0043 -0.2921
  728MOL0     C98178   9.720   5.188   8.331 -0.5793 -0.1677 -0.7778
  728MOL0     C98179   9.768   5.248   8.219 -0.6261 -0.0105  0.0633
  728MOL0     O98180   9.703   5.230   8.106 -0.0733 -0.8632 -0.1068
  728MOL0     C98181   9.722   5.103   8.032 -0.4120  0.9602 -0.3530
  728MOL0     C98182   9.595   5.084   7.945  0.9517 -0.1454 -0.2398
  728MOL0     C98183   9.476   5.044   8.027  0.3025 -0.2948 -0.3946
  728MOL0     C98184   9.343   5.100   7.979 -0.0049 -0.1080 -0.4259
  728MOL0     C98185   9.224   5.054   8.073  0.3848  0.7751 -0.1485
  728MOL0     C98186   9.086   5.125   8.045 -0.1431 -0.3030  0.0534
  728MOL0     C98187   9.039   5.079   7.909  0.8971  0.1428 -0.2581
  728MOL0     C98188   8.898   5.114   7.881  0.6925  0.1471 -0.4064
  728MOL0    Cl98189   8.869   5.280   7.858 -0.4512 -0.0307 -0.2217
  728MOL0     C98190   9.877   5.341   8.225  0.1546 -0.2666  1.1627
  728MOL0     C98191   9.923   5.381   8.352  0.0545  0.6350  0.3364
  728MOL0     O98192   9.723   5.460   8.658 -1.1464  0.6238 -0.5674
  728MOL0     C98193   9.845   5.560   8.889 -0.1519 -0.3883  0.1071
  728MOL0     C98194   9.896   5.593   9.019  0.0310  0.1563 -0.4853
  728MOL0     N98195  10.396   6.033   9.363 -0.4037 -0.1019  0.2973
  728MOL0     N98196  10.399   6.154   9.399  0.4293  0.6157  0.8190
  728MOL0     C98197   9.914   7.086   9.961 -0.7696 -0.4713 -0.5753
  728MOL0     C98198   9.959   7.176  10.054  0.0791 -0.1939  0.1712
  728MOL0     C98199  10.050   7.416  10.400  0.3370 -0.4672 -0.5344
  728MOL0     C98200  10.112   7.520  10.330 -0.7461  0.7161 -0.1873
  728MOL0     C98201  10.164   7.634  10.402 -0.6467  0.3289 -0.5768
  728MOL0     C98202  10.146   7.643  10.535  0.2482 -0.8699 -0.2636
  728MOL0     O98203  10.212   7.749  10.595  0.2672  0.0281 -0.0413
  728MOL0     C98204  10.197   7.764  10.737 -0.8451  0.4940  0.8639
  728MOL0     C98205  10.221   7.911  10.782  0.1459 -0.0638  0.0321
  728MOL0     C98206  10.130   8.022  10.700 -0.6297  0.3320 -0.0260
  728MOL0     C98207   9.984   7.993  10.744 -0.5574 -0.1621  0.2234
  728MOL0     C98208   9.940   8.087  10.854 -0.2478 -1.0744  0.0827
  728MOL0     C98209   9.892   8.163  10.940  0.0891 -0.3297 -0.7971
  728MOL0     C98210  10.077   7.547  10.603  0.3438  0.9400  0.0729
  728MOL0     C98211  10.026   7.434  10.544  0.0934 -0.4208 -0.2174
  728MOL0     C98212   9.952   7.336  10.634 -0.1897 -0.3700 -0.2054
  728MOL0     H98213  10.262   7.074  10.121 -0.9939  0.0154  2.4690
  728MOL0     H98214  10.175   6.879   9.973  2.4758  1.6703 -0.5869
  728MOL0     H98215   9.998   7.020   9.690 -0.8359 -0.2628 -1.7685
  728MOL0     H98216  10.090   6.871   9.690  0.3946  1.6368 -0.4380
  728MOL0     H98217   9.903   6.935   9.525 -0.2861  0.6224  0.5494
  728MOL0     H98218   9.799   6.860   9.653 -0.6046  0.0716 -0.4286
  728MOL0     H98219   9.841   6.698   9.495 -0.4413  0.6965  0.3893
  728MOL0     H98220   9.947   6.641   9.618 -0.3279 -0.0179 -0.8316
  728MOL0     H98221  10.022   6.722   9.357 -1.0998 -2.4541  1.8487
  728MOL0     H98222  10.110   6.833   9.472 -1.1884  1.2662 -1.6918
  728MOL0     H98223  10.250   6.639   9.393 -1.8446  0.4940 -1.0852
  728MOL0     H98224  10.219   6.619   9.571  0.8696 -2.1485 -0.7426
  728MOL0     H98225  10.025   6.464   9.530  1.7374  1.3087  3.0694
  728MOL0     H98226  10.032   6.487   9.360  1.6975 -2.4316 -1.0911
  728MOL0     H98227  10.274   6.409   9.366  2.2760  0.1126  2.9869
  728MOL0     H98228  10.149   6.286   9.383  2.0454 -2.3376  1.4735
  728MOL0     H98229  10.349   6.371   9.581  2.1579 -1.5340  0.7517
  728MOL0     H98230  10.185   6.302   9.627 -1.8005 -3.5763 -2.7536
  728MOL0     H98231  10.201   6.006   9.606  1.9900  1.4166  2.5477
  728MOL0     H98232  10.321   5.758   9.539  1.8515 -0.8297 -0.2968
  728MOL0     H98233  10.170   5.801   9.466 -0.3206 -0.8776  0.8461
  728MOL0     H98234  10.297   5.783   9.228 -3.1223  1.1100  1.5617
  728MOL0     H98235  10.427   5.712   9.319 -0.2270 -2.3480  2.2481
  728MOL0     H98236  10.181   5.596   9.418  2.2012 -0.6506 -0.8220
  728MOL0     H98237  10.266   5.513   9.282  0.2882 -0.7051 -0.6963
  728MOL0     H98238  10.140   5.669   9.128 -0.1491  0.7213 -0.0192
  728MOL0     H98239  10.036   5.706   9.270 -1.3520 -1.9101  1.4793
  728MOL0     H98240  10.116   5.320   9.028 -1.0816 -2.3179 -0.5395
  728MOL0     H98241  10.022   5.282   8.810 -2.3825 -2.4511  1.9710
  728MOL0     H98242   9.741   5.165   8.547 -1.8834  0.6396 -0.4154
  728MOL0     H98243   9.633   5.125   8.320  0.3486 -1.6690  0.1970
  728MOL0     H98244   9.804   5.106   7.960 -1.3631 -1.9520 -1.7461
  728MOL0     H98245   9.742   5.018   8.099  3.4746  0.5225 -1.8206
  728MOL0     H98246   9.579   5.182   7.900 -0.5854  0.8663  2.2971
  728MOL0     H98247   9.610   5.007   7.869  1.7232 -0.7305  0.4827
  728MOL0     H98248   9.458   4.936   8.024 -2.9010  0.1435 -3.0865
  728MOL0     H98249   9.477   5.076   8.131 -0.5407 -0.8227 -0.2051
  728MOL0     H98250   9.317   5.059   7.881  2.0511 -2.0849 -0.2258
  728MOL0     H98251   9.358   5.207   7.961  0.1745 -0.3503 -1.8288
  728MOL0     H98252   9.258   5.066   8.176  0.3382 -4.4618  0.7460
  728MOL0     H98253   9.211   4.945   8.068 -0.0200  0.6294  2.5898
  728MOL0     H98254   9.010   5.109   8.122 -0.5384  2.4454  0.3378
  728MOL0     H98255   9.110   5.231   8.042 -0.1860 -0.2522  1.0898
  728MOL0     H98256   9.033   4.970   7.906 -0.5995  0.2170 -1.2434
  728MOL0     H98257   9.108   5.110   7.830 -0.1243 -3.1785 -2.6926
  728MOL0     H98258   8.852   5.065   7.794 -1.3233  3.8896 -1.6776
  728MOL0     H98259   8.836   5.082   7.965  1.5079 -0.2096  0.0730
  728MOL0     H98260   9.905   5.385   8.129 -1.0209  0.9662  1.3443
  728MOL0     H98261  10.004   5.453   8.357  0.5702  0.3050 -2.0791
  728MOL0     H98262   9.763   5.618   8.849  0.3735 -0.0675 -0.5106
  728MOL0     H98263   9.877   5.685   9.074  0.3987 -1.0281  1.7261
  728MOL0     H98264   9.818   7.100   9.914 -0.0048 -3.0108 -3.1858
  728MOL0     H98265   9.901   7.264  10.078  0.1263 -0.2845  0.6172
  728MOL0     H98266  10.133   7.522  10.223 -1.3670  3.5554 -0.3440
  728MOL0     H98267  10.232   7.697  10.346 -0.2391 -0.1930 -0.6738
  728MOL0     H98268  10.269   7.696  10.782 -0.4201  0.7079  0.5185
  728MOL0     H98269  10.098   7.736  10.774  0.6423 -0.5118  4.4216
  728MOL0     H98270  10.323   7.946  10.764 -0.8043  2.1114 -1.6827
  728MOL0     H98271  10.213   7.912  10.891  1.8117 -3.3777  0.3074
  728MOL0     H98272  10.156   8.001  10.596  3.5395  2.0418  0.4562
  728MOL0     H98273  10.149   8.128  10.718 -3.4875  1.2989 -2.0092
  728MOL0     H98274   9.921   8.007  10.656 -0.7929 -1.5026  0.1523
  728MOL0     H98275   9.967   7.887  10.766  0.0363 -0.8935 -2.5574
  728MOL0     H98276   9.841   8.226  11.009 -0.9119 -1.4896 -0.4288
  728MOL0     H98277  10.058   7.550  10.710  1.5191 -2.3896  0.4919
  728MOL0     H98278  10.012   7.258  10.682 -0.6049  0.5067  1.8566
  728MOL0     H98279   9.919   7.396  10.720  3.0727  1.9331 -0.3658
  728MOL0     H98280   9.865   7.288  10.589 -0.0057 -1.3519  0.4441
  729MOL0     O98281   4.596   3.561   3.510 -0.1444 -0.5480  0.3297
  729MOL0     C98282   4.529   3.653   3.472  0.0486  0.6209 -0.0440
  729MOL0     O98283   4.460   3.746   3.554 -1.5208 -0.4944 -0.1092
  729MOL0     C98284   4.481   3.761   3.694 -0.0701  0.6745 -0.4100
  729MOL0     C98285   4.418   3.869   3.745  0.0356 -1.0284  0.6045
  729MOL0     C98286   4.420   3.880   3.885  0.4122  1.1773 -0.2653
  729MOL0     C98287   4.489   3.789   3.967 -0.8212  0.5819 -0.5671
  729MOL0     O98288   4.489   3.786   4.104 -0.3152 -0.4458 -0.3878
  729MOL0     C98289   4.408   3.889   4.169 -0.4711 -0.0294 -0.6092
  729MOL0     C98290   4.438   3.881   4.319  0.4363 -0.7455 -0.6498
  729MOL0     C98291   4.358   3.980   4.394 -0.0535  0.7798 -0.7972
  729MOL0     C98292   4.394   3.975   4.547  1.1875  0.8499  0.8602
  729MOL0     C98293   4.287   4.053   4.630  0.0476 -0.4806 -0.4913
  729MOL0     C98294   4.326   4.053   4.785 -1.7284 -0.0934 -0.2924
  729MOL0     C98295   4.209   4.089   4.872 -0.6903 -1.4623  0.1036
  729MOL0     C98296   4.112   3.978   4.905 -0.2063  1.1751  0.8447
  729MOL0     N98297   4.009   4.007   5.004 -0.2954 -0.3574 -0.6006
  729MOL0     C98298   3.896   4.090   4.992  0.2022  0.0019  0.2936
  729MOL0     C98299   3.831   4.085   5.113 -0.0132  0.3264  0.0759
  729MOL0     C98300   3.716   4.167   5.161 -0.3101  0.6597 -0.0278
  729MOL0     C98301   3.715   4.310   5.105  0.0281  0.2819  0.1043
  729MOL0     C98302   3.605   4.381   5.191 -0.6247 -0.2812 -0.3871
  729MOL0     C98303   3.662   4.521   5.211  0.4461 -0.3527  0.2317
  729MOL0     O98304   3.752   4.528   5.321 -0.0973  0.7288 -0.6291
  729MOL0     C98305   3.804   4.648   5.355 -1.5935 -0.5863 -0.0729
  729MOL0     C98306   3.814   4.684   5.496  1.9941 -0.5875  0.7301
  729MOL0     C98307   3.853   4.811   5.525  0.2133 -0.2364  0.7260
  729MOL0     C98308   3.892   4.902   5.424  0.2797 -1.3910  0.1372
  729MOL0     C98309   3.926   5.037   5.456 -0.6483  0.0173 -0.9257
  729MOL0     O98310   3.863   5.082   5.580  0.2621  0.6464 -0.1182
  729MOL0     C98311   3.901   5.204   5.624 -0.9002  0.7301 -0.9224
  729MOL0     C98312   4.027   5.253   5.662 -0.8065  0.1276 -0.1429
  729MOL0     C98313   4.051   5.389   5.693 -0.8479  0.8829 -0.0450
  729MOL0     C98314   3.940   5.474   5.693 -0.0431 -0.9529 -0.6436
  729MOL0     O98315   3.949   5.601   5.742 -0.4680 -0.1066  0.2659
  729MOL0     C98316   3.994   5.704   5.648 -0.9996  0.0046 -0.3512
  729MOL0     C98317   3.896   5.823   5.632  0.3188 -0.4976  0.0866
  729MOL0     C98318   3.773   5.797   5.543  0.4388  0.5882  0.0514
  729MOL0     C98319   3.660   5.900   5.561  0.0035 -0.3738  0.8802
  729MOL0     C98320   3.705   6.044   5.542  0.2448 -0.3800 -0.2544
  729MOL0     C98321   3.592   6.145   5.556 -0.1421 -1.1927 -0.4918
  729MOL0     C98322   3.536   6.134   5.698  0.2130  0.6048 -0.0427
  729MOL0     C98323   3.449   6.252   5.728 -0.9754  0.5756 -0.7448
  729MOL0    Cl98324   3.549   6.405   5.709  0.0084  0.1291 -0.1154
  729MOL0     C98325   3.817   5.419   5.662  0.0482 -0.2797 -0.4055
  729MOL0     C98326   3.792   5.290   5.637 -0.2775  0.2406 -0.2623
  729MOL0     O98327   4.001   5.101   5.380  0.1538  0.3552 -0.5895
  729MOL0     C98328   3.866   4.872   5.297  0.0189 -0.0363  0.8470
  729MOL0     C98329   3.828   4.745   5.259 -0.6200  0.1225  0.4706
  729MOL0     N98330   3.899   3.990   5.192 -0.0079 -0.6409 -0.3396
  729MOL0     N98331   3.998   3.935   5.123 -0.2031  0.5431 -0.2511
  729MOL0     C98332   4.546   3.676   3.913 -0.6334 -0.6648 -0.4939
  729MOL0     C98333   4.540   3.665   3.777  0.3515  0.4860 -0.5613
  729MOL0     C98334   4.490   3.661   3.320  0.3402  0.3666 -0.2820
  729MOL0     C98335   4.370   3.738   3.292 -1.0038 -0.1186  0.2415
  729MOL0     C98336   4.343   3.764   3.152  0.4459 -0.0549 -0.3166
  729MOL0     C98337   4.411   3.703   3.051 -0.6147  0.0862 -0.3282
  729MOL0     O98338   4.368   3.723   2.916 -0.4663 -0.2049  0.1983
  729MOL0     C98339   4.345   3.591   2.851 -0.0631  0.1029 -1.4343
  729MOL0     C98340   4.248   3.619   2.737 -0.0998  0.7438 -0.1820
  729MOL0     C98341   4.224   3.487   2.653  0.0500  0.9628 -0.3143
  729MOL0     C98342   4.102   3.506   2.548 -0.3244 -0.1630  0.8522
  729MOL0     C98343   4.145   3.603   2.448 -0.2764  0.7359 -0.8707
  729MOL0     C98344   4.165   3.682   2.357 -0.2863  0.0987  0.5029
  729MOL0     C98345   4.515   3.611   3.086  0.4361  0.7125  0.2130
  729MOL0     C98346   4.554   3.592   3.220 -0.6478 -0.3749 -0.5147
  729MOL0     C98347   4.675   3.502   3.237  0.2060  0.8117 -0.0869
  729MOL0     H98348   4.382   3.941   3.672  1.6058 -0.1816  0.6208
  729MOL0     H98349   4.379   3.972   3.926  1.8855  0.8387  2.1758
  729MOL0     H98350   4.430   3.990   4.132 -0.7271 -0.1708 -1.1621
  729MOL0     H98351   4.302   3.862   4.161 -0.7685 -0.5179  3.1637
  729MOL0     H98352   4.540   3.913   4.341 -0.2296  1.1082 -0.0675
  729MOL0     H98353   4.417   3.781   4.359 -4.2286  0.2165 -0.0961
  729MOL0     H98354   4.253   3.981   4.364 -0.0105  4.0006 -1.2185
  729MOL0     H98355   4.375   4.083   4.361  1.9896  0.3009 -1.3763
  729MOL0     H98356   4.380   3.873   4.584 -3.3345  1.2577  0.8390
  729MOL0     H98357   4.496   4.013   4.555  0.5828  3.2237 -1.3458
  729MOL0     H98358   4.290   4.158   4.603  3.6548 -0.0705  0.9753
  729MOL0     H98359   4.187   4.008   4.624 -0.8173  1.0998  1.0982
  729MOL0     H98360   4.348   3.949   4.814 -1.9471 -0.6696 -2.0835
  729MOL0     H98361   4.415   4.115   4.800 -1.5592 -0.6242  1.0911
  729MOL0     H98362   4.154   4.176   4.834 -1.5355 -1.6677  0.8219
  729MOL0     H98363   4.250   4.107   4.971  1.4084 -0.8205 -0.8209
  729MOL0     H98364   4.051   3.942   4.822 -0.3292 -2.1826  2.2520
  729MOL0     H98365   4.168   3.891   4.939  0.3283  2.0934  2.3951
  729MOL0     H98366   3.856   4.152   4.913 -0.5676  0.9678  1.4013
  729MOL0     H98367   3.622   4.124   5.123  0.0268 -0.4656  0.3821
  729MOL0     H98368   3.724   4.177   5.269  1.1986  2.0918 -0.2377
  729MOL0     H98369   3.816   4.350   5.120 -0.3134  1.5957 -0.8820
  729MOL0     H98370   3.674   4.319   5.004 -1.4859 -3.3287  0.2340
  729MOL0     H98371   3.580   4.330   5.285 -0.8874  0.0379 -0.2816
  729MOL0     H98372   3.515   4.377   5.129  0.7161  0.7662 -2.5173
  729MOL0     H98373   3.575   4.584   5.230  0.3820 -0.0262 -1.0879
  729MOL0     H98374   3.689   4.565   5.115  0.8394  0.8349  0.8708
  729MOL0     H98375   3.784   4.620   5.578 -0.5072  1.2482  1.3917
  729MOL0     H98376   3.839   4.849   5.626 -0.8374  0.6216  0.2781
  729MOL0     H98377   4.109   5.182   5.659 -1.6898 -1.2748  3.7734
  729MOL0     H98378   4.147   5.416   5.736 -0.5744 -0.5261  0.2630
  729MOL0     H98379   4.085   5.747   5.689 -2.1517  2.5855 -0.2879
  729MOL0     H98380   4.025   5.651   5.557  1.6311 -1.5169  1.3088
  729MOL0     H98381   3.867   5.849   5.734 -0.5885 -3.6828  0.7485
  729MOL0     H98382   3.953   5.902   5.581  0.3188 -0.0997  0.6993
  729MOL0     H98383   3.804   5.771   5.442  0.7076 -4.7870  1.2206
  729MOL0     H98384   3.732   5.704   5.584  0.8073  0.8721  1.0892
  729MOL0     H98385   3.607   5.888   5.656 -2.0113  0.0102 -0.1552
  729MOL0     H98386   3.580   5.881   5.488  0.7986  0.7883 -0.3472
  729MOL0     H98387   3.744   6.046   5.440  0.8308 -0.1854 -0.0318
  729MOL0     H98388   3.785   6.069   5.613 -1.2201  1.2980  0.8837
  729MOL0     H98389   3.637   6.242   5.529  1.3165 -1.1942  1.6657
  729MOL0     H98390   3.516   6.123   5.480 -0.5288  1.5327 -0.9964
  729MOL0     H98391   3.617   6.127   5.770 -0.9626 -0.9361  1.1907
  729MOL0     H98392   3.472   6.046   5.709 -0.9056  1.6693  2.8391
  729MOL0     H98393   3.358   6.263   5.668 -2.2065 -2.2254  0.4379
  729MOL0     H98394   3.422   6.254   5.834  0.7746  4.0641 -0.2156
  729MOL0     H98395   3.724   5.474   5.671  1.1863  1.6237  0.4681
  729MOL0     H98396   3.692   5.248   5.633  0.6047 -2.4383  2.2276
  729MOL0     H98397   3.884   4.943   5.216 -1.5399 -0.1862  0.3498
  729MOL0     H98398   3.825   4.722   5.153  2.0201  1.5819 -0.0104
  729MOL0     H98399   4.585   3.594   3.973 -3.2077 -1.3826  0.3289
  729MOL0     H98400   4.576   3.576   3.726 -1.2904 -1.2483  1.1702
  729MOL0     H98401   4.318   3.797   3.368 -2.2963 -1.6352  0.5709
  729MOL0     H98402   4.267   3.841   3.139  0.2229 -0.4445 -1.4066
  729MOL0     H98403   4.302   3.524   2.925  0.7958  2.0550  0.9790
  729MOL0     H98404   4.436   3.548   2.807  0.9898  1.0450 -0.2489
  729MOL0     H98405   4.294   3.692   2.669 -0.8089 -1.0318 -2.7023
  729MOL0     H98406   4.153   3.661   2.772 -1.6876  0.1654 -3.4072
  729MOL0     H98407   4.209   3.402   2.719  3.7110  0.0418 -0.4478
  729MOL0     H98408   4.306   3.461   2.585 -0.4507  0.4620 -0.7257
  729MOL0     H98409   4.062   3.422   2.490 -1.2599  0.6677  0.2600
  729MOL0     H98410   4.014   3.550   2.595  0.5470  2.3123  0.3451
  729MOL0     H98411   4.168   3.742   2.268 -1.0032 -0.0145  0.4019
  729MOL0     H98412   4.562   3.556   3.006 -0.4745 -1.4159  1.0663
  729MOL0     H98413   4.753   3.557   3.290 -0.2637  0.9297  0.4909
  729MOL0     H98414   4.663   3.416   3.303  1.2728  1.8497  1.5412
  729MOL0     H98415   4.706   3.460   3.141  0.2707  1.5160 -0.3759
  730MOL0     O98416   3.605   4.833  10.272 -0.0420  0.2224  0.4693
  730MOL0     C98417   3.601   4.755  10.185  0.4938  0.6666 -0.1971
  730MOL0     O98418   3.708   4.700  10.113  0.3962 -0.3620 -0.2990
  730MOL0     C98419   3.824   4.770  10.102  0.3595  0.0879 -0.2251
  730MOL0     C98420   3.905   4.820  10.221 -0.5321  0.0668  0.2659
  730MOL0     C98421   4.022   4.885  10.198  1.0128  0.5397  0.0898
  730MOL0     C98422   4.074   4.912  10.066  0.0677  0.7131  0.4504
  730MOL0     O98423   4.197   4.969  10.059 -0.4191 -0.1449  0.2003
  730MOL0     C98424   4.307   4.879  10.013  0.4058 -0.2111 -0.6115
  730MOL0     C98425   4.363   4.911   9.877  0.0823 -0.4430 -0.7397
  730MOL0     C98426   4.438   5.040   9.873  0.2860  0.2819  0.1637
  730MOL0     C98427   4.488   5.079   9.733 -0.5984  0.4651 -0.1023
  730MOL0     C98428   4.573   5.207   9.744  0.1569 -0.4516  0.4280
  730MOL0     C98429   4.609   5.252   9.602 -0.9926  0.3829 -0.6421
  730MOL0     C98430   4.709   5.359   9.603 -0.1909  1.0682 -0.3193
  730MOL0     C98431   4.661   5.455   9.491 -0.7589 -0.3921  0.8678
  730MOL0     N98432   4.730   5.586   9.497 -0.4744  0.5277  0.0094
  730MOL0     C98433   4.860   5.597   9.539  0.7809  0.1645 -0.4464
  730MOL0     C98434   4.886   5.722   9.515  0.4977 -0.0835 -2.1746
  730MOL0     C98435   5.009   5.805   9.548 -0.4431  0.8209  0.7796
  730MOL0     C98436   5.137   5.731   9.535 -0.1334 -0.3493 -0.7881
  730MOL0     C98437   5.157   5.662   9.391  0.1063 -0.7042  0.1913
  730MOL0     C98438   5.241   5.535   9.413  0.0930  0.3012 -0.1792
  730MOL0     O98439   5.153   5.425   9.460  0.0248 -0.8331 -0.0364
  730MOL0     C98440   5.183   5.297   9.429  0.9641  0.7938 -0.3831
  730MOL0     C98441   5.305   5.251   9.371  0.3278  0.0301 -0.4042
  730MOL0     C98442   5.330   5.119   9.343 -0.7009  1.0622 -0.6980
  730MOL0     C98443   5.238   5.016   9.374 -0.2523  0.5628  0.5440
  730MOL0     C98444   5.270   4.876   9.355  0.0894  0.8973 -0.2396
  730MOL0     O98445   5.391   4.843   9.317 -0.2096 -1.7491 -0.5171
  730MOL0     C98446   5.435   4.706   9.304 -0.5546  0.1529  0.3215
  730MOL0     C98447   5.489   4.657   9.182 -0.1128  0.5861 -0.7134
  730MOL0     C98448   5.536   4.526   9.157  0.3503  1.2405  0.1648
  730MOL0     C98449   5.527   4.437   9.267  0.1709  0.7058 -0.1286
  730MOL0     O98450   5.545   4.293   9.261  0.7556  0.7775  0.5140
  730MOL0     C98451   5.635   4.248   9.154 -0.8868  0.1180 -0.9073
  730MOL0     C98452   5.687   4.102   9.193 -1.3998 -0.3303  0.4541
  730MOL0     C98453   5.796   4.044   9.110  0.1342  0.1965 -0.0985
  730MOL0     C98454   5.749   4.008   8.964 -0.1910 -0.3039 -0.6281
  730MOL0     C98455   5.856   3.960   8.867 -0.7079  0.6379 -0.2159
  730MOL0     C98456   5.940   3.840   8.912 -0.2634 -0.5919 -0.1504
  730MOL0     C98457   6.060   3.819   8.821  0.4137 -0.4949  0.3994
  730MOL0     C98458   6.129   3.692   8.847  0.1212 -0.2856  0.6293
  730MOL0    Cl98459   6.254   3.677   8.721  0.5320  0.1195  0.0333
  730MOL0     C98460   5.482   4.480   9.393 -0.8382 -0.2426 -0.1462
  730MOL0     C98461   5.441   4.617   9.417 -0.5407  0.2931 -0.7094
  730MOL0     O98462   5.191   4.795   9.404  0.2002  0.1928 -0.1784
  730MOL0     C98463   5.116   5.055   9.429  0.6464  0.4579  0.1772
  730MOL0     C98464   5.085   5.194   9.447 -0.0056 -0.1906  0.0743
  730MOL0     N98465   4.774   5.785   9.482 -0.8915  0.4984  0.8458
  730MOL0     N98466   4.682   5.703   9.468  0.0681 -0.3889 -0.6049
  730MOL0     C98467   4.001   4.863   9.958 -0.0935 -0.2720 -0.0207
  730MOL0     C98468   3.873   4.799   9.980  0.0447 -0.3665 -0.0977
  730MOL0     C98469   3.473   4.688  10.145  0.1125  0.3157 -0.4033
  730MOL0     C98470   3.479   4.600  10.036  0.3142 -0.1033  0.5283
  730MOL0     C98471   3.363   4.526  10.007 -0.1858 -0.5726 -0.6585
  730MOL0     C98472   3.240   4.547  10.069 -0.1903  1.0896  0.1285
  730MOL0     O98473   3.133   4.480  10.022  0.3469 -0.1755  0.0998
  730MOL0     C98474   2.996   4.507  10.061  0.4932  0.3865 -1.2820
  730MOL0     C98475   2.961   4.410  10.173  0.2461  0.8077 -0.2291
  730MOL0     C98476   2.937   4.263  10.115  0.4155  0.0213 -0.6728
  730MOL0     C98477   2.962   4.146  10.215 -0.5017  0.3921  0.0182
  730MOL0     C98478   2.920   4.174  10.349  0.6821  0.4343  0.3353
  730MOL0     C98479   2.872   4.206  10.456 -0.2830  0.1926  0.1401
  730MOL0     C98480   3.239   4.627  10.179  0.2954  0.5380  0.3925
  730MOL0     C98481   3.345   4.705  10.217 -0.1351 -0.3553 -0.2855
  730MOL0     C98482   3.328   4.798  10.331  0.3090 -0.5471 -0.5103
  730MOL0     H98483   3.861   4.803  10.319  0.2001  3.7622  1.3889
  730MOL0     H98484   4.092   4.920  10.274  1.7827 -0.9912  0.1228
  730MOL0     H98485   4.381   4.882  10.094  1.0131 -0.7205 -1.1374
  730MOL0     H98486   4.274   4.776   9.996  0.4278 -0.0522 -1.6195
  730MOL0     H98487   4.277   4.919   9.809  0.8626 -0.9196 -1.8071
  730MOL0     H98488   4.423   4.830   9.835  0.4185 -0.2064 -0.7202
  730MOL0     H98489   4.516   5.033   9.949 -0.0996  1.0654  0.6381
  730MOL0     H98490   4.367   5.117   9.901  2.0111  0.8357  3.4773
  730MOL0     H98491   4.544   4.998   9.685 -0.3298 -0.0690  1.0664
  730MOL0     H98492   4.399   5.094   9.672  0.1626  2.7694 -0.7472
  730MOL0     H98493   4.518   5.288   9.793  1.9773  1.6835 -0.8611
  730MOL0     H98494   4.667   5.189   9.798 -0.0904 -0.3895  0.8822
  730MOL0     H98495   4.660   5.171   9.548  0.3368  1.6559 -1.3853
  730MOL0     H98496   4.525   5.284   9.541 -0.4294  2.5961 -0.3360
  730MOL0     H98497   4.813   5.331   9.583  0.1935  1.4595  1.0053
  730MOL0     H98498   4.714   5.404   9.703 -0.2257 -2.4722  1.4625
  730MOL0     H98499   4.667   5.406   9.393  0.5176 -0.6018  1.0369
  730MOL0     H98500   4.556   5.484   9.503  0.1251  4.0843 -0.5607
  730MOL0     H98501   4.928   5.523   9.581 -0.5385 -1.0949 -0.4349
  730MOL0     H98502   5.011   5.898   9.491  0.3435  1.5218  1.8988
  730MOL0     H98503   5.006   5.812   9.658 -0.2775 -6.4152  1.7260
  730MOL0     H98504   5.221   5.798   9.560 -0.7741  0.1861 -0.0399
  730MOL0     H98505   5.124   5.646   9.602 -3.3113  0.8241  0.2505
  730MOL0     H98506   5.208   5.735   9.327  3.4862 -1.0901  2.1834
  730MOL0     H98507   5.057   5.639   9.352  0.3769 -0.8379 -0.4448
  730MOL0     H98508   5.309   5.558   9.496 -2.0075  2.4986  1.0391
  730MOL0     H98509   5.293   5.512   9.320 -2.8639 -0.0122 -1.8703
  730MOL0     H98510   5.387   5.321   9.354  2.8270 -2.2881  1.2628
  730MOL0     H98511   5.427   5.099   9.298 -0.9347 -0.1217 -0.7074
  730MOL0     H98512   5.506   4.719   9.094  3.2621  1.3364  0.3016
  730MOL0     H98513   5.570   4.489   9.060 -0.3190  1.1711 -0.0481
  730MOL0     H98514   5.582   4.239   9.058 -0.0247  1.8069 -1.5853
  730MOL0     H98515   5.721   4.315   9.157 -1.7822  1.2674  1.7585
  730MOL0     H98516   5.727   4.106   9.294  1.0070 -1.4879 -0.3719
  730MOL0     H98517   5.605   4.031   9.174  0.8775 -2.8854 -0.6059
  730MOL0     H98518   5.888   4.102   9.103  0.4934 -0.5184 -1.7974
  730MOL0     H98519   5.834   3.950   9.152  3.0891  0.8616 -1.0572
  730MOL0     H98520   5.700   4.092   8.913 -2.0387 -1.2170 -0.4444
  730MOL0     H98521   5.682   3.923   8.982 -1.5492  1.4463  4.1648
  730MOL0     H98522   5.913   4.052   8.853 -3.0312  1.9392 -1.7724
  730MOL0     H98523   5.821   3.929   8.768  0.8913  0.9274 -0.9137
  730MOL0     H98524   5.967   3.841   9.018 -0.3434  2.8898 -0.0501
  730MOL0     H98525   5.866   3.760   8.901  1.2756 -2.3990  1.7363
  730MOL0     H98526   6.131   3.903   8.823  0.0804  0.0035 -3.0953
  730MOL0     H98527   6.035   3.811   8.715 -0.0928 -1.1104  0.5642
  730MOL0     H98528   6.158   3.687   8.952 -1.7264 -2.1472  1.1129
  730MOL0     H98529   6.064   3.607   8.825  0.9037 -0.7104 -0.1215
  730MOL0     H98530   5.471   4.395   9.458 -2.5933 -1.3556 -1.7924
  730MOL0     H98531   5.408   4.649   9.515  1.4112  2.4026 -0.6569
  730MOL0     H98532   5.030   4.993   9.453 -0.7159  2.3992  0.4673
  730MOL0     H98533   4.994   5.242   9.481  0.0601  1.0286 -1.3998
  730MOL0     H98534   4.035   4.878   9.856 -1.1938 -0.0904 -0.3759
  730MOL0     H98535   3.804   4.768   9.902 -0.0942  1.2958 -0.6921
  730MOL0     H98536   3.566   4.581   9.975 -0.6616 -1.4423 -0.5148
  730MOL0     H98537   3.352   4.455   9.925 -0.6255 -1.4385  0.1411
  730MOL0     H98538   2.926   4.488   9.978 -0.6363 -2.4784  0.1673
  730MOL0     H98539   2.977   4.606  10.103  0.4723 -0.3143  0.4293
  730MOL0     H98540   2.876   4.448  10.230 -0.3458  0.8067 -1.1011
  730MOL0     H98541   3.044   4.400  10.243  0.6874 -1.5410 -1.0021
  730MOL0     H98542   3.002   4.248  10.028  1.9111  0.0302  0.4021
  730MOL0     H98543   2.831   4.256  10.089 -0.2454 -1.4172  2.0683
  730MOL0     H98544   2.911   4.050  10.200  0.4486 -0.2532  0.7771
  730MOL0     H98545   3.069   4.125  10.210 -0.5650  0.4017 -2.2717
  730MOL0     H98546   2.820   4.220  10.548 -2.1617  2.0240 -1.0966
  730MOL0     H98547   3.141   4.631  10.226  0.3902 -0.0998  0.6596
  730MOL0     H98548   3.230   4.809  10.377  0.9425  1.1289  0.5111
  730MOL0     H98549   3.402   4.776  10.409  1.5511 -0.4074 -1.6077
  730MOL0     H98550   3.343   4.896  10.285  4.5257 -0.7860 -0.0360
  731MOL0     O98551   5.402   5.885   5.858  0.1818  0.6382  0.4541
  731MOL0     C98552   5.395   5.852   5.980 -1.6166  0.0376  0.3534
  731MOL0     O98553   5.279   5.865   6.052 -0.9645  0.4184  1.0260
  731MOL0     C98554   5.211   5.977   6.022  0.5713 -0.8940 -0.9127
  731MOL0     C98555   5.101   5.970   5.941 -0.1190  0.0748  0.8170
  731MOL0     C98556   5.017   6.082   5.903  0.4722  0.7685 -0.0519
  731MOL0     C98557   5.052   6.207   5.950 -0.1730  0.1053  0.3487
  731MOL0     O98558   4.962   6.302   5.917  0.1073  0.0150 -0.2826
  731MOL0     C98559   5.013   6.433   5.899 -0.9258 -0.3910  0.4390
  731MOL0     C98560   4.930   6.510   5.805 -1.2371  1.0707 -0.0026
  731MOL0     C98561   4.933   6.666   5.796 -0.5020  1.6286  0.4740
  731MOL0     C98562   5.072   6.721   5.802 -0.6362  0.0366  0.4223
  731MOL0     C98563   5.095   6.814   5.926 -0.0791  0.5936 -1.1496
  731MOL0     C98564   5.227   6.897   5.925 -0.8650  0.0636 -0.6244
  731MOL0     C98565   5.353   6.811   5.919  0.6897 -1.0861  0.2663
  731MOL0     C98566   5.480   6.888   5.956  0.2901  0.9202  0.1909
  731MOL0     N98567   5.486   6.926   6.094 -0.1750  0.4618 -0.2004
  731MOL0     C98568   5.457   7.049   6.154  0.1792 -0.8016 -0.3493
  731MOL0     C98569   5.513   7.048   6.279  0.0212 -0.2314 -0.3542
  731MOL0     C98570   5.514   7.168   6.377  0.8343  0.1465 -1.0559
  731MOL0     C98571   5.385   7.253   6.395  1.3472  0.6399  0.2113
  731MOL0     C98572   5.259   7.165   6.425 -0.4713  0.7580  0.3658
  731MOL0     C98573   5.226   7.157   6.578  0.0989 -0.1300 -0.6017
  731MOL0     O98574   5.121   7.067   6.610  0.9981 -1.1424  0.4955
  731MOL0     C98575   5.138   6.939   6.640  0.0375 -0.3804 -0.0627
  731MOL0     C98576   5.034   6.861   6.673  0.5129  0.4952  0.4961
  731MOL0     C98577   5.039   6.732   6.711  0.3271 -0.0035  0.3548
  731MOL0     C98578   5.166   6.664   6.704 -0.2974  0.2806  0.4418
  731MOL0     C98579   5.178   6.526   6.731 -0.5133 -0.3398  0.3356
  731MOL0     O98580   5.066   6.473   6.787  0.2941 -0.7966 -0.6073
  731MOL0     C98581   5.046   6.342   6.800  0.7660  0.9514 -0.6319
  731MOL0     C98582   5.108   6.224   6.738 -0.0640 -0.2828  0.2405
  731MOL0     C98583   5.071   6.098   6.768  0.7312  0.3453 -0.5177
  731MOL0     C98584   4.952   6.077   6.835 -0.7724  0.6392  0.3460
  731MOL0     O98585   4.931   5.948   6.864  0.4729  0.1777  0.7684
  731MOL0     C98586   4.838   5.911   6.969  0.7876  0.7217 -0.1562
  731MOL0     C98587   4.898   5.948   7.097 -0.1639  0.1974 -0.2288
  731MOL0     C98588   4.875   5.849   7.219  1.0692  0.6395  0.4111
  731MOL0     C98589   4.913   5.703   7.183  0.5102 -0.4471 -0.1000
  731MOL0     C98590   4.896   5.614   7.303  0.3854  0.2509  0.6483
  731MOL0     C98591   4.945   5.467   7.295  0.3816  0.5680  0.4955
  731MOL0     C98592   4.873   5.366   7.219  0.5189  0.2587 -0.8044
  731MOL0     C98593   4.928   5.229   7.244 -0.8913 -0.0804 -0.7100
  731MOL0    Cl98594   5.101   5.239   7.191  0.2547 -0.2522  0.2725
  731MOL0     C98595   4.877   6.186   6.887 -0.3572 -0.6775 -0.4744
  731MOL0     C98596   4.924   6.320   6.869  0.2696  0.1271 -0.2394
  731MOL0     O98597   5.272   6.464   6.699 -0.3223  0.3916 -0.4105
  731MOL0     C98598   5.279   6.744   6.666 -0.7978  1.5705 -0.8122
  731MOL0     C98599   5.266   6.877   6.639 -0.2515 -0.3278 -0.1670
  731MOL0     N98600   5.575   6.929   6.300 -0.0526  0.3654 -0.5520
  731MOL0     N98601   5.565   6.858   6.183  0.1090  0.9261 -0.4930
  731MOL0     C98602   5.167   6.220   6.043 -0.6210 -0.0821  0.9152
  731MOL0     C98603   5.246   6.104   6.066  0.4464 -0.0983  0.0020
  731MOL0     C98604   5.518   5.785   6.024 -0.9858 -0.4038  0.9648
  731MOL0     C98605   5.640   5.802   5.943  1.3960  1.1671 -0.3696
  731MOL0     C98606   5.764   5.765   5.984 -0.3861  0.0930  0.7711
  731MOL0     C98607   5.784   5.712   6.107 -1.0243  0.4227  0.7627
  731MOL0     O98608   5.910   5.696   6.150 -0.9162 -0.1285 -1.0523
  731MOL0     C98609   5.912   5.607   6.262 -0.0096  1.1402  0.0595
  731MOL0     C98610   6.043   5.531   6.270  0.4591  0.6449 -0.3503
  731MOL0     C98611   6.037   5.435   6.391  0.2024  0.9034 -0.3580
  731MOL0     C98612   5.966   5.300   6.346 -0.4113 -0.0388  0.7677
  731MOL0     C98613   6.054   5.208   6.269 -0.1899 -0.6184 -0.2015
  731MOL0     C98614   6.146   5.150   6.204  0.2857  0.5932  0.4043
  731MOL0     C98615   5.669   5.699   6.192  0.3211  0.6577 -0.4033
  731MOL0     C98616   5.540   5.731   6.158  0.3386  0.0960 -0.4269
  731MOL0     C98617   5.430   5.722   6.256  0.1589 -0.1622 -0.7221
  731MOL0     H98618   5.079   5.874   5.895  1.3625  0.4090 -0.6729
  731MOL0     H98619   4.935   6.081   5.831 -0.8830  1.4351  1.4138
  731MOL0     H98620   5.027   6.486   5.994 -1.5706 -1.8938  1.4129
  731MOL0     H98621   5.104   6.429   5.840 -1.2062 -0.7803  0.0296
  731MOL0     H98622   4.824   6.489   5.820 -0.6864  0.4501  4.1289
  731MOL0     H98623   4.945   6.474   5.702  0.3416 -0.2688  0.6543
  731MOL0     H98624   4.872   6.703   5.879 -3.4605  0.8466 -1.1835
  731MOL0     H98625   4.884   6.703   5.705  1.3628  1.8048 -0.5150
  731MOL0     H98626   5.150   6.645   5.809 -2.6392 -2.2845 -1.0894
  731MOL0     H98627   5.077   6.791   5.718 -5.6900  3.6203  2.5984
  731MOL0     H98628   5.011   6.879   5.952 -0.8621 -0.9335  0.4409
  731MOL0     H98629   5.089   6.755   6.018 -3.1243  2.2222 -0.1688
  731MOL0     H98630   5.228   6.959   5.835 -2.8300  1.2461  0.0873
  731MOL0     H98631   5.238   6.955   6.017  2.1543  1.0533 -1.4977
  731MOL0     H98632   5.377   6.792   5.813 -0.8105 -1.9422  0.0598
  731MOL0     H98633   5.338   6.717   5.972 -0.0286 -0.0972  1.8805
  731MOL0     H98634   5.561   6.821   5.930  0.8215  1.7798 -0.4098
  731MOL0     H98635   5.493   6.975   5.890  0.1176 -0.5617 -1.8884
  731MOL0     H98636   5.380   7.121   6.131  0.5213 -1.6398 -5.0241
  731MOL0     H98637   5.545   7.132   6.476 -0.6087  1.7402  0.0464
  731MOL0     H98638   5.589   7.237   6.339  2.9626 -2.7952 -2.5539
  731MOL0     H98639   5.400   7.328   6.473  1.0447  3.0394 -1.8745
  731MOL0     H98640   5.370   7.297   6.296  1.8093 -0.3337 -0.3076
  731MOL0     H98641   5.276   7.060   6.401  2.0944  1.1260  0.3134
  731MOL0     H98642   5.164   7.201   6.382 -3.4685  0.0956  5.5363
  731MOL0     H98643   5.187   7.256   6.606  2.3488  0.1194  2.0971
  731MOL0     H98644   5.323   7.154   6.627  0.1330 -2.8329 -0.7131
  731MOL0     H98645   4.938   6.910   6.656  1.3911  2.1647  0.1846
  731MOL0     H98646   4.950   6.671   6.722  0.8661 -1.2171 -1.5496
  731MOL0     H98647   5.195   6.244   6.676  0.7170  1.1929  1.7268
  731MOL0     H98648   5.123   6.020   6.712  0.7923  1.0916 -1.5147
  731MOL0     H98649   4.736   5.947   6.955  0.2841 -0.8723 -0.7657
  731MOL0     H98650   4.806   5.807   6.973  1.0907  0.6699  1.3486
  731MOL0     H98651   5.007   5.942   7.100 -0.0006  1.7467 -1.7557
  731MOL0     H98652   4.884   6.055   7.113  0.9147  0.2902  0.1721
  731MOL0     H98653   4.931   5.884   7.306  0.9954 -1.7751  1.4934
  731MOL0     H98654   4.767   5.853   7.236  0.8766  0.6570 -0.7169
  731MOL0     H98655   5.017   5.705   7.152  1.3121 -0.3134  2.4004
  731MOL0     H98656   4.851   5.661   7.103  0.6895 -1.1468  0.1258
  731MOL0     H98657   4.789   5.617   7.329  0.3655 -0.5180  0.6539
  731MOL0     H98658   4.944   5.671   7.384 -0.9149 -0.0848  1.6979
  731MOL0     H98659   5.042   5.477   7.246  0.8493  1.3836  1.5456
  731MOL0     H98660   4.960   5.446   7.401 -3.1245  0.4748  1.1033
  731MOL0     H98661   4.878   5.384   7.111 -0.3592 -1.0378 -1.0843
  731MOL0     H98662   4.767   5.381   7.243  0.1282 -3.8117  0.9426
  731MOL0     H98663   4.909   5.208   7.350  0.2879  1.1390 -0.2304
  731MOL0     H98664   4.872   5.150   7.192 -1.4177 -1.0853  1.2745
  731MOL0     H98665   4.781   6.176   6.935 -0.1095 -0.2709  0.1188
  731MOL0     H98666   4.876   6.406   6.915  0.3690  0.0985 -0.0815
  731MOL0     H98667   5.377   6.697   6.672 -0.6872  1.9929  3.6691
  731MOL0     H98668   5.348   6.940   6.606 -2.1604  2.7762  0.6265
  731MOL0     H98669   5.198   6.318   6.077  0.5752  0.1259 -0.6821
  731MOL0     H98670   5.331   6.099   6.134 -0.8882 -1.7457  1.6531
  731MOL0     H98671   5.645   5.862   5.853 -1.0283  1.5336 -0.3314
  731MOL0     H98672   5.850   5.789   5.921  0.6366  0.1812  2.1483
  731MOL0     H98673   5.839   5.526   6.256  1.1729  0.0840 -0.4680
  731MOL0     H98674   5.885   5.662   6.353 -0.5731 -1.3408  1.4743
  731MOL0     H98675   6.131   5.594   6.287 -1.2746  3.0165  0.2867
  731MOL0     H98676   6.055   5.480   6.174 -0.4495  0.4299 -0.3591
  731MOL0     H98677   5.978   5.461   6.479  2.2153  1.8902  0.7654
  731MOL0     H98678   6.138   5.423   6.430 -0.7640 -0.0861  2.0240
  731MOL0     H98679   5.920   5.241   6.426  0.0066 -0.2604  0.8501
  731MOL0     H98680   5.874   5.323   6.292  1.4928 -1.1742 -3.3733
  731MOL0     H98681   6.221   5.095   6.152 -0.7159  0.4428 -0.9381
  731MOL0     H98682   5.675   5.675   6.298 -0.1103  3.0071  0.2108
  731MOL0     H98683   5.419   5.821   6.301  0.7775  0.7505 -2.4758
  731MOL0     H98684   5.340   5.686   6.204 -0.1536  0.6230 -0.7399
  731MOL0     H98685   5.440   5.653   6.340 -0.3366  0.0932 -0.4474
  732MOL0     O98686   6.391   5.744   0.011  0.1519  0.5348 -0.0235
  732MOL0     C98687   6.405   5.631   0.047  0.4969  0.6830 -1.1952
  732MOL0     O98688   6.333   5.566   0.150  0.3734  0.2021  0.1373
  732MOL0     C98689   6.254   5.640   0.240  0.4071 -0.4175  0.0683
  732MOL0     C98690   6.322   5.697   0.349  0.3541 -0.1639  0.3167
  732MOL0     C98691   6.255   5.784   0.433 -0.1395  0.0501  0.4478
  732MOL0     C98692   6.109   5.797   0.424 -0.2524  0.5192 -0.6585
  732MOL0     O98693   6.048   5.872   0.524  0.4022  0.5497  0.1886
  732MOL0     C98694   6.102   5.839   0.659 -0.0953  0.5099  1.1514
  732MOL0     C98695   5.969   5.828   0.736 -0.1213 -0.2248  0.5605
  732MOL0     C98696   5.996   5.807   0.888  0.4525  0.2950 -0.0435
  732MOL0     C98697   5.862   5.789   0.971 -0.3803 -0.9346 -0.2059
  732MOL0     C98698   5.881   5.746   1.126 -0.2024 -0.4284 -0.5632
  732MOL0     C98699   5.941   5.857   1.209 -0.4311 -0.2315  0.3697
  732MOL0     C98700   5.920   5.838   1.360 -0.3231  0.3215  0.2278
  732MOL0     C98701   5.999   5.723   1.427 -0.4258 -0.1781  0.0188
  732MOL0     N98702   5.978   5.752   1.562  0.9123 -0.1061 -0.0552
  732MOL0     C98703   5.878   5.714   1.650 -0.3285  1.2112 -0.3933
  732MOL0     C98704   5.913   5.774   1.770 -0.9112  0.4778 -0.1734
  732MOL0     C98705   5.816   5.801   1.885  0.1679 -0.4908 -0.3935
  732MOL0     C98706   5.769   5.680   1.964 -0.9259 -0.5207 -0.8949
  732MOL0     C98707   5.638   5.708   2.032 -0.2442 -0.6670 -0.5140
  732MOL0     C98708   5.638   5.801   2.156 -0.2442  1.2872 -0.1512
  732MOL0     O98709   5.653   5.932   2.112  0.2762  0.8040 -0.4267
  732MOL0     C98710   5.732   6.015   2.187  0.4069  0.1842 -0.0223
  732MOL0     C98711   5.803   6.118   2.131 -0.0267 -0.7853 -1.1670
  732MOL0     C98712   5.861   6.223   2.206 -0.3170  0.9244  0.2339
  732MOL0     C98713   5.864   6.214   2.341 -0.5170  0.9641 -0.4530
  732MOL0     C98714   5.923   6.317   2.413 -0.0934  0.5753  0.0049
  732MOL0     O98715   5.977   6.432   2.347  0.5870  0.0380 -0.1792
  732MOL0     C98716   6.044   6.509   2.435 -0.6880 -0.0972  1.3052
  732MOL0     C98717   5.994   6.627   2.488  0.2181 -0.3442  0.9924
  732MOL0     C98718   6.083   6.704   2.563 -0.8148  0.0677 -0.7863
  732MOL0     C98719   6.215   6.673   2.595  0.6875 -0.9643 -0.0897
  732MOL0     O98720   6.271   6.778   2.675 -0.2334 -0.2516  0.1144
  732MOL0     C98721   6.414   6.797   2.654  0.2503 -0.1622 -0.6141
  732MOL0     C98722   6.470   6.909   2.733  0.5984 -0.0791 -0.1660
  732MOL0     C98723   6.457   6.870   2.886 -0.1717  0.4852 -0.3548
  732MOL0     C98724   6.483   6.731   2.924 -0.3391 -0.2833 -0.1680
  732MOL0     C98725   6.452   6.717   3.080  0.3417  0.7393  0.5276
  732MOL0     C98726   6.522   6.609   3.154 -0.2667  1.3162 -0.3860
  732MOL0     C98727   6.525   6.474   3.095 -0.1875  0.3689  1.4063
  732MOL0     C98728   6.631   6.378   3.128 -0.1212  0.0995 -1.4356
  732MOL0    Cl98729   6.649   6.241   3.013 -0.1078  0.1638  0.1667
  732MOL0     C98730   6.269   6.557   2.548 -0.5593  0.1520 -0.7955
  732MOL0     C98731   6.183   6.471   2.466 -0.4680 -1.0640 -0.6193
  732MOL0     O98732   5.922   6.309   2.532  0.5020 -0.0838 -0.4030
  732MOL0     C98733   5.800   6.104   2.401 -0.1181  1.2247 -0.3384
  732MOL0     C98734   5.723   6.007   2.324 -0.0756  0.5860  0.1577
  732MOL0     N98735   6.028   5.829   1.755 -0.4990  0.2714 -0.3259
  732MOL0     N98736   6.077   5.812   1.632 -0.2343  1.5889 -0.0735
  732MOL0     C98737   6.040   5.730   0.320 -0.5134 -0.2351  0.5761
  732MOL0     C98738   6.113   5.647   0.226  0.1978  1.0678  0.0594
  732MOL0     C98739   6.513   5.554  -0.016  0.1035 -0.1693  0.1067
  732MOL0     C98740   6.593   5.615  -0.111  0.1819 -0.4406  0.7690
  732MOL0     C98741   6.665   5.545  -0.211  0.2342  0.6387  0.1356
  732MOL0     C98742   6.680   5.411  -0.204 -0.4855  0.1048  1.0819
  732MOL0     O98743   6.769   5.355  -0.289  0.0673  0.5524  0.0112
  732MOL0     C98744   6.727   5.265  -0.392 -0.5849  0.1785  0.2654
  732MOL0     C98745   6.816   5.151  -0.420  0.3808 -1.0687  0.2710
  732MOL0     C98746   6.862   5.090  -0.285  0.3073  0.0498 -0.0988
  732MOL0     C98747   6.936   4.958  -0.307  0.9225 -0.4991  0.2618
  732MOL0     C98748   6.840   4.852  -0.342 -0.4522 -0.3360 -0.2982
  732MOL0     C98749   6.755   4.768  -0.354  0.2835  0.5188  0.1286
  732MOL0     C98750   6.618   5.346  -0.096 -0.0596  0.3472  0.2150
  732MOL0     C98751   6.527   5.412  -0.009  0.6131 -0.1812 -0.2584
  732MOL0     C98752   6.465   5.323   0.092  0.2602 -0.5953  0.9597
  732MOL0     H98753   6.430   5.679   0.346  0.3831  0.1260 -0.7984
  732MOL0     H98754   6.312   5.845   0.503 -0.0007  1.4971 -0.8763
  732MOL0     H98755   6.137   5.736   0.651 -1.3582 -0.1216  3.0643
  732MOL0     H98756   6.177   5.907   0.699 -1.1801  1.5237  1.5325
  732MOL0     H98757   5.909   5.744   0.700 -1.1536 -0.0379  1.7830
  732MOL0     H98758   5.926   5.927   0.719  1.3407  0.7083  1.9451
  732MOL0     H98759   6.057   5.889   0.928 -1.7159  1.2715  1.4709
  732MOL0     H98760   6.056   5.716   0.890 -0.7534 -0.8011 -4.6598
  732MOL0     H98761   5.810   5.885   0.961  1.2868  0.1252  0.7643
  732MOL0     H98762   5.801   5.717   0.916  0.0747 -1.0305 -0.5837
  732MOL0     H98763   5.780   5.736   1.168 -0.5170 -2.8360 -1.7444
  732MOL0     H98764   5.942   5.656   1.128  3.2165  1.7257  0.6253
  732MOL0     H98765   6.046   5.868   1.183 -0.5248  0.4593  0.2756
  732MOL0     H98766   5.881   5.941   1.171 -1.1338 -0.8003  0.1848
  732MOL0     H98767   5.816   5.842   1.395  0.4300  1.2688  2.5749
  732MOL0     H98768   5.963   5.933   1.393  0.2433 -0.7368  2.7687
  732MOL0     H98769   5.958   5.627   1.396 -2.6028  0.5437  0.4943
  732MOL0     H98770   6.105   5.718   1.400 -0.5453 -0.0130 -0.4941
  732MOL0     H98771   5.774   5.683   1.638 -1.1056  3.2060  0.7061
  732MOL0     H98772   5.862   5.871   1.955  2.1530 -0.1582 -1.9549
  732MOL0     H98773   5.729   5.841   1.832  1.6302  0.8933 -1.8669
  732MOL0     H98774   5.764   5.588   1.905 -1.4931 -0.2887 -1.2161
  732MOL0     H98775   5.851   5.647   2.029 -0.4715 -0.8346 -1.6172
  732MOL0     H98776   5.617   5.609   2.075  0.5763 -1.1106 -1.0982
  732MOL0     H98777   5.567   5.744   1.957 -2.5088 -0.9552  1.3778
  732MOL0     H98778   5.721   5.775   2.223  1.0414  0.8141 -1.8257
  732MOL0     H98779   5.542   5.801   2.206 -0.2548 -1.0799 -0.0822
  732MOL0     H98780   5.804   6.118   2.022  0.6503  2.1546 -1.2332
  732MOL0     H98781   5.908   6.309   2.159  2.1389 -0.4253  0.0384
  732MOL0     H98782   5.890   6.647   2.462 -0.0124 -2.5456 -0.0301
  732MOL0     H98783   6.040   6.790   2.615 -0.3050  0.9056 -1.7086
  732MOL0     H98784   6.466   6.701   2.661  1.5102  0.4895 -0.7920
  732MOL0     H98785   6.428   6.812   2.546 -0.5743 -4.8140 -1.5820
  732MOL0     H98786   6.574   6.930   2.707  1.4477  0.1654  3.0198
  732MOL0     H98787   6.399   6.988   2.707 -2.7941 -2.5402  0.8985
  732MOL0     H98788   6.521   6.935   2.946  2.8212 -2.5274  0.0415
  732MOL0     H98789   6.357   6.890   2.924 -0.3830 -1.5927  0.3172
  732MOL0     H98790   6.588   6.706   2.907  0.0445 -1.7979  3.5236
  732MOL0     H98791   6.415   6.664   2.869  0.3728 -0.1817 -1.2018
  732MOL0     H98792   6.345   6.698   3.092  0.5292 -2.1578 -1.3928
  732MOL0     H98793   6.485   6.808   3.131  0.3977  0.5123  0.9041
  732MOL0     H98794   6.625   6.641   3.174 -0.1383  1.3968 -1.1177
  732MOL0     H98795   6.483   6.589   3.254  1.4879  1.6437  0.4039
  732MOL0     H98796   6.509   6.475   2.987 -0.9395  1.1149  1.5106
  732MOL0     H98797   6.432   6.424   3.126 -1.7785  0.0170 -3.1607
  732MOL0     H98798   6.728   6.426   3.144  1.4311 -2.8252 -1.2702
  732MOL0     H98799   6.609   6.331   3.224 -3.1856  0.8081 -1.7059
  732MOL0     H98800   6.375   6.536   2.562 -0.8043  0.8351  3.0964
  732MOL0     H98801   6.206   6.375   2.423  0.7259 -0.2178 -1.9525
  732MOL0     H98802   5.792   6.109   2.509 -6.3262  1.2076 -0.4316
  732MOL0     H98803   5.671   5.926   2.374  0.7453 -1.8116 -2.5625
  732MOL0     H98804   5.932   5.735   0.310 -0.3375 -0.5642 -2.5533
  732MOL0     H98805   6.054   5.596   0.151  0.8443  0.4560 -0.0488
  732MOL0     H98806   6.591   5.723  -0.119  2.6135 -0.3200  0.8873
  732MOL0     H98807   6.721   5.602  -0.284  2.2308  0.1146  1.1902
  732MOL0     H98808   6.715   5.324  -0.484  1.9706 -0.5530 -0.6308
  732MOL0     H98809   6.630   5.221  -0.369 -0.5154  0.0020  0.2187
  732MOL0     H98810   6.908   5.190  -0.464 -1.2333  0.9414 -1.5274
  732MOL0     H98811   6.773   5.094  -0.502  2.2450  0.4834 -1.9211
  732MOL0     H98812   6.770   5.063  -0.231  1.4430 -0.2908  1.7465
  732MOL0     H98813   6.922   5.161  -0.228  0.7798  0.1742 -0.7454
  732MOL0     H98814   7.017   4.965  -0.380  0.1621  2.0155 -0.4339
  732MOL0     H98815   6.983   4.931  -0.212 -0.9769  0.2483  1.4806
  732MOL0     H98816   6.681   4.691  -0.354  1.9800 -1.2298 -1.8099
  732MOL0     H98817   6.643   5.242  -0.077 -0.2974  0.2550  0.0226
  732MOL0     H98818   6.478   5.363   0.193  3.1356 -1.4343  0.9968
  732MOL0     H98819   6.359   5.321   0.062  0.2008 -0.0862  1.1167
  732MOL0     H98820   6.510   5.226   0.073  1.7531  0.2889 -0.1990
  733MOL0     O98821   8.534   2.362   3.566 -0.1268  0.1411 -0.0957
  733MOL0     C98822   8.551   2.417   3.458 -0.2017 -0.1548  1.0566
  733MOL0     O98823   8.597   2.349   3.348 -0.0766  0.0170  0.9475
  733MOL0     C98824   8.629   2.211   3.353 -0.1751 -0.2731  0.4552
  733MOL0     C98825   8.769   2.172   3.333  0.1014  0.7780  0.2520
  733MOL0     C98826   8.791   2.035   3.339  0.4146  0.3873 -0.0286
  733MOL0     C98827   8.695   1.935   3.358 -0.2216 -0.1757 -0.2352
  733MOL0     O98828   8.724   1.805   3.373 -0.0421 -0.1922 -0.5155
  733MOL0     C98829   8.762   1.738   3.255 -1.0988  0.4643  0.1050
  733MOL0     C98830   8.636   1.673   3.206  0.6884 -0.1795 -0.6078
  733MOL0     C98831   8.565   1.575   3.314 -1.2980 -0.6482 -0.8820
  733MOL0     C98832   8.445   1.507   3.252  0.5852  0.5983 -0.0102
  733MOL0     C98833   8.321   1.599   3.226  0.0505 -0.7770 -0.8120
  733MOL0     C98834   8.198   1.520   3.188  0.6217  0.7120  0.5149
  733MOL0     C98835   8.138   1.456   3.321  0.1660  0.6557  0.8379
  733MOL0     C98836   8.082   1.564   3.419 -0.0785  1.3461 -0.0605
  733MOL0     N98837   8.027   1.495   3.539  0.6989 -0.9580  0.5460
  733MOL0     C98838   8.085   1.465   3.662 -0.2219 -0.6394  1.2559
  733MOL0     C98839   7.974   1.449   3.738  0.7957 -0.6435  0.4724
  733MOL0     C98840   7.974   1.400   3.880  0.7704 -0.2468  0.6512
  733MOL0     C98841   8.003   1.518   3.981  0.5624  0.5615 -0.2887
  733MOL0     C98842   8.042   1.457   4.119  0.4569 -0.0297  0.3547
  733MOL0     C98843   8.190   1.422   4.131 -0.7411  0.8896 -1.1219
  733MOL0     O98844   8.262   1.536   4.171  0.6700 -0.4639  0.0276
  733MOL0     C98845   8.387   1.525   4.225 -0.5959 -0.3052 -0.8562
  733MOL0     C98846   8.466   1.412   4.193  0.3859  0.5007 -0.2069
  733MOL0     C98847   8.598   1.396   4.225  1.3403 -0.0671 -0.4388
  733MOL0     C98848   8.666   1.505   4.285  0.5346  0.1106  0.4720
  733MOL0     C98849   8.806   1.505   4.312  0.6091  0.4856 -0.4150
  733MOL0     O98850   8.854   1.595   4.391 -0.3514 -0.5039 -0.3187
  733MOL0     C98851   8.994   1.609   4.404 -0.3790 -0.8288  1.0052
  733MOL0     C98852   9.035   1.735   4.454 -0.6073 -0.0533  0.0540
  733MOL0     C98853   9.172   1.781   4.446 -0.1476  0.7429  0.5936
  733MOL0     C98854   9.263   1.690   4.404  0.1568  0.1550 -1.1668
  733MOL0     O98855   9.391   1.739   4.388  0.1236 -0.0247  0.6567
  733MOL0     C98856   9.504   1.648   4.419 -0.6921  0.0954 -0.5308
  733MOL0     C98857   9.629   1.719   4.471  0.7792  0.2282  0.5674
  733MOL0     C98858   9.710   1.781   4.357 -0.4862 -1.1322  0.6996
  733MOL0     C98859   9.856   1.825   4.413  0.3759 -0.4084 -0.0637
  733MOL0     C98860   9.919   1.911   4.303 -0.2577 -0.1247  0.9200
  733MOL0     C98861  10.037   1.975   4.358 -0.0092 -0.5554 -0.0108
  733MOL0     C98862  10.096   2.080   4.265 -0.0760 -0.3992 -0.3063
  733MOL0     C98863  10.240   2.120   4.305  0.1298  0.0409 -0.3184
  733MOL0    Cl98864  10.359   1.993   4.323  0.1049  0.3352  0.1566
  733MOL0     C98865   9.227   1.554   4.374 -0.4087 -0.9455  0.2439
  733MOL0     C98866   9.097   1.513   4.369 -1.0782 -0.4300 -0.0016
  733MOL0     O98867   8.861   1.396   4.275  0.0130  0.3097 -0.3933
  733MOL0     C98868   8.589   1.618   4.330  1.1399  0.5669 -0.2559
  733MOL0     C98869   8.458   1.624   4.297 -0.4003  0.1977 -0.0055
  733MOL0     N98870   7.853   1.461   3.673 -0.5294 -0.2365 -0.1433
  733MOL0     N98871   7.889   1.491   3.552 -0.0739 -0.2298 -1.2538
  733MOL0     C98872   8.561   1.976   3.370  0.6012  0.4668  0.4116
  733MOL0     C98873   8.527   2.112   3.368  0.0038  0.4097 -0.8490
  733MOL0     C98874   8.511   2.555   3.425 -0.1439  0.6865  0.6472
  733MOL0     C98875   8.488   2.590   3.295 -0.6816 -0.2177 -0.3041
  733MOL0     C98876   8.468   2.723   3.254 -1.0034  0.3529 -0.1478
  733MOL0     C98877   8.473   2.825   3.350 -0.5666  0.2145 -0.3843
  733MOL0     O98878   8.455   2.963   3.336  0.0027  0.0966 -0.3725
  733MOL0     C98879   8.419   3.013   3.208 -0.1416 -0.1564 -0.6461
  733MOL0     C98880   8.372   3.161   3.217 -0.5077  0.1601 -0.0548
  733MOL0     C98881   8.466   3.249   3.303  0.6406 -0.1782  0.5059
  733MOL0     C98882   8.413   3.393   3.306 -0.5284  0.3076 -0.6328
  733MOL0     C98883   8.475   3.463   3.185 -0.6118 -0.1809 -0.0521
  733MOL0     C98884   8.508   3.535   3.100  0.0983 -1.0936  0.6418
  733MOL0     C98885   8.496   2.792   3.484 -0.1040  0.6345  0.4025
  733MOL0     C98886   8.506   2.654   3.526 -1.1127 -0.0481  0.8636
  733MOL0     C98887   8.518   2.619   3.675 -0.4054 -0.3157  0.1761
  733MOL0     H98888   8.849   2.244   3.323  1.2824 -0.7908 -3.3426
  733MOL0     H98889   8.893   1.997   3.346 -0.8094 -3.0613  2.2394
  733MOL0     H98890   8.808   1.805   3.183  0.2651 -1.6317 -1.0628
  733MOL0     H98891   8.840   1.662   3.259 -1.4504  0.0732 -0.3856
  733MOL0     H98892   8.665   1.619   3.116 -1.3831 -0.6042 -1.0714
  733MOL0     H98893   8.557   1.745   3.186  0.5262  0.7611  2.8379
  733MOL0     H98894   8.527   1.638   3.396  1.4503  2.4838 -1.7770
  733MOL0     H98895   8.635   1.497   3.345 -4.5299 -4.1983 -1.8149
  733MOL0     H98896   8.472   1.458   3.158  1.9607  0.2933  0.5256
  733MOL0     H98897   8.421   1.424   3.319 -1.9097  1.6780  0.5487
  733MOL0     H98898   8.307   1.656   3.318 -5.2008 -0.1297 -1.7137
  733MOL0     H98899   8.335   1.674   3.147 -0.7080  1.6358  1.2000
  733MOL0     H98900   8.128   1.589   3.140  0.5985  0.3717  0.0564
  733MOL0     H98901   8.210   1.438   3.117  1.9340 -1.3509  2.9404
  733MOL0     H98902   8.206   1.397   3.383 -1.5241  1.5989  3.7660
  733MOL0     H98903   8.068   1.375   3.297 -0.0381  0.5655  1.7031
  733MOL0     H98904   8.159   1.628   3.464 -1.1724 -1.0519  6.1789
  733MOL0     H98905   8.009   1.629   3.371 -0.8271  1.9153  1.7931
  733MOL0     H98906   8.191   1.455   3.683 -0.5719 -4.1209  1.9890
  733MOL0     H98907   7.876   1.358   3.903  0.8722  0.6942  3.2036
  733MOL0     H98908   8.052   1.324   3.893  2.1976  1.3373  2.0991
  733MOL0     H98909   8.087   1.575   3.940  0.1378  1.2167 -0.2566
  733MOL0     H98910   7.925   1.593   3.993 -0.0722  0.1446 -1.6199
  733MOL0     H98911   7.967   1.383   4.150  0.5761 -0.0774  0.5349
  733MOL0     H98912   8.020   1.537   4.190 -1.2739  1.6781 -1.9680
  733MOL0     H98913   8.212   1.394   4.028 -1.9694 -4.2568 -0.2655
  733MOL0     H98914   8.192   1.343   4.207 -2.0948  3.7974  2.2214
  733MOL0     H98915   8.423   1.328   4.138 -0.6979  0.8526  0.0774
  733MOL0     H98916   8.658   1.313   4.188  3.9175  1.6970 -0.5196
  733MOL0     H98917   8.951   1.800   4.474  0.9073  1.8143  0.6458
  733MOL0     H98918   9.193   1.884   4.476 -0.0140  0.4988  1.3518
  733MOL0     H98919   9.469   1.581   4.498 -0.5320 -2.3288 -2.3983
  733MOL0     H98920   9.526   1.591   4.328 -1.5475  0.5198 -1.0186
  733MOL0     H98921   9.595   1.795   4.542  1.7873  2.9520 -1.6760
  733MOL0     H98922   9.686   1.635   4.510  0.7093 -0.5690 -0.9602
  733MOL0     H98923   9.728   1.710   4.276  1.2933  0.6084 -0.5200
  733MOL0     H98924   9.659   1.870   4.317 -0.8763 -2.3086 -1.5767
  733MOL0     H98925   9.922   1.739   4.426  2.7109  0.9912 -1.9985
  733MOL0     H98926   9.838   1.888   4.501 -1.7179 -3.5614  1.9890
  733MOL0     H98927   9.860   1.994   4.264  0.1249 -0.4264 -0.3421
  733MOL0     H98928   9.943   1.844   4.220 -0.7003 -0.1307  0.7931
  733MOL0     H98929  10.011   2.026   4.451 -0.8243 -2.5622  0.9209
  733MOL0     H98930  10.122   1.911   4.382  1.1440  1.0411  0.3451
  733MOL0     H98931  10.020   2.159   4.264 -2.4787 -2.5617  0.2403
  733MOL0     H98932  10.094   2.031   4.167 -1.5272 -3.4767  1.1207
  733MOL0     H98933  10.272   2.206   4.246  1.8703  1.1953  2.1423
  733MOL0     H98934  10.225   2.166   4.403  1.8443  1.4428 -0.6785
  733MOL0     H98935   9.312   1.497   4.337  3.5600  2.9180  2.4137
  733MOL0     H98936   9.084   1.414   4.325  0.8012 -1.2659  1.1843
  733MOL0     H98937   8.629   1.697   4.392 -2.2883  1.1277  1.4589
  733MOL0     H98938   8.413   1.720   4.323 -2.0568 -0.6632  0.4170
  733MOL0     H98939   8.483   1.903   3.385  0.5627 -0.6682 -4.0516
  733MOL0     H98940   8.420   2.126   3.375 -0.0132 -0.1701  0.2103
  733MOL0     H98941   8.462   2.516   3.221 -0.1275  1.6309 -2.4373
  733MOL0     H98942   8.439   2.753   3.154  0.0558 -0.1791 -0.6363
  733MOL0     H98943   8.331   2.969   3.160 -2.1128  1.8829  0.8621
  733MOL0     H98944   8.504   2.992   3.143 -0.7174 -3.3508 -0.5382
  733MOL0     H98945   8.270   3.158   3.257  0.3999 -1.0112  2.4246
  733MOL0     H98946   8.379   3.203   3.117 -1.1494  4.1225  1.3662
  733MOL0     H98947   8.563   3.236   3.254  0.5782 -0.0942  0.3591
  733MOL0     H98948   8.468   3.205   3.403 -1.8582 -2.6583 -0.3874
  733MOL0     H98949   8.304   3.402   3.309 -0.9129 -3.1260  0.6082
  733MOL0     H98950   8.457   3.438   3.396  3.6911 -3.0341 -0.7235
  733MOL0     H98951   8.516   3.595   3.011 -1.8404 -1.7962 -0.0476
  733MOL0     H98952   8.487   2.873   3.557 -0.7808  1.1397 -0.2208
  733MOL0     H98953   8.430   2.564   3.710 -2.8694  1.6669 -2.4428
  733MOL0     H98954   8.608   2.564   3.706 -0.7351 -1.3513 -0.6337
  733MOL0     H98955   8.524   2.708   3.738 -1.1933  0.4079 -0.7402
  734MOL0     O98956   9.027   7.553   3.004 -0.0155  0.3556  0.0276
  734MOL0     C98957   9.038   7.458   3.084  0.0051  0.4815  0.1237
  734MOL0     O98958   8.929   7.381   3.127  0.0643  0.9756 -0.2844
  734MOL0     C98959   8.815   7.375   3.057 -0.2812  0.4238  0.5569
  734MOL0     C98960   8.798   7.361   2.915 -0.3026 -0.4694 -0.1571
  734MOL0     C98961   8.682   7.340   2.857  0.4579  0.4989  1.5159
  734MOL0     C98962   8.563   7.335   2.932 -0.4235 -0.4806 -0.0854
  734MOL0     O98963   8.442   7.306   2.871  0.3451  0.1801  0.0477
  734MOL0     C98964   8.435   7.318   2.727 -0.5521 -0.5432 -0.5266
  734MOL0     C98965   8.281   7.306   2.720 -0.3064  0.3456  0.8228
  734MOL0     C98966   8.238   7.315   2.576 -0.4396  1.1246  0.1522
  734MOL0     C98967   8.247   7.452   2.513  0.5606  0.4767 -0.3079
  734MOL0     C98968   8.178   7.464   2.372 -0.1419 -0.5499  0.9668
  734MOL0     C98969   8.200   7.595   2.312 -0.2235  0.3278 -0.5700
  734MOL0     C98970   8.177   7.605   2.160 -0.8483 -0.3871  0.1797
  734MOL0     C98971   8.027   7.593   2.106 -0.7958 -0.2591 -0.6460
  734MOL0     N98972   8.028   7.655   1.971 -0.6560  0.2825 -0.5456
  734MOL0     C98973   8.086   7.613   1.858  0.3905  0.0595 -0.2159
  734MOL0     C98974   8.101   7.723   1.768 -0.0614  0.1663  0.0869
  734MOL0     C98975   8.132   7.714   1.619  0.7589  0.0731  0.0281
  734MOL0     C98976   8.280   7.676   1.600  0.3490 -0.3162  0.1296
  734MOL0     C98977   8.369   7.796   1.623 -0.6324  0.2801  0.3669
  734MOL0     C98978   8.355   7.903   1.511  0.0509 -0.2005  0.7709
  734MOL0     O98979   8.456   8.005   1.514  0.5852  0.0729  0.4923
  734MOL0     C98980   8.460   8.102   1.606 -1.5387 -0.7860  0.5852
  734MOL0     C98981   8.354   8.146   1.690  0.6242  0.6333  0.1733
  734MOL0     C98982   8.389   8.247   1.778 -0.4238 -0.0401 -0.0277
  734MOL0     C98983   8.519   8.302   1.786  0.1431  0.6970 -0.6871
  734MOL0     C98984   8.548   8.422   1.868 -0.0639 -0.8838 -0.4137
  734MOL0     O98985   8.673   8.471   1.855  0.0556  0.0501  0.2950
  734MOL0     C98986   8.702   8.588   1.919  0.0620 -0.3709  0.4611
  734MOL0     C98987   8.641   8.710   1.896  0.3122 -0.7423 -0.2588
  734MOL0     C98988   8.674   8.825   1.959 -0.3052  0.0023  0.3631
  734MOL0     C98989   8.781   8.827   2.044 -0.6583 -0.6088  0.4213
  734MOL0     O98990   8.852   8.947   2.077  0.5796 -0.0900  0.2473
  734MOL0     C98991   8.777   9.069   2.074  0.1054  0.2432 -0.4613
  734MOL0     C98992   8.847   9.190   2.124 -0.1098 -0.7991 -0.3310
  734MOL0     C98993   8.971   9.220   2.039 -0.3859  0.5366  0.3542
  734MOL0     C98994   8.942   9.304   1.925  0.1729  0.5141 -0.5050
  734MOL0     C98995   9.049   9.321   1.821  0.1221 -0.1884  0.5214
  734MOL0     C98996   9.169   9.400   1.875 -0.8168 -0.3721 -0.3366
  734MOL0     C98997   9.276   9.413   1.762  0.5448  0.5026 -0.2559
  734MOL0     C98998   9.415   9.464   1.825  0.6634 -0.0532  0.6284
  734MOL0    Cl98999   9.534   9.454   1.697 -0.4344 -0.4204 -0.4388
  734MOL0     C99000   8.848   8.710   2.059 -1.5454  0.7652 -0.2953
  734MOL0     C99001   8.815   8.594   2.001  0.6241  0.0001  0.9650
  734MOL0     O99002   8.458   8.469   1.942  0.3594  0.0635 -0.2861
  734MOL0     C99003   8.612   8.251   1.708  0.2605 -0.7814  0.6512
  734MOL0     C99004   8.586   8.152   1.612 -0.2085 -0.4070  1.1466
  734MOL0     N99005   8.041   7.830   1.831  1.0714  0.0850 -0.0290
  734MOL0     N99006   8.004   7.789   1.956  0.5921  0.4146  0.9408
  734MOL0     C99007   8.577   7.342   3.065  0.7731 -0.0186  0.9295
  734MOL0     C99008   8.695   7.359   3.134 -0.5819 -0.0735  0.7787
  734MOL0     C99009   9.175   7.415   3.134 -0.4248 -0.5877  0.6268
  734MOL0     C99010   9.276   7.450   3.039  0.0165 -0.3041  0.4081
  734MOL0     C99011   9.405   7.393   3.043 -0.1122 -0.2168  0.0648
  734MOL0     C99012   9.435   7.312   3.158 -0.1484  0.5616 -0.0022
  734MOL0     O99013   9.566   7.267   3.173  0.4233 -0.7747 -0.2602
  734MOL0     C99014   9.666   7.287   3.070 -0.0946  0.1840 -1.2171
  734MOL0     C99015   9.790   7.203   3.116 -0.8090  0.1670  0.3541
  734MOL0     C99016   9.756   7.051   3.107 -0.1341 -0.4019 -0.3075
  734MOL0     C99017   9.858   6.959   3.171  0.0869 -0.4705 -1.3878
  734MOL0     C99018   9.849   6.964   3.319 -0.6698  0.0057  0.2558
  734MOL0     C99019   9.827   6.981   3.436  0.3467  1.4525  0.6822
  734MOL0     C99020   9.336   7.295   3.256 -0.0283  0.4099  0.3858
  734MOL0     C99021   9.205   7.337   3.246 -0.1273 -0.2175  0.6781
  734MOL0     C99022   9.113   7.313   3.367 -0.0704  0.9406  0.9345
  734MOL0     H99023   8.877   7.354   2.842  0.2748 -2.6608  0.6057
  734MOL0     H99024   8.686   7.333   2.749  0.4079 -0.6765  1.5845
  734MOL0     H99025   8.474   7.417   2.701 -1.1277  1.7377  5.6650
  734MOL0     H99026   8.483   7.234   2.675 -2.6176 -0.4114 -2.8355
  734MOL0     H99027   8.241   7.382   2.788  0.0185  0.0008  1.4030
  734MOL0     H99028   8.244   7.215   2.767 -3.2108  0.3149 -1.2650
  734MOL0     H99029   8.136   7.276   2.562  0.7841 -2.5477  0.3090
  734MOL0     H99030   8.310   7.259   2.516 -0.6419 -1.5502  2.2102
  734MOL0     H99031   8.187   7.522   2.571  0.3221  0.2924 -0.3313
  734MOL0     H99032   8.345   7.502   2.515 -0.9297  3.8487 -2.5480
  734MOL0     H99033   8.208   7.387   2.300 -1.7252  1.0197 -1.4708
  734MOL0     H99034   8.071   7.447   2.386 -0.7054 -0.7687 -2.7543
  734MOL0     H99035   8.141   7.666   2.369  0.8612 -2.0363  3.9360
  734MOL0     H99036   8.306   7.616   2.325 -0.1033 -1.2481  1.3862
  734MOL0     H99037   8.230   7.521   2.115 -1.0486 -0.0514 -0.6975
  734MOL0     H99038   8.232   7.692   2.123 -0.2426 -0.8728 -0.0656
  734MOL0     H99039   7.978   7.495   2.097 -1.1381 -0.1090 -0.4620
  734MOL0     H99040   7.970   7.648   2.181  2.6940  1.2628  1.1280
  734MOL0     H99041   8.101   7.506   1.848 -2.7498 -0.3351 -2.0455
  734MOL0     H99042   8.071   7.638   1.570  1.2625 -0.1027 -0.3441
  734MOL0     H99043   8.110   7.808   1.568  1.2029  0.4095  0.4558
  734MOL0     H99044   8.298   7.583   1.655  2.4639  0.5254  0.9636
  734MOL0     H99045   8.286   7.641   1.497 -3.5750  3.3524 -1.6376
  734MOL0     H99046   8.473   7.763   1.626 -0.6105  0.4421  2.5650
  734MOL0     H99047   8.350   7.831   1.725 -2.1347  0.8401 -0.0730
  734MOL0     H99048   8.259   7.954   1.523  0.6287  0.9563  0.6460
  734MOL0     H99049   8.361   7.850   1.415 -1.5213 -0.5049  0.8138
  734MOL0     H99050   8.249   8.119   1.681  0.9181 -0.7342  0.6981
  734MOL0     H99051   8.318   8.299   1.842  1.2845 -1.7939  3.6155
  734MOL0     H99052   8.559   8.709   1.825  0.5092 -0.2076 -0.4959
  734MOL0     H99053   8.615   8.913   1.937 -0.6325  0.1407  1.7050
  734MOL0     H99054   8.732   9.086   1.976 -1.1750  4.5102  0.6363
  734MOL0     H99055   8.692   9.051   2.141 -2.0937 -2.9499 -3.7140
  734MOL0     H99056   8.774   9.270   2.106  0.3440 -0.4757 -0.7515
  734MOL0     H99057   8.872   9.183   2.230  1.8937  0.6089 -0.6429
  734MOL0     H99058   9.053   9.269   2.093  1.8165  2.6213 -4.2710
  734MOL0     H99059   9.016   9.123   2.015  2.0507  0.8618  2.9653
  734MOL0     H99060   8.914   9.399   1.972 -0.3846 -0.3520  0.9816
  734MOL0     H99061   8.856   9.263   1.871  0.9649 -1.6214 -0.2581
  734MOL0     H99062   9.015   9.391   1.744  1.0743  1.5605  1.6338
  734MOL0     H99063   9.077   9.228   1.770 -0.0654 -0.3377  0.6894
  734MOL0     H99064   9.140   9.504   1.897  0.4752  0.0268 -0.4366
  734MOL0     H99065   9.217   9.345   1.956 -1.3280  0.3376  0.4633
  734MOL0     H99066   9.252   9.493   1.691  1.8057  2.4372  1.4210
  734MOL0     H99067   9.288   9.312   1.721  2.5397 -0.9929  3.5158
  734MOL0     H99068   9.403   9.570   1.851 -3.9048  0.3433 -1.9404
  734MOL0     H99069   9.434   9.404   1.914 -2.2669  1.8883  2.7416
  734MOL0     H99070   8.947   8.716   2.104 -1.7833 -2.4378  0.9322
  734MOL0     H99071   8.882   8.509   2.002  0.8027  0.1456  1.9962
  734MOL0     H99072   8.714   8.289   1.700 -0.6080  1.9947  1.4527
  734MOL0     H99073   8.662   8.117   1.544 -0.4605  1.5496 -0.2398
  734MOL0     H99074   8.485   7.342   3.122 -0.3347 -1.4801 -0.7537
  734MOL0     H99075   8.699   7.355   3.242 -1.8926  2.8216  1.0172
  734MOL0     H99076   9.276   7.511   2.949  1.5886  1.1162  1.2985
  734MOL0     H99077   9.460   7.416   2.952 -2.0134  2.6522 -0.4898
  734MOL0     H99078   9.675   7.396   3.074  0.5111  0.1070  0.1439
  734MOL0     H99079   9.628   7.253   2.974 -0.1050 -1.7684 -0.5579
  734MOL0     H99080   9.822   7.235   3.215 -1.2382 -0.2832  0.6428
  734MOL0     H99081   9.872   7.222   3.046 -0.1736 -1.4798  0.6197
  734MOL0     H99082   9.759   7.017   3.003 -0.1603  0.6662 -0.6700
  734MOL0     H99083   9.654   7.035   3.143  0.6932 -1.2251  1.8969
  734MOL0     H99084   9.843   6.856   3.139 -1.5660  0.3160 -3.3487
  734MOL0     H99085   9.960   6.985   3.139  0.1527  1.4146  0.1693
  734MOL0     H99086   9.819   6.995   3.542  1.6217 -1.5299  1.2838
  734MOL0     H99087   9.377   7.251   3.346  2.0604  0.6072 -0.4320
  734MOL0     H99088   9.029   7.383   3.373  0.3234  1.5563 -0.4152
  734MOL0     H99089   9.067   7.216   3.345 -3.8547  2.7313  0.2099
  734MOL0     H99090   9.172   7.306   3.459 -1.1522 -1.6993  1.5142
  735MOL0     O99091  10.385   3.432  11.217 -0.1037  0.3564  0.6293
  735MOL0     C99092  10.338   3.514  11.151  0.7284 -0.8606  0.1893
  735MOL0     O99093  10.288   3.636  11.194  0.1640 -0.4833 -0.0927
  735MOL0     C99094  10.334   3.692  11.314 -0.4627  1.5455 -0.2299
  735MOL0     C99095  10.429   3.785  11.305 -0.1193 -0.0496 -0.5161
  735MOL0     C99096  10.497   3.827  11.425 -0.0521  0.1539  0.0215
  735MOL0     C99097  10.457   3.775  11.552  0.1705 -1.2691 -0.9980
  735MOL0     O99098  10.511   3.821  11.668 -0.2336 -0.8236 -0.3088
  735MOL0     C99099  10.572   3.729  11.753 -0.5816 -0.1359  0.7276
  735MOL0     C99100  10.559   3.766  11.893 -0.1613 -0.1170 -0.0956
  735MOL0     C99101  10.613   3.655  11.987  0.6335 -0.6165  0.2994
  735MOL0     C99102  10.664   3.710  12.123 -0.3309  0.1838 -0.0377
  735MOL0     C99103  10.751   3.597  12.188  0.0317 -0.1223  0.4895
  735MOL0     C99104  10.845   3.640  12.302  0.2540  0.1232 -0.6926
  735MOL0     C99105  10.928   3.530  12.360  0.9912  0.5063  0.1115
  735MOL0     C99106  11.050   3.580  12.424  0.2629  0.4560  0.1910
  735MOL0     N99107  11.108   3.476  12.511  0.0694  0.6551  0.1175
  735MOL0     C99108  11.209   3.499  12.599 -0.1072 -0.7847  0.3546
  735MOL0     C99109  11.255   3.376  12.645 -0.1630  0.2072 -0.4527
  735MOL0     C99110  11.387   3.343  12.720 -0.0787 -0.2639 -0.3085
  735MOL0     C99111  11.358   3.237  12.830  1.1187  0.0868 -0.0147
  735MOL0     C99112  11.359   3.296  12.970 -0.5504  0.8616  0.1849
  735MOL0     C99113  11.342   3.196  13.080  0.3316 -0.2681 -0.2053
  735MOL0     O99114  11.359   3.283  13.206 -0.0497 -0.0070 -0.0716
  735MOL0     C99115  11.270   3.260  13.311 -0.0856 -0.1392  0.9773
  735MOL0     C99116  11.191   3.139  13.338 -0.2240 -0.7592 -0.5429
  735MOL0     C99117  11.100   3.150  13.446  0.1345 -0.3752 -0.1766
  735MOL0     C99118  11.087   3.265  13.537 -0.8616  0.7311  0.3510
  735MOL0     C99119  10.989   3.264  13.656 -0.2652  0.1515 -1.2877
  735MOL0     O99120  10.994   3.377  13.729 -0.0219  0.3855 -0.3703
  735MOL0     C99121  10.951   3.378  13.863  0.0770 -0.3164  0.7510
  735MOL0     C99122  11.016   3.307  13.961 -0.4821 -0.5396 -0.4811
  735MOL0     C99123  10.960   3.313  14.095  0.4131  0.2153 -0.6005
  735MOL0     C99124  10.862   3.396  14.137 -0.0735  0.3937  0.5464
  735MOL0     O99125  10.812   3.394  14.267  0.2113  0.4551 -0.1634
  735MOL0     C99126  10.706   3.478  14.322 -0.0516  0.5728 -0.0777
  735MOL0     C99127  10.763   3.611  14.381  0.2208  0.6231  0.6680
  735MOL0     C99128  10.866   3.698  14.303 -0.0612 -0.0996  0.3871
  735MOL0     C99129  10.887   3.837  14.369  0.0586  0.3743 -0.2013
  735MOL0     C99130  10.980   3.927  14.283 -0.0305  0.7843 -0.0622
  735MOL0     C99131  11.033   4.048  14.355 -0.5578  0.0420  0.1873
  735MOL0     C99132  11.141   4.128  14.272  0.2449  0.6749  0.3240
  735MOL0     C99133  11.085   4.166  14.131  0.2074  0.6524 -0.5747
  735MOL0    Cl99134  11.211   4.267  14.053 -0.0298  0.1548  0.4245
  735MOL0     C99135  10.795   3.474  14.036 -0.1232  0.5189 -0.5699
  735MOL0     C99136  10.839   3.455  13.900  0.6644 -0.1408  0.0441
  735MOL0     O99137  10.929   3.156  13.684 -0.0727  0.8548  0.3235
  735MOL0     C99138  11.173   3.373  13.501  0.4335  0.7925 -0.4050
  735MOL0     C99139  11.257   3.370  13.400  0.0663 -0.0044  0.5550
  735MOL0     N99140  11.181   3.283  12.584  0.5700 -1.1918  0.3598
  735MOL0     N99141  11.091   3.341  12.504 -0.5517 -0.2099 -0.3096
  735MOL0     C99142  10.340   3.689  11.555  0.9986 -0.0302  0.1419
  735MOL0     C99143  10.282   3.644  11.437 -0.6520  0.1508 -1.0868
  735MOL0     C99144  10.309   3.477  11.011  0.0855 -1.2225 -0.7391
  735MOL0     C99145  10.197   3.541  10.951  0.3895 -0.2073  0.1901
  735MOL0     C99146  10.154   3.522  10.819 -0.6639 -0.2096 -0.5716
  735MOL0     C99147  10.242   3.452  10.729 -0.0566  0.0505 -0.2660
  735MOL0     O99148  10.204   3.446  10.600  0.0864  1.0721  0.7036
  735MOL0     C99149  10.294   3.499  10.497 -1.2486 -0.2464 -0.6957
  735MOL0     C99150  10.295   3.656  10.503 -0.3936 -0.1170 -0.6268
  735MOL0     C99151  10.424   3.716  10.558 -0.4704 -0.2827 -1.7048
  735MOL0     C99152  10.424   3.866  10.581  0.4085  0.2379  0.1104
  735MOL0     C99153  10.535   3.921  10.660 -0.7463 -0.3503 -0.0447
  735MOL0     C99154  10.619   3.973  10.733  0.6944 -0.0184 -0.3850
  735MOL0     C99155  10.358   3.387  10.780 -0.3598 -0.0055  0.2555
  735MOL0     C99156  10.390   3.401  10.917  0.0960 -0.0615  0.8458
  735MOL0     C99157  10.514   3.333  10.969  1.1709 -0.4028 -0.6355
  735MOL0     H99158  10.467   3.836  11.217 -1.0374  0.3326 -0.7022
  735MOL0     H99159  10.571   3.906  11.417  0.3102 -0.1915 -0.0823
  735MOL0     H99160  10.533   3.627  11.743 -0.1801 -0.3425  1.2209
  735MOL0     H99161  10.675   3.715  11.719 -0.6647 -3.7738  1.5281
  735MOL0     H99162  10.455   3.782  11.923 -0.3806  0.1056 -0.9716
  735MOL0     H99163  10.625   3.853  11.905  2.5156 -2.0665  0.4604
  735MOL0     H99164  10.699   3.620  11.928 -2.2384 -0.7859 -4.2511
  735MOL0     H99165  10.536   3.579  12.004  1.0562 -1.2123 -0.4097
  735MOL0     H99166  10.729   3.797  12.113 -0.4748  0.6236  2.3719
  735MOL0     H99167  10.579   3.753  12.176  0.9020  2.8790 -0.0820
  735MOL0     H99168  10.682   3.526  12.234 -2.2579  1.9849  0.4811
  735MOL0     H99169  10.816   3.548  12.115  1.2182 -0.7392  1.8991
  735MOL0     H99170  10.915   3.720  12.277 -0.4497 -0.0423 -3.5114
  735MOL0     H99171  10.782   3.689  12.378 -1.2705  1.2633 -2.5867
  735MOL0     H99172  10.956   3.450  12.291 -1.0201 -0.7072  0.6101
  735MOL0     H99173  10.870   3.491  12.444 -0.5454 -0.9223 -1.5322
  735MOL0     H99174  11.109   3.623  12.342  1.5498 -3.3346 -1.0978
  735MOL0     H99175  11.034   3.667  12.488  1.1687  1.6385 -1.1356
  735MOL0     H99176  11.267   3.581  12.638  2.5858 -3.9322  3.7591
  735MOL0     H99177  11.452   3.302  12.642  0.3260  2.4531 -1.4991
  735MOL0     H99178  11.452   3.426  12.748 -2.3690  1.2468  0.8925
  735MOL0     H99179  11.257   3.194  12.821  0.8906  0.8981 -1.7661
  735MOL0     H99180  11.432   3.157  12.817  1.9412  0.9127 -0.4571
  735MOL0     H99181  11.283   3.374  12.967  2.1672  3.7187 -2.0857
  735MOL0     H99182  11.448   3.356  12.994  0.4211 -1.0031  1.4429
  735MOL0     H99183  11.407   3.109  13.083  1.6657  0.6227 -1.8141
  735MOL0     H99184  11.241   3.157  13.067  0.3523 -0.3416 -0.1551
  735MOL0     H99185  11.198   3.053  13.272  0.5854 -0.4052 -0.9337
  735MOL0     H99186  11.045   3.059  13.461  3.4347 -3.1766 -3.1853
  735MOL0     H99187  11.100   3.243  13.941 -1.7263 -4.1042  3.9862
  735MOL0     H99188  11.016   3.257  14.169 -2.1641  1.0362  2.1554
  735MOL0     H99189  10.631   3.505  14.246 -1.3013 -0.9332  0.5703
  735MOL0     H99190  10.649   3.429  14.401 -1.1086  1.3724 -0.3153
  735MOL0     H99191  10.685   3.673  14.427 -1.1339 -0.7594  0.3334
  735MOL0     H99192  10.817   3.562  14.463  2.2499  0.5516 -0.6635
  735MOL0     H99193  10.960   3.643  14.306  0.7974  0.8855 -3.4604
  735MOL0     H99194  10.839   3.716  14.199 -1.9870 -3.2168  0.2306
  735MOL0     H99195  10.912   3.831  14.476 -1.3403  2.9012  0.3539
  735MOL0     H99196  10.788   3.883  14.366 -0.3263 -0.4034  0.1698
  735MOL0     H99197  10.926   3.968  14.198  2.1542  0.4867 -1.6793
  735MOL0     H99198  11.063   3.869  14.241  0.1613  2.0675 -1.5176
  735MOL0     H99199  10.953   4.120  14.375 -1.6800 -1.4787  1.4632
  735MOL0     H99200  11.079   4.011  14.447 -1.7162 -1.1052  0.3410
  735MOL0     H99201  11.234   4.074  14.254 -1.3918 -2.1585 -0.3573
  735MOL0     H99202  11.169   4.211  14.337  2.3649 -1.4250  2.2921
  735MOL0     H99203  11.068   4.078  14.069 -1.4663  0.7774 -0.3519
  735MOL0     H99204  10.988   4.214  14.147  0.2399  0.6956 -0.5006
  735MOL0     H99205  10.710   3.540  14.051  0.6865  1.2324  1.1754
  735MOL0     H99206  10.787   3.508  13.821  2.4307  0.9381 -0.4500
  735MOL0     H99207  11.173   3.457  13.570  1.5413  1.6712 -1.4360
  735MOL0     H99208  11.338   3.443  13.390  3.1789 -3.0870  1.2062
  735MOL0     H99209  10.305   3.650  11.650  1.8166  0.8075  0.8165
  735MOL0     H99210  10.208   3.565  11.443  0.5420 -0.8909  1.3499
  735MOL0     H99211  10.146   3.608  11.020  2.9704  1.2808  0.7783
  735MOL0     H99212  10.059   3.565  10.791 -0.0313  0.8738 -1.1041
  735MOL0     H99213  10.272   3.466  10.395  5.5386  0.4337 -2.8646
  735MOL0     H99214  10.394   3.457  10.513 -0.9218  0.8242  0.1799
  735MOL0     H99215  10.216   3.685  10.572  0.4959  0.4427  0.1832
  735MOL0     H99216  10.264   3.693  10.404 -0.8029  3.3495  0.6824
  735MOL0     H99217  10.514   3.697  10.498 -1.0984 -1.1152 -2.4116
  735MOL0     H99218  10.424   3.675  10.659  1.1324  2.7983 -0.3282
  735MOL0     H99219  10.419   3.916  10.484 -3.4813 -1.4310 -0.7166
  735MOL0     H99220  10.333   3.899  10.633 -0.5583 -2.5728  0.3510
  735MOL0     H99221  10.697   4.012  10.794 -1.6838  0.7480  2.3769
  735MOL0     H99222  10.414   3.328  10.707  1.7742  1.3146  0.7241
  735MOL0     H99223  10.541   3.245  10.908  1.9959 -0.1452 -0.6575
  735MOL0     H99224  10.596   3.404  10.981 -1.4225  3.3261 -2.7562
  735MOL0     H99225  10.476   3.274  11.052 -0.2109  2.0653  0.5820
  736MOL0     O99226   2.930  10.955   2.741  0.2844  0.3836  0.5801
  736MOL0     C99227   2.818  10.971   2.791  0.1008  0.0094 -0.6629
  736MOL0     O99228   2.752  10.863   2.847 -0.2112 -0.1617  0.1318
  736MOL0     C99229   2.807  10.743   2.866  0.2474  0.3114  0.6042
  736MOL0     C99230   2.721  10.634   2.854  0.6002  0.8885  0.3595
  736MOL0     C99231   2.768  10.497   2.856 -0.2758 -0.0843 -0.2891
  736MOL0     C99232   2.908  10.480   2.878 -0.2112  0.0993  0.1968
  736MOL0     O99233   2.960  10.347   2.882  0.3476  0.1972 -0.2903
  736MOL0     C99234   2.877  10.225   2.878  0.2562 -0.4064  0.0271
  736MOL0     C99235   2.973  10.119   2.835  1.3298 -0.5113 -0.4458
  736MOL0     C99236   3.077  10.073   2.945 -0.3913  0.0785  0.2054
  736MOL0     C99237   3.172   9.968   2.909 -0.2329  0.4383  0.1011
  736MOL0     C99238   3.282   9.937   3.019 -1.2055  0.2006 -0.6297
  736MOL0     C99239   3.383   9.826   2.981  0.3248  0.5761 -0.0357
  736MOL0     C99240   3.430   9.749   3.101 -0.1795  0.2946 -0.1453
  736MOL0     C99241   3.552   9.672   3.068 -0.3933 -0.4522 -0.9892
  736MOL0     N99242   3.616   9.615   3.186 -0.0152  0.0531 -0.0936
  736MOL0     C99243   3.654   9.490   3.207  1.0901  0.7426 -0.0391
  736MOL0     C99244   3.734   9.482   3.313  0.2270 -0.0291  0.0838
  736MOL0     C99245   3.800   9.360   3.378 -1.0977  1.1513  1.0882
  736MOL0     C99246   3.691   9.310   3.472 -0.4778  0.0410 -0.4143
  736MOL0     C99247   3.739   9.180   3.535  1.0827 -0.7574 -0.7147
  736MOL0     C99248   3.638   9.115   3.625  0.9291  0.5194 -1.0716
  736MOL0     O99249   3.514   9.103   3.552 -0.2598 -0.5431  0.0685
  736MOL0     C99250   3.415   9.039   3.619  0.7216  0.3729 -0.0095
  736MOL0     C99251   3.416   8.982   3.749 -0.5478  0.0743 -0.4864
  736MOL0     C99252   3.300   8.937   3.807 -0.5016  0.0483 -0.3863
  736MOL0     C99253   3.181   8.917   3.724 -0.0176  0.0133 -0.3328
  736MOL0     C99254   3.049   8.884   3.797 -0.2353  0.5944 -0.2775
  736MOL0     O99255   2.941   8.880   3.705  0.5994 -0.1031 -0.0859
  736MOL0     C99256   2.815   8.848   3.753 -0.2117 -0.0708 -0.0237
  736MOL0     C99257   2.751   8.737   3.706 -0.1597  0.1602 -0.1064
  736MOL0     C99258   2.618   8.705   3.752 -0.2908 -0.2235 -0.2500
  736MOL0     C99259   2.555   8.784   3.849  0.8045 -0.0357  0.1402
  736MOL0     O99260   2.423   8.763   3.887 -0.2990 -0.3009 -0.4850
  736MOL0     C99261   2.349   8.662   3.821  0.8816 -0.5600 -1.0605
  736MOL0     C99262   2.208   8.641   3.882  0.2081 -0.5550  0.2859
  736MOL0     C99263   2.106   8.550   3.808  0.9488  0.1361 -1.0133
  736MOL0     C99264   1.974   8.521   3.878 -0.8017 -0.0346  0.3103
  736MOL0     C99265   1.855   8.490   3.774 -0.1268 -0.6271  0.0320
  736MOL0     C99266   1.760   8.412   3.857  0.3137 -1.2662 -0.2625
  736MOL0     C99267   1.660   8.341   3.773  0.4271  1.0426 -1.2191
  736MOL0     C99268   1.570   8.268   3.863 -0.5509  0.1727 -0.3495
  736MOL0    Cl99269   1.492   8.131   3.775  0.1128  0.0454  0.1907
  736MOL0     C99270   2.618   8.907   3.888  0.3524  0.9657  0.0691
  736MOL0     C99271   2.739   8.936   3.826  0.0752 -0.3525  0.6275
  736MOL0     O99272   3.048   8.875   3.921 -0.1326 -0.1642  0.2096
  736MOL0     C99273   3.185   8.974   3.596 -0.7714 -1.1244  0.0667
  736MOL0     C99274   3.306   9.030   3.540  0.0005  0.1111 -0.0575
  736MOL0     N99275   3.752   9.622   3.349 -0.4873 -0.0672 -0.5788
  736MOL0     N99276   3.679   9.695   3.273  0.5006  0.0103 -0.6368
  736MOL0     C99277   2.985  10.594   2.918  0.6903 -0.4457  0.0631
  736MOL0     C99278   2.934  10.725   2.915 -0.0582  0.3547  0.5644
  736MOL0     C99279   2.750  11.101   2.787  0.3588 -0.8574 -0.1357
  736MOL0     C99280   2.804  11.213   2.863  0.3284  0.0966  0.3793
  736MOL0     C99281   2.741  11.336   2.840 -1.6508  0.3796 -0.1635
  736MOL0     C99282   2.634  11.357   2.752 -0.4791 -0.1962  0.3412
  736MOL0     O99283   2.579  11.480   2.767  0.0956  0.3926  0.0724
  736MOL0     C99284   2.439  11.500   2.722 -0.3484 -0.9561  0.7006
  736MOL0     C99285   2.408  11.620   2.813  0.3030 -0.1662 -0.3572
  736MOL0     C99286   2.253  11.638   2.808  0.0841 -0.0226  0.6368
  736MOL0     C99287   2.203  11.754   2.893  1.7625 -0.4595 -0.0550
  736MOL0     C99288   2.064  11.788   2.881  0.5498 -0.3747 -0.1941
  736MOL0     C99289   1.955  11.842   2.889 -0.2653 -0.4943  0.0826
  736MOL0     C99290   2.589  11.252   2.674  0.9811  1.1599 -0.5252
  736MOL0     C99291   2.647  11.121   2.685  0.2377 -0.5767  0.0088
  736MOL0     C99292   2.575  11.000   2.618 -0.2743 -0.6508  0.2229
  736MOL0     H99293   2.619  10.669   2.847 -0.8686 -2.5180  2.1839
  736MOL0     H99294   2.704  10.414   2.828  0.0704  0.6010 -3.4350
  736MOL0     H99295   2.819  10.204   2.968 -0.0847 -2.2325 -0.5702
  736MOL0     H99296   2.806  10.225   2.795  0.6890 -3.4496 -0.4375
  736MOL0     H99297   3.032  10.159   2.752 -0.2005 -0.9036 -1.7566
  736MOL0     H99298   2.914  10.037   2.792  0.2099 -0.5012  0.9946
  736MOL0     H99299   3.024  10.036   3.033  0.3961 -0.1206  0.6074
  736MOL0     H99300   3.143  10.158   2.965  1.0692 -0.2379 -2.8219
  736MOL0     H99301   3.114   9.877   2.890  0.1093 -0.1968  1.9395
  736MOL0     H99302   3.210  10.010   2.815  2.9430 -1.5044  0.3637
  736MOL0     H99303   3.343  10.025   3.038  3.6539 -2.5625 -1.6902
  736MOL0     H99304   3.223   9.915   3.108  1.7836  0.4098  1.5405
  736MOL0     H99305   3.331   9.739   2.940 -0.9364  0.0163  2.5586
  736MOL0     H99306   3.465   9.863   2.919  3.6962 -2.9780  1.8724
  736MOL0     H99307   3.357   9.673   3.132 -1.6963  1.5877 -0.4448
  736MOL0     H99308   3.448   9.811   3.189 -0.9240 -1.7221  1.5409
  736MOL0     H99309   3.520   9.594   2.998  0.5913 -0.1715 -1.7929
  736MOL0     H99310   3.622   9.736   3.013  0.4869 -0.0321  0.5688
  736MOL0     H99311   3.632   9.408   3.139 -0.8515  1.7151 -0.6550
  736MOL0     H99312   3.814   9.281   3.304 -1.6689  1.8394  0.2096
  736MOL0     H99313   3.899   9.378   3.420  0.4770 -0.3934 -1.7265
  736MOL0     H99314   3.678   9.373   3.561  3.8918 -1.9658  1.9954
  736MOL0     H99315   3.599   9.291   3.416 -0.0057  0.4683 -1.3398
  736MOL0     H99316   3.830   9.193   3.594  0.4758  1.5853 -0.1725
  736MOL0     H99317   3.767   9.119   3.448  2.4650  0.7530 -1.4007
  736MOL0     H99318   3.623   9.177   3.714 -0.9452 -0.8023 -0.4038
  736MOL0     H99319   3.663   9.017   3.669 -3.1182  0.1805  0.9007
  736MOL0     H99320   3.513   8.989   3.797 -0.0964  4.0421 -1.6049
  736MOL0     H99321   3.307   8.901   3.909  0.4415 -2.0258 -1.1228
  736MOL0     H99322   2.803   8.676   3.632 -1.2369  2.0009 -2.5242
  736MOL0     H99323   2.567   8.622   3.705 -2.3524  1.0472 -0.3944
  736MOL0     H99324   2.338   8.682   3.714  0.7332  1.5349 -0.7007
  736MOL0     H99325   2.399   8.568   3.845  0.0087 -0.3477  1.9997
  736MOL0     H99326   2.208   8.619   3.989  0.3138 -0.2785  0.3439
  736MOL0     H99327   2.177   8.745   3.876  1.2119 -0.2457  0.2301
  736MOL0     H99328   2.092   8.586   3.705 -2.3910  1.2603 -0.3143
  736MOL0     H99329   2.156   8.456   3.786 -2.8774 -1.9118 -1.7490
  736MOL0     H99330   1.945   8.598   3.950  1.2434 -2.8893  4.5788
  736MOL0     H99331   1.989   8.438   3.947 -2.3984 -0.7021 -0.0889
  736MOL0     H99332   1.902   8.438   3.689 -0.3275  1.8464 -1.6839
  736MOL0     H99333   1.803   8.579   3.738 -0.2973 -0.3315  0.9800
  736MOL0     H99334   1.804   8.333   3.919  1.4568 -0.4962 -0.0612
  736MOL0     H99335   1.722   8.478   3.935  0.1933 -1.5637 -0.0668
  736MOL0     H99336   1.713   8.258   3.725 -0.3140  0.0490 -0.3630
  736MOL0     H99337   1.595   8.392   3.701 -0.7583 -2.6948 -3.0909
  736MOL0     H99338   1.609   8.220   3.953  0.6744 -2.8508 -2.3100
  736MOL0     H99339   1.496   8.341   3.897 -1.2437 -0.8964  0.5111
  736MOL0     H99340   2.558   8.971   3.952 -2.1525  0.6515 -1.8278
  736MOL0     H99341   2.784   9.032   3.850 -0.8864  0.7176 -1.6211
  736MOL0     H99342   3.103   8.988   3.527  1.5694 -0.8290 -2.8473
  736MOL0     H99343   3.317   9.053   3.435 -1.0037 -3.9213 -1.2275
  736MOL0     H99344   3.092  10.583   2.932  0.9082 -0.3902 -1.4524
  736MOL0     H99345   2.992  10.815   2.933 -0.7399  0.4391  2.7377
  736MOL0     H99346   2.891  11.202   2.927 -0.0197 -0.5358  0.7510
  736MOL0     H99347   2.788  11.418   2.894  0.0447 -1.7785  1.8418
  736MOL0     H99348   2.367  11.419   2.733 -1.0892 -0.3308  0.5050
  736MOL0     H99349   2.436  11.526   2.615 -0.4210  0.9159  1.1131
  736MOL0     H99350   2.474  11.703   2.785  0.5551  0.9806  3.1911
  736MOL0     H99351   2.428  11.591   2.917  0.0707 -0.8164 -0.4911
  736MOL0     H99352   2.208  11.543   2.835  3.6003 -1.5107  1.8853
  736MOL0     H99353   2.215  11.670   2.710  0.8385  3.5621  1.3523
  736MOL0     H99354   2.214  11.730   2.999 -2.3959 -3.4348 -0.0699
  736MOL0     H99355   2.250  11.851   2.874 -0.6561  0.8495  0.2107
  736MOL0     H99356   1.860  11.890   2.907  0.6627  1.8435 -0.9227
  736MOL0     H99357   2.502  11.265   2.610 -1.5950 -1.8369  2.0423
  736MOL0     H99358   2.640  10.916   2.594 -2.2600 -1.7538 -1.6645
  736MOL0     H99359   2.492  10.957   2.675 -1.1636  0.6675 -0.0408
  736MOL0     H99360   2.527  11.043   2.530 -0.2217  2.0368  1.4032
  737MOL0     O99361   7.257   3.715   2.370  0.4141 -0.1479 -0.3158
  737MOL0     C99362   7.207   3.602   2.334 -0.0274 -0.4994  0.1948
  737MOL0     O99363   7.079   3.574   2.324  0.7967 -0.9840 -0.2735
  737MOL0     C99364   6.985   3.675   2.354  0.5167 -0.0811 -0.4057
  737MOL0     C99365   6.956   3.769   2.250 -0.3397 -0.2033 -0.2362
  737MOL0     C99366   6.856   3.865   2.267  1.3013 -0.5137  0.1019
  737MOL0     C99367   6.786   3.867   2.393  0.3481  0.7325  0.4918
  737MOL0     O99368   6.682   3.959   2.423  0.4261  0.5869  0.6600
  737MOL0     C99369   6.656   4.081   2.349  0.0843  0.5312 -0.7155
  737MOL0     C99370   6.537   4.159   2.409 -0.0629  0.2995  0.4125
  737MOL0     C99371   6.401   4.116   2.368  0.0058  0.2270  0.4075
  737MOL0     C99372   6.302   4.230   2.408  0.4492 -0.0410 -0.1966
  737MOL0     C99373   6.170   4.200   2.342 -0.7649 -0.5906 -0.4243
  737MOL0     C99374   6.176   4.183   2.192 -0.4718 -0.2001  0.5988
  737MOL0     C99375   6.030   4.201   2.131  0.3261  0.2680 -1.0118
  737MOL0     C99376   5.930   4.101   2.187 -0.4379  0.0587 -0.6656
  737MOL0     N99377   5.794   4.155   2.179 -0.0288  0.2220  0.1929
  737MOL0     C99378   5.730   4.224   2.279 -0.0785 -0.2024 -0.2882
  737MOL0     C99379   5.607   4.252   2.226  0.4701  0.4245  0.5980
  737MOL0     C99380   5.499   4.327   2.301  0.3226 -0.4477 -0.9829
  737MOL0     C99381   5.414   4.230   2.379 -0.2132  0.3805  0.3137
  737MOL0     C99382   5.295   4.162   2.300 -1.2297  1.1243 -0.4353
  737MOL0     C99383   5.212   4.260   2.242  0.6371 -0.2278 -1.0498
  737MOL0     O99384   5.157   4.351   2.340 -0.1900  0.2190 -0.4435
  737MOL0     C99385   5.141   4.483   2.303  0.1126 -0.2831  0.4522
  737MOL0     C99386   5.052   4.551   2.381  0.2185  0.6347  1.0705
  737MOL0     C99387   5.003   4.673   2.347  0.0055 -0.8844 -0.2808
  737MOL0     C99388   5.060   4.744   2.235 -0.1321  0.4698 -0.2021
  737MOL0     C99389   5.006   4.879   2.191 -0.0056  1.0797  0.2777
  737MOL0     O99390   4.882   4.913   2.232  0.7594  0.6255 -0.5162
  737MOL0     C99391   4.852   5.049   2.220  0.5094  0.4884 -0.4752
  737MOL0     C99392   4.932   5.166   2.244 -1.1326 -0.1926  1.1305
  737MOL0     C99393   4.868   5.292   2.228  1.3120 -0.8681 -0.1605
  737MOL0     C99394   4.740   5.304   2.157  0.7001  0.0516  0.3630
  737MOL0     O99395   4.673   5.419   2.131  0.8419 -0.3127 -0.2588
  737MOL0     C99396   4.723   5.521   2.052 -0.7113 -0.2478  0.1699
  737MOL0     C99397   4.732   5.479   1.907 -0.4831  1.2508  0.2078
  737MOL0     C99398   4.807   5.577   1.822 -0.3088  0.1939  1.0822
  737MOL0     C99399   4.790   5.548   1.675 -0.6236 -0.0637  0.7982
  737MOL0     C99400   4.851   5.660   1.595 -0.4968 -1.3630  0.8645
  737MOL0     C99401   4.841   5.632   1.440  0.0299  0.8549  0.5469
  737MOL0     C99402   4.958   5.544   1.378  0.7820 -0.1081 -0.2316
  737MOL0     C99403   5.097   5.557   1.442  0.5848  0.3201 -0.5571
  737MOL0    Cl99404   5.154   5.736   1.421  0.4240 -0.0937  0.2092
  737MOL0     C99405   4.672   5.187   2.128  0.5372 -0.1401 -1.2121
  737MOL0     C99406   4.724   5.062   2.163 -0.4418 -0.0583  0.7349
  737MOL0     O99407   5.085   4.946   2.130 -0.2297 -0.2983  0.4342
  737MOL0     C99408   5.156   4.673   2.156  0.4724  1.2376 -0.6362
  737MOL0     C99409   5.201   4.548   2.193 -0.7414  0.3984 -0.0289
  737MOL0     N99410   5.594   4.167   2.108 -0.3619 -0.0575  0.3087
  737MOL0     N99411   5.707   4.113   2.082 -0.8608  0.1907 -0.5125
  737MOL0     C99412   6.820   3.776   2.491  0.6316 -0.4875 -0.4209
  737MOL0     C99413   6.925   3.684   2.479  0.7153 -0.0116  0.0269
  737MOL0     C99414   7.298   3.485   2.303  0.1502  0.2558 -0.7978
  737MOL0     C99415   7.263   3.377   2.372  0.2935  0.2703 -0.6839
  737MOL0     C99416   7.347   3.263   2.376  0.3937 -0.0079  0.3181
  737MOL0     C99417   7.459   3.258   2.292 -0.8913 -0.6018 -0.1535
  737MOL0     O99418   7.536   3.142   2.275 -0.1179  0.4373  0.5063
  737MOL0     C99419   7.660   3.130   2.347 -0.6524  0.7626 -0.3931
  737MOL0     C99420   7.705   2.987   2.379  0.3283  0.7454  0.4264
  737MOL0     C99421   7.782   2.908   2.261 -0.6062  1.1829 -0.4221
  737MOL0     C99422   7.929   2.958   2.248  0.0926  0.0879 -0.4944
  737MOL0     C99423   8.022   2.894   2.344 -0.1799 -0.0538 -0.3305
  737MOL0     C99424   8.098   2.828   2.416 -0.0112 -0.9642  1.0341
  737MOL0     C99425   7.492   3.369   2.209  0.4182  1.5392 -0.1813
  737MOL0     C99426   7.414   3.485   2.219 -0.5783  0.7620  0.1455
  737MOL0     C99427   7.444   3.610   2.143  0.5315 -0.1261 -1.0852
  737MOL0     H99428   7.018   3.768   2.161 -0.8046 -2.2568 -0.6032
  737MOL0     H99429   6.827   3.941   2.196 -2.0320 -0.8517  0.9680
  737MOL0     H99430   6.739   4.153   2.357 -0.4412  1.3608 -2.2852
  737MOL0     H99431   6.650   4.052   2.244 -2.0184  0.9040 -0.7282
  737MOL0     H99432   6.538   4.263   2.375 -4.6715  1.1930  2.1678
  737MOL0     H99433   6.549   4.166   2.517  1.7501 -0.0643  0.2612
  737MOL0     H99434   6.377   4.023   2.420 -2.1645  1.0834  1.0231
  737MOL0     H99435   6.406   4.094   2.261  2.9655  2.9850 -0.2110
  737MOL0     H99436   6.291   4.224   2.516  1.4700  5.2716  0.4803
  737MOL0     H99437   6.331   4.335   2.401  0.0751  0.4053  3.3638
  737MOL0     H99438   6.135   4.105   2.383 -2.1278 -0.8247 -1.9884
  737MOL0     H99439   6.106   4.288   2.356  2.0186  1.8584 -1.9450
  737MOL0     H99440   6.248   4.253   2.149  1.2842 -2.3594 -0.1382
  737MOL0     H99441   6.212   4.084   2.165  2.5768  1.0698 -0.4059
  737MOL0     H99442   6.011   4.179   2.026 -5.8790  0.2672 -0.2525
  737MOL0     H99443   6.004   4.306   2.150 -0.1669  0.0464 -0.4199
  737MOL0     H99444   5.957   4.015   2.125  2.8761  1.7351 -1.7537
  737MOL0     H99445   5.955   4.086   2.293  3.2915 -1.5264 -1.6083
  737MOL0     H99446   5.763   4.258   2.376  2.0877 -0.2395 -0.9600
  737MOL0     H99447   5.543   4.406   2.364 -2.6085 -0.8306  1.8147
  737MOL0     H99448   5.452   4.381   2.219  1.3392 -0.3979 -1.5483
  737MOL0     H99449   5.480   4.153   2.420 -0.3761  0.6776  1.1568
  737MOL0     H99450   5.374   4.297   2.456  0.4774  3.0629 -1.5231
  737MOL0     H99451   5.234   4.107   2.373 -3.1129 -2.4156 -4.3201
  737MOL0     H99452   5.341   4.094   2.229  1.2121  1.7873  0.3884
  737MOL0     H99453   5.126   4.205   2.202  0.3968  0.8873 -2.1439
  737MOL0     H99454   5.264   4.303   2.155  1.3920 -2.9141 -2.0339
  737MOL0     H99455   5.013   4.495   2.466  0.6086  1.9765  2.1735
  737MOL0     H99456   4.920   4.722   2.398  1.7766  0.0207  1.8804
  737MOL0     H99457   5.027   5.152   2.294  0.1879 -4.2449 -2.0027
  737MOL0     H99458   4.911   5.390   2.248 -1.7564  0.4196  0.6185
  737MOL0     H99459   4.661   5.612   2.057 -0.5959 -0.2375  3.1886
  737MOL0     H99460   4.823   5.544   2.088 -0.5279 -2.7541  1.4266
  737MOL0     H99461   4.766   5.375   1.909 -0.8624  1.1323  1.0370
  737MOL0     H99462   4.631   5.481   1.864  0.0981 -1.3721 -1.4975
  737MOL0     H99463   4.754   5.669   1.849 -3.8428 -0.6146 -2.2743
  737MOL0     H99464   4.916   5.576   1.838  0.1229 -2.3276 -1.3490
  737MOL0     H99465   4.686   5.529   1.650  0.2138 -2.3096 -1.4577
  737MOL0     H99466   4.853   5.458   1.666  0.7763  0.7506  1.9667
  737MOL0     H99467   4.955   5.668   1.630 -0.4687  0.9647  0.4452
  737MOL0     H99468   4.802   5.756   1.616  0.9058 -0.2665 -0.5815
  737MOL0     H99469   4.746   5.582   1.419 -0.9711  3.3107 -1.2382
  737MOL0     H99470   4.846   5.728   1.389  1.1017  1.5733  1.9310
  737MOL0     H99471   4.952   5.555   1.270 -0.9914 -0.6299 -0.2208
  737MOL0     H99472   4.925   5.441   1.394 -4.8524  1.7082  2.8180
  737MOL0     H99473   5.104   5.512   1.541  1.6984 -0.9523 -1.1861
  737MOL0     H99474   5.173   5.506   1.382  0.0507  0.7003 -1.5854
  737MOL0     H99475   4.570   5.205   2.097  0.8753  0.4750 -1.9746
  737MOL0     H99476   4.664   4.974   2.139 -0.3687  0.6654 -2.6612
  737MOL0     H99477   5.185   4.723   2.063 -2.5575 -1.2729 -3.1556
  737MOL0     H99478   5.284   4.516   2.130  2.0764  3.4978  1.7937
  737MOL0     H99479   6.755   3.775   2.578 -0.2598  0.5491 -1.0586
  737MOL0     H99480   6.943   3.601   2.547 -1.3470 -1.2783 -0.8710
  737MOL0     H99481   7.168   3.369   2.425  0.0810 -0.6037 -1.1738
  737MOL0     H99482   7.315   3.180   2.437  0.4126  0.7082  1.3189
  737MOL0     H99483   7.650   3.176   2.446 -2.6126 -1.3083  0.4491
  737MOL0     H99484   7.736   3.189   2.294  0.6897 -0.7785 -0.2511
  737MOL0     H99485   7.617   2.925   2.401  1.1730 -1.0646 -1.0205
  737MOL0     H99486   7.768   2.981   2.468  1.9127  0.3352 -0.6805
  737MOL0     H99487   7.723   2.922   2.170  0.8956 -2.2533 -2.1130
  737MOL0     H99488   7.774   2.800   2.280  1.8033  1.3277  2.0228
  737MOL0     H99489   7.964   2.924   2.150  2.1809 -2.4082  0.9839
  737MOL0     H99490   7.922   3.067   2.258 -0.4924 -0.1875  4.5806
  737MOL0     H99491   8.181   2.777   2.460  1.8240 -0.2260 -1.3641
  737MOL0     H99492   7.569   3.365   2.132  2.0536 -0.6898  1.4549
  737MOL0     H99493   7.349   3.659   2.119  0.7688 -0.4016 -2.6485
  737MOL0     H99494   7.516   3.679   2.188 -0.2965  2.2389 -3.1512
  737MOL0     H99495   7.490   3.596   2.045  2.3401  2.9345 -0.8160
  738MOL0     O99496  11.314   4.185   7.147 -0.4632 -0.1868  0.3677
  738MOL0     C99497  11.393   4.268   7.199  0.9619  0.6942 -0.5713
  738MOL0     O99498  11.423   4.262   7.328 -1.4656 -0.8842 -0.8621
  738MOL0     C99499  11.399   4.163   7.419 -0.3668 -0.2026 -0.7444
  738MOL0     C99500  11.346   4.205   7.542  0.2906  0.6573 -0.1269
  738MOL0     C99501  11.319   4.109   7.639 -0.2850  0.0096  0.2015
  738MOL0     C99502  11.342   3.975   7.620 -0.4457 -0.0135  1.0203
  738MOL0     O99503  11.308   3.874   7.707  0.4518  0.3058 -0.2885
  738MOL0     C99504  11.336   3.878   7.851  0.6737 -0.0064 -0.0066
  738MOL0     C99505  11.479   3.831   7.878 -0.8186  1.0779 -0.3224
  738MOL0     C99506  11.525   3.817   8.025 -0.3495 -0.7543 -0.4682
  738MOL0     C99507  11.420   3.762   8.129  0.3661 -0.5367  0.0811
  738MOL0     C99508  11.483   3.725   8.259 -0.0338 -0.0095 -1.8109
  738MOL0     C99509  11.556   3.830   8.352 -0.2798  0.3104  0.1087
  738MOL0     C99510  11.456   3.939   8.404 -0.3492 -0.6114 -0.4557
  738MOL0     C99511  11.526   4.042   8.500 -0.7683  0.1877  0.8612
  738MOL0     N99512  11.577   3.968   8.616 -1.1015  0.4492 -0.1268
  738MOL0     C99513  11.517   3.880   8.694 -0.0745 -0.0171 -0.2857
  738MOL0     C99514  11.601   3.866   8.792  0.5200  0.3604  0.2389
  738MOL0     C99515  11.576   3.800   8.925 -0.6391  0.5354  0.3725
  738MOL0     C99516  11.518   3.658   8.902  0.9238 -0.3479  0.5734
  738MOL0     C99517  11.509   3.585   9.034  0.2710 -0.9236  0.1144
  738MOL0     C99518  11.480   3.432   9.025  0.4001  1.0313 -0.2773
  738MOL0     O99519  11.556   3.367   9.136 -0.4022 -0.2714  0.0907
  738MOL0     C99520  11.667   3.293   9.094  0.8027  0.4423  0.1770
  738MOL0     C99521  11.683   3.169   9.157  1.2390  0.6101  0.1605
  738MOL0     C99522  11.785   3.083   9.124 -0.2762 -0.0859  0.2126
  738MOL0     C99523  11.892   3.130   9.049  0.0335 -0.2405 -0.1081
  738MOL0     C99524  12.001   3.035   9.016  0.2585 -0.0561  0.3067
  738MOL0     O99525  12.013   2.923   9.087 -0.3146 -0.1206  1.1633
  738MOL0     C99526  12.062   2.808   9.035 -1.8612  0.7571 -0.0590
  738MOL0     C99527  12.103   2.709   9.133  1.3334  0.8720 -0.5515
  738MOL0     C99528  12.164   2.590   9.088  1.4168 -1.7921 -0.4593
  738MOL0     C99529  12.192   2.559   8.951  0.2454 -1.3385 -0.3813
  738MOL0     O99530  12.241   2.440   8.918 -0.1400  0.3620 -0.9099
  738MOL0     C99531  12.365   2.450   8.854  0.2650 -0.0753  0.1300
  738MOL0     C99532  12.377   2.338   8.746 -0.5036  0.3465  0.1342
  738MOL0     C99533  12.524   2.315   8.683  0.6247 -0.0998 -0.6610
  738MOL0     C99534  12.522   2.184   8.592 -0.6638 -0.3613  0.0844
  738MOL0     C99535  12.642   2.195   8.489 -0.0588  0.3048 -0.6985
  738MOL0     C99536  12.639   2.080   8.384  1.0100 -0.4194  0.5937
  738MOL0     C99537  12.669   1.944   8.431 -0.0457 -0.3298 -0.5078
  738MOL0     C99538  12.597   1.826   8.358 -0.3141 -0.1975 -0.2432
  738MOL0    Cl99539  12.431   1.848   8.406  0.6545  0.1721 -0.4367
  738MOL0     C99540  12.151   2.657   8.865  0.7709 -0.3801  1.0042
  738MOL0     C99541  12.099   2.779   8.905 -0.3662  0.2939  0.0435
  738MOL0     O99542  12.071   3.075   8.920  0.1712  0.2511  0.2572
  738MOL0     C99543  11.882   3.261   8.998 -0.0196 -0.1955 -0.4274
  738MOL0     C99544  11.769   3.340   9.008 -0.3990  0.4036 -0.0761
  738MOL0     N99545  11.720   3.932   8.769 -0.0547  0.5605 -1.5773
  738MOL0     N99546  11.704   3.996   8.665  0.3456  0.3968  0.0614
  738MOL0     C99547  11.394   3.933   7.497  0.6157  0.1435  0.6533
  738MOL0     C99548  11.420   4.025   7.394  0.1170  0.5102 -0.5565
  738MOL0     C99549  11.463   4.385   7.122  0.2763  0.0528 -0.4452
  738MOL0     C99550  11.568   4.459   7.196  0.5715 -0.6397 -1.6231
  738MOL0     C99551  11.632   4.562   7.127 -0.4071 -1.0861 -1.1772
  738MOL0     C99552  11.593   4.612   6.999 -0.1467 -0.0284  0.1672
  738MOL0     O99553  11.662   4.711   6.932 -0.1400  0.1558  0.0491
  738MOL0     C99554  11.775   4.768   6.988 -0.4505 -0.3656  0.4012
  738MOL0     C99555  11.805   4.893   6.914  0.4029  0.6410 -0.2343
  738MOL0     C99556  11.762   5.022   6.978 -0.0383  0.4165  0.4239
  738MOL0     C99557  11.853   5.062   7.100  0.0398  0.9050  0.0777
  738MOL0     C99558  11.852   5.206   7.125  0.3628 -0.6454  0.4901
  738MOL0     C99559  11.859   5.319   7.163  0.2210  0.0734  0.2837
  738MOL0     C99560  11.485   4.545   6.935  0.5589  0.6570  0.0509
  738MOL0     C99561  11.429   4.425   6.992 -1.5481  0.1120  0.4759
  738MOL0     C99562  11.329   4.355   6.910  0.5083  0.5049  1.0406
  738MOL0     H99563  11.334   4.305   7.582 -4.9726 -0.1486  1.1026
  738MOL0     H99564  11.285   4.150   7.734  2.0586  2.2377  0.2027
  738MOL0     H99565  11.330   3.985   7.872  0.1477  0.0324 -0.3201
  738MOL0     H99566  11.253   3.824   7.898 -0.0717  0.3523 -0.8697
  738MOL0     H99567  11.546   3.884   7.810 -0.9834  1.7466  0.0276
  738MOL0     H99568  11.470   3.729   7.842 -1.5114  0.5638  1.2026
  738MOL0     H99569  11.562   3.915   8.059  0.9497 -1.0148 -1.0676
  738MOL0     H99570  11.609   3.747   8.022  1.3032  1.1321 -0.9827
  738MOL0     H99571  11.333   3.828   8.135  0.4050 -0.4613 -0.1622
  738MOL0     H99572  11.366   3.684   8.075 -0.4617  0.0619  0.0333
  738MOL0     H99573  11.407   3.685   8.326  1.9148  1.3048  1.4323
  738MOL0     H99574  11.540   3.634   8.238 -3.0373 -2.1931 -1.2013
  738MOL0     H99575  11.609   3.768   8.425 -0.3770 -2.2869 -1.8851
  738MOL0     H99576  11.637   3.874   8.294 -1.4283  1.1831 -0.8928
  738MOL0     H99577  11.382   3.894   8.471  1.6939 -1.8073  1.1270
  738MOL0     H99578  11.410   3.989   8.318  0.8561  1.3077 -0.0469
  738MOL0     H99579  11.612   4.083   8.446 -0.0676 -0.4473  1.4732
  738MOL0     H99580  11.457   4.118   8.540 -0.1097  0.6096  1.2320
  738MOL0     H99581  11.420   3.834   8.679  1.0691 -2.3485 -1.0059
  738MOL0     H99582  11.668   3.797   8.985 -0.6220 -1.6535  0.2986
  738MOL0     H99583  11.513   3.861   8.991 -0.5676 -2.1332  3.1222
  738MOL0     H99584  11.421   3.662   8.851  1.7429 -0.3400 -1.0782
  738MOL0     H99585  11.589   3.613   8.832 -2.2152 -1.1935 -2.4062
  738MOL0     H99586  11.447   3.649   9.098  3.3631  1.4556  1.0326
  738MOL0     H99587  11.610   3.596   9.077 -0.8477 -0.4443  2.8355
  738MOL0     H99588  11.510   3.384   8.932  0.4568 -0.1643  0.3456
  738MOL0     H99589  11.375   3.404   9.039  1.0830 -3.2150 -2.1343
  738MOL0     H99590  11.605   3.121   9.217  1.2306 -1.7318 -1.6011
  738MOL0     H99591  11.804   2.987   9.170  2.3132 -0.9879 -2.3949
  738MOL0     H99592  12.083   2.721   9.239  1.8343 -2.7378  0.0540
  738MOL0     H99593  12.198   2.503   9.144  0.0546 -2.4926 -0.6810
  738MOL0     H99594  12.383   2.549   8.812  0.2335 -0.4631 -0.8081
  738MOL0     H99595  12.431   2.430   8.940 -3.1827  1.0561  3.3259
  738MOL0     H99596  12.343   2.241   8.785 -1.1969 -1.0468 -3.4681
  738MOL0     H99597  12.308   2.374   8.669  0.9925  2.2330 -0.3986
  738MOL0     H99598  12.544   2.408   8.629 -2.4070 -0.1991 -2.1856
  738MOL0     H99599  12.603   2.302   8.758  0.0487  0.5470  0.0710
  738MOL0     H99600  12.429   2.177   8.535  0.0833 -0.0177 -1.2076
  738MOL0     H99601  12.523   2.086   8.641 -0.3696 -1.1316 -1.3912
  738MOL0     H99602  12.733   2.182   8.547 -0.4244 -2.5007 -0.5863
  738MOL0     H99603  12.641   2.300   8.458 -1.8038  1.2804  2.2538
  738MOL0     H99604  12.536   2.074   8.348  0.5991  1.5593  1.3434
  738MOL0     H99605  12.698   2.103   8.296 -0.3891  0.2829 -0.1981
  738MOL0     H99606  12.660   1.933   8.540 -1.5343  3.0829 -0.1826
  738MOL0     H99607  12.772   1.920   8.402 -0.9993 -4.0560 -1.3587
  738MOL0     H99608  12.615   1.836   8.250  4.1752  0.8265  0.4259
  738MOL0     H99609  12.627   1.729   8.399  1.6419  0.8753  1.0140
  738MOL0     H99610  12.159   2.644   8.758 -0.1385 -0.4340  0.9394
  738MOL0     H99611  12.066   2.853   8.832 -1.3181  1.8028  1.9168
  738MOL0     H99612  11.967   3.309   8.952 -0.4271  0.5395 -0.4236
  738MOL0     H99613  11.774   3.439   8.963 -1.2477 -0.2830 -1.7294
  738MOL0     H99614  11.410   3.826   7.486 -1.6090 -0.5574  3.1975
  738MOL0     H99615  11.456   4.004   7.294 -2.0038  0.4789 -1.3668
  738MOL0     H99616  11.590   4.448   7.302 -1.0257 -2.5238 -1.4196
  738MOL0     H99617  11.727   4.594   7.170 -1.9343  5.2338 -1.4994
  738MOL0     H99618  11.865   4.706   6.975  1.5657  2.0745  1.8375
  738MOL0     H99619  11.752   4.796   7.091  2.4318  1.9956  0.5358
  738MOL0     H99620  11.763   4.882   6.813 -1.0033 -0.8624  0.4651
  738MOL0     H99621  11.913   4.891   6.898  0.5431  0.4333  0.6889
  738MOL0     H99622  11.653   5.026   6.991 -0.4783 -0.3627 -2.2964
  738MOL0     H99623  11.767   5.104   6.907 -1.6327  2.4560  2.5101
  738MOL0     H99624  11.813   5.016   7.191 -2.4288  1.8448 -0.4781
  738MOL0     H99625  11.958   5.035   7.085  0.1762  1.3634  0.1962
  738MOL0     H99626  11.851   5.422   7.192 -0.7657 -0.3927  1.8153
  738MOL0     H99627  11.453   4.566   6.834 -1.1009 -1.7985 -0.0006
  738MOL0     H99628  11.231   4.362   6.959  0.4717 -0.5865  1.1297
  738MOL0     H99629  11.309   4.405   6.815  1.5822  2.4717  1.7688
  738MOL0     H99630  11.362   4.252   6.896  0.2794  0.7215 -1.3968
  739MOL0     O99631   5.529   6.082  10.686  0.1515 -0.1119 -0.1546
  739MOL0     C99632   5.454   6.151  10.753 -0.9228 -0.7696  0.8752
  739MOL0     O99633   5.444   6.292  10.749 -0.1079 -0.1856  0.8340
  739MOL0     C99634   5.519   6.363  10.655 -0.3289 -0.5223 -0.7085
  739MOL0     C99635   5.600   6.455  10.714 -0.9868 -0.5221 -0.1177
  739MOL0     C99636   5.685   6.539  10.643 -0.4223  0.9253 -0.3549
  739MOL0     C99637   5.696   6.521  10.500  0.0317 -0.6071 -1.3202
  739MOL0     O99638   5.781   6.593  10.419 -0.6837  0.0672  0.0371
  739MOL0     C99639   5.856   6.697  10.486  0.1894  0.2066  0.3242
  739MOL0     C99640   5.954   6.754  10.389 -0.8539 -0.6213 -0.0276
  739MOL0     C99641   6.052   6.650  10.349  0.3322 -0.5094  0.0390
  739MOL0     C99642   6.178   6.692  10.272  0.3926 -0.4317 -0.0213
  739MOL0     C99643   6.168   6.778  10.142  1.0242 -1.0023 -0.2949
  739MOL0     C99644   6.141   6.698  10.016 -0.7728 -0.0674 -0.6481
  739MOL0     C99645   6.013   6.616  10.015 -0.2276  0.3816  0.7151
  739MOL0     C99646   5.969   6.544   9.885 -0.4535 -0.7751 -0.9562
  739MOL0     N99647   5.956   6.631   9.772  0.6105 -0.3344 -1.3464
  739MOL0     C99648   5.847   6.705   9.752 -0.6643 -0.0086 -1.0494
  739MOL0     C99649   5.871   6.770   9.628 -0.2333  0.3318 -0.4257
  739MOL0     C99650   5.776   6.849   9.549  0.5323  0.1937  0.3382
  739MOL0     C99651   5.713   6.945   9.642 -0.5932 -0.5148 -0.7708
  739MOL0     C99652   5.818   7.054   9.676 -0.3687 -0.6351 -0.1345
  739MOL0     C99653   5.843   7.050   9.822  0.1416 -0.3020  1.0960
  739MOL0     O99654   5.945   7.152   9.862 -0.6420  0.8191  0.2917
  739MOL0     C99655   6.080   7.136   9.842  0.5753  0.1627 -0.8648
  739MOL0     C99656   6.125   7.016   9.797 -0.9988  0.6383 -0.4929
  739MOL0     C99657   6.255   7.001   9.746 -0.0032  0.1072 -0.3363
  739MOL0     C99658   6.350   7.107   9.778 -0.7935  0.0244  0.8097
  739MOL0     C99659   6.500   7.082   9.749  0.3133 -0.0702  0.5051
  739MOL0     O99660   6.535   6.960   9.684  0.5530 -1.0387  0.4120
  739MOL0     C99661   6.659   6.966   9.615 -0.0879 -0.3973 -0.6287
  739MOL0     C99662   6.698   7.067   9.530 -0.1043 -0.4545 -0.5971
  739MOL0     C99663   6.816   7.048   9.463 -0.4643 -1.4383  0.9594
  739MOL0     C99664   6.897   6.929   9.471 -0.0957 -0.6182  0.2447
  739MOL0     O99665   7.016   6.903   9.407 -0.2260 -0.5163 -0.2849
  739MOL0     C99666   7.101   7.015   9.367  0.3677 -0.6443  0.8109
  739MOL0     C99667   7.246   6.974   9.403 -0.9933 -0.0398  0.0014
  739MOL0     C99668   7.250   6.929   9.553  0.5153 -0.1292  0.4980
  739MOL0     C99669   7.315   6.788   9.564  0.6920  0.3163  0.1615
  739MOL0     C99670   7.341   6.753   9.709 -0.0345 -1.5449 -0.2283
  739MOL0     C99671   7.347   6.603   9.729  1.3120  1.2840  0.6281
  739MOL0     C99672   7.216   6.531   9.695  0.5074 -0.1712 -0.1160
  739MOL0     C99673   7.090   6.607   9.727 -0.2542 -0.9522 -0.4959
  739MOL0    Cl99674   7.038   6.644   9.892  0.2121  0.1405 -0.5783
  739MOL0     C99675   6.852   6.822   9.557 -0.3909  0.0987 -0.0176
  739MOL0     C99676   6.731   6.847   9.625  0.1810 -0.6574 -0.4910
  739MOL0     O99677   6.576   7.172   9.779  0.3491 -0.3668  0.4544
  739MOL0     C99678   6.298   7.221   9.839 -0.4399  0.5238  0.2684
  739MOL0     C99679   6.161   7.241   9.861  0.2398  0.5524  0.2556
  739MOL0     N99680   5.995   6.729   9.588 -0.4247  0.1656  0.3683
  739MOL0     N99681   6.043   6.652   9.675 -0.6372  0.2130  0.4974
  739MOL0     C99682   5.605   6.434  10.446 -0.2022  0.2030 -0.6697
  739MOL0     C99683   5.514   6.353  10.522 -1.1498  0.0569  0.0807
  739MOL0     C99684   5.348   6.081  10.839 -0.9265 -0.5691  0.5807
  739MOL0     C99685   5.278   5.973  10.784  0.1174 -0.0035 -0.3941
  739MOL0     C99686   5.193   5.894  10.862 -0.1581 -0.6173  0.0380
  739MOL0     C99687   5.162   5.943  10.992  1.4517 -0.5556 -1.0224
  739MOL0     O99688   5.081   5.860  11.071  0.5461  0.5278  0.5759
  739MOL0     C99689   4.986   5.907  11.166 -1.1870 -0.0391 -0.3677
  739MOL0     C99690   5.034   5.854  11.296 -0.1410  0.3854 -0.0967
  739MOL0     C99691   4.932   5.912  11.407  0.1856  0.1885  0.3167
  739MOL0     C99692   4.793   5.836  11.405  0.3061  1.3011  0.3106
  739MOL0     C99693   4.705   5.901  11.497  0.1423  0.1062 -1.0142
  739MOL0     C99694   4.632   5.984  11.543  0.6204  0.7665 -0.7905
  739MOL0     C99695   5.224   6.051  11.040  0.2024  0.3045 -0.9158
  739MOL0     C99696   5.317   6.129  10.970  0.2046  0.9470  0.5280
  739MOL0     C99697   5.361   6.262  11.025 -0.6058  0.4481 -0.0043
  739MOL0     H99698   5.591   6.462  10.822  2.4487  1.5286  0.1676
  739MOL0     H99699   5.737   6.620  10.694 -0.4166  1.9723 -1.9686
  739MOL0     H99700   5.785   6.772  10.523 -0.7082 -0.4572 -0.0098
  739MOL0     H99701   5.909   6.651  10.570 -0.7708  0.7940  1.2811
  739MOL0     H99702   6.003   6.841  10.433 -2.1131  1.1371 -1.9140
  739MOL0     H99703   5.902   6.801  10.305  2.7117  4.0165 -0.0264
  739MOL0     H99704   6.002   6.577  10.284 -0.3565 -1.0688  1.1517
  739MOL0     H99705   6.083   6.599  10.441 -2.9542  1.4306  2.4765
  739MOL0     H99706   6.239   6.741  10.349 -1.4664 -0.5338  1.5819
  739MOL0     H99707   6.233   6.606  10.232 -0.6280 -2.0801  1.9190
  739MOL0     H99708   6.075   6.832  10.164  0.8997 -0.0956 -2.6758
  739MOL0     H99709   6.248   6.848  10.114 -0.0807 -1.0623 -4.2332
  739MOL0     H99710   6.143   6.778   9.942 -2.8115  4.2935  3.4666
  739MOL0     H99711   6.222   6.626  10.003  0.5519  1.1135  0.7153
  739MOL0     H99712   5.930   6.681  10.046 -3.2041 -2.1756 -1.2216
  739MOL0     H99713   6.022   6.532  10.085  1.4754  0.6043  0.8021
  739MOL0     H99714   6.043   6.470   9.855  2.3808  1.7074 -0.5381
  739MOL0     H99715   5.871   6.499   9.907 -0.8993  0.5803 -0.0426
  739MOL0     H99716   5.769   6.708   9.828  0.3922  2.7453  0.0493
  739MOL0     H99717   5.813   6.890   9.454 -0.4261 -0.4120 -0.3104
  739MOL0     H99718   5.695   6.780   9.526  1.4819 -1.2816  1.2570
  739MOL0     H99719   5.624   6.994   9.602 -0.6055  0.5732  0.4967
  739MOL0     H99720   5.677   6.904   9.737  0.9464  1.6702  0.8660
  739MOL0     H99721   5.778   7.151   9.643  1.1893 -0.8416 -2.9841
  739MOL0     H99722   5.910   7.039   9.618 -0.5155  1.1822 -0.9041
  739MOL0     H99723   5.870   6.949   9.852 -0.1722 -0.1343  1.9606
  739MOL0     H99724   5.747   7.075   9.867 -1.0835  2.4112 -2.4980
  739MOL0     H99725   6.065   6.926   9.799 -0.4963  0.2986  1.8400
  739MOL0     H99726   6.274   6.900   9.712 -4.2188 -1.2452  0.6753
  739MOL0     H99727   6.637   7.153   9.508  1.8008  1.2005  0.2975
  739MOL0     H99728   6.862   7.125   9.403 -2.5067 -1.1275 -0.3065
  739MOL0     H99729   7.108   7.039   9.261 -0.1355  2.4174  1.3781
  739MOL0     H99730   7.075   7.101   9.429 -1.0210 -1.1953  1.0223
  739MOL0     H99731   7.274   6.889   9.341  0.0463  0.5320 -0.3342
  739MOL0     H99732   7.310   7.060   9.381 -1.0475  1.1117  3.5688
  739MOL0     H99733   7.305   7.011   9.601 -0.3195  1.7423 -1.5693
  739MOL0     H99734   7.157   6.935   9.610 -0.6309 -2.5381 -0.9748
  739MOL0     H99735   7.415   6.785   9.522  0.6256  6.9187 -1.4823
  739MOL0     H99736   7.264   6.709   9.508  0.3555 -1.5822  2.9410
  739MOL0     H99737   7.278   6.802   9.784 -1.4813 -2.6191 -0.6806
  739MOL0     H99738   7.439   6.782   9.748 -1.2856 -1.1524  2.9688
  739MOL0     H99739   7.416   6.573   9.650  1.2905 -0.2467  1.1589
  739MOL0     H99740   7.383   6.574   9.827  1.5434 -0.9585 -0.0730
  739MOL0     H99741   7.226   6.438   9.751 -2.0903 -0.1630  0.4701
  739MOL0     H99742   7.216   6.507   9.588 -1.1200  0.6202 -0.3281
  739MOL0     H99743   7.090   6.707   9.682  2.8650 -0.0525  1.2130
  739MOL0     H99744   7.004   6.559   9.680  1.3882 -3.1957 -1.4120
  739MOL0     H99745   6.899   6.724   9.562  1.0960  0.8402  3.7802
  739MOL0     H99746   6.694   6.775   9.697 -0.9398  0.8954  0.5662
  739MOL0     H99747   6.363   7.306   9.851 -1.6604  1.6537 -0.7725
  739MOL0     H99748   6.129   7.341   9.888  0.6907  0.0429  2.9268
  739MOL0     H99749   5.594   6.435  10.338 -6.4501 -5.0536 -0.7443
  739MOL0     H99750   5.451   6.279  10.475  0.5984 -2.8141  1.8967
  739MOL0     H99751   5.280   5.963  10.675  0.5674 -2.3662 -0.2298
  739MOL0     H99752   5.139   5.808  10.823 -0.5096 -0.7784  0.8589
  739MOL0     H99753   4.887   5.866  11.143 -1.4913 -0.5567  1.6157
  739MOL0     H99754   4.992   6.016  11.171  0.6505 -0.1328  0.2854
  739MOL0     H99755   5.131   5.901  11.314 -0.8356  1.8124  0.0628
  739MOL0     H99756   5.047   5.746  11.284  1.3704  0.3143  1.6533
  739MOL0     H99757   4.914   6.013  11.369 -1.6599 -1.2466 -3.1431
  739MOL0     H99758   4.983   5.917  11.503  3.0161  1.2026 -1.1016
  739MOL0     H99759   4.742   5.848  11.309  1.5371 -0.7830 -0.6779
  739MOL0     H99760   4.809   5.731  11.432 -0.5071  0.7808 -1.1286
  739MOL0     H99761   4.563   6.062  11.567 -1.4385 -0.3859 -2.5879
  739MOL0     H99762   5.198   6.069  11.143  1.6494  1.6069 -0.7265
  739MOL0     H99763   5.379   6.249  11.132  1.1968  2.1948 -0.0425
  739MOL0     H99764   5.463   6.282  10.991  0.1650 -0.1522  1.8617
  739MOL0     H99765   5.288   6.340  11.004 -3.4345 -1.0576  3.2204
  740MOL0     O99766   7.558   0.569   7.264  0.0040  0.1880 -0.3847
  740MOL0     C99767   7.605   0.540   7.151  1.1790 -0.7079 -0.3819
  740MOL0     O99768   7.735   0.531   7.130  0.0016  0.2890 -0.6499
  740MOL0     C99769   7.816   0.480   7.239 -0.9628 -1.0536  0.1187
  740MOL0     C99770   7.771   0.414   7.354 -0.2718  0.6948 -0.2394
  740MOL0     C99771   7.871   0.375   7.450  1.2713  0.6851  0.7477
  740MOL0     C99772   8.001   0.407   7.439 -0.1680 -0.4669  0.5454
  740MOL0     O99773   8.091   0.383   7.533 -0.0987  0.9058 -1.1983
  740MOL0     C99774   8.051   0.374   7.669 -0.4638  0.1096  0.0530
  740MOL0     C99775   8.150   0.466   7.735 -0.0044 -0.6696 -0.3595
  740MOL0     C99776   8.087   0.523   7.864 -0.6995  0.8325  0.1301
  740MOL0     C99777   8.200   0.538   7.970  0.4045  0.8007  1.1346
  740MOL0     C99778   8.299   0.657   7.932 -0.7541  0.0025 -0.2114
  740MOL0     C99779   8.437   0.647   7.983 -0.1870  0.2974  0.0165
  740MOL0     C99780   8.438   0.647   8.145  0.4992 -0.9435  0.7202
  740MOL0     C99781   8.562   0.733   8.211  1.1054  0.9705 -0.4969
  740MOL0     N99782   8.697   0.678   8.185 -0.7539  0.4134  0.1920
  740MOL0     C99783   8.739   0.547   8.151  0.5815  0.5953 -0.2694
  740MOL0     C99784   8.866   0.548   8.118  0.7266  1.0075  0.8457
  740MOL0     C99785   8.942   0.431   8.049  0.5816  0.3183 -0.0508
  740MOL0     C99786   8.844   0.333   7.975 -1.2129 -0.1434 -1.5672
  740MOL0     C99787   8.797   0.399   7.856  0.3104 -0.2394 -0.1576
  740MOL0     C99788   8.750   0.313   7.743 -0.1184  0.2439  0.4553
  740MOL0     O99789   8.636   0.248   7.805 -0.7272 -0.2495  0.6529
  740MOL0     C99790   8.547   0.187   7.723 -0.3507 -0.4223 -0.6256
  740MOL0     C99791   8.418   0.169   7.779 -0.5171  0.2778  0.3893
  740MOL0     C99792   8.337   0.078   7.713 -0.4371  0.5163  1.5077
  740MOL0     C99793   8.356   0.028   7.581  0.3987 -0.1759 -0.4130
  740MOL0     C99794   8.250  -0.052   7.505  0.0885 -0.1370  1.7837
  740MOL0     O99795   8.128  -0.047   7.558 -0.4427  0.9709  0.5013
  740MOL0     C99796   8.027  -0.103   7.481  0.5740  0.3424  0.4360
  740MOL0     C99797   7.980  -0.239   7.507  0.1410 -1.2628 -0.6928
  740MOL0     C99798   7.871  -0.290   7.441  0.0566 -0.1439  0.1849
  740MOL0     C99799   7.793  -0.207   7.353  0.3076 -0.1834 -0.0712
  740MOL0     O99800   7.681  -0.259   7.300 -0.5920  0.3421 -0.1771
  740MOL0     C99801   7.670  -0.403   7.299  0.4275 -0.2367 -0.3923
  740MOL0     C99802   7.553  -0.452   7.210 -0.3520 -0.4412  0.3944
  740MOL0     C99803   7.426  -0.367   7.260  0.6876  0.0092 -0.2234
  740MOL0     C99804   7.325  -0.340   7.145  0.2837 -0.6260  0.2944
  740MOL0     C99805   7.184  -0.301   7.197 -0.0344  0.0040 -0.2655
  740MOL0     C99806   7.102  -0.411   7.264 -0.7724 -0.8345  0.0130
  740MOL0     C99807   7.064  -0.528   7.175 -0.5027 -0.6829  0.5086
  740MOL0     C99808   6.944  -0.611   7.231  0.0995  0.0180  0.0216
  740MOL0    Cl99809   6.966  -0.666   7.399 -0.3613  0.2645 -0.0668
  740MOL0     C99810   7.828  -0.075   7.332  1.0081  0.7156  0.1460
  740MOL0     C99811   7.945  -0.021   7.399 -0.0027 -0.1854 -1.1918
  740MOL0     O99812   8.283  -0.099   7.396 -0.4458 -0.3514  0.0111
  740MOL0     C99813   8.481   0.040   7.532  0.8958 -0.4891  0.4238
  740MOL0     C99814   8.577   0.118   7.596  0.4114  0.5899 -0.5279
  740MOL0     N99815   8.905   0.681   8.125 -0.6890  1.2058 -0.2861
  740MOL0     N99816   8.808   0.754   8.166 -0.3139  0.6333 -0.3585
  740MOL0     C99817   8.045   0.476   7.327  1.0044 -0.6305  0.3640
  740MOL0     C99818   7.951   0.507   7.225 -0.0261 -0.4299 -1.0654
  740MOL0     C99819   7.501   0.512   7.052  0.0295  0.5358 -1.3528
  740MOL0     C99820   7.526   0.411   6.962 -0.5629  0.4515  0.1451
  740MOL0     C99821   7.426   0.347   6.887 -0.2188  0.0330 -0.1805
  740MOL0     C99822   7.295   0.385   6.903 -0.2151  0.1528  0.6447
  740MOL0     O99823   7.198   0.349   6.819 -1.0846  0.3752  0.0162
  740MOL0     C99824   7.216   0.254   6.706  0.0228  0.3572  0.0262
  740MOL0     C99825   7.078   0.204   6.685  0.2398 -0.3762 -0.5332
  740MOL0     C99826   6.967   0.302   6.648  0.1012 -0.1191  0.0045
  740MOL0     C99827   6.826   0.253   6.684  0.0603 -0.5601 -0.1110
  740MOL0     C99828   6.799   0.121   6.644  0.5202 -0.2632  0.3251
  740MOL0     C99829   6.749   0.013   6.624  0.2788 -0.1195  0.2715
  740MOL0     C99830   7.266   0.493   6.985 -0.6303  0.1809 -0.4694
  740MOL0     C99831   7.367   0.563   7.057  0.4187  0.0662 -0.1786
  740MOL0     C99832   7.334   0.686   7.135  0.4962 -0.3484 -0.0817
  740MOL0     H99833   7.666   0.393   7.376 -0.1270  2.3021  2.5223
  740MOL0     H99834   7.818   0.334   7.534  2.4154  0.5897  1.4458
  740MOL0     H99835   7.948   0.406   7.692  0.5143  3.6192  0.1950
  740MOL0     H99836   8.064   0.281   7.723  1.5983  0.9119  1.0206
  740MOL0     H99837   8.193   0.537   7.664 -1.3974 -0.0027 -0.5800
  740MOL0     H99838   8.233   0.399   7.758 -1.2703 -2.5289 -0.9292
  740MOL0     H99839   8.014   0.446   7.889  0.8220 -0.8040 -0.3244
  740MOL0     H99840   8.047   0.622   7.837  1.3617  1.7464  0.2321
  740MOL0     H99841   8.143   0.549   8.063  0.6016 -0.4511  1.4304
  740MOL0     H99842   8.261   0.447   7.976  1.6501  1.5914  0.7932
  740MOL0     H99843   8.316   0.648   7.824  0.3961  0.4448 -0.0707
  740MOL0     H99844   8.252   0.752   7.962  0.0477 -0.3532  2.4226
  740MOL0     H99845   8.478   0.551   7.949 -2.9348 -0.0903 -2.5680
  740MOL0     H99846   8.508   0.716   7.937  2.1704 -0.7873  1.8164
  740MOL0     H99847   8.423   0.543   8.175 -3.5690 -0.7995 -0.1913
  740MOL0     H99848   8.344   0.697   8.171  0.1972 -0.3044 -1.4029
  740MOL0     H99849   8.562   0.838   8.179  1.0949  2.3274  3.4048
  740MOL0     H99850   8.570   0.738   8.321  5.0730  2.8855 -0.6672
  740MOL0     H99851   8.682   0.455   8.165  4.4820 -1.9541  0.2993
  740MOL0     H99852   9.014   0.466   7.974  0.5761  0.7084  0.1274
  740MOL0     H99853   8.998   0.385   8.131 -3.1997 -0.4254  2.3372
  740MOL0     H99854   8.904   0.248   7.941 -2.4674 -1.7625  0.0925
  740MOL0     H99855   8.765   0.292   8.038  0.2014  0.5679  0.7980
  740MOL0     H99856   8.877   0.453   7.805 -0.4904  0.4171 -0.7360
  740MOL0     H99857   8.718   0.465   7.894 -0.3478 -1.0381 -0.1077
  740MOL0     H99858   8.824   0.236   7.718 -2.1211 -0.8762 -2.5723
  740MOL0     H99859   8.735   0.370   7.651  2.8788 -0.3956 -0.5389
  740MOL0     H99860   8.387   0.206   7.876  1.5583  4.6791 -0.3420
  740MOL0     H99861   8.254   0.040   7.772 -0.4485 -2.7193 -0.3428
  740MOL0     H99862   8.009  -0.302   7.591 -2.2929 -0.5684  0.7815
  740MOL0     H99863   7.861  -0.395   7.463  2.6055 -0.3384  0.7143
  740MOL0     H99864   7.760  -0.458   7.272 -1.3944 -2.7520 -1.7421
  740MOL0     H99865   7.641  -0.429   7.401 -0.9831 -0.4248 -0.8256
  740MOL0     H99866   7.578  -0.414   7.111 -0.0904  1.4373  1.1447
  740MOL0     H99867   7.533  -0.560   7.206 -0.1689 -0.5829  2.3389
  740MOL0     H99868   7.375  -0.425   7.337 -0.2014 -1.6086 -1.9511
  740MOL0     H99869   7.447  -0.273   7.312  3.3627  0.0534 -1.2192
  740MOL0     H99870   7.306  -0.434   7.092  1.1860 -0.4870 -0.2936
  740MOL0     H99871   7.373  -0.266   7.080 -0.5047 -2.9284 -3.1975
  740MOL0     H99872   7.117  -0.265   7.118  1.2447  5.0765  0.5858
  740MOL0     H99873   7.192  -0.218   7.269 -0.9266  1.5338 -1.8421
  740MOL0     H99874   7.155  -0.450   7.352  0.0331 -1.6211 -0.7889
  740MOL0     H99875   7.010  -0.367   7.303 -0.1870  0.4994 -0.0839
  740MOL0     H99876   7.152  -0.593   7.175  1.8801  2.1904 -1.7714
  740MOL0     H99877   7.035  -0.492   7.076 -1.1062 -2.2447  0.0878
  740MOL0     H99878   6.859  -0.543   7.230 -2.0442 -2.5163 -0.5126
  740MOL0     H99879   6.923  -0.693   7.162  0.2921  0.6675 -0.8146
  740MOL0     H99880   7.761  -0.020   7.266 -0.6471 -1.2727  0.0774
  740MOL0     H99881   7.980   0.082   7.399 -1.5847  0.3987  0.0711
  740MOL0     H99882   8.496   0.002   7.431 -0.7547  0.1598 -0.0898
  740MOL0     H99883   8.676   0.141   7.558 -0.0445  3.4784 -0.1925
  740MOL0     H99884   8.152   0.494   7.327  0.7148  1.7676 -2.0390
  740MOL0     H99885   7.991   0.568   7.145  3.9342  1.5287  2.0815
  740MOL0     H99886   7.624   0.366   6.970 -1.0887 -0.3319  5.1314
  740MOL0     H99887   7.452   0.267   6.818 -1.5071 -0.4086 -0.1781
  740MOL0     H99888   7.275   0.165   6.727  2.4206  0.8147 -3.7582
  740MOL0     H99889   7.248   0.319   6.624  0.5914 -0.6736 -0.5883
  740MOL0     H99890   7.055   0.143   6.773  0.2128 -3.1221 -2.3267
  740MOL0     H99891   7.085   0.147   6.592  0.6561 -0.8892 -0.1910
  740MOL0     H99892   6.963   0.336   6.544 -1.5219  2.4188  0.7959
  740MOL0     H99893   6.984   0.396   6.701 -0.8545 -1.0448  2.0560
  740MOL0     H99894   6.810   0.273   6.790 -3.6967  0.5611 -0.7522
  740MOL0     H99895   6.756   0.309   6.622  0.4068 -1.1016 -1.0282
  740MOL0     H99896   6.737  -0.093   6.615  1.1639 -0.3742  1.7733
  740MOL0     H99897   7.168   0.537   6.996  0.9018  3.4895  1.5061
  740MOL0     H99898   7.423   0.749   7.126  1.5340 -1.6772  0.6554
  740MOL0     H99899   7.252   0.746   7.095  1.4486 -0.7954 -2.9110
  740MOL0     H99900   7.310   0.669   7.240  2.5938  1.0083  0.6911
  741MOL0     O99901   3.069   2.831   2.715  0.0425 -0.4555 -0.4236
  741MOL0     C99902   3.176   2.839   2.780 -1.5728 -0.2084 -0.6173
  741MOL0     O99903   3.296   2.894   2.741  0.8280 -0.6885  0.5896
  741MOL0     C99904   3.303   2.977   2.630 -0.2519 -0.3793 -0.9505
  741MOL0     C99905   3.375   3.096   2.634 -0.2383 -0.3856 -0.1623
  741MOL0     C99906   3.374   3.176   2.522  1.0711 -0.1283  0.4490
  741MOL0     C99907   3.322   3.132   2.399 -0.0051 -0.0240  0.0103
  741MOL0     O99908   3.337   3.221   2.288  0.0957  0.2625 -0.8407
  741MOL0     C99909   3.226   3.312   2.299  0.5716 -0.0171  0.4582
  741MOL0     C99910   3.207   3.364   2.159  0.0115 -0.0819 -0.7644
  741MOL0     C99911   3.323   3.454   2.120  0.1443 -0.4355 -0.4104
  741MOL0     C99912   3.342   3.475   1.971 -0.2922 -0.3344 -0.6061
  741MOL0     C99913   3.225   3.572   1.935 -0.2529 -0.3817  0.0041
  741MOL0     C99914   3.216   3.566   1.787  0.5239  0.4337  0.6841
  741MOL0     C99915   3.109   3.656   1.718 -0.1814 -0.8545  0.4389
  741MOL0     C99916   3.128   3.662   1.572  1.4380 -0.1396  0.7675
  741MOL0     N99917   3.071   3.782   1.493 -0.9339  0.4192 -0.8338
  741MOL0     C99918   3.151   3.879   1.442 -0.2843  0.1884 -0.2660
  741MOL0     C99919   3.065   3.945   1.359 -0.6724 -0.0972  0.3594
  741MOL0     C99920   3.091   4.071   1.277  0.9004 -0.1317  0.6330
  741MOL0     C99921   3.146   4.184   1.366  0.4317 -0.1047 -0.1685
  741MOL0     C99922   3.118   4.322   1.302 -0.1793  0.8754  0.4037
  741MOL0     C99923   3.136   4.446   1.391  0.4625  0.1928 -0.0439
  741MOL0     O99924   3.271   4.437   1.440 -1.0041  0.1075  0.2518
  741MOL0     C99925   3.311   4.366   1.546 -0.2146  0.3085 -0.9060
  741MOL0     C99926   3.442   4.320   1.547  0.9903 -0.0470  0.3060
  741MOL0     C99927   3.486   4.254   1.662  0.0014 -0.5580  0.0626
  741MOL0     C99928   3.408   4.234   1.772  0.2691 -0.7639 -0.0060
  741MOL0     C99929   3.460   4.161   1.892 -0.7153  0.1131 -1.0160
  741MOL0     O99930   3.532   4.049   1.862 -0.4779  0.6883  0.4363
  741MOL0     C99931   3.568   3.956   1.954 -0.7276 -0.6669  0.5698
  741MOL0     C99932   3.697   3.967   2.019 -0.1199  1.4109 -0.8673
  741MOL0     C99933   3.728   3.883   2.129  0.9750 -1.0084 -1.1577
  741MOL0     C99934   3.641   3.780   2.167 -1.0192 -0.3925  0.3010
  741MOL0     O99935   3.657   3.690   2.268 -0.1070 -0.0691 -0.4836
  741MOL0     C99936   3.779   3.618   2.270  0.4055  0.3138 -0.0780
  741MOL0     C99937   3.787   3.517   2.157 -0.8078 -0.5234  0.4056
  741MOL0     C99938   3.885   3.398   2.176 -0.9470 -0.4795  0.4719
  741MOL0     C99939   3.827   3.295   2.269 -0.3749  0.1221  0.7028
  741MOL0     C99940   3.933   3.185   2.296  0.8320 -0.9882  0.6114
  741MOL0     C99941   3.893   3.056   2.351 -0.0940 -0.2111  0.2651
  741MOL0     C99942   3.818   2.967   2.252  0.6615  0.0307  0.8655
  741MOL0     C99943   3.895   2.920   2.121  0.0842 -0.4212 -0.1371
  741MOL0    Cl99944   3.793   2.818   2.011  0.0020  0.1493 -0.0820
  741MOL0     C99945   3.512   3.773   2.117  0.4339 -0.8636 -0.5592
  741MOL0     C99946   3.476   3.856   2.008 -0.2026 -1.0126 -0.0236
  741MOL0     O99947   3.429   4.181   2.005  0.5889  0.2909  0.3221
  741MOL0     C99948   3.270   4.280   1.762  0.7540 -0.3123 -0.5763
  741MOL0     C99949   3.219   4.346   1.655 -0.1661  0.0042  0.3037
  741MOL0     N99950   2.941   3.897   1.369  0.7474 -0.0958  0.5563
  741MOL0     N99951   2.946   3.801   1.462  0.2223 -0.3981  1.3538
  741MOL0     C99952   3.259   3.013   2.391 -0.5531  0.2819  0.4770
  741MOL0     C99953   3.245   2.935   2.509 -0.1501 -0.2358 -0.6795
  741MOL0     C99954   3.182   2.768   2.916  0.0002  0.4474  0.8606
  741MOL0     C99955   3.252   2.827   3.016  0.1433  0.2834 -0.1400
  741MOL0     C99956   3.250   2.785   3.152  0.4299  0.6965  0.0786
  741MOL0     C99957   3.186   2.673   3.186  0.6294  1.6578 -0.5238
  741MOL0     O99958   3.187   2.644   3.323 -0.5172  0.5099 -0.4056
  741MOL0     C99959   3.074   2.592   3.391 -0.1900 -0.0595  0.4977
  741MOL0     C99960   3.081   2.658   3.535  0.8505 -0.3304  0.3520
  741MOL0     C99961   2.999   2.791   3.533 -0.3431  0.2970  0.5827
  741MOL0     C99962   2.967   2.856   3.666 -0.2318 -0.1602  1.2983
  741MOL0     C99963   3.081   2.842   3.747 -0.4653 -0.9244 -0.5428
  741MOL0     C99964   3.167   2.845   3.839  0.0382  0.7277 -0.3273
  741MOL0     C99965   3.108   2.610   3.084 -0.2300 -0.1729 -0.2031
  741MOL0     C99966   3.106   2.656   2.948 -0.0660  1.1312  0.3943
  741MOL0     C99967   3.028   2.571   2.860 -0.5486 -0.3782 -0.4626
  741MOL0     H99968   3.428   3.139   2.719 -0.2797  1.6032 -1.0825
  741MOL0     H99969   3.409   3.278   2.535 -2.6055  1.2426  0.7186
  741MOL0     H99970   3.137   3.256   2.330  1.1568 -0.1745  1.9348
  741MOL0     H99971   3.239   3.400   2.363  2.4551  0.5957 -0.6980
  741MOL0     H99972   3.125   3.436   2.169 -0.6191 -1.1109  4.3714
  741MOL0     H99973   3.189   3.296   2.075 -0.4752 -0.0141 -0.7187
  741MOL0     H99974   3.417   3.420   2.163 -0.6495 -0.9561  1.0016
  741MOL0     H99975   3.303   3.549   2.171  1.1204  0.5902 -1.8710
  741MOL0     H99976   3.436   3.522   1.939  1.2960 -1.3318  2.2842
  741MOL0     H99977   3.347   3.374   1.930  1.7457  0.0087 -1.3176
  741MOL0     H99978   3.132   3.543   1.984  0.9985 -1.7408  1.6971
  741MOL0     H99979   3.250   3.674   1.968 -0.9501 -0.1287 -0.2245
  741MOL0     H99980   3.305   3.606   1.737 -1.4535  4.1068 -0.2470
  741MOL0     H99981   3.209   3.462   1.753 -2.5037  0.9325 -0.5451
  741MOL0     H99982   3.126   3.753   1.765 -1.9112  1.7352 -3.6828
  741MOL0     H99983   3.010   3.619   1.746  0.4663 -1.5365  1.8664
  741MOL0     H99984   3.233   3.654   1.543  1.2744 -0.4340  0.2564
  741MOL0     H99985   3.081   3.576   1.523  3.4028  0.8175 -3.2408
  741MOL0     H99986   3.253   3.901   1.470 -0.4791 -0.1528  0.7678
  741MOL0     H99987   3.165   4.035   1.204 -0.5304 -0.6569 -0.5970
  741MOL0     H99988   2.994   4.092   1.232  0.7044 -0.5652  0.8402
  741MOL0     H99989   3.086   4.183   1.457 -1.3867 -2.7183 -1.2678
  741MOL0     H99990   3.251   4.168   1.394 -0.2131 -0.1291  2.5950
  741MOL0     H99991   3.022   4.320   1.251 -1.9749 -3.7741  3.2810
  741MOL0     H99992   3.185   4.341   1.218  0.0615  2.1764  0.8597
  741MOL0     H99993   3.064   4.451   1.473 -0.1695 -1.4684 -0.4585
  741MOL0     H99994   3.117   4.540   1.339  1.8745  1.0260  0.8586
  741MOL0     H99995   3.513   4.339   1.467  1.2719  0.7359  0.7261
  741MOL0     H99996   3.590   4.225   1.670 -0.4878 -2.5443 -0.0822
  741MOL0     H99997   3.765   4.042   1.977 -0.0133  0.9660 -1.4997
  741MOL0     H99998   3.827   3.890   2.174  0.5369 -3.2322  0.3346
  741MOL0     H99999   3.864   3.687   2.277 -1.1152  2.3533 -0.6095
  741MOL0     H    0   3.775   3.552   2.357 -2.0508 -2.9570 -2.3780
  741MOL0     H    1   3.690   3.470   2.136  0.5083 -2.6525 -1.3220
  741MOL0     H    2   3.827   3.575   2.074  0.7905 -3.5389 -1.0719
  741MOL0     H    3   3.901   3.357   2.076 -3.5968  3.8342 -1.9996
  741MOL0     H    4   3.980   3.433   2.217  0.0512 -1.5055 -0.8668
  741MOL0     H    5   3.735   3.248   2.232 -0.1170 -0.9114  1.3381
  741MOL0     H    6   3.808   3.351   2.361  0.7802  1.1331  0.3453
  741MOL0     H    7   4.012   3.233   2.356 -0.4968  1.1386  0.7561
  741MOL0     H    8   3.986   3.158   2.204  1.3694 -0.4550  0.7545
  741MOL0     H    9   3.985   2.998   2.362  0.5610  0.4447 -1.4536
  741MOL0     H   10   3.829   3.065   2.439 -1.5209 -3.9273 -0.2071
  741MOL0     H   11   3.729   3.021   2.219  2.1593  1.4576 -1.1305
  741MOL0     H   12   3.769   2.885   2.304 -1.0944  1.4238  1.4918
  741MOL0     H   13   3.913   3.011   2.063 -3.0359  1.1418  1.1054
  741MOL0     H   14   3.984   2.863   2.149 -1.2648 -0.9031  3.8004
  741MOL0     H   15   3.436   3.711   2.162 -0.8249  2.5752  2.5538
  741MOL0     H   16   3.377   3.868   1.965 -0.3770 -0.3323  0.5424
  741MOL0     H   17   3.198   4.269   1.842  1.8399  1.2422  0.6629
  741MOL0     H   18   3.123   4.391   1.678  0.8604  0.9914  3.1100
  741MOL0     H   19   3.239   2.975   2.291 -1.0466  1.6416  0.0432
  741MOL0     H   20   3.202   2.835   2.503 -1.3589  0.3664 -3.7469
  741MOL0     H   21   3.307   2.917   2.988 -0.6897  1.5075  1.9529
  741MOL0     H   22   3.302   2.852   3.219  0.4979 -1.1949  2.0242
  741MOL0     H   23   3.057   2.484   3.393 -5.2672  0.4631  2.3367
  741MOL0     H   24   2.981   2.613   3.337 -0.2713 -1.7656 -0.0836
  741MOL0     H   25   3.184   2.684   3.563  0.4787  1.8533 -0.0962
  741MOL0     H   26   3.034   2.589   3.606  0.5202 -1.8690 -1.3128
  741MOL0     H   27   2.905   2.759   3.489  0.6829 -0.5994 -1.0435
  741MOL0     H   28   3.050   2.858   3.463  0.5319 -0.9332 -0.0037
  741MOL0     H   29   2.949   2.962   3.641  5.8180  0.7988 -0.5985
  741MOL0     H   30   2.875   2.811   3.706 -0.2527  0.3746  1.8789
  741MOL0     H   31   3.247   2.851   3.910  2.0349 -0.0243 -2.3632
  741MOL0     H   32   3.051   2.522   3.109  0.1615 -0.4448 -0.2662
  741MOL0     H   33   2.937   2.622   2.829 -1.5374 -2.1506 -0.6154
  741MOL0     H   34   3.092   2.565   2.771 -2.1775  2.9029 -2.0237
  741MOL0     H   35   3.004   2.473   2.902  1.8104 -0.2013  1.5366
  742MOL0     O   36  10.131   9.214   5.518  0.4480  0.0237 -0.6632
  742MOL0     C   37  10.035   9.283   5.474  0.6567  0.4481 -0.5245
  742MOL0     O   38   9.931   9.221   5.394  0.5347  0.6844  0.3496
  742MOL0     C   39   9.905   9.085   5.412 -0.1675  0.5015  0.0219
  742MOL0     C   40   9.821   9.044   5.307 -1.5437  0.1586  0.0663
  742MOL0     C   41   9.799   8.902   5.295  1.4410 -0.7701 -0.1317
  742MOL0     C   42   9.830   8.817   5.397 -0.3777  0.4009 -0.2126
  742MOL0     O   43   9.777   8.693   5.386 -0.2015  0.1542 -0.2437
  742MOL0     C   44   9.799   8.613   5.499  0.3615  0.4941  0.1481
  742MOL0     C   45   9.705   8.489   5.484 -0.5260  0.7454 -0.7062
  742MOL0     C   46   9.775   8.364   5.534 -0.1332  1.1363  0.0116
  742MOL0     C   47   9.716   8.233   5.488 -0.5870  0.4660 -0.0074
  742MOL0     C   48   9.796   8.114   5.541 -0.1562 -0.5319  0.7002
  742MOL0     C   49   9.830   8.122   5.693 -1.2242 -0.5800  0.9524
  742MOL0     C   50   9.698   8.115   5.780 -0.0985 -0.7592  0.1562
  742MOL0     C   51   9.634   7.972   5.783 -0.4563  0.4715 -0.6052
  742MOL0     N   52   9.714   7.867   5.852  0.4292 -0.0495  0.6544
  742MOL0     C   53   9.771   7.877   5.975  1.2676 -0.0033 -0.3476
  742MOL0     C   54   9.859   7.771   5.981  0.0489  0.2783 -0.1884
  742MOL0     C   55   9.929   7.743   6.107 -0.1348 -0.0575  0.0791
  742MOL0     C   56   9.831   7.728   6.225 -0.2495  0.3785  0.7677
  742MOL0     C   57   9.878   7.673   6.351 -0.5457 -0.6172 -0.2378
  742MOL0     C   58   9.922   7.525   6.350 -0.3100 -0.2820  1.1553
  742MOL0     O   59  10.003   7.499   6.460 -0.5421 -0.9432 -0.5354
  742MOL0     C   60  10.029   7.372   6.483  0.5703  0.0888 -0.2340
  742MOL0     C   61  10.017   7.272   6.390  0.0318  0.0507  0.6308
  742MOL0     C   62  10.055   7.145   6.419 -0.3059  0.9689 -0.9267
  742MOL0     C   63  10.101   7.114   6.551  1.4527 -0.6050 -0.0767
  742MOL0     C   64  10.120   6.968   6.589  1.1359  0.2842  0.3554
  742MOL0     O   65  10.074   6.866   6.503  0.5587 -0.1310 -0.0415
  742MOL0     C   66  10.069   6.736   6.528  1.5866 -0.3570 -0.4389
  742MOL0     C   67   9.973   6.667   6.450  0.3912 -1.1627 -0.3866
  742MOL0     C   68   9.948   6.531   6.461  0.4846  0.8872 -0.6738
  742MOL0     C   69  10.015   6.452   6.557 -0.1118 -0.5092  0.3868
  742MOL0     O   70   9.971   6.325   6.568  0.5453 -0.4506 -0.2611
  742MOL0     C   71   9.996   6.241   6.688 -0.1983  0.0030 -0.5169
  742MOL0     C   72   9.953   6.108   6.630 -0.0950 -0.5662  0.0456
  742MOL0     C   73   9.806   6.092   6.600  0.4985  0.1134 -0.1071
  742MOL0     C   74   9.765   5.944   6.583 -0.0692  0.8031  0.3321
  742MOL0     C   75   9.817   5.893   6.438  0.0578  1.0271 -0.0687
  742MOL0     C   76   9.774   5.744   6.439 -0.3602  0.8695  0.3089
  742MOL0     C   77   9.815   5.663   6.318  0.1580  0.5033 -0.2551
  742MOL0     C   78   9.729   5.541   6.281  0.7084  0.2664 -0.2088
  742MOL0    Cl   79   9.772   5.505   6.112 -0.0682  0.5863 -0.1735
  742MOL0     C   80  10.116   6.513   6.637 -0.2205 -1.1974  1.2506
  742MOL0     C   81  10.146   6.649   6.616 -0.1032 -0.4094 -0.6234
  742MOL0     O   82  10.183   6.940   6.698  0.3227 -0.0259  0.8145
  742MOL0     C   83  10.115   7.215   6.646 -0.6634  0.0675  0.3036
  742MOL0     C   84  10.079   7.346   6.609 -0.7014  0.4799 -0.5762
  742MOL0     N   85   9.856   7.702   5.862  0.6330 -0.2658 -1.2480
  742MOL0     N   86   9.761   7.758   5.786 -1.0380  0.5581  1.1627
  742MOL0     C   87   9.905   8.872   5.505 -0.4515  0.3326  0.2347
  742MOL0     C   88   9.942   9.004   5.516 -0.1790 -1.5316  0.7985
  742MOL0     C   89  10.038   9.431   5.474 -0.2709  0.0946 -0.4914
  742MOL0     C   90   9.967   9.503   5.376  0.1615  1.3818 -0.0668
  742MOL0     C   91   9.969   9.646   5.376  0.5414  0.0413 -0.3485
  742MOL0     C   92  10.048   9.705   5.476  0.1468 -0.3552 -0.3509
  742MOL0     O   93  10.079   9.834   5.463 -0.0099  0.3418 -0.0105
  742MOL0     C   94  10.034   9.912   5.567  0.6484 -0.0970 -1.1389
  742MOL0     C   95   9.908  10.000   5.526 -0.1276 -0.2730 -0.0710
  742MOL0     C   96   9.863  10.090   5.638  0.1170  0.4169  0.1697
  742MOL0     C   97   9.741  10.161   5.589 -0.1106  0.3215  0.4179
  742MOL0     C   98   9.628  10.071   5.587  0.9466  0.4008 -1.3352
  742MOL0     C   99   9.532   9.997   5.607  0.6361  0.4457  0.7892
  742MOL0     C  100  10.103   9.641   5.587 -0.4179 -0.3651 -0.4776
  742MOL0     C  101  10.098   9.505   5.584  0.2523 -0.1710 -0.1445
  742MOL0     C  102  10.160   9.438   5.705 -0.2632 -0.1885 -0.5454
  742MOL0     H  103   9.777   9.113   5.236 -0.3686  1.5372  0.6368
  742MOL0     H  104   9.742   8.857   5.214 -1.4769  1.2654  0.6141
  742MOL0     H  105   9.908   8.599   5.504  0.8513  3.8779  1.0280
  742MOL0     H  106   9.766   8.649   5.597 -3.6610 -1.6657 -0.1953
  742MOL0     H  107   9.693   8.471   5.377  2.1869 -4.7376 -0.4419
  742MOL0     H  108   9.609   8.483   5.535 -0.6282 -2.8168 -1.0841
  742MOL0     H  109   9.757   8.369   5.642 -0.6482  0.6678 -0.0517
  742MOL0     H  110   9.881   8.376   5.508 -0.0387 -0.6095 -0.5274
  742MOL0     H  111   9.614   8.223   5.525 -1.1335  0.5323 -1.4273
  742MOL0     H  112   9.702   8.233   5.379 -2.0891  2.8326  0.1183
  742MOL0     H  113   9.739   8.027   5.507 -1.6523 -0.3587  2.6275
  742MOL0     H  114   9.895   8.107   5.494 -0.5043  0.4812 -0.2399
  742MOL0     H  115   9.890   8.031   5.700 -1.6655 -1.4296 -3.6176
  742MOL0     H  116   9.901   8.203   5.714 -0.4663 -1.5392  2.2617
  742MOL0     H  117   9.618   8.181   5.745  1.8531  0.3553 -2.5033
  742MOL0     H  118   9.717   8.146   5.883 -1.2504  2.8483 -0.5750
  742MOL0     H  119   9.530   7.976   5.817 -0.9755  0.6249 -2.1232
  742MOL0     H  120   9.623   7.938   5.679 -1.4130  0.6707 -0.5807
  742MOL0     H  121   9.769   7.951   6.053 -2.1897  2.0661 -2.1746
  742MOL0     H  122   9.993   7.655   6.099 -0.0600 -0.0210  0.2689
  742MOL0     H  123   9.990   7.830   6.134  0.6551 -0.5543 -0.0820
  742MOL0     H  124   9.785   7.825   6.247 -2.0675 -0.1429 -0.4949
  742MOL0     H  125   9.744   7.671   6.191 -2.5841  4.0047  0.0891
  742MOL0     H  126   9.802   7.684   6.428 -0.1635  1.5691 -0.1146
  742MOL0     H  127   9.957   7.740   6.384 -0.3961 -0.6754 -0.4769
  742MOL0     H  128   9.979   7.503   6.259  0.4754 -1.7324  1.9615
  742MOL0     H  129   9.836   7.459   6.344 -0.2722 -0.2120 -1.9669
  742MOL0     H  130   9.972   7.281   6.292  0.2861 -2.5782  0.2134
  742MOL0     H  131  10.044   7.057   6.356 -1.4637 -0.1888  0.7991
  742MOL0     H  132   9.920   6.738   6.387  1.5642  0.2142  0.1258
  742MOL0     H  133   9.877   6.484   6.394 -0.7896 -0.0796  1.2580
  742MOL0     H  134  10.104   6.234   6.705  0.0862  3.2140 -0.4422
  742MOL0     H  135   9.928   6.261   6.771 -0.4078  0.9277 -0.8925
  742MOL0     H  136  10.008   6.102   6.536 -1.1614  0.5259 -0.6846
  742MOL0     H  137   9.981   6.029   6.700 -1.6379 -2.2997 -1.2028
  742MOL0     H  138   9.743   6.142   6.675 -3.0300 -2.5848 -1.0029
  742MOL0     H  139   9.788   6.147   6.507  1.6612 -0.0646 -0.4498
  742MOL0     H  140   9.657   5.927   6.590  0.1593 -1.3738 -0.5091
  742MOL0     H  141   9.821   5.889   6.659 -2.3598 -0.5153  1.1544
  742MOL0     H  142   9.926   5.897   6.430  0.3577  0.1317  2.5626
  742MOL0     H  143   9.765   5.949   6.360  0.1277  1.6847  0.3510
  742MOL0     H  144   9.821   5.689   6.522  2.3943 -0.8893 -2.2151
  742MOL0     H  145   9.666   5.749   6.459 -0.2202 -0.8315  1.7463
  742MOL0     H  146   9.919   5.631   6.321 -0.2355 -2.2355 -5.1244
  742MOL0     H  147   9.805   5.741   6.242 -2.3670  2.2036  1.6219
  742MOL0     H  148   9.768   5.461   6.346  0.8084 -0.3746 -1.0439
  742MOL0     H  149   9.623   5.567   6.281  0.9032  1.4589 -3.1419
  742MOL0     H  150  10.173   6.455   6.709  5.1710 -0.7047 -2.0625
  742MOL0     H  151  10.212   6.697   6.687  0.1100 -0.5819 -0.7060
  742MOL0     H  152  10.154   7.200   6.746 -1.6544  1.9368  1.0260
  742MOL0     H  153  10.099   7.419   6.687  2.2265 -0.5117 -0.2445
  742MOL0     H  154   9.928   8.808   5.590 -3.7989 -1.0616  0.2071
  742MOL0     H  155  10.002   9.042   5.598  4.0498 -1.1586 -2.1126
  742MOL0     H  156   9.919   9.457   5.290  0.7723  0.6779 -0.0405
  742MOL0     H  157   9.929   9.710   5.298  2.3201  1.7367  0.0532
  742MOL0     H  158  10.114   9.974   5.607  0.4159  0.2152 -1.1507
  742MOL0     H  159  10.003   9.850   5.651 -1.4725  0.2799 -1.5818
  742MOL0     H  160   9.821   9.941   5.499  3.0716 -4.6118 -2.0975
  742MOL0     H  161   9.947  10.059   5.442 -0.8791  0.5348  0.1270
  742MOL0     H  162   9.940  10.165   5.656  0.2707 -0.0562  1.6360
  742MOL0     H  163   9.852  10.024   5.725  1.0053 -0.2937 -0.2461
  742MOL0     H  164   9.728  10.244   5.660 -1.3564  0.4395  0.0721
  742MOL0     H  165   9.761  10.197   5.488  3.0510 -1.6303  0.1983
  742MOL0     H  166   9.437   9.947   5.610  0.3505  0.9314  0.1254
  742MOL0     H  167  10.156   9.691   5.667  1.0809  0.2493 -1.7907
  742MOL0     H  168  10.200   9.510   5.776  0.1982 -0.4364 -0.5459
  742MOL0     H  169  10.098   9.362   5.754 -1.6692  0.6263 -1.0082
  742MOL0     H  170  10.252   9.387   5.675  1.6315  3.1852 -0.9573
  743MOL0     O  171   8.419   6.035  10.295 -0.4285  0.6072  0.0422
  743MOL0     C  172   8.389   5.915  10.319 -0.1064 -1.0760 -0.1810
  743MOL0     O  173   8.473   5.808  10.338  0.5807 -0.4320  0.1145
  743MOL0     C  174   8.605   5.833  10.348  0.9027 -0.8560  0.1040
  743MOL0     C  175   8.689   5.853  10.238 -0.5347  0.5694 -0.3810
  743MOL0     C  176   8.824   5.879  10.260 -0.4685  1.4162 -1.0529
  743MOL0     C  177   8.875   5.897  10.401  0.0699 -0.4897  0.1724
  743MOL0     O  178   9.006   5.937  10.415 -0.5006 -0.6485 -0.2765
  743MOL0     C  179   9.045   5.909  10.545  0.1556 -0.3362 -0.4931
  743MOL0     C  180   9.198   5.927  10.549 -0.3241 -0.8431  0.2425
  743MOL0     C  181   9.244   6.077  10.571  0.1550  0.4144 -0.7896
  743MOL0     C  182   9.153   6.191  10.518 -0.2544  1.5821  0.9239
  743MOL0     C  183   9.228   6.315  10.482 -0.7003 -0.2624  0.3763
  743MOL0     C  184   9.325   6.372  10.596 -0.6649 -0.0752 -0.3920
  743MOL0     C  185   9.399   6.495  10.539  0.0379  0.2681  0.5140
  743MOL0     C  186   9.514   6.532  10.631  0.8010  0.4970  0.1494
  743MOL0     N  187   9.607   6.643  10.575  0.4203 -0.0990  0.2722
  743MOL0     C  188   9.604   6.694  10.450 -1.0255 -0.4580 -0.0939
  743MOL0     C  189   9.667   6.815  10.448 -0.1283 -0.6060  0.1803
  743MOL0     C  190   9.691   6.894  10.328  0.3642  0.1879 -1.0387
  743MOL0     C  191   9.812   6.830  10.242  1.1843 -0.0709  0.3282
  743MOL0     C  192   9.814   6.676  10.219 -1.2355 -1.3472  0.5518
  743MOL0     C  193   9.934   6.630  10.136  1.6444 -0.5959  0.4485
  743MOL0     O  194   9.922   6.491  10.126 -0.2555 -0.7231 -0.3947
  743MOL0     C  195  10.031   6.414  10.075  0.5424 -0.3450 -0.9429
  743MOL0     C  196  10.147   6.480  10.040  0.3657  0.9201  0.1747
  743MOL0     C  197  10.253   6.410  10.000 -0.1745  0.3526 -0.4587
  743MOL0     C  198  10.252   6.258  10.000  0.2043 -1.1785 -0.4974
  743MOL0     C  199  10.364   6.180   9.952 -0.0301 -0.4012 -0.3962
  743MOL0     O  200  10.479   6.250   9.969 -0.6416  1.1090  0.2385
  743MOL0     C  201  10.583   6.155   9.995  0.3738 -0.1830  0.2439
  743MOL0     C  202  10.622   6.124  10.126 -0.0230  0.0291  0.4568
  743MOL0     C  203  10.730   6.047  10.154 -0.6314  0.9186 -0.4501
  743MOL0     C  204  10.801   5.985  10.048 -0.5780 -0.8568 -0.2307
  743MOL0     O  205  10.900   5.897  10.081  0.0740 -0.1821 -0.1810
  743MOL0     C  206  10.960   5.824   9.964 -0.2164  0.4078 -0.1541
  743MOL0     C  207  11.042   5.710  10.019 -1.1974  1.1736 -0.7258
  743MOL0     C  208  11.115   5.624   9.906 -0.3273  0.7624  0.0838
  743MOL0     C  209  11.236   5.561   9.974  0.6914 -0.0004 -0.4786
  743MOL0     C  210  11.321   5.461   9.892 -0.4274  0.5608  0.5225
  743MOL0     C  211  11.259   5.339   9.846 -0.1553  0.2620  0.2361
  743MOL0     C  212  11.207   5.243   9.955 -0.0285 -0.0731 -0.7336
  743MOL0     C  213  11.154   5.112   9.900  0.6096 -1.3078  0.1091
  743MOL0    Cl  214  11.014   5.123   9.782 -0.8200 -0.3919 -0.1056
  743MOL0     C  215  10.780   6.045   9.912  0.0228 -0.1023 -0.3849
  743MOL0     C  216  10.670   6.125   9.885 -0.2347  0.3151 -0.1654
  743MOL0     O  217  10.350   6.064   9.922  0.0189 -0.3343  0.4059
  743MOL0     C  218  10.129   6.199  10.031  0.3870 -0.5740 -0.1289
  743MOL0     C  219  10.022   6.275  10.063  0.2948  0.4459  0.1037
  743MOL0     N  220   9.718   6.832  10.575  0.1726 -0.3368 -0.6788
  743MOL0     N  221   9.691   6.728  10.644 -0.2582  0.3122 -0.4278
  743MOL0     C  222   8.779   5.894  10.503 -0.1795 -0.0102 -0.1823
  743MOL0     C  223   8.647   5.860  10.476 -0.3245 -0.3516 -0.1736
  743MOL0     C  224   8.262   5.895  10.377 -0.8513 -0.5308  0.7577
  743MOL0     C  225   8.252   5.838  10.506  0.4586  0.7872 -0.2213
  743MOL0     C  226   8.128   5.816  10.562  0.6117 -0.4072  0.2542
  743MOL0     C  227   8.012   5.829  10.488  0.5088  0.9719 -0.0397
  743MOL0     O  228   7.890   5.801  10.545 -0.0592  0.9266  0.0252
  743MOL0     C  229   7.769   5.846  10.480  0.3816  0.3914  0.5758
  743MOL0     C  230   7.654   5.854  10.572 -0.0169 -1.0070 -0.1766
  743MOL0     C  231   7.614   5.718  10.623  0.1190  0.1295  0.3020
  743MOL0     C  232   7.495   5.719  10.725  0.3503 -0.4815 -1.3185
  743MOL0     C  233   7.475   5.592  10.812 -0.6281  0.1447  0.3861
  743MOL0     C  234   7.454   5.492  10.872 -0.2537 -0.6412  0.0107
  743MOL0     C  235   8.023   5.874  10.355  0.3491 -0.2067 -0.1539
  743MOL0     C  236   8.148   5.909  10.298 -0.3629 -0.1377  0.3819
  743MOL0     C  237   8.144   5.947  10.153  1.1261 -0.2610  0.0574
  743MOL0     H  238   8.650   5.840  10.138 -3.4124  1.2017  0.5519
  743MOL0     H  239   8.900   5.901  10.185  3.9045  0.6619  2.6825
  743MOL0     H  240   8.995   5.971  10.620 -0.7575 -0.5953 -0.8702
  743MOL0     H  241   9.028   5.805  10.571 -0.2574  0.5164  3.0968
  743MOL0     H  242   9.225   5.885  10.452  0.4783  1.2641 -0.4878
  743MOL0     H  243   9.237   5.862  10.628 -2.4686 -0.7292  1.5031
  743MOL0     H  244   9.345   6.094  10.533  0.0729  3.3977  0.0687
  743MOL0     H  245   9.248   6.094  10.679  0.6324 -2.8624 -0.1728
  743MOL0     H  246   9.099   6.163  10.427 -1.4900 -1.4991  2.4431
  743MOL0     H  247   9.073   6.214  10.589 -0.6926  0.6978  0.7339
  743MOL0     H  248   9.288   6.288  10.394 -3.4319 -0.5702 -1.5146
  743MOL0     H  249   9.159   6.396  10.457  0.3253  0.4548 -0.2402
  743MOL0     H  250   9.269   6.402  10.686  1.4695  0.9807  0.6599
  743MOL0     H  251   9.395   6.295  10.631  0.5589  0.1101 -2.2945
  743MOL0     H  252   9.322   6.568  10.514 -1.0837 -0.6680  1.1418
  743MOL0     H  253   9.453   6.469  10.447  0.5959 -0.1294  0.9456
  743MOL0     H  254   9.495   6.556  10.736  3.1452 -0.8768  0.9644
  743MOL0     H  255   9.572   6.439  10.633 -0.0459 -0.1439 -2.1296
  743MOL0     H  256   9.556   6.638  10.370 -1.5677 -1.2883  0.7912
  743MOL0     H  257   9.593   6.875  10.284 -0.3591 -0.4260  0.7190
  743MOL0     H  258   9.717   6.999  10.346 -0.6080  0.0973  1.2890
  743MOL0     H  259   9.801   6.880  10.145 -1.0275  0.7761  0.9583
  743MOL0     H  260   9.905   6.863  10.291  0.9754  3.0312 -1.0864
  743MOL0     H  261   9.720   6.641  10.174 -0.8389  1.0901 -2.5301
  743MOL0     H  262   9.833   6.631  10.317  1.3084  0.7387  1.1436
  743MOL0     H  263  10.023   6.659  10.195  0.4917  1.2666  1.3818
  743MOL0     H  264   9.938   6.676  10.037  2.1176  3.1504  2.0146
  743MOL0     H  265  10.146   6.588  10.031 -1.8387  1.0688  1.4167
  743MOL0     H  266  10.349   6.459   9.984 -0.5936  1.5352  0.4902
  743MOL0     H  267  10.572   6.173  10.209  1.6387  2.4310  0.1187
  743MOL0     H  268  10.754   6.013  10.254  1.3264  1.6801 -0.6143
  743MOL0     H  269  10.893   5.786   9.886  0.8139 -0.6257 -0.5710
  743MOL0     H  270  11.025   5.901   9.922  0.3658 -0.3203 -0.6080
  743MOL0     H  271  11.111   5.748  10.095  0.8416 -1.7287 -0.9902
  743MOL0     H  272  10.972   5.648  10.075 -2.3781  1.4941 -1.8118
  743MOL0     H  273  11.034   5.555   9.882 -0.4782  1.0481 -0.2313
  743MOL0     H  274  11.144   5.685   9.820  0.8422 -0.3296 -0.3304
  743MOL0     H  275  11.201   5.513  10.066 -0.2569  2.6683  0.6367
  743MOL0     H  276  11.302   5.643  10.004 -0.5336  0.7708  0.1841
  743MOL0     H  277  11.415   5.439   9.944 -0.2294  2.5202  1.0606
  743MOL0     H  278  11.350   5.512   9.800 -1.3299 -0.9480 -0.6379
  743MOL0     H  279  11.170   5.375   9.794 -0.1848 -1.2084 -0.7766
  743MOL0     H  280  11.330   5.279   9.789  2.3085  5.2726 -2.6485
  743MOL0     H  281  11.129   5.295  10.011  2.5578  0.2257  2.9360
  743MOL0     H  282  11.296   5.224  10.016 -2.0081 -1.4058  1.9765
  743MOL0     H  283  11.235   5.057   9.851 -0.9259 -2.9275 -0.7220
  743MOL0     H  284  11.128   5.044   9.982 -1.3278  0.0506  0.6783
  743MOL0     H  285  10.840   6.021   9.824  2.9666  0.9723  1.1713
  743MOL0     H  286  10.649   6.171   9.788  5.0559 -0.7994 -2.1466
  743MOL0     H  287  10.120   6.091  10.028  1.4526 -0.7279  1.3012
  743MOL0     H  288   9.932   6.219  10.085  0.2608  0.2023 -0.6208
  743MOL0     H  289   8.799   5.921  10.607 -0.5647  3.1523 -0.8234
  743MOL0     H  290   8.575   5.852  10.557  0.7815 -1.2234  0.7498
  743MOL0     H  291   8.339   5.827  10.569  1.3020  0.9963 -1.3171
  743MOL0     H  292   8.131   5.790  10.667  0.8289 -0.9757  0.1101
  743MOL0     H  293   7.753   5.795  10.384  0.5210  1.8383 -0.2506
  743MOL0     H  294   7.783   5.946  10.438  0.1210 -0.1866 -0.9437
  743MOL0     H  295   7.565   5.897  10.524 -0.2133 -0.9293  0.2534
  743MOL0     H  296   7.680   5.911  10.662 -0.0665 -1.3192  0.0323
  743MOL0     H  297   7.700   5.673  10.673  0.3010 -0.8996 -0.8960
  743MOL0     H  298   7.588   5.664  10.532  0.1993 -3.0616  2.0138
  743MOL0     H  299   7.514   5.805  10.790 -1.6327  0.8991 -2.4787
  743MOL0     H  300   7.402   5.753  10.677 -0.6627  0.9349  1.4095
  743MOL0     H  301   7.429   5.393  10.905  2.5027 -1.1149  0.9598
  743MOL0     H  302   7.938   5.876  10.288 -0.7399 -2.9734  1.0051
  743MOL0     H  303   8.045   5.981  10.122 -0.1034 -1.7014  2.1877
  743MOL0     H  304   8.213   6.030  10.135 -1.6812  2.9511  2.6085
  743MOL0     H  305   8.188   5.863  10.099  0.4523  0.0971 -1.0852
  744MOL0     O  306   7.634   0.502   6.202  0.1183  0.1709 -0.2730
  744MOL0     C  307   7.631   0.551   6.316 -0.3378  0.1776 -0.1276
  744MOL0     O  308   7.519   0.547   6.401  0.7065  0.0320 -0.0677
  744MOL0     C  309   7.421   0.449   6.363  0.9893 -0.3567 -0.4160
  744MOL0     C  310   7.451   0.323   6.416  0.8870  0.8746 -0.1798
  744MOL0     C  311   7.355   0.222   6.382 -0.1449 -0.0304 -0.1594
  744MOL0     C  312   7.235   0.248   6.312 -0.0504  0.6707 -0.3667
  744MOL0     O  313   7.151   0.137   6.289 -0.2703 -0.3509  0.1774
  744MOL0     C  314   7.012   0.163   6.263 -0.7964  0.6545 -0.2657
  744MOL0     C  315   6.988   0.130   6.119 -1.1008 -0.3053  0.0592
  744MOL0     C  316   7.046   0.002   6.065  0.2142  0.2211 -0.6928
  744MOL0     C  317   7.023  -0.014   5.914  0.2699 -0.3210 -0.7029
  744MOL0     C  318   7.102   0.081   5.820 -0.5232 -0.2559 -0.0764
  744MOL0     C  319   7.253   0.103   5.857  0.0135  0.3279 -0.0340
  744MOL0     C  320   7.322   0.200   5.768  0.6702  0.6074 -0.1096
  744MOL0     C  321   7.443   0.259   5.841 -0.1084 -0.4449  0.6265
  744MOL0     N  322   7.528   0.166   5.912  0.4703  0.2785 -0.4970
  744MOL0     C  323   7.508   0.145   6.047  0.2897 -1.1227 -0.8237
  744MOL0     C  324   7.581   0.039   6.075 -0.2815  0.5894 -0.0830
  744MOL0     C  325   7.587  -0.033   6.209 -0.9428 -0.1407 -0.2029
  744MOL0     C  326   7.690   0.019   6.309  0.5669 -0.6766 -0.2077
  744MOL0     C  327   7.822  -0.033   6.275 -0.2353  0.4015  0.0565
  744MOL0     C  328   7.936   0.039   6.352 -1.4331 -0.0488  0.1511
  744MOL0     O  329   7.916   0.038   6.497 -0.6294  0.4352  0.1255
  744MOL0     C  330   7.928   0.169   6.550 -0.0158  0.5164 -0.2074
  744MOL0     C  331   8.048   0.234   6.553  0.6653  0.5784 -0.1780
  744MOL0     C  332   8.068   0.359   6.611  0.2610  0.2301 -0.0031
  744MOL0     C  333   7.956   0.422   6.663 -0.2106 -0.3510 -0.5999
  744MOL0     C  334   7.973   0.556   6.726 -0.1427 -0.6453 -0.2336
  744MOL0     O  335   8.102   0.614   6.733  0.4456  0.0342  0.1455
  744MOL0     C  336   8.120   0.729   6.813  0.5404  0.5323  0.2552
  744MOL0     C  337   8.252   0.743   6.873  1.1417  0.0443 -0.1813
  744MOL0     C  338   8.292   0.857   6.937  0.3231  0.3176  0.5118
  744MOL0     C  339   8.203   0.966   6.946 -0.6551  0.3495 -0.9593
  744MOL0     O  340   8.244   1.075   7.011 -0.9838 -0.3426  0.2487
  744MOL0     C  341   8.169   1.141   7.110 -0.2337 -0.3554 -0.4652
  744MOL0     C  342   8.090   1.270   7.078 -0.9002 -0.2536  0.8115
  744MOL0     C  343   8.192   1.365   7.009 -1.0503 -1.3287  0.0850
  744MOL0     C  344   8.142   1.510   6.977  0.0045  0.0488 -0.5936
  744MOL0     C  345   7.999   1.514   6.917 -1.2098  1.0436  0.2379
  744MOL0     C  346   7.936   1.650   6.955 -0.0476  0.9783 -0.4226
  744MOL0     C  347   8.028   1.773   6.931 -0.3750  0.2771 -0.5719
  744MOL0     C  348   7.955   1.903   6.951  1.3044 -0.3934 -0.4066
  744MOL0    Cl  349   8.049   2.044   6.901 -0.2642 -0.0655 -0.4340
  744MOL0     C  350   8.073   0.953   6.898  0.2184  0.4114 -1.0665
  744MOL0     C  351   8.035   0.837   6.832  0.1360  0.4571 -0.0342
  744MOL0     O  352   7.881   0.603   6.796 -0.9048  0.5635  0.3520
  744MOL0     C  353   7.826   0.363   6.654 -0.1413 -0.5233  0.6019
  744MOL0     C  354   7.818   0.235   6.601 -0.0004 -0.1297 -0.2846
  744MOL0     N  355   7.652   0.006   5.960  0.0795  0.1085 -0.2167
  744MOL0     N  356   7.616   0.085   5.861 -0.1673  0.6964 -0.3982
  744MOL0     C  357   7.219   0.380   6.267 -0.3399  1.0584 -0.8698
  744MOL0     C  358   7.309   0.478   6.292 -0.4400 -0.5856 -0.3463
  744MOL0     C  359   7.743   0.632   6.370 -0.8695  0.7605 -0.3516
  744MOL0     C  360   7.717   0.741   6.458  0.5259  1.0755  0.8471
  744MOL0     C  361   7.817   0.816   6.513  0.7620 -0.1180 -1.0520
  744MOL0     C  362   7.952   0.781   6.481 -0.2315 -0.9070  1.6345
  744MOL0     O  363   8.056   0.856   6.534  0.2048  0.9597 -0.8816
  744MOL0     C  364   8.106   0.960   6.456 -0.1545 -0.5656  0.4616
  744MOL0     C  365   8.139   1.069   6.557 -0.2283 -0.5762 -0.4736
  744MOL0     C  366   8.176   1.197   6.489  0.1088 -0.0139  1.0266
  744MOL0     C  367   8.128   1.311   6.579  0.0822  0.3441  0.1884
  744MOL0     C  368   8.156   1.453   6.533  0.3508  0.5048  0.4898
  744MOL0     C  369   8.175   1.558   6.476 -0.2395 -0.6715  0.2423
  744MOL0     C  370   7.984   0.671   6.399  0.6481  0.0816  0.0566
  744MOL0     C  371   7.879   0.596   6.345  0.3810 -0.2233 -0.8431
  744MOL0     C  372   7.919   0.468   6.295 -0.6746 -0.2153 -0.4305
  744MOL0     H  373   7.525   0.304   6.493 -1.1569 -2.2709  1.2431
  744MOL0     H  374   7.368   0.117   6.406 -1.6109 -0.7717 -2.2684
  744MOL0     H  375   6.954   0.099   6.329 -1.1920  1.4564  0.1759
  744MOL0     H  376   6.973   0.263   6.284  2.3190  2.0083 -0.3677
  744MOL0     H  377   7.024   0.212   6.056 -1.8583 -0.1336 -0.1615
  744MOL0     H  378   6.880   0.117   6.108 -0.9696 -1.2635 -0.1120
  744MOL0     H  379   7.009  -0.087   6.117 -2.2653  0.2312 -2.3006
  744MOL0     H  380   7.155   0.004   6.075  0.2586 -1.2543 -0.6021
  744MOL0     H  381   7.058  -0.116   5.895 -0.5775 -2.1182  5.3138
  744MOL0     H  382   6.914  -0.009   5.906  0.1443  0.1188  0.8418
  744MOL0     H  383   7.090   0.047   5.717 -0.2717 -0.4138 -0.0561
  744MOL0     H  384   7.058   0.180   5.824  1.8042  0.9074 -1.2901
  744MOL0     H  385   7.246   0.159   5.950  1.6020  1.5022 -0.5657
  744MOL0     H  386   7.308   0.009   5.868 -0.0897  0.2093 -0.4913
  744MOL0     H  387   7.246   0.277   5.752  1.0339  0.9910 -0.0320
  744MOL0     H  388   7.338   0.155   5.670 -0.8240  2.7936 -1.4465
  744MOL0     H  389   7.508   0.320   5.778 -3.1718  3.6843  1.1352
  744MOL0     H  390   7.402   0.339   5.903 -1.4826 -0.3296 -0.3957
  744MOL0     H  391   7.440   0.205   6.107  0.3649 -2.3689  0.5850
  744MOL0     H  392   7.492  -0.009   6.257  0.9920  3.2633  2.4019
  744MOL0     H  393   7.592  -0.139   6.180 -0.0584  0.4455 -2.4210
  744MOL0     H  394   7.698   0.127   6.299 -1.8404 -0.4935 -0.9491
  744MOL0     H  395   7.653  -0.013   6.407 -1.0554  1.3030 -0.1135
  744MOL0     H  396   7.838  -0.009   6.170  1.7476  0.6086  0.3801
  744MOL0     H  397   7.826  -0.143   6.277  1.0375  0.4349 -0.3174
  744MOL0     H  398   7.942   0.142   6.316 -0.5520 -0.1831 -0.0971
  744MOL0     H  399   8.030  -0.014   6.334 -1.7163  0.1513 -2.1656
  744MOL0     H  400   8.124   0.167   6.515 -0.6482 -0.2061 -1.5401
  744MOL0     H  401   8.169   0.400   6.611  0.8858 -1.2007 -0.8239
  744MOL0     H  402   8.322   0.663   6.849 -1.2130 -1.9049 -0.9974
  744MOL0     H  403   8.394   0.855   6.975  1.0174 -1.5854 -1.2612
  744MOL0     H  404   8.095   1.064   7.136  0.4214 -0.6818  0.4853
  744MOL0     H  405   8.223   1.157   7.204  0.3751 -1.5148 -0.6036
  744MOL0     H  406   8.016   1.237   7.005  0.7094 -0.2410 -0.8749
  744MOL0     H  407   8.033   1.307   7.164  0.7829  2.4972  0.8354
  744MOL0     H  408   8.273   1.379   7.081  1.4253 -2.1582 -2.3847
  744MOL0     H  409   8.221   1.309   6.920 -3.2729  0.1680 -1.7179
  744MOL0     H  410   8.210   1.560   6.908 -2.2348 -0.7872 -3.6216
  744MOL0     H  411   8.137   1.557   7.076 -1.4645  1.6397 -1.3749
  744MOL0     H  412   7.930   1.433   6.943  0.0369 -0.4757 -0.9675
  744MOL0     H  413   8.013   1.508   6.809  3.1658 -2.1632  0.6872
  744MOL0     H  414   7.847   1.658   6.892  0.5647 -0.2292 -1.4826
  744MOL0     H  415   7.921   1.637   7.063  2.3657  2.6372  0.1847
  744MOL0     H  416   8.077   1.763   6.834 -0.1936  1.2991 -0.5903
  744MOL0     H  417   8.108   1.779   7.005 -2.1672 -2.0083  1.7413
  744MOL0     H  418   7.862   1.901   6.894  0.9635  1.5590  0.0315
  744MOL0     H  419   7.933   1.913   7.058  1.5598 -0.6617 -0.3237
  744MOL0     H  420   8.016   1.045   6.908 -0.4272 -0.1652  1.2022
  744MOL0     H  421   7.936   0.832   6.789  0.2884  0.8320 -0.4287
  744MOL0     H  422   7.741   0.414   6.699  1.7506  1.8543  1.7680
  744MOL0     H  423   7.727   0.175   6.601  0.2562 -0.8261 -4.9439
  744MOL0     H  424   7.135   0.411   6.205 -1.3047  1.4467  0.5782
  744MOL0     H  425   7.288   0.580   6.261  0.3800 -0.6336 -1.0639
  744MOL0     H  426   7.612   0.765   6.474  0.6512  2.7895 -0.6607
  744MOL0     H  427   7.798   0.898   6.582 -0.7488 -0.7707 -0.6337
  744MOL0     H  428   8.025   0.997   6.393  0.8135  0.1918 -0.3700
  744MOL0     H  429   8.193   0.923   6.400  1.7086  0.2407  2.6539
  744MOL0     H  430   8.230   1.039   6.610  0.5976  3.6790  0.8726
  744MOL0     H  431   8.055   1.080   6.626  1.2489 -1.1065  1.5000
  744MOL0     H  432   8.130   1.190   6.390  1.3990 -1.9255  0.5280
  744MOL0     H  433   8.284   1.208   6.482  0.2880 -1.1246  1.8649
  744MOL0     H  434   8.019   1.307   6.582  0.0370 -1.6793 -1.7741
  744MOL0     H  435   8.171   1.301   6.679 -1.9003  0.5778  1.1179
  744MOL0     H  436   8.168   1.651   6.423  0.6984 -1.1643 -0.7806
  744MOL0     H  437   8.088   0.644   6.386  1.8773  2.5163  3.4655
  744MOL0     H  438   8.026   0.464   6.317 -1.1380 -0.5486  1.9497
  744MOL0     H  439   7.869   0.391   6.354  0.7870 -2.2421 -1.7368
  744MOL0     H  440   7.903   0.453   6.188 -0.0828  0.7852 -0.6796
  745MOL0     O  441   2.190   2.840   3.018  0.1618 -0.2007 -0.9381
  745MOL0     C  442   2.140   2.857   3.130 -0.3708  0.5539 -0.8375
  745MOL0     O  443   2.167   2.967   3.206  0.1100 -0.5524  0.5398
  745MOL0     C  444   2.074   3.005   3.297  0.3836  0.4732  0.2732
  745MOL0     C  445   1.942   3.019   3.267  0.0240  0.3305 -1.2377
  745MOL0     C  446   1.852   3.047   3.365  0.2130  0.0070 -0.5784
  745MOL0     C  447   1.888   3.079   3.499  0.1406  0.2275  0.5955
  745MOL0     O  448   1.805   3.111   3.601  0.3693  0.2307  0.3687
  745MOL0     C  449   1.682   3.180   3.567 -0.4855  0.2156 -0.2855
  745MOL0     C  450   1.633   3.240   3.699  0.6360 -0.8121  0.2453
  745MOL0     C  451   1.509   3.328   3.666 -0.2278 -0.0394 -0.8862
  745MOL0     C  452   1.493   3.403   3.798  0.3388 -0.1450  0.8398
  745MOL0     C  453   1.358   3.464   3.798 -0.4868  0.8265  0.0346
  745MOL0     C  454   1.247   3.372   3.853  0.1942 -1.1591  0.2241
  745MOL0     C  455   1.110   3.449   3.869 -1.6404  0.7123  0.3112
  745MOL0     C  456   1.106   3.539   3.989 -0.4913 -0.1664 -0.1779
  745MOL0     N  457   1.056   3.475   4.114  0.3217  0.5358 -0.0891
  745MOL0     C  458   1.118   3.371   4.181 -0.2255  0.0082  0.0709
  745MOL0     C  459   1.033   3.352   4.282 -1.0508 -0.6334 -0.3252
  745MOL0     C  460   1.057   3.238   4.379 -0.0686  0.5654 -0.2556
  745MOL0     C  461   1.098   3.280   4.526  0.7681  0.8172  0.5957
  745MOL0     C  462   0.962   3.339   4.596 -0.5205  0.5164  1.2206
  745MOL0     C  463   0.869   3.233   4.659 -0.2583 -0.1927 -0.0660
  745MOL0     O  464   0.911   3.225   4.800 -0.1250  0.7382  0.5505
  745MOL0     C  465   0.874   3.107   4.858 -0.6132 -0.0981 -0.2928
  745MOL0     C  466   0.954   3.062   4.963  0.1040  0.2677 -0.2541
  745MOL0     C  467   0.923   2.951   5.036 -1.0792  0.1797  0.1149
  745MOL0     C  468   0.806   2.875   5.003 -0.4101 -0.5733  0.0162
  745MOL0     C  469   0.760   2.752   5.072 -0.4295 -0.3034  0.4816
  745MOL0     O  470   0.799   2.729   5.201 -0.3021 -0.1241  0.1254
  745MOL0     C  471   0.753   2.635   5.292  0.5415 -0.3839  0.5840
  745MOL0     C  472   0.630   2.563   5.284  0.6924  0.7454 -0.5217
  745MOL0     C  473   0.612   2.448   5.370  0.6293 -0.1097 -0.0938
  745MOL0     C  474   0.707   2.413   5.465  0.3529 -0.2753  0.8891
  745MOL0     O  475   0.697   2.305   5.540  0.1196  0.3130 -0.5671
  745MOL0     C  476   0.564   2.267   5.577  0.0853 -0.5145 -0.2464
  745MOL0     C  477   0.575   2.182   5.709  0.1891  0.2741  0.4618
  745MOL0     C  478   0.616   2.256   5.839 -0.3143  0.1829  0.5581
  745MOL0     C  479   0.665   2.150   5.944 -0.0337 -0.5550 -1.1793
  745MOL0     C  480   0.722   2.219   6.065 -0.2977  0.9561 -0.0993
  745MOL0     C  481   0.769   2.121   6.171  0.3409  0.1571  0.2608
  745MOL0     C  482   0.875   2.010   6.131 -1.6970 -0.6831 -0.1588
  745MOL0     C  483   0.877   1.894   6.223 -0.4874  0.2040 -0.6658
  745MOL0    Cl  484   0.897   1.947   6.395  0.5074  0.1388  0.5057
  745MOL0     C  485   0.833   2.487   5.472 -0.3405  0.0070  0.6322
  745MOL0     C  486   0.853   2.598   5.384 -0.3452 -0.0809 -0.7828
  745MOL0     O  487   0.671   2.693   5.021  0.9620 -0.1953  0.2478
  745MOL0     C  488   0.724   2.920   4.885 -0.6376 -1.2179 -0.8345
  745MOL0     C  489   0.761   3.036   4.813 -0.1883  0.3894 -0.3210
  745MOL0     N  490   0.913   3.417   4.264 -0.2726  0.6414  0.3637
  745MOL0     N  491   0.928   3.492   4.167 -0.0638 -0.6136  0.8187
  745MOL0     C  492   2.024   3.057   3.532  0.4063  0.1155  0.7215
  745MOL0     C  493   2.115   3.014   3.430 -0.1980 -0.6851 -0.4374
  745MOL0     C  494   2.063   2.748   3.191  0.6552 -0.7428 -0.4210
  745MOL0     C  495   1.935   2.744   3.140  0.1679  0.9354 -0.0808
  745MOL0     C  496   1.853   2.647   3.191 -1.0627 -0.6295 -0.3685
  745MOL0     C  497   1.901   2.547   3.281  0.1513 -0.2685  0.6221
  745MOL0     O  498   1.801   2.461   3.309  0.6972  0.6412 -0.4625
  745MOL0     C  499   1.814   2.392   3.436 -0.6272 -0.6839 -0.0857
  745MOL0     C  500   1.681   2.370   3.500  0.8324  0.0419 -0.8344
  745MOL0     C  501   1.576   2.314   3.403 -0.6169 -0.7307  0.6817
  745MOL0     C  502   1.456   2.267   3.489 -0.5313 -0.5287  0.3712
  745MOL0     C  503   1.488   2.147   3.560 -0.0135  0.7853  0.3169
  745MOL0     C  504   1.507   2.042   3.615  1.3801 -0.6018 -0.0911
  745MOL0     C  505   2.025   2.563   3.338 -0.2764 -0.2437  0.4427
  745MOL0     C  506   2.107   2.668   3.296  0.7200  0.7341  0.4592
  745MOL0     C  507   2.244   2.677   3.346  0.4143  0.5303 -0.8402
  745MOL0     H  508   1.917   3.020   3.161  0.5116 -0.4229 -1.3713
  745MOL0     H  509   1.750   3.058   3.329 -0.9248  1.4295  2.6537
  745MOL0     H  510   1.686   3.243   3.478  2.2961 -1.2397 -1.3020
  745MOL0     H  511   1.607   3.109   3.529  1.9779 -0.6657 -4.0498
  745MOL0     H  512   1.720   3.294   3.739  2.6084 -4.1393  0.9066
  745MOL0     H  513   1.617   3.148   3.757 -2.1975 -1.4520 -1.3793
  745MOL0     H  514   1.426   3.265   3.633 -1.9355  1.7053 -0.1079
  745MOL0     H  515   1.531   3.392   3.580 -2.6086  1.2647 -0.5992
  745MOL0     H  516   1.500   3.344   3.890  0.1935  0.7561  1.4425
  745MOL0     H  517   1.571   3.479   3.791  1.1301 -1.0166 -0.1551
  745MOL0     H  518   1.369   3.544   3.872  3.6385 -2.5465  3.5840
  745MOL0     H  519   1.323   3.514   3.707 -0.2566 -0.2908 -0.6821
  745MOL0     H  520   1.229   3.299   3.774 -3.9599  0.1582 -0.2583
  745MOL0     H  521   1.269   3.323   3.948  2.1765 -0.3461  0.2276
  745MOL0     H  522   1.033   3.372   3.879 -1.9748  1.3263  3.6832
  745MOL0     H  523   1.102   3.515   3.782  0.8007  1.6561  0.7157
  745MOL0     H  524   1.209   3.564   4.016  0.1522 -2.3451 -0.4201
  745MOL0     H  525   1.041   3.626   3.975  0.8996  1.4064  2.2664
  745MOL0     H  526   1.210   3.318   4.159  0.8476  2.7910 -3.0539
  745MOL0     H  527   0.961   3.188   4.390 -1.2260  2.5959 -0.6625
  745MOL0     H  528   1.142   3.185   4.334 -1.2576  0.0775 -1.9925
  745MOL0     H  529   1.130   3.191   4.581 -0.3903  1.0052  1.6220
  745MOL0     H  530   1.180   3.352   4.530 -0.8295  2.6832  1.1544
  745MOL0     H  531   0.902   3.400   4.528  1.3307 -0.5178 -1.5650
  745MOL0     H  532   1.008   3.400   4.674  2.8749 -0.6426  0.3279
  745MOL0     H  533   0.881   3.141   4.601  0.0542  0.0256 -0.3560
  745MOL0     H  534   0.765   3.263   4.651 -0.7929 -1.2845  2.0166
  745MOL0     H  535   1.038   3.126   4.986 -0.5199  1.0307 -0.0661
  745MOL0     H  536   0.990   2.935   5.119  0.0980 -1.8441 -1.1435
  745MOL0     H  537   0.545   2.601   5.229  0.2993  2.2820  1.0383
  745MOL0     H  538   0.524   2.385   5.374  1.9650 -2.0192  1.0427
  745MOL0     H  539   0.497   2.351   5.594  0.7020 -0.1356  0.3777
  745MOL0     H  540   0.513   2.207   5.501  1.4854  0.1249 -1.7305
  745MOL0     H  541   0.477   2.135   5.726 -0.6840  0.3662 -3.3406
  745MOL0     H  542   0.639   2.099   5.679 -0.5505  0.5608 -2.1370
  745MOL0     H  543   0.701   2.317   5.808 -1.0780  0.6847 -0.5875
  745MOL0     H  544   0.539   2.325   5.872 -0.0621  1.0118 -0.5312
  745MOL0     H  545   0.737   2.085   5.893 -1.1359 -0.0408 -3.5246
  745MOL0     H  546   0.584   2.087   5.982 -1.7864  0.3862 -3.1141
  745MOL0     H  547   0.642   2.279   6.109 -1.9605 -0.4766 -1.0901
  745MOL0     H  548   0.801   2.284   6.026 -0.6934 -0.0184 -2.7117
  745MOL0     H  549   0.807   2.172   6.260 -1.1835 -1.0863  1.6857
  745MOL0     H  550   0.681   2.070   6.211  1.3391 -0.4844  1.7263
  745MOL0     H  551   0.979   2.046   6.137 -1.1249 -2.2763 -0.1515
  745MOL0     H  552   0.860   1.981   6.027  0.4238  0.8575 -0.9812
  745MOL0     H  553   0.780   1.848   6.201 -0.1206 -1.2943  0.6552
  745MOL0     H  554   0.961   1.825   6.212  1.0396  1.0598  3.8657
  745MOL0     H  555   0.909   2.448   5.539 -0.5642 -0.3735  0.6691
  745MOL0     H  556   0.953   2.640   5.382  0.3461 -1.4457  1.4471
  745MOL0     H  557   0.638   2.858   4.861 -3.0954 -1.0040  5.6607
  745MOL0     H  558   0.682   3.072   4.748 -0.7933 -2.8571 -1.5437
  745MOL0     H  559   2.061   3.076   3.633  3.7044  0.8138 -0.4977
  745MOL0     H  560   2.216   3.012   3.468 -0.8106  1.4345  1.5672
  745MOL0     H  561   1.905   2.803   3.055 -1.8528 -0.9282 -0.7510
  745MOL0     H  562   1.754   2.638   3.147 -2.8516 -1.5971  3.4340
  745MOL0     H  563   1.880   2.453   3.498 -0.6224  1.1845 -1.8301
  745MOL0     H  564   1.860   2.297   3.409  0.3251 -0.4739  0.7452
  745MOL0     H  565   1.649   2.462   3.549  0.9894 -0.3363 -0.0151
  745MOL0     H  566   1.698   2.301   3.583 -0.7389  0.9971  0.3370
  745MOL0     H  567   1.632   2.238   3.348  1.3897  2.2501 -1.7869
  745MOL0     H  568   1.544   2.390   3.330  1.3481 -1.7496 -1.3910
  745MOL0     H  569   1.424   2.348   3.555  1.2516 -2.0524  3.3534
  745MOL0     H  570   1.367   2.246   3.429 -2.0873  1.0880  1.9877
  745MOL0     H  571   1.524   1.963   3.686 -1.2220 -3.0024 -1.8927
  745MOL0     H  572   2.050   2.499   3.422 -3.0544 -1.7012  0.2714
  745MOL0     H  573   2.263   2.605   3.426  1.0959  1.4723 -0.1373
  745MOL0     H  574   2.320   2.659   3.269  1.2151  2.1346 -0.4682
  745MOL0     H  575   2.265   2.775   3.390 -1.2474  0.7684 -0.5059
  746MOL0     O  576  10.124   4.850   0.394  0.5158 -0.2236 -0.0421
  746MOL0     C  577  10.027   4.931   0.389  0.2100  0.0355 -0.3956
  746MOL0     O  578   9.975   4.988   0.495  0.0035 -0.1440  0.5315
  746MOL0     C  579  10.025   4.944   0.619  0.6357  1.2793  0.5324
  746MOL0     C  580  10.028   4.803   0.658  0.1323  0.5388  0.0739
  746MOL0     C  581  10.089   4.763   0.780 -0.4228 -0.1782 -0.1551
  746MOL0     C  582  10.136   4.856   0.872 -0.1870  0.5512  0.1232
  746MOL0     O  583  10.192   4.830   0.993 -0.2629  0.4679  0.2546
  746MOL0     C  584  10.242   4.703   1.019 -0.4199  0.2899  0.6821
  746MOL0     C  585  10.348   4.708   1.125 -0.5098 -0.1881 -0.2234
  746MOL0     C  586  10.408   4.569   1.142  0.4920  0.3258 -0.2326
  746MOL0     C  587  10.527   4.565   1.256 -0.0589 -0.4439  0.2370
  746MOL0     C  588  10.589   4.431   1.269  0.4242  0.2935  0.3278
  746MOL0     C  589  10.707   4.427   1.355 -0.2336  0.2682 -0.8287
  746MOL0     C  590  10.760   4.290   1.373  0.9730  0.8184  0.1667
  746MOL0     C  591  10.908   4.260   1.421 -0.2025 -0.4626 -0.5423
  746MOL0     N  592  10.940   4.313   1.555  0.1087 -1.3980  0.1477
  746MOL0     C  593  10.851   4.358   1.647 -0.1178 -0.9616  0.1167
  746MOL0     C  594  10.926   4.429   1.738  0.3120  0.3918 -1.0666
  746MOL0     C  595  10.867   4.483   1.871 -0.3078 -0.4577  0.0059
  746MOL0     C  596  10.897   4.391   1.992 -0.9957  0.3633  0.5712
  746MOL0     C  597  10.846   4.246   1.972 -0.7425 -0.1698 -0.6851
  746MOL0     C  598  10.892   4.151   2.095  0.3643 -0.3716 -0.2216
  746MOL0     O  599  10.816   4.035   2.106 -0.0474  0.3470  0.2744
  746MOL0     C  600  10.734   4.026   2.212 -0.5395  0.6495 -0.1292
  746MOL0     C  601  10.730   3.895   2.271 -0.9481  0.4536  0.4416
  746MOL0     C  602  10.643   3.884   2.388 -0.5141  0.6787 -0.0500
  746MOL0     C  603  10.585   3.994   2.441  0.2802 -0.1588  0.2941
  746MOL0     C  604  10.515   3.991   2.574  0.6377 -0.3901  0.6548
  746MOL0     O  605  10.522   3.869   2.644  1.0835  0.3524  0.0824
  746MOL0     C  606  10.477   3.848   2.769  0.4567 -0.4996 -0.1707
  746MOL0     C  607  10.419   3.725   2.798 -0.3302  0.3887 -0.2702
  746MOL0     C  608  10.369   3.703   2.934 -0.7903 -0.7865  0.6761
  746MOL0     C  609  10.361   3.807   3.034  0.2079 -0.6862 -0.2369
  746MOL0     O  610  10.306   3.799   3.163  0.1917 -0.3196  0.8350
  746MOL0     C  611  10.187   3.717   3.159  0.1405 -1.2364  0.8741
  746MOL0     C  612  10.085   3.777   3.259 -0.1793  0.0498  0.3999
  746MOL0     C  613  10.122   3.754   3.404  1.5894 -1.0166  0.3590
  746MOL0     C  614  10.123   3.609   3.462 -0.7452 -0.7736  0.6050
  746MOL0     C  615  10.155   3.599   3.610 -0.0206 -0.5346  0.2515
  746MOL0     C  616  10.044   3.543   3.693  0.3948 -0.4206 -0.7293
  746MOL0     C  617  10.080   3.510   3.848  0.2690 -0.4532  0.7395
  746MOL0     C  618  10.062   3.635   3.926 -0.1118  0.6138 -0.5218
  746MOL0    Cl  619  10.201   3.743   3.928 -0.7556  0.2186 -0.4596
  746MOL0     C  620  10.424   3.930   3.003 -0.1094 -1.3799  1.2765
  746MOL0     C  621  10.473   3.952   2.868 -0.2366  0.6460  0.2690
  746MOL0     O  622  10.459   4.097   2.613  0.1246 -1.0444  0.3113
  746MOL0     C  623  10.587   4.116   2.370 -0.0105  0.1289  0.2496
  746MOL0     C  624  10.653   4.128   2.251  0.7181  0.2152 -0.1358
  746MOL0     N  625  11.059   4.399   1.708  0.3436  0.3707 -0.7658
  746MOL0     N  626  11.067   4.332   1.598  0.2379  0.7439 -0.5247
  746MOL0     C  627  10.109   4.992   0.839  0.1249  0.2034 -0.5280
  746MOL0     C  628  10.063   5.033   0.722 -0.0464  0.1834  0.1275
  746MOL0     C  629   9.975   4.974   0.259  0.6898  0.2604  0.0504
  746MOL0     C  630   9.864   5.057   0.262  0.1958  0.1051 -1.3491
  746MOL0     C  631   9.806   5.115   0.153  0.4260 -0.0911 -0.4932
  746MOL0     C  632   9.855   5.083   0.028  0.5260  0.9623  1.2819
  746MOL0     O  633   9.790   5.145  -0.084 -0.3396 -0.5058 -0.0187
  746MOL0     C  634   9.855   5.151  -0.207 -0.0568  0.7837  0.7685
  746MOL0     C  635   9.980   5.238  -0.224 -0.9090  0.2382 -0.0187
  746MOL0     C  636  10.036   5.242  -0.368 -0.2159 -0.2141  0.6588
  746MOL0     C  637  10.094   5.370  -0.437  1.0441  0.1481  0.1398
  746MOL0     C  638  10.167   5.342  -0.562 -0.0335 -0.8881  0.3412
  746MOL0     C  639  10.225   5.304  -0.662 -0.5062  0.5243  0.0069
  746MOL0     C  640   9.968   5.003   0.017  0.4635 -0.3919  0.8036
  746MOL0     C  641  10.024   4.948   0.132 -0.1185  0.6647  0.3382
  746MOL0     C  642  10.147   4.861   0.110 -0.7442 -0.0654 -0.2842
  746MOL0     H  643  10.006   4.730   0.582  0.5453  0.8900 -0.3898
  746MOL0     H  644  10.108   4.660   0.808  3.4342  1.0460  2.4860
  746MOL0     H  645  10.162   4.631   1.036  1.6247 -2.0831  0.7302
  746MOL0     H  646  10.285   4.675   0.923 -1.3378  0.8694  0.0855
  746MOL0     H  647  10.282   4.733   1.209  2.5459 -1.1953  2.7218
  746MOL0     H  648  10.421   4.786   1.103 -1.1991  0.0939 -1.5859
  746MOL0     H  649  10.447   4.526   1.049 -2.1210  0.6034 -1.5396
  746MOL0     H  650  10.331   4.501   1.178  1.1021 -0.3206 -0.1070
  746MOL0     H  651  10.609   4.629   1.222 -0.6289  0.6500  0.8352
  746MOL0     H  652  10.488   4.592   1.355  0.4167 -2.1253  0.9104
  746MOL0     H  653  10.518   4.359   1.312 -1.0784  1.6961  0.2901
  746MOL0     H  654  10.618   4.395   1.169  0.7340 -1.8435  1.1347
  746MOL0     H  655  10.785   4.488   1.308  2.3358  0.2595  2.9276
  746MOL0     H  656  10.701   4.466   1.457 -1.4036 -2.1839  0.1232
  746MOL0     H  657  10.743   4.236   1.279  0.8802 -1.5057  1.4478
  746MOL0     H  658  10.684   4.238   1.431 -1.5388 -0.3022 -3.7133
  746MOL0     H  659  10.927   4.152   1.416 -2.8882 -1.1354  1.0974
  746MOL0     H  660  10.978   4.312   1.356  0.6653  1.8655  2.0452
  746MOL0     H  661  10.744   4.345   1.644 -0.3777  0.8038  0.4371
  746MOL0     H  662  10.901   4.584   1.898 -0.5131 -0.3446 -0.1567
  746MOL0     H  663  10.759   4.488   1.857 -0.2290 -1.4207 -1.0308
  746MOL0     H  664  11.002   4.366   2.006 -0.1115  3.4235  0.0790
  746MOL0     H  665  10.856   4.435   2.084  1.6222  2.9093  0.6744
  746MOL0     H  666  10.885   4.198   1.882  1.1969 -1.7586  0.8939
  746MOL0     H  667  10.738   4.250   1.952 -0.7691  0.6436 -0.3936
  746MOL0     H  668  10.887   4.211   2.187 -0.8479 -1.6086  0.5558
  746MOL0     H  669  10.999   4.136   2.082  0.6234  2.8440 -3.2860
  746MOL0     H  670  10.780   3.813   2.222 -0.1693  1.2188 -0.0663
  746MOL0     H  671  10.619   3.787   2.430  2.9045 -1.0304 -1.6641
  746MOL0     H  672  10.428   3.652   2.718  0.0812  2.0911 -1.8294
  746MOL0     H  673  10.344   3.604   2.970  2.5011 -3.1357 -2.7509
  746MOL0     H  674  10.133   3.726   3.064  3.0055  1.2632 -0.6723
  746MOL0     H  675  10.216   3.613   3.176  0.4791 -1.3753 -0.4330
  746MOL0     H  676  10.078   3.884   3.236  2.8196  0.5553  1.3264
  746MOL0     H  677   9.993   3.722   3.241  0.2929 -1.6324  2.7101
  746MOL0     H  678  10.225   3.788   3.414  0.6082  1.9699  1.4390
  746MOL0     H  679  10.057   3.817   3.465  1.6327 -1.1312  0.5251
  746MOL0     H  680  10.203   3.566   3.401 -1.1823 -1.0149  0.1997
  746MOL0     H  681  10.032   3.555   3.433 -2.0115  1.1520  0.7982
  746MOL0     H  682  10.195   3.699   3.632  0.6201  0.0834 -3.0984
  746MOL0     H  683  10.227   3.520   3.635  0.9180  0.3053  0.2813
  746MOL0     H  684   9.957   3.610   3.696  1.3878  0.9074 -0.1828
  746MOL0     H  685  10.002   3.456   3.643 -2.7240 -0.7059  2.0212
  746MOL0     H  686  10.188   3.490   3.846  0.8900  2.2539 -2.5188
  746MOL0     H  687  10.017   3.428   3.883  0.2769 -2.5592 -3.5332
  746MOL0     H  688   9.973   3.685   3.885 -0.3296  0.0695 -0.7173
  746MOL0     H  689  10.029   3.606   4.026 -1.5527  2.3988 -0.4216
  746MOL0     H  690  10.436   4.011   3.074  2.3002 -1.3768  0.9619
  746MOL0     H  691  10.515   4.050   2.846  0.8443  0.2171  0.3776
  746MOL0     H  692  10.523   4.200   2.394  0.7292  1.7458 -2.9013
  746MOL0     H  693  10.634   4.218   2.195 -2.5086  1.6218  2.8739
  746MOL0     H  694  10.149   5.056   0.918  0.0685 -0.6705  0.2229
  746MOL0     H  695  10.068   5.140   0.709 -0.3587  0.4941  2.3127
  746MOL0     H  696   9.813   5.091   0.351  0.2865  0.7898 -1.5474
  746MOL0     H  697   9.713   5.170   0.159  0.3344  0.0376 -2.5090
  746MOL0     H  698   9.775   5.193  -0.268  0.7782 -0.5103 -1.3707
  746MOL0     H  699   9.865   5.050  -0.249 -1.4519  0.5872  0.8578
  746MOL0     H  700  10.060   5.211  -0.154  0.6605  4.2480  0.0161
  746MOL0     H  701   9.946   5.337  -0.193  3.2347  0.6849  4.2370
  746MOL0     H  702   9.953   5.215  -0.434  0.2364 -1.0996  0.4297
  746MOL0     H  703  10.101   5.156  -0.391  1.1028  0.7115  0.8110
  746MOL0     H  704  10.004   5.424  -0.465  1.8668  0.9563 -1.0276
  746MOL0     H  705  10.165   5.412  -0.366  1.0471  0.0744  0.1816
  746MOL0     H  706  10.257   5.260  -0.755  1.1505  2.0761 -0.2113
  746MOL0     H  707  10.003   4.977  -0.083 -0.2059  1.0703  0.1570
  746MOL0     H  708  10.235   4.910   0.152  0.3822 -3.1032  1.2382
  746MOL0     H  709  10.141   4.761   0.154 -0.0537  1.0458  2.6449
  746MOL0     H  710  10.152   4.848   0.002  0.3415  1.1816 -0.4054
  747MOL0     O  711   5.414   6.357   6.256 -0.1096  0.1923 -0.5671
  747MOL0     C  712   5.393   6.466   6.316 -0.5197 -0.8940  0.5052
  747MOL0     O  713   5.498   6.542   6.357 -0.2566  0.1752 -0.5537
  747MOL0     C  714   5.628   6.509   6.346 -0.5414  0.5770  0.6838
  747MOL0     C  715   5.685   6.521   6.220  0.4704  0.0442  0.5863
  747MOL0     C  716   5.823   6.493   6.209 -1.2213  0.2279  0.3736
  747MOL0     C  717   5.909   6.459   6.309  0.0133  0.2985 -0.5768
  747MOL0     O  718   6.039   6.430   6.293  1.0133  0.0651  0.0448
  747MOL0     C  719   6.108   6.420   6.170 -0.8109 -0.9703  0.4414
  747MOL0     C  720   6.262   6.410   6.201  0.4851  0.9263  0.1539
  747MOL0     C  721   6.290   6.289   6.308 -0.4152  0.5419  0.4682
  747MOL0     C  722   6.431   6.303   6.379 -0.0900 -0.0320  1.2046
  747MOL0     C  723   6.433   6.193   6.484 -0.0059  0.4006 -0.3850
  747MOL0     C  724   6.573   6.189   6.548 -0.5565 -0.2767  0.2604
  747MOL0     C  725   6.565   6.109   6.674 -0.1270  0.8142  0.1470
  747MOL0     C  726   6.692   6.051   6.727  0.1114  0.2224 -0.5084
  747MOL0     N  727   6.750   5.970   6.622  0.7588  0.2717 -0.5243
  747MOL0     C  728   6.699   5.858   6.562  0.9496 -0.5628  0.7959
  747MOL0     C  729   6.797   5.811   6.477  0.5464  0.2756  0.4268
  747MOL0     C  730   6.785   5.686   6.392 -0.7239  0.0140  0.0461
  747MOL0     C  731   6.885   5.689   6.279  0.8598 -0.5729  0.0491
  747MOL0     C  732   6.871   5.563   6.194  0.7858 -0.2616  0.1858
  747MOL0     C  733   6.987   5.545   6.090 -0.3246 -0.2820 -1.3852
  747MOL0     O  734   6.979   5.658   5.994 -0.2441  0.3372 -0.1072
  747MOL0     C  735   6.941   5.617   5.872 -0.7418 -0.3679 -0.0147
  747MOL0     C  736   6.813   5.653   5.820  0.4367  0.0282  0.7506
  747MOL0     C  737   6.765   5.612   5.699  0.4319 -1.1158 -0.5467
  747MOL0     C  738   6.847   5.540   5.612  0.3288  0.1665 -1.0443
  747MOL0     C  739   6.813   5.503   5.476  0.2250  0.1064  0.2535
  747MOL0     O  740   6.857   5.394   5.412 -0.9130 -0.6947  0.4324
  747MOL0     C  741   6.793   5.368   5.291  0.0372 -0.5426  0.2716
  747MOL0     C  742   6.815   5.444   5.178  0.0933 -0.6918 -0.8569
  747MOL0     C  743   6.762   5.389   5.056  0.4207 -0.1364  0.0208
  747MOL0     C  744   6.675   5.272   5.052 -0.7234 -0.4203 -0.0180
  747MOL0     O  745   6.629   5.242   4.921  0.0564  0.5471 -0.5428
  747MOL0     C  746   6.513   5.155   4.898  0.3151 -0.2867 -0.4157
  747MOL0     C  747   6.494   5.146   4.742  0.6659  0.2938  0.2462
  747MOL0     C  748   6.370   5.079   4.696  0.0668 -0.2903  0.8273
  747MOL0     C  749   6.386   4.925   4.713 -0.0317  0.8644 -1.0256
  747MOL0     C  750   6.425   4.852   4.585  0.6043  0.4421  0.5935
  747MOL0     C  751   6.449   4.698   4.597 -0.5703  0.6922 -0.1950
  747MOL0     C  752   6.324   4.619   4.664  0.0690 -0.1676 -0.4871
  747MOL0     C  753   6.333   4.471   4.661 -0.6581  0.8001 -0.2296
  747MOL0    Cl  754   6.351   4.427   4.491 -0.1688  0.3410 -0.0927
  747MOL0     C  755   6.651   5.201   5.169 -0.2282 -1.1104  0.3037
  747MOL0     C  756   6.720   5.245   5.288  0.1489 -0.4163 -0.0243
  747MOL0     O  757   6.717   5.574   5.432 -0.1927  0.3178  0.7164
  747MOL0     C  758   6.977   5.509   5.658  0.6227 -0.6929  0.5115
  747MOL0     C  759   7.022   5.547   5.784 -0.2626 -0.5701  0.2945
  747MOL0     N  760   6.894   5.902   6.478  0.6523 -0.4547 -0.3480
  747MOL0     N  761   6.863   6.003   6.554 -0.1435  0.1000 -0.2379
  747MOL0     C  762   5.856   6.453   6.437 -0.2914  1.5329 -0.2629
  747MOL0     C  763   5.716   6.485   6.457 -1.0672  0.4319  0.1030
  747MOL0     C  764   5.261   6.521   6.330 -0.5561  0.1422  0.6194
  747MOL0     C  765   5.255   6.662   6.322  0.0470 -0.3359 -0.1460
  747MOL0     C  766   5.129   6.722   6.334 -0.7526 -0.1841 -1.0443
  747MOL0     C  767   5.012   6.650   6.339  0.6170 -1.0109 -0.0300
  747MOL0     O  768   4.889   6.711   6.366 -0.6904  0.2194  0.4791
  747MOL0     C  769   4.852   6.816   6.268  0.6335 -0.8635  0.8730
  747MOL0     C  770   4.722   6.887   6.309  0.1466 -0.7314 -0.0837
  747MOL0     C  771   4.601   6.799   6.294  0.4968 -0.2923  0.2945
  747MOL0     C  772   4.599   6.681   6.397 -0.2983 -0.0266  0.0617
  747MOL0     C  773   4.461   6.630   6.426 -1.0425 -0.0482 -0.2446
  747MOL0     C  774   4.351   6.586   6.449  0.1307 -0.4616  0.4879
  747MOL0     C  775   5.016   6.513   6.348 -0.4884 -0.6920  0.9177
  747MOL0     C  776   5.147   6.452   6.346  1.0992  0.1033 -0.0490
  747MOL0     C  777   5.130   6.301   6.366 -0.4268 -0.2555  0.0096
  747MOL0     H  778   5.631   6.542   6.128  4.0081 -0.7919 -1.8953
  747MOL0     H  779   5.862   6.513   6.110 -1.1974  1.0764  0.5388
  747MOL0     H  780   6.077   6.333   6.111  1.6284 -0.4669 -1.7727
  747MOL0     H  781   6.084   6.514   6.119  0.0268 -1.6882 -1.3532
  747MOL0     H  782   6.285   6.509   6.242 -1.3364  2.2726 -1.9070
  747MOL0     H  783   6.316   6.396   6.107 -1.3019  1.2526 -0.9545
  747MOL0     H  784   6.280   6.191   6.260  0.8192 -0.2123  1.6883
  747MOL0     H  785   6.219   6.272   6.389  0.1757 -1.0436  0.7090
  747MOL0     H  786   6.500   6.276   6.298 -1.4240 -0.5950  0.2224
  747MOL0     H  787   6.455   6.404   6.414  1.4928  0.3947 -0.8611
  747MOL0     H  788   6.381   6.234   6.571  0.7892  1.1296 -0.2377
  747MOL0     H  789   6.404   6.091   6.457  0.4737  0.3930 -0.8967
  747MOL0     H  790   6.651   6.155   6.479 -0.1130 -1.5690  1.3584
  747MOL0     H  791   6.593   6.294   6.573  2.1061 -0.2661 -1.4467
  747MOL0     H  792   6.497   6.024   6.660 -0.5060  0.4932  3.2174
  747MOL0     H  793   6.536   6.174   6.757  3.9113  0.5755  1.9673
  747MOL0     H  794   6.762   6.128   6.761 -1.3818  1.9510 -1.1636
  747MOL0     H  795   6.655   6.001   6.816 -1.3232  0.5135 -0.9183
  747MOL0     H  796   6.607   5.802   6.579  0.1944  0.8730  1.6145
  747MOL0     H  797   6.811   5.600   6.454  1.1552 -2.0983 -3.3777
  747MOL0     H  798   6.681   5.682   6.358 -0.0868  0.9061 -2.1411
  747MOL0     H  799   6.882   5.780   6.219  0.8224  0.4695  1.5869
  747MOL0     H  800   6.984   5.687   6.326  0.0964 -1.7239  1.7147
  747MOL0     H  801   6.780   5.570   6.135  2.2036  1.2061 -1.9907
  747MOL0     H  802   6.858   5.471   6.252 -0.7240 -1.6753 -2.1971
  747MOL0     H  803   6.982   5.445   6.046  0.3395 -0.1247 -1.8273
  747MOL0     H  804   7.083   5.549   6.142 -1.3683 -1.0257  0.7345
  747MOL0     H  805   6.746   5.704   5.889 -0.4801 -2.5256  1.8751
  747MOL0     H  806   6.663   5.634   5.669  0.3032  0.5266  0.9524
  747MOL0     H  807   6.871   5.536   5.190 -3.4588  1.5837 -0.3540
  747MOL0     H  808   6.801   5.426   4.962  1.1488 -2.0355 -0.4722
  747MOL0     H  809   6.514   5.062   4.956  2.5930 -0.1950 -0.2434
  747MOL0     H  810   6.433   5.212   4.947  1.6820  1.4181 -0.1124
  747MOL0     H  811   6.495   5.250   4.709 -1.6801 -0.5184 -2.8154
  747MOL0     H  812   6.581   5.094   4.700  2.1522  0.9898  2.2502
  747MOL0     H  813   6.278   5.122   4.735 -2.8716 -2.5934 -2.8917
  747MOL0     H  814   6.366   5.104   4.590 -0.7076  0.5235  1.0454
  747MOL0     H  815   6.285   4.887   4.728 -0.4512  2.3172  0.0808
  747MOL0     H  816   6.458   4.904   4.793  2.6231 -0.2455 -3.5020
  747MOL0     H  817   6.519   4.899   4.554  0.6574  3.1155  4.1551
  747MOL0     H  818   6.345   4.859   4.510  0.0391  3.1294  1.3407
  747MOL0     H  819   6.483   4.659   4.501  0.0326  0.1200  0.2450
  747MOL0     H  820   6.537   4.690   4.662 -1.5104  1.9134  1.3132
  747MOL0     H  821   6.239   4.646   4.601  1.3198 -0.0362 -2.1773
  747MOL0     H  822   6.318   4.661   4.765  2.7919  1.8395 -1.0139
  747MOL0     H  823   6.420   4.443   4.721 -1.1123  0.2983  0.2042
  747MOL0     H  824   6.241   4.423   4.696 -0.9690  0.1866 -1.8080
  747MOL0     H  825   6.587   5.113   5.173 -2.2485  0.1532  6.2611
  747MOL0     H  826   6.698   5.201   5.385 -1.9207  0.2231 -0.1624
  747MOL0     H  827   7.039   5.439   5.603 -0.6182 -1.9771  0.7025
  747MOL0     H  828   7.121   5.514   5.810  0.0268  0.1194  0.0950
  747MOL0     H  829   5.916   6.412   6.518 -1.0649  0.5149 -0.1735
  747MOL0     H  830   5.691   6.485   6.563  5.3800  0.5868  2.0054
  747MOL0     H  831   5.338   6.731   6.326 -0.1736 -0.1149  0.9241
  747MOL0     H  832   5.128   6.831   6.330  4.2338  0.3714  3.0325
  747MOL0     H  833   4.852   6.771   6.169  1.8904 -2.6503  1.6382
  747MOL0     H  834   4.919   6.902   6.257 -1.1380  0.4773 -0.1669
  747MOL0     H  835   4.698   6.975   6.250  0.5345 -0.9555 -0.5790
  747MOL0     H  836   4.729   6.923   6.412  0.4954 -0.7942 -0.0856
  747MOL0     H  837   4.609   6.758   6.193  2.0139 -1.7013  0.9505
  747MOL0     H  838   4.526   6.877   6.309 -0.3681 -0.8903 -0.7515
  747MOL0     H  839   4.653   6.604   6.341  0.0064 -0.4862  0.9760
  747MOL0     H  840   4.641   6.718   6.491  2.5650  1.4561 -1.6387
  747MOL0     H  841   4.254   6.564   6.488 -0.7278  1.2630 -0.5536
  747MOL0     H  842   4.920   6.465   6.360 -1.1375 -0.2294 -1.7029
  747MOL0     H  843   5.072   6.255   6.285  1.0891 -1.0326 -0.6781
  747MOL0     H  844   5.230   6.258   6.379 -0.1239  0.1783 -0.7630
  747MOL0     H  845   5.084   6.284   6.463  2.0231 -2.9783  0.8242
  748MOL0     O  846   9.389   9.290   6.452  0.4984  0.3426  0.4199
  748MOL0     C  847   9.486   9.367   6.446  1.0439 -0.1570 -1.4150
  748MOL0     O  848   9.552   9.418   6.336  0.0274 -0.1925  0.0957
  748MOL0     C  849   9.545   9.356   6.210 -0.1150 -0.8377  0.1978
  748MOL0     C  850   9.438   9.296   6.163 -0.2867 -0.3036 -0.6606
  748MOL0     C  851   9.433   9.233   6.032 -0.8168  0.4941 -0.1750
  748MOL0     C  852   9.533   9.256   5.938 -0.2742 -0.9993 -1.1012
  748MOL0     O  853   9.528   9.209   5.809 -0.1823  0.6878 -1.4654
  748MOL0     C  854   9.406   9.187   5.735  0.0236 -0.0889 -0.5550
  748MOL0     C  855   9.453   9.138   5.596  0.5522  0.2432 -0.1142
  748MOL0     C  856   9.324   9.120   5.507  0.9106  0.4125  1.2589
  748MOL0     C  857   9.370   9.074   5.370 -0.5893 -0.2935 -0.7873
  748MOL0     C  858   9.362   8.920   5.343  0.4735 -0.1857  0.4007
  748MOL0     C  859   9.448   8.877   5.226 -0.5456 -0.0181  0.4165
  748MOL0     C  860   9.473   8.732   5.225 -0.2453 -0.6778 -0.1231
  748MOL0     C  861   9.358   8.643   5.243 -0.0722  0.0482  1.1891
  748MOL0     N  862   9.252   8.670   5.147  1.0517 -0.8667 -0.0657
  748MOL0     C  863   9.247   8.659   5.014  0.5440 -0.3442 -0.1231
  748MOL0     C  864   9.119   8.687   4.982 -0.1725 -0.9007  0.0536
  748MOL0     C  865   9.064   8.657   4.844  0.3425  0.4106 -0.4700
  748MOL0     C  866   8.920   8.592   4.861 -0.3589 -0.0872 -0.8137
  748MOL0     C  867   8.934   8.454   4.935  0.8812 -0.6083  0.1666
  748MOL0     C  868   8.806   8.375   4.943  1.1753  0.3784  0.2341
  748MOL0     O  869   8.831   8.257   5.025 -0.4544  0.1377  0.6996
  748MOL0     C  870   8.722   8.198   5.082 -0.3199  0.1408 -1.0510
  748MOL0     C  871   8.742   8.065   5.127 -0.7838 -0.5941 -0.2825
  748MOL0     C  872   8.637   8.001   5.187 -1.4406 -0.8179 -0.1907
  748MOL0     C  873   8.507   8.056   5.205 -0.2507  0.0377  0.0517
  748MOL0     C  874   8.392   7.974   5.264 -1.0214  0.2353 -0.5303
  748MOL0     O  875   8.260   8.010   5.232  0.2516 -0.0644  0.4365
  748MOL0     C  876   8.162   7.931   5.278  1.0489 -0.0768 -0.2401
  748MOL0     C  877   8.069   7.883   5.178  0.4598 -0.2559  0.8906
  748MOL0     C  878   7.953   7.812   5.222  1.0106 -1.3208 -0.6541
  748MOL0     C  879   7.928   7.791   5.356  0.2579  0.4118 -0.5244
  748MOL0     O  880   7.813   7.720   5.407 -0.5096 -1.1298  0.2277
  748MOL0     C  881   7.681   7.744   5.369 -0.7265  0.3672  1.2250
  748MOL0     C  882   7.625   7.631   5.283  0.5969 -0.2570 -0.3365
  748MOL0     C  883   7.617   7.498   5.367  0.6734 -0.3300 -0.4162
  748MOL0     C  884   7.603   7.385   5.259  0.1192 -0.9546 -0.5995
  748MOL0     C  885   7.463   7.371   5.178 -0.6126 -0.2010  0.3078
  748MOL0     C  886   7.347   7.312   5.255 -0.3629  0.7541  0.3060
  748MOL0     C  887   7.247   7.254   5.152  1.0504 -0.9468  0.0231
  748MOL0     C  888   7.150   7.143   5.219 -0.0456  0.0860 -0.0402
  748MOL0    Cl  889   7.040   7.094   5.084 -0.1870  0.3984 -0.0446
  748MOL0     C  890   8.018   7.829   5.450 -0.7579  0.1020 -0.6194
  748MOL0     C  891   8.130   7.904   5.416  0.4057  0.1561  0.1697
  748MOL0     O  892   8.420   7.871   5.327  0.4321 -0.3907 -0.4392
  748MOL0     C  893   8.494   8.186   5.157  0.6291 -1.0547  1.0985
  748MOL0     C  894   8.595   8.256   5.086 -0.4416  0.1423  0.3275
  748MOL0     N  895   9.053   8.730   5.090 -0.3862  0.3706  0.2354
  748MOL0     N  896   9.130   8.711   5.192 -0.7056 -0.3317 -0.7433
  748MOL0     C  897   9.645   9.317   5.993  0.2208 -0.5382 -0.0077
  748MOL0     C  898   9.658   9.373   6.120  0.1738 -0.1426 -0.7013
  748MOL0     C  899   9.532   9.433   6.574 -0.3847 -1.0422 -0.5653
  748MOL0     C  900   9.618   9.546   6.554 -0.5281 -0.4035 -0.8973
  748MOL0     C  901   9.655   9.623   6.671  0.1380  0.4140  0.9650
  748MOL0     C  902   9.621   9.596   6.804 -0.4449  0.7106  0.5657
  748MOL0     O  903   9.651   9.679   6.904  0.0049 -0.3050  0.1077
  748MOL0     C  904   9.570   9.795   6.919 -0.1969 -0.4557  0.0941
  748MOL0     C  905   9.630   9.918   6.859 -0.1763  0.0253 -0.2107
  748MOL0     C  906   9.758   9.970   6.927 -0.7144 -0.1198  0.0061
  748MOL0     C  907   9.784  10.119   6.889  0.4731 -0.3959  0.0484
  748MOL0     C  908   9.893  10.163   6.975 -0.7104 -0.0557 -0.4618
  748MOL0     C  909   9.980  10.191   7.054 -0.0391 -0.6680 -0.0001
  748MOL0     C  910   9.535   9.482   6.817  0.1272  0.2641 -0.1807
  748MOL0     C  911   9.489   9.402   6.707  0.2335 -0.2945 -0.1602
  748MOL0     C  912   9.402   9.278   6.744 -0.3621  1.3431 -0.0295
  748MOL0     H  913   9.348   9.304   6.223 -1.7338  2.0375 -2.9683
  748MOL0     H  914   9.352   9.167   6.003 -1.0885 -0.4209  2.4578
  748MOL0     H  915   9.337   9.111   5.774  0.3540 -0.2343 -0.2429
  748MOL0     H  916   9.349   9.278   5.715  0.5373  0.2202 -0.6044
  748MOL0     H  917   9.513   9.047   5.598 -0.7463 -0.6754  2.3849
  748MOL0     H  918   9.516   9.211   5.545  2.6107 -3.5023 -3.3981
  748MOL0     H  919   9.287   9.220   5.482 -0.5337 -0.2316  0.7252
  748MOL0     H  920   9.252   9.054   5.555 -1.2031  2.7521  1.5518
  748MOL0     H  921   9.319   9.142   5.301  0.3475  0.4949 -0.7246
  748MOL0     H  922   9.475   9.103   5.361  0.0929 -1.1714  2.7264
  748MOL0     H  923   9.419   8.878   5.427  0.4379  0.5529  0.8064
  748MOL0     H  924   9.262   8.878   5.337  0.3702  0.1493 -0.2845
  748MOL0     H  925   9.404   8.909   5.132  0.1095  0.4567  0.2667
  748MOL0     H  926   9.542   8.930   5.242 -0.8174  0.5752  0.0665
  748MOL0     H  927   9.551   8.711   5.298  0.0066 -2.8933 -0.9582
  748MOL0     H  928   9.514   8.711   5.126 -2.0153 -2.2245 -0.5973
  748MOL0     H  929   9.398   8.542   5.231  2.0594  0.9664 -0.0286
  748MOL0     H  930   9.312   8.644   5.342  0.0723  2.1496  1.2897
  748MOL0     H  931   9.325   8.624   4.947 -1.5741 -2.5133 -1.6203
  748MOL0     H  932   9.063   8.742   4.774  0.9543 -1.4430 -2.8772
  748MOL0     H  933   9.132   8.589   4.791  1.9632 -0.8880  2.9735
  748MOL0     H  934   8.853   8.651   4.924 -0.3671 -0.4687 -0.4543
  748MOL0     H  935   8.878   8.589   4.760  1.4846  1.5914 -1.7023
  748MOL0     H  936   8.960   8.493   5.033 -4.0515  0.7232  1.2195
  748MOL0     H  937   9.004   8.385   4.886  1.0100  1.4758 -2.9102
  748MOL0     H  938   8.788   8.336   4.842 -2.0671  0.4093  0.6998
  748MOL0     H  939   8.719   8.439   4.957  1.7767  1.3687 -0.4140
  748MOL0     H  940   8.839   8.017   5.127 -1.0670 -1.3073 -2.6559
  748MOL0     H  941   8.654   7.902   5.230 -1.6048 -0.4409  0.7586
  748MOL0     H  942   8.081   7.908   5.073 -0.7654  0.4052  0.9032
  748MOL0     H  943   7.877   7.769   5.158 -0.7705 -2.2319  1.9093
  748MOL0     H  944   7.615   7.747   5.457 -1.7907  2.9237  0.4573
  748MOL0     H  945   7.679   7.842   5.319  2.3935  0.0586  0.2817
  748MOL0     H  946   7.532   7.652   5.229 -0.9088 -1.6277  1.5569
  748MOL0     H  947   7.693   7.623   5.198 -0.8319 -1.8351 -1.3998
  748MOL0     H  948   7.705   7.484   5.430  0.5650  1.9109  0.3254
  748MOL0     H  949   7.527   7.495   5.428  2.4026 -1.4194  2.3095
  748MOL0     H  950   7.607   7.294   5.320 -1.1831  1.0763  2.7591
  748MOL0     H  951   7.679   7.393   5.180  0.6644  2.7180  0.1145
  748MOL0     H  952   7.483   7.306   5.093  3.3244  3.5780 -2.0631
  748MOL0     H  953   7.422   7.462   5.134 -0.5831 -1.8245 -3.4885
  748MOL0     H  954   7.393   7.225   5.303  1.9303  0.2317 -2.5172
  748MOL0     H  955   7.294   7.385   5.317 -0.7463  1.4723 -0.8224
  748MOL0     H  956   7.295   7.196   5.073  0.3240 -0.5480 -0.7329
  748MOL0     H  957   7.176   7.328   5.115  3.7326 -0.8271 -5.9568
  748MOL0     H  958   7.200   7.053   5.257 -0.6287 -1.0084 -1.7336
  748MOL0     H  959   7.083   7.182   5.296 -0.4539 -2.3185  0.9123
  748MOL0     H  960   8.008   7.787   5.549 -0.6343  0.6644 -0.3656
  748MOL0     H  961   8.201   7.934   5.493 -0.2047  1.6608  0.1701
  748MOL0     H  962   8.397   8.234   5.157  1.5203  0.8847  2.7947
  748MOL0     H  963   8.551   8.343   5.038 -4.7438 -2.2860 -0.5855
  748MOL0     H  964   9.734   9.347   5.937  0.6473  4.6216  2.8268
  748MOL0     H  965   9.747   9.427   6.152  0.9168 -3.8620  5.3244
  748MOL0     H  966   9.637   9.589   6.456 -0.5219 -0.9048 -1.1193
  748MOL0     H  967   9.676   9.726   6.646  1.4532 -0.3296 -1.2222
  748MOL0     H  968   9.561   9.802   7.028 -1.3024 -0.4935  0.0145
  748MOL0     H  969   9.475   9.783   6.866  1.1586 -4.0723 -1.8340
  748MOL0     H  970   9.556   9.996   6.878 -0.6128 -0.0075 -1.6612
  748MOL0     H  971   9.646   9.909   6.751 -0.4868 -3.5887 -0.0963
  748MOL0     H  972   9.850   9.912   6.912  0.9757  2.4239 -0.1292
  748MOL0     H  973   9.732   9.967   7.033 -1.5373  2.6213 -0.0394
  748MOL0     H  974   9.829  10.108   6.790  4.2414 -0.5591  1.6236
  748MOL0     H  975   9.697  10.185   6.896  1.3944  0.9203 -0.7090
  748MOL0     H  976  10.069  10.219   7.107 -0.3475  0.7492 -0.1848
  748MOL0     H  977   9.499   9.446   6.913 -1.9523  0.1512 -0.9495
  748MOL0     H  978   9.296   9.301   6.730 -0.1668  2.0523 -0.3993
  748MOL0     H  979   9.439   9.193   6.687  1.5505  1.4562  0.9643
  748MOL0     H  980   9.404   9.258   6.852  1.2267  1.0612 -0.0877
  749MOL0     O  981   4.844  10.373   5.088  0.0118 -0.4239  0.7156
  749MOL0     C  982   4.793  10.293   5.163 -0.4079 -0.4492  0.1012
  749MOL0     O  983   4.803  10.153   5.145 -0.3311 -0.4834  0.4439
  749MOL0     C  984   4.886  10.102   5.046  1.0051 -0.3160 -0.0312
  749MOL0     C  985   5.007  10.157   5.016 -0.2551 -0.1977  0.4779
  749MOL0     C  986   5.095  10.107   4.926  0.2138  0.3239  0.3130
  749MOL0     C  987   5.067   9.980   4.869 -0.3448 -0.2213 -0.2369
  749MOL0     O  988   5.147   9.922   4.770  0.1189  1.2923  0.1523
  749MOL0     C  989   5.258   9.985   4.712 -1.2799 -1.3510  0.0787
  749MOL0     C  990   5.387   9.897   4.753 -0.3240 -0.8373  1.0443
  749MOL0     C  991   5.508   9.945   4.672  0.6370 -0.1095  0.0814
  749MOL0     C  992   5.553  10.067   4.745  0.7017 -0.5063  0.2130
  749MOL0     C  993   5.680  10.125   4.681  0.2407  0.9519 -0.5348
  749MOL0     C  994   5.754  10.220   4.779  0.2185  0.5681 -1.1578
  749MOL0     C  995   5.905  10.237   4.752  0.7117  0.0873  0.9447
  749MOL0     C  996   5.925  10.301   4.615 -0.9934 -1.0429 -0.6284
  749MOL0     N  997   5.901  10.445   4.627 -0.2138 -0.0858 -0.0378
  749MOL0     C  998   5.777  10.497   4.591  0.5696  0.2821 -1.4296
  749MOL0     C  999   5.783  10.627   4.620  0.0953 -0.0124  0.4569
  749MOL0     C 1000   5.676  10.733   4.581  0.6994  0.1752 -0.5857
  749MOL0     C 1001   5.644  10.799   4.706 -0.9362  0.0978 -0.2157
  749MOL0     C 1002   5.562  10.931   4.684  0.2875  0.5752  1.1824
  749MOL0     C 1003   5.645  11.049   4.621  0.0749  0.6121 -0.8147
  749MOL0     O 1004   5.792  11.055   4.643 -0.1633 -0.0340 -0.6101
  749MOL0     C 1005   5.830  11.062   4.774 -0.2963 -0.8518 -0.5812
  749MOL0     C 1006   5.967  11.056   4.797  0.1468  0.6748 -0.1450
  749MOL0     C 1007   6.017  11.069   4.928 -0.7080 -0.1287 -0.4339
  749MOL0     C 1008   5.938  11.101   5.045 -0.5455  0.2919  0.0065
  749MOL0     C 1009   5.996  11.104   5.173  0.5872  1.4100  0.1790
  749MOL0     O 1010   6.106  11.037   5.191  0.5474  0.0484 -0.5490
  749MOL0     C 1011   6.149  11.029   5.325  0.5157 -0.5302  0.2378
  749MOL0     C 1012   6.149  10.900   5.378 -0.0118 -0.6040  0.2904
  749MOL0     C 1013   6.221  10.872   5.497  0.0497  0.2281  0.7942
  749MOL0     C 1014   6.272  10.979   5.576 -0.1310  0.4542 -0.1877
  749MOL0     O 1015   6.325  10.961   5.699  0.0704 -1.3364  0.4650
  749MOL0     C 1016   6.254  10.872   5.784  0.4834 -0.3824 -0.6799
  749MOL0     C 1017   6.208  10.953   5.901  0.0898  0.1781 -0.7840
  749MOL0     C 1018   6.084  11.043   5.884  0.3138 -0.5124 -0.1918
  749MOL0     C 1019   6.010  11.072   6.020 -0.0272  0.5205 -0.0765
  749MOL0     C 1020   5.886  11.169   6.005  0.4013  0.9593 -0.0699
  749MOL0     C 1021   5.905  11.298   6.083  0.3001  0.4610  0.5400
  749MOL0     C 1022   6.027  11.375   6.034  0.0060 -1.1527 -0.0260
  749MOL0     C 1023   6.019  11.523   6.079  0.0392  0.0814  0.5122
  749MOL0    Cl 1024   5.975  11.525   6.251 -0.2814  0.5348  0.1245
  749MOL0     C 1025   6.253  11.105   5.529 -0.5914 -0.3686 -0.1589
  749MOL0     C 1026   6.194  11.131   5.406  0.7683 -1.2628 -0.1659
  749MOL0     O 1027   5.927  11.154   5.264  0.0295 -0.0153  0.4104
  749MOL0     C 1028   5.794  11.115   5.018 -0.9361 -0.2716  0.2394
  749MOL0     C 1029   5.751  11.104   4.884  0.1082  0.7441  0.1131
  749MOL0     N 1030   5.913  10.652   4.661 -0.6908  0.1396 -0.4030
  749MOL0     N 1031   5.982  10.541   4.658  0.2745  0.5105  0.4530
  749MOL0     C 1032   4.947   9.918   4.901  0.3444 -0.3942  0.9254
  749MOL0     C 1033   4.855   9.978   4.995 -0.2458 -0.0501 -0.3731
  749MOL0     C 1034   4.712  10.341   5.285 -0.5638 -0.1103  0.1232
  749MOL0     C 1035   4.589  10.281   5.309  0.2196  1.2461  0.0995
  749MOL0     C 1036   4.515  10.322   5.413  0.1447  0.3745 -0.0886
  749MOL0     C 1037   4.564  10.418   5.514  0.3954 -0.6944 -0.7976
  749MOL0     O 1038   4.493  10.448   5.633 -0.2656 -0.8158  0.0077
  749MOL0     C 1039   4.449  10.350   5.721 -0.1411  0.1167  0.1997
  749MOL0     C 1040   4.561  10.257   5.769 -0.8302 -0.3496  0.8246
  749MOL0     C 1041   4.657  10.333   5.860 -0.1645  0.8491 -0.2600
  749MOL0     C 1042   4.623  10.332   6.010  0.0912 -0.3730 -0.2602
  749MOL0     C 1043   4.721  10.423   6.067  0.1984 -1.0510 -0.0960
  749MOL0     C 1044   4.795  10.501   6.121 -0.6034  0.4715  0.6648
  749MOL0     C 1045   4.687  10.471   5.487  1.5539  0.9431  0.0280
  749MOL0     C 1046   4.761  10.441   5.374  0.4706  0.9121  0.1446
  749MOL0     C 1047   4.897  10.505   5.351 -0.0141  0.4169 -0.7454
  749MOL0     H 1048   5.044  10.249   5.061  4.8411 -0.1236 -3.0057
  749MOL0     H 1049   5.193  10.153   4.913  2.2318 -3.1731  1.8306
  749MOL0     H 1050   5.239   9.989   4.604  1.1028  3.2062 -0.3924
  749MOL0     H 1051   5.280  10.091   4.729  0.9717 -1.6309 -0.7404
  749MOL0     H 1052   5.377   9.790   4.732  1.8006 -1.5162  3.1637
  749MOL0     H 1053   5.392   9.906   4.861 -0.4948  2.9888  0.8675
  749MOL0     H 1054   5.479   9.952   4.567 -0.9451 -0.2280  0.4867
  749MOL0     H 1055   5.587   9.871   4.686  0.5289 -0.5814 -1.6397
  749MOL0     H 1056   5.474  10.143   4.745  1.7606  0.6350 -0.4805
  749MOL0     H 1057   5.566  10.037   4.850  0.7330  1.1121  0.7042
  749MOL0     H 1058   5.747  10.041   4.660 -3.2860 -3.0001  2.4200
  749MOL0     H 1059   5.648  10.173   4.588 -1.0235 -2.6974 -2.1759
  749MOL0     H 1060   5.703  10.316   4.779 -0.6165  0.1484 -2.3942
  749MOL0     H 1061   5.746  10.182   4.882 -1.3754  2.4804 -0.5327
  749MOL0     H 1062   5.959  10.142   4.752  0.0060 -0.3352 -0.5239
  749MOL0     H 1063   5.951  10.305   4.824  1.9801 -1.1428  1.3491
  749MOL0     H 1064   6.032  10.297   4.593 -0.9307  0.3535 -0.6817
  749MOL0     H 1065   5.883  10.258   4.524 -2.3039  2.4014 -1.8225
  749MOL0     H 1066   5.686  10.442   4.565  0.1927  1.3608 -2.5070
  749MOL0     H 1067   5.701  10.811   4.509  1.7660  1.7242  1.3715
  749MOL0     H 1068   5.589  10.671   4.557 -0.6628  1.8075 -0.0876
  749MOL0     H 1069   5.576  10.730   4.757 -4.9533  1.2487 -3.4900
  749MOL0     H 1070   5.724  10.811   4.780 -2.1060 -1.6275  1.4055
  749MOL0     H 1071   5.510  10.969   4.773 -1.6025  1.7931 -0.3709
  749MOL0     H 1072   5.486  10.916   4.608  1.9860  1.4079 -0.7767
  749MOL0     H 1073   5.594  11.146   4.634 -4.6034 -1.6194 -0.3817
  749MOL0     H 1074   5.644  11.040   4.512 -1.3166  3.2256 -1.1081
  749MOL0     H 1075   6.048  11.039   4.727 -1.2748  0.6454 -1.8603
  749MOL0     H 1076   6.125  11.069   4.933 -0.7082  0.2663 -0.3875
  749MOL0     H 1077   6.118  10.815   5.318  1.2818 -0.3743 -0.7483
  749MOL0     H 1078   6.217  10.768   5.529  0.1686 -0.3473 -0.9214
  749MOL0     H 1079   6.179  10.806   5.740  1.2966 -0.7452 -1.5420
  749MOL0     H 1080   6.328  10.801   5.820 -1.7730 -2.6950 -0.2603
  749MOL0     H 1081   6.192  10.882   5.983 -1.4798  2.4674  1.0503
  749MOL0     H 1082   6.295  11.013   5.930 -1.3961  1.2320  1.8270
  749MOL0     H 1083   6.118  11.129   5.826  4.3080  1.3027  4.1676
  749MOL0     H 1084   6.007  10.996   5.821 -1.3800  1.0527  0.6349
  749MOL0     H 1085   6.074  11.111   6.100 -2.5893  2.0990  1.3436
  749MOL0     H 1086   5.973  10.972   6.047 -1.2873  0.9206 -0.2499
  749MOL0     H 1087   5.793  11.127   6.046  0.8919  1.8171  2.0876
  749MOL0     H 1088   5.868  11.188   5.899  0.9460 -1.4064 -0.6380
  749MOL0     H 1089   5.821  11.367   6.071  1.5143  2.5050  2.9184
  749MOL0     H 1090   5.915  11.274   6.189  0.3410  0.5122  0.5482
  749MOL0     H 1091   6.040  11.355   5.927 -3.0695  2.5304 -1.3322
  749MOL0     H 1092   6.117  11.339   6.083  0.0257  0.3279  1.0820
  749MOL0     H 1093   6.123  11.555   6.076 -0.2105  0.7871 -1.5097
  749MOL0     H 1094   5.960  11.593   6.020  2.5002  2.7771  1.0334
  749MOL0     H 1095   6.280  11.193   5.587 -0.8874 -0.2728 -0.1589
  749MOL0     H 1096   6.185  11.230   5.363 -0.8292 -1.8232 -1.2103
  749MOL0     H 1097   5.724  11.139   5.097 -3.1758  0.6356 -1.9134
  749MOL0     H 1098   5.648  11.131   4.863 -0.2198 -0.0167  0.7058
  749MOL0     H 1099   4.917   9.829   4.848  1.1147  0.9681 -1.9724
  749MOL0     H 1100   4.763   9.929   5.027 -3.0528  5.8273  2.0246
  749MOL0     H 1101   4.538  10.226   5.232  2.6738  1.1937 -1.6162
  749MOL0     H 1102   4.418  10.277   5.429 -0.5053  1.8821  0.4548
  749MOL0     H 1103   4.365  10.285   5.693 -1.2477  0.6563  2.0506
  749MOL0     H 1104   4.413  10.405   5.808  0.1129  1.4685 -0.5235
  749MOL0     H 1105   4.607  10.212   5.681  0.8146  0.9010  1.0019
  749MOL0     H 1106   4.528  10.168   5.824 -0.0199  1.1051  3.8584
  749MOL0     H 1107   4.656  10.437   5.826 -3.1867  0.0659 -3.1955
  749MOL0     H 1108   4.756  10.290   5.841  1.1422  2.6111  2.0761
  749MOL0     H 1109   4.519  10.363   6.021 -0.7993 -2.8156 -1.1094
  749MOL0     H 1110   4.624  10.230   6.050  1.1741 -0.1120  0.4030
  749MOL0     H 1111   4.856  10.580   6.159 -0.6720  1.8800 -1.9203
  749MOL0     H 1112   4.733  10.547   5.550  2.2769 -0.9570  1.9177
  749MOL0     H 1113   4.979  10.437   5.376  0.5316  0.8652 -1.2454
  749MOL0     H 1114   4.927  10.522   5.247  2.9785 -1.2653 -0.2895
  749MOL0     H 1115   4.906  10.595   5.412  1.8881  0.1177 -0.5206
  750MOL0     O 1116   4.780   6.986   0.227 -0.3754 -0.0549  1.0567
  750MOL0     C 1117   4.869   7.051   0.274 -0.2292  0.8269 -0.8696
  750MOL0     O 1118   4.860   7.167   0.337  0.3386 -0.5442 -0.9756
  750MOL0     C 1119   4.729   7.230   0.334 -1.6736 -0.6120 -0.2967
  750MOL0     C 1120   4.614   7.162   0.375 -0.0745  0.3818  0.3483
  750MOL0     C 1121   4.490   7.230   0.381 -1.1505 -0.6554 -0.5549
  750MOL0     C 1122   4.473   7.354   0.322 -1.1891  0.1654  1.1712
  750MOL0     O 1123   4.353   7.411   0.338 -0.6977 -0.4196 -0.5195
  750MOL0     C 1124   4.308   7.507   0.232 -0.1021 -0.2641  0.2083
  750MOL0     C 1125   4.312   7.473   0.077  0.8146  0.1637  0.1068
  750MOL0     C 1126   4.300   7.595  -0.011  0.3535  0.2550  0.3632
  750MOL0     C 1127   4.441   7.663  -0.032  1.0336  1.0374  0.3117
  750MOL0     C 1128   4.449   7.816  -0.034  0.1828  0.3573  0.2161
  750MOL0     C 1129   4.422   7.876  -0.169  0.9698  0.3167  0.3088
  750MOL0     C 1130   4.475   8.020  -0.180  0.1220 -0.0230 -0.3194
  750MOL0     C 1131   4.489   8.066  -0.323 -0.7790 -1.0449 -0.2885
  750MOL0     N 1132   4.544   8.198  -0.327 -0.4937  0.4129  0.8666
  750MOL0     C 1133   4.673   8.244  -0.289  1.1254  0.3755 -0.2062
  750MOL0     C 1134   4.694   8.349  -0.372  0.1625 -0.0105 -0.1254
  750MOL0     C 1135   4.826   8.413  -0.383 -1.2889 -0.1091 -0.0202
  750MOL0     C 1136   4.845   8.526  -0.278 -0.1183 -1.1136 -0.2480
  750MOL0     C 1137   4.978   8.608  -0.316 -0.0531 -0.1415 -0.9270
  750MOL0     C 1138   5.003   8.736  -0.233  0.1701 -0.2542 -1.2004
  750MOL0     O 1139   4.996   8.701  -0.101 -0.6374  0.2236  0.0916
  750MOL0     C 1140   4.982   8.812  -0.013 -0.9145  0.0577 -1.0816
  750MOL0     C 1141   4.884   8.792   0.084  0.1287  0.2430 -0.7342
  750MOL0     C 1142   4.851   8.898   0.176  0.2882  0.1763  1.2715
  750MOL0     C 1143   4.933   9.007   0.186  0.1599 -1.0582 -0.3104
  750MOL0     C 1144   4.895   9.111   0.281  0.1146 -0.1952 -0.4840
  750MOL0     O 1145   4.787   9.083   0.357 -0.2075 -0.1191 -0.0483
  750MOL0     C 1146   4.737   9.185   0.423  0.1477 -0.0157 -0.7097
  750MOL0     C 1147   4.655   9.280   0.352 -0.5095 -1.6998  0.2733
  750MOL0     C 1148   4.601   9.388   0.408  0.4797 -0.3017  0.1749
  750MOL0     C 1149   4.617   9.401   0.546 -0.1034  0.5165 -0.7314
  750MOL0     O 1150   4.543   9.504   0.596 -0.3253 -0.3682 -0.1428
  750MOL0     C 1151   4.594   9.595   0.695  0.3125  0.6990  0.0609
  750MOL0     C 1152   4.541   9.745   0.671  0.4126  0.6591 -0.3214
  750MOL0     C 1153   4.415   9.788   0.735  0.5649  0.3353  0.3998
  750MOL0     C 1154   4.288   9.715   0.693 -0.2742 -0.8725  0.4068
  750MOL0     C 1155   4.155   9.783   0.745 -0.3938 -0.0514 -0.0596
  750MOL0     C 1156   4.040   9.684   0.736 -0.3035 -0.2664 -0.8239
  750MOL0     C 1157   4.077   9.538   0.803  0.9408 -0.4357 -0.1299
  750MOL0     C 1158   3.947   9.469   0.829 -0.6824  0.8394  0.2456
  750MOL0    Cl 1159   3.875   9.445   0.668  0.1946 -0.3317 -0.2384
  750MOL0     C 1160   4.709   9.325   0.622 -0.0031  0.4995  0.2244
  750MOL0     C 1161   4.762   9.221   0.554 -1.3086  0.7448  0.1348
  750MOL0     O 1162   4.971   9.210   0.296  0.6594 -0.2084 -0.2752
  750MOL0     C 1163   5.036   9.022   0.094  0.0340 -0.8101 -0.1868
  750MOL0     C 1164   5.058   8.931  -0.009  0.0486 -0.3456 -0.0678
  750MOL0     N 1165   4.584   8.367  -0.452 -0.4789  0.0268 -0.0899
  750MOL0     N 1166   4.494   8.292  -0.411  0.6111  0.3790 -0.7705
  750MOL0     C 1167   4.584   7.405   0.251  0.0991 -0.5301 -0.1580
  750MOL0     C 1168   4.716   7.349   0.258  1.4287 -0.2942 -0.2469
  750MOL0     C 1169   5.008   6.989   0.260  0.3397  0.2570 -0.4100
  750MOL0     C 1170   5.114   7.080   0.277  0.7836  0.4516  0.2565
  750MOL0     C 1171   5.250   7.046   0.243 -0.2908  0.7057 -0.8653
  750MOL0     C 1172   5.282   6.912   0.217 -0.2979 -0.0559  0.7575
  750MOL0     O 1173   5.404   6.870   0.208  0.3358  0.0239  0.2306
  750MOL0     C 1174   5.440   6.819   0.072  0.1236  0.2459 -0.0817
  750MOL0     C 1175   5.459   6.934  -0.026  0.6973  0.3002 -0.5198
  750MOL0     C 1176   5.595   6.982  -0.010  0.2063 -0.0410  0.2792
  750MOL0     C 1177   5.637   7.054   0.117 -0.8560 -0.4824 -1.1213
  750MOL0     C 1178   5.765   7.129   0.105 -0.0142  0.0608  0.2838
  750MOL0     C 1179   5.861   7.196   0.073 -0.3173 -0.4420 -0.0714
  750MOL0     C 1180   5.182   6.824   0.211  0.3113  1.1233  1.5155
  750MOL0     C 1181   5.047   6.854   0.230  0.0349 -0.3549 -0.7059
  750MOL0     C 1182   4.949   6.746   0.240 -0.8821  0.5005  0.5849
  750MOL0     H 1183   4.610   7.061   0.416 -1.1975  0.5750  0.7479
  750MOL0     H 1184   4.409   7.188   0.439 -0.7431  2.1287  2.3253
  750MOL0     H 1185   4.203   7.530   0.253  0.3682  1.6949  0.6085
  750MOL0     H 1186   4.367   7.597   0.252  0.8401 -1.4903  3.8329
  750MOL0     H 1187   4.241   7.393   0.056  1.7087 -0.6529  0.0996
  750MOL0     H 1188   4.410   7.431   0.050  1.0763  0.9134 -0.1353
  750MOL0     H 1189   4.238   7.670   0.040  0.6017  0.4885  0.3277
  750MOL0     H 1190   4.255   7.566  -0.106  0.3353  2.4769 -0.3761
  750MOL0     H 1191   4.509   7.627   0.046 -2.8832 -0.8555  3.2407
  750MOL0     H 1192   4.479   7.650  -0.134  0.1630 -4.3604  0.3924
  750MOL0     H 1193   4.367   7.847   0.032  0.7276 -1.1671  1.6951
  750MOL0     H 1194   4.539   7.861   0.008 -1.2025  1.9135  1.6790
  750MOL0     H 1195   4.459   7.825  -0.259 -0.3486  1.0482 -0.6889
  750MOL0     H 1196   4.313   7.879  -0.175  0.6613 -0.0335  3.7245
  750MOL0     H 1197   4.571   8.035  -0.131 -0.5223  2.5813  0.3411
  750MOL0     H 1198   4.402   8.090  -0.137  0.7317  0.1701  0.4115
  750MOL0     H 1199   4.549   7.995  -0.381 -0.7567 -2.2312  1.1244
  750MOL0     H 1200   4.387   8.079  -0.361 -1.1349  4.6565  1.6929
  750MOL0     H 1201   4.743   8.205  -0.216 -0.0965 -1.6242 -0.0446
  750MOL0     H 1202   4.900   8.338  -0.354  1.8232  1.9385 -2.1171
  750MOL0     H 1203   4.852   8.436  -0.486  3.1272  2.8142  1.4777
  750MOL0     H 1204   4.756   8.587  -0.264  0.0451 -0.7407 -0.7971
  750MOL0     H 1205   4.856   8.477  -0.181 -0.2978 -0.7241 -0.0325
  750MOL0     H 1206   4.990   8.635  -0.421  0.1796 -0.4791 -0.9875
  750MOL0     H 1207   5.068   8.552  -0.289 -0.3625  1.2001  4.0198
  750MOL0     H 1208   4.921   8.804  -0.258 -0.7075 -0.5930  0.6257
  750MOL0     H 1209   5.099   8.781  -0.259  0.4555 -1.1875 -1.8368
  750MOL0     H 1210   4.812   8.711   0.081  1.1047 -0.9539  2.8553
  750MOL0     H 1211   4.764   8.887   0.240  0.9187  0.0663  2.1302
  750MOL0     H 1212   4.637   9.255   0.248 -0.9569 -1.2871  0.2507
  750MOL0     H 1213   4.546   9.460   0.347  0.0114 -2.2459 -1.8097
  750MOL0     H 1214   4.574   9.555   0.795  2.0852  1.5093  0.7948
  750MOL0     H 1215   4.703   9.600   0.688  0.4065 -2.3698 -2.5662
  750MOL0     H 1216   4.617   9.814   0.708  3.5645 -2.6347 -0.0570
  750MOL0     H 1217   4.545   9.761   0.563  1.6060 -0.0016 -0.3966
  750MOL0     H 1218   4.429   9.784   0.844  0.6129  0.9371  0.4188
  750MOL0     H 1219   4.397   9.894   0.712 -0.8589  0.8259  3.2302
  750MOL0     H 1220   4.298   9.612   0.728 -1.0368 -1.3209 -0.6428
  750MOL0     H 1221   4.288   9.701   0.585  0.3909 -2.3400  0.5703
  750MOL0     H 1222   4.124   9.848   0.663 -0.6222  0.0316  0.0946
  750MOL0     H 1223   4.161   9.835   0.841  0.7239 -1.4435  0.6585
  750MOL0     H 1224   3.960   9.731   0.793 -0.0866 -1.8946  0.9312
  750MOL0     H 1225   4.004   9.676   0.633 -1.4969 -0.7494 -0.3888
  750MOL0     H 1226   4.131   9.563   0.895 -1.3628  2.0730  0.6702
  750MOL0     H 1227   4.138   9.472   0.741  0.7024 -0.7190 -0.0633
  750MOL0     H 1228   3.965   9.371   0.875 -1.7498  0.1642 -0.7139
  750MOL0     H 1229   3.877   9.533   0.883 -3.2708  1.1037 -3.0780
  750MOL0     H 1230   4.735   9.336   0.727  0.3817 -0.6513  0.2607
  750MOL0     H 1231   4.821   9.145   0.605  0.6403 -0.3525 -3.3795
  750MOL0     H 1232   5.100   9.109   0.103  1.4322 -1.7990 -0.2025
  750MOL0     H 1233   5.138   8.950  -0.080  0.0207 -0.4542 -0.1282
  750MOL0     H 1234   4.580   7.504   0.206  1.2598 -0.8452 -1.0149
  750MOL0     H 1235   4.800   7.403   0.214  1.8297  1.8759  2.8199
  750MOL0     H 1236   5.092   7.185   0.293 -0.3594  0.8907 -3.3742
  750MOL0     H 1237   5.324   7.124   0.244 -0.0792  0.5635 -2.3859
  750MOL0     H 1238   5.372   6.747   0.024 -1.8710  2.3693 -0.5989
  750MOL0     H 1239   5.533   6.760   0.073 -1.8474 -3.1107  0.3412
  750MOL0     H 1240   5.386   7.015  -0.019 -1.8445 -1.9619  2.0798
  750MOL0     H 1241   5.450   6.901  -0.130  0.9960  0.5194 -0.6151
  750MOL0     H 1242   5.605   7.051  -0.095 -3.7221  1.2208  0.6313
  750MOL0     H 1243   5.674   6.907  -0.015  2.6210  2.3743 -0.1085
  750MOL0     H 1244   5.554   7.118   0.149  0.6721 -0.1246  2.6873
  750MOL0     H 1245   5.653   6.981   0.197 -1.0938 -0.4095 -1.0055
  750MOL0     H 1246   5.946   7.259   0.058 -1.1537  0.8544  0.3949
  750MOL0     H 1247   5.214   6.723   0.190  0.0105  1.7524 -2.9950
  750MOL0     H 1248   4.881   6.741   0.155  1.4508 -1.0529 -1.3097
  750MOL0     H 1249   5.001   6.651   0.254  0.4059  1.3889  2.1154
  750MOL0     H 1250   4.893   6.753   0.334  0.4904  1.9110  1.3613
  751MOL0     O 1251   0.040   7.604   3.438 -0.7678 -0.1769  0.2155
  751MOL0     C 1252   0.155   7.568   3.462  0.4354  0.9466 -0.3664
  751MOL0     O 1253   0.270   7.598   3.393 -0.4183 -0.3924 -0.2477
  751MOL0     C 1254   0.276   7.667   3.274 -0.4527  0.9492  0.0178
  751MOL0     C 1255   0.171   7.706   3.195 -0.5089 -0.0854  0.3054
  751MOL0     C 1256   0.197   7.786   3.084 -0.0546  0.3166 -0.1308
  751MOL0     C 1257   0.326   7.842   3.057  0.7580 -0.3902 -0.2255
  751MOL0     O 1258   0.359   7.938   2.962  0.2897  1.1191 -0.8156
  751MOL0     C 1259   0.278   7.962   2.848  0.3266 -0.1425  0.8726
  751MOL0     C 1260   0.368   8.007   2.736  0.1470 -0.0316  0.2031
  751MOL0     C 1261   0.302   8.031   2.598 -0.1585  1.2136  0.0752
  751MOL0     C 1262   0.242   7.900   2.546  0.2933  0.0415 -0.2466
  751MOL0     C 1263   0.088   7.883   2.563 -0.1765  0.7410  0.1301
  751MOL0     C 1264   0.042   7.752   2.488 -0.7656 -0.4574 -0.0360
  751MOL0     C 1265  -0.095   7.704   2.535  1.0236  0.2558  0.4319
  751MOL0     C 1266  -0.211   7.790   2.491  0.6684 -0.7330  1.0424
  751MOL0     N 1267  -0.256   7.743   2.355  0.1129 -0.6772  0.0894
  751MOL0     C 1268  -0.347   7.646   2.333  0.2912  0.3526 -0.4509
  751MOL0     C 1269  -0.372   7.650   2.199  0.8480  0.6661 -0.6345
  751MOL0     C 1270  -0.444   7.547   2.134 -0.5326  0.0116 -0.1186
  751MOL0     C 1271  -0.395   7.524   1.997 -0.6566 -0.4813 -0.9831
  751MOL0     C 1272  -0.260   7.447   2.010 -0.0791 -0.2475  0.1237
  751MOL0     C 1273  -0.164   7.470   1.891  0.0826 -1.2704 -0.3968
  751MOL0     O 1274  -0.037   7.410   1.922  0.1300  0.4822 -0.4202
  751MOL0     C 1275   0.074   7.482   1.971  0.3559  0.8338  0.5936
  751MOL0     C 1276   0.195   7.419   1.956 -0.3318 -0.6501 -0.1726
  751MOL0     C 1277   0.311   7.497   1.973 -0.5195 -0.4553 -0.5370
  751MOL0     C 1278   0.306   7.625   2.026  0.0378 -1.4238 -0.2042
  751MOL0     C 1279   0.419   7.698   2.069 -1.2474  0.3444 -0.5899
  751MOL0     O 1280   0.384   7.803   2.160 -0.4025 -0.1119  0.7682
  751MOL0     C 1281   0.491   7.871   2.207  0.3602  0.3908  0.3710
  751MOL0     C 1282   0.506   8.006   2.162 -0.3604  0.3859  0.1287
  751MOL0     C 1283   0.606   8.085   2.214  0.1723 -0.2922  0.8419
  751MOL0     C 1284   0.697   8.031   2.309  0.2030 -0.4609  0.1440
  751MOL0     O 1285   0.790   8.112   2.367 -0.7393 -0.1407 -0.1296
  751MOL0     C 1286   0.874   8.192   2.277 -0.0034 -0.2763  0.9743
  751MOL0     C 1287   0.840   8.337   2.242 -0.2135 -0.7694  0.9385
  751MOL0     C 1288   0.818   8.431   2.365  0.2009 -0.6431  0.3865
  751MOL0     C 1289   0.671   8.484   2.375  0.2413  0.7656 -0.1258
  751MOL0     C 1290   0.666   8.579   2.499  0.5674 -0.0902  0.3669
  751MOL0     C 1291   0.512   8.628   2.500  0.2953 -0.1007 -0.1960
  751MOL0     C 1292   0.495   8.722   2.626  0.2781 -0.4028  0.1082
  751MOL0     C 1293   0.353   8.796   2.615  0.7900 -1.0281 -0.0302
  751MOL0    Cl 1294   0.357   8.913   2.483  0.8361 -0.2293  0.0341
  751MOL0     C 1295   0.690   7.907   2.346  2.1382  0.4442  0.5087
  751MOL0     C 1296   0.584   7.824   2.299 -0.8664  0.9459 -0.8470
  751MOL0     O 1297   0.528   7.669   2.026 -0.3574 -0.0668 -0.9528
  751MOL0     C 1298   0.178   7.679   2.043  0.1801  0.1861  0.1727
  751MOL0     C 1299   0.064   7.616   2.005  0.6129 -0.5662  0.2269
  751MOL0     N 1300  -0.316   7.770   2.148 -0.1214  1.2115  0.5405
  751MOL0     N 1301  -0.248   7.825   2.245 -0.2333  0.1012 -0.9687
  751MOL0     C 1302   0.429   7.809   3.151  0.5670  0.5792  1.2880
  751MOL0     C 1303   0.406   7.728   3.251  0.0753  0.4897 -0.4219
  751MOL0     C 1304   0.164   7.479   3.592  0.1124  0.3954  0.4850
  751MOL0     C 1305   0.255   7.374   3.589 -0.5757  0.3826 -0.7663
  751MOL0     C 1306   0.259   7.282   3.690  0.0235 -0.7871 -0.3378
  751MOL0     C 1307   0.175   7.296   3.806 -0.2840 -0.2721  0.4372
  751MOL0     O 1308   0.181   7.224   3.927 -0.4668 -0.4807 -0.1428
  751MOL0     C 1309   0.293   7.145   3.959  0.5415 -0.1530  0.0670
  751MOL0     C 1310   0.265   7.004   3.901 -0.4400 -0.1515  0.0587
  751MOL0     C 1311   0.400   6.923   3.924 -0.7657 -1.4066 -0.1485
  751MOL0     C 1312   0.509   6.952   3.804  0.3050 -0.1950  0.1680
  751MOL0     C 1313   0.604   6.841   3.803  0.3298  0.6205 -0.4423
  751MOL0     C 1314   0.677   6.743   3.826 -0.2048  0.0790 -0.7029
  751MOL0     C 1315   0.081   7.397   3.800  0.3579 -0.4939 -0.1305
  751MOL0     C 1316   0.081   7.501   3.701  0.1051  0.4404 -0.2414
  751MOL0     C 1317  -0.009   7.614   3.726 -0.2687  0.1546 -0.1754
  751MOL0     H 1318   0.072   7.662   3.204  0.2314 -2.2239 -1.0185
  751MOL0     H 1319   0.109   7.799   3.022 -1.1220 -1.9540  0.7824
  751MOL0     H 1320   0.224   7.871   2.821 -0.0648  0.6560 -1.1480
  751MOL0     H 1321   0.208   8.045   2.862  0.9875  1.1764 -2.7452
  751MOL0     H 1322   0.455   7.942   2.723  1.5317  1.4183  1.6872
  751MOL0     H 1323   0.400   8.106   2.771 -1.1212  0.1264  1.0030
  751MOL0     H 1324   0.368   8.084   2.528  2.7204  0.7929  2.2408
  751MOL0     H 1325   0.224   8.106   2.609 -1.5065 -0.2676  1.0789
  751MOL0     H 1326   0.256   7.911   2.438  1.3124  3.9508  0.1380
  751MOL0     H 1327   0.295   7.808   2.575 -1.2460 -1.4539 -1.9562
  751MOL0     H 1328   0.053   7.879   2.666 -1.2910  2.2242 -0.1514
  751MOL0     H 1329   0.032   7.969   2.524 -1.9079 -1.0266 -1.5523
  751MOL0     H 1330   0.029   7.764   2.380  1.8602 -2.4276 -0.6462
  751MOL0     H 1331   0.121   7.679   2.504 -1.0819 -0.5546  1.2567
  751MOL0     H 1332  -0.095   7.705   2.645 -0.4519 -1.3535  0.4890
  751MOL0     H 1333  -0.112   7.603   2.498  1.4781 -1.0409  3.5046
  751MOL0     H 1334  -0.295   7.787   2.561  1.2944  1.4375  1.9710
  751MOL0     H 1335  -0.170   7.891   2.477  1.8370 -1.4165 -0.7478
  751MOL0     H 1336  -0.375   7.567   2.401  1.0628  0.0825 -0.4335
  751MOL0     H 1337  -0.434   7.456   2.194  2.9268  0.5416  0.3018
  751MOL0     H 1338  -0.544   7.586   2.112 -1.7799 -4.3421 -3.8701
  751MOL0     H 1339  -0.466   7.451   1.957 -2.3220 -0.4296  1.6983
  751MOL0     H 1340  -0.388   7.616   1.937  1.6556  0.1019  0.0927
  751MOL0     H 1341  -0.276   7.339   2.012 -0.0293 -0.3374 -2.0846
  751MOL0     H 1342  -0.210   7.476   2.102 -0.3758 -1.2420  0.6055
  751MOL0     H 1343  -0.176   7.576   1.865 -0.9756 -1.2017  0.3434
  751MOL0     H 1344  -0.213   7.418   1.807 -1.2219  1.3508 -1.3774
  751MOL0     H 1345   0.187   7.318   1.916  2.9531 -0.8339 -0.6054
  751MOL0     H 1346   0.408   7.449   1.965  0.0170  0.3757  0.6389
  751MOL0     H 1347   0.445   8.058   2.088  0.3334  1.3774  0.2336
  751MOL0     H 1348   0.615   8.187   2.178 -1.8021 -1.0589 -2.2711
  751MOL0     H 1349   0.978   8.190   2.312  0.8324 -1.5965 -1.3794
  751MOL0     H 1350   0.882   8.141   2.181  0.3045  0.2994  0.6861
  751MOL0     H 1351   0.930   8.379   2.195 -1.9443 -0.6754 -2.6052
  751MOL0     H 1352   0.759   8.343   2.169  0.8021 -1.2731 -0.2806
  751MOL0     H 1353   0.846   8.378   2.456  1.1052 -1.7118 -0.5019
  751MOL0     H 1354   0.884   8.517   2.355 -1.2060  0.4541  0.1361
  751MOL0     H 1355   0.610   8.395   2.390  2.0362 -1.2088 -3.3612
  751MOL0     H 1356   0.647   8.532   2.280 -0.9131  2.6211  1.0159
  751MOL0     H 1357   0.733   8.664   2.482  0.2947  0.8412  3.3687
  751MOL0     H 1358   0.700   8.525   2.589  0.3115  0.2073  0.6441
  751MOL0     H 1359   0.489   8.683   2.408 -1.5477  1.7907  1.2975
  751MOL0     H 1360   0.449   8.539   2.498  3.4694 -2.4751 -1.7523
  751MOL0     H 1361   0.572   8.799   2.622  0.5655 -0.7239 -0.8084
  751MOL0     H 1362   0.511   8.678   2.725 -2.9101 -1.4537  0.2754
  751MOL0     H 1363   0.275   8.720   2.609 -1.1526  0.7984  0.9733
  751MOL0     H 1364   0.334   8.857   2.704  0.3699  0.2079 -0.9436
  751MOL0     H 1365   0.755   7.875   2.427  1.0727 -1.7836  0.5657
  751MOL0     H 1366   0.566   7.723   2.335 -1.6385  1.8129  1.3682
  751MOL0     H 1367   0.173   7.778   2.086  2.1410 -0.1799  1.3993
  751MOL0     H 1368  -0.027   7.675   2.003  0.8503 -0.1711  0.8073
  751MOL0     H 1369   0.527   7.852   3.133  0.6186 -0.3113 -0.9253
  751MOL0     H 1370   0.498   7.697   3.299  0.8332  0.9580 -1.5448
  751MOL0     H 1371   0.312   7.375   3.496 -1.7095 -0.2837 -1.4955
  751MOL0     H 1372   0.342   7.212   3.690  2.6823  2.1406 -1.3175
  751MOL0     H 1373   0.306   7.137   4.067  1.9550 -2.7324 -0.2010
  751MOL0     H 1374   0.388   7.185   3.920  1.5494 -1.8478  0.6585
  751MOL0     H 1375   0.223   7.010   3.800  0.2726  1.7903 -0.1704
  751MOL0     H 1376   0.194   6.946   3.961 -0.9876  0.1688 -0.2641
  751MOL0     H 1377   0.369   6.818   3.927 -2.5234 -1.0620 -2.6743
  751MOL0     H 1378   0.442   6.944   4.022  2.4788  0.6900 -1.8349
  751MOL0     H 1379   0.461   6.951   3.706  2.7259  0.2682 -1.1036
  751MOL0     H 1380   0.559   7.048   3.822 -0.4873  0.4961 -1.1569
  751MOL0     H 1381   0.722   6.647   3.838 -0.8656 -0.1744 -0.1716
  751MOL0     H 1382   0.021   7.411   3.889  0.4214  1.9059 -0.4033
  751MOL0     H 1383  -0.076   7.621   3.640 -1.2762 -4.0938  0.0355
  751MOL0     H 1384  -0.069   7.596   3.815  0.3996  3.9783  1.2087
  751MOL0     H 1385   0.043   7.710   3.726  0.3843 -0.1758  1.3786
  752MOL0     O 1386   4.701   1.942   4.459 -0.3212  0.6105 -0.2570
  752MOL0     C 1387   4.696   1.826   4.495  0.6186  0.5125  0.1760
  752MOL0     O 1388   4.587   1.745   4.491  0.6571 -0.2747  0.3688
  752MOL0     C 1389   4.469   1.811   4.451 -0.1732 -0.2567 -0.5414
  752MOL0     C 1390   4.409   1.916   4.525 -1.2943 -0.9208  0.9100
  752MOL0     C 1391   4.298   1.991   4.484 -0.0871  0.3982 -0.0245
  752MOL0     C 1392   4.221   1.937   4.379 -0.7861 -1.3954 -0.3181
  752MOL0     O 1393   4.101   1.990   4.330 -0.0681  0.1795  0.2231
  752MOL0     C 1394   4.023   2.052   4.430  2.0146 -0.5262  0.1061
  752MOL0     C 1395   3.882   2.042   4.383 -0.2784  0.3595  0.8136
  752MOL0     C 1396   3.866   2.136   4.258 -1.0057  0.6455 -0.1285
  752MOL0     C 1397   3.741   2.119   4.165 -0.4481 -0.8655 -0.4782
  752MOL0     C 1398   3.613   2.122   4.249  0.6072  1.7026 -0.4756
  752MOL0     C 1399   3.507   2.068   4.160  0.1868  0.0823  0.2485
  752MOL0     C 1400   3.369   2.061   4.223 -0.0983  0.2867 -0.3186
  752MOL0     C 1401   3.256   2.022   4.117 -1.0364 -0.5691  0.0516
  752MOL0     N 1402   3.126   2.022   4.183 -0.2355 -0.4473 -0.2801
  752MOL0     C 1403   3.033   1.946   4.124 -0.2290 -0.4433  0.3732
  752MOL0     C 1404   2.913   1.974   4.180 -0.0148  0.6819  0.2639
  752MOL0     C 1405   2.772   1.911   4.143  0.3499 -0.9379 -0.0126
  752MOL0     C 1406   2.787   1.770   4.173 -1.1015 -0.2730 -0.7835
  752MOL0     C 1407   2.734   1.732   4.318 -0.0094 -0.1292  0.4883
  752MOL0     C 1408   2.762   1.595   4.355  0.0969  0.9564  0.2561
  752MOL0     O 1409   2.683   1.525   4.260 -0.2840  0.0449 -0.0643
  752MOL0     C 1410   2.697   1.388   4.259 -0.5571  0.6602 -0.0053
  752MOL0     C 1411   2.656   1.314   4.147 -0.9830  0.0042  0.4252
  752MOL0     C 1412   2.669   1.184   4.131 -0.1325  0.3680  0.2173
  752MOL0     C 1413   2.714   1.107   4.233 -1.2310 -0.7028 -0.1203
  752MOL0     C 1414   2.728   0.953   4.228  1.2027  0.3530 -0.4496
  752MOL0     O 1415   2.799   0.891   4.319  0.4021  0.0595  0.2540
  752MOL0     C 1416   2.789   0.755   4.344 -1.4140 -1.4294  0.2070
  752MOL0     C 1417   2.683   0.675   4.331  0.5990  0.8261  0.6370
  752MOL0     C 1418   2.697   0.539   4.351  0.1216 -0.4974 -0.2856
  752MOL0     C 1419   2.818   0.475   4.371  1.1063  0.1305 -0.2416
  752MOL0     O 1420   2.838   0.340   4.372 -1.2756 -0.4765 -0.2704
  752MOL0     C 1421   2.731   0.239   4.347  0.8392 -0.0785 -0.1239
  752MOL0     C 1422   2.681   0.198   4.489 -0.2238  0.1028  0.1796
  752MOL0     C 1423   2.566   0.098   4.475  0.7966  0.7010  0.4060
  752MOL0     C 1424   2.587  -0.031   4.399  0.2919 -0.4892  1.0766
  752MOL0     C 1425   2.471  -0.121   4.388 -0.0986  0.6512 -0.4226
  752MOL0     C 1426   2.405  -0.182   4.521  0.4817  0.3955  0.1309
  752MOL0     C 1427   2.295  -0.284   4.491  1.3840 -0.8123 -0.7031
  752MOL0     C 1428   2.212  -0.333   4.620 -0.7625  0.1941  0.5058
  752MOL0    Cl 1429   2.037  -0.359   4.566 -0.1892 -0.5195 -0.2489
  752MOL0     C 1430   2.932   0.564   4.376 -0.3962 -0.0748 -0.0854
  752MOL0     C 1431   2.920   0.699   4.371 -0.4807 -0.6396  0.7660
  752MOL0     O 1432   2.669   0.905   4.140 -0.0137  0.6238  0.4070
  752MOL0     C 1433   2.741   1.163   4.352  0.2861  0.5773 -0.0311
  752MOL0     C 1434   2.740   1.300   4.368 -0.7740  0.2412  0.2112
  752MOL0     N 1435   2.940   2.075   4.272 -0.0558  0.1325 -0.1357
  752MOL0     N 1436   3.069   2.101   4.276 -0.0796 -0.4290 -0.2544
  752MOL0     C 1437   4.280   1.834   4.313  0.2134 -0.1375 -0.5697
  752MOL0     C 1438   4.403   1.780   4.335  0.0259  0.0930 -0.1703
  752MOL0     C 1439   4.813   1.752   4.567  0.5010 -0.9586  0.2218
  752MOL0     C 1440   4.795   1.718   4.697  0.9186  0.3103 -0.1457
  752MOL0     C 1441   4.894   1.652   4.781  0.6642  0.5408  0.7079
  752MOL0     C 1442   5.010   1.610   4.716  0.0911 -0.2862 -0.5390
  752MOL0     O 1443   5.099   1.538   4.794  0.6905  0.7128 -0.2280
  752MOL0     C 1444   5.236   1.522   4.757 -0.3647 -0.1885 -1.3695
  752MOL0     C 1445   5.298   1.524   4.896  0.2719 -0.1401  0.5338
  752MOL0     C 1446   5.453   1.528   4.883  0.1331 -0.1200 -0.4418
  752MOL0     C 1447   5.525   1.391   4.855 -0.3761  0.5869  0.0342
  752MOL0     C 1448   5.519   1.350   4.711 -0.2556 -0.8389 -0.5842
  752MOL0     C 1449   5.508   1.320   4.596 -0.2121 -0.1772  0.3036
  752MOL0     C 1450   5.039   1.651   4.587  0.3838  1.1028 -0.3087
  752MOL0     C 1451   4.935   1.714   4.506  0.0280  0.1079  0.3564
  752MOL0     C 1452   4.954   1.752   4.355  0.0323 -0.9073 -0.5459
  752MOL0     H 1453   4.471   1.935   4.612  1.1900 -1.1541 -0.7140
  752MOL0     H 1454   4.261   2.074   4.543 -0.1926 -0.1177  0.6556
  752MOL0     H 1455   4.034   1.999   4.525 -3.0372 -0.6485  0.9327
  752MOL0     H 1456   4.053   2.154   4.453  1.9084 -0.6301  0.7223
  752MOL0     H 1457   3.813   2.072   4.462  0.2376  0.7847  1.1083
  752MOL0     H 1458   3.871   1.936   4.359  2.6776 -0.0378  0.8906
  752MOL0     H 1459   3.950   2.129   4.188  1.2761 -0.7417  2.5581
  752MOL0     H 1460   3.867   2.243   4.281 -3.2476  0.1770  2.7805
  752MOL0     H 1461   3.727   2.192   4.084 -0.0546 -0.2229  0.0231
  752MOL0     H 1462   3.750   2.016   4.130 -1.1988 -2.1518  2.7770
  752MOL0     H 1463   3.631   2.047   4.326 -2.3292 -0.4042 -1.6485
  752MOL0     H 1464   3.591   2.219   4.295 -2.9719  0.1682  1.4987
  752MOL0     H 1465   3.506   2.134   4.072 -0.7741 -1.3640 -0.8756
  752MOL0     H 1466   3.533   1.970   4.119 -0.6206 -0.2500  0.4974
  752MOL0     H 1467   3.346   2.154   4.275 -2.9171  0.0771 -1.0548
  752MOL0     H 1468   3.358   1.979   4.295 -0.1405  0.1638 -0.4641
  752MOL0     H 1469   3.264   2.094   4.036  1.6134  0.6355  1.2677
  752MOL0     H 1470   3.277   1.923   4.076  1.1344  0.6190 -1.9826
  752MOL0     H 1471   3.047   1.850   4.074  3.0618 -1.3589  2.7161
  752MOL0     H 1472   2.689   1.951   4.201 -0.9732 -1.0680 -1.7370
  752MOL0     H 1473   2.762   1.920   4.034  3.3271 -4.2715 -0.7493
  752MOL0     H 1474   2.721   1.713   4.107  0.1469  1.8070 -4.0527
  752MOL0     H 1475   2.889   1.731   4.160 -0.6188 -0.0028  1.6135
  752MOL0     H 1476   2.628   1.754   4.334 -0.7648 -2.1795 -1.2316
  752MOL0     H 1477   2.797   1.771   4.398  0.9469 -0.0442 -0.2989
  752MOL0     H 1478   2.724   1.571   4.455 -2.6797 -0.0876 -0.9226
  752MOL0     H 1479   2.866   1.564   4.340 -0.9966 -1.3835 -4.6556
  752MOL0     H 1480   2.622   1.377   4.065 -1.3179  0.4572  0.9040
  752MOL0     H 1481   2.640   1.128   4.043 -1.6522 -0.7113  1.3598
  752MOL0     H 1482   2.584   0.714   4.309  1.0384  0.9392 -1.2707
  752MOL0     H 1483   2.601   0.495   4.375 -0.2284 -0.0831 -0.8914
  752MOL0     H 1484   2.647   0.287   4.295  1.8163  1.3624 -0.4450
  752MOL0     H 1485   2.775   0.157   4.290  0.5531 -0.8412  0.7392
  752MOL0     H 1486   2.761   0.153   4.548  1.2467  1.0541 -0.9915
  752MOL0     H 1487   2.631   0.285   4.534 -1.6780 -0.3091 -0.5707
  752MOL0     H 1488   2.529   0.071   4.574 -3.7407  2.7845 -0.4603
  752MOL0     H 1489   2.479   0.146   4.430  2.2820  1.2104 -2.1450
  752MOL0     H 1490   2.670  -0.091   4.439  0.8966 -0.1490  0.3673
  752MOL0     H 1491   2.609   0.006   4.298 -2.6157 -0.4681  0.3610
  752MOL0     H 1492   2.495  -0.201   4.317  1.7065  1.9166 -1.3109
  752MOL0     H 1493   2.391  -0.065   4.339 -2.0473 -0.6361  1.1077
  752MOL0     H 1494   2.478  -0.237   4.581  2.3818 -0.3483 -2.6480
  752MOL0     H 1495   2.351  -0.105   4.576  3.0756  2.6271 -0.2564
  752MOL0     H 1496   2.338  -0.376   4.451  1.1240 -2.1359  1.8468
  752MOL0     H 1497   2.236  -0.234   4.413  0.0422 -1.0413  0.1285
  752MOL0     H 1498   2.253  -0.422   4.669  2.2987  1.8383  1.2172
  752MOL0     H 1499   2.205  -0.252   4.694 -1.0197 -0.3562  1.0965
  752MOL0     H 1500   3.033   0.526   4.386 -1.6921 -3.7149  0.5509
  752MOL0     H 1501   3.017   0.747   4.366 -0.3517 -0.8683  0.9999
  752MOL0     H 1502   2.747   1.103   4.442  2.0521  2.8822  1.4759
  752MOL0     H 1503   2.755   1.336   4.469 -1.4509 -2.1808  1.2644
  752MOL0     H 1504   4.222   1.794   4.230  3.9844 -3.0453 -2.1332
  752MOL0     H 1505   4.441   1.707   4.265  1.1639 -0.1259  0.6491
  752MOL0     H 1506   4.706   1.740   4.755  1.4382 -0.2356  0.8877
  752MOL0     H 1507   4.879   1.634   4.887  1.1762  1.4948  0.9590
  752MOL0     H 1508   5.287   1.601   4.702  3.1159 -0.9880  0.3907
  752MOL0     H 1509   5.240   1.424   4.707 -1.9132 -1.6083  1.0716
  752MOL0     H 1510   5.271   1.428   4.941 -1.1266 -0.0077  0.0322
  752MOL0     H 1511   5.260   1.610   4.951  0.3726  0.3110 -0.0891
  752MOL0     H 1512   5.490   1.564   4.980  0.5067 -1.8895  0.1172
  752MOL0     H 1513   5.487   1.611   4.820  0.6354  0.0378  0.0315
  752MOL0     H 1514   5.629   1.409   4.884  0.6283  1.0246 -3.3575
  752MOL0     H 1515   5.477   1.311   4.912 -2.2341  0.5959 -1.3955
  752MOL0     H 1516   5.470   1.304   4.497 -2.1976  2.2214  0.5798
  752MOL0     H 1517   5.133   1.620   4.543 -1.0569 -0.0405 -2.8147
  752MOL0     H 1518   4.893   1.686   4.292 -2.4742 -0.0057  0.7961
  752MOL0     H 1519   4.943   1.858   4.330  0.0191 -1.5436 -3.5877
  752MOL0     H 1520   5.059   1.732   4.329  0.4798  1.1185 -0.4847
  753MOL0     O 1521  10.101   9.869   7.524 -0.5076 -0.0110  0.0281
  753MOL0     C 1522  10.016   9.858   7.438  0.4769  0.4634  0.2587
  753MOL0     O 1523   9.942   9.962   7.405 -0.6268  0.2928 -0.2016
  753MOL0     C 1524   9.962  10.086   7.460 -0.1446 -0.2109 -1.1444
  753MOL0     C 1525   9.865  10.139   7.552  0.0685 -0.4186  0.5136
  753MOL0     C 1526   9.890  10.260   7.620 -0.4271 -0.1418  0.6040
  753MOL0     C 1527  10.015  10.324   7.612 -0.8472  1.3625 -0.8404
  753MOL0     O 1528  10.053  10.431   7.679  0.4371 -0.5163 -0.4490
  753MOL0     C 1529   9.967  10.543   7.687  0.6590  0.3019 -0.7671
  753MOL0     C 1530  10.050  10.662   7.712  0.0796 -0.0449  0.2480
  753MOL0     C 1531   9.947  10.780   7.757 -0.3666  0.0250  0.0977
  753MOL0     C 1532   9.842  10.792   7.646  0.0221  1.0047  0.3523
  753MOL0     C 1533   9.796  10.933   7.637 -0.1387 -0.3655  0.5077
  753MOL0     C 1534   9.698  10.974   7.529  0.1239  0.0157  0.5156
  753MOL0     C 1535   9.557  10.903   7.546 -0.0955 -0.4654  0.2838
  753MOL0     C 1536   9.456  10.927   7.431  0.4760  0.9359  0.6086
  753MOL0     N 1537   9.349  10.827   7.432  0.2614 -0.0855  1.0637
  753MOL0     C 1538   9.320  10.728   7.338 -0.1041 -0.1048 -0.2750
  753MOL0     C 1539   9.200  10.679   7.371  0.5249  0.1767 -0.3777
  753MOL0     C 1540   9.119  10.572   7.310 -0.0102  0.4354 -0.2037
  753MOL0     C 1541   9.130  10.448   7.384  0.1416  0.8905  0.3824
  753MOL0     C 1542   9.110  10.330   7.287  0.5790  0.5041  0.5204
  753MOL0     C 1543   9.068  10.203   7.367 -0.3824  0.3786  0.0907
  753MOL0     O 1544   9.089  10.075   7.304 -0.5973  0.0190 -0.8504
  753MOL0     C 1545   8.987  10.005   7.247  0.4954  1.0238  0.9968
  753MOL0     C 1546   8.978   9.870   7.268  0.3372 -0.9086  0.1118
  753MOL0     C 1547   8.864   9.808   7.215 -1.0999  0.6152  0.3594
  753MOL0     C 1548   8.773   9.861   7.136  0.6730  0.1024  0.4905
  753MOL0     C 1549   8.654   9.783   7.094 -1.0703 -0.3599  0.2246
  753MOL0     O 1550   8.553   9.856   7.039  0.7786 -1.0525 -0.2428
  753MOL0     C 1551   8.449   9.781   6.990  0.7115 -0.8583  0.4828
  753MOL0     C 1552   8.432   9.792   6.853 -0.3518  0.7202  0.6538
  753MOL0     C 1553   8.310   9.723   6.798 -0.1934 -0.7653 -0.3895
  753MOL0     C 1554   8.223   9.645   6.885 -0.6329  0.1582  0.3031
  753MOL0     O 1555   8.113   9.580   6.822 -0.7932 -0.7672 -0.5618
  753MOL0     C 1556   7.994   9.600   6.897 -0.7505  0.8176 -0.2131
  753MOL0     C 1557   7.877   9.556   6.816 -0.7120 -0.4731  0.2449
  753MOL0     C 1558   7.902   9.424   6.761  0.9518  0.1623  0.4532
  753MOL0     C 1559   7.789   9.382   6.676 -0.6441  0.0749 -0.1804
  753MOL0     C 1560   7.823   9.238   6.623  0.8942 -0.8257 -0.5127
  753MOL0     C 1561   7.714   9.186   6.529 -0.6713 -0.2267 -0.1276
  753MOL0     C 1562   7.578   9.160   6.591  0.9995  1.2889 -0.1967
  753MOL0     C 1563   7.493   9.072   6.480 -0.1006  0.4842  0.6181
  753MOL0    Cl 1564   7.339   9.148   6.492 -0.0915 -0.0997  0.0644
  753MOL0     C 1565   8.253   9.641   7.018 -0.3776  0.6982  1.1936
  753MOL0     C 1566   8.365   9.709   7.069  0.4914  0.8337 -0.0282
  753MOL0     O 1567   8.659   9.657   7.110 -0.3731 -0.5052  0.1243
  753MOL0     C 1568   8.807   9.984   7.086 -0.2381 -1.1951 -0.1246
  753MOL0     C 1569   8.906  10.058   7.154 -0.1828  0.3927 -0.2189
  753MOL0     N 1570   9.158  10.737   7.488  0.1543 -0.1600 -0.3863
  753MOL0     N 1571   9.240  10.830   7.518  0.3173 -0.1476 -0.4645
  753MOL0     C 1572  10.106  10.281   7.516  0.4011  0.8077  0.3447
  753MOL0     C 1573  10.086  10.165   7.442 -0.0991  0.0917  0.2637
  753MOL0     C 1574   9.985   9.726   7.380  0.1645 -0.8314  0.3967
  753MOL0     C 1575   9.897   9.728   7.267  0.9772  0.1924 -0.2246
  753MOL0     C 1576   9.853   9.615   7.194  0.5390 -1.0400  0.6375
  753MOL0     C 1577   9.913   9.496   7.226 -0.0195  0.0195  0.1227
  753MOL0     O 1578   9.871   9.389   7.150 -0.1952 -0.0702  0.6470
  753MOL0     C 1579   9.860   9.260   7.201 -0.4718  0.2296 -0.5455
  753MOL0     C 1580   9.762   9.178   7.112  0.3656 -0.5141 -0.7314
  753MOL0     C 1581   9.619   9.217   7.138  0.0170  0.0605 -0.6586
  753MOL0     C 1582   9.533   9.091   7.151 -0.9932  0.5105 -0.2326
  753MOL0     C 1583   9.401   9.125   7.124 -0.2226 -0.3342 -0.3529
  753MOL0     C 1584   9.295   9.174   7.096 -0.5437 -0.4915 -0.0429
  753MOL0     C 1585  10.018   9.490   7.320  0.5109  0.0180 -0.0126
  753MOL0     C 1586  10.055   9.604   7.400 -0.0359  0.0898  0.3045
  753MOL0     C 1587  10.169   9.581   7.492  0.5590 -0.3359  1.2556
  753MOL0     H 1588   9.765  10.099   7.567  0.5396 -1.6178  0.5344
  753MOL0     H 1589   9.803  10.286   7.681 -1.6253 -0.6090 -0.8495
  753MOL0     H 1590   9.912  10.575   7.598  2.3804  2.3420 -1.1699
  753MOL0     H 1591   9.900  10.536   7.774 -1.4754  0.9750 -2.2686
  753MOL0     H 1592  10.110  10.697   7.628 -2.5949  0.8800 -1.4109
  753MOL0     H 1593  10.117  10.628   7.791 -1.4401 -1.0543  1.1627
  753MOL0     H 1594  10.008  10.871   7.759  0.4262 -0.4710 -0.7710
  753MOL0     H 1595   9.902  10.759   7.855  1.4619 -1.0567  0.7539
  753MOL0     H 1596   9.892  10.765   7.552 -2.2903 -1.5745 -0.2700
  753MOL0     H 1597   9.767  10.714   7.658 -0.5571  0.9783 -2.6255
  753MOL0     H 1598   9.754  10.955   7.735  1.0491  0.9260  0.7648
  753MOL0     H 1599   9.883  10.998   7.629 -0.6274  0.3524  0.8282
  753MOL0     H 1600   9.677  11.081   7.518 -2.0061 -0.5112 -1.3260
  753MOL0     H 1601   9.744  10.939   7.436  0.0780  0.2802  0.3950
  753MOL0     H 1602   9.511  10.945   7.636  0.6640  0.4716  0.2455
  753MOL0     H 1603   9.562  10.795   7.559 -1.8167 -0.6152 -0.0062
  753MOL0     H 1604   9.418  11.029   7.436 -0.7945  0.6208 -1.4484
  753MOL0     H 1605   9.504  10.928   7.333 -0.0034  1.1933  0.3757
  753MOL0     H 1606   9.381  10.706   7.251  0.5186  3.0868 -0.7630
  753MOL0     H 1607   9.013  10.598   7.312 -0.5281 -1.3286 -1.6722
  753MOL0     H 1608   9.130  10.557   7.202  0.2430 -2.6184  0.1316
  753MOL0     H 1609   9.223  10.432   7.439  1.3582  0.0518 -1.8052
  753MOL0     H 1610   9.039  10.449   7.446  0.4084  1.3094  0.7717
  753MOL0     H 1611   9.206  10.308   7.239  1.5905  1.8582  1.8455
  753MOL0     H 1612   9.035  10.350   7.210 -1.9790 -0.2963  2.6689
  753MOL0     H 1613   8.964  10.204   7.401 -0.6080 -1.9453 -0.3596
  753MOL0     H 1614   9.126  10.207   7.460 -0.2454 -2.5165  0.2006
  753MOL0     H 1615   9.039   9.831   7.348  0.4576  0.2170  0.5954
  753MOL0     H 1616   8.860   9.709   7.257  0.7484 -0.7252 -2.3376
  753MOL0     H 1617   8.509   9.838   6.791  1.8069 -2.9795  0.3202
  753MOL0     H 1618   8.296   9.720   6.690  0.7496  1.0304 -0.5935
  753MOL0     H 1619   8.003   9.550   6.994  1.9301  0.3856 -0.6060
  753MOL0     H 1620   7.992   9.706   6.923  2.0418  0.3910  2.3469
  753MOL0     H 1621   7.791   9.577   6.881  1.1166  0.6247  2.4306
  753MOL0     H 1622   7.885   9.616   6.724  1.5862  2.0635  1.9447
  753MOL0     H 1623   7.999   9.425   6.711  0.5045 -0.6286 -0.4479
  753MOL0     H 1624   7.915   9.348   6.839  0.9971 -3.3132 -2.7017
  753MOL0     H 1625   7.780   9.451   6.592 -1.1168  3.4544  2.4526
  753MOL0     H 1626   7.699   9.375   6.736  1.6443 -0.2320  3.5521
  753MOL0     H 1627   7.831   9.179   6.715  4.3064  0.5408  0.2232
  753MOL0     H 1628   7.920   9.229   6.573  0.0672 -0.9063 -2.1792
  753MOL0     H 1629   7.707   9.248   6.440 -3.4097 -0.2538 -0.0142
  753MOL0     H 1630   7.750   9.093   6.485  1.1443  0.8449 -1.0343
  753MOL0     H 1631   7.530   9.256   6.613  0.0349  0.7919 -0.0598
  753MOL0     H 1632   7.597   9.101   6.681 -1.6635  1.0530  0.3006
  753MOL0     H 1633   7.535   9.079   6.379 -3.3450  0.4038 -0.8758
  753MOL0     H 1634   7.494   8.966   6.505  0.7482 -0.0743 -1.6020
  753MOL0     H 1635   8.194   9.574   7.081 -0.7167  1.5620  1.8195
  753MOL0     H 1636   8.387   9.711   7.176 -2.0748 -0.6413  0.6201
  753MOL0     H 1637   8.742  10.020   7.007 -1.7782 -1.2530  1.0678
  753MOL0     H 1638   8.923  10.162   7.129 -0.1498  0.4108 -0.1202
  753MOL0     H 1639  10.202  10.332   7.510 -0.6004  2.6161 -2.1997
  753MOL0     H 1640  10.171  10.143   7.379 -0.0699  1.3510 -0.1778
  753MOL0     H 1641   9.859   9.822   7.230 -0.8085 -0.5688 -0.4161
  753MOL0     H 1642   9.779   9.629   7.116  1.0180 -1.5264  0.0898
  753MOL0     H 1643   9.822   9.270   7.303 -3.4264  4.1260 -1.7852
  753MOL0     H 1644   9.964   9.227   7.215 -0.8074  0.1084  2.2228
  753MOL0     H 1645   9.778   9.070   7.127  1.2054 -0.2543  0.4124
  753MOL0     H 1646   9.772   9.193   7.005  1.8050 -2.1336 -0.8726
  753MOL0     H 1647   9.587   9.290   7.063 -1.2289 -1.9325 -2.1695
  753MOL0     H 1648   9.623   9.259   7.239  0.8628  0.6069 -0.9050
  753MOL0     H 1649   9.574   9.017   7.082 -0.6994  0.7675 -0.3380
  753MOL0     H 1650   9.534   9.040   7.248  3.6494 -1.5504 -1.1143
  753MOL0     H 1651   9.197   9.213   7.076 -0.2423 -0.1134 -0.8149
  753MOL0     H 1652  10.060   9.393   7.342  1.2871  0.8424  2.5037
  753MOL0     H 1653  10.254   9.580   7.424  1.1423  2.6525  1.7945
  753MOL0     H 1654  10.167   9.663   7.565 -1.8687  2.0693 -1.2700
  753MOL0     H 1655  10.165   9.485   7.543 -0.0891 -0.3141  1.2604
  754MOL0     O 1656  11.264   2.094   4.238 -0.2724  0.7141 -0.3848
  754MOL0     C 1657  11.232   2.184   4.318 -0.5944  0.4020 -0.7924
  754MOL0     O 1658  11.209   2.164   4.454  0.6676 -0.1106 -0.1427
  754MOL0     C 1659  11.224   2.038   4.503  0.1137 -0.0180  0.4873
  754MOL0     C 1660  11.342   1.988   4.543 -0.0551 -0.3684 -0.1026
  754MOL0     C 1661  11.368   1.861   4.591  0.0470 -0.0808  0.0729
  754MOL0     C 1662  11.254   1.779   4.595  0.1558  0.8223 -0.2600
  754MOL0     O 1663  11.272   1.648   4.640  0.1201  0.3975 -0.5270
  754MOL0     C 1664  11.320   1.643   4.780  0.7143 -0.1985  0.6250
  754MOL0     C 1665  11.339   1.493   4.809 -0.4042 -0.2132 -1.0953
  754MOL0     C 1666  11.468   1.442   4.732  0.1106  0.3632  0.3821
  754MOL0     C 1667  11.520   1.309   4.774 -0.2210  0.0063  0.1899
  754MOL0     C 1668  11.632   1.314   4.881  0.5277 -0.0397  0.6903
  754MOL0     C 1669  11.763   1.364   4.824 -1.0164 -1.0267  0.4892
  754MOL0     C 1670  11.876   1.355   4.920 -1.5719  0.5683  0.4179
  754MOL0     C 1671  11.868   1.430   5.056 -0.4480 -0.7246 -0.0610
  754MOL0     N 1672  11.808   1.566   5.042  0.0353 -0.4353 -0.1684
  754MOL0     C 1673  11.696   1.611   5.116 -0.9633 -0.0927 -0.8533
  754MOL0     C 1674  11.674   1.736   5.073 -0.5378  0.3464 -0.6347
  754MOL0     C 1675  11.553   1.806   5.106  0.2537 -0.5044  0.5572
  754MOL0     C 1676  11.563   1.953   5.069  0.1620  0.4383 -0.4086
  754MOL0     C 1677  11.533   1.975   4.920  0.6355 -0.2046 -0.8846
  754MOL0     C 1678  11.527   2.132   4.888 -0.4004  0.9594  1.4099
  754MOL0     O 1679  11.404   2.189   4.923  0.0571  0.3838  0.2930
  754MOL0     C 1680  11.389   2.313   4.888 -0.2494 -0.1498 -0.0860
  754MOL0     C 1681  11.308   2.357   4.784  0.2025  1.8083  0.3989
  754MOL0     C 1682  11.286   2.492   4.767  0.3117 -0.0682  0.3043
  754MOL0     C 1683  11.364   2.586   4.841 -0.3276  0.1950  0.5207
  754MOL0     C 1684  11.360   2.720   4.792 -0.0212  0.7693 -0.6078
  754MOL0     O 1685  11.327   2.737   4.668  0.4484 -0.1116  0.0951
  754MOL0     C 1686  11.325   2.870   4.633 -0.6685 -0.7256  0.2475
  754MOL0     C 1687  11.438   2.927   4.581 -0.2401 -0.8684 -0.1948
  754MOL0     C 1688  11.452   3.062   4.569 -0.2081 -0.7028  0.1258
  754MOL0     C 1689  11.340   3.143   4.589 -0.5834 -0.4558 -0.4818
  754MOL0     O 1690  11.342   3.277   4.575  0.9905 -0.0260 -0.1953
  754MOL0     C 1691  11.406   3.341   4.461  0.3704 -0.1192  0.3673
  754MOL0     C 1692  11.371   3.489   4.460 -0.2984  0.3174  0.4552
  754MOL0     C 1693  11.229   3.516   4.443  0.2892 -0.4264 -0.9255
  754MOL0     C 1694  11.130   3.488   4.553 -0.2579 -0.0117 -0.9116
  754MOL0     C 1695  10.978   3.543   4.508 -0.5445  0.2527  0.4406
  754MOL0     C 1696  10.877   3.579   4.617  0.3854  0.1137  0.0206
  754MOL0     C 1697  10.732   3.600   4.573 -0.0415 -0.5545 -0.7046
  754MOL0     C 1698  10.695   3.735   4.533  1.2551 -0.2196  0.2338
  754MOL0    Cl 1699  10.534   3.747   4.444 -0.0995 -0.0328 -0.0034
  754MOL0     C 1700  11.218   3.086   4.627  0.3492  0.0937 -0.0433
  754MOL0     C 1701  11.212   2.947   4.646  0.8881  0.2969 -0.5651
  754MOL0     O 1702  11.382   2.807   4.878  0.2526 -0.2601  0.6572
  754MOL0     C 1703  11.454   2.540   4.941 -0.3797  0.1385  0.6979
  754MOL0     C 1704  11.459   2.403   4.967  1.2959  0.5670  0.1077
  754MOL0     N 1705  11.773   1.780   4.993 -0.8741 -0.3217 -0.5610
  754MOL0     N 1706  11.855   1.679   4.980  1.3035 -0.4305  0.0174
  754MOL0     C 1707  11.129   1.828   4.558  0.0482 -0.3155 -0.3291
  754MOL0     C 1708  11.113   1.960   4.512 -0.0035 -0.3646 -0.4048
  754MOL0     C 1709  11.230   2.323   4.278 -0.7552 -0.7109  0.3914
  754MOL0     C 1710  11.264   2.430   4.366 -0.3262 -0.6005  0.8328
  754MOL0     C 1711  11.259   2.566   4.309 -0.8251  0.5299 -0.7174
  754MOL0     C 1712  11.222   2.593   4.181  0.2183  0.5959 -1.4580
  754MOL0     O 1713  11.211   2.722   4.135  0.1471 -0.8483 -0.2226
  754MOL0     C 1714  11.205   2.832   4.237 -0.0042  0.1544  0.3207
  754MOL0     C 1715  11.150   2.968   4.184  1.1826 -0.5857  0.0900
  754MOL0     C 1716  11.137   3.075   4.297  0.7896  0.0046 -0.1206
  754MOL0     C 1717  11.108   3.206   4.225  1.0400  0.2597 -0.4533
  754MOL0     C 1718  10.964   3.209   4.187 -0.5192 -0.0096  0.0788
  754MOL0     C 1719  10.851   3.218   4.159  0.0889 -0.3509 -0.2755
  754MOL0     C 1720  11.186   2.488   4.107  0.2874 -0.1234  0.5187
  754MOL0     C 1721  11.184   2.355   4.151 -0.2446  0.0119 -0.0101
  754MOL0     C 1722  11.140   2.256   4.062 -0.7118  0.0386  1.6151
  754MOL0     H 1723  11.431   2.051   4.543 -1.0663  1.1573  1.2710
  754MOL0     H 1724  11.464   1.837   4.634 -0.7474 -0.9435  1.4544
  754MOL0     H 1725  11.414   1.696   4.796 -0.9667  2.9248  0.9098
  754MOL0     H 1726  11.245   1.690   4.845  0.0666 -0.9281  0.4278
  754MOL0     H 1727  11.250   1.434   4.786 -0.9849 -0.2843  1.0738
  754MOL0     H 1728  11.359   1.491   4.916 -0.6928  1.2594 -0.9987
  754MOL0     H 1729  11.550   1.514   4.740  1.1570 -0.9434  1.8753
  754MOL0     H 1730  11.444   1.444   4.625  1.9171  0.2865 -0.0564
  754MOL0     H 1731  11.436   1.247   4.805 -1.5261  0.7004 -1.7305
  754MOL0     H 1732  11.562   1.268   4.681 -1.7242  1.8628 -1.4106
  754MOL0     H 1733  11.597   1.365   4.972  0.8193 -2.7828  2.4577
  754MOL0     H 1734  11.659   1.210   4.898 -0.7227 -0.1260  2.3937
  754MOL0     H 1735  11.792   1.307   4.735 -1.0088  0.3939 -0.4439
  754MOL0     H 1736  11.749   1.471   4.807 -1.6864 -0.5403  3.5477
  754MOL0     H 1737  11.968   1.386   4.870 -0.9804  0.1477  1.2075
  754MOL0     H 1738  11.879   1.250   4.950 -1.1101  1.0217  2.0390
  754MOL0     H 1739  11.803   1.382   5.130 -0.5158 -1.5691 -0.6566
  754MOL0     H 1740  11.967   1.426   5.105  0.2663  0.8427 -1.3039
  754MOL0     H 1741  11.634   1.560   5.188 -1.6457  4.1143  1.9380
  754MOL0     H 1742  11.465   1.764   5.057  0.5166  0.2463 -0.5998
  754MOL0     H 1743  11.542   1.800   5.215  0.4256 -0.1008  0.5986
  754MOL0     H 1744  11.484   1.988   5.135 -0.2070  1.1584 -1.2209
  754MOL0     H 1745  11.661   1.993   5.096  2.1805 -3.0463 -1.8494
  754MOL0     H 1746  11.430   1.943   4.897  0.7730 -0.3141 -1.3707
  754MOL0     H 1747  11.603   1.921   4.855  0.6411  0.7413 -1.6829
  754MOL0     H 1748  11.552   2.162   4.786 -2.1947  2.0852  1.2672
  754MOL0     H 1749  11.606   2.178   4.948  1.2352  3.1065 -2.0599
  754MOL0     H 1750  11.267   2.283   4.716  0.7113  3.2786 -1.6226
  754MOL0     H 1751  11.234   2.521   4.676  0.9249 -1.6253 -0.5758
  754MOL0     H 1752  11.523   2.862   4.564  1.0193  1.0815 -1.7585
  754MOL0     H 1753  11.542   3.107   4.530  0.0118 -2.2853 -1.2821
  754MOL0     H 1754  11.515   3.337   4.468  0.3552  0.4387  0.9575
  754MOL0     H 1755  11.364   3.293   4.372 -1.0913  2.1509 -0.2413
  754MOL0     H 1756  11.405   3.524   4.558  2.4410  1.5591 -0.8437
  754MOL0     H 1757  11.435   3.534   4.384  0.3519 -1.3619 -0.0421
  754MOL0     H 1758  11.226   3.623   4.425  2.2363 -0.4181 -1.4855
  754MOL0     H 1759  11.184   3.471   4.354  0.3406 -1.1595 -0.5920
  754MOL0     H 1760  11.170   3.538   4.642  0.7567 -0.3286 -1.1710
  754MOL0     H 1761  11.114   3.384   4.583 -0.6603 -0.0660 -1.3030
  754MOL0     H 1762  10.921   3.481   4.439 -1.6487  0.0903  1.4683
  754MOL0     H 1763  10.991   3.633   4.446 -0.6704  0.4888  0.7525
  754MOL0     H 1764  10.877   3.491   4.681  1.4696  0.4286  0.4868
  754MOL0     H 1765  10.902   3.660   4.686 -2.6637  0.0873  1.3205
  754MOL0     H 1766  10.677   3.573   4.663  1.6635  0.5075  0.7256
  754MOL0     H 1767  10.697   3.534   4.493 -0.3126 -1.6598  0.2937
  754MOL0     H 1768  10.695   3.801   4.620  1.0999 -0.9112  0.7675
  754MOL0     H 1769  10.767   3.773   4.460  2.3277 -3.4135 -0.5124
  754MOL0     H 1770  11.134   3.151   4.647  1.0143  1.4456 -1.4866
  754MOL0     H 1771  11.120   2.924   4.700  1.0515 -3.8907 -1.7044
  754MOL0     H 1772  11.521   2.610   4.991  1.0128 -2.4130  2.6773
  754MOL0     H 1773  11.531   2.365   5.038  2.1548 -2.2107 -2.0825
  754MOL0     H 1774  11.043   1.763   4.574  0.2650 -0.7714 -0.9688
  754MOL0     H 1775  11.013   1.995   4.487  0.0079  0.2789  0.4064
  754MOL0     H 1776  11.289   2.412   4.471 -0.7697 -1.6286  0.7688
  754MOL0     H 1777  11.309   2.644   4.365 -1.7573  0.4212  0.3013
  754MOL0     H 1778  11.310   2.854   4.259 -0.8375  2.7847  2.1491
  754MOL0     H 1779  11.149   2.808   4.327 -1.8000 -3.1021 -1.4636
  754MOL0     H 1780  11.052   2.955   4.138  0.4169  1.9313  0.8403
  754MOL0     H 1781  11.209   3.003   4.099 -1.3964 -2.0287 -2.4543
  754MOL0     H 1782  11.236   3.073   4.345  1.5561  2.2812 -1.4598
  754MOL0     H 1783  11.057   3.062   4.370  0.7301  0.3168 -0.1314
  754MOL0     H 1784  11.122   3.291   4.293 -1.1695 -0.1623  0.6111
  754MOL0     H 1785  11.179   3.215   4.142  0.0138 -0.5846 -1.4469
  754MOL0     H 1786  10.752   3.204   4.122  0.7162 -1.2163 -1.6918
  754MOL0     H 1787  11.164   2.524   4.007  1.1116  1.9952  1.0488
  754MOL0     H 1788  11.068   2.187   4.107 -0.9562 -1.9449 -1.5160
  754MOL0     H 1789  11.106   2.299   3.967  1.6963  3.3740  2.0986
  754MOL0     H 1790  11.228   2.200   4.030 -1.5812  0.2857 -1.5432
  755MOL0     O 1791  10.315   8.883   1.453  0.0684 -0.5248 -0.1793
  755MOL0     C 1792  10.299   8.796   1.541 -0.7332 -0.7233 -0.6403
  755MOL0     O 1793  10.220   8.807   1.652  0.1496 -0.4136  0.1660
  755MOL0     C 1794  10.139   8.917   1.656 -1.3030 -1.5745 -1.7407
  755MOL0     C 1795  10.194   9.040   1.661 -0.1337  0.1034  0.5838
  755MOL0     C 1796  10.115   9.144   1.682  0.2606  0.6862 -0.6622
  755MOL0     C 1797   9.974   9.138   1.711 -0.5878  0.2741  0.1056
  755MOL0     O 1798   9.910   9.253   1.751  0.0140  0.4044  0.1974
  755MOL0     C 1799   9.779   9.229   1.803 -0.2787 -0.2622 -0.4519
  755MOL0     C 1800   9.784   9.193   1.952  1.0805  0.4908 -0.5370
  755MOL0     C 1801   9.643   9.196   2.002 -0.1551 -0.3469 -0.2953
  755MOL0     C 1802   9.608   9.097   2.115  0.4986 -0.3477 -0.1869
  755MOL0     C 1803   9.455   9.089   2.122 -0.3584  0.1892  0.1237
  755MOL0     C 1804   9.386   9.018   2.238 -0.3875  1.0000 -0.6697
  755MOL0     C 1805   9.380   8.862   2.219  0.0973 -0.1301  0.0411
  755MOL0     C 1806   9.352   8.797   2.350  0.3213 -0.3987  0.6489
  755MOL0     N 1807   9.326   8.652   2.319  0.3466 -0.3239  0.5452
  755MOL0     C 1808   9.219   8.582   2.272 -0.2995  0.4899  0.1225
  755MOL0     C 1809   9.237   8.457   2.323 -0.8036  0.1390 -0.2461
  755MOL0     C 1810   9.165   8.334   2.302  0.7732  0.7440  0.5766
  755MOL0     C 1811   9.252   8.216   2.295 -0.2759 -0.7532 -0.2714
  755MOL0     C 1812   9.173   8.082   2.281 -0.4675  0.0939  0.2629
  755MOL0     C 1813   9.262   7.958   2.296 -0.9785 -0.8034 -0.0335
  755MOL0     O 1814   9.349   7.977   2.412 -0.2988 -0.0036 -0.4835
  755MOL0     C 1815   9.414   7.872   2.470  0.1363 -0.5935 -0.2532
  755MOL0     C 1816   9.401   7.850   2.608  0.3429 -0.0412 -0.1729
  755MOL0     C 1817   9.454   7.735   2.670  0.0378 -0.0500  0.4924
  755MOL0     C 1818   9.534   7.650   2.595 -0.9104  0.6571  0.2701
  755MOL0     C 1819   9.622   7.547   2.656  0.0018  0.0148  0.4635
  755MOL0     O 1820   9.695   7.468   2.563 -0.3933 -0.4235  0.0141
  755MOL0     C 1821   9.797   7.377   2.611  0.0319 -0.3951 -0.6311
  755MOL0     C 1822   9.924   7.437   2.639 -0.3155  0.3072  0.1137
  755MOL0     C 1823  10.018   7.360   2.693  0.0222  0.4767 -0.3445
  755MOL0     C 1824   9.993   7.223   2.737  0.7092 -0.0360  0.3795
  755MOL0     O 1825  10.087   7.130   2.782  1.0158  0.2462  0.1521
  755MOL0     C 1826  10.181   7.194   2.876  0.3484  1.6787  0.4035
  755MOL0     C 1827  10.213   7.083   2.971 -0.3815  1.5033 -0.1353
  755MOL0     C 1828  10.345   7.010   2.939 -0.0821 -0.0032  0.2476
  755MOL0     C 1829  10.321   6.869   3.015 -0.3528  1.1568 -0.6250
  755MOL0     C 1830  10.231   6.762   2.945 -0.1173 -0.7040 -0.8541
  755MOL0     C 1831  10.205   6.641   3.031  0.6111 -1.1451 -0.1963
  755MOL0     C 1832  10.097   6.675   3.143  0.6720  0.7838  0.9050
  755MOL0     C 1833  10.096   6.560   3.241  0.1864 -0.0844  0.0545
  755MOL0    Cl 1834  10.033   6.411   3.159  0.0682  0.1371  0.1803
  755MOL0     C 1835   9.859   7.172   2.721 -0.6968 -0.2527 -0.2626
  755MOL0     C 1836   9.762   7.253   2.663 -1.2328 -0.7800 -0.0870
  755MOL0     O 1837   9.618   7.546   2.778 -0.0330  0.9352 -0.4126
  755MOL0     C 1838   9.545   7.670   2.453 -0.0637 -1.1069 -0.3188
  755MOL0     C 1839   9.475   7.775   2.393 -0.1522 -0.4391  0.6343
  755MOL0     N 1840   9.368   8.462   2.382  0.3114 -0.4213  0.3422
  755MOL0     N 1841   9.420   8.573   2.380  0.2746  0.0224 -0.2242
  755MOL0     C 1842   9.919   9.005   1.690  0.0668 -0.8280 -0.0684
  755MOL0     C 1843  10.004   8.901   1.669  0.7654  0.2397  0.2390
  755MOL0     C 1844  10.376   8.669   1.521 -0.8394  0.4399 -1.0193
  755MOL0     C 1845  10.360   8.569   1.621 -0.0561  0.1591 -0.0127
  755MOL0     C 1846  10.431   8.449   1.611 -0.7841  0.1078 -0.5246
  755MOL0     C 1847  10.523   8.431   1.500 -0.0958 -0.0626  0.0704
  755MOL0     O 1848  10.601   8.309   1.481  0.9827  0.3944  1.4968
  755MOL0     C 1849  10.588   8.201   1.572 -0.5066 -0.6287 -0.9401
  755MOL0     C 1850  10.469   8.104   1.538  0.5145 -0.2454  0.4747
  755MOL0     C 1851  10.486   8.040   1.399 -0.3729 -0.1600  1.4052
  755MOL0     C 1852  10.407   7.914   1.375  0.3958 -0.4637  0.0480
  755MOL0     C 1853  10.269   7.929   1.333 -0.6183 -0.4428  0.3705
  755MOL0     C 1854  10.155   7.926   1.289  0.0469  0.3748  0.0428
  755MOL0     C 1855  10.529   8.524   1.395 -0.1409 -0.3884 -0.5036
  755MOL0     C 1856  10.455   8.640   1.398 -0.2396  0.1327 -0.9203
  755MOL0     C 1857  10.458   8.714   1.266  0.9668  0.2191  0.1924
  755MOL0     H 1858  10.302   9.052   1.665 -0.2848  1.8828  0.3013
  755MOL0     H 1859  10.168   9.238   1.691  1.2406  0.0496  0.4311
  755MOL0     H 1860   9.726   9.325   1.802  1.9390  1.1063 -3.1495
  755MOL0     H 1861   9.727   9.158   1.737  0.3827 -3.3182  2.0599
  755MOL0     H 1862   9.844   9.258   2.016  2.5869 -1.5212  0.2298
  755MOL0     H 1863   9.817   9.091   1.975 -1.3629  0.1490  1.8686
  755MOL0     H 1864   9.573   9.192   1.918 -2.5533  1.9893  1.4332
  755MOL0     H 1865   9.629   9.294   2.048 -0.8324 -0.0155 -1.1718
  755MOL0     H 1866   9.646   8.998   2.089 -0.1045 -0.4069 -0.8446
  755MOL0     H 1867   9.648   9.128   2.213 -0.1518  2.9045 -0.8259
  755MOL0     H 1868   9.423   9.193   2.122  0.3820  0.4253  1.0566
  755MOL0     H 1869   9.414   9.044   2.030  2.3423  1.8925 -2.0548
  755MOL0     H 1870   9.429   9.042   2.335 -0.7214  1.4153 -0.6202
  755MOL0     H 1871   9.281   9.049   2.239 -1.0261 -1.0088 -0.2879
  755MOL0     H 1872   9.477   8.816   2.200 -0.1775 -1.0955  0.8199
  755MOL0     H 1873   9.318   8.824   2.137  1.1914  0.5878 -1.1550
  755MOL0     H 1874   9.440   8.812   2.413  1.0700  0.0102 -0.4479
  755MOL0     H 1875   9.265   8.831   2.406  0.7520  0.4784  0.7977
  755MOL0     H 1876   9.147   8.599   2.192  0.7520  0.1522 -0.9152
  755MOL0     H 1877   9.102   8.322   2.391  1.1502 -0.7445  0.6665
  755MOL0     H 1878   9.099   8.336   2.215  3.4838 -1.3305 -1.7022
  755MOL0     H 1879   9.311   8.232   2.204 -1.7733 -0.8933 -1.3035
  755MOL0     H 1880   9.325   8.218   2.377 -1.2334 -1.3153  0.6106
  755MOL0     H 1881   9.126   8.074   2.182 -1.2734 -2.2912  0.7733
  755MOL0     H 1882   9.084   8.082   2.345 -1.0399  0.1965 -0.5213
  755MOL0     H 1883   9.325   7.966   2.207 -1.8748 -0.6874 -0.6655
  755MOL0     H 1884   9.206   7.864   2.300 -2.4069  0.0684  1.3162
  755MOL0     H 1885   9.348   7.921   2.671 -0.8126 -3.4736  3.0290
  755MOL0     H 1886   9.441   7.706   2.774 -0.1704 -1.1282  0.1821
  755MOL0     H 1887   9.955   7.532   2.598  0.8862 -1.7604 -4.4476
  755MOL0     H 1888  10.119   7.397   2.705  0.3089  0.4313 -2.3534
  755MOL0     H 1889  10.267   7.236   2.824  1.1579 -1.7640 -1.3010
  755MOL0     H 1890  10.126   7.263   2.942 -2.3783  0.4531 -0.4326
  755MOL0     H 1891  10.218   7.127   3.071  0.2614  2.5900 -0.6287
  755MOL0     H 1892  10.128   7.016   2.956  0.2525  1.0394 -1.9557
  755MOL0     H 1893  10.337   6.973   2.836 -1.9097 -4.2692  1.6633
  755MOL0     H 1894  10.431   7.072   2.965  2.7810 -2.5941 -2.1849
  755MOL0     H 1895  10.280   6.889   3.114  3.2197 -5.0266  2.7005
  755MOL0     H 1896  10.419   6.825   3.034 -1.1516  0.1262  1.4004
  755MOL0     H 1897  10.265   6.723   2.848 -2.0997 -0.8604 -1.5323
  755MOL0     H 1898  10.129   6.792   2.920 -0.0707 -0.0154 -0.2515
  755MOL0     H 1899  10.197   6.550   2.973  0.4484 -1.6710  0.6317
  755MOL0     H 1900  10.295   6.625   3.091  0.5868  0.3479  0.3030
  755MOL0     H 1901  10.000   6.673   3.093  1.0421 -4.2802 -0.1928
  755MOL0     H 1902  10.107   6.772   3.192 -4.2659  1.4510  1.1066
  755MOL0     H 1903  10.189   6.550   3.296  0.4919 -0.5861 -0.5358
  755MOL0     H 1904  10.032   6.601   3.320 -0.8296 -2.9766  0.8636
  755MOL0     H 1905   9.843   7.072   2.760 -0.0281  1.0125  3.7139
  755MOL0     H 1906   9.661   7.214   2.651 -1.5376  0.1799 -0.7724
  755MOL0     H 1907   9.605   7.604   2.391  1.7584 -0.1713  0.3482
  755MOL0     H 1908   9.485   7.791   2.286 -1.8009  0.2821  0.5627
  755MOL0     H 1909   9.816   8.968   1.690  0.3911 -1.8911 -1.9230
  755MOL0     H 1910   9.963   8.802   1.658 -1.6631  1.1242  0.6920
  755MOL0     H 1911  10.316   8.566   1.720  1.8056  0.1623  0.8520
  755MOL0     H 1912  10.422   8.365   1.679  1.9645  0.3718  0.2583
  755MOL0     H 1913  10.581   8.241   1.673 -0.8510 -0.3168 -1.0841
  755MOL0     H 1914  10.679   8.142   1.560  0.4350  0.3552  0.9559
  755MOL0     H 1915  10.373   8.155   1.545 -0.4538 -1.9611  0.3138
  755MOL0     H 1916  10.475   8.022   1.610  0.9467 -0.1596  0.5391
  755MOL0     H 1917  10.591   8.023   1.374 -0.4943  2.3438 -1.4929
  755MOL0     H 1918  10.455   8.106   1.317  2.9134 -1.5871 -1.2336
  755MOL0     H 1919  10.452   7.851   1.298 -0.8150  0.0386 -1.0956
  755MOL0     H 1920  10.413   7.851   1.464 -2.8619  0.7870  1.2878
  755MOL0     H 1921  10.050   7.928   1.270 -0.0967  1.0986  0.8466
  755MOL0     H 1922  10.594   8.484   1.317 -0.4460 -0.2172 -0.8466
  755MOL0     H 1923  10.376   8.694   1.197  2.8191 -3.6581 -1.2173
  755MOL0     H 1924  10.466   8.821   1.286 -1.2853  0.4732  0.0019
  755MOL0     H 1925  10.545   8.687   1.205 -0.8086  0.4856 -2.6492
  756MOL0     O 1926   3.088  11.125   5.003  0.0909 -0.4161 -0.5696
  756MOL0     C 1927   3.015  11.024   5.000  0.2514  0.8001 -0.2578
  756MOL0     O 1928   3.063  10.895   5.030  0.5267  0.3174  0.1733
  756MOL0     C 1929   3.194  10.865   5.056 -0.0763 -0.0470 -0.9069
  756MOL0     C 1930   3.226  10.730   5.040  0.3471 -0.6395  0.1396
  756MOL0     C 1931   3.358  10.693   5.059 -0.7831 -0.0907  0.7213
  756MOL0     C 1932   3.463  10.774   5.105  0.0304  0.6058 -0.4139
  756MOL0     O 1933   3.584  10.717   5.133 -0.0118 -0.7818 -0.5355
  756MOL0     C 1934   3.702  10.788   5.187 -0.3097 -0.2357  0.6636
  756MOL0     C 1935   3.674  10.788   5.338 -1.0589  0.4257 -0.4812
  756MOL0     C 1936   3.788  10.835   5.440 -0.0841 -0.4410 -0.5257
  756MOL0     C 1937   3.780  10.761   5.574 -0.2196  1.0193 -0.1076
  756MOL0     C 1938   3.888  10.835   5.663 -0.1504  0.1566  0.0325
  756MOL0     C 1939   3.889  10.783   5.805 -0.8404 -0.2175 -1.4397
  756MOL0     C 1940   3.992  10.830   5.914 -0.0951  0.0769  1.0211
  756MOL0     C 1941   4.011  10.979   5.938 -0.4994  0.4408  1.2356
  756MOL0     N 1942   3.883  11.057   5.928 -1.0523  0.2071  0.6093
  756MOL0     C 1943   3.850  11.154   5.841  0.5087  0.6617  0.7045
  756MOL0     C 1944   3.730  11.202   5.876 -0.8182 -0.3166  0.9947
  756MOL0     C 1945   3.675  11.315   5.808  0.0060  0.1122 -0.4055
  756MOL0     C 1946   3.569  11.265   5.710  0.8305  0.5464  0.7451
  756MOL0     C 1947   3.491  11.389   5.653  0.1838  0.2680  0.7108
  756MOL0     C 1948   3.551  11.453   5.525  0.2889  0.3657 -0.0143
  756MOL0     O 1949   3.655  11.545   5.553 -0.0696 -0.3852 -0.0177
  756MOL0     C 1950   3.617  11.672   5.597  0.5132  0.4299 -1.3288
  756MOL0     C 1951   3.692  11.716   5.707 -0.0103 -0.1203 -0.2334
  756MOL0     C 1952   3.658  11.835   5.774  1.1878  0.0988  0.4586
  756MOL0     C 1953   3.546  11.910   5.733  0.2598 -0.2992  0.5425
  756MOL0     C 1954   3.508  12.031   5.814 -0.7058  0.6041  0.3059
  756MOL0     O 1955   3.551  12.045   5.946  0.3085 -0.5648 -0.2628
  756MOL0     C 1956   3.479  12.118   6.031 -0.2764  0.5462 -0.1537
  756MOL0     C 1957   3.343  12.101   6.055  0.8505 -0.0850  0.6389
  756MOL0     C 1958   3.267  12.187   6.144  0.0891 -0.6040  0.7501
  756MOL0     C 1959   3.327  12.298   6.196 -0.4949 -0.7022  0.2429
  756MOL0     O 1960   3.245  12.382   6.265 -0.1675 -0.3332 -0.1006
  756MOL0     C 1961   3.305  12.466   6.369  0.3373  0.8704 -0.2138
  756MOL0     C 1962   3.255  12.612   6.355  0.3289 -0.0666 -0.4245
  756MOL0     C 1963   3.100  12.608   6.346 -0.2452 -0.3490  0.0718
  756MOL0     C 1964   3.033  12.744   6.327 -0.7141 -0.4101  0.2668
  756MOL0     C 1965   2.893  12.733   6.381 -0.6518  0.1591 -0.6931
  756MOL0     C 1966   2.805  12.860   6.364  0.7252 -0.6514 -0.8369
  756MOL0     C 1967   2.659  12.830   6.420  0.3720  0.1914 -0.4744
  756MOL0     C 1968   2.562  12.947   6.396  0.8635 -0.4759  0.0255
  756MOL0    Cl 1969   2.653  13.105   6.384  0.4503 -0.1492 -0.4388
  756MOL0     C 1970   3.468  12.314   6.173  0.1385 -0.1938  0.2346
  756MOL0     C 1971   3.545  12.221   6.100 -0.1146 -0.9014 -0.1748
  756MOL0     O 1972   3.430  12.104   5.759 -0.3435 -0.3823  0.4204
  756MOL0     C 1973   3.473  11.864   5.619 -1.4376 -0.1818 -0.0379
  756MOL0     C 1974   3.507  11.743   5.546 -0.9393 -0.6728 -0.5980
  756MOL0     N 1975   3.692  11.137   5.995 -0.3921  0.7916  0.6331
  756MOL0     N 1976   3.781  11.040   6.013  0.5384  0.2681 -0.2181
  756MOL0     C 1977   3.427  10.907   5.128 -0.8319  0.3541  0.2189
  756MOL0     C 1978   3.300  10.954   5.091 -1.2584  0.8543 -0.0405
  756MOL0     C 1979   2.880  11.038   4.954 -0.1328  0.7887 -0.4576
  756MOL0     C 1980   2.809  10.922   4.932 -0.7572 -0.8153  0.5101
  756MOL0     C 1981   2.680  10.922   4.886 -0.5298 -0.1671 -0.0823
  756MOL0     C 1982   2.611  11.040   4.867  0.7636  0.1944 -0.2442
  756MOL0     O 1983   2.483  11.035   4.820 -1.1824 -0.8693  0.2030
  756MOL0     C 1984   2.388  10.939   4.879 -1.1308 -0.6244  1.1050
  756MOL0     C 1985   2.380  10.944   5.028 -0.6673 -0.0602 -0.2105
  756MOL0     C 1986   2.273  10.824   5.072 -0.3374  0.3479 -0.3626
  756MOL0     C 1987   2.132  10.844   5.006  0.1335 -0.0979 -0.1284
  756MOL0     C 1988   2.081  10.989   5.004  1.2356 -0.1099 -0.1374
  756MOL0     C 1989   2.046  11.101   4.993 -0.3017 -1.0351 -0.3013
  756MOL0     C 1990   2.686  11.158   4.877  0.1539  0.2278  0.1210
  756MOL0     C 1991   2.810  11.158   4.926  0.5675 -1.4463 -0.3504
  756MOL0     C 1992   2.877  11.291   4.933  0.3057 -0.0173  0.0400
  756MOL0     H 1993   3.162  10.651   5.002  0.7103 -0.1027 -1.6885
  756MOL0     H 1994   3.369  10.593   5.019 -1.3555  0.9634 -2.4310
  756MOL0     H 1995   3.800  10.749   5.157  0.5926 -1.1938  4.3406
  756MOL0     H 1996   3.695  10.890   5.146 -2.0887  0.1659  1.8578
  756MOL0     H 1997   3.656  10.687   5.375 -0.6675  0.9627  1.2747
  756MOL0     H 1998   3.581  10.845   5.341 -0.2466  1.8065 -0.4946
  756MOL0     H 1999   3.786  10.943   5.461 -1.7197 -0.7854  1.4409
  756MOL0     H 2000   3.884  10.803   5.400  0.8514 -4.5914  4.0405
  756MOL0     H 2001   3.681  10.769   5.618 -0.5699 -1.1105 -0.4009
  756MOL0     H 2002   3.810  10.655   5.573 -2.3398  0.3206  1.8318
  756MOL0     H 2003   3.992  10.819   5.633  1.5610 -0.8713  5.4623
  756MOL0     H 2004   3.869  10.942   5.657 -2.0277 -0.0774  1.1599
  756MOL0     H 2005   3.794  10.814   5.851  0.1695  1.5354 -0.4377
  756MOL0     H 2006   3.901  10.675   5.797 -3.4550 -0.8910  1.6748
  756MOL0     H 2007   4.092  10.793   5.892  0.4849  0.8336  2.2112
  756MOL0     H 2008   3.955  10.776   6.002  0.4484 -3.0180 -0.5185
  756MOL0     H 2009   4.062  10.992   6.034  2.5387  0.1856 -0.2359
  756MOL0     H 2010   4.085  11.011   5.865 -1.6547  2.7044  0.9692
  756MOL0     H 2011   3.921  11.191   5.768  1.7035  1.7009  2.3259
  756MOL0     H 2012   3.623  11.380   5.878  1.2102  2.4104 -1.5447
  756MOL0     H 2013   3.756  11.360   5.750  0.1533  1.0042  0.4846
  756MOL0     H 2014   3.609  11.215   5.621 -1.4323 -3.0294  1.5228
  756MOL0     H 2015   3.508  11.191   5.762 -0.4318  0.6679 -0.4986
  756MOL0     H 2016   3.476  11.458   5.736 -0.9231 -1.2493  1.8133
  756MOL0     H 2017   3.397  11.349   5.616  2.4775 -1.0531 -4.7629
  756MOL0     H 2018   3.468  11.509   5.480 -1.1127 -2.4049 -1.1557
  756MOL0     H 2019   3.588  11.378   5.455 -1.4558 -0.7616  0.2044
  756MOL0     H 2020   3.771  11.656   5.752  0.8042 -0.8654 -2.5137
  756MOL0     H 2021   3.712  11.861   5.864  1.7412  0.3769  0.0532
  756MOL0     H 2022   3.274  12.035   6.004  1.4315  0.6143 -1.1114
  756MOL0     H 2023   3.161  12.178   6.165 -0.5970  3.7757  0.1464
  756MOL0     H 2024   3.276  12.418   6.462 -1.1850  2.5506  0.2537
  756MOL0     H 2025   3.414  12.465   6.370  0.3290  0.5430  0.1594
  756MOL0     H 2026   3.282  12.675   6.440 -0.9928  0.8782 -0.6787
  756MOL0     H 2027   3.288  12.656   6.261  1.4429 -4.8036 -2.5560
  756MOL0     H 2028   3.072  12.537   6.267  1.3263 -0.2428 -0.6385
  756MOL0     H 2029   3.066  12.563   6.440  2.8239 -1.0289  0.9991
  756MOL0     H 2030   3.017  12.769   6.222 -0.1407  0.4277  0.3701
  756MOL0     H 2031   3.093  12.822   6.373  0.1010 -2.1539  2.3511
  756MOL0     H 2032   2.901  12.710   6.488  0.0301  2.2009 -0.2604
  756MOL0     H 2033   2.834  12.651   6.339  1.7425 -1.1086 -1.7507
  756MOL0     H 2034   2.854  12.945   6.414  1.8935 -3.9060  4.3816
  756MOL0     H 2035   2.805  12.879   6.256 -0.6477 -2.2807 -1.1629
  756MOL0     H 2036   2.670  12.834   6.529  0.3880 -0.5378 -0.4415
  756MOL0     H 2037   2.619  12.732   6.392  2.1600 -0.6095 -0.3230
  756MOL0     H 2038   2.507  12.929   6.303  1.1695 -1.8009  0.0732
  756MOL0     H 2039   2.485  12.952   6.473  1.6004 -1.3049  0.8616
  756MOL0     H 2040   3.528  12.397   6.210 -4.3891  2.0677  3.5557
  756MOL0     H 2041   3.653  12.210   6.088 -0.3888 -2.4224 -1.7885
  756MOL0     H 2042   3.396  11.932   5.585 -0.0252  0.2286 -2.6873
  756MOL0     H 2043   3.436  11.724   5.467 -2.5942  1.0235  0.3776
  756MOL0     H 2044   3.506  10.974   5.158  0.4799 -1.2409  0.5001
  756MOL0     H 2045   3.290  11.062   5.097  1.4448  1.2823 -1.5433
  756MOL0     H 2046   2.858  10.828   4.955  0.6188 -0.8371 -2.1478
  756MOL0     H 2047   2.640  10.829   4.848 -1.1902  1.0163 -2.4674
  756MOL0     H 2048   2.420  10.840   4.847  1.8404 -0.0860  2.0832
  756MOL0     H 2049   2.294  10.950   4.824 -0.3095  1.3175 -0.0225
  756MOL0     H 2050   2.335  11.042   5.051 -0.0080  0.4055 -0.8532
  756MOL0     H 2051   2.473  10.928   5.083 -0.9571  0.4991  0.4548
  756MOL0     H 2052   2.270  10.841   5.180  0.1565 -1.1802 -0.0829
  756MOL0     H 2053   2.314  10.727   5.040  1.9420  0.7780  0.9957
  756MOL0     H 2054   2.134  10.793   4.910 -0.7361 -1.9511  0.8000
  756MOL0     H 2055   2.052  10.800   5.065  1.1576 -1.5820  0.2205
  756MOL0     H 2056   2.010  11.202   4.987  2.0349 -0.0753  0.5520
  756MOL0     H 2057   2.632  11.247   4.847 -0.5012 -0.0382  0.4903
  756MOL0     H 2058   2.964  11.301   4.868  0.0965  1.8301 -0.0180
  756MOL0     H 2059   2.809  11.373   4.907  1.1635  1.5669  2.4079
  756MOL0     H 2060   2.904  11.303   5.038  1.1922  0.4157 -0.2266
  757MOL0     O 2061   8.918   7.768   9.583  0.4205  0.4978  0.0145
  757MOL0     C 2062   8.803   7.800   9.622  0.4357 -0.0398  0.2373
  757MOL0     O 2063   8.716   7.903   9.564  0.0968 -0.4670  0.5142
  757MOL0     C 2064   8.725   7.930   9.432 -0.5984  0.2021 -0.2005
  757MOL0     C 2065   8.835   7.995   9.372 -0.3857  0.5900  0.3943
  757MOL0     C 2066   8.827   8.014   9.230 -0.5521  0.5025  0.5468
  757MOL0     C 2067   8.728   7.978   9.153 -0.8803  0.5315 -0.2827
  757MOL0     O 2068   8.760   7.995   9.018  0.1305 -0.2089 -0.5647
  757MOL0     C 2069   8.675   7.926   8.933  0.0994 -0.4872  1.0268
  757MOL0     C 2070   8.705   7.959   8.797  0.3399 -0.1678  0.4622
  757MOL0     C 2071   8.686   8.115   8.769  0.6637  0.5731 -0.4773
  757MOL0     C 2072   8.814   8.170   8.715  0.0619 -0.4180 -0.4054
  757MOL0     C 2073   8.829   8.326   8.723 -0.6473  0.0256 -0.2825
  757MOL0     C 2074   8.936   8.361   8.619 -0.3702 -0.4333  0.0632
  757MOL0     C 2075   9.002   8.489   8.663 -0.4121 -0.5151 -0.9334
  757MOL0     C 2076   8.930   8.622   8.616  0.2608  0.2014 -0.5675
  757MOL0     N 2077   8.817   8.663   8.705 -0.9725 -0.5436  0.7693
  757MOL0     C 2078   8.686   8.635   8.677 -0.2140  0.0640  0.8698
  757MOL0     C 2079   8.620   8.677   8.782 -0.8028  0.9164 -0.3766
  757MOL0     C 2080   8.474   8.666   8.797 -0.6633  0.2377  0.1005
  757MOL0     C 2081   8.400   8.795   8.821 -0.1215  1.0870  0.0590
  757MOL0     C 2082   8.255   8.778   8.851  0.4995  0.4380 -0.0610
  757MOL0     C 2083   8.168   8.911   8.825  0.2549  0.3597 -0.2588
  757MOL0     O 2084   8.194   9.009   8.925 -0.1009 -0.3273 -0.4638
  757MOL0     C 2085   8.227   9.137   8.897  0.7574 -0.7900 -0.1732
  757MOL0     C 2086   8.269   9.185   8.767  0.0275 -0.2711 -0.2007
  757MOL0     C 2087   8.302   9.320   8.754 -0.2387 -0.3390 -0.5108
  757MOL0     C 2088   8.288   9.408   8.863 -0.0728 -0.6306  0.3221
  757MOL0     C 2089   8.318   9.558   8.851  0.9248 -0.0167 -0.3048
  757MOL0     O 2090   8.316   9.637   8.968 -0.4822  0.5886  0.6254
  757MOL0     C 2091   8.325   9.775   8.966  0.7335  0.4858 -1.0017
  757MOL0     C 2092   8.319   9.871   8.861  1.0879 -0.5689  0.0753
  757MOL0     C 2093   8.334  10.009   8.885 -0.6304 -0.1610 -0.0166
  757MOL0     C 2094   8.364  10.055   9.015  0.5734 -0.0094  0.5515
  757MOL0     O 2095   8.380  10.189   9.022  0.2627 -0.4012 -0.5808
  757MOL0     C 2096   8.492  10.224   9.107 -0.0730 -1.2289  0.9642
  757MOL0     C 2097   8.504  10.376   9.089  0.0063 -1.1754 -0.3151
  757MOL0     C 2098   8.393  10.466   9.149 -0.6556  0.7956 -0.5670
  757MOL0     C 2099   8.412  10.618   9.126 -0.2935 -0.0891 -0.4362
  757MOL0     C 2100   8.289  10.715   9.166 -0.1749  1.1270  0.3329
  757MOL0     C 2101   8.314  10.870   9.133  0.3564 -0.3220  0.3152
  757MOL0     C 2102   8.315  10.910   8.988  0.4118 -0.0034 -1.0695
  757MOL0     C 2103   8.350  11.062   8.974  0.1648 -0.1163  0.6003
  757MOL0    Cl 2104   8.353  11.094   8.793  0.1695 -0.0301  0.4347
  757MOL0     C 2105   8.364   9.965   9.119 -1.3266  0.5420  1.2485
  757MOL0     C 2106   8.346   9.829   9.094 -0.3929  0.3165  0.3613
  757MOL0     O 2107   8.361   9.596   8.743  0.1368  0.4621  0.2397
  757MOL0     C 2108   8.241   9.357   8.979  1.2430 -0.0367  0.0433
  757MOL0     C 2109   8.211   9.229   9.003 -0.0947 -0.0950  1.3256
  757MOL0     N 2110   8.714   8.722   8.876 -0.2685  0.3966 -0.3567
  757MOL0     N 2111   8.833   8.719   8.824  0.2222  0.6026  0.7969
  757MOL0     C 2112   8.612   7.908   9.209 -0.5951  0.3206 -0.5397
  757MOL0     C 2113   8.615   7.889   9.349 -0.2795 -0.6870 -0.0423
  757MOL0     C 2114   8.755   7.727   9.738 -0.8561  0.1357  0.8352
  757MOL0     C 2115   8.840   7.624   9.795  0.0355  0.4337 -0.3869
  757MOL0     C 2116   8.796   7.554   9.916 -0.5362 -0.0250  1.0485
  757MOL0     C 2117   8.678   7.566   9.978 -0.6753 -0.1302  0.2598
  757MOL0     O 2118   8.648   7.478  10.073 -0.1370  0.5145  0.5259
  757MOL0     C 2119   8.505   7.438  10.081 -0.2062  0.1205  0.1330
  757MOL0     C 2120   8.509   7.320  10.178 -0.5109  0.5621 -0.3647
  757MOL0     C 2121   8.369   7.252  10.212  0.0540 -0.8714  0.8488
  757MOL0     C 2122   8.386   7.121  10.293  0.2122 -0.4983  0.7002
  757MOL0     C 2123   8.445   7.022  10.207 -0.7055  1.0321  0.3805
  757MOL0     C 2124   8.499   6.923  10.159 -0.3377 -0.7219  0.9251
  757MOL0     C 2125   8.595   7.665   9.922  0.2396  1.3173  0.0202
  757MOL0     C 2126   8.622   7.745   9.804 -0.2937 -0.1846 -0.1584
  757MOL0     C 2127   8.514   7.847   9.753  0.3918  0.2859 -0.2115
  757MOL0     H 2128   8.920   8.031   9.429 -1.1766 -0.3093  2.2212
  757MOL0     H 2129   8.906   8.080   9.195 -0.0087 -0.5477 -0.2641
  757MOL0     H 2130   8.706   7.822   8.947  0.8868 -0.3444  0.4804
  757MOL0     H 2131   8.567   7.934   8.947 -0.3939 -3.8892  0.0529
  757MOL0     H 2132   8.647   7.889   8.737  1.6001 -1.8994  1.1613
  757MOL0     H 2133   8.807   7.937   8.762 -1.4882  0.4408 -6.8378
  757MOL0     H 2134   8.652   8.165   8.860  1.3658 -1.9048  1.2636
  757MOL0     H 2135   8.606   8.137   8.699  1.0470  2.3071 -0.4165
  757MOL0     H 2136   8.903   8.123   8.758  0.3661  2.6112  2.7437
  757MOL0     H 2137   8.818   8.133   8.612  1.4419 -1.0616 -0.1474
  757MOL0     H 2138   8.733   8.374   8.702 -0.4561  1.9928  2.7042
  757MOL0     H 2139   8.859   8.352   8.825 -2.0205 -0.2247  0.2047
  757MOL0     H 2140   9.012   8.283   8.615  1.3569  1.1532  0.7772
  757MOL0     H 2141   8.887   8.364   8.521 -2.3396 -1.8450  0.9370
  757MOL0     H 2142   9.098   8.486   8.611  0.3309 -1.5244  0.4325
  757MOL0     H 2143   9.011   8.494   8.772  0.6271  2.5777 -1.0690
  757MOL0     H 2144   9.015   8.689   8.630  0.3143  0.0103  0.0382
  757MOL0     H 2145   8.905   8.630   8.510  6.2782  1.4865 -2.2694
  757MOL0     H 2146   8.652   8.591   8.584  2.3745  1.5355 -0.8688
  757MOL0     H 2147   8.425   8.611   8.716 -4.0142  0.6164  1.7165
  757MOL0     H 2148   8.459   8.601   8.883 -2.6827 -0.0741 -0.4395
  757MOL0     H 2149   8.458   8.846   8.899  1.3256 -4.1929  2.9229
  757MOL0     H 2150   8.417   8.861   8.735 -2.7991  3.4800  1.1640
  757MOL0     H 2151   8.235   8.755   8.956 -0.9242  1.2420 -0.1195
  757MOL0     H 2152   8.224   8.699   8.783  1.2764 -0.5126  0.6638
  757MOL0     H 2153   8.064   8.876   8.830 -0.4260  2.2599 -0.2090
  757MOL0     H 2154   8.174   8.942   8.720  2.1551  1.6724  0.2010
  757MOL0     H 2155   8.267   9.118   8.682  1.6581 -0.3174 -0.2281
  757MOL0     H 2156   8.350   9.345   8.660  0.2983 -0.4101 -0.2592
  757MOL0     H 2157   8.286   9.843   8.761  3.2413  2.2850 -1.5748
  757MOL0     H 2158   8.322  10.083   8.806  0.5056 -0.8696 -0.8740
  757MOL0     H 2159   8.470  10.211   9.214 -0.5985  2.1785  1.4028
  757MOL0     H 2160   8.583  10.172   9.077 -1.7220 -3.8645  0.2589
  757MOL0     H 2161   8.606  10.398   9.123  0.1947  0.9845 -2.0289
  757MOL0     H 2162   8.517  10.386   8.981  0.5553  2.5698 -0.0357
  757MOL0     H 2163   8.305  10.431   9.095 -0.4942 -0.3938 -0.0938
  757MOL0     H 2164   8.381  10.438   9.255  1.2834  1.9360  0.0082
  757MOL0     H 2165   8.434  10.621   9.019  2.1490 -2.1153 -0.0800
  757MOL0     H 2166   8.506  10.659   9.162  0.7996 -0.6192 -2.5000
  757MOL0     H 2167   8.269  10.689   9.271  1.3427 -1.2691  0.0835
  757MOL0     H 2168   8.207  10.669   9.109 -1.0217 -1.0796  3.1035
  757MOL0     H 2169   8.247  10.933   9.191 -0.5824 -1.2421  0.2531
  757MOL0     H 2170   8.415  10.898   9.165  0.8683 -1.5139 -0.1771
  757MOL0     H 2171   8.220  10.890   8.936 -0.9979  4.1318 -0.5144
  757MOL0     H 2172   8.391  10.848   8.940 -0.7548 -2.5817  0.2177
  757MOL0     H 2173   8.272  11.125   9.019 -2.2487  0.4963 -3.8013
  757MOL0     H 2174   8.450  11.084   9.013  1.8284  1.9052 -4.0185
  757MOL0     H 2175   8.386   9.998   9.220 -0.6150 -0.5762  1.4721
  757MOL0     H 2176   8.358   9.761   9.177  2.9260 -1.8454 -1.6701
  757MOL0     H 2177   8.219   9.435   9.051 -0.5728  4.0447 -4.4147
  757MOL0     H 2178   8.174   9.190   9.097  1.8703 -1.6929  1.4930
  757MOL0     H 2179   8.545   7.856   9.142  0.3683 -0.3314 -1.0106
  757MOL0     H 2180   8.544   7.824   9.398  0.9147 -2.4781 -0.5444
  757MOL0     H 2181   8.944   7.604   9.771  0.0909  0.0358  0.1713
  757MOL0     H 2182   8.866   7.486   9.964  1.8467  1.4534 -0.0869
  757MOL0     H 2183   8.474   7.408   9.981  2.8408  1.9416 -1.5079
  757MOL0     H 2184   8.447   7.518  10.129 -1.8598 -0.6691 -0.4719
  757MOL0     H 2185   8.563   7.350  10.268 -0.1418  0.4699 -0.5528
  757MOL0     H 2186   8.568   7.239  10.135  0.6044  0.8726  0.5126
  757MOL0     H 2187   8.314   7.251  10.117 -1.6589  2.3927  1.6822
  757MOL0     H 2188   8.321   7.329  10.273  1.1453 -1.4679  2.5224
  757MOL0     H 2189   8.447   7.143  10.381 -0.7759  1.5757  0.9142
  757MOL0     H 2190   8.289   7.086  10.327  0.2845 -0.9971  0.3999
  757MOL0     H 2191   8.541   6.833  10.120 -2.3324 -1.2694 -0.1104
  757MOL0     H 2192   8.495   7.674   9.963 -0.2509 -1.4117 -0.4276
  757MOL0     H 2193   8.477   7.809   9.657 -0.9126 -0.0572  0.4017
  757MOL0     H 2194   8.438   7.852   9.831 -0.7961 -0.3363 -1.2943
  757MOL0     H 2195   8.556   7.948   9.749 -0.4265  0.7361  1.5924
  758MOL0     O 2196   9.867   9.610   6.037 -0.3735  0.1455 -0.2466
  758MOL0     C 2197   9.901   9.724   6.058  0.4876  0.2255  0.0919
  758MOL0     O 2198   9.810   9.822   6.090  0.4381  0.0278 -0.5084
  758MOL0     C 2199   9.674   9.795   6.066  0.5601  1.0751 -0.7342
  758MOL0     C 2200   9.612   9.868   5.971  0.5028 -1.1484  0.6106
  758MOL0     C 2201   9.472   9.846   5.936  0.0407  0.4519  0.4515
  758MOL0     C 2202   9.393   9.769   6.022  0.2819  0.1328  1.1653
  758MOL0     O 2203   9.253   9.758   6.026  0.0100  0.3617 -0.7916
  758MOL0     C 2204   9.176   9.805   5.913 -0.1874  0.5511 -0.7655
  758MOL0     C 2205   9.027   9.777   5.921  0.1009  0.2534 -0.2156
  758MOL0     C 2206   8.928   9.878   5.977  0.3642  0.2658 -0.5759
  758MOL0     C 2207   8.907  10.007   5.895 -0.1786 -0.4052  0.0345
  758MOL0     C 2208   8.800  10.104   5.965  1.0521  0.4104  0.2910
  758MOL0     C 2209   8.844  10.160   6.105  0.1188 -0.4768 -0.1012
  758MOL0     C 2210   8.977  10.237   6.102  0.4504  0.2001  0.3661
  758MOL0     C 2211   9.080  10.166   6.185 -0.0444 -0.2101  0.2533
  758MOL0     N 2212   9.209  10.230   6.171 -0.5263 -0.1736 -0.1663
  758MOL0     C 2213   9.315  10.167   6.129 -0.6486 -1.0364  1.1837
  758MOL0     C 2214   9.413  10.265   6.106  0.6715  0.4363  0.1911
  758MOL0     C 2215   9.559  10.241   6.080  1.6058  0.0576 -0.0378
  758MOL0     C 2216   9.581  10.234   5.929 -0.3319 -0.5021  0.9157
  758MOL0     C 2217   9.535  10.363   5.854 -0.7196  0.6642  1.0860
  758MOL0     C 2218   9.637  10.481   5.878 -0.6185  0.0613  0.1034
  758MOL0     O 2219   9.594  10.609   5.812 -0.8169 -0.2531  0.7102
  758MOL0     C 2220   9.662  10.714   5.866 -1.2616 -0.7567  0.0314
  758MOL0     C 2221   9.582  10.831   5.861  0.2601  0.8256  0.1250
  758MOL0     C 2222   9.629  10.945   5.927 -0.0374  0.3387  1.0656
  758MOL0     C 2223   9.756  10.952   6.001  0.7378 -0.3418 -0.8025
  758MOL0     C 2224   9.810  11.071   6.054 -0.6346  0.2699  0.0104
  758MOL0     O 2225   9.897  11.045   6.159 -0.2768  0.5100 -0.2831
  758MOL0     C 2226   9.998  11.134   6.203  0.4969  0.8076  0.0357
  758MOL0     C 2227  10.086  11.076   6.293 -0.3524 -0.6281 -0.1751
  758MOL0     C 2228  10.196  11.154   6.361  0.5498  1.1139  0.4683
  758MOL0     C 2229  10.215  11.282   6.326  0.4458  0.0250 -0.1486
  758MOL0     O 2230  10.311  11.355   6.385 -0.4714  0.3350 -0.4556
  758MOL0     C 2231  10.274  11.478   6.435 -0.0446  0.6316 -0.9773
  758MOL0     C 2232  10.307  11.490   6.588 -0.1789  0.1390 -0.0591
  758MOL0     C 2233  10.453  11.489   6.618 -0.2637  0.1492  0.1036
  758MOL0     C 2234  10.512  11.623   6.569  0.2837  0.5018 -0.4140
  758MOL0     C 2235  10.654  11.642   6.628 -0.1242 -0.2866  1.5007
  758MOL0     C 2236  10.756  11.539   6.584  0.0227  0.0498 -0.6014
  758MOL0     C 2237  10.893  11.601   6.615  0.4564  0.3364 -0.3887
  758MOL0     C 2238  11.005  11.547   6.532 -0.4167 -0.1162 -0.6567
  758MOL0    Cl 2239  11.105  11.424   6.610  0.1713 -0.4960  0.0266
  758MOL0     C 2240  10.132  11.341   6.228  0.5494  0.2389 -0.6350
  758MOL0     C 2241  10.026  11.269   6.169 -0.1573 -0.1357  0.6919
  758MOL0     O 2242   9.799  11.178   5.998  0.5978 -0.5690 -1.1782
  758MOL0     C 2243   9.826  10.828   6.005 -0.8114  0.5643  0.0314
  758MOL0     C 2244   9.790  10.716   5.929  0.4285 -0.0855 -0.5497
  758MOL0     N 2245   9.356  10.380   6.146 -0.1965 -0.0021  0.1919
  758MOL0     N 2246   9.239  10.359   6.198  0.4381  0.8497 -0.4000
  758MOL0     C 2247   9.461   9.682   6.112 -0.6548 -0.3298 -0.1331
  758MOL0     C 2248   9.599   9.704   6.136 -0.7517 -0.3723 -0.0828
  758MOL0     C 2249  10.036   9.757   6.023 -0.4740  0.4048 -0.2099
  758MOL0     C 2250  10.062   9.896   5.994 -0.2923 -0.3334  0.3410
  758MOL0     C 2251  10.187   9.940   5.944 -0.0973  0.2245  0.1476
  758MOL0     C 2252  10.288   9.848   5.912 -1.0246  0.3093 -0.3296
  758MOL0     O 2253  10.411   9.893   5.864 -0.6589  0.3782 -0.3567
  758MOL0     C 2254  10.450   9.837   5.738 -0.1431  0.0273  0.4180
  758MOL0     C 2255  10.579   9.896   5.682 -0.4226 -1.2056  0.0390
  758MOL0     C 2256  10.716   9.855   5.737  0.0353 -1.3692 -0.6891
  758MOL0     C 2257  10.750   9.704   5.732 -0.3312  0.2864 -0.0985
  758MOL0     C 2258  10.730   9.648   5.603  0.4599  0.1449  0.2305
  758MOL0     C 2259  10.711   9.585   5.506 -0.0838  0.3065 -0.1636
  758MOL0     C 2260  10.269   9.714   5.944 -0.2990  0.4196  0.0948
  758MOL0     C 2261  10.153   9.675   6.009  0.2247  0.2586 -0.1947
  758MOL0     C 2262  10.151   9.532   6.066  0.4257 -0.5770  0.2423
  758MOL0     H 2263   9.674   9.941   5.920 -1.8516 -0.6438 -1.7510
  758MOL0     H 2264   9.419   9.906   5.863  0.6627 -3.1773 -3.3681
  758MOL0     H 2265   9.197   9.911   5.929  0.0837  0.6280 -1.5769
  758MOL0     H 2266   9.215   9.776   5.815 -0.1283  1.2361 -0.9476
  758MOL0     H 2267   9.027   9.689   5.988  2.4393  1.9543  2.2521
  758MOL0     H 2268   8.993   9.734   5.826  0.9247 -0.3166 -0.2663
  758MOL0     H 2269   8.938   9.902   6.083 -3.4506  0.3200 -0.0765
  758MOL0     H 2270   8.835   9.820   5.973  0.9828 -1.0083  1.8485
  758MOL0     H 2271   9.005  10.055   5.883 -0.0441 -0.4748  0.8367
  758MOL0     H 2272   8.885   9.993   5.789  3.6680  0.0664 -0.9973
  758MOL0     H 2273   8.762  10.182   5.899 -0.4434  0.5825  1.2939
  758MOL0     H 2274   8.714  10.040   5.986 -0.6229  1.9947 -1.3233
  758MOL0     H 2275   8.766  10.227   6.141 -1.4066 -2.0581 -0.3219
  758MOL0     H 2276   8.851  10.077   6.176  0.9659  0.5540  1.0607
  758MOL0     H 2277   8.962  10.338   6.142  1.7031 -0.7042  3.3200
  758MOL0     H 2278   9.012  10.254   5.999  1.7791  1.0086  0.9217
  758MOL0     H 2279   9.048  10.175   6.289  4.1131 -0.6301  1.7714
  758MOL0     H 2280   9.085  10.063   6.147  1.5114  0.3638 -1.2462
  758MOL0     H 2281   9.341  10.062   6.118  1.9232 -0.3437 -0.1286
  758MOL0     H 2282   9.609  10.328   6.122 -0.6092  2.5229 -2.1608
  758MOL0     H 2283   9.593  10.157   6.141  1.5848  3.2964  4.9962
  758MOL0     H 2284   9.688  10.231   5.905 -0.2328 -2.6704  1.4263
  758MOL0     H 2285   9.535  10.147   5.882  3.0458 -2.4174  0.8131
  758MOL0     H 2286   9.439  10.392   5.898 -0.9893 -0.3393  1.1866
  758MOL0     H 2287   9.523  10.337   5.749 -1.9316 -0.3148  1.4439
  758MOL0     H 2288   9.736  10.454   5.840 -1.0829 -0.1848 -0.9738
  758MOL0     H 2289   9.642  10.500   5.985  1.0201 -0.0505  0.0654
  758MOL0     H 2290   9.492  10.829   5.801  0.2679  0.5796  0.1207
  758MOL0     H 2291   9.577  11.040   5.934 -0.2373  0.1508  2.3799
  758MOL0     H 2292  10.072  10.980   6.342  1.4157 -0.1493  1.3754
  758MOL0     H 2293  10.251  11.106   6.441  1.6659 -1.0216 -1.4409
  758MOL0     H 2294  10.322  11.560   6.380  3.6148 -1.1460 -0.7064
  758MOL0     H 2295  10.168  11.503   6.421  0.8746  3.4578 -4.2202
  758MOL0     H 2296  10.266  11.581   6.631  3.3669  1.1664  1.5258
  758MOL0     H 2297  10.259  11.413   6.650 -0.4362  1.8150  1.9218
  758MOL0     H 2298  10.473  11.473   6.724  1.0237  0.9208 -0.0010
  758MOL0     H 2299  10.499  11.417   6.549 -1.8407  2.1021 -3.2959
  758MOL0     H 2300  10.448  11.697   6.617  0.2643  1.7608 -2.2723
  758MOL0     H 2301  10.514  11.631   6.460  1.7525 -1.7370 -0.6297
  758MOL0     H 2302  10.641  11.640   6.737 -2.3180 -3.3059  1.3221
  758MOL0     H 2303  10.691  11.736   6.587  0.1207 -1.4301 -1.0981
  758MOL0     H 2304  10.747  11.445   6.640  0.0065  0.2065 -0.3339
  758MOL0     H 2305  10.741  11.509   6.480 -1.5778 -1.5825  0.0280
  758MOL0     H 2306  10.924  11.570   6.715  1.7587 -0.4403 -0.9893
  758MOL0     H 2307  10.893  11.710   6.620 -3.0468  0.4156 -0.0998
  758MOL0     H 2308  10.965  11.491   6.446  0.7394 -3.9715  1.0991
  758MOL0     H 2309  11.065  11.631   6.496  2.1697 -1.3946  0.4690
  758MOL0     H 2310  10.156  11.440   6.192  1.8835  0.1119 -0.1625
  758MOL0     H 2311   9.967  11.322   6.095  1.1760 -0.4700 -0.6734
  758MOL0     H 2312   9.925  10.819   6.049 -0.1784  1.0274 -1.2429
  758MOL0     H 2313   9.864  10.636   5.938  0.2550 -0.1030  0.8854
  758MOL0     H 2314   9.408   9.602   6.163  0.8281 -0.3021  1.5828
  758MOL0     H 2315   9.656   9.646   6.208 -0.2206  0.2444  0.0132
  758MOL0     H 2316   9.982   9.968   5.985  0.2371  0.2735  0.3787
  758MOL0     H 2317  10.204  10.043   5.914  0.4886 -1.0190 -4.7227
  758MOL0     H 2318  10.365   9.817   5.672  0.2889 -3.7049  0.7586
  758MOL0     H 2319  10.479   9.732   5.749 -5.5071 -1.9221 -1.3009
  758MOL0     H 2320  10.571  10.003   5.703 -3.0047 -1.7540  2.5062
  758MOL0     H 2321  10.582   9.875   5.575  0.6404  0.9280 -0.4067
  758MOL0     H 2322  10.720   9.885   5.842 -3.7572  0.7739 -0.9919
  758MOL0     H 2323  10.791   9.912   5.681 -1.0169 -1.2243 -1.9952
  758MOL0     H 2324  10.852   9.692   5.768 -1.6993 -0.6209  3.9989
  758MOL0     H 2325  10.702   9.644   5.809 -2.3987 -0.4176 -1.8366
  758MOL0     H 2326  10.692   9.529   5.416 -1.0140  0.6905 -0.2102
  758MOL0     H 2327  10.352   9.645   5.936 -0.4925  0.2028 -0.0398
  758MOL0     H 2328  10.248   9.517   6.114  0.4009  1.0936  0.8992
  758MOL0     H 2329  10.074   9.527   6.143  2.5154 -0.1687  2.4771
  758MOL0     H 2330  10.125   9.465   5.984 -5.5421  1.5811 -0.1307
  759MOL0     O 2331   1.454   9.218   5.014  0.3125  0.3657 -0.7552
  759MOL0     C 2332   1.537   9.135   5.033  0.0902 -0.0329  0.1074
  759MOL0     O 2333   1.648   9.122   4.952 -0.3233 -0.5270  0.1637
  759MOL0     C 2334   1.651   9.174   4.825  0.1038 -0.5341  0.4326
  759MOL0     C 2335   1.706   9.303   4.802  0.3326 -1.3625  0.0982
  759MOL0     C 2336   1.707   9.349   4.666 -0.1683  0.2777 -0.9628
  759MOL0     C 2337   1.637   9.286   4.565 -0.8351  0.5947  0.5559
  759MOL0     O 2338   1.622   9.347   4.445  0.3667  0.2042  0.2978
  759MOL0     C 2339   1.551   9.289   4.325 -0.1900  0.4227 -1.0597
  759MOL0     C 2340   1.399   9.312   4.328  0.2547  0.0639 -0.3948
  759MOL0     C 2341   1.328   9.264   4.203 -0.5874  0.5289 -0.4536
  759MOL0     C 2342   1.258   9.123   4.218 -0.3600  0.4128  0.0330
  759MOL0     C 2343   1.165   9.089   4.096  0.5431  0.4348 -0.4164
  759MOL0     C 2344   1.083   8.956   4.108  0.2812 -1.0489 -0.7673
  759MOL0     C 2345   1.010   8.928   3.978 -0.2435 -0.2479  1.4846
  759MOL0     C 2346   0.950   8.793   3.987  0.2106  0.3758 -0.1743
  759MOL0     N 2347   0.891   8.746   3.854 -0.9809  0.3916 -0.0779
  759MOL0     C 2348   0.960   8.676   3.753  0.6317 -0.0837 -0.2833
  759MOL0     C 2349   0.859   8.675   3.656 -0.9900  0.2060 -0.1506
  759MOL0     C 2350   0.860   8.617   3.515  0.7177  0.9827  1.2189
  759MOL0     C 2351   0.729   8.528   3.485 -0.0639 -0.2582  0.6538
  759MOL0     C 2352   0.698   8.499   3.334 -0.4775  0.3893  0.1110
  759MOL0     C 2353   0.558   8.440   3.305 -0.1003 -0.9285 -0.6996
  759MOL0     O 2354   0.550   8.385   3.174 -0.0796 -0.3315  0.3196
  759MOL0     C 2355   0.446   8.437   3.094  0.4471 -0.5313 -0.5113
  759MOL0     C 2356   0.390   8.346   3.010 -0.6828  0.8507  0.6010
  759MOL0     C 2357   0.298   8.370   2.914 -0.5105 -0.8992 -0.1655
  759MOL0     C 2358   0.238   8.500   2.912 -0.5706  0.1634  0.5501
  759MOL0     C 2359   0.123   8.536   2.815 -0.3560 -0.6673  0.2371
  759MOL0     O 2360   0.085   8.666   2.818  0.1021 -0.1662  0.1809
  759MOL0     C 2361  -0.027   8.715   2.749  0.3726  0.2767 -0.0062
  759MOL0     C 2362  -0.017   8.790   2.631 -0.4361  0.1598 -0.7818
  759MOL0     C 2363  -0.133   8.849   2.581  0.7021 -0.5148 -0.0237
  759MOL0     C 2364  -0.266   8.819   2.641 -0.1682 -0.8739  0.4590
  759MOL0     O 2365  -0.383   8.861   2.593  0.4344 -0.4398  0.3062
  759MOL0     C 2366  -0.456   8.963   2.665  0.7161  0.2361  0.1940
  759MOL0     C 2367  -0.592   8.985   2.598 -0.4638  0.7542  1.0468
  759MOL0     C 2368  -0.666   8.843   2.583  0.0437 -0.5571 -0.6253
  759MOL0     C 2369  -0.818   8.860   2.579 -0.4355  0.6946  0.3386
  759MOL0     C 2370  -0.905   8.731   2.596  0.4140 -0.1663  0.3191
  759MOL0     C 2371  -1.040   8.751   2.523 -0.8091  1.2634  0.3862
  759MOL0     C 2372  -1.128   8.879   2.550 -0.0110  0.6760 -0.3218
  759MOL0     C 2373  -1.274   8.852   2.551 -0.1227 -0.2758 -0.1253
  759MOL0    Cl 2374  -1.320   8.787   2.704 -0.0494  0.1432  0.3257
  759MOL0     C 2375  -0.279   8.762   2.769 -0.1162 -0.9176  0.2512
  759MOL0     C 2376  -0.155   8.705   2.811 -0.0109 -0.3841  0.9822
  759MOL0     O 2377   0.095   8.455   2.731  1.0738 -0.5781 -0.8360
  759MOL0     C 2378   0.300   8.602   2.986  0.4773  0.5343 -0.0212
  759MOL0     C 2379   0.399   8.567   3.078 -0.8541  0.4240 -0.8801
  759MOL0     N 2380   0.749   8.748   3.696 -0.7715  0.0608  0.0717
  759MOL0     N 2381   0.770   8.788   3.818  0.5485 -1.2053  0.6301
  759MOL0     C 2382   1.587   9.160   4.596  0.3530 -0.2945 -0.1667
  759MOL0     C 2383   1.606   9.102   4.720 -0.1526  0.3657 -0.3667
  759MOL0     C 2384   1.533   9.042   5.146 -0.2852 -0.5199  0.7402
  759MOL0     C 2385   1.599   8.915   5.137  0.0116 -0.8238 -0.0262
  759MOL0     C 2386   1.581   8.818   5.237 -1.1529  0.0275 -0.2922
  759MOL0     C 2387   1.497   8.848   5.350 -1.4072 -0.5867  0.3614
  759MOL0     O 2388   1.474   8.752   5.443  0.2538 -0.0216 -0.3199
  759MOL0     C 2389   1.586   8.660   5.465 -0.6305 -0.2069 -0.5494
  759MOL0     C 2390   1.569   8.577   5.596 -0.8442 -0.5108  0.4799
  759MOL0     C 2391   1.696   8.495   5.624 -0.6532  0.3917 -0.8621
  759MOL0     C 2392   1.672   8.361   5.557  0.4859 -0.5233  0.1817
  759MOL0     C 2393   1.611   8.269   5.658 -0.5594 -0.6902  0.8733
  759MOL0     C 2394   1.570   8.211   5.750  0.0726  1.2496  0.5686
  759MOL0     C 2395   1.420   8.969   5.350  0.2324 -0.4526  0.2300
  759MOL0     C 2396   1.439   9.068   5.256  0.6203  0.1486 -0.3523
  759MOL0     C 2397   1.337   9.179   5.267  0.6020  0.1339  0.6149
  759MOL0     H 2398   1.736   9.382   4.870 -4.9690  0.0475  1.2671
  759MOL0     H 2399   1.729   9.455   4.655 -1.0604  0.9037  2.3946
  759MOL0     H 2400   1.594   9.340   4.238  0.5230 -2.9872 -2.8791
  759MOL0     H 2401   1.574   9.183   4.318  0.3565  0.4300  0.4233
  759MOL0     H 2402   1.373   9.416   4.349 -2.9294 -1.0523  2.0124
  759MOL0     H 2403   1.356   9.269   4.419  1.8165 -1.4917 -0.3366
  759MOL0     H 2404   1.402   9.263   4.122 -1.0868  2.8573 -1.0333
  759MOL0     H 2405   1.255   9.342   4.178 -1.5497 -0.3179 -0.3247
  759MOL0     H 2406   1.342   9.053   4.217  2.3276  3.4135 -1.2759
  759MOL0     H 2407   1.194   9.111   4.306 -0.0799 -0.1515  0.1658
  759MOL0     H 2408   1.100   9.174   4.074  0.8318  0.0612 -3.0536
  759MOL0     H 2409   1.220   9.086   4.001 -1.1690  0.5227 -1.4481
  759MOL0     H 2410   1.150   8.873   4.134 -1.2332 -1.6404  1.5562
  759MOL0     H 2411   1.010   8.968   4.189  0.7538  0.4806 -0.5259
  759MOL0     H 2412   1.074   8.938   3.890  0.2827  0.8620  1.9816
  759MOL0     H 2413   0.935   9.006   3.959 -1.0759 -1.7097 -1.9441
  759MOL0     H 2414   1.023   8.718   4.019  0.7381  0.7402 -0.5164
  759MOL0     H 2415   0.865   8.820   4.051  1.1656  5.6813 -0.7127
  759MOL0     H 2416   1.063   8.649   3.730  1.3816  2.5715 -0.4084
  759MOL0     H 2417   0.853   8.706   3.453  1.5922  1.9256  2.4197
  759MOL0     H 2418   0.954   8.579   3.474 -0.3831 -1.3970  0.7169
  759MOL0     H 2419   0.755   8.435   3.534  0.3800  0.4096  1.7171
  759MOL0     H 2420   0.643   8.578   3.531  0.0288 -1.2081  1.8965
  759MOL0     H 2421   0.777   8.429   3.305 -0.0737  1.0757 -0.4598
  759MOL0     H 2422   0.715   8.577   3.259 -1.9517 -0.3984 -1.0944
  759MOL0     H 2423   0.489   8.524   3.319 -0.4793 -1.3018 -0.2929
  759MOL0     H 2424   0.525   8.363   3.376 -0.5491 -0.3482 -0.2681
  759MOL0     H 2425   0.432   8.248   3.034 -0.2614  0.8075 -0.2771
  759MOL0     H 2426   0.263   8.291   2.848  2.1387 -0.9323 -1.6824
  759MOL0     H 2427   0.079   8.805   2.582  0.9965  3.5075  2.5632
  759MOL0     H 2428  -0.122   8.900   2.486 -2.7788  2.5634  1.0400
  759MOL0     H 2429  -0.463   8.935   2.771 -1.1180 -1.6023 -0.3440
  759MOL0     H 2430  -0.398   9.056   2.661  0.0146  0.6450 -0.7196
  759MOL0     H 2431  -0.637   9.075   2.640  0.5120  1.3622  0.8363
  759MOL0     H 2432  -0.563   9.009   2.495 -4.0880  0.7773 -0.0957
  759MOL0     H 2433  -0.622   8.791   2.497  0.5359 -2.5606  0.7655
  759MOL0     H 2434  -0.643   8.774   2.664 -0.1217 -2.1996 -1.9153
  759MOL0     H 2435  -0.844   8.903   2.482 -0.9859 -1.6540 -0.6273
  759MOL0     H 2436  -0.845   8.929   2.660 -0.6097  0.2733  0.6419
  759MOL0     H 2437  -0.929   8.721   2.702  1.9619 -0.8580  0.6242
  759MOL0     H 2438  -0.848   8.640   2.575  3.2495  1.7982 -1.2441
  759MOL0     H 2439  -1.007   8.749   2.419  2.7485  0.1408  1.3759
  759MOL0     H 2440  -1.098   8.659   2.533 -2.6782  1.4936 -5.3409
  759MOL0     H 2441  -1.109   8.949   2.468 -0.8662 -0.6535 -1.6973
  759MOL0     H 2442  -1.095   8.925   2.644  0.6975  3.9973 -2.0601
  759MOL0     H 2443  -1.324   8.948   2.542  0.5843  0.3270  1.8182
  759MOL0     H 2444  -1.313   8.786   2.473 -2.9042  1.0076  0.0974
  759MOL0     H 2445  -0.371   8.747   2.825 -0.1443 -1.2080  0.1296
  759MOL0     H 2446  -0.162   8.643   2.900 -0.1955  1.3405  2.2258
  759MOL0     H 2447   0.261   8.703   2.976  3.6478  1.8475 -0.4185
  759MOL0     H 2448   0.429   8.657   3.131 -1.0515  0.1844 -0.3572
  759MOL0     H 2449   1.531   9.102   4.523  0.9057 -0.9278 -0.0902
  759MOL0     H 2450   1.580   8.997   4.728  3.3607 -0.9313 -3.0908
  759MOL0     H 2451   1.659   8.894   5.049  0.6355  0.7622 -0.0121
  759MOL0     H 2452   1.640   8.727   5.226  0.9115  0.6688  3.4727
  759MOL0     H 2453   1.674   8.725   5.464 -0.7360  0.0552 -3.8271
  759MOL0     H 2454   1.596   8.590   5.382 -1.2744 -0.0830 -0.7374
  759MOL0     H 2455   1.490   8.502   5.587  0.0092 -1.4458  0.5389
  759MOL0     H 2456   1.551   8.640   5.684  0.4542 -1.3078  1.3554
  759MOL0     H 2457   1.698   8.473   5.731 -3.7434 -0.3081 -0.8421
  759MOL0     H 2458   1.793   8.535   5.594 -1.7263  1.6573 -2.9071
  759MOL0     H 2459   1.627   8.379   5.459 -2.0741 -1.6483  1.0664
  759MOL0     H 2460   1.764   8.316   5.517  2.5043  1.8756  1.7824
  759MOL0     H 2461   1.552   8.157   5.841 -1.7151  2.0916  0.7467
  759MOL0     H 2462   1.343   8.980   5.426  1.3737  2.6237  1.0968
  759MOL0     H 2463   1.390   9.273   5.252  2.1785 -0.9249 -0.8093
  759MOL0     H 2464   1.251   9.169   5.200  0.0796 -3.4432  1.5949
  759MOL0     H 2465   1.293   9.184   5.367  2.2824 -0.1749  1.4098
  760MOL0     O 2466   9.046   2.486   0.749 -0.1497  0.6245  0.1052
  760MOL0     C 2467   9.061   2.486   0.868  0.5709 -0.9082  0.3791
  760MOL0     O 2468   8.969   2.534   0.951 -0.5016  0.4162 -0.6243
  760MOL0     C 2469   8.862   2.604   0.911 -0.0076 -0.0427  0.0059
  760MOL0     C 2470   8.865   2.705   0.815  0.3479  1.6301  1.5947
  760MOL0     C 2471   8.741   2.755   0.758  0.2559 -0.2866  0.3900
  760MOL0     C 2472   8.624   2.745   0.839  0.8870  0.3951 -0.9574
  760MOL0     O 2473   8.504   2.816   0.818  0.3797  0.2156 -0.2047
  760MOL0     C 2474   8.512   2.939   0.739 -0.5201  0.6577 -0.0254
  760MOL0     C 2475   8.372   2.974   0.682 -0.1303 -0.0189  0.2979
  760MOL0     C 2476   8.312   2.866   0.601  0.4875 -0.0481 -0.8424
  760MOL0     C 2477   8.172   2.890   0.570  0.3651  0.2662 -0.9191
  760MOL0     C 2478   8.053   2.851   0.672 -0.0528 -0.5162 -0.0460
  760MOL0     C 2479   8.049   2.703   0.725 -0.1038  0.6840 -0.5543
  760MOL0     C 2480   7.957   2.685   0.848 -0.3556  0.1544  0.6525
  760MOL0     C 2481   7.967   2.543   0.914  0.0707 -0.5843 -0.6309
  760MOL0     N 2482   7.945   2.433   0.826  0.1045 -0.6474  0.3931
  760MOL0     C 2483   8.043   2.353   0.779 -0.9078 -0.4444  0.5170
  760MOL0     C 2484   7.988   2.240   0.725 -0.0549 -0.7025 -0.3444
  760MOL0     C 2485   8.083   2.129   0.671  0.3133 -1.2470 -0.0317
  760MOL0     C 2486   8.050   2.108   0.526 -0.2806 -0.3774 -1.2235
  760MOL0     C 2487   7.968   1.990   0.509  0.0081  0.6443  0.2273
  760MOL0     C 2488   7.939   1.968   0.360 -0.0416  0.0116  0.3867
  760MOL0     O 2489   7.836   1.880   0.317 -0.5217 -0.7330  0.2721
  760MOL0     C 2490   7.865   1.779   0.225 -0.4704 -0.6297  0.7426
  760MOL0     C 2491   7.824   1.648   0.251  0.1890  0.1962  0.8290
  760MOL0     C 2492   7.849   1.548   0.159  0.1566  0.4268 -0.8805
  760MOL0     C 2493   7.921   1.567   0.045  0.0652  0.1419 -0.7792
  760MOL0     C 2494   7.944   1.458  -0.052  0.2007  1.5937  0.1519
  760MOL0     O 2495   7.854   1.358  -0.040 -0.5082  1.0676  0.5657
  760MOL0     C 2496   7.871   1.252  -0.116  0.5820  0.3197  0.3127
  760MOL0     C 2497   7.989   1.190  -0.150 -0.8382  0.6399  0.1277
  760MOL0     C 2498   8.005   1.066  -0.216 -0.4903 -0.0364 -0.9161
  760MOL0     C 2499   7.887   1.001  -0.258 -0.7685  0.1263  0.7871
  760MOL0     O 2500   7.907   0.887  -0.338 -0.1936 -0.4203  0.2005
  760MOL0     C 2501   7.812   0.854  -0.440 -0.4290  0.0146  0.5440
  760MOL0     C 2502   7.862   0.733  -0.523  0.0923  0.1700  0.4358
  760MOL0     C 2503   7.773   0.687  -0.646 -0.3602  1.4899  0.1493
  760MOL0     C 2504   7.661   0.591  -0.614  0.1636  0.5948  0.3795
  760MOL0     C 2505   7.706   0.447  -0.649 -0.9602  0.3686  0.9045
  760MOL0     C 2506   7.615   0.334  -0.612 -0.2871 -1.0368 -0.1020
  760MOL0     C 2507   7.544   0.337  -0.480 -0.0999 -0.3354 -0.5378
  760MOL0     C 2508   7.458   0.211  -0.451  0.1074 -0.7997  1.0423
  760MOL0    Cl 2509   7.572   0.075  -0.402 -0.1894 -0.1505 -0.1873
  760MOL0     C 2510   7.766   1.049  -0.217 -0.7905  0.3978 -0.6310
  760MOL0     C 2511   7.755   1.169  -0.136  0.7122 -0.2703 -0.2047
  760MOL0     O 2512   8.024   1.469  -0.146  0.1336 -0.2729  0.0037
  760MOL0     C 2513   7.949   1.703   0.010 -1.0200 -0.5425 -0.8877
  760MOL0     C 2514   7.925   1.800   0.100 -0.2829 -0.3366 -0.8893
  760MOL0     N 2515   7.848   2.259   0.726  0.1928  0.5139 -0.5546
  760MOL0     N 2516   7.829   2.371   0.780  0.6050 -0.5886 -0.4384
  760MOL0     C 2517   8.628   2.663   0.953 -0.6917  0.4044  1.2151
  760MOL0     C 2518   8.747   2.588   0.983 -0.6741 -0.2364  0.1730
  760MOL0     C 2519   9.181   2.423   0.926  0.1152 -0.0347 -0.2583
  760MOL0     C 2520   9.214   2.471   1.060  0.4953  0.1973 -0.8486
  760MOL0     C 2521   9.312   2.414   1.142 -1.1334  0.0865 -0.5532
  760MOL0     C 2522   9.402   2.323   1.078 -0.0231  0.4955  0.8439
  760MOL0     O 2523   9.521   2.277   1.139 -1.0260  0.1521  0.1002
  760MOL0     C 2524   9.582   2.316   1.267  1.3625  0.2614  0.1189
  760MOL0     C 2525   9.725   2.285   1.284  0.3844  0.0248 -0.1768
  760MOL0     C 2526   9.806   2.366   1.382 -0.8337 -0.2312 -0.6973
  760MOL0     C 2527   9.941   2.313   1.423 -0.2696  0.3553  0.3071
  760MOL0     C 2528  10.036   2.301   1.314  0.8587  0.0718  0.0406
  760MOL0     C 2529  10.131   2.284   1.231  0.4097  1.0731 -0.1982
  760MOL0     C 2530   9.389   2.290   0.935 -0.0351 -0.3015  0.0835
  760MOL0     C 2531   9.275   2.327   0.862  0.1252  0.0356  0.2746
  760MOL0     C 2532   9.272   2.277   0.720 -0.0994 -0.9826 -0.2921
  760MOL0     H 2533   8.961   2.735   0.774  0.1751  1.3275  0.9517
  760MOL0     H 2534   8.755   2.818   0.670  2.9778 -2.3073 -0.8067
  760MOL0     H 2535   8.538   3.016   0.812 -2.4226  0.2610  1.1464
  760MOL0     H 2536   8.569   2.937   0.646 -1.0116 -3.5293 -0.4215
  760MOL0     H 2537   8.381   3.060   0.615  0.1485 -1.2546 -1.3333
  760MOL0     H 2538   8.304   2.998   0.764 -0.5788 -0.5176  0.0767
  760MOL0     H 2539   8.307   2.769   0.652  0.3038  0.9200  1.0347
  760MOL0     H 2540   8.374   2.856   0.511 -0.5312 -1.3220 -1.4308
  760MOL0     H 2541   8.158   2.995   0.543  0.3061 -0.0721 -2.2495
  760MOL0     H 2542   8.153   2.831   0.480 -1.1021 -0.2026 -0.3388
  760MOL0     H 2543   8.066   2.920   0.756 -1.5920  1.4463 -1.3220
  760MOL0     H 2544   7.959   2.881   0.624 -0.4194 -0.8151  0.4823
  760MOL0     H 2545   8.028   2.637   0.640  1.3215  3.1905 -3.0500
  760MOL0     H 2546   8.150   2.674   0.755 -0.0540  2.5954  1.3704
  760MOL0     H 2547   7.857   2.694   0.806  0.3476  4.2735 -0.6347
  760MOL0     H 2548   7.972   2.771   0.913 -0.6566  2.4683 -2.1404
  760MOL0     H 2549   8.065   2.543   0.963  0.2469  1.6791 -0.8951
  760MOL0     H 2550   7.895   2.546   0.997 -0.7149 -1.7926 -1.2419
  760MOL0     H 2551   8.147   2.378   0.800  0.0731 -0.2312 -3.7283
  760MOL0     H 2552   8.181   2.179   0.679 -0.5225  0.3644  0.5555
  760MOL0     H 2553   8.088   2.034   0.724  0.8319 -2.8030 -2.7116
  760MOL0     H 2554   8.006   2.193   0.473 -0.1419 -0.2236 -1.0925
  760MOL0     H 2555   8.153   2.093   0.494  1.3573 -2.9920  4.0635
  760MOL0     H 2556   7.869   2.014   0.548  0.7918  1.0306  2.0782
  760MOL0     H 2557   7.989   1.898   0.564 -0.0358 -0.0278 -0.8565
  760MOL0     H 2558   8.033   1.935   0.314 -0.5948 -1.2450  0.1161
  760MOL0     H 2559   7.909   2.067   0.323  1.7455  0.2354 -0.5928
  760MOL0     H 2560   7.785   1.642   0.352 -0.2276  2.1757  0.8180
  760MOL0     H 2561   7.809   1.449   0.180 -1.6570  1.3794  0.3991
  760MOL0     H 2562   8.082   1.235  -0.116  0.5353 -3.3804  2.3391
  760MOL0     H 2563   8.097   1.022  -0.254 -0.2839 -0.6224  0.2227
  760MOL0     H 2564   7.714   0.843  -0.393  1.0731  2.2683  4.7594
  760MOL0     H 2565   7.795   0.930  -0.517 -1.4524  1.7519  2.3895
  760MOL0     H 2566   7.964   0.750  -0.559  1.2183 -2.8718  1.8526
  760MOL0     H 2567   7.869   0.650  -0.452 -0.9687 -0.5083 -0.2297
  760MOL0     H 2568   7.729   0.777  -0.689  0.8378  0.3981 -3.7160
  760MOL0     H 2569   7.839   0.651  -0.726 -1.9634 -0.0545 -0.5451
  760MOL0     H 2570   7.575   0.621  -0.674  0.1182 -2.1850 -1.1323
  760MOL0     H 2571   7.630   0.593  -0.509  0.7529 -2.4435  0.7040
  760MOL0     H 2572   7.805   0.426  -0.607  0.3063 -1.1362 -2.4086
  760MOL0     H 2573   7.717   0.429  -0.757 -0.7208  1.6156  0.7017
  760MOL0     H 2574   7.547   0.328  -0.698  0.0032  1.4184 -0.5651
  760MOL0     H 2575   7.677   0.244  -0.609  0.9707 -0.1697  1.3593
  760MOL0     H 2576   7.480   0.426  -0.485 -0.4217 -0.5776 -5.0438
  760MOL0     H 2577   7.618   0.354  -0.402  0.0608 -3.6111  0.1958
  760MOL0     H 2578   7.395   0.243  -0.368  1.5659 -0.0747  1.9167
  760MOL0     H 2579   7.392   0.183  -0.534  1.9029  1.2803 -1.2705
  760MOL0     H 2580   7.670   1.002  -0.231 -0.9095 -0.2785  1.9150
  760MOL0     H 2581   7.657   1.199  -0.100  1.5513  2.8922 -0.2625
  760MOL0     H 2582   7.996   1.736  -0.082 -0.9041  1.0851 -0.2644
  760MOL0     H 2583   7.943   1.905   0.075 -0.6941  0.5509  2.1662
  760MOL0     H 2584   8.541   2.666   1.018 -1.9340  3.1843 -0.3796
  760MOL0     H 2585   8.755   2.521   1.068  1.5581 -1.7573 -1.1273
  760MOL0     H 2586   9.160   2.549   1.113 -1.5666 -3.4310  3.0541
  760MOL0     H 2587   9.324   2.427   1.250  0.1014 -1.6283 -0.4480
  760MOL0     H 2588   9.529   2.265   1.347 -0.2558  0.9170 -0.4936
  760MOL0     H 2589   9.570   2.424   1.284 -2.4043 -0.1459  0.7727
  760MOL0     H 2590   9.777   2.282   1.188 -0.6260 -0.3293 -0.7267
  760MOL0     H 2591   9.725   2.179   1.310 -0.5106 -0.1746 -0.9327
  760MOL0     H 2592   9.759   2.376   1.480 -1.1042  0.5292 -0.8890
  760MOL0     H 2593   9.803   2.462   1.329 -1.5183 -1.6703 -3.4676
  760MOL0     H 2594   9.980   2.379   1.502  0.2298  2.6095 -1.6926
  760MOL0     H 2595   9.932   2.211   1.461  0.9825  0.2888  0.4412
  760MOL0     H 2596  10.206   2.256   1.160  0.3472  2.6062 -0.9180
  760MOL0     H 2597   9.460   2.236   0.873 -0.6014  1.2617 -2.0472
  760MOL0     H 2598   9.315   2.355   0.656 -0.4734  1.6176  2.4297
  760MOL0     H 2599   9.320   2.181   0.699  4.8463  1.4215 -1.5709
  760MOL0     H 2600   9.166   2.269   0.697 -0.3667  0.1110  0.4932
  761MOL0     O 2601   7.619   1.270   2.509 -0.7377 -1.0947 -0.7485
  761MOL0     C 2602   7.502   1.293   2.511  0.0746 -0.1906  0.8767
  761MOL0     O 2603   7.437   1.342   2.400  0.4175 -0.2870 -0.3275
  761MOL0     C 2604   7.521   1.365   2.291 -0.3806  0.4897 -1.0354
  761MOL0     C 2605   7.514   1.275   2.185  0.0446  0.4750 -0.3481
  761MOL0     C 2606   7.574   1.292   2.059 -0.1142 -0.2849 -0.6023
  761MOL0     C 2607   7.666   1.406   2.047 -0.9192 -0.0306 -0.3922
  761MOL0     O 2608   7.734   1.435   1.930 -0.6817 -0.2351  0.5362
  761MOL0     C 2609   7.748   1.334   1.828  1.4845 -1.1404 -0.2256
  761MOL0     C 2610   7.859   1.229   1.865 -0.2253 -0.0928 -0.8131
  761MOL0     C 2611   7.860   1.103   1.769 -0.4294 -0.6989  0.1165
  761MOL0     C 2612   7.913   1.151   1.636  0.5574  0.5646  0.5357
  761MOL0     C 2613   7.923   1.018   1.545  0.4387  0.1697  0.6062
  761MOL0     C 2614   7.976   1.046   1.401  0.3174  0.2465 -0.2623
  761MOL0     C 2615   7.981   0.910   1.326  0.4631 -0.4998  0.2468
  761MOL0     C 2616   7.968   0.931   1.170 -0.1592  0.1692  0.3214
  761MOL0     N 2617   7.987   0.788   1.112 -0.0197 -0.2052  1.2801
  761MOL0     C 2618   7.990   0.759   0.975 -0.2561 -0.1869 -0.9345
  761MOL0     C 2619   8.048   0.631   0.971 -0.0617 -1.4084  0.5033
  761MOL0     C 2620   8.098   0.571   0.834  0.4113  0.2456  0.1385
  761MOL0     C 2621   8.056   0.426   0.817  0.9218 -0.2265  0.1002
  761MOL0     C 2622   7.911   0.399   0.803  0.4766 -0.8155  0.8009
  761MOL0     C 2623   7.867   0.468   0.670 -1.2637 -0.1317 -0.9222
  761MOL0     O 2624   7.725   0.484   0.656  0.1554 -0.1085  0.4672
  761MOL0     C 2625   7.656   0.372   0.624  0.1631 -0.0704  0.3194
  761MOL0     C 2626   7.698   0.255   0.562 -0.2995  1.2329 -0.1519
  761MOL0     C 2627   7.607   0.140   0.529 -0.3149 -0.5886  0.1148
  761MOL0     C 2628   7.471   0.164   0.531  0.1861 -0.3025 -0.8394
  761MOL0     C 2629   7.371   0.064   0.493 -0.4614 -0.2680 -0.7194
  761MOL0     O 2630   7.261   0.119   0.438  0.1613  0.1180  0.6516
  761MOL0     C 2631   7.179   0.024   0.379  0.5506 -0.3898 -0.5046
  761MOL0     C 2632   7.093  -0.051   0.456 -1.3587  0.1154 -0.5578
  761MOL0     C 2633   7.009  -0.144   0.404 -0.4260  0.6173  0.6172
  761MOL0     C 2634   6.987  -0.151   0.269 -1.0599  0.3381  0.8010
  761MOL0     O 2635   6.882  -0.230   0.236  0.1032  0.5965  0.2914
  761MOL0     C 2636   6.798  -0.199   0.125 -0.5475 -0.3886 -0.0897
  761MOL0     C 2637   6.836  -0.273   0.003  0.3356 -0.0425  0.2074
  761MOL0     C 2638   6.753  -0.402  -0.021  0.2901  0.2874 -0.1327
  761MOL0     C 2639   6.828  -0.521   0.026  0.4251  0.1866 -0.8499
  761MOL0     C 2640   6.747  -0.648   0.015  0.3955 -0.6918  0.1463
  761MOL0     C 2641   6.812  -0.773   0.059  0.0138  0.4370 -0.2439
  761MOL0     C 2642   6.720  -0.897   0.057  0.1688  0.2555  0.4957
  761MOL0     C 2643   6.788  -1.012   0.130 -0.3053  0.2549  0.2963
  761MOL0    Cl 2644   6.666  -1.141   0.163  0.1533 -0.2635 -0.3816
  761MOL0     C 2645   7.065  -0.073   0.181  0.6489  0.4038  0.0378
  761MOL0     C 2646   7.166   0.018   0.238 -0.1484 -0.3715  0.1612
  761MOL0     O 2647   7.393  -0.058   0.517  0.1495 -0.2274  0.5844
  761MOL0     C 2648   7.430   0.299   0.584 -0.1263  0.7414 -0.2065
  761MOL0     C 2649   7.517   0.391   0.637 -0.8084 -0.0713  0.3432
  761MOL0     N 2650   8.077   0.593   1.101  0.2458 -0.5577  0.8523
  761MOL0     N 2651   8.045   0.686   1.177  0.1071  0.0419 -0.3137
  761MOL0     C 2652   7.672   1.492   2.157 -0.3438 -0.0164 -0.2137
  761MOL0     C 2653   7.596   1.485   2.277 -0.0257  0.4028 -0.8512
  761MOL0     C 2654   7.428   1.285   2.639 -1.0387  0.5307  0.7823
  761MOL0     C 2655   7.298   1.342   2.633  0.2261  0.8114  0.6302
  761MOL0     C 2656   7.220   1.322   2.745 -0.1355 -0.0196 -0.6842
  761MOL0     C 2657   7.262   1.256   2.856  0.1914 -0.4975  0.8228
  761MOL0     O 2658   7.154   1.241   2.940 -0.2322  0.4098  0.2938
  761MOL0     C 2659   7.190   1.180   3.068  0.6381 -0.3842 -0.8493
  761MOL0     C 2660   7.080   1.204   3.168 -0.0832 -0.3671 -0.5065
  761MOL0     C 2661   7.101   1.161   3.318 -0.6529 -0.3285  0.2240
  761MOL0     C 2662   7.141   1.011   3.321 -0.5514  0.5447  0.4471
  761MOL0     C 2663   7.100   0.963   3.447 -0.2663  0.0846 -0.4178
  761MOL0     C 2664   7.099   0.905   3.551  0.8879  0.0755  1.0640
  761MOL0     C 2665   7.387   1.204   2.863  0.4378 -0.5479  0.5903
  761MOL0     C 2666   7.478   1.223   2.759 -0.2271 -0.6528  0.2336
  761MOL0     C 2667   7.619   1.156   2.770  0.5945 -0.0380 -0.5665
  761MOL0     H 2668   7.444   1.192   2.179 -1.4098  1.5762  0.8631
  761MOL0     H 2669   7.563   1.224   1.975  0.7785  2.0894 -2.7513
  761MOL0     H 2670   7.648   1.293   1.811  0.3444  0.5683  1.8572
  761MOL0     H 2671   7.776   1.383   1.734  0.4066 -1.1566 -0.5637
  761MOL0     H 2672   7.849   1.195   1.968 -3.0038  0.8848 -0.6785
  761MOL0     H 2673   7.951   1.288   1.857  0.9623 -1.1482  3.0650
  761MOL0     H 2674   7.754   1.079   1.756  0.1437 -2.6254 -1.5817
  761MOL0     H 2675   7.909   1.018   1.818  1.8224  1.1482  1.3058
  761MOL0     H 2676   7.855   1.231   1.589  1.2518  1.3786  1.0574
  761MOL0     H 2677   8.011   1.196   1.654  1.5696 -1.5123  0.4923
  761MOL0     H 2678   7.993   0.948   1.592  0.7229  0.1923  0.2189
  761MOL0     H 2679   7.825   0.973   1.531 -0.3357  1.5218  1.4805
  761MOL0     H 2680   7.903   1.113   1.355 -0.0547 -0.6852 -1.0662
  761MOL0     H 2681   8.078   1.085   1.390  0.7880 -1.3559 -2.0149
  761MOL0     H 2682   7.893   0.854   1.361 -0.9987 -1.3310 -4.1271
  761MOL0     H 2683   8.071   0.854   1.353  1.8673  0.1097 -2.7626
  761MOL0     H 2684   7.871   0.968   1.138  1.3119  1.6444 -2.9132
  761MOL0     H 2685   8.044   1.004   1.139 -1.7364  0.4951 -3.2533
  761MOL0     H 2686   7.973   0.819   0.886 -1.9717 -0.7224 -1.0005
  761MOL0     H 2687   8.071   0.631   0.747 -2.7933  1.4216  1.8010
  761MOL0     H 2688   8.207   0.569   0.845  0.5679  0.7605 -1.1268
  761MOL0     H 2689   8.117   0.394   0.732  6.8954  4.8261  1.7510
  761MOL0     H 2690   8.092   0.361   0.897  0.8188  0.9273  1.1279
  761MOL0     H 2691   7.854   0.436   0.889 -1.5094 -1.2334 -0.2692
  761MOL0     H 2692   7.893   0.292   0.801 -0.0610 -0.7251  0.4389
  761MOL0     H 2693   7.914   0.424   0.582  0.3233 -0.3110 -0.0311
  761MOL0     H 2694   7.898   0.573   0.671 -1.5315 -0.0521 -1.0130
  761MOL0     H 2695   7.798   0.241   0.522 -0.3993  0.9657 -0.3068
  761MOL0     H 2696   7.657   0.048   0.500 -3.6982 -2.2731 -0.9092
  761MOL0     H 2697   7.100  -0.037   0.563 -2.4368  0.3838 -0.5200
  761MOL0     H 2698   6.956  -0.215   0.466 -2.6002  0.6472 -1.1069
  761MOL0     H 2699   6.692  -0.218   0.145 -1.2808  1.2216 -2.0998
  761MOL0     H 2700   6.806  -0.093   0.101 -0.3299  0.0296  1.6456
  761MOL0     H 2701   6.827  -0.211  -0.086  0.1470 -1.6915 -0.9709
  761MOL0     H 2702   6.940  -0.305  -0.006  0.5749  0.0254  2.1650
  761MOL0     H 2703   6.657  -0.388   0.030  1.6803  3.2632  1.9359
  761MOL0     H 2704   6.725  -0.411  -0.126 -4.5119  0.3268  0.9104
  761MOL0     H 2705   6.858  -0.503   0.130 -0.9651  1.0989 -0.5761
  761MOL0     H 2706   6.919  -0.528  -0.034  1.6564 -0.6702  1.0200
  761MOL0     H 2707   6.728  -0.659  -0.092  2.8697 -0.1991 -0.3876
  761MOL0     H 2708   6.651  -0.634   0.067  1.2532  5.1649  0.8856
  761MOL0     H 2709   6.904  -0.790   0.001  1.8183  0.2159  2.4967
  761MOL0     H 2710   6.837  -0.749   0.162  0.2515  2.9018 -0.8211
  761MOL0     H 2711   6.698  -0.918  -0.048  0.8745 -0.3842  0.4644
  761MOL0     H 2712   6.625  -0.870   0.104 -1.3476 -2.3742 -0.8507
  761MOL0     H 2713   6.869  -1.051   0.068  0.1582 -1.7812  2.0619
  761MOL0     H 2714   6.825  -0.973   0.226 -0.6527  2.4066 -0.3775
  761MOL0     H 2715   7.041  -0.080   0.075  0.0728 -0.0952  0.1935
  761MOL0     H 2716   7.236   0.087   0.192 -2.5859  2.8021  0.8399
  761MOL0     H 2717   7.324   0.308   0.603 -0.3279  0.5031 -1.1949
  761MOL0     H 2718   7.489   0.487   0.680  0.9328  0.0685  1.2693
  761MOL0     H 2719   7.744   1.571   2.137  0.5880 -0.6592  0.5227
  761MOL0     H 2720   7.587   1.551   2.362 -4.5241 -0.2863 -0.5172
  761MOL0     H 2721   7.252   1.385   2.545  0.7736 -1.7026 -0.9849
  761MOL0     H 2722   7.117   1.352   2.728 -0.1462 -0.4020 -1.3376
  761MOL0     H 2723   7.275   1.227   3.118 -0.9800  0.1441  1.6472
  761MOL0     H 2724   7.219   1.075   3.066 -1.9663 -1.2600  0.9673
  761MOL0     H 2725   6.993   1.149   3.131 -0.2874  0.0364 -0.6359
  761MOL0     H 2726   7.055   1.310   3.169 -2.9659 -0.9394  1.0240
  761MOL0     H 2727   7.005   1.184   3.366 -2.7625 -2.6699 -2.4757
  761MOL0     H 2728   7.170   1.231   3.366 -3.0114  1.6738  0.9453
  761MOL0     H 2729   7.077   0.961   3.248 -0.2497 -0.8140  1.0760
  761MOL0     H 2730   7.248   0.999   3.301 -0.8122  1.8787 -2.2151
  761MOL0     H 2731   7.105   0.845   3.640  0.8879 -0.8026  0.4858
  761MOL0     H 2732   7.424   1.162   2.956 -2.9523 -1.5853  1.5975
  761MOL0     H 2733   7.651   1.107   2.678 -1.9927 -2.0134 -0.5420
  761MOL0     H 2734   7.703   1.224   2.789  2.1455 -1.7445 -1.0359
  761MOL0     H 2735   7.616   1.087   2.855  0.9520  1.0435  0.3558
  762MOL0     O 2736   7.826  10.083   7.628  0.0039  0.1627  0.0975
  762MOL0     C 2737   7.777   9.973   7.648  0.7273  1.2173  0.1803
  762MOL0     O 2738   7.823   9.884   7.743 -0.0864 -0.5001 -0.6824
  762MOL0     C 2739   7.958   9.872   7.759  0.4231 -0.0242 -0.1501
  762MOL0     C 2740   8.049   9.977   7.774 -0.8020 -0.4065 -0.1909
  762MOL0     C 2741   8.187   9.948   7.793  0.8649  0.4558  0.4401
  762MOL0     C 2742   8.238   9.818   7.799 -0.1171  0.0915  0.1295
  762MOL0     O 2743   8.367   9.788   7.806 -0.3063 -0.5758  0.3723
  762MOL0     C 2744   8.450   9.851   7.902 -0.3261 -0.1090 -0.2979
  762MOL0     C 2745   8.567   9.754   7.904 -0.8298 -0.1385  0.9187
  762MOL0     C 2746   8.557   9.627   7.976 -0.0572  0.1463 -0.7365
  762MOL0     C 2747   8.651   9.504   7.939  0.4353  0.0282 -0.2587
  762MOL0     C 2748   8.608   9.377   8.007  0.8178 -0.0344 -0.5081
  762MOL0     C 2749   8.621   9.249   7.910 -0.5554 -0.8343  0.0357
  762MOL0     C 2750   8.531   9.243   7.788  0.3378 -0.4744  0.5263
  762MOL0     C 2751   8.382   9.273   7.819  0.0152 -0.0009  0.3659
  762MOL0     N 2752   8.298   9.268   7.703 -0.1957 -0.5499  0.8182
  762MOL0     C 2753   8.253   9.152   7.636  0.8287 -0.1261 -0.4099
  762MOL0     C 2754   8.187   9.191   7.527  0.9696  0.2545  0.1996
  762MOL0     C 2755   8.134   9.109   7.410  0.7586  0.1278 -0.2555
  762MOL0     C 2756   7.980   9.111   7.396  0.6333 -0.1675 -0.2787
  762MOL0     C 2757   7.913   9.054   7.523  0.2088  1.2669 -0.4490
  762MOL0     C 2758   7.765   9.057   7.500  0.5974  0.7798 -0.1645
  762MOL0     O 2759   7.716   8.943   7.576  0.3281  0.2046  0.3699
  762MOL0     C 2760   7.581   8.930   7.592 -0.2551  0.0182 -0.3378
  762MOL0     C 2761   7.535   8.875   7.711 -0.3597 -0.0435  0.3811
  762MOL0     C 2762   7.399   8.854   7.745 -0.0917  0.9003 -0.0881
  762MOL0     C 2763   7.307   8.900   7.652  1.2866  0.1223  0.1264
  762MOL0     C 2764   7.159   8.897   7.681 -0.4327  0.7815  0.5119
  762MOL0     O 2765   7.116   8.829   7.798 -0.4737  0.2853 -0.4719
  762MOL0     C 2766   6.991   8.835   7.844 -0.3901 -0.4033  0.0182
  762MOL0     C 2767   6.893   8.728   7.827 -0.6366  0.1894  0.4376
  762MOL0     C 2768   6.764   8.735   7.872  0.2603 -0.1532  1.2065
  762MOL0     C 2769   6.729   8.849   7.947  0.0888  0.2035 -0.1235
  762MOL0     O 2770   6.603   8.872   7.982  0.3224  0.6934 -0.2868
  762MOL0     C 2771   6.579   8.957   8.096 -0.4307  0.1955 -1.2871
  762MOL0     C 2772   6.424   8.970   8.112  0.9899  0.1506  0.4192
  762MOL0     C 2773   6.384   9.071   8.218  0.0010 -0.5490  0.2303
  762MOL0     C 2774   6.230   9.088   8.222  0.6657  0.6024 -0.9873
  762MOL0     C 2775   6.176   9.146   8.358  0.5496 -0.3241 -0.7692
  762MOL0     C 2776   6.020   9.145   8.352 -0.0531 -0.2368  0.5528
  762MOL0     C 2777   5.937   9.160   8.485 -0.1392 -0.3715 -0.3057
  762MOL0     C 2778   5.787   9.149   8.458 -0.0706 -0.2380 -0.7392
  762MOL0    Cl 2779   5.727   8.992   8.408 -0.0445 -0.0142  0.4249
  762MOL0     C 2780   6.829   8.936   7.990 -0.6304  0.5775 -0.6606
  762MOL0     C 2781   6.960   8.934   7.934 -0.0952 -0.3927 -1.2369
  762MOL0     O 2782   7.083   8.948   7.597 -1.1781  0.3993  0.0902
  762MOL0     C 2783   7.351   8.945   7.530 -0.6802 -0.6424 -0.2603
  762MOL0     C 2784   7.484   8.973   7.503  0.2542  0.0269  0.8430
  762MOL0     N 2785   8.172   9.328   7.531  0.4593  0.0580 -0.7430
  762MOL0     N 2786   8.263   9.370   7.614  0.3299  0.0231 -0.3176
  762MOL0     C 2787   8.145   9.713   7.793 -0.5582 -0.4937 -0.0725
  762MOL0     C 2788   8.012   9.739   7.764  0.6884  0.2067  0.2289
  762MOL0     C 2789   7.662   9.938   7.568  0.7579 -0.6326  0.2894
  762MOL0     C 2790   7.673   9.836   7.469 -0.0064  0.1203 -0.1276
  762MOL0     C 2791   7.567   9.791   7.396 -0.3842 -0.2401 -0.3069
  762MOL0     C 2792   7.442   9.846   7.416 -0.5859 -0.6933 -0.1390
  762MOL0     O 2793   7.355   9.784   7.335 -0.0658  0.5986  0.1526
  762MOL0     C 2794   7.221   9.818   7.349 -0.3040  0.5126  0.1361
  762MOL0     C 2795   7.148   9.774   7.231  0.3325  0.2196 -0.9891
  762MOL0     C 2796   7.192   9.826   7.094 -0.4793 -0.0949  0.1419
  762MOL0     C 2797   7.199   9.715   6.993  0.4875 -0.1143 -0.5768
  762MOL0     C 2798   7.060   9.677   6.975 -0.8529 -0.7752 -0.5927
  762MOL0     C 2799   6.944   9.654   6.971  0.6770  0.5097 -0.2450
  762MOL0     C 2800   7.421   9.943   7.512  0.0434  0.2702 -0.7038
  762MOL0     C 2801   7.537   9.991   7.587 -0.5092 -0.6710 -0.2003
  762MOL0     C 2802   7.516  10.113   7.675  0.2355 -0.3197 -0.0846
  762MOL0     H 2803   8.010  10.079   7.766 -0.4686 -0.1102  1.5143
  762MOL0     H 2804   8.265  10.023   7.787  0.6650  0.5553 -1.5292
  762MOL0     H 2805   8.494   9.943   7.863 -0.2561 -1.0364 -2.5077
  762MOL0     H 2806   8.399   9.862   7.999  2.3195  1.3748  1.0349
  762MOL0     H 2807   8.647   9.796   7.967  1.0277 -1.7478 -0.2367
  762MOL0     H 2808   8.615   9.748   7.806  0.0742  3.5832  0.9509
  762MOL0     H 2809   8.452   9.595   7.975  0.0663 -0.2614 -1.4970
  762MOL0     H 2810   8.570   9.640   8.084  0.1758  1.1871 -0.8834
  762MOL0     H 2811   8.662   9.499   7.830  5.3313 -1.8444  0.1077
  762MOL0     H 2812   8.754   9.514   7.974  0.3699 -1.3115  0.3673
  762MOL0     H 2813   8.669   9.366   8.098 -0.2297  0.5420  0.2889
  762MOL0     H 2814   8.511   9.407   8.048  1.6953  0.2118  1.5383
  762MOL0     H 2815   8.720   9.230   7.868 -0.3607 -0.9813  0.5471
  762MOL0     H 2816   8.602   9.161   7.972 -0.6066 -1.9373 -1.4916
  762MOL0     H 2817   8.546   9.137   7.764  2.7690 -0.7133  2.6781
  762MOL0     H 2818   8.577   9.308   7.713 -2.2495  0.0200 -0.7281
  762MOL0     H 2819   8.349   9.201   7.894 -1.0747  2.0460  1.9907
  762MOL0     H 2820   8.378   9.369   7.872  1.4952 -1.7471  3.8934
  762MOL0     H 2821   8.293   9.052   7.655  3.8933  1.0966  0.2723
  762MOL0     H 2822   8.187   9.146   7.322  2.8652  0.2618  1.0034
  762MOL0     H 2823   8.158   9.004   7.428 -3.6847 -0.8591  1.3966
  762MOL0     H 2824   7.958   9.214   7.366 -0.9625 -1.3385 -3.4912
  762MOL0     H 2825   7.939   9.056   7.312 -1.9153  0.7393  0.2915
  762MOL0     H 2826   7.927   9.116   7.612 -1.9200  0.0058  0.8541
  762MOL0     H 2827   7.953   8.953   7.535  3.7980  2.6573  0.3017
  762MOL0     H 2828   7.737   9.046   7.395  0.2121 -0.6232  0.0724
  762MOL0     H 2829   7.729   9.151   7.543 -0.1536  1.0281 -1.2822
  762MOL0     H 2830   7.615   8.841   7.775  0.8038  1.9281  0.0574
  762MOL0     H 2831   7.373   8.835   7.849 -1.0110 -1.2273 -0.6584
  762MOL0     H 2832   6.928   8.655   7.755 -0.5617 -0.3881  1.0520
  762MOL0     H 2833   6.700   8.655   7.833 -1.4136  0.3828  2.7148
  762MOL0     H 2834   6.628   8.911   8.182  0.6028  1.5947 -1.0961
  762MOL0     H 2835   6.623   9.056   8.082 -1.8866  0.7333 -2.3009
  762MOL0     H 2836   6.383   8.986   8.012 -0.4651 -0.8567  0.8305
  762MOL0     H 2837   6.378   8.875   8.140  0.7426 -0.0503 -0.6454
  762MOL0     H 2838   6.423   9.031   8.312  0.0256 -1.5970 -0.2026
  762MOL0     H 2839   6.430   9.164   8.184  0.4310 -0.9074 -0.1771
  762MOL0     H 2840   6.176   8.999   8.188 -0.5644  1.2500 -0.7908
  762MOL0     H 2841   6.214   9.166   8.147 -0.8555  0.2890 -1.0202
  762MOL0     H 2842   6.221   9.244   8.378 -1.1217 -0.1579  3.0641
  762MOL0     H 2843   6.214   9.086   8.441 -1.9473  2.0256  2.3522
  762MOL0     H 2844   5.983   9.225   8.286 -0.3493 -1.5544 -0.9253
  762MOL0     H 2845   5.994   9.055   8.297 -0.6658  1.3325 -1.9044
  762MOL0     H 2846   5.963   9.259   8.524 -1.7438  1.2651 -3.0027
  762MOL0     H 2847   5.968   9.079   8.550 -3.9158 -0.6428  1.4032
  762MOL0     H 2848   5.737   9.169   8.553  2.1654 -0.6085  0.5594
  762MOL0     H 2849   5.745   9.221   8.386 -0.8809 -0.3821 -0.4197
  762MOL0     H 2850   6.816   8.997   8.079  0.9496 -0.0790  0.0539
  762MOL0     H 2851   7.031   9.008   7.970 -0.6230 -0.9214  1.0666
  762MOL0     H 2852   7.288   8.988   7.452  2.5971  1.9317 -1.7256
  762MOL0     H 2853   7.518   9.014   7.409 -4.9596 -1.9197 -2.2779
  762MOL0     H 2854   8.178   9.610   7.797  1.2416  0.0779  0.8523
  762MOL0     H 2855   7.947   9.654   7.744  2.1551 -0.6679 -1.0741
  762MOL0     H 2856   7.763   9.777   7.456  2.3761  3.5283 -0.5619
  762MOL0     H 2857   7.572   9.712   7.322 -1.2937 -1.6069  1.0091
  762MOL0     H 2858   7.216   9.926   7.365  3.9353  0.8576  0.3027
  762MOL0     H 2859   7.187   9.759   7.435  1.7130 -1.3861 -0.2970
  762MOL0     H 2860   7.043   9.795   7.253  0.6120  1.4637 -0.7728
  762MOL0     H 2861   7.166   9.666   7.219 -2.0712 -0.0454 -2.9268
  762MOL0     H 2862   7.290   9.875   7.094 -0.8232  0.7136 -1.9881
  762MOL0     H 2863   7.110   9.893   7.067 -1.5851 -1.7392 -0.7284
  762MOL0     H 2864   7.238   9.764   6.904  0.7071  1.3662  0.3077
  762MOL0     H 2865   7.263   9.632   7.025 -1.2419 -0.9283  1.0230
  762MOL0     H 2866   6.840   9.630   6.972 -0.1833  3.7565  1.1192
  762MOL0     H 2867   7.321   9.980   7.530 -0.5983 -0.7447 -2.0073
  762MOL0     H 2868   7.546  10.098   7.779  0.6834 -3.2574 -0.5340
  762MOL0     H 2869   7.567  10.203   7.638  1.8572 -0.1498  2.3303
  762MOL0     H 2870   7.410  10.137   7.661  1.5134  5.2720 -3.9157
  763MOL0     O 2871   6.254  11.346   1.435  0.2916 -0.3838 -0.3864
  763MOL0     C 2872   6.236  11.233   1.484  0.0919  0.0624 -0.0604
  763MOL0     O 2873   6.319  11.166   1.577 -0.4424 -0.0347  0.0128
  763MOL0     C 2874   6.423  11.225   1.653 -1.4793  0.8041  0.2471
  763MOL0     C 2875   6.498  11.317   1.592 -0.2979 -0.6100  0.0414
  763MOL0     C 2876   6.581  11.402   1.673 -0.1000  0.9047 -0.0296
  763MOL0     C 2877   6.600  11.373   1.810 -1.1853 -0.7240 -0.1272
  763MOL0     O 2878   6.704  11.448   1.864  0.1515  0.2578 -0.2186
  763MOL0     C 2879   6.728  11.415   1.997  0.3731  0.4465 -0.6114
  763MOL0     C 2880   6.827  11.510   2.063 -0.6615 -0.1637 -0.1096
  763MOL0     C 2881   6.866  11.462   2.197  0.7503  0.7298 -0.1876
  763MOL0     C 2882   7.022  11.468   2.222  0.4073 -0.6366  0.1654
  763MOL0     C 2883   7.072  11.402   2.351 -0.4434 -0.6055  0.1921
  763MOL0     C 2884   7.094  11.257   2.328 -1.3141  0.7109  0.8439
  763MOL0     C 2885   7.180  11.186   2.432 -0.3512  0.3775 -0.7569
  763MOL0     C 2886   7.215  11.039   2.408  0.3729  0.6603  0.8374
  763MOL0     N 2887   7.311  11.024   2.296  0.3780 -0.7597  0.8363
  763MOL0     C 2888   7.444  11.051   2.308 -0.7065 -0.7004  0.0244
  763MOL0     C 2889   7.492  11.054   2.188  0.0767  0.3560 -0.6645
  763MOL0     C 2890   7.629  11.086   2.152 -0.3759 -0.2399  0.3556
  763MOL0     C 2891   7.620  11.225   2.082 -0.2236 -0.1334  0.3079
  763MOL0     C 2892   7.755  11.241   2.002  0.1518 -0.2871  0.4194
  763MOL0     C 2893   7.754  11.329   1.884  0.0146 -0.5817 -0.0006
  763MOL0     O 2894   7.703  11.460   1.925  0.5380  0.1505  0.1076
  763MOL0     C 2895   7.773  11.564   1.869  0.4850  0.1723  0.5542
  763MOL0     C 2896   7.796  11.681   1.942 -0.6772  0.2229  0.3195
  763MOL0     C 2897   7.884  11.781   1.901  0.5063 -0.0306 -0.8790
  763MOL0     C 2898   7.937  11.783   1.769  0.3988 -0.7158  0.2257
  763MOL0     C 2899   8.022  11.890   1.715  0.6594 -0.2336  1.3536
  763MOL0     O 2900   8.091  11.863   1.607 -1.1491 -0.0764  0.1375
  763MOL0     C 2901   8.188  11.945   1.555  0.8850 -0.7254 -0.5669
  763MOL0     C 2902   8.173  11.991   1.426  0.5788 -0.6234 -0.0369
  763MOL0     C 2903   8.267  12.076   1.373 -0.1172 -0.8329 -0.0442
  763MOL0     C 2904   8.374  12.123   1.458  0.0241 -0.8961 -0.2668
  763MOL0     O 2905   8.462  12.227   1.430 -0.2630  0.2769  1.0411
  763MOL0     C 2906   8.421  12.313   1.319  0.6477 -0.2906 -0.2337
  763MOL0     C 2907   8.535  12.412   1.300 -0.1527 -0.3265 -0.7932
  763MOL0     C 2908   8.586  12.481   1.430  0.1945  0.4654 -0.0295
  763MOL0     C 2909   8.473  12.561   1.499  0.1773 -0.2216  1.6384
  763MOL0     C 2910   8.514  12.705   1.521  0.7095 -0.7961  0.0723
  763MOL0     C 2911   8.403  12.794   1.573  0.0825  0.9245  0.3011
  763MOL0     C 2912   8.363  12.762   1.720 -0.0004  0.5773 -0.8544
  763MOL0     C 2913   8.299  12.884   1.779 -0.6288 -1.1108 -0.5308
  763MOL0    Cl 2914   8.171  12.963   1.674  0.3302 -0.4930 -0.3768
  763MOL0     C 2915   8.381  12.077   1.592 -0.3269  0.7862  0.3052
  763MOL0     C 2916   8.297  11.975   1.628 -0.3476  0.0047 -0.2882
  763MOL0     O 2917   8.015  11.998   1.771 -0.6412 -0.4662 -1.4021
  763MOL0     C 2918   7.905  11.667   1.693 -0.1289 -0.9082  0.4370
  763MOL0     C 2919   7.834  11.558   1.739  0.2227 -0.0932 -0.2678
  763MOL0     N 2920   7.389  11.023   2.094 -0.0990 -0.4118  0.8749
  763MOL0     N 2921   7.282  11.001   2.165 -0.4167  0.4680 -0.0220
  763MOL0     C 2922   6.532  11.259   1.868 -0.3215  0.8500  0.6252
  763MOL0     C 2923   6.437  11.190   1.788 -0.3689 -0.4646 -0.6685
  763MOL0     C 2924   6.128  11.151   1.425 -0.6077 -1.2899  0.1241
  763MOL0     C 2925   6.029  11.084   1.508  1.4712 -0.3613 -0.2358
  763MOL0     C 2926   5.919  11.012   1.457  0.5775 -0.0694 -0.1308
  763MOL0     C 2927   5.914  11.007   1.319 -0.8272  1.1396  0.1107
  763MOL0     O 2928   5.811  10.932   1.264 -0.4811 -0.7224  0.7484
  763MOL0     C 2929   5.694  11.017   1.243  0.5969  0.6040 -0.2662
  763MOL0     C 2930   5.568  10.936   1.211  0.6550 -0.3076  0.0338
  763MOL0     C 2931   5.428  11.025   1.218 -0.0247  0.1683  0.1962
  763MOL0     C 2932   5.302  10.942   1.175  1.4189  0.0139 -0.9451
  763MOL0     C 2933   5.297  10.945   1.030  0.3420 -0.0525 -0.0663
  763MOL0     C 2934   5.285  10.921   0.911  0.4712  0.1045  0.2156
  763MOL0     C 2935   6.010  11.069   1.231  0.3155 -0.3423  0.9421
  763MOL0     C 2936   6.117  11.144   1.285  0.7865  0.2111  0.0366
  763MOL0     C 2937   6.212  11.186   1.176  0.0439  0.5892  0.0973
  763MOL0     H 2938   6.484  11.363   1.495 -0.4173 -1.4913 -0.3653
  763MOL0     H 2939   6.637  11.480   1.624  0.1035 -1.1896 -3.4593
  763MOL0     H 2940   6.637  11.411   2.058  0.6388  4.1019  0.2325
  763MOL0     H 2941   6.769  11.314   1.986 -3.3148 -1.5071  1.4206
  763MOL0     H 2942   6.802  11.616   2.058 -0.4022 -0.1686 -2.5282
  763MOL0     H 2943   6.919  11.499   2.004 -1.9791 -1.0934 -2.0754
  763MOL0     H 2944   6.843  11.357   2.218  2.5837  0.1546 -0.8684
  763MOL0     H 2945   6.816  11.524   2.272 -1.5942 -0.1916 -0.8894
  763MOL0     H 2946   7.073  11.423   2.136  0.4951 -1.9107  0.8612
  763MOL0     H 2947   7.045  11.574   2.234 -0.7997 -0.6344  3.2074
  763MOL0     H 2948   7.171  11.440   2.378  0.8456 -0.3540 -4.1023
  763MOL0     H 2949   7.003  11.423   2.434  0.9029 -0.7095  1.3680
  763MOL0     H 2950   6.994  11.213   2.335 -1.1261  0.1105  0.0034
  763MOL0     H 2951   7.128  11.244   2.225 -3.2872  0.6947  0.1544
  763MOL0     H 2952   7.129  11.176   2.528  0.6370 -1.1588 -0.3428
  763MOL0     H 2953   7.279  11.232   2.429  1.9333 -4.0631 -2.8576
  763MOL0     H 2954   7.268  10.988   2.490 -1.3095 -0.8342  1.0625
  763MOL0     H 2955   7.128  10.976   2.386 -0.4128  1.9841  0.0640
  763MOL0     H 2956   7.498  11.068   2.400 -1.6538 -0.4095  0.5409
  763MOL0     H 2957   7.698  11.083   2.237  0.7572  1.9240 -0.4017
  763MOL0     H 2958   7.659  11.005   2.084  1.0072  1.5061 -1.2382
  763MOL0     H 2959   7.537  11.223   2.011  1.2228 -0.5620 -1.4497
  763MOL0     H 2960   7.611  11.302   2.160 -0.9815 -1.4133  1.5408
  763MOL0     H 2961   7.783  11.147   1.954 -0.2140 -0.7605  1.1112
  763MOL0     H 2962   7.829  11.262   2.081 -1.1250 -1.9840  2.1468
  763MOL0     H 2963   7.685  11.293   1.807 -0.2654  0.2646 -0.1591
  763MOL0     H 2964   7.854  11.331   1.840  0.3697  1.7520  0.7443
  763MOL0     H 2965   7.740  11.676   2.035  0.4931 -1.5603  0.9917
  763MOL0     H 2966   7.902  11.859   1.974 -1.1069  0.1449 -0.6332
  763MOL0     H 2967   8.091  11.946   1.372 -1.1850  2.3318 -0.0603
  763MOL0     H 2968   8.250  12.105   1.270 -1.4706 -1.9893 -0.1749
  763MOL0     H 2969   8.412  12.250   1.231 -1.5556 -4.7003  2.7947
  763MOL0     H 2970   8.322  12.359   1.327  0.6499 -0.2358 -0.5134
  763MOL0     H 2971   8.605  12.349   1.245 -1.0390 -2.3360  0.2828
  763MOL0     H 2972   8.495  12.489   1.233  0.7956  0.8339 -0.0775
  763MOL0     H 2973   8.615  12.397   1.494 -1.0194 -2.0648 -2.5795
  763MOL0     H 2974   8.682  12.529   1.411  0.7036 -0.7588 -0.6332
  763MOL0     H 2975   8.463  12.512   1.596 -0.1400 -0.9239  1.2543
  763MOL0     H 2976   8.388  12.559   1.431  2.0869  0.3925 -0.9292
  763MOL0     H 2977   8.533  12.746   1.422 -0.5232  0.1034  0.1939
  763MOL0     H 2978   8.611  12.713   1.573  0.9649  1.3149 -0.6583
  763MOL0     H 2979   8.443  12.896   1.569 -0.4872  1.2337 -5.4498
  763MOL0     H 2980   8.311  12.797   1.514  1.0811  2.3248 -1.2880
  763MOL0     H 2981   8.442  12.730   1.789 -1.2141 -2.4808 -0.7024
  763MOL0     H 2982   8.298  12.674   1.717  2.0554 -1.0538 -0.1622
  763MOL0     H 2983   8.264  12.855   1.879  0.4746 -3.1241 -0.6873
  763MOL0     H 2984   8.375  12.961   1.793 -0.8453 -0.4476 -2.7177
  763MOL0     H 2985   8.464  12.100   1.658  1.4613  1.4182 -2.0445
  763MOL0     H 2986   8.308  11.945   1.732  2.9489 -3.3265 -1.3396
  763MOL0     H 2987   7.942  11.662   1.591  1.9369 -1.7582  1.1750
  763MOL0     H 2988   7.824  11.467   1.680  0.6945 -0.4481  0.1863
  763MOL0     H 2989   6.547  11.230   1.971 -2.3991  1.2429  1.0816
  763MOL0     H 2990   6.374  11.116   1.837  2.8655 -2.6030  0.6547
  763MOL0     H 2991   6.036  11.084   1.616  1.9047  0.3228 -0.2550
  763MOL0     H 2992   5.848  10.949   1.508 -0.3136 -0.7765 -2.1639
  763MOL0     H 2993   5.710  11.096   1.168  0.9840  3.1776  2.3549
  763MOL0     H 2994   5.684  11.067   1.339 -1.4479 -1.2160  0.5511
  763MOL0     H 2995   5.573  10.859   1.289  2.3789 -0.7573 -0.4789
  763MOL0     H 2996   5.575  10.889   1.113 -1.2329  0.3979 -0.4995
  763MOL0     H 2997   5.445  11.111   1.153  6.4638  0.8372  2.0106
  763MOL0     H 2998   5.425  11.063   1.321 -0.3096 -3.4205  1.6987
  763MOL0     H 2999   5.310  10.837   1.206  0.1032 -0.5226 -2.2820
  763MOL0     H 3000   5.213  10.988   1.218  2.0472  0.4195 -0.0516
  763MOL0     H 3001   5.260  10.881   0.815 -2.5216  1.6042  0.2598
  763MOL0     H 3002   5.996  11.051   1.125  2.5616 -0.2963  0.6014
  763MOL0     H 3003   6.235  11.293   1.175 -0.8958  0.9726  3.6046
  763MOL0     H 3004   6.307  11.136   1.199  1.5667  4.5059  3.4939
  763MOL0     H 3005   6.187  11.161   1.073 -2.1610 -0.0861  0.7441
  764MOL0     O 3006   1.451   1.757  10.509  0.2663  0.5028 -0.4240
  764MOL0     C 3007   1.544   1.688  10.485 -0.3928  0.6462  0.1094
  764MOL0     O 3008   1.589   1.643  10.358  0.2599 -0.7444  0.4231
  764MOL0     C 3009   1.525   1.694  10.251  1.5641 -0.2125  0.8215
  764MOL0     C 3010   1.420   1.626  10.187  0.8284 -0.1851  0.9933
  764MOL0     C 3011   1.358   1.676  10.069 -0.1333  0.5754  0.2177
  764MOL0     C 3012   1.395   1.799  10.014  0.5102  0.4178 -0.3724
  764MOL0     O 3013   1.318   1.835   9.911 -1.0381 -0.7278 -0.2151
  764MOL0     C 3014   1.400   1.912   9.818 -0.0889  0.4802 -0.3144
  764MOL0     C 3015   1.335   1.886   9.681 -1.0461 -0.4964  0.1389
  764MOL0     C 3016   1.424   1.779   9.616 -0.3940  0.1162  0.2791
  764MOL0     C 3017   1.340   1.745   9.486  0.5914  0.8031 -0.7067
  764MOL0     C 3018   1.398   1.641   9.399  0.9448  0.6140  2.3073
  764MOL0     C 3019   1.301   1.564   9.298 -0.5332  0.8504 -0.0981
  764MOL0     C 3020   1.388   1.463   9.218 -0.2844  1.4997 -0.1422
  764MOL0     C 3021   1.294   1.389   9.123  1.0199 -0.7385  0.1876
  764MOL0     N 3022   1.381   1.279   9.053  0.2268  0.0532  0.2127
  764MOL0     C 3023   1.418   1.166   9.125 -0.2890 -0.4088 -0.1914
  764MOL0     C 3024   1.459   1.076   9.027 -0.5549  0.1175 -0.5671
  764MOL0     C 3025   1.504   0.934   9.038  0.4251  0.0067  0.9951
  764MOL0     C 3026   1.401   0.826   9.011 -0.8578  0.2426 -0.3431
  764MOL0     C 3027   1.457   0.687   9.027  0.6441  0.6836  0.2189
  764MOL0     C 3028   1.374   0.562   8.988 -1.5041  0.7740  0.3727
  764MOL0     O 3029   1.465   0.445   8.978  0.3210 -0.2531 -0.1406
  764MOL0     C 3030   1.424   0.341   8.893  0.3759  0.0723  0.5645
  764MOL0     C 3031   1.530   0.259   8.853 -0.4268  1.2506  0.2085
  764MOL0     C 3032   1.498   0.155   8.750 -0.0101  0.1210 -0.8429
  764MOL0     C 3033   1.368   0.145   8.697 -0.1856  0.7151 -0.0771
  764MOL0     C 3034   1.335   0.038   8.603 -0.2976 -0.5082 -0.4252
  764MOL0     O 3035   1.434  -0.056   8.573 -0.7744  0.2633  0.4156
  764MOL0     C 3036   1.413  -0.158   8.487 -0.5384 -1.3564  0.0731
  764MOL0     C 3037   1.337  -0.272   8.510 -0.0513  0.1804  0.2422
  764MOL0     C 3038   1.314  -0.358   8.408 -0.3935  0.5794 -0.2462
  764MOL0     C 3039   1.376  -0.339   8.281 -0.7060  0.0693 -0.2076
  764MOL0     O 3040   1.344  -0.414   8.175 -0.3044  0.2684  1.3674
  764MOL0     C 3041   1.293  -0.549   8.185  0.4587  0.0775 -0.1381
  764MOL0     C 3042   1.267  -0.606   8.042  0.7177 -0.6771  0.3605
  764MOL0     C 3043   1.162  -0.545   7.941 -0.0396 -0.4709 -0.1848
  764MOL0     C 3044   1.137  -0.644   7.819 -0.1495  0.3374 -0.6739
  764MOL0     C 3045   0.981  -0.639   7.799 -0.8196 -0.8127  0.3504
  764MOL0     C 3046   0.925  -0.751   7.704 -0.5402  0.0170  0.2058
  764MOL0     C 3047   0.775  -0.720   7.675  0.8660 -0.7051  0.3885
  764MOL0     C 3048   0.674  -0.740   7.800  0.0021  0.0611  0.1838
  764MOL0    Cl 3049   0.526  -0.756   7.722 -0.5981 -0.3821  0.1658
  764MOL0     C 3050   1.457  -0.229   8.264  0.2828  0.4482  0.3105
  764MOL0     C 3051   1.470  -0.130   8.358  0.4169 -0.2568 -0.5354
  764MOL0     O 3052   1.221   0.042   8.552 -0.6463 -0.4477 -0.0187
  764MOL0     C 3053   1.266   0.228   8.759  0.6578 -1.2561 -1.2484
  764MOL0     C 3054   1.298   0.317   8.859 -0.2514  0.0834  0.4076
  764MOL0     N 3055   1.456   1.140   8.908 -0.4056 -0.0763 -0.0729
  764MOL0     N 3056   1.401   1.259   8.923 -0.4690  0.0805 -0.5029
  764MOL0     C 3057   1.480   1.884  10.086 -1.3980 -0.7710  0.1393
  764MOL0     C 3058   1.549   1.829  10.201  1.0837 -0.1631 -0.4487
  764MOL0     C 3059   1.634   1.666  10.602 -0.3360  0.2728 -0.2772
  764MOL0     C 3060   1.696   1.769  10.667 -0.8824  0.8141 -0.5448
  764MOL0     C 3061   1.796   1.741  10.760  0.0438 -0.4805 -0.6353
  764MOL0     C 3062   1.821   1.610  10.800  0.3293 -0.0603 -0.9686
  764MOL0     O 3063   1.942   1.589  10.866 -0.2606 -0.3344  0.5109
  764MOL0     C 3064   1.992   1.457  10.907  0.1132  0.8595  0.0092
  764MOL0     C 3065   2.129   1.455  10.967 -0.1461 -1.4091  0.5465
  764MOL0     C 3066   2.238   1.538  10.889  1.0731 -0.7764  0.5354
  764MOL0     C 3067   2.381   1.485  10.914  0.3226 -1.1693  0.6558
  764MOL0     C 3068   2.420   1.386  10.817 -1.7883  0.2941 -0.3990
  764MOL0     C 3069   2.437   1.314  10.723  0.0253  0.3505 -0.1772
  764MOL0     C 3070   1.737   1.511  10.741 -0.5927  0.9172 -1.0250
  764MOL0     C 3071   1.649   1.531  10.644 -0.1461  0.4891  0.9198
  764MOL0     C 3072   1.573   1.412  10.592 -0.1030  0.8742  0.3252
  764MOL0     H 3073   1.388   1.527  10.219 -0.7900 -0.1589 -0.4059
  764MOL0     H 3074   1.275   1.624  10.022  0.8483  0.6974 -1.7709
  764MOL0     H 3075   1.398   2.017   9.848  1.0700 -0.4008  3.4241
  764MOL0     H 3076   1.505   1.883   9.825  0.0836  1.4495  2.1210
  764MOL0     H 3077   1.338   1.984   9.631 -1.7609  0.0340  1.0983
  764MOL0     H 3078   1.233   1.853   9.699  0.0432 -2.6611  3.0515
  764MOL0     H 3079   1.418   1.690   9.678  0.2563  0.3962  0.7527
  764MOL0     H 3080   1.526   1.806   9.589 -1.1618  0.5766 -2.4298
  764MOL0     H 3081   1.240   1.710   9.515  0.3820  0.6733 -1.5774
  764MOL0     H 3082   1.306   1.826   9.422  1.6869  3.3348  1.7232
  764MOL0     H 3083   1.476   1.682   9.334  0.1450 -2.1471 -0.6455
  764MOL0     H 3084   1.446   1.557   9.451  1.5169 -1.3206 -1.0719
  764MOL0     H 3085   1.225   1.508   9.353 -1.7510  1.6927 -0.8704
  764MOL0     H 3086   1.259   1.638   9.229 -2.1918  0.0780  0.0374
  764MOL0     H 3087   1.442   1.389   9.277 -1.8039  2.7244  3.0115
  764MOL0     H 3088   1.459   1.524   9.161  0.5962  0.5909 -0.0478
  764MOL0     H 3089   1.209   1.354   9.182 -0.8460 -0.1805 -2.0452
  764MOL0     H 3090   1.268   1.467   9.050  1.8851  3.1441  3.6278
  764MOL0     H 3091   1.418   1.136   9.229 -2.0768 -0.5507 -0.2011
  764MOL0     H 3092   1.572   0.931   8.953 -3.9086  1.1779 -2.9053
  764MOL0     H 3093   1.547   0.920   9.138  1.0095  1.2518  0.9447
  764MOL0     H 3094   1.314   0.840   9.076 -0.1278 -2.4831  1.3955
  764MOL0     H 3095   1.365   0.828   8.907 -2.0337  1.7393  0.0547
  764MOL0     H 3096   1.486   0.662   9.129 -2.9570 -0.7644  1.0545
  764MOL0     H 3097   1.549   0.686   8.969  0.3075  3.9111 -0.5933
  764MOL0     H 3098   1.337   0.584   8.887  1.0151 -1.1335 -1.0856
  764MOL0     H 3099   1.296   0.540   9.062  0.2786  0.5228  2.2520
  764MOL0     H 3100   1.625   0.286   8.896  0.4753  1.2487 -1.6973
  764MOL0     H 3101   1.580   0.091   8.718 -0.3658 -0.8718  0.1468
  764MOL0     H 3102   1.291  -0.289   8.606  0.6723 -0.4237  0.4908
  764MOL0     H 3103   1.238  -0.433   8.432 -1.8753  1.5893 -1.5695
  764MOL0     H 3104   1.374  -0.609   8.227  1.5834  1.8189  0.3078
  764MOL0     H 3105   1.206  -0.566   8.250  0.5516 -0.8093 -0.2360
  764MOL0     H 3106   1.360  -0.588   7.986 -1.2834  0.9317 -2.7657
  764MOL0     H 3107   1.244  -0.712   8.050 -1.0610 -0.2025  2.8226
  764MOL0     H 3108   1.070  -0.524   7.996  0.1089 -0.8999  0.2418
  764MOL0     H 3109   1.195  -0.444   7.915  1.1052 -0.1836  2.0986
  764MOL0     H 3110   1.171  -0.748   7.829 -1.0002 -0.1878 -2.6635
  764MOL0     H 3111   1.194  -0.613   7.730  0.8498  0.8884  0.1359
  764MOL0     H 3112   0.960  -0.545   7.747 -0.1674  0.6314  2.5619
  764MOL0     H 3113   0.920  -0.644   7.889 -2.2748  0.3886 -0.5190
  764MOL0     H 3114   0.976  -0.758   7.608 -0.2891  0.2827  0.3175
  764MOL0     H 3115   0.941  -0.851   7.744  4.5994 -0.5474 -2.5120
  764MOL0     H 3116   0.739  -0.798   7.607  3.9048 -0.6519 -1.4872
  764MOL0     H 3117   0.762  -0.627   7.619  1.1397 -1.6689 -1.3704
  764MOL0     H 3118   0.704  -0.832   7.852 -0.1372 -0.8210 -1.2332
  764MOL0     H 3119   0.672  -0.645   7.854 -2.1598 -0.2359  0.7233
  764MOL0     H 3120   1.495  -0.206   8.165  0.8538 -0.7112  0.2522
  764MOL0     H 3121   1.541  -0.048   8.356 -1.4846  1.4826 -0.2464
  764MOL0     H 3122   1.165   0.217   8.720 -0.0334  3.2049 -1.1777
  764MOL0     H 3123   1.215   0.373   8.902 -0.3231 -0.7552  1.4036
  764MOL0     H 3124   1.504   1.986  10.058 -2.6537 -0.3366  0.6106
  764MOL0     H 3125   1.621   1.901  10.239  2.8823 -1.8946 -0.4140
  764MOL0     H 3126   1.678   1.871  10.635 -3.3944  0.9775  1.1390
  764MOL0     H 3127   1.862   1.819  10.797  5.4523 -4.3175 -0.9659
  764MOL0     H 3128   1.981   1.388  10.823 -1.2053 -0.1038  0.9326
  764MOL0     H 3129   1.921   1.411  10.976  1.6511 -0.6274  0.6851
  764MOL0     H 3130   2.152   1.349  10.976 -2.1830 -1.7686  2.3757
  764MOL0     H 3131   2.129   1.508  11.063  1.5107  1.6428 -0.9696
  764MOL0     H 3132   2.233   1.639  10.929 -3.0667 -0.0779 -1.2689
  764MOL0     H 3133   2.209   1.545  10.784 -3.0961 -1.0378  1.5169
  764MOL0     H 3134   2.453   1.566  10.904 -0.2919 -0.7270 -0.3417
  764MOL0     H 3135   2.395   1.438  11.012 -0.4922  0.3176  1.5120
  764MOL0     H 3136   2.454   1.256  10.635 -0.5947 -2.1393  1.2554
  764MOL0     H 3137   1.758   1.410  10.773 -0.8647  1.0852 -0.2897
  764MOL0     H 3138   1.580   1.418  10.483 -4.2748 -0.7905 -0.2403
  764MOL0     H 3139   1.622   1.317  10.618 -0.7253  0.5905  0.4973
  764MOL0     H 3140   1.467   1.416  10.621 -1.2856 -1.9043 -2.8725
  765MOL0     O 3141   4.475   9.423   3.937  1.0597 -0.5505  0.1432
  765MOL0     C 3142   4.578   9.368   3.908 -0.8055 -0.1880 -0.0845
  765MOL0     O 3143   4.597   9.272   3.806 -1.3261 -0.0615 -0.2188
  765MOL0     C 3144   4.494   9.201   3.758  0.8527 -0.0693 -0.5954
  765MOL0     C 3145   4.426   9.116   3.845  0.9095 -0.4222 -0.3772
  765MOL0     C 3146   4.313   9.054   3.795 -0.1026 -0.4782  0.2242
  765MOL0     C 3147   4.288   9.052   3.659  0.2652  0.3370  0.0373
  765MOL0     O 3148   4.183   8.975   3.619 -0.5185  0.3580 -0.1081
  765MOL0     C 3149   4.134   8.978   3.487  0.7097  0.3516  0.2774
  765MOL0     C 3150   4.010   8.901   3.471 -0.5228  0.9459  0.7412
  765MOL0     C 3151   4.042   8.756   3.481  0.8025  1.0285 -0.2970
  765MOL0     C 3152   4.077   8.703   3.345  0.2625 -0.0594  0.4608
  765MOL0     C 3153   4.098   8.550   3.334 -0.2354  0.1634 -0.2445
  765MOL0     C 3154   4.116   8.485   3.194  0.2867 -1.3691 -0.6351
  765MOL0     C 3155   4.023   8.551   3.085  0.1692 -0.7143 -0.4735
  765MOL0     C 3156   4.042   8.484   2.956 -0.2572  0.2956 -0.1997
  765MOL0     N 3157   3.919   8.400   2.912 -0.2973  0.4158 -0.3525
  765MOL0     C 3158   3.798   8.459   2.867  0.5455 -0.0060  0.0986
  765MOL0     C 3159   3.708   8.355   2.851  0.4173  0.2667 -0.0297
  765MOL0     C 3160   3.578   8.371   2.797  1.4452  0.1356 -1.7513
  765MOL0     C 3161   3.467   8.406   2.900 -0.2804  0.7144  0.1025
  765MOL0     C 3162   3.491   8.536   2.972  0.5249  0.0546  0.3030
  765MOL0     C 3163   3.358   8.559   3.055 -0.4878 -0.1427 -0.0706
  765MOL0     O 3164   3.354   8.689   3.125 -0.2093 -0.6580 -0.3925
  765MOL0     C 3165   3.242   8.747   3.163  0.7851  0.3764 -0.7732
  765MOL0     C 3166   3.246   8.879   3.192 -0.5662  0.4592  0.4798
  765MOL0     C 3167   3.137   8.949   3.243 -0.3256  0.3648 -0.5966
  765MOL0     C 3168   3.015   8.878   3.276 -0.2280  0.5567 -0.2402
  765MOL0     C 3169   2.897   8.950   3.334 -0.4699  0.2459  0.0340
  765MOL0     O 3170   2.928   9.065   3.386  0.3833 -0.3374  0.0928
  765MOL0     C 3171   2.841   9.147   3.464 -1.3024  0.0297 -0.7391
  765MOL0     C 3172   2.901   9.271   3.507 -0.1007  0.9281 -0.3112
  765MOL0     C 3173   2.841   9.354   3.598 -0.3038  0.4580 -0.4170
  765MOL0     C 3174   2.714   9.323   3.650  0.2611  0.1360 -1.2197
  765MOL0     O 3175   2.649   9.409   3.733  0.3598  0.8756  0.8898
  765MOL0     C 3176   2.669   9.549   3.698 -0.1945 -0.6664  0.0361
  765MOL0     C 3177   2.555   9.637   3.759  0.6553  0.7325 -0.4792
  765MOL0     C 3178   2.410   9.562   3.756 -0.7435  0.3672  0.3021
  765MOL0     C 3179   2.302   9.663   3.776  1.2593 -0.7365  1.1062
  765MOL0     C 3180   2.270   9.734   3.638 -0.2076 -0.7490 -0.1357
  765MOL0     C 3181   2.156   9.845   3.659 -0.3269  1.1683 -0.2878
  765MOL0     C 3182   2.176   9.968   3.566 -0.5441 -0.5565 -1.3251
  765MOL0     C 3183   2.039  10.025   3.525 -0.7529 -0.5521 -0.2847
  765MOL0    Cl 3184   2.080  10.180   3.430 -0.0655  0.2955  0.4377
  765MOL0     C 3185   2.658   9.192   3.612  0.2937 -0.4791 -0.3697
  765MOL0     C 3186   2.718   9.112   3.517  0.0199  0.4653 -0.5740
  765MOL0     O 3187   2.781   8.897   3.324  0.5978  0.7976  0.1223
  765MOL0     C 3188   3.003   8.746   3.234 -0.4502 -0.0260 -0.2401
  765MOL0     C 3189   3.119   8.678   3.187 -0.6356  0.1108  0.7648
  765MOL0     N 3190   3.778   8.235   2.888  0.1003 -0.5380 -0.0766
  765MOL0     N 3191   3.897   8.273   2.943 -0.2467  0.3614  0.4632
  765MOL0     C 3192   4.360   9.135   3.565  0.2896  1.1801 -0.5295
  765MOL0     C 3193   4.464   9.206   3.619  0.5358  0.0537  0.5041
  765MOL0     C 3194   4.699   9.416   3.979 -0.6685 -0.0869 -0.4788
  765MOL0     C 3195   4.821   9.413   3.907  0.6142  1.5771  0.0570
  765MOL0     C 3196   4.943   9.468   3.953  0.1162 -0.4989  0.0319
  765MOL0     C 3197   4.939   9.530   4.082  0.0862  0.2983 -0.3936
  765MOL0     O 3198   5.043   9.596   4.134 -0.2938  0.0881 -0.5755
  765MOL0     C 3199   5.098   9.710   4.064 -0.5324  0.0019  0.5360
  765MOL0     C 3200   5.163   9.795   4.166  0.0675 -0.1555 -0.7702
  765MOL0     C 3201   5.239   9.918   4.107  0.6621 -0.3876 -0.0636
  765MOL0     C 3202   5.377   9.898   4.041 -0.4175  0.1753  0.0456
  765MOL0     C 3203   5.472   9.811   4.115  0.2040 -1.0359  0.3157
  765MOL0     C 3204   5.541   9.734   4.179  0.0091 -0.7172  0.3713
  765MOL0     C 3205   4.812   9.534   4.156  0.0107  0.6666  0.1100
  765MOL0     C 3206   4.697   9.476   4.107 -0.0290  0.1376 -1.3893
  765MOL0     C 3207   4.568   9.493   4.191 -0.0942  0.5313  0.0896
  765MOL0     H 3208   4.456   9.103   3.949  0.5100 -3.1001 -0.5329
  765MOL0     H 3209   4.251   8.996   3.861 -0.5812 -1.4183 -1.0108
  765MOL0     H 3210   4.097   9.078   3.463 -2.5868  0.0103  3.1548
  765MOL0     H 3211   4.208   8.948   3.413  1.1949  0.7895  0.5718
  765MOL0     H 3212   3.961   8.922   3.375 -2.2026 -0.4933  1.2235
  765MOL0     H 3213   3.938   8.914   3.553  0.2407 -1.1616  1.8044
  765MOL0     H 3214   3.952   8.699   3.507  0.5582  0.2602 -2.5969
  765MOL0     H 3215   4.119   8.744   3.558 -1.7499  0.2677  2.3330
  765MOL0     H 3216   3.998   8.732   3.274  1.8308  1.9077 -0.5763
  765MOL0     H 3217   4.169   8.750   3.309  1.1280  0.8053  3.5482
  765MOL0     H 3218   4.181   8.524   3.402  1.8945  1.3462 -2.2327
  765MOL0     H 3219   4.010   8.494   3.365  0.6680 -1.5687 -0.6813
  765MOL0     H 3220   4.220   8.506   3.165  0.1833  0.6532  0.3011
  765MOL0     H 3221   4.104   8.376   3.203 -1.1149 -1.0312  3.2813
  765MOL0     H 3222   4.046   8.657   3.070  1.8732 -0.8974  0.5781
  765MOL0     H 3223   3.923   8.530   3.124  1.1054 -1.4434  1.7292
  765MOL0     H 3224   4.060   8.563   2.882 -2.3553  1.2937  0.2726
  765MOL0     H 3225   4.136   8.429   2.966  1.7670  3.8245  3.6841
  765MOL0     H 3226   3.781   8.566   2.862 -1.0708 -0.2339  0.0142
  765MOL0     H 3227   3.577   8.460   2.734  1.0367  3.7499  2.7810
  765MOL0     H 3228   3.557   8.283   2.735 -1.1051  1.0118 -2.2322
  765MOL0     H 3229   3.367   8.408   2.857 -1.1454  1.6601  2.0252
  765MOL0     H 3230   3.463   8.325   2.974  2.7387 -1.6460 -2.0721
  765MOL0     H 3231   3.508   8.612   2.895 -1.9300 -3.0070 -3.6252
  765MOL0     H 3232   3.566   8.541   3.052  2.7797  1.2384 -1.7383
  765MOL0     H 3233   3.351   8.482   3.132  2.2457 -1.6474 -1.1824
  765MOL0     H 3234   3.270   8.546   2.991 -1.3317  0.9128  0.8235
  765MOL0     H 3235   3.338   8.928   3.165 -0.3405  0.5450  1.3821
  765MOL0     H 3236   3.152   9.056   3.256  0.2230  1.3690 -6.5039
  765MOL0     H 3237   3.009   9.277   3.492  0.0640  1.8148  1.1101
  765MOL0     H 3238   2.899   9.441   3.627 -0.3161 -0.4187  2.5876
  765MOL0     H 3239   2.767   9.577   3.737 -0.1367 -0.9124  0.0739
  765MOL0     H 3240   2.669   9.561   3.589  0.5795  4.3281  0.3900
  765MOL0     H 3241   2.583   9.666   3.861 -2.7822 -1.2379  1.2134
  765MOL0     H 3242   2.563   9.733   3.707 -2.0224  2.3753  1.8423
  765MOL0     H 3243   2.396   9.519   3.656  1.2521  2.2797 -0.8954
  765MOL0     H 3244   2.406   9.498   3.845  0.5268 -0.6424 -0.3465
  765MOL0     H 3245   2.328   9.742   3.848  2.2022 -1.3998  1.5160
  765MOL0     H 3246   2.212   9.621   3.822  1.7757 -1.0911  1.8166
  765MOL0     H 3247   2.239   9.665   3.559 -0.5648  0.1601 -0.8070
  765MOL0     H 3248   2.365   9.784   3.617  0.0022 -0.0758  2.1212
  765MOL0     H 3249   2.069   9.788   3.624 -0.4033  1.7329 -1.0471
  765MOL0     H 3250   2.148   9.886   3.760 -1.6486 -1.8282  0.9585
  765MOL0     H 3251   2.240   9.940   3.481  4.4475 -0.5911  1.9928
  765MOL0     H 3252   2.237  10.043   3.619  2.4104 -3.8293  0.3060
  765MOL0     H 3253   1.979   9.959   3.461 -0.9702  1.4977 -2.3625
  765MOL0     H 3254   1.990  10.055   3.618 -0.5411 -2.0423  0.3400
  765MOL0     H 3255   2.563   9.165   3.656 -0.6861  1.3411 -1.2449
  765MOL0     H 3256   2.664   9.022   3.489 -0.6080  0.0571  1.6867
  765MOL0     H 3257   2.904   8.703   3.247 -0.8463  0.4812 -1.4700
  765MOL0     H 3258   3.114   8.573   3.157 -1.4910  0.2900  0.2347
  765MOL0     H 3259   4.343   9.136   3.458  2.3429 -1.1114 -0.9816
  765MOL0     H 3260   4.530   9.263   3.555  0.8144  0.2444  0.9509
  765MOL0     H 3261   4.823   9.365   3.810 -2.1562  3.1591 -0.9244
  765MOL0     H 3262   5.039   9.452   3.906 -0.4983  1.8471 -2.2701
  765MOL0     H 3263   5.036   9.780   4.008  1.4699  1.5677  0.1379
  765MOL0     H 3264   5.174   9.674   3.993  1.4830  0.7442  2.2103
  765MOL0     H 3265   5.221   9.731   4.233 -3.7978 -3.3008 -0.0820
  765MOL0     H 3266   5.090   9.849   4.227  0.4277  0.6175 -1.0065
  765MOL0     H 3267   5.244   9.986   4.192  1.9681  1.7412 -1.7574
  765MOL0     H 3268   5.182   9.978   4.036  0.3854  1.0925  1.3690
  765MOL0     H 3269   5.354   9.855   3.943 -2.8551  0.8017  0.2717
  765MOL0     H 3270   5.414   9.998   4.016  1.6614 -0.0471  1.9417
  765MOL0     H 3271   5.598   9.670   4.243  1.2114  1.2019  1.3029
  765MOL0     H 3272   4.817   9.582   4.253 -1.1617 -1.2878  1.1961
  765MOL0     H 3273   4.595   9.500   4.297 -1.2676  0.4010  0.4116
  765MOL0     H 3274   4.530   9.594   4.173 -2.2661  0.0923  1.7269
  765MOL0     H 3275   4.510   9.401   4.181 -2.4327  1.6351  2.3448
  766MOL0     O 3276   5.100   5.785   0.837  0.3235 -0.0532 -0.3082
  766MOL0     C 3277   5.077   5.677   0.893 -0.8186  0.5536 -0.0447
  766MOL0     O 3278   5.142   5.625   0.994  0.3342 -1.0357 -1.5291
  766MOL0     C 3279   5.248   5.698   1.031 -0.2506 -0.6139 -0.7719
  766MOL0     C 3280   5.383   5.651   1.000  0.9294  0.0170  0.3602
  766MOL0     C 3281   5.486   5.725   1.043 -0.2400  0.5355 -0.3511
  766MOL0     C 3282   5.474   5.838   1.118  0.3802 -0.1341 -0.8776
  766MOL0     O 3283   5.586   5.917   1.133 -0.3325 -0.0508 -0.7700
  766MOL0     C 3284   5.586   6.056   1.183 -0.7731  0.3985  0.5251
  766MOL0     C 3285   5.586   6.050   1.338 -0.6452 -0.4372 -0.5133
  766MOL0     C 3286   5.593   6.194   1.384  0.3275  0.6367 -0.8377
  766MOL0     C 3287   5.717   6.281   1.346  0.2475  0.6355 -0.6409
  766MOL0     C 3288   5.715   6.398   1.454  0.6735 -0.8594 -1.2434
  766MOL0     C 3289   5.844   6.482   1.446  0.5338 -0.9972 -0.3463
  766MOL0     C 3290   5.827   6.630   1.486  0.3189 -1.5008  0.2988
  766MOL0     C 3291   5.779   6.721   1.375  0.3029 -0.3582 -0.3061
  766MOL0     N 3292   5.645   6.681   1.320 -0.7036 -1.2581  0.0044
  766MOL0     C 3293   5.519   6.725   1.362 -0.1515 -0.0263 -0.1369
  766MOL0     C 3294   5.435   6.659   1.280  0.5782 -1.0040  0.4894
  766MOL0     C 3295   5.280   6.666   1.283 -0.1798  1.2003 -0.2526
  766MOL0     C 3296   5.229   6.577   1.392  0.0050 -0.2534 -0.2729
  766MOL0     C 3297   5.097   6.518   1.372  1.4578 -0.4623 -0.3790
  766MOL0     C 3298   5.031   6.431   1.480 -0.5646 -0.8414 -0.3583
  766MOL0     O 3299   5.009   6.502   1.607 -0.1940  0.0700  0.0826
  766MOL0     C 3300   4.981   6.419   1.711  0.9981  0.3893 -0.4134
  766MOL0     C 3301   5.067   6.411   1.818  0.0618 -0.5498  0.5837
  766MOL0     C 3302   5.056   6.323   1.925  1.1913  0.5520 -0.2920
  766MOL0     C 3303   4.966   6.221   1.915  0.3493  0.0749  0.3347
  766MOL0     C 3304   4.955   6.123   2.025  0.3666 -0.7943 -0.8810
  766MOL0     O 3305   5.057   6.109   2.113 -0.0383 -0.5131  0.5020
  766MOL0     C 3306   5.061   6.002   2.198  0.0294  0.3509 -0.5808
  766MOL0     C 3307   4.950   5.938   2.268 -0.5083 -0.3762 -0.1787
  766MOL0     C 3308   4.960   5.808   2.329 -0.7648 -0.2683  0.6921
  766MOL0     C 3309   5.078   5.730   2.327  1.2958  0.4568  0.1481
  766MOL0     O 3310   5.065   5.606   2.384 -0.1018 -0.0069 -0.2761
  766MOL0     C 3311   5.174   5.550   2.451 -0.8190  0.4420 -0.0095
  766MOL0     C 3312   5.105   5.440   2.531 -0.4666  1.0035  0.2319
  766MOL0     C 3313   5.203   5.407   2.640 -0.0773  0.6711 -0.5321
  766MOL0     C 3314   5.338   5.362   2.600  0.3324 -0.4413 -0.1110
  766MOL0     C 3315   5.381   5.244   2.684 -0.9770 -0.4069  0.4069
  766MOL0     C 3316   5.395   5.275   2.833  0.1149 -0.3106  0.7016
  766MOL0     C 3317   5.398   5.148   2.913  0.4905 -0.3470 -0.1166
  766MOL0     C 3318   5.425   5.171   3.066  0.4100  0.3441  0.4002
  766MOL0    Cl 3319   5.286   5.273   3.136  0.2933  0.3631  0.6562
  766MOL0     C 3320   5.186   5.796   2.269 -0.1266  0.7260 -0.6038
  766MOL0     C 3321   5.179   5.927   2.218 -0.2187 -0.1194  0.4126
  766MOL0     O 3322   4.851   6.065   2.032  0.5857 -0.3389 -0.8927
  766MOL0     C 3323   4.872   6.221   1.806 -0.2299 -0.1072 -0.0711
  766MOL0     C 3324   4.876   6.324   1.710  0.6294  0.0509  0.1621
  766MOL0     N 3325   5.508   6.584   1.194  0.4356 -0.2060 -0.2123
  766MOL0     N 3326   5.630   6.611   1.208 -0.6526  0.8760 -0.2195
  766MOL0     C 3327   5.343   5.882   1.157 -0.3805  0.2898  0.1413
  766MOL0     C 3328   5.232   5.808   1.114  0.0343  0.8797 -0.5375
  766MOL0     C 3329   4.963   5.605   0.837  0.6574  0.7490  0.0308
  766MOL0     C 3330   4.979   5.461   0.834 -1.3854 -1.0164  0.3470
  766MOL0     C 3331   4.867   5.383   0.786 -0.0127 -0.5082 -0.9436
  766MOL0     C 3332   4.750   5.446   0.738  0.7557  0.1794 -0.4430
  766MOL0     O 3333   4.642   5.373   0.689  0.3646  0.2793  0.3886
  766MOL0     C 3334   4.622   5.243   0.743 -0.2118  0.2556  0.5073
  766MOL0     C 3335   4.487   5.186   0.696  0.5801 -0.0844 -1.3688
  766MOL0     C 3336   4.384   5.287   0.729 -0.5850  0.4989 -0.1660
  766MOL0     C 3337   4.244   5.222   0.702  0.2004 -0.2812  0.0264
  766MOL0     C 3338   4.143   5.330   0.708  0.4659 -0.6754  0.2347
  766MOL0     C 3339   4.071   5.430   0.720 -0.3899 -1.4797  0.0616
  766MOL0     C 3340   4.742   5.584   0.720 -0.2149 -0.0600  0.0311
  766MOL0     C 3341   4.843   5.668   0.775 -0.1471  1.2673 -0.4315
  766MOL0     C 3342   4.810   5.816   0.783  0.1641  0.9039 -0.0851
  766MOL0     H 3343   5.414   5.564   0.944 -0.4366  1.2258 -2.4600
  766MOL0     H 3344   5.587   5.690   1.023  0.5911  2.1081  0.8129
  766MOL0     H 3345   5.680   6.092   1.143 -1.2693 -0.0729 -1.1467
  766MOL0     H 3346   5.501   6.118   1.151 -1.9160 -0.2838  2.0627
  766MOL0     H 3347   5.680   6.001   1.365  0.8315  2.6781  0.5270
  766MOL0     H 3348   5.499   5.994   1.373 -1.5237  1.0074 -0.2714
  766MOL0     H 3349   5.583   6.196   1.493 -1.0767  1.3672 -0.9619
  766MOL0     H 3350   5.506   6.247   1.343  0.0471 -0.5094 -1.7875
  766MOL0     H 3351   5.806   6.219   1.362 -0.7651 -0.7375 -0.0752
  766MOL0     H 3352   5.694   6.309   1.243 -0.3188 -0.4117 -0.8175
  766MOL0     H 3353   5.626   6.460   1.436  1.6537  0.5338 -1.4535
  766MOL0     H 3354   5.702   6.359   1.555  5.0535 -1.4795 -0.7113
  766MOL0     H 3355   5.914   6.439   1.519 -0.5140 -0.8760  0.7729
  766MOL0     H 3356   5.894   6.480   1.349 -0.9955  1.3337 -1.2652
  766MOL0     H 3357   5.924   6.671   1.516 -0.1737 -2.7030  4.1929
  766MOL0     H 3358   5.758   6.639   1.570  1.7164 -2.4472  1.6214
  766MOL0     H 3359   5.789   6.826   1.405 -0.1565 -0.5729  0.6180
  766MOL0     H 3360   5.849   6.716   1.291  2.4524  0.3186  1.3372
  766MOL0     H 3361   5.498   6.776   1.455 -1.1486  3.2911 -2.0196
  766MOL0     H 3362   5.264   6.774   1.284  0.7449  1.3770 -1.8889
  766MOL0     H 3363   5.236   6.622   1.193 -0.1013  0.0814  0.2348
  766MOL0     H 3364   5.297   6.493   1.412  0.6326 -0.3154 -2.4901
  766MOL0     H 3365   5.231   6.624   1.491  1.9950 -1.5844  0.4037
  766MOL0     H 3366   5.098   6.461   1.279  0.6065  1.2920 -1.5184
  766MOL0     H 3367   5.025   6.596   1.346 -2.3596 -2.5321  2.7558
  766MOL0     H 3368   5.093   6.341   1.491  1.2641 -0.7786 -6.5000
  766MOL0     H 3369   4.938   6.389   1.441 -0.2934 -1.6398 -0.1723
  766MOL0     H 3370   5.135   6.495   1.824 -1.8441  0.9843  1.9069
  766MOL0     H 3371   5.133   6.321   2.002  2.0569  0.5263 -1.1379
  766MOL0     H 3372   4.849   5.978   2.274 -0.4375 -0.3063  0.6775
  766MOL0     H 3373   4.873   5.756   2.369 -2.2724 -0.4555 -2.5240
  766MOL0     H 3374   5.255   5.508   2.389 -0.3791  1.6987 -0.3057
  766MOL0     H 3375   5.215   5.625   2.518 -2.9597  0.6560  1.1322
  766MOL0     H 3376   5.006   5.477   2.557 -0.1297  3.7020 -1.9039
  766MOL0     H 3377   5.099   5.353   2.465  0.2678  0.5770  0.7052
  766MOL0     H 3378   5.206   5.492   2.709 -0.3908  1.8224 -1.8901
  766MOL0     H 3379   5.158   5.336   2.711  0.7904 -0.1458 -0.7813
  766MOL0     H 3380   5.411   5.443   2.611 -3.0366  2.6933  1.2780
  766MOL0     H 3381   5.339   5.330   2.495  3.8260  1.7746 -0.9465
  766MOL0     H 3382   5.487   5.220   2.669 -1.5289 -1.7041 -1.9625
  766MOL0     H 3383   5.317   5.155   2.677  1.8082 -2.4742 -1.0679
  766MOL0     H 3384   5.487   5.332   2.852 -1.7740  2.7910  1.3951
  766MOL0     H 3385   5.307   5.331   2.863 -2.8038 -2.6405 -2.6823
  766MOL0     H 3386   5.472   5.077   2.876 -0.8923 -1.5157 -0.7506
  766MOL0     H 3387   5.299   5.101   2.909 -0.8097  2.2270 -1.2309
  766MOL0     H 3388   5.416   5.076   3.120 -4.2759 -1.2036 -2.4621
  766MOL0     H 3389   5.519   5.220   3.093  0.9544  1.5076 -3.0990
  766MOL0     H 3390   5.275   5.741   2.296  0.7807  3.3867  2.4133
  766MOL0     H 3391   5.269   5.971   2.176  1.5749 -0.7083  3.3761
  766MOL0     H 3392   4.787   6.154   1.801 -0.1369 -0.2355  0.0679
  766MOL0     H 3393   4.804   6.329   1.629 -3.5771  0.4807  3.5513
  766MOL0     H 3394   5.337   5.966   1.225  2.5569  0.2245  0.6123
  766MOL0     H 3395   5.133   5.840   1.144 -1.0802  1.6776 -4.3991
  766MOL0     H 3396   5.066   5.404   0.862 -2.7470 -4.1495 -1.3235
  766MOL0     H 3397   4.874   5.275   0.791 -3.6216 -0.8240 -0.1192
  766MOL0     H 3398   4.619   5.257   0.851  0.4420  2.8446  0.2754
  766MOL0     H 3399   4.706   5.182   0.709  1.6069  1.8151  1.9948
  766MOL0     H 3400   4.467   5.090   0.744 -0.6827  0.3187 -1.0514
  766MOL0     H 3401   4.492   5.177   0.587  1.0241  1.7142 -1.5327
  766MOL0     H 3402   4.401   5.379   0.673 -3.0302  0.0522 -1.8210
  766MOL0     H 3403   4.382   5.305   0.837 -1.0044 -2.8990  0.5103
  766MOL0     H 3404   4.233   5.173   0.605 -2.6796 -1.6853  0.9466
  766MOL0     H 3405   4.223   5.154   0.785  1.5592  0.4645  1.0221
  766MOL0     H 3406   4.007   5.516   0.727  2.9075  1.2145 -0.0147
  766MOL0     H 3407   4.667   5.624   0.652 -1.5279 -0.6275  1.0893
  766MOL0     H 3408   4.798   5.860   0.882 -0.5150  0.9423 -0.1835
  766MOL0     H 3409   4.882   5.868   0.718  1.1020  0.7452  0.8013
  766MOL0     H 3410   4.719   5.839   0.727  0.4431 -1.0582 -1.4555
  767MOL0     O 3411   6.863   1.593  10.334  0.4818 -1.1613 -0.7148
  767MOL0     C 3412   6.825   1.602  10.217 -0.4037  0.4705  0.5719
  767MOL0     O 3413   6.853   1.514  10.122  0.4212 -0.7090 -0.2909
  767MOL0     C 3414   6.912   1.402  10.178 -0.5631 -0.0654 -0.0605
  767MOL0     C 3415   6.852   1.308  10.258  0.3359 -0.4240  0.2407
  767MOL0     C 3416   6.917   1.188  10.282 -0.8713  0.3628 -0.6386
  767MOL0     C 3417   7.040   1.146  10.217  0.9175 -1.4215 -0.3429
  767MOL0     O 3418   7.078   1.022  10.229 -0.1202 -0.3740 -0.4323
  767MOL0     C 3419   7.155   0.963  10.126  0.1245 -0.4882 -0.0497
  767MOL0     C 3420   7.128   0.809  10.114  0.2434 -0.1332  0.4810
  767MOL0     C 3421   7.226   0.710  10.189  0.3889 -0.0699  0.4203
  767MOL0     C 3422   7.198   0.562  10.155  0.5357 -0.0275 -0.8885
  767MOL0     C 3423   7.248   0.468  10.263  0.8795  0.4760  0.3210
  767MOL0     C 3424   7.195   0.327  10.260 -0.5836  0.5102 -0.4918
  767MOL0     C 3425   7.242   0.253  10.383 -0.2296 -0.4424  0.2178
  767MOL0     C 3426   7.203   0.106  10.375 -0.3114  1.0191 -0.5037
  767MOL0     N 3427   7.276   0.039  10.486 -0.2170 -0.8812  0.5450
  767MOL0     C 3428   7.247   0.055  10.618 -0.2421  0.3761  0.4117
  767MOL0     C 3429   7.341  -0.019  10.687 -1.0736  0.5159  0.1637
  767MOL0     C 3430   7.359  -0.028  10.838  0.2994  1.7427  0.2767
  767MOL0     C 3431   7.342  -0.179  10.883 -0.2914  0.7669  0.5643
  767MOL0     C 3432   7.452  -0.269  10.814  1.1840 -0.8664 -0.4346
  767MOL0     C 3433   7.501  -0.379  10.912 -0.1148 -1.5238 -0.4667
  767MOL0     O 3434   7.588  -0.311  11.003 -0.8734  0.0375 -0.1292
  767MOL0     C 3435   7.671  -0.389  11.092  0.0497 -0.3259  0.3322
  767MOL0     C 3436   7.724  -0.313  11.187 -0.2876  0.7161 -0.1377
  767MOL0     C 3437   7.813  -0.375  11.281  0.7335  0.6473  0.1652
  767MOL0     C 3438   7.838  -0.516  11.277 -0.0310  1.0705  0.0434
  767MOL0     C 3439   7.949  -0.574  11.352  0.3932 -0.1359  1.1652
  767MOL0     O 3440   7.984  -0.515  11.466  0.1227 -0.4329 -0.8678
  767MOL0     C 3441   8.084  -0.577  11.541 -0.0645 -0.9969  0.3737
  767MOL0     C 3442   8.056  -0.687  11.610 -0.1401 -0.1861 -0.0073
  767MOL0     C 3443   8.152  -0.753  11.690  0.0866  0.4442  0.4824
  767MOL0     C 3444   8.275  -0.700  11.706 -0.1035  0.0789 -0.0549
  767MOL0     O 3445   8.360  -0.769  11.791  0.1702 -0.9556 -0.9868
  767MOL0     C 3446   8.385  -0.683  11.907 -0.5990 -0.3038 -0.7352
  767MOL0     C 3447   8.296  -0.742  12.015 -0.2822 -0.2791 -0.8241
  767MOL0     C 3448   8.352  -0.882  12.056 -0.6064  0.1246  0.1368
  767MOL0     C 3449   8.256  -0.959  12.146  0.3422  0.9373  1.0155
  767MOL0     C 3450   8.288  -1.104  12.190  0.1172  0.1627 -0.3605
  767MOL0     C 3451   8.381  -1.094  12.310 -0.9671 -0.1041  0.7613
  767MOL0     C 3452   8.304  -1.081  12.443 -0.2038 -0.4943 -0.3587
  767MOL0     C 3453   8.392  -1.054  12.556  0.2899 -0.2534 -0.9784
  767MOL0    Cl 3454   8.287  -1.027  12.702 -0.4949 -0.3636 -0.2128
  767MOL0     C 3455   8.308  -0.573  11.641 -0.2393  0.7015 -0.0209
  767MOL0     C 3456   8.211  -0.513  11.563 -0.0404  0.4411  0.7668
  767MOL0     O 3457   8.005  -0.670  11.300  0.1832  0.5986 -0.1124
  767MOL0     C 3458   7.772  -0.591  11.181  0.2944  0.0855  0.6307
  767MOL0     C 3459   7.694  -0.529  11.085  0.7247  0.2962  0.7843
  767MOL0     N 3460   7.422  -0.079  10.597  0.4350  0.3077  0.1678
  767MOL0     N 3461   7.389  -0.036  10.477  0.3967  0.7543  0.1831
  767MOL0     C 3462   7.098   1.242  10.143  0.1309 -0.0861  0.0273
  767MOL0     C 3463   7.037   1.367  10.119 -0.6153  0.4014 -0.1501
  767MOL0     C 3464   6.772   1.738  10.179  0.0309  0.2718  0.3093
  767MOL0     C 3465   6.722   1.756  10.040  0.4190  0.8127 -0.1907
  767MOL0     C 3466   6.673   1.869   9.988  0.0314  0.0591 -0.6619
  767MOL0     C 3467   6.666   1.982  10.060 -0.5309 -0.8942 -0.9475
  767MOL0     O 3468   6.599   2.092   9.999 -0.8981  1.1305 -0.7315
  767MOL0     C 3469   6.466   2.114  10.045 -0.3341 -0.2061  0.2211
  767MOL0     C 3470   6.449   2.270  10.040 -0.4754  1.0720  0.4709
  767MOL0     C 3471   6.557   2.353  10.114  0.0846 -0.3185 -0.7133
  767MOL0     C 3472   6.534   2.344  10.269  0.1992  0.8732  0.9786
  767MOL0     C 3473   6.429   2.427  10.325 -0.4692  0.7730  0.4529
  767MOL0     C 3474   6.352   2.499  10.376  0.0465 -0.3535 -0.9213
  767MOL0     C 3475   6.719   1.977  10.193  0.6965  0.7828 -0.3797
  767MOL0     C 3476   6.757   1.854  10.257 -0.7989  0.6571 -0.0281
  767MOL0     C 3477   6.801   1.866  10.408  0.1509 -0.3397 -0.3029
  767MOL0     H 3478   6.751   1.319  10.295 -0.7588  0.4869 -2.7451
  767MOL0     H 3479   6.869   1.114  10.345  4.2382 -2.7547  0.1773
  767MOL0     H 3480   7.128   1.020  10.037  0.2948  0.0839  0.2581
  767MOL0     H 3481   7.262   0.967  10.149  0.3000  0.9862 -0.9787
  767MOL0     H 3482   7.126   0.777  10.009 -0.3759 -1.6364  0.9239
  767MOL0     H 3483   7.028   0.788  10.152  0.8286 -0.5714  1.8441
  767MOL0     H 3484   7.213   0.713  10.298 -1.1288 -0.3617  0.2742
  767MOL0     H 3485   7.331   0.737  10.175 -0.5055  3.0324 -1.3349
  767MOL0     H 3486   7.090   0.546  10.151  0.4118 -1.4339  3.0600
  767MOL0     H 3487   7.240   0.530  10.060  1.0026  2.0532 -1.4332
  767MOL0     H 3488   7.356   0.454  10.257  0.4123 -3.8891 -2.0075
  767MOL0     H 3489   7.229   0.506  10.364 -3.9083 -0.3991 -0.0243
  767MOL0     H 3490   7.088   0.310  10.250  0.2168 -5.2178 -3.7452
  767MOL0     H 3491   7.247   0.276  10.179  1.1097  1.3810 -0.0159
  767MOL0     H 3492   7.197   0.294  10.473  0.7525  0.9723  0.0868
  767MOL0     H 3493   7.346   0.275  10.409 -0.8921  1.7132  1.2714
  767MOL0     H 3494   7.096   0.096  10.398  0.2540 -2.2412  1.5646
  767MOL0     H 3495   7.222   0.058  10.279  0.2172 -0.8961  0.4922
  767MOL0     H 3496   7.171   0.117  10.665  0.3299  0.7873  0.8110
  767MOL0     H 3497   7.461  -0.001  10.867  0.0107  2.6594  0.4657
  767MOL0     H 3498   7.285   0.038  10.885  0.1719  2.0629 -0.3559
  767MOL0     H 3499   7.361  -0.166  10.990 -1.7440  4.0173  0.5427
  767MOL0     H 3500   7.241  -0.216  10.868 -0.7770  2.3126 -0.1937
  767MOL0     H 3501   7.539  -0.215  10.774  0.6636 -0.1824 -0.6736
  767MOL0     H 3502   7.411  -0.315  10.724  3.7667 -1.0242 -1.6207
  767MOL0     H 3503   7.567  -0.450  10.861  2.0460  0.2758 -0.3413
  767MOL0     H 3504   7.430  -0.434  10.974 -1.6280  3.2575  2.5866
  767MOL0     H 3505   7.709  -0.207  11.198 -0.5269  0.6355  0.3526
  767MOL0     H 3506   7.875  -0.314  11.346  1.9468  0.8608 -1.1520
  767MOL0     H 3507   7.954  -0.725  11.611 -0.7848  1.2531 -2.6308
  767MOL0     H 3508   8.115  -0.829  11.757 -0.9512 -0.6219 -1.2471
  767MOL0     H 3509   8.491  -0.680  11.932 -0.4632  2.5823 -1.3591
  767MOL0     H 3510   8.367  -0.576  11.898  1.7149  0.4722  2.2672
  767MOL0     H 3511   8.290  -0.677  12.103 -0.5005 -1.0512 -0.2541
  767MOL0     H 3512   8.191  -0.741  11.984 -0.3179  3.4072 -0.9278
  767MOL0     H 3513   8.359  -0.941  11.965 -1.5191 -2.1245  1.4427
  767MOL0     H 3514   8.455  -0.873  12.091  1.3592 -2.8307 -4.1234
  767MOL0     H 3515   8.169  -0.963  12.080  1.5460  1.4487 -0.6736
  767MOL0     H 3516   8.217  -0.897  12.228 -2.9548 -0.0379  0.3480
  767MOL0     H 3517   8.335  -1.169  12.116  4.4017  2.3531  0.1086
  767MOL0     H 3518   8.196  -1.149  12.229 -0.0524  1.5592  0.9668
  767MOL0     H 3519   8.444  -1.183  12.299 -0.1572  0.7666 -2.8404
  767MOL0     H 3520   8.448  -1.012  12.285 -2.9014  1.5923  0.9288
  767MOL0     H 3521   8.256  -1.175  12.472  0.4713 -1.3620 -1.9307
  767MOL0     H 3522   8.230  -1.002  12.428 -0.3467 -0.6651 -0.5679
  767MOL0     H 3523   8.459  -1.138  12.577  0.1236 -0.0286  0.5141
  767MOL0     H 3524   8.454  -0.964  12.554 -0.4765  0.3368  0.5711
  767MOL0     H 3525   8.408  -0.531  11.648 -0.1879  0.6472 -0.4240
  767MOL0     H 3526   8.224  -0.411  11.528 -5.4130  2.6847  4.0046
  767MOL0     H 3527   7.764  -0.699  11.180 -5.0616  0.2101  0.3260
  767MOL0     H 3528   7.632  -0.581  11.013 -2.0888  2.4259  1.4808
  767MOL0     H 3529   7.198   1.218  10.106  0.6296 -4.9964  3.6548
  767MOL0     H 3530   7.089   1.422  10.041  0.5560  0.6643  0.7711
  767MOL0     H 3531   6.710   1.676   9.968  2.2029  1.0502 -0.8100
  767MOL0     H 3532   6.629   1.863   9.889 -0.0331 -0.7845 -0.5915
  767MOL0     H 3533   6.454   2.070  10.144 -0.2000 -0.1576  0.2594
  767MOL0     H 3534   6.390   2.073   9.977 -2.4787  2.2552  0.9837
  767MOL0     H 3535   6.346   2.277  10.077 -2.3460 -2.1626 -3.3329
  767MOL0     H 3536   6.449   2.297   9.934  0.7866 -1.9403 -0.4060
  767MOL0     H 3537   6.556   2.453  10.071 -0.2180 -1.3072 -3.1148
  767MOL0     H 3538   6.662   2.328  10.095  0.6661  2.4664 -1.6042
  767MOL0     H 3539   6.525   2.240  10.301 -1.5485 -0.0909 -2.2572
  767MOL0     H 3540   6.627   2.389  10.304  0.5383  2.2240 -1.4942
  767MOL0     H 3541   6.278   2.567  10.413 -1.6803 -3.1754  1.2521
  767MOL0     H 3542   6.723   2.065  10.257  1.1056 -1.2835  2.6832
  767MOL0     H 3543   6.725   1.821  10.473  0.7370 -0.2550  0.4707
  767MOL0     H 3544   6.892   1.809  10.432  0.6022  0.3003 -0.4671
  767MOL0     H 3545   6.798   1.972  10.435 -1.9382 -0.4626  0.1433
  768MOL0     O 3546   7.581   8.884   9.256 -0.1065  0.0205  0.8729
  768MOL0     C 3547   7.561   8.765   9.308 -0.4344 -0.9851  0.0312
  768MOL0     O 3548   7.446   8.705   9.333  0.5887 -0.2669 -0.5617
  768MOL0     C 3549   7.327   8.772   9.315 -0.3216 -0.4662 -0.3347
  768MOL0     C 3550   7.292   8.912   9.298 -0.7101  1.2981  0.1265
  768MOL0     C 3551   7.168   8.961   9.267  0.4585  0.8801  0.3291
  768MOL0     C 3552   7.071   8.867   9.254  0.0928 -0.0733 -0.3372
  768MOL0     O 3553   6.936   8.896   9.226  0.6104  0.2020  0.7031
  768MOL0     C 3554   6.905   9.019   9.159  0.5540 -0.4689  0.9250
  768MOL0     C 3555   6.757   9.021   9.143 -0.0791 -0.4520  0.4235
  768MOL0     C 3556   6.715   9.146   9.069  0.0530  0.3965 -1.6687
  768MOL0     C 3557   6.563   9.155   9.065 -0.9231 -0.0522  1.0666
  768MOL0     C 3558   6.519   9.258   8.964 -0.4424 -0.0875  0.1321
  768MOL0     C 3559   6.584   9.390   8.972  0.3379  0.2424  0.1050
  768MOL0     C 3560   6.587   9.443   9.114 -0.8197  0.0654 -1.0060
  768MOL0     C 3561   6.680   9.560   9.113  0.1217  0.7096 -0.7550
  768MOL0     N 3562   6.619   9.681   9.064  0.8044  0.6246  1.0936
  768MOL0     C 3563   6.541   9.766   9.135  0.7487  0.1507  0.5490
  768MOL0     C 3564   6.495   9.852   9.037  0.7184 -0.6908 -0.2889
  768MOL0     C 3565   6.395   9.959   9.061  1.0383 -0.1842  0.4206
  768MOL0     C 3566   6.433  10.097   8.998 -0.8491 -0.0302 -0.3209
  768MOL0     C 3567   6.532  10.168   9.085 -0.9365  0.2807  0.3669
  768MOL0     C 3568   6.472  10.192   9.229  0.0636  0.7125  1.0425
  768MOL0     O 3569   6.546  10.294   9.290  0.5875  0.3008 -0.4807
  768MOL0     C 3570   6.596  10.264   9.417 -0.6194  0.9932 -0.2484
  768MOL0     C 3571   6.533  10.279   9.537  0.3678  0.2758  0.0142
  768MOL0     C 3572   6.579  10.245   9.667 -0.0122 -0.0201 -0.2191
  768MOL0     C 3573   6.714  10.187   9.673  1.5058 -0.2065  0.1200
  768MOL0     C 3574   6.769  10.134   9.802  0.2085 -0.2557 -0.2904
  768MOL0     O 3575   6.726  10.187   9.920 -0.2513 -1.3477 -0.7041
  768MOL0     C 3576   6.793  10.158  10.034 -0.8763  0.2153 -1.0113
  768MOL0     C 3577   6.852  10.028  10.064  1.1443 -0.2877 -0.8450
  768MOL0     C 3578   6.901  10.001  10.193  0.0648 -1.0474 -0.9317
  768MOL0     C 3579   6.894  10.102  10.287 -0.1324 -0.4796  0.0183
  768MOL0     O 3580   6.933  10.071  10.410 -0.2820 -0.1727  0.1225
  768MOL0     C 3581   6.841  10.097  10.515  0.3247 -0.5467 -0.3846
  768MOL0     C 3582   6.899  10.032  10.635  0.1342  0.2823  0.1379
  768MOL0     C 3583   6.935   9.884  10.623  1.3656  0.5618 -1.2006
  768MOL0     C 3584   6.831   9.786  10.571 -0.4186  0.7913  0.5231
  768MOL0     C 3585   6.831   9.643  10.630  0.5384  0.5191  0.1026
  768MOL0     C 3586   6.962   9.572  10.619  0.0180 -0.3122  0.4608
  768MOL0     C 3587   6.967   9.430  10.668  0.7158 -0.5153  0.4784
  768MOL0     C 3588   6.873   9.326  10.609 -0.6641  1.1013 -0.2612
  768MOL0    Cl 3589   6.918   9.325  10.431  0.6651 -0.0076  0.0274
  768MOL0     C 3590   6.846  10.233  10.252  0.8806 -0.2177 -0.6861
  768MOL0     C 3591   6.795  10.260  10.128 -0.7504 -0.1592  0.3451
  768MOL0     O 3592   6.863  10.055   9.787 -1.2040 -0.1744  0.8893
  768MOL0     C 3593   6.787  10.181   9.557  0.1521 -0.7305 -0.4543
  768MOL0     C 3594   6.734  10.229   9.436 -0.5218  0.4892  0.7671
  768MOL0     N 3595   6.558   9.820   8.913 -0.6010 -0.5333  0.3028
  768MOL0     N 3596   6.630   9.705   8.930  0.4597  0.1639  0.3307
  768MOL0     C 3597   7.092   8.722   9.277  1.0190 -1.1517  0.1245
  768MOL0     C 3598   7.220   8.684   9.306  0.8065 -0.5725 -0.4250
  768MOL0     C 3599   7.680   8.700   9.354 -0.7763  0.2086 -0.0232
  768MOL0     C 3600   7.813   8.735   9.299  0.2488 -0.5039 -0.6638
  768MOL0     C 3601   7.924   8.658   9.337  0.1759 -0.2397 -0.7823
  768MOL0     C 3602   7.922   8.572   9.436  0.3009  0.1180 -0.9534
  768MOL0     O 3603   8.045   8.530   9.478 -0.0436 -0.4996  0.2004
  768MOL0     C 3604   8.064   8.468   9.606 -0.0861  0.2015 -0.3892
  768MOL0     C 3605   8.191   8.532   9.667 -0.4975  0.7414  0.4530
  768MOL0     C 3606   8.194   8.683   9.682  0.0558  0.3976 -0.8327
  768MOL0     C 3607   8.304   8.740   9.776 -1.4458  0.2446 -0.2363
  768MOL0     C 3608   8.296   8.691   9.913  0.0635  0.0123  0.1224
  768MOL0     C 3609   8.325   8.638  10.018  0.3200 -1.0096  0.2652
  768MOL0     C 3610   7.794   8.546   9.504  0.6151 -0.3958  0.3665
  768MOL0     C 3611   7.672   8.608   9.467 -0.2973 -0.1232 -0.7701
  768MOL0     C 3612   7.556   8.578   9.559 -0.4794  0.3639 -0.0004
  768MOL0     H 3613   7.360   8.995   9.311 -2.1728  2.3102  1.7067
  768MOL0     H 3614   7.158   9.069   9.255 -0.2408  0.7191 -0.6996
  768MOL0     H 3615   6.933   9.113   9.207  1.0141  1.7731 -3.2610
  768MOL0     H 3616   6.970   9.034   9.072  0.4526  2.1231  1.2322
  768MOL0     H 3617   6.722   9.018   9.246  2.3141 -0.0128  1.3091
  768MOL0     H 3618   6.716   8.934   9.092 -2.3921 -0.5596  2.3122
  768MOL0     H 3619   6.762   9.144   8.970  2.9301  0.9217 -0.4164
  768MOL0     H 3620   6.749   9.235   9.122 -2.0122  0.0631  0.3985
  768MOL0     H 3621   6.520   9.055   9.049 -1.5693  0.6127 -2.1077
  768MOL0     H 3622   6.528   9.165   9.168 -1.4715 -1.0316  0.9947
  768MOL0     H 3623   6.538   9.221   8.863  2.3438  0.3966  0.4106
  768MOL0     H 3624   6.414   9.268   8.992 -0.5405  0.2028 -0.3167
  768MOL0     H 3625   6.687   9.392   8.938 -0.2648  1.8997 -1.8549
  768MOL0     H 3626   6.534   9.460   8.904  0.9632  2.3559  1.6927
  768MOL0     H 3627   6.619   9.373   9.191 -2.7994  0.2565  0.0519
  768MOL0     H 3628   6.486   9.473   9.144 -2.5075 -5.8229  0.5118
  768MOL0     H 3629   6.714   9.595   9.211 -3.1952  3.1249 -0.2847
  768MOL0     H 3630   6.770   9.530   9.058 -0.3859 -4.6873  0.7750
  768MOL0     H 3631   6.528   9.767   9.243 -0.0723 -0.7852  0.4650
  768MOL0     H 3632   6.311   9.920   9.002  2.1187 -1.8545 -0.0480
  768MOL0     H 3633   6.371   9.977   9.166 -2.3361  1.8992 -0.5266
  768MOL0     H 3634   6.475  10.081   8.898 -2.3446 -0.9263 -0.8268
  768MOL0     H 3635   6.342  10.154   8.978 -1.9343 -1.0933  1.3978
  768MOL0     H 3636   6.559  10.263   9.036  4.5810 -1.9298 -1.7009
  768MOL0     H 3637   6.630  10.119   9.087 -0.8045  0.4968 -0.4299
  768MOL0     H 3638   6.475  10.100   9.287  0.8497 -0.7818 -1.2273
  768MOL0     H 3639   6.372  10.234   9.214  0.0348  1.1453  2.3323
  768MOL0     H 3640   6.426  10.295   9.541  0.4029  0.1815  2.3600
  768MOL0     H 3641   6.521  10.243   9.759  0.8976 -0.0411  0.3664
  768MOL0     H 3642   6.854   9.942   9.998  0.0276 -0.6715 -0.3893
  768MOL0     H 3643   6.942   9.908  10.232 -1.6144 -1.5283 -0.2058
  768MOL0     H 3644   6.821  10.203  10.532 -0.5087 -0.9671  1.5158
  768MOL0     H 3645   6.746  10.052  10.484 -0.2678 -0.0177  0.6207
  768MOL0     H 3646   6.994  10.082  10.657  0.4439 -0.4661  0.5691
  768MOL0     H 3647   6.826  10.043  10.716  3.4288  1.9621  3.1493
  768MOL0     H 3648   7.031   9.877  10.570  2.2017  0.9518  0.2023
  768MOL0     H 3649   6.959   9.847  10.723 -1.4669  2.1652  0.1854
  768MOL0     H 3650   6.846   9.771  10.464 -0.1118 -0.8076  0.7719
  768MOL0     H 3651   6.737   9.833  10.602 -0.4896  0.0199  1.5406
  768MOL0     H 3652   6.745   9.592  10.584 -1.0431  2.7183  0.4399
  768MOL0     H 3653   6.820   9.648  10.739 -0.0014  1.1923  0.0267
  768MOL0     H 3654   6.972   9.574  10.510  0.7582 -2.4952  0.4430
  768MOL0     H 3655   7.041   9.635  10.661 -0.1897  1.2618 -1.3588
  768MOL0     H 3656   6.949   9.429  10.776 -1.2748  2.2700  0.2907
  768MOL0     H 3657   7.070   9.398  10.649 -0.1181 -4.6560  2.0168
  768MOL0     H 3658   6.885   9.236  10.669  0.7607  1.2485 -0.2991
  768MOL0     H 3659   6.765   9.343  10.619 -1.3599 -1.9434 -1.5625
  768MOL0     H 3660   6.837  10.296  10.340 -1.2914  1.2061 -1.8451
  768MOL0     H 3661   6.757  10.358  10.104 -2.9627 -0.7533  1.1688
  768MOL0     H 3662   6.890  10.146   9.561 -0.1214 -1.4565  0.7091
  768MOL0     H 3663   6.788  10.210   9.343 -1.9358 -0.1071  0.0406
  768MOL0     H 3664   7.004   8.659   9.271  1.0253 -1.5952  3.1750
  768MOL0     H 3665   7.225   8.575   9.305 -1.8924 -0.7796 -2.4656
  768MOL0     H 3666   7.806   8.810   9.221 -3.8773  0.8276  0.7168
  768MOL0     H 3667   8.007   8.676   9.270  0.0949  0.9665 -0.5824
  768MOL0     H 3668   8.072   8.359   9.602  0.0988  0.0759  1.8913
  768MOL0     H 3669   7.989   8.490   9.683  2.9249 -0.6637  3.0913
  768MOL0     H 3670   8.274   8.490   9.609 -0.5714  0.7564  0.3359
  768MOL0     H 3671   8.211   8.482   9.762  3.8170  0.8148 -0.1725
  768MOL0     H 3672   8.092   8.705   9.716 -1.1168 -3.1573 -1.6589
  768MOL0     H 3673   8.208   8.729   9.584 -0.0660 -2.1419 -2.1212
  768MOL0     H 3674   8.400   8.711   9.732 -2.5584 -1.0232 -1.9543
  768MOL0     H 3675   8.308   8.849   9.766  1.0524  0.1952 -0.4431
  768MOL0     H 3676   8.331   8.576  10.105 -2.2428  0.6197  1.7250
  768MOL0     H 3677   7.796   8.474   9.585  2.6853 -0.7991  0.0195
  768MOL0     H 3678   7.464   8.547   9.508  0.2020  3.0372 -3.2258
  768MOL0     H 3679   7.574   8.509   9.642  1.6715  1.8651  0.8716
  768MOL0     H 3680   7.538   8.671   9.615 -4.4237 -0.9996  1.3639
  769MOL0     O 3681   0.946   6.263   1.912 -0.5447 -0.2894 -0.0413
  769MOL0     C 3682   0.972   6.156   1.859 -1.1524  0.4812 -0.2731
  769MOL0     O 3683   1.006   6.043   1.932 -0.6473  0.6398 -0.9604
  769MOL0     C 3684   0.983   6.053   2.066  0.6923  0.9245 -1.1669
  769MOL0     C 3685   1.070   6.111   2.151 -1.2021  0.8376  0.1969
  769MOL0     C 3686   1.053   6.106   2.294 -0.1947 -0.4007  0.0346
  769MOL0     C 3687   0.933   6.058   2.350  0.1297 -1.1585  0.0130
  769MOL0     O 3688   0.892   6.059   2.480 -0.0548  0.4246  0.5107
  769MOL0     C 3689   0.974   6.132   2.565 -0.3385  0.5782 -0.0011
  769MOL0     C 3690   0.917   6.146   2.707  0.3916 -0.5373 -1.0530
  769MOL0     C 3691   0.787   6.225   2.715  0.3745  0.2080 -0.5521
  769MOL0     C 3692   0.805   6.375   2.705  0.2309  1.0761 -0.0022
  769MOL0     C 3693   0.669   6.457   2.721  0.5542  0.6052 -0.5708
  769MOL0     C 3694   0.699   6.604   2.691  0.3710 -0.2464  0.4122
  769MOL0     C 3695   0.569   6.679   2.668  0.1355 -0.2366  0.4548
  769MOL0     C 3696   0.580   6.813   2.596 -0.4490 -0.4854 -0.2353
  769MOL0     N 3697   0.631   6.913   2.700 -0.3470 -0.1350  0.6039
  769MOL0     C 3698   0.766   6.929   2.715 -0.3856 -1.0387 -1.0977
  769MOL0     C 3699   0.785   7.037   2.797 -0.6606 -0.4307 -0.7782
  769MOL0     C 3700   0.923   7.087   2.858 -0.3321 -1.1184  0.4162
  769MOL0     C 3701   0.920   7.107   3.009 -0.1368  1.6121 -0.4549
  769MOL0     C 3702   0.899   6.981   3.096 -0.3884 -0.3960  0.2251
  769MOL0     C 3703   0.992   6.850   3.083 -0.5253  0.2770  1.2401
  769MOL0     O 3704   0.931   6.758   2.989  0.2140 -1.2384  0.6054
  769MOL0     C 3705   0.843   6.675   3.040  0.1167  0.4732  0.6141
  769MOL0     C 3706   0.709   6.705   3.021  0.0254  1.1446  0.1074
  769MOL0     C 3707   0.611   6.621   3.076  0.4281  1.1739 -0.7673
  769MOL0     C 3708   0.642   6.494   3.133  0.2352  0.5159  0.1936
  769MOL0     C 3709   0.537   6.399   3.176  0.6805 -1.2185  0.4706
  769MOL0     O 3710   0.402   6.426   3.141 -0.3475  0.1166  0.5081
  769MOL0     C 3711   0.307   6.359   3.200  0.4562  0.6220 -0.3744
  769MOL0     C 3712   0.299   6.371   3.341 -0.2807  0.6393 -0.3208
  769MOL0     C 3713   0.186   6.343   3.418 -0.1370 -0.0900  0.2983
  769MOL0     C 3714   0.070   6.313   3.343 -0.3774  0.6042  0.3832
  769MOL0     O 3715  -0.039   6.294   3.423  0.3308 -0.0752  0.0760
  769MOL0     C 3716  -0.166   6.252   3.360 -1.1174  0.3822 -0.1938
  769MOL0     C 3717  -0.227   6.385   3.293 -1.1842  0.1746 -0.0736
  769MOL0     C 3718  -0.303   6.473   3.386  0.8971 -0.9761 -0.5986
  769MOL0     C 3719  -0.339   6.628   3.359 -0.0953  0.0135  0.0070
  769MOL0     C 3720  -0.379   6.643   3.215 -0.4141 -0.4437  0.7518
  769MOL0     C 3721  -0.399   6.793   3.164  0.1953  0.4493 -0.5361
  769MOL0     C 3722  -0.294   6.840   3.065 -1.0921 -0.2696 -0.5171
  769MOL0     C 3723  -0.318   6.990   3.011  0.0315  0.2070 -0.9060
  769MOL0    Cl 3724  -0.456   6.979   2.901 -0.3038 -0.2817 -0.1332
  769MOL0     C 3725   0.081   6.296   3.202  0.2917  0.1265  0.1547
  769MOL0     C 3726   0.197   6.305   3.133  0.4842  0.3793 -0.6184
  769MOL0     O 3727   0.569   6.294   3.233 -0.5148 -0.2826  0.2750
  769MOL0     C 3728   0.782   6.468   3.151 -0.5767 -0.6902 -0.5427
  769MOL0     C 3729   0.878   6.552   3.098  0.0617  0.1198  0.2219
  769MOL0     N 3730   0.656   7.087   2.813 -1.0348 -0.0199  0.4600
  769MOL0     N 3731   0.562   7.019   2.748 -0.3842  0.1122 -0.1103
  769MOL0     C 3732   0.853   5.991   2.264  0.2036  0.8743 -0.5432
  769MOL0     C 3733   0.876   5.985   2.130  1.1077  0.1278  0.2810
  769MOL0     C 3734   0.978   6.150   1.720 -1.5097 -0.4511  1.0010
  769MOL0     C 3735   1.037   6.258   1.651  0.6125 -0.3641  0.9056
  769MOL0     C 3736   1.054   6.244   1.518 -1.0042  0.9423  0.2216
  769MOL0     C 3737   1.012   6.131   1.451 -0.3976 -0.0310  0.2698
  769MOL0     O 3738   1.012   6.118   1.319  0.3192  0.3950 -0.3920
  769MOL0     C 3739   1.071   6.226   1.234 -0.2142 -0.1806  0.1972
  769MOL0     C 3740   1.086   6.186   1.085 -0.4175  0.9903  0.6842
  769MOL0     C 3741   0.949   6.160   1.012  0.5483  0.5864  0.0931
  769MOL0     C 3742   0.944   6.084   0.879  0.1822 -0.2755  0.1986
  769MOL0     C 3743   0.997   5.947   0.909 -0.6806 -0.6630  0.3872
  769MOL0     C 3744   1.045   5.850   0.962 -0.2995  0.2080 -0.3321
  769MOL0     C 3745   0.955   6.030   1.518  0.4107  0.4616  0.0072
  769MOL0     C 3746   0.920   6.044   1.651  0.1672  0.9442 -0.0609
  769MOL0     C 3747   0.870   5.914   1.725  0.1567  0.0727  0.3668
  769MOL0     H 3748   1.169   6.141   2.115 -0.6522 -2.7897 -1.8178
  769MOL0     H 3749   1.129   6.155   2.354  0.4676 -0.6477 -0.5842
  769MOL0     H 3750   1.066   6.074   2.568 -0.5215  0.0428 -2.4608
  769MOL0     H 3751   0.988   6.236   2.535  0.9043  1.4737  3.2645
  769MOL0     H 3752   1.004   6.190   2.756  1.8220 -2.5872 -1.6718
  769MOL0     H 3753   0.890   6.050   2.751  2.3842  0.0227  1.6112
  769MOL0     H 3754   0.741   6.202   2.811  1.3538 -1.0550 -0.3585
  769MOL0     H 3755   0.716   6.192   2.638  0.1070  1.4860 -0.8811
  769MOL0     H 3756   0.878   6.403   2.781 -1.6202  2.4561  1.3868
  769MOL0     H 3757   0.832   6.400   2.603  2.0069 -1.0678 -0.1339
  769MOL0     H 3758   0.599   6.412   2.651 -1.6561  0.9869  1.2516
  769MOL0     H 3759   0.617   6.443   2.817  1.0190 -1.4445 -0.5690
  769MOL0     H 3760   0.760   6.652   2.768  0.0633  0.7695  0.0422
  769MOL0     H 3761   0.761   6.624   2.603 -2.4896  0.1820 -1.6579
  769MOL0     H 3762   0.512   6.694   2.761 -1.6731 -0.4879 -0.5738
  769MOL0     H 3763   0.501   6.620   2.607 -1.9359  1.1532  1.2815
  769MOL0     H 3764   0.633   6.811   2.500 -1.4562 -2.5672 -0.8313
  769MOL0     H 3765   0.484   6.852   2.562 -0.2227 -0.1228 -0.4672
  769MOL0     H 3766   0.844   6.868   2.672  0.7842 -0.7524  0.5322
  769MOL0     H 3767   0.998   7.009   2.840  1.0043  0.3476 -0.6889
  769MOL0     H 3768   0.962   7.180   2.814 -0.0170 -0.7564  1.4439
  769MOL0     H 3769   1.014   7.153   3.042  2.6689 -1.0072 -3.9915
  769MOL0     H 3770   0.847   7.186   3.030 -0.7870  0.9368 -0.1251
  769MOL0     H 3771   0.794   6.958   3.077 -0.6877  0.2316  1.0447
  769MOL0     H 3772   0.905   7.019   3.198 -4.5245  1.6068 -0.0721
  769MOL0     H 3773   1.004   6.791   3.175  3.5096 -0.5469  0.3949
  769MOL0     H 3774   1.098   6.867   3.060 -0.2277 -3.3174 -0.8777
  769MOL0     H 3775   0.680   6.791   2.962 -0.8875  2.6294  2.5567
  769MOL0     H 3776   0.505   6.642   3.074 -0.0771 -0.6506  1.9971
  769MOL0     H 3777   0.384   6.404   3.401 -0.8419 -3.3701  3.1636
  769MOL0     H 3778   0.184   6.346   3.526  2.5332 -0.0133  0.4004
  769MOL0     H 3779  -0.145   6.179   3.282 -0.9259 -1.2869  1.3343
  769MOL0     H 3780  -0.236   6.216   3.436 -0.1484 -2.9315 -0.7098
  769MOL0     H 3781  -0.138   6.431   3.249  1.5396 -2.8861  1.7752
  769MOL0     H 3782  -0.301   6.347   3.222 -4.2441  2.5352  1.6279
  769MOL0     H 3783  -0.403   6.428   3.374 -0.4670  0.9578  2.3280
  769MOL0     H 3784  -0.261   6.457   3.486  4.4295 -0.1761 -1.8098
  769MOL0     H 3785  -0.251   6.689   3.384 -2.0067  0.9779  5.8156
  769MOL0     H 3786  -0.418   6.678   3.415  1.1771  0.7357  1.2292
  769MOL0     H 3787  -0.476   6.593   3.220 -2.5493  3.3925  4.5824
  769MOL0     H 3788  -0.309   6.586   3.154 -1.2903 -2.7004  1.7483
  769MOL0     H 3789  -0.500   6.793   3.122 -1.0048  0.1378  2.1290
  769MOL0     H 3790  -0.392   6.861   3.250 -1.0003 -1.8231  1.4855
  769MOL0     H 3791  -0.285   6.768   2.984 -0.0253 -2.8328  1.7118
  769MOL0     H 3792  -0.200   6.839   3.120  0.2302 -0.7158 -2.6966
  769MOL0     H 3793  -0.354   7.047   3.098 -0.8694 -3.1853  1.1111
  769MOL0     H 3794  -0.226   7.031   2.968 -0.4954  1.2459 -1.0826
  769MOL0     H 3795   0.009   6.260   3.128 -0.2874  2.6119 -0.5937
  769MOL0     H 3796   0.210   6.284   3.027 -0.1737 -2.7892 -0.1635
  769MOL0     H 3797   0.815   6.369   3.179  0.4585 -0.8424 -2.1565
  769MOL0     H 3798   0.980   6.516   3.095  0.1813  0.2401  1.9669
  769MOL0     H 3799   0.764   5.937   2.295  0.7710 -1.0552 -2.0165
  769MOL0     H 3800   0.801   5.949   2.060  1.0883  0.8374 -0.0758
  769MOL0     H 3801   1.071   6.350   1.698  1.8896 -0.3739  0.0338
  769MOL0     H 3802   1.097   6.325   1.459 -0.8650  0.6095 -0.1359
  769MOL0     H 3803   1.172   6.242   1.274 -1.1066  1.1849  2.0667
  769MOL0     H 3804   1.020   6.322   1.241  0.4775  0.0941  2.3467
  769MOL0     H 3805   1.160   6.105   1.075 -3.4036 -1.8754 -0.1447
  769MOL0     H 3806   1.139   6.270   1.039 -0.3578  0.0239 -1.1531
  769MOL0     H 3807   0.900   6.257   1.009  1.6080  1.1232 -0.0739
  769MOL0     H 3808   0.886   6.110   1.086 -1.4107  1.5657 -0.8365
  769MOL0     H 3809   0.836   6.080   0.860  0.4009  0.2675 -1.3180
  769MOL0     H 3810   1.005   6.125   0.798  0.5132  1.1364  1.1177
  769MOL0     H 3811   1.090   5.757   0.991 -2.3481 -0.8700 -0.4626
  769MOL0     H 3812   0.909   5.945   1.467  2.5101  0.2508 -1.6705
  769MOL0     H 3813   0.957   5.857   1.757 -0.3604 -1.3259 -0.6460
  769MOL0     H 3814   0.813   5.953   1.811 -0.4675  4.5668 -1.7746
  769MOL0     H 3815   0.805   5.849   1.666 -1.6300  0.4083  1.8483
  770MOL0     O 3816   1.795   7.197   6.748  0.0703 -0.1087 -0.0458
  770MOL0     C 3817   1.838   7.274   6.668 -0.1655  0.3872 -0.1289
  770MOL0     O 3818   1.904   7.397   6.696 -0.5566  0.2358  0.7850
  770MOL0     C 3819   1.918   7.432   6.831 -0.1121  0.6488  0.4827
  770MOL0     C 3820   1.981   7.342   6.916 -0.4715  0.3493 -0.3381
  770MOL0     C 3821   1.998   7.371   7.051 -0.1558  0.0028  1.2497
  770MOL0     C 3822   1.936   7.483   7.097  0.4411  0.3208 -0.3760
  770MOL0     O 3823   1.933   7.496   7.235  0.2331 -0.2382  0.2041
  770MOL0     C 3824   1.814   7.555   7.293  0.6078 -0.4985  0.4254
  770MOL0     C 3825   1.806   7.508   7.439 -0.6060 -0.1684 -0.0374
  770MOL0     C 3826   1.715   7.564   7.534  0.0972  0.1552 -0.6432
  770MOL0     C 3827   1.730   7.513   7.675 -0.4273  1.0400  0.0818
  770MOL0     C 3828   1.627   7.568   7.773 -0.4469  0.3140 -0.2925
  770MOL0     C 3829   1.650   7.529   7.917 -0.0273  0.4754  0.2804
  770MOL0     C 3830   1.522   7.565   7.997  0.7291 -0.6190  0.3674
  770MOL0     C 3831   1.545   7.514   8.142  0.1023  0.8968  1.1799
  770MOL0     N 3832   1.560   7.370   8.138 -0.0879  0.6444 -0.5098
  770MOL0     C 3833   1.680   7.300   8.147  0.3038  0.5332 -0.2338
  770MOL0     C 3834   1.645   7.168   8.166 -0.4600 -0.8801  0.3341
  770MOL0     C 3835   1.724   7.047   8.177 -0.2163  0.0157  0.3680
  770MOL0     C 3836   1.701   6.973   8.310 -0.1450 -0.2296 -0.1914
  770MOL0     C 3837   1.831   6.926   8.380 -0.2961 -0.5487 -0.6461
  770MOL0     C 3838   1.808   6.847   8.502 -0.1824  0.3792 -1.2211
  770MOL0     O 3839   1.731   6.727   8.457  0.0570  0.2195 -0.5585
  770MOL0     C 3840   1.788   6.604   8.442 -0.5167 -0.2511  0.0157
  770MOL0     C 3841   1.712   6.513   8.366  0.0151  0.3376  0.6730
  770MOL0     C 3842   1.731   6.378   8.362 -0.3348 -0.0428  1.4515
  770MOL0     C 3843   1.837   6.330   8.443  0.0917 -0.6160  0.4121
  770MOL0     C 3844   1.847   6.180   8.464  0.2973 -0.1713 -0.7366
  770MOL0     O 3845   1.961   6.137   8.514  0.7137 -0.4692  0.3103
  770MOL0     C 3846   1.964   6.012   8.568  0.6225 -0.2408  0.0182
  770MOL0     C 3847   1.915   5.965   8.692 -0.8206  0.4310  0.4352
  770MOL0     C 3848   1.922   5.836   8.723  0.0956 -0.3259 -0.1798
  770MOL0     C 3849   1.980   5.736   8.634  0.3110  0.7786  0.5881
  770MOL0     O 3850   1.972   5.606   8.681  0.0413 -1.0272  0.5519
  770MOL0     C 3851   1.962   5.507   8.579  0.6474 -0.1530  0.7322
  770MOL0     C 3852   1.957   5.370   8.658 -0.4076  0.0864  0.7169
  770MOL0     C 3853   1.963   5.249   8.560  0.4094  0.5648 -0.5240
  770MOL0     C 3854   1.940   5.117   8.641 -0.4478  0.6472 -0.2904
  770MOL0     C 3855   2.000   5.003   8.548 -0.7712  0.5574 -0.4330
  770MOL0     C 3856   2.002   4.866   8.614 -0.6801  0.7487 -0.9868
  770MOL0     C 3857   2.058   4.759   8.523 -0.2593 -0.6367  0.9185
  770MOL0     C 3858   2.089   4.624   8.590  0.9408 -0.6781 -0.2601
  770MOL0    Cl 3859   1.949   4.515   8.608 -0.1213  0.3932 -0.2143
  770MOL0     C 3860   2.029   5.781   8.502 -0.1450 -0.6096 -0.4498
  770MOL0     C 3861   2.026   5.921   8.480 -0.5293 -0.4990  0.0285
  770MOL0     O 3862   1.753   6.113   8.432 -0.0301 -0.1050 -0.0371
  770MOL0     C 3863   1.926   6.416   8.513 -0.1560  0.3946 -0.0154
  770MOL0     C 3864   1.899   6.553   8.516 -0.5593 -0.7304 -0.8085
  770MOL0     N 3865   1.505   7.168   8.167  0.0088  0.2918  0.3777
  770MOL0     N 3866   1.451   7.288   8.149 -0.1894  0.3068 -0.7834
  770MOL0     C 3867   1.882   7.585   7.014 -1.1249  0.3580  0.4265
  770MOL0     C 3868   1.872   7.554   6.887  0.1356  0.1287  0.5086
  770MOL0     C 3869   1.845   7.228   6.527 -0.1859  0.2241 -0.2998
  770MOL0     C 3870   1.840   7.330   6.425  0.6847 -0.4829  1.0262
  770MOL0     C 3871   1.815   7.287   6.292 -0.8188  0.1564  0.0679
  770MOL0     C 3872   1.804   7.151   6.256  1.2597 -0.2691  0.6503
  770MOL0     O 3873   1.777   7.110   6.127 -0.8731  0.5866  0.2288
  770MOL0     C 3874   1.744   7.206   6.028  0.6840 -0.4968  0.4753
  770MOL0     C 3875   1.730   7.145   5.900 -0.4192 -0.6674 -0.4104
  770MOL0     C 3876   1.873   7.115   5.832 -0.1190 -0.3310  0.7509
  770MOL0     C 3877   1.861   7.021   5.709  1.1111 -0.0152  0.2719
  770MOL0     C 3878   1.769   7.081   5.612 -0.3415 -0.3963  0.5866
  770MOL0     C 3879   1.692   7.133   5.533 -0.9380 -0.3385 -0.6794
  770MOL0     C 3880   1.821   7.062   6.351 -0.7814  0.7400 -0.1085
  770MOL0     C 3881   1.844   7.090   6.491  0.4631  0.5682  0.7541
  770MOL0     C 3882   1.865   6.980   6.583  0.3810 -0.0859  0.3371
  770MOL0     H 3883   2.015   7.247   6.876  0.9914  0.7157 -0.0375
  770MOL0     H 3884   2.043   7.295   7.114 -0.1883 -1.4547 -0.3960
  770MOL0     H 3885   1.808   7.665   7.295 -2.2575 -0.5779  0.0078
  770MOL0     H 3886   1.729   7.526   7.231  0.4056  0.7689  0.0737
  770MOL0     H 3887   1.904   7.539   7.476  0.6238 -4.1470  0.5548
  770MOL0     H 3888   1.805   7.398   7.437  2.1587 -0.2691 -2.1035
  770MOL0     H 3889   1.609   7.557   7.506 -1.3281 -2.4825  4.3037
  770MOL0     H 3890   1.726   7.673   7.533  1.2304  0.0541 -0.8910
  770MOL0     H 3891   1.713   7.406   7.658  2.5798  0.7312 -1.7548
  770MOL0     H 3892   1.835   7.522   7.707 -0.0263 -3.5993  0.7217
  770MOL0     H 3893   1.626   7.676   7.787  1.6017  0.2675  0.6095
  770MOL0     H 3894   1.535   7.531   7.727  1.1287 -0.7043 -2.8319
  770MOL0     H 3895   1.673   7.423   7.906  1.9174  1.0352 -1.9490
  770MOL0     H 3896   1.741   7.582   7.949  1.0932 -0.9427 -0.4437
  770MOL0     H 3897   1.435   7.518   7.952 -1.3158  1.1274  2.2122
  770MOL0     H 3898   1.503   7.673   7.994  1.8384 -0.4261 -0.3072
  770MOL0     H 3899   1.640   7.549   8.185  1.6184 -1.4753 -0.0263
  770MOL0     H 3900   1.470   7.545   8.215  1.0662 -2.0546  3.5980
  770MOL0     H 3901   1.777   7.347   8.132  1.0755 -0.9069  0.0225
  770MOL0     H 3902   1.702   6.992   8.086 -1.6880  2.7748 -1.0580
  770MOL0     H 3903   1.829   7.079   8.183 -0.2827  1.2131 -2.9962
  770MOL0     H 3904   1.644   7.037   8.379  2.5749 -0.8288  2.8491
  770MOL0     H 3905   1.642   6.883   8.290  0.0962 -0.3326 -0.4397
  770MOL0     H 3906   1.900   7.008   8.402 -0.1380 -0.5171 -1.2450
  770MOL0     H 3907   1.894   6.867   8.313 -0.5942 -2.0902  0.3835
  770MOL0     H 3908   1.749   6.909   8.570 -0.4771  2.8472 -3.5286
  770MOL0     H 3909   1.899   6.809   8.549 -2.2295 -2.7084  0.6037
  770MOL0     H 3910   1.629   6.549   8.305 -0.2236 -3.5698 -1.6722
  770MOL0     H 3911   1.662   6.313   8.309  0.0315  1.4194 -1.0258
  770MOL0     H 3912   1.875   6.043   8.757 -1.6962  0.1836  0.2011
  770MOL0     H 3913   1.910   5.809   8.827  0.2841  0.7531  0.1298
  770MOL0     H 3914   1.883   5.515   8.503  2.2932  1.8272 -0.8970
  770MOL0     H 3915   2.056   5.502   8.523  0.3363  0.2855  0.1679
  770MOL0     H 3916   2.047   5.364   8.719  2.2806  0.6002 -2.8683
  770MOL0     H 3917   1.867   5.362   8.720  1.0221 -2.2472  2.6618
  770MOL0     H 3918   1.886   5.268   8.485  1.2508  0.9324 -1.3062
  770MOL0     H 3919   2.060   5.252   8.511 -0.6523 -1.0381 -2.8840
  770MOL0     H 3920   1.833   5.103   8.660 -0.2150 -0.6160  0.2022
  770MOL0     H 3921   1.998   5.131   8.732  0.0148  0.3586 -0.5326
  770MOL0     H 3922   2.102   5.027   8.516 -0.1310 -1.3857  0.0469
  770MOL0     H 3923   1.932   4.986   8.464 -2.9849  0.9442  1.2000
  770MOL0     H 3924   2.075   4.870   8.695 -0.2937 -0.6696 -1.2337
  770MOL0     H 3925   1.901   4.854   8.654 -0.2964 -0.9786 -0.4376
  770MOL0     H 3926   2.150   4.800   8.479 -1.9562  2.2311 -0.2969
  770MOL0     H 3927   1.989   4.740   8.440  2.2482  1.3388 -1.8384
  770MOL0     H 3928   2.178   4.583   8.541  0.5944 -0.9449 -0.6716
  770MOL0     H 3929   2.124   4.640   8.692  0.4251 -3.5173  0.4479
  770MOL0     H 3930   2.068   5.708   8.433 -0.6414  0.5259 -1.9725
  770MOL0     H 3931   2.061   5.955   8.383  0.8887  2.7295  1.5083
  770MOL0     H 3932   1.997   6.357   8.569  0.2601 -1.1614 -2.0732
  770MOL0     H 3933   1.962   6.609   8.584 -0.0753  3.4852 -4.3056
  770MOL0     H 3934   1.848   7.679   7.057 -0.1169  1.6865 -1.5194
  770MOL0     H 3935   1.826   7.626   6.820  0.4764  0.5174  0.6908
  770MOL0     H 3936   1.836   7.438   6.439  0.0085 -0.3861  0.1671
  770MOL0     H 3937   1.787   7.355   6.212 -2.7026  0.7477  1.1600
  770MOL0     H 3938   1.816   7.289   6.025 -0.3651  0.4031 -0.6247
  770MOL0     H 3939   1.647   7.251   6.051 -0.4065 -2.2114 -0.5793
  770MOL0     H 3940   1.678   7.219   5.837 -0.0275  0.5548  0.6474
  770MOL0     H 3941   1.674   7.053   5.916 -0.4875 -0.5210  0.2160
  770MOL0     H 3942   1.933   7.060   5.905  0.5319 -1.8580 -0.8534
  770MOL0     H 3943   1.929   7.208   5.819 -2.2229  1.1659  1.8443
  770MOL0     H 3944   1.958   7.021   5.657  0.3111  0.1933 -1.3014
  770MOL0     H 3945   1.831   6.920   5.735 -0.3522  0.7830  1.8518
  770MOL0     H 3946   1.615   7.174   5.471 -0.1847  3.4593  0.6249
  770MOL0     H 3947   1.811   6.960   6.316 -1.5517  0.2748  1.3695
  770MOL0     H 3948   1.772   6.956   6.637 -2.5326  0.7741 -3.8465
  770MOL0     H 3949   1.910   6.892   6.537  2.6055  0.4209  1.3974
  770MOL0     H 3950   1.944   7.012   6.652  1.0118  1.0521 -0.8692
  771MOL0     O 3951   0.316   8.425   1.438  0.2247 -0.8307 -0.4941
  771MOL0     C 3952   0.231   8.396   1.357 -0.9719 -0.9059  0.4928
  771MOL0     O 3953   0.251   8.313   1.253  0.1027  0.1003  0.2021
  771MOL0     C 3954   0.371   8.247   1.241 -0.0614  0.6935  0.1693
  771MOL0     C 3955   0.469   8.302   1.152 -0.0906 -0.3858  1.0767
  771MOL0     C 3956   0.592   8.231   1.134  0.2051 -0.8343 -0.5261
  771MOL0     C 3957   0.632   8.126   1.221 -0.8296  0.0012 -0.4332
  771MOL0     O 3958   0.765   8.092   1.206  1.0684 -0.4372  0.3216
  771MOL0     C 3959   0.824   7.991   1.285  0.4336 -0.2802 -0.4852
  771MOL0     C 3960   0.969   8.013   1.308 -0.2761 -0.7579 -0.7342
  771MOL0     C 3961   1.051   7.890   1.345 -1.0405  0.2250  0.2784
  771MOL0     C 3962   1.184   7.934   1.414  0.4211 -0.3426  0.0975
  771MOL0     C 3963   1.253   7.807   1.456  0.2871  0.2835 -0.6476
  771MOL0     C 3964   1.367   7.832   1.554 -0.3266  0.0775  0.1429
  771MOL0     C 3965   1.477   7.726   1.535  0.8014  0.1037 -0.5265
  771MOL0     C 3966   1.428   7.584   1.549  0.2772  0.3587 -0.4403
  771MOL0     N 3967   1.351   7.574   1.674  0.3473  0.8015  0.0293
  771MOL0     C 3968   1.400   7.559   1.798 -0.0074 -0.0712 -0.0554
  771MOL0     C 3969   1.301   7.543   1.884 -0.1332 -0.1606 -0.1011
  771MOL0     C 3970   1.304   7.549   2.040 -0.7972 -0.7859 -0.3758
  771MOL0     C 3971   1.186   7.498   2.117 -0.4494 -0.1489  0.7087
  771MOL0     C 3972   1.079   7.614   2.130  0.4864  0.8290  0.8086
  771MOL0     C 3973   1.076   7.701   2.256 -0.1075 -0.3523  0.2370
  771MOL0     O 3974   1.195   7.786   2.248 -0.0635  0.1396  0.5481
  771MOL0     C 3975   1.212   7.863   2.360 -0.7683  0.7473  0.1653
  771MOL0     C 3976   1.352   7.886   2.403  0.6337 -0.0702 -0.2238
  771MOL0     C 3977   1.392   7.973   2.504  0.7378 -0.1539 -0.3133
  771MOL0     C 3978   1.291   8.030   2.580  0.0970 -0.1470  1.0529
  771MOL0     C 3979   1.326   8.122   2.689  0.2607 -0.1652 -0.0838
  771MOL0     O 3980   1.225   8.161   2.769  0.5980  1.5518 -0.1392
  771MOL0     C 3981   1.238   8.267   2.857 -0.1375  0.4720 -0.7732
  771MOL0     C 3982   1.333   8.371   2.866 -0.2874 -0.3696 -0.3329
  771MOL0     C 3983   1.306   8.483   2.948 -0.3225 -0.8286  0.6169
  771MOL0     C 3984   1.204   8.486   3.031  0.4820  0.7167 -1.0792
  771MOL0     O 3985   1.202   8.604   3.103  0.5051 -0.4187 -0.0295
  771MOL0     C 3986   1.088   8.638   3.192  0.2052  1.1405  0.8664
  771MOL0     C 3987   1.078   8.786   3.218  0.1116 -0.0153 -0.1100
  771MOL0     C 3988   1.143   8.816   3.347 -1.1937 -0.1852 -0.7084
  771MOL0     C 3989   1.103   8.950   3.400 -0.0879 -0.2355  0.3404
  771MOL0     C 3990   1.186   8.990   3.518 -0.0418  0.5551  0.4677
  771MOL0     C 3991   1.159   9.126   3.575  0.2499 -0.0443  0.2918
  771MOL0     C 3992   1.218   9.146   3.716 -1.2563  0.2612  0.6616
  771MOL0     C 3993   1.359   9.211   3.700  0.1762 -0.1610 -0.3087
  771MOL0    Cl 3994   1.381   9.347   3.582 -0.0179 -0.0672 -0.1087
  771MOL0     C 3995   1.126   8.374   3.044  0.5639  0.5280  0.7403
  771MOL0     C 3996   1.141   8.259   2.961 -0.3838  0.4489  0.0382
  771MOL0     O 3997   1.444   8.142   2.712 -0.1236  0.7440 -0.4376
  771MOL0     C 3998   1.160   8.004   2.538  0.1431 -0.4985  0.7744
  771MOL0     C 3999   1.113   7.920   2.436  0.4325  0.2030 -0.4061
  771MOL0     N 4000   1.187   7.523   1.808 -0.0070  0.0860 -0.6520
  771MOL0     N 4001   1.222   7.548   1.683  0.6535  0.1055 -0.2578
  771MOL0     C 4002   0.538   8.074   1.314 -0.1978  0.2786  0.8957
  771MOL0     C 4003   0.410   8.137   1.321  0.2979 -0.0049 -0.6620
  771MOL0     C 4004   0.086   8.434   1.370 -1.0325 -0.5992  0.8392
  771MOL0     C 4005   0.000   8.408   1.257  0.3508 -0.5071 -0.4408
  771MOL0     C 4006  -0.129   8.461   1.254 -0.4797  0.6996  0.4250
  771MOL0     C 4007  -0.186   8.518   1.357  0.3847  0.4289 -0.4597
  771MOL0     O 4008  -0.315   8.562   1.350 -0.0065  0.6207 -0.5824
  771MOL0     C 4009  -0.385   8.571   1.475  0.0089  0.6699  0.1012
  771MOL0     C 4010  -0.533   8.552   1.444  0.2171  0.2590 -0.4839
  771MOL0     C 4011  -0.623   8.478   1.545  0.0160  0.5719  0.4276
  771MOL0     C 4012  -0.580   8.329   1.547 -0.1185 -1.6094 -0.3224
  771MOL0     C 4013  -0.546   8.249   1.428  0.3191  0.5421  0.0571
  771MOL0     C 4014  -0.531   8.189   1.323  0.3981 -0.3053  0.3520
  771MOL0     C 4015  -0.106   8.542   1.470 -0.3749 -0.2474 -0.1908
  771MOL0     C 4016   0.025   8.495   1.484 -0.7509  0.6606  0.6102
  771MOL0     C 4017   0.103   8.527   1.610  0.3063 -0.9032 -0.4476
  771MOL0     H 4018   0.457   8.393   1.095  0.3493 -0.0539  1.5137
  771MOL0     H 4019   0.660   8.248   1.051 -1.8834 -1.8489 -2.5708
  771MOL0     H 4020   0.784   7.990   1.386  1.3104 -2.9905 -0.0760
  771MOL0     H 4021   0.794   7.895   1.241 -0.2697 -0.6627  0.7916
  771MOL0     H 4022   0.961   8.071   1.400  0.7969 -0.6338 -0.6966
  771MOL0     H 4023   1.016   8.073   1.230 -0.2999  1.3413  0.7776
  771MOL0     H 4024   1.084   7.838   1.255  5.4361 -2.2418  3.4994
  771MOL0     H 4025   0.998   7.820   1.410 -1.5017  0.4432  0.1425
  771MOL0     H 4026   1.253   7.980   1.342  0.8588 -0.8733  0.1750
  771MOL0     H 4027   1.170   7.997   1.503  2.6535 -0.8215  0.8386
  771MOL0     H 4028   1.179   7.740   1.500 -0.5236  1.6342  0.1085
  771MOL0     H 4029   1.284   7.764   1.360 -0.4815 -0.3001 -0.6407
  771MOL0     H 4030   1.411   7.929   1.533  0.6963 -0.1688  1.0808
  771MOL0     H 4031   1.341   7.840   1.660 -0.2218  3.3997  0.0205
  771MOL0     H 4032   1.550   7.751   1.612 -2.0430 -0.1774  2.5129
  771MOL0     H 4033   1.521   7.727   1.435 -0.1035 -3.7970 -1.1362
  771MOL0     H 4034   1.358   7.565   1.467 -0.6167  2.8728 -0.3519
  771MOL0     H 4035   1.518   7.524   1.564  2.7043  4.1312  1.7823
  771MOL0     H 4036   1.504   7.586   1.810 -0.4338  0.6947  2.4227
  771MOL0     H 4037   1.392   7.495   2.076 -1.3471 -0.3404  1.8193
  771MOL0     H 4038   1.318   7.653   2.072  0.1505 -1.1396  0.3922
  771MOL0     H 4039   1.148   7.409   2.067  0.9090 -1.0832  1.2703
  771MOL0     H 4040   1.218   7.454   2.213  1.3723 -0.1512  0.1414
  771MOL0     H 4041   0.977   7.574   2.127  0.8134 -0.1598  1.9361
  771MOL0     H 4042   1.086   7.678   2.042 -1.3069 -0.2771 -0.1985
  771MOL0     H 4043   1.079   7.641   2.347  2.6249 -1.0158 -0.1936
  771MOL0     H 4044   0.988   7.765   2.259 -0.6298 -1.0686  0.3805
  771MOL0     H 4045   1.434   7.834   2.354 -0.4607 -0.5364 -1.6088
  771MOL0     H 4046   1.495   7.988   2.536  1.0966  2.1998 -2.2304
  771MOL0     H 4047   1.424   8.376   2.806  1.8284 -2.5061  2.4339
  771MOL0     H 4048   1.375   8.567   2.939 -0.7193 -0.6299 -0.9004
  771MOL0     H 4049   0.999   8.601   3.141  1.7743 -0.1585 -1.0722
  771MOL0     H 4050   1.085   8.577   3.282  1.8670  0.2564  0.3746
  771MOL0     H 4051   1.136   8.843   3.144  2.0297 -0.0015  1.3271
  771MOL0     H 4052   0.974   8.819   3.226 -1.0295 -2.9062 -1.4762
  771MOL0     H 4053   1.120   8.742   3.424 -1.2563 -0.4690 -0.9955
  771MOL0     H 4054   1.251   8.808   3.333 -1.0274 -1.7406  1.0054
  771MOL0     H 4055   1.004   8.946   3.445 -0.6787 -1.8594 -1.0139
  771MOL0     H 4056   1.109   9.022   3.318 -0.2717 -1.8672 -1.1505
  771MOL0     H 4057   1.294   8.984   3.498  0.2959 -2.0052  2.5896
  771MOL0     H 4058   1.168   8.927   3.605 -1.9861 -0.0120 -0.2899
  771MOL0     H 4059   1.194   9.197   3.499  0.5103  0.7389  1.1319
  771MOL0     H 4060   1.050   9.141   3.575  0.0719 -1.0236 -1.6245
  771MOL0     H 4061   1.205   9.050   3.768 -2.7703  1.1979  2.1230
  771MOL0     H 4062   1.163   9.212   3.784 -0.3799 -1.2788  2.9954
  771MOL0     H 4063   1.384   9.253   3.798  1.0006  0.4238 -0.7649
  771MOL0     H 4064   1.426   9.127   3.679 -1.8087 -2.6766  2.5481
  771MOL0     H 4065   1.047   8.373   3.119  0.7561  0.4905  0.9447
  771MOL0     H 4066   1.076   8.174   2.981 -0.8765  0.4787 -1.3109
  771MOL0     H 4067   1.083   8.058   2.593 -0.3472  0.4928 -0.8213
  771MOL0     H 4068   1.008   7.906   2.413 -0.3310 -0.8802  3.1865
  771MOL0     H 4069   0.572   7.983   1.361  1.2676  0.5798  0.4817
  771MOL0     H 4070   0.333   8.102   1.389  1.5250 -0.8668  0.3130
  771MOL0     H 4071   0.025   8.370   1.158  4.0477  1.1153 -0.3137
  771MOL0     H 4072  -0.187   8.452   1.163  2.4725 -0.8236 -1.4347
  771MOL0     H 4073  -0.362   8.662   1.532  2.2153  0.1656  0.1123
  771MOL0     H 4074  -0.351   8.498   1.550 -1.4982  1.6992  1.8691
  771MOL0     H 4075  -0.537   8.493   1.352 -1.8379  0.1851 -0.3835
  771MOL0     H 4076  -0.567   8.655   1.426 -2.3383 -0.5062 -0.3888
  771MOL0     H 4077  -0.722   8.485   1.499 -1.4001 -3.3240  2.4019
  771MOL0     H 4078  -0.613   8.522   1.644 -0.0282  0.7104  0.3700
  771MOL0     H 4079  -0.484   8.326   1.599  1.3733 -1.6184 -2.8842
  771MOL0     H 4080  -0.662   8.277   1.596  1.3624 -1.6306  2.3394
  771MOL0     H 4081  -0.517   8.144   1.226 -1.6949  1.0508 -0.6442
  771MOL0     H 4082  -0.143   8.598   1.555 -2.1526 -1.6775  0.0292
  771MOL0     H 4083   0.185   8.599   1.605  1.1139 -1.7150  0.6328
  771MOL0     H 4084   0.033   8.556   1.689  1.8435  0.4431  0.4810
  771MOL0     H 4085   0.142   8.433   1.653  0.2230  0.3581  2.6452
  772MOL0     O 4086   4.755   9.712   9.581  0.8308  0.9497  0.3360
  772MOL0     C 4087   4.767   9.781   9.479  0.3015 -0.5135 -0.1234
  772MOL0     O 4088   4.767   9.734   9.353  0.3676 -1.0326  0.5241
  772MOL0     C 4089   4.744   9.606   9.333 -0.2552  1.5886  0.4911
  772MOL0     C 4090   4.630   9.568   9.266  0.0584  1.4158  0.0032
  772MOL0     C 4091   4.611   9.429   9.229  0.3196  0.1251  0.0565
  772MOL0     C 4092   4.696   9.327   9.264  0.5912  0.5433  0.5955
  772MOL0     O 4093   4.663   9.196   9.235 -0.6270  0.0622 -0.4910
  772MOL0     C 4094   4.733   9.083   9.297 -0.2413 -0.4251 -0.2658
  772MOL0     C 4095   4.667   8.948   9.261  0.0044  0.5609 -0.6095
  772MOL0     C 4096   4.693   8.899   9.115  0.7632 -0.5850  0.1408
  772MOL0     C 4097   4.664   8.741   9.105  0.3572 -0.1174 -0.1492
  772MOL0     C 4098   4.688   8.682   8.958 -0.3977  0.3462 -1.3409
  772MOL0     C 4099   4.622   8.550   8.929  0.0677  0.7101 -0.2064
  772MOL0     C 4100   4.648   8.501   8.790 -0.2698 -0.0646 -0.1433
  772MOL0     C 4101   4.606   8.351   8.772 -0.7412 -0.7884 -0.0585
  772MOL0     N 4102   4.661   8.257   8.873  0.1017 -0.0920  0.6889
  772MOL0     C 4103   4.790   8.223   8.894 -0.9275  0.8624  0.1439
  772MOL0     C 4104   4.799   8.174   9.018 -0.3816  0.7020 -0.4296
  772MOL0     C 4105   4.934   8.121   9.073  0.1524 -0.6485 -0.8495
  772MOL0     C 4106   4.925   8.024   9.183 -0.7946  1.1952  0.1778
  772MOL0     C 4107   4.932   7.869   9.149 -0.2963  0.4197 -0.1822
  772MOL0     C 4108   4.936   7.786   9.280 -0.0660 -0.4884 -0.3584
  772MOL0     O 4109   4.928   7.652   9.238 -0.4895 -0.2534  0.2134
  772MOL0     C 4110   4.950   7.561   9.346 -0.4480  0.4458  0.1350
  772MOL0     C 4111   4.975   7.425   9.315 -0.6930 -0.6200  0.0481
  772MOL0     C 4112   4.982   7.327   9.414  0.0403 -0.7963 -0.4020
  772MOL0     C 4113   4.979   7.358   9.550  0.5904  0.1654 -0.3971
  772MOL0     C 4114   5.005   7.255   9.649  0.5432  0.2598 -1.0025
  772MOL0     O 4115   4.932   7.263   9.765 -0.3984  0.0593 -0.9032
  772MOL0     C 4116   4.956   7.174   9.866  0.2703  0.5717  0.1614
  772MOL0     C 4117   4.879   7.058   9.890  0.4128  0.8742  1.0808
  772MOL0     C 4118   4.919   6.974   9.993 -0.1742 -0.1291 -0.5041
  772MOL0     C 4119   5.010   7.012  10.084 -0.6632 -0.7272 -0.3438
  772MOL0     O 4120   5.039   6.931  10.197  0.2841  0.7210  0.6160
  772MOL0     C 4121   5.107   6.810  10.164  0.5594 -0.0160  1.5252
  772MOL0     C 4122   5.217   6.786  10.258 -0.5300 -0.1023 -0.8248
  772MOL0     C 4123   5.300   6.903  10.316  0.2804 -0.0393 -0.6012
  772MOL0     C 4124   5.419   6.875  10.418 -0.3183  0.0403 -0.8108
  772MOL0     C 4125   5.382   6.843  10.566 -0.2508  0.8682  0.8395
  772MOL0     C 4126   5.328   6.698  10.586 -0.0113 -0.2361 -0.3566
  772MOL0     C 4127   5.286   6.676  10.734 -0.8465  0.1360  0.8259
  772MOL0     C 4128   5.200   6.547  10.757  0.8538 -0.0406  0.5239
  772MOL0    Cl 4129   5.028   6.592  10.703 -0.0571  0.0360  0.5723
  772MOL0     C 4130   5.084   7.126  10.066 -1.3829 -1.0482  0.8886
  772MOL0     C 4131   5.059   7.205   9.953  0.6716 -0.5058  1.2585
  772MOL0     O 4132   5.071   7.152   9.615 -0.3628 -0.0913 -0.3054
  772MOL0     C 4133   4.956   7.491   9.584 -0.2926  1.0474 -0.1897
  772MOL0     C 4134   4.935   7.592   9.493 -0.4416 -0.5144  0.5041
  772MOL0     N 4135   4.670   8.160   9.070  0.3508  0.7986  0.1896
  772MOL0     N 4136   4.589   8.203   8.978  0.4642  0.1867 -0.4216
  772MOL0     C 4137   4.809   9.366   9.336 -1.1187 -0.2920  0.3622
  772MOL0     C 4138   4.837   9.506   9.366  0.3689  0.7198 -1.0460
  772MOL0     C 4139   4.770   9.928   9.503 -0.4335  0.3560  0.1224
  772MOL0     C 4140   4.783   9.973   9.641  0.6252  0.3200 -0.3972
  772MOL0     C 4141   4.800  10.102   9.681  0.8398 -0.1899  0.3507
  772MOL0     C 4142   4.807  10.200   9.580 -0.5363 -0.4960  0.3085
  772MOL0     O 4143   4.845  10.324   9.620 -0.4895 -0.1022 -0.5622
  772MOL0     C 4144   4.855  10.435   9.526 -0.6604 -0.4277  0.1577
  772MOL0     C 4145   4.919  10.562   9.567 -0.5519 -0.2444 -0.2153
  772MOL0     C 4146   4.866  10.618   9.698 -0.0241 -0.2750 -1.0451
  772MOL0     C 4147   4.919  10.755   9.737 -0.8248  0.5522 -0.3282
  772MOL0     C 4148   5.059  10.741   9.775 -0.0228  0.4647 -0.7864
  772MOL0     C 4149   5.174  10.731   9.818 -0.6066  0.0860  1.5252
  772MOL0     C 4150   4.802  10.160   9.449 -0.9480 -0.1404 -0.1082
  772MOL0     C 4151   4.767  10.038   9.410 -0.6475  0.7999 -0.2973
  772MOL0     C 4152   4.762  10.024   9.262 -0.0816  0.0914 -0.3298
  772MOL0     H 4153   4.556   9.645   9.244 -0.0147  0.9499 -1.4895
  772MOL0     H 4154   4.519   9.411   9.175  1.4476  1.4998 -2.5276
  772MOL0     H 4155   4.841   9.096   9.283 -0.4484 -0.2723 -1.8941
  772MOL0     H 4156   4.722   9.090   9.406 -0.5760  1.4869 -0.3755
  772MOL0     H 4157   4.559   8.943   9.282  0.2616 -2.3809  0.5433
  772MOL0     H 4158   4.715   8.885   9.337  1.5175  0.0188 -1.9525
  772MOL0     H 4159   4.801   8.897   9.102  0.8230 -3.4525  0.3137
  772MOL0     H 4160   4.640   8.957   9.039  1.0068 -0.6937 -0.1134
  772MOL0     H 4161   4.705   8.675   9.183 -0.6680 -1.0915 -0.4052
  772MOL0     H 4162   4.556   8.735   9.121  0.4360  1.4413  1.2079
  772MOL0     H 4163   4.641   8.760   8.897 -2.4260  3.0453  3.1041
  772MOL0     H 4164   4.792   8.676   8.925 -0.9546 -4.0258 -2.8641
  772MOL0     H 4165   4.652   8.471   8.998 -1.0981  0.0527 -0.4267
  772MOL0     H 4166   4.517   8.565   8.954 -0.0696  4.5206 -2.2162
  772MOL0     H 4167   4.755   8.516   8.773 -0.0990 -0.9878  0.0681
  772MOL0     H 4168   4.578   8.551   8.721 -2.4579 -2.6524  0.0701
  772MOL0     H 4169   4.498   8.342   8.782 -0.8491  1.3146  1.1141
  772MOL0     H 4170   4.648   8.317   8.676  3.0933 -1.2487  1.6148
  772MOL0     H 4171   4.882   8.245   8.840  1.1087 -1.1138  2.5336
  772MOL0     H 4172   4.999   8.092   8.990  1.4064  3.0335 -1.3277
  772MOL0     H 4173   4.978   8.213   9.113  1.3652 -0.3738 -2.7097
  772MOL0     H 4174   5.002   8.037   9.259  0.0877  1.9678 -0.8165
  772MOL0     H 4175   4.832   8.043   9.236 -2.3753 -2.6293 -0.8830
  772MOL0     H 4176   5.019   7.848   9.086  0.4165 -1.9945  1.4332
  772MOL0     H 4177   4.850   7.829   9.089  2.2760 -0.6812 -3.2296
  772MOL0     H 4178   4.843   7.812   9.332 -0.1266 -2.3854  0.5531
  772MOL0     H 4179   5.019   7.800   9.350 -1.1694  0.1211  0.8735
  772MOL0     H 4180   4.987   7.415   9.207  1.0316  2.6186 -0.2081
  772MOL0     H 4181   5.004   7.224   9.387  3.0508 -0.5094  0.5236
  772MOL0     H 4182   4.801   7.045   9.816 -0.2494 -0.1987  1.9280
  772MOL0     H 4183   4.876   6.875  10.002  0.3006 -0.4301 -1.4113
  772MOL0     H 4184   5.033   6.730  10.159  1.2518 -0.6265  0.4571
  772MOL0     H 4185   5.136   6.813  10.058 -2.4524 -4.7278  0.2623
  772MOL0     H 4186   5.154   6.761  10.344 -0.7514  3.3394  0.1693
  772MOL0     H 4187   5.275   6.702  10.218 -1.1826 -0.5808 -0.7747
  772MOL0     H 4188   5.342   6.952  10.228 -1.5086  0.8122 -1.0265
  772MOL0     H 4189   5.221   6.965  10.359 -1.3968 -3.1448  1.1565
  772MOL0     H 4190   5.480   6.965  10.424  1.0170 -0.9401  1.9253
  772MOL0     H 4191   5.487   6.797  10.382 -0.1869  0.2960 -1.1205
  772MOL0     H 4192   5.302   6.913  10.589 -2.5349 -0.9058 -1.1933
  772MOL0     H 4193   5.474   6.851  10.625 -0.6982 -2.5217  2.2069
  772MOL0     H 4194   5.244   6.676  10.520 -1.1298  0.3162  0.8406
  772MOL0     H 4195   5.401   6.622  10.556 -1.7265 -1.9454 -0.3752
  772MOL0     H 4196   5.224   6.762  10.764  1.1651  2.9268 -2.2862
  772MOL0     H 4197   5.376   6.674  10.796 -0.7510  1.3964  0.7649
  772MOL0     H 4198   5.244   6.467  10.697 -0.5961  0.9096 -1.9596
  772MOL0     H 4199   5.199   6.545  10.866 -3.5021 -0.4183  0.6750
  772MOL0     H 4200   5.144   7.161  10.150 -1.1389 -1.3405  0.8390
  772MOL0     H 4201   5.101   7.304   9.946  0.1733 -0.1860  2.6266
  772MOL0     H 4202   4.943   7.511   9.690 -2.8292  1.1651 -0.4563
  772MOL0     H 4203   4.904   7.690   9.528 -4.2004 -0.5114 -2.2595
  772MOL0     H 4204   4.881   9.288   9.358 -0.6281 -1.0269 -3.1941
  772MOL0     H 4205   4.930   9.535   9.413 -2.1777  1.2563  4.4190
  772MOL0     H 4206   4.773   9.905   9.725  2.0039  0.0457 -0.4403
  772MOL0     H 4207   4.781  10.118   9.787 -0.4762 -0.1686  0.1234
  772MOL0     H 4208   4.771  10.441   9.456  0.6720 -1.6856 -1.6512
  772MOL0     H 4209   4.937  10.390   9.468 -0.4773 -3.0777  2.2726
  772MOL0     H 4210   4.913  10.635   9.486  1.1661  1.9060  1.4526
  772MOL0     H 4211   5.026  10.556   9.589 -0.9834 -0.2777  2.2266
  772MOL0     H 4212   4.886  10.553   9.784 -0.8435  0.5755 -0.1924
  772MOL0     H 4213   4.758  10.623   9.682 -0.5109 -3.3139  0.5452
  772MOL0     H 4214   4.916  10.816   9.646 -0.3745 -2.7635 -2.7260
  772MOL0     H 4215   4.862  10.804   9.817  1.7313  0.5761  1.6154
  772MOL0     H 4216   5.268  10.726   9.871 -0.1556 -0.4467  0.6987
  772MOL0     H 4217   4.784  10.241   9.380  1.0640 -0.0996 -0.6444
  772MOL0     H 4218   4.836  10.083   9.207 -0.2552 -0.8738 -1.6497
  772MOL0     H 4219   4.777   9.922   9.227  1.3882  0.3208 -0.4286
  772MOL0     H 4220   4.660  10.045   9.228 -1.7136  0.1328  3.9879
  773MOL0     O 4221  10.287  10.648   8.520  0.6895 -0.0139  0.0567
  773MOL0     C 4222  10.299  10.704   8.407  0.2241 -0.0062  0.1160
  773MOL0     O 4223  10.348  10.828   8.391 -0.2055 -0.3484 -0.2571
  773MOL0     C 4224  10.305  10.892   8.277 -0.2251  0.0749 -0.1320
  773MOL0     C 4225  10.381  10.905   8.161 -0.2387 -0.5503  0.0999
  773MOL0     C 4226  10.344  10.984   8.062 -1.0989  0.2534 -0.2574
  773MOL0     C 4227  10.228  11.063   8.066  0.9891  0.6896  0.1016
  773MOL0     O 4228  10.176  11.148   7.970  0.6617 -0.1775  0.8958
  773MOL0     C 4229  10.269  11.202   7.864  0.2963  0.2339 -0.1034
  773MOL0     C 4230  10.195  11.272   7.756 -0.0295  0.5317  0.2945
  773MOL0     C 4231  10.120  11.400   7.792 -0.0829  0.2707 -0.1965
  773MOL0     C 4232  10.053  11.474   7.679 -0.2905 -0.7471  0.2086
  773MOL0     C 4233   9.945  11.579   7.725 -0.0687  0.2699  0.7320
  773MOL0     C 4234   9.849  11.609   7.619 -0.2579 -0.4967  0.2177
  773MOL0     C 4235   9.880  11.680   7.484  1.3924  0.5063 -0.6993
  773MOL0     C 4236   9.919  11.584   7.369  1.5509  0.4051 -0.3902
  773MOL0     N 4237  10.064  11.567   7.356 -0.4719  0.2456  0.1122
  773MOL0     C 4238  10.152  11.669   7.338  0.3392  0.1508 -0.0143
  773MOL0     C 4239  10.277  11.609   7.338 -0.3660 -0.4392  0.9923
  773MOL0     C 4240  10.397  11.696   7.350 -0.0274 -0.8222 -0.5443
  773MOL0     C 4241  10.387  11.796   7.469 -0.0376 -0.5665 -0.9144
  773MOL0     C 4242  10.427  11.712   7.598  0.5246  0.6252  0.5687
  773MOL0     C 4243  10.383  11.779   7.727 -0.1732 -0.8307  0.0779
  773MOL0     O 4244  10.427  11.917   7.743  0.0242  0.3889  0.4041
  773MOL0     C 4245  10.555  11.933   7.785  0.8892  0.1781  0.2003
  773MOL0     C 4246  10.667  11.949   7.704 -0.3450  0.0157 -0.0275
  773MOL0     C 4247  10.796  11.961   7.763  0.5292 -0.9959 -0.2550
  773MOL0     C 4248  10.814  11.941   7.901  0.0422  0.5327 -1.0286
  773MOL0     C 4249  10.949  11.955   7.948 -0.3406  0.3607 -0.3310
  773MOL0     O 4250  11.032  12.032   7.873 -0.3956  0.3311 -0.0949
  773MOL0     C 4251  11.146  12.064   7.939 -0.0674  0.1984 -0.2543
  773MOL0     C 4252  11.271  12.015   7.912 -0.3662  0.0841  0.8872
  773MOL0     C 4253  11.387  12.052   7.984  0.2849  0.0784 -0.3305
  773MOL0     C 4254  11.367  12.141   8.094  0.2687  0.4424 -1.3546
  773MOL0     O 4255  11.459  12.189   8.177 -0.9142  0.3070  0.1386
  773MOL0     C 4256  11.576  12.107   8.214  0.3148 -0.1227 -0.1618
  773MOL0     C 4257  11.678  12.189   8.290  0.4384  0.6828  0.3071
  773MOL0     C 4258  11.809  12.111   8.314  0.5333 -0.1529  0.0152
  773MOL0     C 4259  11.884  12.078   8.184  1.1781  0.5083 -0.1896
  773MOL0     C 4260  12.037  12.058   8.200 -0.3578  1.2482 -0.4783
  773MOL0     C 4261  12.123  12.029   8.084  0.1750 -0.2562 -0.2139
  773MOL0     C 4262  12.131  12.151   7.983  0.4686  0.3238 -0.3625
  773MOL0     C 4263  12.241  12.164   7.884  0.2158  0.5708 -0.3792
  773MOL0    Cl 4264  12.159  12.121   7.723  0.1375  0.1758  0.2170
  773MOL0     C 4265  11.244  12.203   8.115 -0.2536  0.4714  0.2856
  773MOL0     C 4266  11.128  12.164   8.038  0.3008 -1.3344  0.2452
  773MOL0     O 4267  10.979  11.886   8.044 -0.5687  0.7154 -0.1311
  773MOL0     C 4268  10.693  11.934   7.975 -0.3049  0.6064  0.7989
  773MOL0     C 4269  10.569  11.932   7.921 -0.1528 -0.9357  0.7283
  773MOL0     N 4270  10.261  11.472   7.343 -0.4986 -0.1744 -0.3087
  773MOL0     N 4271  10.139  11.454   7.363  0.0566  0.5028 -0.1970
  773MOL0     C 4272  10.156  11.060   8.183  0.1678  0.5941 -0.3185
  773MOL0     C 4273  10.197  10.972   8.285  0.1807 -0.0234 -0.0714
  773MOL0     C 4274  10.250  10.616   8.304  0.4930  0.4542 -0.1099
  773MOL0     C 4275  10.330  10.548   8.203  0.1142 -0.8478 -0.0432
  773MOL0     C 4276  10.286  10.444   8.115  0.6273  0.5141 -0.2524
  773MOL0     C 4277  10.145  10.411   8.122 -0.0693  0.2672  0.0397
  773MOL0     O 4278  10.093  10.315   8.035  0.2832  0.1194 -0.6562
  773MOL0     C 4279  10.185  10.235   7.949 -0.0730  0.4350 -0.1077
  773MOL0     C 4280  10.085  10.140   7.872 -0.2655  0.4605  0.6920
  773MOL0     C 4281  10.059  10.027   7.972  0.2775  0.7139 -0.2802
  773MOL0     C 4282   9.974   9.915   7.916  0.1090 -0.7947 -0.0942
  773MOL0     C 4283   9.927   9.844   8.040  0.2772  0.8863  0.7298
  773MOL0     C 4284   9.892   9.788   8.136  0.1557  1.3860  0.4403
  773MOL0     C 4285  10.065  10.484   8.208  0.3525 -0.0399  0.1270
  773MOL0     C 4286  10.112  10.581   8.302  0.2847 -0.4634 -0.4805
  773MOL0     C 4287  10.000  10.649   8.379  0.2494  0.2804  0.7419
  773MOL0     H 4288  10.469  10.843   8.147 -1.1477 -1.8424 -0.0338
  773MOL0     H 4289  10.396  10.993   7.967 -2.8882  1.5014 -1.1893
  773MOL0     H 4290  10.341  11.260   7.922 -1.2424 -0.8787  3.1866
  773MOL0     H 4291  10.319  11.122   7.809  2.7043  1.0082  0.8490
  773MOL0     H 4292  10.136  11.189   7.716  0.0231 -0.4964  2.2361
  773MOL0     H 4293  10.264  11.303   7.677 -1.2247  1.2179 -0.5222
  773MOL0     H 4294  10.197  11.454   7.848  0.6440 -2.3355  1.4887
  773MOL0     H 4295  10.040  11.378   7.863  0.4313  1.7650  0.9108
  773MOL0     H 4296  10.138  11.532   7.641 -0.7974  1.1074  1.7209
  773MOL0     H 4297  10.010  11.405   7.606 -3.3503  1.0910  0.0750
  773MOL0     H 4298   9.897  11.545   7.817 -0.7194  0.7575  0.5865
  773MOL0     H 4299   9.999  11.669   7.754  2.0495 -1.2875  1.8165
  773MOL0     H 4300   9.790  11.519   7.594  1.6515 -1.4869 -0.9482
  773MOL0     H 4301   9.770  11.665   7.669 -1.6192 -3.9921  2.3769
  773MOL0     H 4302   9.953  11.758   7.506 -0.0966  1.9508 -0.6400
  773MOL0     H 4303   9.790  11.734   7.453 -0.6848  0.7926  4.8212
  773MOL0     H 4304   9.877  11.483   7.378  3.0869 -0.2318 -0.0518
  773MOL0     H 4305   9.877  11.636   7.283 -2.2197 -0.5245  0.6821
  773MOL0     H 4306  10.113  11.769   7.321  2.0726  1.0863  1.1788
  773MOL0     H 4307  10.490  11.639   7.351 -0.4879 -1.5807  0.6194
  773MOL0     H 4308  10.392  11.754   7.257  1.3886 -0.2434 -0.2944
  773MOL0     H 4309  10.465  11.872   7.464 -1.8337  1.3836 -0.5699
  773MOL0     H 4310  10.292  11.850   7.478  2.3319  3.8419  0.3651
  773MOL0     H 4311  10.536  11.698   7.596  0.3711 -1.2986 -3.3041
  773MOL0     H 4312  10.377  11.614   7.598 -3.2710  2.3219 -2.1150
  773MOL0     H 4313  10.397  11.736   7.827 -2.1295  1.5287  1.4657
  773MOL0     H 4314  10.274  11.788   7.723  0.0165  2.0705 -2.1628
  773MOL0     H 4315  10.665  11.922   7.599 -1.0342 -2.2987  0.5183
  773MOL0     H 4316  10.879  11.984   7.697 -2.0410  5.5800 -1.9893
  773MOL0     H 4317  11.297  11.935   7.843  2.8129  1.1978  0.6046
  773MOL0     H 4318  11.484  12.007   7.964 -0.6198 -1.3360 -1.7665
  773MOL0     H 4319  11.554  12.022   8.279 -3.3217  0.4444 -0.4714
  773MOL0     H 4320  11.617  12.064   8.122  0.6716 -1.4404  0.5904
  773MOL0     H 4321  11.699  12.285   8.242  0.0016  0.5017 -0.2525
  773MOL0     H 4322  11.631  12.198   8.389 -0.3111 -1.8990  0.2579
  773MOL0     H 4323  11.875  12.163   8.384 -0.1602 -2.7385  2.7984
  773MOL0     H 4324  11.791  12.019   8.370  2.2148 -0.9160 -0.6406
  773MOL0     H 4325  11.869  12.154   8.107 -1.4372 -2.0690 -2.4777
  773MOL0     H 4326  11.836  11.988   8.144 -2.7731  2.1030  0.4932
  773MOL0     H 4327  12.040  11.967   8.262 -0.3097  1.2034 -0.5462
  773MOL0     H 4328  12.082  12.127   8.272  0.4380 -0.7815  1.1077
  773MOL0     H 4329  12.225  12.006   8.115 -0.0975 -2.2909 -0.6817
  773MOL0     H 4330  12.084  11.941   8.032 -0.7850  0.6116 -1.0007
  773MOL0     H 4331  12.147  12.236   8.051 -0.0958  1.7703 -1.9653
  773MOL0     H 4332  12.034  12.153   7.932 -0.2647 -1.1499  0.8784
  773MOL0     H 4333  12.266  12.270   7.873 -2.1251  1.2435  0.0023
  773MOL0     H 4334  12.328  12.104   7.910 -0.6315  0.6291  3.0356
  773MOL0     H 4335  11.227  12.275   8.194  0.0414  0.1546  0.6411
  773MOL0     H 4336  11.030  12.206   8.057  1.2969  1.2251  0.0381
  773MOL0     H 4337  10.700  11.917   8.082 -2.0424 -0.3151  0.7935
  773MOL0     H 4338  10.488  11.931   7.992 -0.3794  2.2916  0.6394
  773MOL0     H 4339  10.076  11.133   8.186  0.2084  0.9094 -3.3728
  773MOL0     H 4340  10.141  10.980   8.378  0.1379  2.3747 -0.2382
  773MOL0     H 4341  10.431  10.588   8.197  1.0320 -2.1031  4.0489
  773MOL0     H 4342  10.366  10.404   8.054  2.7214  4.2515 -0.2141
  773MOL0     H 4343  10.256  10.172   8.004 -2.8841 -1.0633  2.1050
  773MOL0     H 4344  10.230  10.291   7.867 -0.3264  3.0118  1.4043
  773MOL0     H 4345  10.130  10.097   7.781 -2.1890  1.7603 -0.9695
  773MOL0     H 4346   9.997  10.198   7.844  0.6083  0.1648 -3.2812
  773MOL0     H 4347  10.017  10.070   8.063  2.6401  0.0737  1.2080
  773MOL0     H 4348  10.152   9.985   8.013  1.1856  2.5900 -0.3100
  773MOL0     H 4349   9.888   9.956   7.862  2.3392  2.0384 -1.7755
  773MOL0     H 4350  10.032   9.861   7.841  2.3688  2.4517 -0.8716
  773MOL0     H 4351   9.854   9.740   8.224  0.3298  1.8704  0.7902
  773MOL0     H 4352   9.958  10.466   8.196  0.5084  0.8980 -3.7255
  773MOL0     H 4353   9.908  10.633   8.321  2.0881 -0.9780 -2.0162
  773MOL0     H 4354   9.995  10.598   8.476  0.0431  0.1281  0.6524
  773MOL0     H 4355  10.013  10.755   8.401 -0.0980  0.4783  0.0444
  774MOL0     O 4356  11.255   8.488  10.761 -0.6024 -0.3651 -0.3993
  774MOL0     C 4357  11.156   8.538  10.819 -0.2949 -0.2548  0.6236
  774MOL0     O 4358  11.041   8.473  10.841 -0.3327 -0.0733  0.3569
  774MOL0     C 4359  11.048   8.339  10.884 -0.6331  0.1691 -0.2417
  774MOL0     C 4360  11.013   8.307  11.011 -0.3000  0.2957 -0.0677
  774MOL0     C 4361  11.003   8.176  11.048 -0.0150  0.6514 -1.0767
  774MOL0     C 4362  11.008   8.071  10.952 -0.8642 -1.0256 -0.2052
  774MOL0     O 4363  10.995   7.942  10.998  1.1970 -0.2225 -0.9516
  774MOL0     C 4364  11.029   7.836  10.910  0.5204 -0.5354 -0.5796
  774MOL0     C 4365  11.053   7.717  11.012  0.5871 -0.6372  0.8054
  774MOL0     C 4366  11.045   7.585  10.930 -0.0328 -0.0402  0.1811
  774MOL0     C 4367  10.901   7.549  10.909 -1.0750 -0.7721  0.9597
  774MOL0     C 4368  10.905   7.410  10.851 -0.2889  0.6179 -0.0602
  774MOL0     C 4369  10.751   7.356  10.842  0.2030  1.6193 -0.2775
  774MOL0     C 4370  10.751   7.201  10.830 -0.0207 -0.3518  0.0494
  774MOL0     C 4371  10.804   7.169  10.700  0.5417  0.3876  0.0500
  774MOL0     N 4372  10.794   7.030  10.678  0.5426 -1.1585  0.3418
  774MOL0     C 4373  10.821   6.923  10.762 -0.4516 -0.9133  0.1274
  774MOL0     C 4374  10.766   6.821  10.700 -0.3580  0.1551  0.2291
  774MOL0     C 4375  10.791   6.681  10.749  0.1879  0.2222 -0.2636
  774MOL0     C 4376  10.656   6.608  10.784 -0.0061  0.0605 -0.0190
  774MOL0     C 4377  10.531   6.667  10.867 -0.3340  0.3514  0.4055
  774MOL0     C 4378  10.577   6.681  11.011  0.1627  0.3945  0.7245
  774MOL0     O 4379  10.657   6.803  11.022  0.0634 -0.2933 -0.2746
  774MOL0     C 4380  10.705   6.847  11.140 -0.5384  0.6534 -0.7215
  774MOL0     C 4381  10.764   6.974  11.130 -0.2034 -0.5210 -0.7512
  774MOL0     C 4382  10.831   7.030  11.249  0.1352 -0.5438  0.2223
  774MOL0     C 4383  10.829   6.971  11.380  0.0968  0.1145  0.0569
  774MOL0     C 4384  10.911   7.015  11.493 -1.1507  0.3934 -0.7004
  774MOL0     O 4385  10.969   7.147  11.480 -0.9808 -0.2697  0.0380
  774MOL0     C 4386  11.012   7.209  11.594  0.5621 -0.5007 -0.3955
  774MOL0     C 4387  10.922   7.223  11.706 -0.2342  0.5455 -0.3253
  774MOL0     C 4388  10.955   7.286  11.818 -0.2399 -0.8844 -0.6868
  774MOL0     C 4389  11.083   7.336  11.838  0.2836 -0.4050  0.1975
  774MOL0     O 4390  11.128   7.414  11.944  0.6900  1.1819 -0.2899
  774MOL0     C 4391  11.026   7.417  12.057 -0.8134 -0.1809  0.7058
  774MOL0     C 4392  11.085   7.515  12.162  0.6773 -0.2704 -0.0783
  774MOL0     C 4393  11.101   7.659  12.106  0.7398 -0.5780  1.3194
  774MOL0     C 4394  11.207   7.737  12.155 -0.7180  0.8599  0.1057
  774MOL0     C 4395  11.343   7.679  12.112 -0.8534 -0.2992  0.0684
  774MOL0     C 4396  11.374   7.646  11.968 -0.4545  0.3714  0.0046
  774MOL0     C 4397  11.519   7.620  11.934  0.8355 -0.3088  0.5888
  774MOL0     C 4398  11.571   7.491  11.991  0.6013  0.8839  1.1306
  774MOL0    Cl 4399  11.669   7.430  11.853  0.3262  0.1868  0.4103
  774MOL0     C 4400  11.181   7.320  11.737 -0.4413 -0.6446  0.7993
  774MOL0     C 4401  11.143   7.263  11.613 -0.3520  0.3829 -0.9196
  774MOL0     O 4402  10.917   6.936  11.590  0.3101 -0.4861  0.3577
  774MOL0     C 4403  10.757   6.848  11.383  0.6635 -0.1066  0.6186
  774MOL0     C 4404  10.700   6.775  11.269 -0.6562  0.3586  0.8287
  774MOL0     N 4405  10.712   6.864  10.580  0.9892  1.0507  0.0293
  774MOL0     N 4406  10.726   6.989  10.566 -0.0325 -0.5366  0.0177
  774MOL0     C 4407  11.046   8.104  10.825  0.7628  0.0032  1.0079
  774MOL0     C 4408  11.057   8.234  10.788 -0.6704 -0.8549  0.9047
  774MOL0     C 4409  11.154   8.686  10.833 -0.2886 -0.0082  0.5822
  774MOL0     C 4410  11.044   8.753  10.781  0.4379  0.4544 -0.0016
  774MOL0     C 4411  11.028   8.891  10.794  1.2026 -0.2142  0.2596
  774MOL0     C 4412  11.121   8.965  10.866 -0.4501  0.0309 -0.2545
  774MOL0     O 4413  11.114   9.099  10.900  0.5346  0.5682 -0.1021
  774MOL0     C 4414  10.997   9.164  10.866  0.2641  0.2848  0.6896
  774MOL0     C 4415  11.003   9.213  10.720 -0.9909 -0.8048 -1.2396
  774MOL0     C 4416  11.110   9.325  10.715  0.1953 -0.7599 -0.3240
  774MOL0     C 4417  11.172   9.370  10.574  0.1026  0.1139 -0.4999
  774MOL0     C 4418  11.074   9.383  10.470  1.1154 -0.8029 -0.1391
  774MOL0     C 4419  11.008   9.383  10.370 -0.2044  0.5483 -0.0401
  774MOL0     C 4420  11.238   8.898  10.914 -0.3080  0.3655 -0.0142
  774MOL0     C 4421  11.259   8.764  10.889 -0.9508  0.6074 -0.1359
  774MOL0     C 4422  11.383   8.689  10.942 -0.0132  0.0959  0.8323
  774MOL0     H 4423  10.989   8.391  11.075 -0.6119  1.4482 -1.6403
  774MOL0     H 4424  10.981   8.165  11.154  1.3929  0.7349 -0.7550
  774MOL0     H 4425  10.944   7.830  10.841 -0.6553  0.2777  0.7397
  774MOL0     H 4426  11.126   7.859  10.866  0.9044 -0.0772  0.4718
  774MOL0     H 4427  10.973   7.719  11.087 -1.6668 -1.8695 -1.4027
  774MOL0     H 4428  11.144   7.732  11.070  0.8427 -0.6678  0.4143
  774MOL0     H 4429  11.099   7.503  10.979 -2.0582 -2.2506 -1.1066
  774MOL0     H 4430  11.098   7.612  10.838  0.5656 -0.3299  0.4394
  774MOL0     H 4431  10.842   7.551  11.001  0.3422  1.1890  1.8998
  774MOL0     H 4432  10.842   7.615  10.845  0.9322 -1.7160 -2.1354
  774MOL0     H 4433  10.946   7.415  10.750  0.8635 -0.6687  0.3134
  774MOL0     H 4434  10.959   7.335  10.909 -0.5962 -0.5175 -1.1948
  774MOL0     H 4435  10.685   7.374  10.927  1.2882 -0.1292  0.9983
  774MOL0     H 4436  10.713   7.406  10.752 -0.1388  0.6553 -0.6888
  774MOL0     H 4437  10.649   7.161  10.831 -0.7979  1.0572 -4.1949
  774MOL0     H 4438  10.810   7.153  10.909  1.4362 -2.5779 -2.2495
  774MOL0     H 4439  10.753   7.226  10.621  0.8419 -1.5170 -1.6056
  774MOL0     H 4440  10.910   7.196  10.693  0.7091  0.3350  1.9368
  774MOL0     H 4441  10.878   6.931  10.854  1.0331 -0.3479 -0.8061
  774MOL0     H 4442  10.840   6.631  10.665 -1.5707 -1.3915 -0.4111
  774MOL0     H 4443  10.858   6.668  10.834  0.9818  1.6338 -0.6476
  774MOL0     H 4444  10.619   6.574  10.687 -3.7138  2.5210  0.3170
  774MOL0     H 4445  10.688   6.527  10.849 -0.7636  1.2321  1.9070
  774MOL0     H 4446  10.455   6.589  10.862  0.0084  0.0475 -0.2011
  774MOL0     H 4447  10.497   6.762  10.826 -0.9967 -0.8074 -1.9008
  774MOL0     H 4448  10.634   6.590  11.032 -0.8076 -0.2254  0.7512
  774MOL0     H 4449  10.489   6.674  11.076 -1.5721  2.7127 -1.1807
  774MOL0     H 4450  10.769   7.034  11.040  1.8907  4.9969  2.5774
  774MOL0     H 4451  10.890   7.120  11.233  0.4028  0.2022  4.4466
  774MOL0     H 4452  10.817   7.196  11.697 -0.4626  1.8482 -2.1727
  774MOL0     H 4453  10.883   7.286  11.899  1.4602  1.1651  0.9439
  774MOL0     H 4454  10.928   7.444  12.017  0.3517  0.9505 -1.6094
  774MOL0     H 4455  11.019   7.323  12.113  0.8336  0.4774  2.1126
  774MOL0     H 4456  11.008   7.507  12.240  1.3500  1.8698  0.8464
  774MOL0     H 4457  11.178   7.480  12.208  1.0656  0.5310 -0.2381
  774MOL0     H 4458  11.096   7.667  11.997 -3.7381 -0.4683  1.3295
  774MOL0     H 4459  11.005   7.710  12.122 -0.3577 -1.5082 -1.6373
  774MOL0     H 4460  11.182   7.767  12.257 -2.6225  4.1893 -1.1755
  774MOL0     H 4461  11.199   7.839  12.116  0.2531 -0.2305 -3.3311
  774MOL0     H 4462  11.355   7.594  12.181 -1.0212  1.5184  2.4670
  774MOL0     H 4463  11.409   7.758  12.150 -6.3199  4.6078  0.5870
  774MOL0     H 4464  11.318   7.562  11.924 -1.1809  1.2709 -0.8405
  774MOL0     H 4465  11.354   7.733  11.905  4.2720  0.1707 -2.1845
  774MOL0     H 4466  11.588   7.697  11.968  1.7364 -1.4968  1.5499
  774MOL0     H 4467  11.514   7.618  11.825  3.6542 -1.6473  0.4053
  774MOL0     H 4468  11.633   7.515  12.078  3.1099 -0.8922 -0.0398
  774MOL0     H 4469  11.493   7.417  12.014  1.0557  0.2227  0.5863
  774MOL0     H 4470  11.276   7.371  11.752 -1.6287  1.7892  0.5220
  774MOL0     H 4471  11.219   7.232  11.542  1.4874 -0.7451  1.4080
  774MOL0     H 4472  10.731   6.817  11.484  0.8432 -0.0154  0.6935
  774MOL0     H 4473  10.647   6.682  11.285  3.1157 -1.8314  1.5989
  774MOL0     H 4474  11.050   8.032  10.744  1.5550  2.5017 -1.3262
  774MOL0     H 4475  11.057   8.269  10.686  2.8648 -2.1514  0.3042
  774MOL0     H 4476  10.964   8.697  10.735  0.9608 -0.9886  0.7669
  774MOL0     H 4477  10.940   8.933  10.746  1.3585  1.9326  1.7239
  774MOL0     H 4478  10.977   9.258  10.917 -0.3697 -1.4864  3.9918
  774MOL0     H 4479  10.911   9.096  10.875 -0.0963  0.5331 -0.6453
  774MOL0     H 4480  10.904   9.258  10.710 -1.1405 -0.7776  0.1454
  774MOL0     H 4481  11.018   9.137  10.643  1.5845 -0.4385 -1.1866
  774MOL0     H 4482  11.195   9.290  10.774  1.3912  0.2149 -1.3947
  774MOL0     H 4483  11.070   9.413  10.766  4.6426  1.7479 -0.6186
  774MOL0     H 4484  11.213   9.469  10.596 -0.7037 -0.1840  2.9337
  774MOL0     H 4485  11.249   9.296  10.552 -0.3921  0.0411 -2.1044
  774MOL0     H 4486  10.969   9.386  10.270  1.1211 -0.2264 -0.6230
  774MOL0     H 4487  11.297   8.969  10.970 -3.6257  2.6720  0.8377
  774MOL0     H 4488  11.363   8.606  11.011  0.8873  0.0452  1.0475
  774MOL0     H 4489  11.434   8.663  10.849 -1.6148  0.9875 -0.3385
  774MOL0     H 4490  11.442   8.765  10.995  1.2419  1.8033 -2.6962
  775MOL0     O 4491   9.692   1.558   3.822  0.3705 -0.3863  0.4503
  775MOL0     C 4492   9.725   1.572   3.939 -0.6820 -0.8840  0.8029
  775MOL0     O 4493   9.650   1.563   4.051 -0.2898  0.3293 -0.3499
  775MOL0     C 4494   9.517   1.545   4.029  0.7796 -0.4289  0.3473
  775MOL0     C 4495   9.431   1.653   4.063 -0.7012 -0.4451  0.0501
  775MOL0     C 4496   9.293   1.641   4.038 -0.6244 -0.9062  0.1561
  775MOL0     C 4497   9.235   1.527   3.972  0.0320 -0.2478 -0.0308
  775MOL0     O 4498   9.107   1.511   3.948  1.0194 -0.0078 -0.5686
  775MOL0     C 4499   9.011   1.585   4.026  0.6660  0.1751 -0.5088
  775MOL0     C 4500   8.874   1.576   3.966 -0.3977  0.3806  0.6869
  775MOL0     C 4501   8.840   1.439   3.907 -0.1258 -0.4716  0.4121
  775MOL0     C 4502   8.714   1.452   3.813 -0.3408 -0.0673 -0.3351
  775MOL0     C 4503   8.586   1.490   3.886  0.6327  0.6089 -0.1456
  775MOL0     C 4504   8.486   1.564   3.791  0.6777  0.3216  1.5433
  775MOL0     C 4505   8.529   1.703   3.764  0.6343 -0.8076  0.1155
  775MOL0     C 4506   8.426   1.759   3.664  0.0991 -0.0250 -0.4065
  775MOL0     N 4507   8.299   1.794   3.721  0.1790 -0.1701 -0.4579
  775MOL0     C 4508   8.267   1.843   3.849 -0.0109 -0.3006 -0.1347
  775MOL0     C 4509   8.134   1.872   3.849  0.0099 -0.4544 -0.5141
  775MOL0     C 4510   8.058   1.913   3.972 -0.1352  0.5919 -0.4792
  775MOL0     C 4511   8.043   2.071   3.976 -0.6840  0.5438 -0.3973
  775MOL0     C 4512   8.184   2.137   4.011  0.6019  0.3546 -0.4642
  775MOL0     C 4513   8.210   2.112   4.161  0.3946  0.2142 -0.0329
  775MOL0     O 4514   8.319   2.192   4.195  0.0759  0.6738 -0.6430
  775MOL0     C 4515   8.449   2.139   4.203 -0.4038 -1.2121  0.2548
  775MOL0     C 4516   8.545   2.231   4.227 -1.4178  0.0506 -0.8736
  775MOL0     C 4517   8.680   2.201   4.242  0.5119 -0.0457 -0.4690
  775MOL0     C 4518   8.724   2.068   4.220 -0.7873  0.1285 -0.0296
  775MOL0     C 4519   8.867   2.033   4.225 -0.8490  1.0316 -0.0786
  775MOL0     O 4520   8.964   2.131   4.214 -0.3006 -0.0769 -0.2185
  775MOL0     C 4521   9.103   2.097   4.205 -0.4746  0.7969 -0.2478
  775MOL0     C 4522   9.187   2.173   4.278  0.1106 -0.1630  0.6403
  775MOL0     C 4523   9.324   2.173   4.253 -1.1402  0.4388 -0.4443
  775MOL0     C 4524   9.379   2.096   4.149  0.7822 -0.3145 -0.2895
  775MOL0     O 4525   9.511   2.117   4.115  0.0133  0.1345 -0.8239
  775MOL0     C 4526   9.573   2.035   4.021 -0.1267  0.1338 -1.0257
  775MOL0     C 4527   9.708   2.100   3.990 -0.0363 -0.9912  0.3651
  775MOL0     C 4528   9.789   2.036   3.881 -0.1569  0.1094  0.8561
  775MOL0     C 4529   9.915   2.113   3.851 -0.2797 -0.8282  0.8582
  775MOL0     C 4530  10.022   2.020   3.785 -0.0284  0.4553 -0.7685
  775MOL0     C 4531  10.140   2.092   3.729 -0.1620  0.7282  0.5434
  775MOL0     C 4532  10.235   1.980   3.664  0.2240  0.7615 -0.0798
  775MOL0     C 4533  10.339   2.026   3.560  0.7476 -0.7095 -0.7346
  775MOL0    Cl 4534  10.456   2.127   3.648  0.1840  0.5572  0.1905
  775MOL0     C 4535   9.297   2.010   4.082 -0.1277 -0.3838  0.2308
  775MOL0     C 4536   9.159   2.014   4.113 -0.1353 -0.0448  0.1938
  775MOL0     O 4537   8.887   1.914   4.247 -0.6114 -0.2461 -0.6390
  775MOL0     C 4538   8.626   1.977   4.183  0.1574  0.7489 -0.3053
  775MOL0     C 4539   8.487   2.010   4.180 -0.6703 -0.4098  0.8399
  775MOL0     N 4540   8.094   1.851   3.718  0.4686  0.5745  1.1603
  775MOL0     N 4541   8.186   1.800   3.647 -0.1690 -0.2851 -0.1320
  775MOL0     C 4542   9.326   1.433   3.934 -0.1792 -0.1241  0.2548
  775MOL0     C 4543   9.465   1.437   3.961 -0.3212 -0.4823 -0.3200
  775MOL0     C 4544   9.877   1.592   3.965 -0.6769  0.9760 -0.3522
  775MOL0     C 4545   9.923   1.589   4.100 -0.1408 -0.0902 -0.3777
  775MOL0     C 4546  10.053   1.600   4.127 -0.9148 -0.1444  0.4489
  775MOL0     C 4547  10.151   1.632   4.034  0.2708  0.5336 -0.2186
  775MOL0     O 4548  10.277   1.661   4.080 -0.9117  0.3738 -0.0281
  775MOL0     C 4549  10.368   1.683   3.970  0.4381 -0.0052  0.1937
  775MOL0     C 4550  10.519   1.701   4.019  0.5028  0.4421  0.2473
  775MOL0     C 4551  10.574   1.581   4.096  0.0316  0.5773 -0.1409
  775MOL0     C 4552  10.727   1.587   4.138  0.6936  0.2430  0.6002
  775MOL0     C 4553  10.751   1.662   4.262 -0.1132 -0.2101 -0.1711
  775MOL0     C 4554  10.764   1.727   4.363 -1.0936 -0.4495  0.8190
  775MOL0     C 4555  10.097   1.652   3.899 -0.3698 -0.2921  0.6684
  775MOL0     C 4556   9.966   1.626   3.863 -0.0969 -0.1125 -0.0905
  775MOL0     C 4557   9.923   1.644   3.720  0.0164  0.0317  0.0916
  775MOL0     H 4558   9.487   1.739   4.099  0.0560 -0.2309 -1.5407
  775MOL0     H 4559   9.235   1.717   4.090 -1.1243 -2.0129  1.2786
  775MOL0     H 4560   9.010   1.555   4.131  0.2316 -3.1869 -1.3275
  775MOL0     H 4561   9.032   1.692   4.031 -1.2747  0.5590  0.3003
  775MOL0     H 4562   8.877   1.663   3.899 -3.0929 -2.8950 -4.3431
  775MOL0     H 4563   8.805   1.608   4.046 -0.5103  2.1803 -0.0760
  775MOL0     H 4564   8.822   1.378   3.995  0.0025 -0.9715  0.0961
  775MOL0     H 4565   8.925   1.406   3.846  0.3216  0.4163  0.5411
  775MOL0     H 4566   8.732   1.533   3.742 -2.8659  0.5541 -0.3438
  775MOL0     H 4567   8.710   1.360   3.754  1.7642 -1.1291  1.0600
  775MOL0     H 4568   8.535   1.398   3.915 -0.2865  0.9832 -0.5113
  775MOL0     H 4569   8.610   1.544   3.978  4.1350  2.8050 -2.1175
  775MOL0     H 4570   8.491   1.495   3.706 -3.3170  1.0879  0.4860
  775MOL0     H 4571   8.385   1.568   3.832 -0.9442  0.6944 -2.0716
  775MOL0     H 4572   8.628   1.702   3.719  0.5862  0.8685 -0.0911
  775MOL0     H 4573   8.531   1.769   3.852  0.9090 -0.3408 -0.2392
  775MOL0     H 4574   8.475   1.847   3.620  0.8458 -0.3095 -0.1647
  775MOL0     H 4575   8.404   1.679   3.593 -1.8007  0.7160 -0.7130
  775MOL0     H 4576   8.335   1.843   3.934  0.2600  0.4371 -0.3404
  775MOL0     H 4577   7.961   1.862   3.964 -0.4473  1.4218 -2.4552
  775MOL0     H 4578   8.108   1.872   4.061  0.9251  1.0656 -0.8394
  775MOL0     H 4579   7.993   2.092   3.881 -0.5758 -2.0420 -1.0771
  775MOL0     H 4580   7.970   2.103   4.052  0.1750  3.7655 -0.7764
  775MOL0     H 4581   8.182   2.240   3.975 -1.6389  0.0424 -1.3589
  775MOL0     H 4582   8.268   2.093   3.956  1.0690  1.0162 -0.2890
  775MOL0     H 4583   8.219   2.005   4.181 -0.1825 -0.0838 -1.2505
  775MOL0     H 4584   8.125   2.144   4.222 -0.6231 -0.8539 -0.8534
  775MOL0     H 4585   8.514   2.334   4.244  2.1957  0.6538  3.9687
  775MOL0     H 4586   8.761   2.269   4.267  1.3598 -0.1626 -2.6182
  775MOL0     H 4587   9.155   2.232   4.363 -0.5686  1.0386 -0.4204
  775MOL0     H 4588   9.380   2.227   4.328  0.4686 -0.3404 -1.0513
  775MOL0     H 4589   9.578   1.936   4.066 -0.4813 -0.2374 -1.7978
  775MOL0     H 4590   9.511   2.041   3.932 -1.4102  0.2003 -0.1593
  775MOL0     H 4591   9.684   2.206   3.983 -3.6006 -1.3745  3.6973
  775MOL0     H 4592   9.766   2.098   4.082 -2.6708  0.7208  2.1847
  775MOL0     H 4593   9.813   1.931   3.905 -0.1356 -0.8596 -2.7717
  775MOL0     H 4594   9.725   2.019   3.794  1.4040 -1.1035 -0.1084
  775MOL0     H 4595   9.943   2.146   3.951 -1.0798 -0.1982  0.8771
  775MOL0     H 4596   9.901   2.203   3.791 -0.3394 -2.0130 -1.0080
  775MOL0     H 4597   9.968   1.978   3.700 -0.3252  1.5452 -1.1307
  775MOL0     H 4598  10.044   1.942   3.859 -2.5190 -1.0290 -1.4585
  775MOL0     H 4599  10.106   2.168   3.657 -0.5000 -1.6522 -1.9649
  775MOL0     H 4600  10.185   2.149   3.811 -2.3054  1.0307  1.5753
  775MOL0     H 4601  10.171   1.897   3.634 -0.5140  1.0226  0.7433
  775MOL0     H 4602  10.293   1.935   3.745  0.6975  1.6257  0.0786
  775MOL0     H 4603  10.392   1.943   3.513 -1.8082 -2.6896 -0.3553
  775MOL0     H 4604  10.294   2.092   3.485 -1.7112  0.4004  1.5212
  775MOL0     H 4605   9.324   1.934   4.010  1.0337  0.6819 -0.5080
  775MOL0     H 4606   9.089   1.951   4.060 -1.3242 -0.8318  2.5633
  775MOL0     H 4607   8.664   1.882   4.148 -3.3852 -1.3074  0.8663
  775MOL0     H 4608   8.427   1.934   4.131  0.4615 -0.0298 -1.2853
  775MOL0     H 4609   9.293   1.353   3.868  0.9405  0.3342 -0.9050
  775MOL0     H 4610   9.528   1.349   3.949  0.8699  0.1330  1.0312
  775MOL0     H 4611   9.871   1.557   4.190  2.5047  1.0534  1.7050
  775MOL0     H 4612  10.098   1.578   4.223  1.0320 -1.9262 -0.7813
  775MOL0     H 4613  10.327   1.760   3.905 -0.1883 -1.0984 -0.7386
  775MOL0     H 4614  10.371   1.599   3.900  1.4830  0.9676 -0.9765
  775MOL0     H 4615  10.523   1.789   4.084 -0.6231  0.2541  0.5842
  775MOL0     H 4616  10.578   1.726   3.930  1.3417  1.7334  1.1381
  775MOL0     H 4617  10.565   1.495   4.029 -0.7612  0.7421 -0.2598
  775MOL0     H 4618  10.513   1.557   4.184  0.1727 -1.4803 -0.5581
  775MOL0     H 4619  10.758   1.485   4.165  0.8941  0.7586  2.4842
  775MOL0     H 4620  10.782   1.620   4.049  0.5897  2.4912  1.3046
  775MOL0     H 4621  10.798   1.795   4.438 -1.4476  2.4323 -1.4410
  775MOL0     H 4622  10.150   1.701   3.818 -1.0171  2.7193  1.9217
  775MOL0     H 4623  10.010   1.649   3.654  0.0340 -4.2268 -0.4821
  775MOL0     H 4624   9.860   1.566   3.675 -3.2978  1.1446  2.3881
  775MOL0     H 4625   9.863   1.735   3.710  0.5993  0.3556 -0.5511
  776MOL0     O 4626   4.801   7.989  11.283 -0.4348 -0.0175 -1.4596
  776MOL0     C 4627   4.853   7.888  11.329  0.0772 -0.2468 -0.8000
  776MOL0     O 4628   4.920   7.885  11.449 -0.0603 -0.5618 -0.1595
  776MOL0     C 4629   4.925   8.012  11.515 -0.1664 -0.4591 -0.0191
  776MOL0     C 4630   5.022   8.110  11.477 -0.2535 -0.1782  1.0701
  776MOL0     C 4631   5.018   8.236  11.534 -1.1006 -0.8676 -0.8363
  776MOL0     C 4632   4.921   8.253  11.640  0.6128 -0.2404 -0.4678
  776MOL0     O 4633   4.914   8.387  11.678  0.1458  0.9715 -0.3383
  776MOL0     C 4634   4.849   8.428  11.799  0.6491 -0.1812 -0.6481
  776MOL0     C 4635   4.953   8.444  11.908 -0.6220 -0.1389  0.8782
  776MOL0     C 4636   5.048   8.563  11.877 -0.5844  0.7284  0.8518
  776MOL0     C 4637   5.174   8.529  11.788 -0.1236  0.3206 -0.0664
  776MOL0     C 4638   5.283   8.469  11.873 -0.6246  0.9691  0.6744
  776MOL0     C 4639   5.371   8.557  11.957 -0.3158  0.0758 -0.1533
  776MOL0     C 4640   5.428   8.672  11.887 -0.9085 -0.2506 -0.3674
  776MOL0     C 4641   5.545   8.636  11.791  0.3587 -0.2622  1.0462
  776MOL0     N 4642   5.656   8.569  11.855  0.1029 -0.7860 -0.0798
  776MOL0     C 4643   5.763   8.621  11.938  1.1118  0.2832 -0.0813
  776MOL0     C 4644   5.863   8.529  11.928  0.0991  0.2403 -0.0299
  776MOL0     C 4645   5.994   8.565  11.986  0.0845  0.5347  0.1170
  776MOL0     C 4646   6.098   8.639  11.897 -0.3770 -1.1166  0.0855
  776MOL0     C 4647   6.141   8.540  11.781  0.0626  0.6697  0.6929
  776MOL0     C 4648   6.265   8.589  11.702  0.0385 -0.2361 -0.0778
  776MOL0     O 4649   6.242   8.716  11.637 -0.1759  0.0325 -0.9448
  776MOL0     C 4650   6.340   8.761  11.553  0.9359 -0.5017 -1.3812
  776MOL0     C 4651   6.470   8.709  11.550 -0.0563  0.4606 -0.1602
  776MOL0     C 4652   6.560   8.751  11.445 -0.2235 -0.0917  0.2707
  776MOL0     C 4653   6.513   8.856  11.356 -1.0245  0.1243  0.2846
  776MOL0     C 4654   6.604   8.901  11.247  0.2251 -0.3649 -0.1203
  776MOL0     O 4655   6.730   8.846  11.248  0.7284  1.0022 -0.3497
  776MOL0     C 4656   6.799   8.849  11.125 -0.3421 -0.0136 -0.5845
  776MOL0     C 4657   6.733   8.838  10.997 -0.1709 -0.4472  0.1036
  776MOL0     C 4658   6.813   8.839  10.880  0.4763  0.4644 -0.3732
  776MOL0     C 4659   6.950   8.848  10.887 -0.2055  0.2879 -0.4253
  776MOL0     O 4660   7.025   8.851  10.765  0.1190 -0.5094  0.3602
  776MOL0     C 4661   7.069   8.988  10.725  0.4569  0.1815 -1.5893
  776MOL0     C 4662   7.163   8.966  10.610 -1.0291 -0.6176  0.5340
  776MOL0     C 4663   7.299   8.906  10.646 -1.2004  0.6122  0.6480
  776MOL0     C 4664   7.322   8.768  10.580 -0.2019 -1.0181 -0.2861
  776MOL0     C 4665   7.238   8.650  10.643  0.0906  0.9275 -0.8871
  776MOL0     C 4666   7.299   8.510  10.616  0.5659 -0.5565 -0.3844
  776MOL0     C 4667   7.344   8.481  10.466 -0.1623 -0.0736 -0.3097
  776MOL0     C 4668   7.224   8.409  10.395  0.3516 -0.1364  0.0275
  776MOL0    Cl 4669   7.083   8.501  10.351  0.3124 -0.4174  0.0673
  776MOL0     C 4670   7.014   8.838  11.010 -0.4617  0.8886  0.0057
  776MOL0     C 4671   6.940   8.836  11.130 -0.1147 -0.3465 -0.1056
  776MOL0     O 4672   6.564   8.990  11.168 -0.5186 -0.4440 -0.3098
  776MOL0     C 4673   6.388   8.915  11.373  0.1231  0.0682 -0.5977
  776MOL0     C 4674   6.305   8.869  11.464  0.4257 -0.9788 -0.1726
  776MOL0     N 4675   5.815   8.427  11.850 -0.4539  0.1851 -0.6796
  776MOL0     N 4676   5.692   8.445  11.809  0.1352 -0.1214 -0.0595
  776MOL0     C 4677   4.824   8.154  11.684 -0.6583 -1.5714  0.1001
  776MOL0     C 4678   4.835   8.035  11.618  0.7173  0.1376  0.7550
  776MOL0     C 4679   4.804   7.765  11.262 -0.2703  1.1151  0.3583
  776MOL0     C 4680   4.758   7.773  11.128 -1.2305  0.5614 -0.4255
  776MOL0     C 4681   4.701   7.664  11.058 -0.2503  0.9073 -1.0143
  776MOL0     C 4682   4.684   7.543  11.122  0.5219  0.1569 -1.5107
  776MOL0     O 4683   4.634   7.428  11.063 -0.0870  0.3195 -0.5818
  776MOL0     C 4684   4.636   7.417  10.924 -0.3305 -0.0660  0.1300
  776MOL0     C 4685   4.569   7.290  10.869  0.5079  0.0941  0.8293
  776MOL0     C 4686   4.431   7.249  10.926 -0.2811 -0.0726 -0.4813
  776MOL0     C 4687   4.349   7.156  10.826 -0.5375 -0.3008 -0.4543
  776MOL0     C 4688   4.416   7.037  10.780  0.4363  0.6215 -1.1264
  776MOL0     C 4689   4.480   6.943  10.744 -0.4264  0.6627 -0.2319
  776MOL0     C 4690   4.720   7.538  11.256 -0.8172  0.5895  0.9337
  776MOL0     C 4691   4.779   7.645  11.331 -0.6669  0.4270 -0.2016
  776MOL0     C 4692   4.805   7.625  11.482 -1.1234 -0.0696 -0.8338
  776MOL0     H 4693   5.094   8.097  11.396 -0.1132 -0.8807  1.2967
  776MOL0     H 4694   5.088   8.313  11.506 -1.1340 -0.1697  0.8713
  776MOL0     H 4695   4.803   8.524  11.775  1.3289  0.1148 -0.7849
  776MOL0     H 4696   4.778   8.351  11.830  1.4732 -0.5445  0.4094
  776MOL0     H 4697   5.015   8.354  11.916  1.1393  0.7504 -1.4573
  776MOL0     H 4698   4.909   8.452  12.008 -0.7470 -1.5370  0.9571
  776MOL0     H 4699   5.095   8.602  11.968 -0.4506 -0.8752  1.4985
  776MOL0     H 4700   4.986   8.646  11.841  0.4237  1.2159  0.1849
  776MOL0     H 4701   5.159   8.448  11.715  1.6721  0.0518 -0.1708
  776MOL0     H 4702   5.204   8.615  11.727  0.9725  0.9925  1.3647
  776MOL0     H 4703   5.251   8.396  11.948  0.0959  1.9891  2.0194
  776MOL0     H 4704   5.347   8.424  11.797 -0.9922  0.9139  0.3936
  776MOL0     H 4705   5.302   8.579  12.039  0.3044  1.5252  0.0047
  776MOL0     H 4706   5.450   8.491  11.994  0.4191  0.4700 -1.0214
  776MOL0     H 4707   5.478   8.739  11.958  1.4895 -3.4020  1.1299
  776MOL0     H 4708   5.347   8.734  11.847 -0.1647  1.1169  0.1648
  776MOL0     H 4709   5.504   8.575  11.710 -1.0166  1.4588  0.3883
  776MOL0     H 4710   5.597   8.721  11.746 -0.1834 -0.8743 -0.8187
  776MOL0     H 4711   5.768   8.709  12.001  1.5867 -0.6439  1.2336
  776MOL0     H 4712   5.968   8.629  12.071 -0.1478  0.2456  0.2671
  776MOL0     H 4713   6.037   8.472  12.025 -2.3661 -2.0751 -2.8269
  776MOL0     H 4714   6.049   8.726  11.852  1.4716  0.7005  1.4222
  776MOL0     H 4715   6.185   8.667  11.957 -1.5058 -0.8316  1.6464
  776MOL0     H 4716   6.064   8.502  11.713  0.3131 -0.9465  1.2715
  776MOL0     H 4717   6.174   8.448  11.828  3.0938  0.3696 -1.7428
  776MOL0     H 4718   6.290   8.510  11.631 -0.8597  0.6742 -1.4415
  776MOL0     H 4719   6.353   8.594  11.768  0.6794  1.4158 -1.0030
  776MOL0     H 4720   6.515   8.625  11.603 -0.9248 -0.9053 -1.5128
  776MOL0     H 4721   6.661   8.712  11.438  1.1254  3.2481 -1.9622
  776MOL0     H 4722   6.625   8.836  10.992 -0.3744  2.2633  1.3575
  776MOL0     H 4723   6.760   8.850  10.786  2.3195  2.7985 -1.2246
  776MOL0     H 4724   6.980   9.041  10.692 -2.2677 -0.6513  3.4547
  776MOL0     H 4725   7.099   9.052  10.808 -2.2100 -2.1637  1.4431
  776MOL0     H 4726   7.105   8.901  10.544  3.0428 -2.5703 -1.4732
  776MOL0     H 4727   7.183   9.065  10.567  1.0792 -3.2150 -5.3702
  776MOL0     H 4728   7.371   8.977  10.604 -1.0621  0.7221  1.0636
  776MOL0     H 4729   7.329   8.906  10.751  2.8371  0.0109 -0.3512
  776MOL0     H 4730   7.428   8.740  10.579  0.5190  1.3797  0.1932
  776MOL0     H 4731   7.296   8.776  10.474 -0.3462  1.3700 -0.1246
  776MOL0     H 4732   7.136   8.646  10.605  0.4683  0.6479 -1.9081
  776MOL0     H 4733   7.245   8.651  10.752 -2.3386 -1.7275 -0.6184
  776MOL0     H 4734   7.384   8.502  10.684 -0.7916 -1.4783  1.2738
  776MOL0     H 4735   7.223   8.441  10.652 -0.8231  1.7715  1.4228
  776MOL0     H 4736   7.434   8.421  10.459 -0.9885 -1.7874  2.3418
  776MOL0     H 4737   7.368   8.573  10.410  1.6694 -0.0808  0.4014
  776MOL0     H 4738   7.258   8.390  10.293 -0.9939  0.5209 -0.5586
  776MOL0     H 4739   7.197   8.319  10.452  2.9363 -0.0639  1.5517
  776MOL0     H 4740   7.123   8.841  11.013 -0.5064  3.4115  0.8354
  776MOL0     H 4741   6.984   8.817  11.228  1.6373  1.9967 -0.3373
  776MOL0     H 4742   6.344   8.989  11.308  0.5879  1.7091  0.8920
  776MOL0     H 4743   6.206   8.913  11.462  0.9800  0.3428  0.4170
  776MOL0     H 4744   4.747   8.168  11.759 -1.8699 -1.6001 -1.1002
  776MOL0     H 4745   4.770   7.952  11.639 -1.3768  1.1692 -1.1783
  776MOL0     H 4746   4.771   7.866  11.073  2.2780  1.8573  2.1942
  776MOL0     H 4747   4.689   7.683  10.952  1.0988  4.1821 -0.6967
  776MOL0     H 4748   4.742   7.424  10.896 -0.6783 -0.1826 -1.3073
  776MOL0     H 4749   4.588   7.503  10.877 -1.6697 -1.2006 -0.6524
  776MOL0     H 4750   4.640   7.208  10.881  0.2401 -0.0039  1.8323
  776MOL0     H 4751   4.547   7.300  10.763  4.1272 -1.1677 -0.1862
  776MOL0     H 4752   4.373   7.337  10.957 -1.1869  0.4447 -3.3031
  776MOL0     H 4753   4.445   7.180  11.010  1.1912  1.2119  0.3729
  776MOL0     H 4754   4.253   7.130  10.872  0.3493  1.2793  2.5477
  776MOL0     H 4755   4.314   7.213  10.739  1.4895 -0.5120 -1.4628
  776MOL0     H 4756   4.506   6.844  10.714 -3.0894 -1.0249  2.4556
  776MOL0     H 4757   4.705   7.443  11.307 -2.3534 -0.8905 -1.9970
  776MOL0     H 4758   4.737   7.679  11.548  0.8878  2.0703 -0.3608
  776MOL0     H 4759   4.795   7.519  11.506  2.7651 -0.2934  0.5455
  776MOL0     H 4760   4.908   7.640  11.517 -1.8395 -3.6023  3.6190
  777MOL0     O 4761  10.989   2.357   1.216  0.7788 -0.5557 -0.4746
  777MOL0     C 4762  11.010   2.289   1.121  0.0195 -0.1410  0.5734
  777MOL0     O 4763  11.035   2.157   1.129 -0.1680  0.5522 -1.3106
  777MOL0     C 4764  11.050   2.102   1.259  0.4862  0.4065 -0.5484
  777MOL0     C 4765  11.167   2.034   1.295 -0.2318 -0.3558 -1.5715
  777MOL0     C 4766  11.169   1.956   1.410 -0.9042  1.0502 -0.4240
  777MOL0     C 4767  11.060   1.944   1.496  0.1145 -0.1986 -0.2880
  777MOL0     O 4768  11.050   1.879   1.613 -0.0150 -0.0121  1.0018
  777MOL0     C 4769  11.159   1.856   1.700  0.8147  0.2836 -0.0912
  777MOL0     C 4770  11.141   1.917   1.839 -0.5273 -0.7259 -0.0433
  777MOL0     C 4771  11.072   2.050   1.831  0.8101 -0.1893  1.1537
  777MOL0     C 4772  11.156   2.152   1.747  0.2648 -0.1978  0.7258
  777MOL0     C 4773  11.080   2.285   1.713  0.7081  0.6045  0.4074
  777MOL0     C 4774  11.171   2.396   1.652 -0.1853  0.1871 -0.3777
  777MOL0     C 4775  11.090   2.523   1.655 -0.4838 -0.7015  0.2499
  777MOL0     C 4776  11.175   2.645   1.660 -0.2495 -0.3596 -0.9126
  777MOL0     N 4777  11.161   2.748   1.559  0.6800 -0.0400 -0.1833
  777MOL0     C 4778  11.176   2.725   1.424  0.2193  0.0350 -0.2755
  777MOL0     C 4779  11.159   2.849   1.376  0.0014  1.0299 -0.1701
  777MOL0     C 4780  11.141   2.893   1.242  0.1387  0.7594 -0.3298
  777MOL0     C 4781  11.233   2.833   1.132 -0.1802 -0.8359 -0.5723
  777MOL0     C 4782  11.228   2.910   0.998 -0.3281 -0.3730  0.0662
  777MOL0     C 4783  11.317   2.841   0.890 -0.2515 -0.5894 -0.1272
  777MOL0     O 4784  11.257   2.727   0.849 -0.2543 -0.1633 -0.2135
  777MOL0     C 4785  11.330   2.642   0.771 -0.0856 -0.0564 -0.1590
  777MOL0     C 4786  11.416   2.683   0.674 -0.4521 -0.2415  0.7179
  777MOL0     C 4787  11.490   2.589   0.603 -0.6014 -0.2605 -0.0095
  777MOL0     C 4788  11.464   2.457   0.607 -0.3115  0.6716  0.1565
  777MOL0     C 4789  11.545   2.371   0.524  0.6209  0.3446 -0.9714
  777MOL0     O 4790  11.616   2.432   0.424 -0.1204 -0.2980 -0.2759
  777MOL0     C 4791  11.698   2.375   0.335  1.0214  0.8289  0.3829
  777MOL0     C 4792  11.742   2.237   0.326  0.4083 -0.0022  0.0756
  777MOL0     C 4793  11.808   2.193   0.212  0.1076 -0.4345 -0.1604
  777MOL0     C 4794  11.845   2.279   0.109  0.2744 -1.4024  0.1721
  777MOL0     O 4795  11.912   2.248  -0.006  0.0293 -0.2939 -0.2529
  777MOL0     C 4796  12.000   2.134  -0.007  0.1086 -0.6972 -0.0129
  777MOL0     C 4797  11.941   2.027  -0.096  0.2028 -0.1103 -0.5455
  777MOL0     C 4798  11.910   2.073  -0.237 -0.5789 -0.8194  0.2036
  777MOL0     C 4799  11.768   2.082  -0.284 -0.4436 -0.4945  0.8157
  777MOL0     C 4800  11.771   2.075  -0.442  0.0312  0.2747  0.1945
  777MOL0     C 4801  11.637   2.068  -0.500 -0.3839  0.0048 -0.5538
  777MOL0     C 4802  11.654   1.999  -0.636  0.4316 -0.3384 -0.7918
  777MOL0     C 4803  11.533   1.983  -0.715  0.2786  0.0335  0.6021
  777MOL0    Cl 4804  11.465   2.140  -0.751  0.1867  0.2456  0.3530
  777MOL0     C 4805  11.801   2.409   0.119 -0.0133  0.6894 -0.0696
  777MOL0     C 4806  11.721   2.452   0.218  0.0968  0.4482 -0.7343
  777MOL0     O 4807  11.543   2.248   0.538  0.0973  0.6739 -0.0274
  777MOL0     C 4808  11.364   2.411   0.698 -0.1407 -0.8229  0.9501
  777MOL0     C 4809  11.299   2.502   0.778  0.1488 -0.1921 -0.8874
  777MOL0     N 4810  11.133   2.941   1.476 -0.4329  0.2805 -0.1275
  777MOL0     N 4811  11.132   2.872   1.585 -1.3104  0.0306 -0.6598
  777MOL0     C 4812  10.945   2.021   1.462 -0.6494 -0.5009  0.6714
  777MOL0     C 4813  10.937   2.096   1.346  0.2918 -0.8926  0.5730
  777MOL0     C 4814  11.005   2.344   0.977  0.4283  0.0028  0.9010
  777MOL0     C 4815  11.015   2.249   0.867 -0.4410 -0.1973 -0.3177
  777MOL0     C 4816  11.016   2.296   0.733 -1.6597  0.3621  0.1578
  777MOL0     C 4817  11.001   2.431   0.701  0.5395 -0.0149 -0.0129
  777MOL0     O 4818  11.003   2.443   0.563  0.2204 -0.8558 -0.2105
  777MOL0     C 4819  11.029   2.572   0.504  0.1360 -0.3480  0.0708
  777MOL0     C 4820  11.121   2.547   0.385  0.3088  0.0546  0.5745
  777MOL0     C 4821  11.051   2.465   0.279  0.2760 -0.2609 -0.3692
  777MOL0     C 4822  11.143   2.463   0.156  0.8091  0.1342  0.2338
  777MOL0     C 4823  11.284   2.418   0.179  1.1781 -0.3299  0.4170
  777MOL0     C 4824  11.391   2.365   0.196 -0.6018 -0.0978  1.0616
  777MOL0     C 4825  10.977   2.524   0.806 -1.1224 -0.2676  0.3708
  777MOL0     C 4826  10.985   2.483   0.940 -0.4194  0.0894  0.0245
  777MOL0     C 4827  10.959   2.598   1.040 -0.5355 -1.0105 -0.6582
  777MOL0     H 4828  11.251   2.041   1.226 -1.3108  0.8861 -2.8211
  777MOL0     H 4829  11.258   1.907   1.447  1.0795  1.9743 -3.6340
  777MOL0     H 4830  11.166   1.747   1.703  2.9160  0.3118 -1.7404
  777MOL0     H 4831  11.256   1.884   1.659 -0.0570  1.1912 -1.6320
  777MOL0     H 4832  11.238   1.931   1.889 -1.4062 -2.6521  2.3874
  777MOL0     H 4833  11.086   1.852   1.907  2.2277 -2.5363  0.6540
  777MOL0     H 4834  11.054   2.083   1.934 -2.6028  1.2222  0.2120
  777MOL0     H 4835  10.980   2.040   1.773  0.9169 -0.6891  1.0632
  777MOL0     H 4836  11.252   2.174   1.793  1.2146 -0.1598 -1.1640
  777MOL0     H 4837  11.173   2.108   1.648 -3.0355 -2.1842  0.8781
  777MOL0     H 4838  11.001   2.262   1.641 -0.0904 -0.8698  1.7003
  777MOL0     H 4839  11.032   2.311   1.807 -3.5977 -0.9811 -1.1091
  777MOL0     H 4840  11.260   2.415   1.713 -0.9857  0.9708  0.5678
  777MOL0     H 4841  11.193   2.378   1.547 -2.4366  0.6794 -0.9872
  777MOL0     H 4842  11.028   2.524   1.745  0.7351 -0.7743  1.1162
  777MOL0     H 4843  11.023   2.535   1.569 -0.2371 -1.0326  0.0095
  777MOL0     H 4844  11.142   2.690   1.754  0.1723 -1.9426  0.0305
  777MOL0     H 4845  11.283   2.629   1.671 -0.5532 -1.2652  1.0742
  777MOL0     H 4846  11.196   2.636   1.366 -2.6698  1.1300 -3.3045
  777MOL0     H 4847  11.036   2.872   1.220 -0.5412  2.4057  1.0673
  777MOL0     H 4848  11.163   2.999   1.260  3.1127  0.3290 -1.0089
  777MOL0     H 4849  11.332   2.836   1.177  0.2415  1.4419 -1.5356
  777MOL0     H 4850  11.201   2.733   1.101 -1.6223  0.3923 -3.4715
  777MOL0     H 4851  11.264   3.012   1.015 -3.7607  1.1329 -0.8569
  777MOL0     H 4852  11.131   2.899   0.949  1.3987 -0.0888 -3.8107
  777MOL0     H 4853  11.422   2.832   0.918 -0.3503  0.3311  0.5817
  777MOL0     H 4854  11.306   2.918   0.812  0.6600  0.1188  0.4312
  777MOL0     H 4855  11.443   2.787   0.656 -1.0044 -0.4278 -1.6059
  777MOL0     H 4856  11.575   2.623   0.544 -1.5011  3.6673  0.6543
  777MOL0     H 4857  11.706   2.162   0.396  0.7726  1.7105  2.1863
  777MOL0     H 4858  11.836   2.088   0.208  0.0596 -0.4148 -2.4896
  777MOL0     H 4859  12.101   2.166  -0.036 -0.4813 -1.2222 -2.9449
  777MOL0     H 4860  12.014   2.103   0.097  1.4728  0.1867  0.1091
  777MOL0     H 4861  12.004   1.937  -0.099 -2.3467 -1.9768 -1.6226
  777MOL0     H 4862  11.846   1.994  -0.054 -0.0818 -2.4417 -2.7272
  777MOL0     H 4863  11.952   2.172  -0.259  0.5767 -0.7521  2.4562
  777MOL0     H 4864  11.968   2.003  -0.298  0.2260 -0.4039  0.4768
  777MOL0     H 4865  11.727   2.179  -0.254  1.5398  0.7820 -0.3698
  777MOL0     H 4866  11.701   2.010  -0.237 -1.0554  0.0220  0.7588
  777MOL0     H 4867  11.820   1.978  -0.460 -0.6867 -0.0405 -0.0973
  777MOL0     H 4868  11.841   2.148  -0.483  1.1721  0.1827  1.8503
  777MOL0     H 4869  11.560   2.016  -0.443 -1.5201  2.0298 -0.1119
  777MOL0     H 4870  11.596   2.169  -0.513 -0.1980 -0.2969 -5.4233
  777MOL0     H 4871  11.691   1.897  -0.621  0.1758 -0.4648 -0.9972
  777MOL0     H 4872  11.729   2.047  -0.699  1.8030  4.2642  3.6224
  777MOL0     H 4873  11.555   1.936  -0.811 -0.4428 -0.4722  0.6777
  777MOL0     H 4874  11.459   1.922  -0.663 -1.6592  1.8827  0.2014
  777MOL0     H 4875  11.821   2.476   0.036  0.7724  1.8199  1.0074
  777MOL0     H 4876  11.660   2.542   0.222 -1.6450 -0.5904  4.5626
  777MOL0     H 4877  11.343   2.305   0.684  1.5814 -1.3510  1.9973
  777MOL0     H 4878  11.232   2.471   0.857  0.4576  2.0568  0.3434
  777MOL0     H 4879  10.860   2.025   1.530 -1.0348 -0.9117  0.2190
  777MOL0     H 4880  10.859   2.166   1.320  2.9102  1.9079 -0.3447
  777MOL0     H 4881  11.021   2.141   0.884  1.8322 -0.0204  0.3239
  777MOL0     H 4882  11.027   2.217   0.660  0.0681  0.0205  0.7321
  777MOL0     H 4883  11.074   2.639   0.578  1.0814 -1.8080  0.8478
  777MOL0     H 4884  10.940   2.618   0.460  0.2543 -0.1599  0.0248
  777MOL0     H 4885  11.205   2.493   0.430  0.8299  1.0154  0.7798
  777MOL0     H 4886  11.160   2.641   0.345 -1.7612  1.0502  0.7621
  777MOL0     H 4887  10.965   2.523   0.245 -3.6864 -3.0491  3.7926
  777MOL0     H 4888  11.026   2.366   0.319  2.1018 -0.1361  1.2431
  777MOL0     H 4889  11.107   2.393   0.080  0.1807 -2.1267  2.4795
  777MOL0     H 4890  11.144   2.564   0.113  0.3171 -0.0150 -0.1328
  777MOL0     H 4891  11.489   2.324   0.206  0.6280  2.1457 -0.7495
  777MOL0     H 4892  10.960   2.628   0.779  0.9723  0.1099  0.3192
  777MOL0     H 4893  10.853   2.614   1.060 -0.2373  0.3877 -0.1206
  777MOL0     H 4894  11.008   2.595   1.137 -0.5134  3.5283 -0.3420
  777MOL0     H 4895  10.996   2.691   0.997 -4.3845  1.6457  1.1627
  778MOL0     O 4896   7.753   2.653   8.512  0.2643  0.7131  0.3439
  778MOL0     C 4897   7.810   2.675   8.616 -0.5625  0.2932 -0.2315
  778MOL0     O 4898   7.749   2.683   8.732 -0.7280  0.1445 -0.4787
  778MOL0     C 4899   7.615   2.662   8.753  0.6157 -0.1580 -0.6267
  778MOL0     C 4900   7.535   2.742   8.839  0.6417  0.3252 -0.0940
  778MOL0     C 4901   7.398   2.697   8.860 -0.1373 -0.2407  0.1204
  778MOL0     C 4902   7.352   2.577   8.811  0.0088  0.6817 -0.8462
  778MOL0     O 4903   7.226   2.523   8.818 -0.2377 -0.3893  0.2984
  778MOL0     C 4904   7.125   2.600   8.881  0.1514  0.0350 -0.1641
  778MOL0     C 4905   7.112   2.556   9.029  0.5918 -0.0397 -0.5384
  778MOL0     C 4906   7.020   2.648   9.118 -0.5484  0.6999 -0.3918
  778MOL0     C 4907   6.980   2.582   9.245 -0.4733 -0.1176 -0.2438
  778MOL0     C 4908   6.869   2.662   9.313 -0.3016 -0.5355  0.1097
  778MOL0     C 4909   6.846   2.597   9.446 -0.1782  0.1175 -0.9754
  778MOL0     C 4910   6.728   2.676   9.512 -0.5712  0.5820 -0.6565
  778MOL0     C 4911   6.711   2.615   9.652  0.5135 -0.0036 -0.4929
  778MOL0     N 4912   6.569   2.611   9.702  0.0433 -0.7964  0.5285
  778MOL0     C 4913   6.450   2.609   9.626  0.3503 -1.1222  0.1089
  778MOL0     C 4914   6.355   2.575   9.715 -0.0398  0.7796 -0.1780
  778MOL0     C 4915   6.213   2.562   9.682  0.5311 -0.2081  0.8486
  778MOL0     C 4916   6.153   2.427   9.725 -0.3392  0.4335 -0.0495
  778MOL0     C 4917   6.008   2.444   9.760 -0.3080  0.0735 -0.4300
  778MOL0     C 4918   5.906   2.478   9.651 -0.3549  0.2007 -0.0690
  778MOL0     O 4919   5.768   2.472   9.702  0.3940 -0.3104 -0.1146
  778MOL0     C 4920   5.652   2.483   9.617  0.7456  0.0452 -0.1261
  778MOL0     C 4921   5.651   2.529   9.487 -0.4693 -0.1099  1.3955
  778MOL0     C 4922   5.542   2.507   9.403 -0.0836 -0.2589  0.7947
  778MOL0     C 4923   5.428   2.449   9.453 -0.7044  0.9243  1.0429
  778MOL0     C 4924   5.296   2.430   9.372 -0.4914  0.5652  0.1293
  778MOL0     O 4925   5.191   2.371   9.429  0.3174 -0.2027  0.2165
  778MOL0     C 4926   5.067   2.370   9.361 -0.9400  1.5736  0.8999
  778MOL0     C 4927   5.008   2.246   9.326  1.0461  0.5399  0.6917
  778MOL0     C 4928   4.883   2.233   9.257 -0.2113 -0.6584 -0.3143
  778MOL0     C 4929   4.806   2.348   9.242 -1.1987  0.7534  0.0522
  778MOL0     O 4930   4.683   2.358   9.191  0.4394 -0.5752  0.8625
  778MOL0     C 4931   4.628   2.240   9.149  0.3057  0.1833 -0.2441
  778MOL0     C 4932   4.675   2.201   9.006  0.1887 -0.4990  0.3649
  778MOL0     C 4933   4.599   2.082   8.952 -0.1506 -0.0816  0.7944
  778MOL0     C 4934   4.643   2.082   8.807 -0.0465 -0.0781  0.1648
  778MOL0     C 4935   4.580   1.962   8.744  0.1783  0.0224  0.1744
  778MOL0     C 4936   4.565   1.976   8.596  0.1654 -0.4373  0.1545
  778MOL0     C 4937   4.499   1.845   8.541 -0.8191 -0.0398  0.3381
  778MOL0     C 4938   4.433   1.876   8.404 -0.0218 -0.3543 -0.0786
  778MOL0    Cl 4939   4.550   1.917   8.269 -0.0693 -0.0377  0.3929
  778MOL0     C 4940   4.865   2.468   9.284 -0.4242 -0.9172  1.1835
  778MOL0     C 4941   4.996   2.480   9.333  1.2151  0.0112  0.0442
  778MOL0     O 4942   5.290   2.469   9.254 -0.6905  0.6639  0.0435
  778MOL0     C 4943   5.429   2.388   9.576 -0.5604  0.3218  0.9325
  778MOL0     C 4944   5.542   2.413   9.663  0.8467  0.3000  0.0499
  778MOL0     N 4945   6.404   2.566   9.841  0.6237  0.3327 -0.4784
  778MOL0     N 4946   6.529   2.597   9.830  0.0389  0.2820 -0.2316
  778MOL0     C 4947   7.439   2.496   8.737 -0.0926 -0.5203 -0.4240
  778MOL0     C 4948   7.564   2.539   8.709  0.3318  0.4919  0.0182
  778MOL0     C 4949   7.962   2.696   8.620  0.9580  0.7494  0.0549
  778MOL0     C 4950   8.035   2.588   8.680  0.1644  0.3103 -0.4865
  778MOL0     C 4951   8.174   2.603   8.686  0.4798  0.5549  0.3243
  778MOL0     C 4952   8.229   2.719   8.635  0.2853  0.3336  0.4586
  778MOL0     O 4953   8.360   2.729   8.655 -0.2727  0.3931 -0.1756
  778MOL0     C 4954   8.435   2.808   8.569  0.9145  0.1861  0.2343
  778MOL0     C 4955   8.582   2.780   8.615  0.5259 -0.2507  0.6263
  778MOL0     C 4956   8.694   2.803   8.506  0.4042  0.1805  0.4467
  778MOL0     C 4957   8.711   2.941   8.446 -0.1299 -0.9554 -0.3971
  778MOL0     C 4958   8.767   3.043   8.541  0.8575 -0.3192 -0.1193
  778MOL0     C 4959   8.829   3.104   8.623  0.0774  0.4041  0.5822
  778MOL0     C 4960   8.161   2.823   8.577  0.8253  0.8139  0.3609
  778MOL0     C 4961   8.022   2.811   8.564 -0.2721 -0.5732  0.1242
  778MOL0     C 4962   7.937   2.926   8.503  0.5234 -0.3677  0.4660
  778MOL0     H 4963   7.585   2.830   8.879  0.0668  1.4530 -1.7165
  778MOL0     H 4964   7.333   2.749   8.930 -1.8971 -4.8182  2.2844
  778MOL0     H 4965   7.146   2.707   8.868 -1.0117  0.4499  1.0970
  778MOL0     H 4966   7.034   2.584   8.823  0.5528 -0.0380 -0.7822
  778MOL0     H 4967   7.212   2.544   9.070  0.2838 -3.5354 -0.5165
  778MOL0     H 4968   7.080   2.453   9.043  0.5061  0.2539  1.6752
  778MOL0     H 4969   6.928   2.675   9.066 -1.2896 -1.6746 -0.4357
  778MOL0     H 4970   7.085   2.733   9.138  2.0695 -1.5251  1.3608
  778MOL0     H 4971   6.935   2.483   9.232 -0.6265  0.1894 -2.3355
  778MOL0     H 4972   7.058   2.574   9.321 -0.8430 -1.7884 -0.0093
  778MOL0     H 4973   6.900   2.766   9.326 -0.7268  0.2830 -3.9966
  778MOL0     H 4974   6.774   2.668   9.259 -0.8684  0.3209  1.1654
  778MOL0     H 4975   6.827   2.489   9.452 -1.8903  0.4528  3.1482
  778MOL0     H 4976   6.942   2.604   9.497  1.0631 -2.2935 -2.7675
  778MOL0     H 4977   6.641   2.664   9.446 -0.5761  1.1387 -0.7518
  778MOL0     H 4978   6.771   2.776   9.517  1.6980 -0.3145 -0.9111
  778MOL0     H 4979   6.760   2.517   9.654 -0.0644 -0.4433 -3.2915
  778MOL0     H 4980   6.760   2.676   9.728 -1.3609 -0.2241  0.9600
  778MOL0     H 4981   6.436   2.627   9.520  1.1593 -1.0294  0.0068
  778MOL0     H 4982   6.169   2.655   9.719  0.2751 -0.1013  0.2837
  778MOL0     H 4983   6.194   2.569   9.574  1.7307  1.1762  0.6861
  778MOL0     H 4984   6.165   2.346   9.652 -1.1158 -1.2563  1.6098
  778MOL0     H 4985   6.213   2.387   9.807 -0.1716 -1.3070 -0.9591
  778MOL0     H 4986   5.997   2.522   9.837 -1.4364  0.3030 -0.8042
  778MOL0     H 4987   5.975   2.355   9.814 -2.1184  1.8775  1.6552
  778MOL0     H 4988   5.922   2.406   9.571 -0.4503  1.7267 -1.5000
  778MOL0     H 4989   5.930   2.580   9.622  0.3927  1.2851  3.7306
  778MOL0     H 4990   5.740   2.571   9.441 -0.7593 -1.4843 -0.5673
  778MOL0     H 4991   5.531   2.531   9.298 -1.5833 -0.4101  0.9020
  778MOL0     H 4992   5.066   2.157   9.347  1.2965  0.9119  1.5878
  778MOL0     H 4993   4.847   2.136   9.224  1.8418 -0.6442 -2.8913
  778MOL0     H 4994   4.651   2.152   9.210  0.2420 -0.6588 -1.3789
  778MOL0     H 4995   4.519   2.249   9.157 -0.0449 -3.6252  1.1461
  778MOL0     H 4996   4.663   2.287   8.941 -0.6473  0.4763  1.7499
  778MOL0     H 4997   4.778   2.168   8.993  1.2862  3.5305 -2.9892
  778MOL0     H 4998   4.616   1.984   8.997 -0.5815  0.0778  1.3098
  778MOL0     H 4999   4.492   2.101   8.955 -0.1364  0.3579 -0.7348
  778MOL0     H 5000   4.752   2.076   8.803 -0.0412 -0.1753  0.4839
  778MOL0     H 5001   4.606   2.174   8.760 -2.6757 -0.0570  2.0445
  778MOL0     H 5002   4.480   1.944   8.786  0.8263 -0.7377  1.4566
  778MOL0     H 5003   4.640   1.878   8.780  4.1060  1.7270 -1.8090
  778MOL0     H 5004   4.502   2.064   8.577  0.8937 -0.7413 -5.2988
  778MOL0     H 5005   4.659   2.000   8.546 -0.1647 -3.1515 -1.9947
  778MOL0     H 5006   4.426   1.809   8.614  0.1494  0.8739  1.8006
  778MOL0     H 5007   4.583   1.776   8.526 -1.6353 -0.6783 -1.5571
  778MOL0     H 5008   4.382   1.786   8.368 -1.0104 -0.3379  1.2130
  778MOL0     H 5009   4.364   1.958   8.426 -0.6453 -0.7225 -0.6082
  778MOL0     H 5010   4.820   2.566   9.276  2.5066  0.4167 -0.8880
  778MOL0     H 5011   5.034   2.579   9.358  1.1456 -0.7190  3.5516
  778MOL0     H 5012   5.352   2.316   9.600  0.4524 -1.9330 -1.9522
  778MOL0     H 5013   5.544   2.361   9.758  1.7920 -0.4248 -0.3490
  778MOL0     H 5014   7.411   2.400   8.696 -0.1726  0.3328 -2.4862
  778MOL0     H 5015   7.625   2.464   8.660  0.4868  0.6179  0.0166
  778MOL0     H 5016   7.987   2.500   8.723 -0.7496  0.7110 -0.6691
  778MOL0     H 5017   8.227   2.526   8.740  0.8638  1.8101  1.8131
  778MOL0     H 5018   8.404   2.913   8.567 -3.0304 -0.8065 -1.8163
  778MOL0     H 5019   8.425   2.758   8.472  0.6066 -4.8738  2.5363
  778MOL0     H 5020   8.588   2.675   8.645  2.4694 -0.3268  0.1492
  778MOL0     H 5021   8.617   2.837   8.702  2.9680  0.1751 -0.5237
  778MOL0     H 5022   8.663   2.741   8.422  2.8716 -0.7145  0.1111
  778MOL0     H 5023   8.783   2.747   8.536 -0.5304 -2.7319 -1.7813
  778MOL0     H 5024   8.779   2.941   8.361  0.5060  0.9047  0.0633
  778MOL0     H 5025   8.616   2.987   8.417  0.2558 -0.6579 -1.2047
  778MOL0     H 5026   8.884   3.172   8.685  1.8007  1.0900 -1.5962
  778MOL0     H 5027   8.202   2.917   8.542  0.5791  0.8788  0.2461
  778MOL0     H 5028   7.949   2.995   8.587 -0.1441  0.8561 -0.4277
  778MOL0     H 5029   7.971   2.956   8.404  0.4731 -6.3573 -1.7768
  778MOL0     H 5030   7.828   2.914   8.503  0.2095  0.2920 -4.7044
  779MOL0     O 5031   4.803   4.079   4.581 -0.4631 -0.4588  0.3210
  779MOL0     C 5032   4.817   4.065   4.700  0.2593 -1.2009 -0.3542
  779MOL0     O 5033   4.887   4.150   4.778 -0.6105 -0.0353 -0.5504
  779MOL0     C 5034   4.927   4.281   4.744 -0.2805 -1.1534  0.4154
  779MOL0     C 5035   4.988   4.350   4.846 -0.2290  0.1147 -0.2195
  779MOL0     C 5036   5.028   4.478   4.827 -0.3782 -0.3522 -0.1568
  779MOL0     C 5037   4.990   4.563   4.716  0.5681 -0.0356 -0.1657
  779MOL0     O 5038   5.045   4.689   4.702 -0.7514 -0.6187  0.6867
  779MOL0     C 5039   4.962   4.799   4.670 -0.4172  0.2176 -0.2567
  779MOL0     C 5040   5.043   4.936   4.679  0.6178 -0.3907 -0.0662
  779MOL0     C 5041   5.102   4.980   4.814 -0.2307 -0.3257  1.0960
  779MOL0     C 5042   5.190   5.112   4.797 -0.9095  0.7133  0.7256
  779MOL0     C 5043   5.092   5.223   4.819 -0.0586 -0.3308  0.6799
  779MOL0     C 5044   5.156   5.356   4.785 -0.9302 -0.1936  0.7383
  779MOL0     C 5045   5.047   5.462   4.795  0.3916  0.1607  0.4158
  779MOL0     C 5046   5.086   5.596   4.743 -0.2948  0.2170 -0.0569
  779MOL0     N 5047   4.982   5.691   4.737  0.5250  0.7055 -0.1689
  779MOL0     C 5048   4.952   5.772   4.844 -0.8813  0.2674 -0.1514
  779MOL0     C 5049   4.853   5.850   4.802 -0.0933  0.0283  1.2314
  779MOL0     C 5050   4.783   5.948   4.893 -0.0819  0.3841 -0.4951
  779MOL0     C 5051   4.693   6.052   4.836  0.0512  0.6890 -0.9410
  779MOL0     C 5052   4.559   5.999   4.803  0.7628  0.8504 -0.2321
  779MOL0     C 5053   4.472   6.103   4.732 -0.5960  0.9130 -0.0018
  779MOL0     O 5054   4.456   6.209   4.830  0.0345  0.5579  0.1549
  779MOL0     C 5055   4.441   6.337   4.774 -0.1561  0.6273  0.6624
  779MOL0     C 5056   4.529   6.426   4.822 -0.3887  0.5264 -0.1809
  779MOL0     C 5057   4.550   6.557   4.771  0.6995  0.5929  0.2994
  779MOL0     C 5058   4.463   6.605   4.663 -0.6475 -0.4867 -0.4110
  779MOL0     C 5059   4.486   6.745   4.624  0.5895  0.5160  0.5964
  779MOL0     O 5060   4.431   6.768   4.502  0.1610  0.5031  0.4917
  779MOL0     C 5061   4.464   6.888   4.435  0.2955  0.3812 -0.6361
  779MOL0     C 5062   4.582   6.957   4.464 -0.1961 -0.0408  0.7039
  779MOL0     C 5063   4.610   7.079   4.401 -0.6847  0.7760 -0.2163
  779MOL0     C 5064   4.519   7.142   4.318  0.0423  0.3548  0.5164
  779MOL0     O 5065   4.556   7.256   4.256  0.5374  0.5610 -0.1623
  779MOL0     C 5066   4.461   7.353   4.219 -1.3428 -1.2211 -0.0310
  779MOL0     C 5067   4.532   7.488   4.178  0.0087  0.2426 -0.0867
  779MOL0     C 5068   4.613   7.485   4.048 -0.5836  0.1179  0.4720
  779MOL0     C 5069   4.665   7.636   4.011  1.0704 -0.1092 -0.9240
  779MOL0     C 5070   4.747   7.636   3.884  0.8040  0.7707 -0.1652
  779MOL0     C 5071   4.775   7.783   3.857  0.1527  0.4289 -0.2373
  779MOL0     C 5072   4.849   7.783   3.728 -0.0630  0.2016 -0.2009
  779MOL0     C 5073   4.862   7.927   3.664  0.0519  0.7085 -0.2256
  779MOL0    Cl 5074   4.965   8.028   3.779 -0.1499  0.0669 -0.0415
  779MOL0     C 5075   4.402   7.071   4.291  0.3049  1.0321 -0.3193
  779MOL0     C 5076   4.382   6.939   4.341  0.8360 -0.2380  0.3906
  779MOL0     O 5077   4.505   6.839   4.703 -1.0000  0.2162  0.4738
  779MOL0     C 5078   4.368   6.511   4.620 -0.3386 -0.6522 -0.1354
  779MOL0     C 5079   4.351   6.380   4.677 -0.1175 -0.0322 -0.8183
  779MOL0     N 5080   4.834   5.826   4.668  0.7952 -0.0285 -0.7924
  779MOL0     N 5081   4.887   5.714   4.636 -0.6617  0.4197  0.4524
  779MOL0     C 5082   4.917   4.497   4.613  1.8874 -0.5587 -0.3039
  779MOL0     C 5083   4.897   4.357   4.623  0.6653  0.3359 -0.7230
  779MOL0     C 5084   4.754   3.961   4.770 -0.2541  0.1203 -0.0463
  779MOL0     C 5085   4.698   3.991   4.899 -0.3989  0.0116  0.9864
  779MOL0     C 5086   4.623   3.899   4.977 -0.1028  0.4118 -0.5345
  779MOL0     C 5087   4.590   3.773   4.924  0.0748  0.1549  0.0065
  779MOL0     O 5088   4.478   3.702   4.964  0.6475  0.6189 -0.2863
  779MOL0     C 5089   4.472   3.558   4.948 -0.7872 -0.1742 -0.2781
  779MOL0     C 5090   4.614   3.491   4.953 -0.2053  0.1914 -0.8446
  779MOL0     C 5091   4.609   3.338   4.979 -0.1960 -0.2688  0.5136
  779MOL0     C 5092   4.518   3.270   4.868  0.6364  0.0892 -0.0423
  779MOL0     C 5093   4.537   3.128   4.847 -0.0242  0.3771  0.3179
  779MOL0     C 5094   4.564   3.005   4.846 -0.6527  0.1272 -1.2358
  779MOL0     C 5095   4.641   3.751   4.797 -0.2309  0.4902 -0.6147
  779MOL0     C 5096   4.724   3.834   4.721  0.5164  0.0062  0.0620
  779MOL0     C 5097   4.771   3.782   4.586  0.2737 -1.0191  0.1191
  779MOL0     H 5098   5.014   4.301   4.939 -0.5811  3.3995  1.7793
  779MOL0     H 5099   5.094   4.522   4.901  1.6161 -1.0657 -1.4327
  779MOL0     H 5100   4.926   4.781   4.568 -2.0648 -1.2213  0.5317
  779MOL0     H 5101   4.882   4.802   4.745  1.3509  0.9551  1.7059
  779MOL0     H 5102   4.963   5.002   4.644 -0.7585 -0.4248  2.7112
  779MOL0     H 5103   5.128   4.925   4.612  2.2607 -0.6812  1.9628
  779MOL0     H 5104   5.170   4.903   4.852  1.4137  0.5800  0.1352
  779MOL0     H 5105   5.036   4.993   4.900 -0.0946 -2.1523  1.5153
  779MOL0     H 5106   5.280   5.123   4.858  1.1570 -3.3222 -1.1978
  779MOL0     H 5107   5.222   5.115   4.693  2.1920 -1.1478  1.4938
  779MOL0     H 5108   4.998   5.206   4.766  0.1370  2.2218 -0.6144
  779MOL0     H 5109   5.075   5.225   4.927 -0.2317  0.6259  0.6455
  779MOL0     H 5110   5.240   5.379   4.850 -1.1511 -0.8022  1.2516
  779MOL0     H 5111   5.189   5.362   4.680 -1.8325  2.8845  0.5417
  779MOL0     H 5112   5.042   5.475   4.903  0.5294  0.3235  0.4029
  779MOL0     H 5113   4.970   5.405   4.741 -0.3197  1.0150  0.4954
  779MOL0     H 5114   5.166   5.638   4.805  3.5785 -2.1787 -2.9026
  779MOL0     H 5115   5.125   5.583   4.641  2.0483  0.5484  0.7245
  779MOL0     H 5116   4.990   5.778   4.946 -1.5682 -1.2355  0.2306
  779MOL0     H 5117   4.749   5.890   4.979  1.4668  0.4098  0.1750
  779MOL0     H 5118   4.868   6.005   4.933 -1.3270  1.9774  0.0173
  779MOL0     H 5119   4.679   6.131   4.910 -2.3924  1.4356 -2.0948
  779MOL0     H 5120   4.746   6.092   4.748  0.5884  1.5172 -0.2560
  779MOL0     H 5121   4.487   5.980   4.883 -1.9126  1.0970 -2.4299
  779MOL0     H 5122   4.553   5.910   4.740  1.6177 -1.5684  2.8981
  779MOL0     H 5123   4.375   6.060   4.707 -0.4467 -1.0536  2.3816
  779MOL0     H 5124   4.516   6.136   4.637 -2.2451  0.3534 -1.0070
  779MOL0     H 5125   4.589   6.406   4.911  1.4327 -3.7727 -2.0984
  779MOL0     H 5126   4.617   6.628   4.818  0.2288 -0.3225  2.4837
  779MOL0     H 5127   4.653   6.911   4.532 -1.3786 -1.1150  1.2419
  779MOL0     H 5128   4.697   7.141   4.420 -0.1776  0.3334 -1.0577
  779MOL0     H 5129   4.410   7.319   4.128 -0.8410 -0.4790 -0.6104
  779MOL0     H 5130   4.388   7.366   4.300  0.9144  3.4679  1.6214
  779MOL0     H 5131   4.454   7.560   4.152 -0.8224 -0.6154 -0.0176
  779MOL0     H 5132   4.599   7.524   4.257  0.1003  0.0385 -0.0716
  779MOL0     H 5133   4.698   7.417   4.057 -0.2915  0.2746 -0.8759
  779MOL0     H 5134   4.547   7.459   3.965 -0.7859  0.0209  0.6634
  779MOL0     H 5135   4.725   7.666   4.098  0.5238  0.0848 -0.6124
  779MOL0     H 5136   4.580   7.705   4.000  0.7104  0.3821  3.3407
  779MOL0     H 5137   4.685   7.582   3.812 -0.3886 -1.3317  2.2865
  779MOL0     H 5138   4.840   7.579   3.898 -1.0611 -2.6579 -0.6201
  779MOL0     H 5139   4.681   7.839   3.848 -0.3768  0.1436  2.7585
  779MOL0     H 5140   4.824   7.832   3.941 -1.0467  2.2518 -0.5478
  779MOL0     H 5141   4.801   7.715   3.657  1.9256  0.0650 -1.5102
  779MOL0     H 5142   4.955   7.756   3.739 -0.0009  0.7177  0.5646
  779MOL0     H 5143   4.918   7.914   3.571  4.5727 -3.5804  2.5914
  779MOL0     H 5144   4.762   7.968   3.647 -1.3023 -1.9057  0.8313
  779MOL0     H 5145   4.335   7.126   4.225 -0.5949 -0.2714 -0.5529
  779MOL0     H 5146   4.291   6.884   4.317  1.5586 -1.1309 -0.3414
  779MOL0     H 5147   4.304   6.532   4.534  0.4628 -1.8457 -1.0543
  779MOL0     H 5148   4.267   6.320   4.644 -3.3641  3.8270 -0.2095
  779MOL0     H 5149   4.884   4.550   4.524  3.4488  1.7795  0.4133
  779MOL0     H 5150   4.843   4.313   4.540 -4.2780  1.4696  1.4953
  779MOL0     H 5151   4.699   4.091   4.942 -2.0421  0.0425  1.0041
  779MOL0     H 5152   4.583   3.915   5.077  0.0968 -0.1278 -0.3630
  779MOL0     H 5153   4.424   3.527   4.855  1.6859 -2.8330 -0.8376
  779MOL0     H 5154   4.406   3.526   5.029 -0.7423  0.4643  0.0179
  779MOL0     H 5155   4.662   3.524   5.045 -2.2003 -2.2018  1.1862
  779MOL0     H 5156   4.680   3.510   4.868  2.2198 -0.8780  0.6742
  779MOL0     H 5157   4.567   3.314   5.077 -0.5052  4.9535  1.9371
  779MOL0     H 5158   4.711   3.303   4.964  0.1303  0.3417  1.2606
  779MOL0     H 5159   4.410   3.286   4.880  0.0725 -0.5239 -3.3484
  779MOL0     H 5160   4.529   3.312   4.768 -0.9422 -2.9861 -1.6794
  779MOL0     H 5161   4.591   2.901   4.838  1.0298  0.4139  0.1223
  779MOL0     H 5162   4.621   3.657   4.747 -1.1853  0.2479  0.1901
  779MOL0     H 5163   4.742   3.679   4.568  1.0116 -1.4515  1.2956
  779MOL0     H 5164   4.730   3.850   4.510  0.3614  0.0816  1.0308
  779MOL0     H 5165   4.879   3.785   4.600  0.5917 -4.0000 -0.9620
  780MOL0     O 5166   5.531   3.012   4.634 -0.2329 -0.4317  0.1847
  780MOL0     C 5167   5.587   3.123   4.622  0.5494 -0.8971  0.4659
  780MOL0     O 5168   5.700   3.147   4.564 -0.6557 -0.0739 -0.2912
  780MOL0     C 5169   5.789   3.044   4.555 -0.3879 -1.1803  0.7841
  780MOL0     C 5170   5.882   3.021   4.650  1.0457 -0.5675 -0.4026
  780MOL0     C 5171   5.960   2.898   4.655 -0.1129  0.7939  0.3825
  780MOL0     C 5172   5.945   2.811   4.546  0.4264 -0.6192 -0.7012
  780MOL0     O 5173   6.019   2.697   4.535  0.6559 -0.2031  0.9991
  780MOL0     C 5174   5.965   2.575   4.572  0.3367 -0.3104  0.0637
  780MOL0     C 5175   6.008   2.464   4.479  0.2596  0.0765  0.0921
  780MOL0     C 5176   5.948   2.486   4.337  0.7035  0.3270  1.4109
  780MOL0     C 5177   6.018   2.400   4.227 -0.2045  0.4387 -0.7865
  780MOL0     C 5178   6.001   2.247   4.224 -0.9572 -0.9330 -0.6967
  780MOL0     C 5179   5.859   2.212   4.206 -0.1539 -0.4281  0.2422
  780MOL0     C 5180   5.843   2.058   4.211  0.6705 -0.4578 -0.0190
  780MOL0     C 5181   5.883   1.991   4.344 -0.4179 -0.1457  0.3698
  780MOL0     N 5182   5.805   1.869   4.350 -0.4080  0.3738  0.7374
  780MOL0     C 5183   5.676   1.856   4.393  0.8741 -0.2207 -0.4993
  780MOL0     C 5184   5.647   1.723   4.389 -0.5740  0.0740 -0.4287
  780MOL0     C 5185   5.523   1.656   4.436  0.2118 -0.0077  0.2880
  780MOL0     C 5186   5.415   1.689   4.339  0.4653 -0.0612 -0.8613
  780MOL0     C 5187   5.402   1.600   4.218 -0.1512  0.6737  0.3205
  780MOL0     C 5188   5.353   1.465   4.249  0.4580 -0.4758 -0.5618
  780MOL0     O 5189   5.213   1.481   4.293 -0.5193 -0.3385  0.4202
  780MOL0     C 5190   5.134   1.373   4.307  1.1200  0.3653 -0.2272
  780MOL0     C 5191   4.997   1.390   4.282 -0.0776  0.0133  1.1024
  780MOL0     C 5192   4.913   1.288   4.293  0.0204 -0.5288 -0.2765
  780MOL0     C 5193   4.961   1.155   4.331 -0.3074  0.1066  0.2988
  780MOL0     C 5194   4.865   1.048   4.344 -1.5088 -0.3406 -0.6927
  780MOL0     O 5195   4.747   1.086   4.401 -0.7655  0.4024  0.7505
  780MOL0     C 5196   4.647   1.003   4.431  0.9017  0.4680  0.0158
  780MOL0     C 5197   4.616   0.976   4.560 -0.4292  1.1571  0.3022
  780MOL0     C 5198   4.519   0.879   4.584  0.2429  0.9932  0.2662
  780MOL0     C 5199   4.440   0.819   4.480 -0.3395 -0.1857  0.8428
  780MOL0     O 5200   4.329   0.740   4.493 -0.1912  0.0600 -0.8287
  780MOL0     C 5201   4.278   0.712   4.625 -0.7057 -0.1883  0.7343
  780MOL0     C 5202   4.362   0.605   4.689  0.4864  0.1933 -0.5172
  780MOL0     C 5203   4.364   0.473   4.608  0.6961  0.2730 -0.1621
  780MOL0     C 5204   4.228   0.403   4.581 -0.6425  0.3809 -0.7759
  780MOL0     C 5205   4.229   0.246   4.602  0.3180 -0.0752  0.3029
  780MOL0     C 5206   4.329   0.176   4.515 -0.1997 -0.0429  0.5398
  780MOL0     C 5207   4.356   0.223   4.368  0.1666  0.3037  0.1080
  780MOL0     C 5208   4.232   0.194   4.280  0.2458  0.2704 -0.3253
  780MOL0    Cl 5209   4.267   0.257   4.108 -0.1530 -0.1237  0.0809
  780MOL0     C 5210   4.478   0.855   4.354 -0.0712 -0.8773  0.6976
  780MOL0     C 5211   4.583   0.943   4.333 -0.2723 -1.4936  0.4044
  780MOL0     O 5212   4.900   0.936   4.307  0.2830 -0.0985  0.0550
  780MOL0     C 5213   5.092   1.143   4.340  0.4748  0.8980  0.5366
  780MOL0     C 5214   5.181   1.250   4.345 -0.2039 -0.7988  0.3041
  780MOL0     N 5215   5.763   1.655   4.346  0.2557 -0.7293 -0.0855
  780MOL0     N 5216   5.859   1.747   4.318  0.3120  0.3783 -0.5781
  780MOL0     C 5217   5.853   2.840   4.445  0.0292  0.1446 -0.3448
  780MOL0     C 5218   5.776   2.956   4.450  0.3081  0.6083  0.3863
  780MOL0     C 5219   5.520   3.239   4.671 -0.1256  0.4337  0.6055
  780MOL0     C 5220   5.444   3.330   4.589  0.0512  0.2828  0.1333
  780MOL0     C 5221   5.355   3.430   4.628  0.1420 -0.2403 -0.2720
  780MOL0     C 5222   5.373   3.462   4.763  0.1618 -1.4359 -0.6586
  780MOL0     O 5223   5.309   3.573   4.813 -0.1163  0.2987 -0.1380
  780MOL0     C 5224   5.215   3.647   4.729 -0.2932 -0.5060 -0.5182
  780MOL0     C 5225   5.152   3.736   4.832  0.1769 -1.0898 -0.3782
  780MOL0     C 5226   5.005   3.703   4.881  0.2579  0.2120 -0.1566
  780MOL0     C 5227   4.993   3.636   5.019  0.0538  0.7855  0.0252
  780MOL0     C 5228   5.074   3.510   5.026  0.7671 -0.5455  1.5468
  780MOL0     C 5229   5.142   3.412   5.052 -0.4136  0.1160 -0.2149
  780MOL0     C 5230   5.449   3.393   4.858 -0.1877  0.4260  0.0719
  780MOL0     C 5231   5.523   3.278   4.807  0.5784  0.2482 -0.6736
  780MOL0     C 5232   5.604   3.210   4.919  0.5292 -0.2809  0.1569
  780MOL0     H 5233   5.892   3.089   4.734 -1.1065 -0.2390 -0.3465
  780MOL0     H 5234   6.017   2.876   4.745  0.5171  0.1034 -0.1861
  780MOL0     H 5235   5.998   2.567   4.676 -0.4137  1.2938  0.4667
  780MOL0     H 5236   5.856   2.579   4.566  0.3488  0.3325  0.1790
  780MOL0     H 5237   5.964   2.375   4.525 -2.1263  1.0721 -0.1201
  780MOL0     H 5238   6.117   2.459   4.482  0.6054  4.0408  3.5221
  780MOL0     H 5239   5.967   2.589   4.303 -0.4408 -0.8675 -3.6422
  780MOL0     H 5240   5.839   2.474   4.339  0.3432  2.8908  2.6311
  780MOL0     H 5241   5.990   2.444   4.131 -0.5901  1.3863 -0.2604
  780MOL0     H 5242   6.124   2.427   4.235  0.2799 -1.5313 -0.0315
  780MOL0     H 5243   6.054   2.205   4.138 -0.2654  0.4041 -0.9550
  780MOL0     H 5244   6.048   2.200   4.310  1.9445  1.0442 -1.0510
  780MOL0     H 5245   5.803   2.257   4.289 -2.1575 -3.4280  0.6829
  780MOL0     H 5246   5.818   2.252   4.113 -0.9468 -0.9033  0.3834
  780MOL0     H 5247   5.896   2.005   4.131 -3.0018 -1.9959 -1.6444
  780MOL0     H 5248   5.736   2.050   4.191  0.0028  2.2727  1.8692
  780MOL0     H 5249   5.984   1.949   4.349  0.3139  1.6134  1.6398
  780MOL0     H 5250   5.862   2.049   4.435  0.3303  0.7606 -0.0098
  780MOL0     H 5251   5.609   1.936   4.425 -1.1105 -0.4589 -3.6638
  780MOL0     H 5252   5.551   1.550   4.437 -0.6554 -0.5832 -5.1416
  780MOL0     H 5253   5.504   1.687   4.539 -3.4783 -1.1134  0.0788
  780MOL0     H 5254   5.314   1.687   4.381  0.2529 -2.1896 -1.3434
  780MOL0     H 5255   5.429   1.791   4.302 -0.6202 -0.3794 -2.2592
  780MOL0     H 5256   5.503   1.594   4.176  0.2890  0.3229  1.4163
  780MOL0     H 5257   5.335   1.643   4.142 -3.2189 -2.2443  1.1391
  780MOL0     H 5258   5.406   1.399   4.318 -0.4880  1.2042  1.9089
  780MOL0     H 5259   5.348   1.406   4.157 -2.1741 -2.1811  0.5655
  780MOL0     H 5260   4.962   1.493   4.282  0.5485  0.2356  0.2808
  780MOL0     H 5261   4.809   1.313   4.281  0.3996  1.2868 -0.0444
  780MOL0     H 5262   4.664   1.030   4.641  1.9862  2.1551 -1.6722
  780MOL0     H 5263   4.504   0.847   4.686 -2.8706 -2.6969 -1.1349
  780MOL0     H 5264   4.262   0.798   4.690  0.4707 -0.8808  1.9818
  780MOL0     H 5265   4.179   0.668   4.608 -0.1383 -0.7440 -1.3608
  780MOL0     H 5266   4.464   0.634   4.714  0.1039  2.3812 -1.2069
  780MOL0     H 5267   4.314   0.584   4.785  1.3417 -0.4520 -0.2272
  780MOL0     H 5268   4.421   0.477   4.515  3.7395 -2.5460  1.3635
  780MOL0     H 5269   4.429   0.405   4.664 -0.9266 -2.2092 -1.1600
  780MOL0     H 5270   4.192   0.431   4.481 -3.0495 -2.3606 -0.8211
  780MOL0     H 5271   4.148   0.444   4.643  0.4042 -0.1254  0.9812
  780MOL0     H 5272   4.131   0.203   4.579  1.3067 -2.1672 -0.1669
  780MOL0     H 5273   4.243   0.224   4.709  0.7728 -0.1338  0.2299
  780MOL0     H 5274   4.414   0.177   4.583 -1.0786  1.1523  1.6786
  780MOL0     H 5275   4.288   0.074   4.516 -2.1029  0.6353 -1.2326
  780MOL0     H 5276   4.440   0.175   4.316  2.2415  4.3327 -0.6042
  780MOL0     H 5277   4.361   0.332   4.367  0.7991  0.2911  0.8953
  780MOL0     H 5278   4.220   0.086   4.269 -1.1885  0.6681 -4.2784
  780MOL0     H 5279   4.142   0.233   4.327 -0.5053 -1.1209 -0.5604
  780MOL0     H 5280   4.426   0.834   4.261  1.7214 -0.2331 -0.5135
  780MOL0     H 5281   4.608   0.968   4.231  1.1988 -0.1374  1.0494
  780MOL0     H 5282   5.105   1.042   4.375 -0.2165  0.2692 -0.9323
  780MOL0     H 5283   5.272   1.237   4.403 -0.7000 -0.7813  1.1078
  780MOL0     H 5284   5.835   2.781   4.356 -1.2690  1.6505 -1.1414
  780MOL0     H 5285   5.709   2.969   4.366 -1.3792 -0.1623  1.5521
  780MOL0     H 5286   5.461   3.319   4.482 -1.9219 -1.0027 -0.1055
  780MOL0     H 5287   5.285   3.481   4.564  0.1697  0.1673  0.0184
  780MOL0     H 5288   5.133   3.581   4.700 -2.0765  0.4922  1.9188
  780MOL0     H 5289   5.257   3.700   4.643 -0.8077 -0.6603 -0.8654
  780MOL0     H 5290   5.155   3.829   4.776 -3.0339 -1.0689 -0.6962
  780MOL0     H 5291   5.214   3.757   4.920  0.2384 -3.0985  0.1178
  780MOL0     H 5292   4.961   3.627   4.815  1.8303 -2.2361  1.4494
  780MOL0     H 5293   4.937   3.789   4.879 -1.5477 -1.0739  1.9152
  780MOL0     H 5294   5.037   3.706   5.091 -1.4502  1.1373  0.6443
  780MOL0     H 5295   4.890   3.613   5.046  0.9853  0.1690  3.6258
  780MOL0     H 5296   5.210   3.330   5.057 -0.8815 -0.3552 -1.3071
  780MOL0     H 5297   5.458   3.408   4.965  0.1275 -4.9143  1.0860
  780MOL0     H 5298   5.635   3.282   4.995 -0.0478  0.5846 -0.4042
  780MOL0     H 5299   5.549   3.130   4.971  1.6588 -0.4406  1.1493
  780MOL0     H 5300   5.691   3.160   4.877 -0.9307 -3.2370  0.3500
  781MOL0     O 5301  11.341   1.651  10.974  0.1447 -0.7969 -0.2405
  781MOL0     C 5302  11.393   1.704  11.072 -1.1434 -1.0855  0.0539
  781MOL0     O 5303  11.323   1.777  11.158  0.0339  0.1725 -0.2308
  781MOL0     C 5304  11.188   1.764  11.144 -0.3102 -0.2240 -0.5464
  781MOL0     C 5305  11.129   1.663  11.215 -0.0884  0.5628  0.4064
  781MOL0     C 5306  10.993   1.641  11.216  0.2114  1.3655  0.8587
  781MOL0     C 5307  10.912   1.724  11.132 -0.1142 -0.5507 -0.4603
  781MOL0     O 5308  10.776   1.707  11.128  0.2490 -0.1950  0.3694
  781MOL0     C 5309  10.716   1.591  11.075  0.6381 -0.8684 -0.4096
  781MOL0     C 5310  10.612   1.538  11.180 -0.6621  0.0513  0.6957
  781MOL0     C 5311  10.513   1.641  11.211  0.4906  0.1979  0.0374
  781MOL0     C 5312  10.558   1.755  11.313  0.1108 -0.0557 -0.4909
  781MOL0     C 5313  10.437   1.833  11.378 -0.6217 -0.2476 -0.4729
  781MOL0     C 5314  10.380   1.747  11.492 -0.0192  0.0266  0.9545
  781MOL0     C 5315  10.244   1.784  11.546  0.0498  0.2730  0.4135
  781MOL0     C 5316  10.136   1.752  11.446  1.0135 -0.2097 -0.0943
  781MOL0     N 5317  10.113   1.610  11.417  1.1302 -0.1362  0.2131
  781MOL0     C 5318  10.021   1.534  11.482 -0.2188 -0.0366  0.3620
  781MOL0     C 5319  10.015   1.425  11.408  1.1084  0.0955 -0.1637
  781MOL0     C 5320   9.931   1.308  11.447  0.1267  0.3722 -0.5584
  781MOL0     C 5321   9.782   1.333  11.420  1.0890 -0.0296  0.8587
  781MOL0     C 5322   9.756   1.343  11.271  0.1578  0.3005  0.3008
  781MOL0     C 5323   9.616   1.278  11.254  0.2295  0.2912 -0.1113
  781MOL0     O 5324   9.577   1.274  11.113 -0.6740  0.5515  0.9552
  781MOL0     C 5325   9.548   1.147  11.069  0.7414 -0.4620  0.3140
  781MOL0     C 5326   9.438   1.130  10.988 -0.1042  0.5207  1.2329
  781MOL0     C 5327   9.408   0.996  10.934  0.3701 -0.7552 -0.7462
  781MOL0     C 5328   9.495   0.886  10.961  0.3847 -0.3712  0.5582
  781MOL0     C 5329   9.458   0.752  10.908  0.0235 -0.1457 -0.1402
  781MOL0     O 5330   9.551   0.652  10.933  0.4475 -0.3352  0.4681
  781MOL0     C 5331   9.535   0.531  10.893  0.5472  0.2134 -0.1057
  781MOL0     C 5332   9.571   0.426  10.981 -1.3107  0.9099 -0.4789
  781MOL0     C 5333   9.565   0.287  10.932  0.0518  0.7693 -0.7029
  781MOL0     C 5334   9.512   0.260  10.801 -0.2984 -0.6055 -0.6431
  781MOL0     O 5335   9.493   0.138  10.746 -0.5018  0.0145  0.3913
  781MOL0     C 5336   9.435   0.031  10.821  0.8443 -0.4281  1.2288
  781MOL0     C 5337   9.534  -0.072  10.881  0.4215 -0.0479 -0.4484
  781MOL0     C 5338   9.460  -0.188  10.938  0.0641  0.0686 -0.2179
  781MOL0     C 5339   9.574  -0.296  10.983 -0.3191 -0.3051 -0.1168
  781MOL0     C 5340   9.519  -0.416  11.065  0.8884 -0.3060  0.4364
  781MOL0     C 5341   9.603  -0.542  11.060  0.4471 -0.1811 -0.0583
  781MOL0     C 5342   9.741  -0.532  11.119  0.0626 -0.1485 -0.5149
  781MOL0     C 5343   9.840  -0.652  11.102 -0.0598 -0.2462  0.3033
  781MOL0    Cl 5344   9.782  -0.785  11.207 -0.4764  0.2716 -0.0283
  781MOL0     C 5345   9.473   0.371  10.724  0.3719  0.2583 -0.0160
  781MOL0     C 5346   9.490   0.504  10.768  0.0268  0.3707 -0.1011
  781MOL0     O 5347   9.339   0.740  10.874 -0.1858 -0.0767  0.5001
  781MOL0     C 5348   9.603   0.904  11.041  1.5506 -0.2169 -0.4612
  781MOL0     C 5349   9.630   1.030  11.100 -0.1186 -0.0751 -0.2923
  781MOL0     N 5350  10.109   1.434  11.302  0.2946  0.1646  0.6041
  781MOL0     N 5351  10.148   1.554  11.299  0.5266 -0.5540  0.7273
  781MOL0     C 5352  10.974   1.830  11.067 -0.0927  0.1237 -0.0913
  781MOL0     C 5353  11.115   1.857  11.077 -0.2270  0.8825 -0.2537
  781MOL0     C 5354  11.547   1.686  11.070  0.6099  1.0370 -0.3594
  781MOL0     C 5355  11.613   1.658  10.950  0.0841 -0.0362 -0.0891
  781MOL0     C 5356  11.744   1.631  10.947 -0.1549  0.8056  0.5216
  781MOL0     C 5357  11.821   1.637  11.067 -0.0527 -0.8473  1.1548
  781MOL0     O 5358  11.951   1.616  11.060  0.2407 -0.5342  0.4876
  781MOL0     C 5359  12.038   1.730  11.099  0.5972  0.5677  0.5319
  781MOL0     C 5360  12.112   1.706  11.231  0.1640 -0.4614 -0.6255
  781MOL0     C 5361  12.229   1.616  11.222  0.5126 -0.6823  0.5891
  781MOL0     C 5362  12.320   1.608  11.342 -0.4753  0.0444 -0.1477
  781MOL0     C 5363  12.407   1.725  11.355  0.1087  0.1901 -0.3608
  781MOL0     C 5364  12.489   1.809  11.363 -0.6033  0.5548  1.1413
  781MOL0     C 5365  11.753   1.676  11.185 -0.0353 -1.2480  0.4520
  781MOL0     C 5366  11.617   1.695  11.190 -0.2428  0.0797 -0.0033
  781MOL0     C 5367  11.557   1.732  11.319 -0.7581  0.8936  0.2520
  781MOL0     H 5368  11.192   1.603  11.280 -0.0385 -0.7962 -0.8573
  781MOL0     H 5369  10.945   1.555  11.262 -1.4199  0.1033 -2.8228
  781MOL0     H 5370  10.668   1.613  10.980  1.7343 -0.4355 -0.8879
  781MOL0     H 5371  10.779   1.503  11.056 -2.4675 -3.1546 -0.9015
  781MOL0     H 5372  10.675   1.510  11.265 -0.8284 -0.3435  0.6911
  781MOL0     H 5373  10.572   1.442  11.146  2.0634 -0.7848 -0.4154
  781MOL0     H 5374  10.428   1.582  11.248  1.3968 -1.1282  0.0688
  781MOL0     H 5375  10.473   1.686  11.119 -1.0136 -1.3703 -0.1280
  781MOL0     H 5376  10.617   1.710  11.393 -0.6733  0.4807  0.4054
  781MOL0     H 5377  10.614   1.834  11.262 -3.0663  2.0354 -1.0338
  781MOL0     H 5378  10.478   1.929  11.411 -0.2886 -0.4855 -0.1768
  781MOL0     H 5379  10.358   1.855  11.307 -1.1096  0.7760  0.3678
  781MOL0     H 5380  10.371   1.644  11.457 -1.2246 -0.0710  1.5100
  781MOL0     H 5381  10.455   1.750  11.572  2.0544 -2.0197 -0.7989
  781MOL0     H 5382  10.236   1.890  11.574 -1.1805  0.5277 -0.7842
  781MOL0     H 5383  10.232   1.719  11.633  3.0516 -1.5695 -0.3933
  781MOL0     H 5384  10.043   1.794  11.483  0.9438 -0.4946  0.0551
  781MOL0     H 5385  10.155   1.791  11.345 -1.3421 -1.3245 -1.0369
  781MOL0     H 5386   9.980   1.553  11.580  2.3923  1.1481  1.3141
  781MOL0     H 5387   9.985   1.226  11.400 -0.4809 -0.6079  0.4018
  781MOL0     H 5388   9.939   1.309  11.556  1.5020  0.6140 -0.6484
  781MOL0     H 5389   9.718   1.253  11.458 -2.3914  2.8215  1.4828
  781MOL0     H 5390   9.735   1.417  11.472 -2.9765 -2.4523  1.5138
  781MOL0     H 5391   9.822   1.284  11.206  1.2280 -0.4201  1.9702
  781MOL0     H 5392   9.748   1.446  11.232 -2.9708  1.3067  3.1193
  781MOL0     H 5393   9.544   1.348  11.297  1.3739  0.2014  2.0636
  781MOL0     H 5394   9.617   1.180  11.301  1.8151 -1.0886 -2.7817
  781MOL0     H 5395   9.372   1.209  10.954 -0.1847 -0.3952 -0.9119
  781MOL0     H 5396   9.317   0.982  10.876 -1.1693 -1.4654  1.7121
  781MOL0     H 5397   9.605   0.465  11.076 -3.0702 -2.1576  1.6001
  781MOL0     H 5398   9.596   0.208  10.998 -1.5390  0.6236 -0.0803
  781MOL0     H 5399   9.375   0.070  10.903  0.9543  2.4676  0.0445
  781MOL0     H 5400   9.374  -0.014  10.742  3.3532  0.2672 -1.3071
  781MOL0     H 5401   9.591  -0.111  10.796  0.6772 -1.5865  0.3943
  781MOL0     H 5402   9.601  -0.020  10.950 -0.1866  0.1074  0.0379
  781MOL0     H 5403   9.396  -0.148  11.017  0.4348 -1.4094  0.8726
  781MOL0     H 5404   9.404  -0.232  10.856  0.6795  0.1842 -0.7065
  781MOL0     H 5405   9.667  -0.258  11.026  1.6134 -2.9141 -1.7016
  781MOL0     H 5406   9.602  -0.336  10.885  0.1580  2.5036 -1.2503
  781MOL0     H 5407   9.419  -0.429  11.022  1.6352  1.3011 -1.9487
  781MOL0     H 5408   9.517  -0.379  11.168 -1.1811 -3.5544  1.7271
  781MOL0     H 5409   9.547  -0.614  11.120  1.5130  0.7903  2.2177
  781MOL0     H 5410   9.601  -0.577  10.956 -1.1012  1.2614 -0.5517
  781MOL0     H 5411   9.740  -0.524  11.228 -1.1760 -2.3580 -0.2990
  781MOL0     H 5412   9.792  -0.441  11.089 -0.5234  0.2992 -0.1737
  781MOL0     H 5413   9.854  -0.674  10.996  0.7384  0.3035  0.2880
  781MOL0     H 5414   9.942  -0.631  11.135 -0.8093  0.5336  2.2676
  781MOL0     H 5415   9.436   0.371  10.622 -1.5384 -3.6527  0.4825
  781MOL0     H 5416   9.467   0.585  10.700 -0.5950  0.7608  0.5597
  781MOL0     H 5417   9.670   0.820  11.057 -0.6696 -1.5050  3.5579
  781MOL0     H 5418   9.707   1.047  11.175 -1.4461 -1.2261  1.4059
  781MOL0     H 5419  10.907   1.893  11.009  1.8914  0.4917 -2.0935
  781MOL0     H 5420  11.140   1.953  11.034 -3.2491  2.1027  0.4898
  781MOL0     H 5421  11.547   1.654  10.864 -0.8334  0.4099  0.5708
  781MOL0     H 5422  11.792   1.618  10.851 -0.0824  2.5197  0.2856
  781MOL0     H 5423  11.973   1.818  11.103 -0.8644 -0.3142 -1.6743
  781MOL0     H 5424  12.121   1.750  11.030 -0.6952  2.0428 -0.6699
  781MOL0     H 5425  12.037   1.674  11.304  0.4014 -1.0990 -0.6576
  781MOL0     H 5426  12.146   1.800  11.274 -2.1133 -0.9178  2.5705
  781MOL0     H 5427  12.287   1.624  11.130  1.5758 -2.4286  1.0457
  781MOL0     H 5428  12.186   1.517  11.201  2.2636 -1.3536 -0.0106
  781MOL0     H 5429  12.258   1.608  11.432  0.4238 -1.9244  0.5418
  781MOL0     H 5430  12.388   1.522  11.343  1.6405  1.6490  0.2955
  781MOL0     H 5431  12.556   1.891  11.348  0.4354  0.1798  3.3344
  781MOL0     H 5432  11.815   1.690  11.273 -2.0819  5.1522  1.4547
  781MOL0     H 5433  11.517   1.833  11.311 -0.4509  1.0189  0.2808
  781MOL0     H 5434  11.472   1.666  11.341 -0.8386  0.4371 -1.3390
  781MOL0     H 5435  11.629   1.732  11.402 -0.4986  0.0818  0.0313
  782MOL0     O 5436   9.415   2.822   2.320 -0.3277 -0.1346 -0.8700
  782MOL0     C 5437   9.430   2.754   2.212 -1.4395 -0.3821 -0.1371
  782MOL0     O 5438   9.336   2.722   2.122 -0.1879 -0.0080  0.7545
  782MOL0     C 5439   9.210   2.743   2.168  0.2689  0.0584  0.1096
  782MOL0     C 5440   9.153   2.864   2.182  0.1945 -0.8518  0.5962
  782MOL0     C 5441   9.017   2.884   2.202  0.9610  0.4636 -0.1740
  782MOL0     C 5442   8.937   2.769   2.241 -0.3253 -0.8407  0.3890
  782MOL0     O 5443   8.817   2.797   2.296  0.5084  0.4381 -0.0655
  782MOL0     C 5444   8.713   2.695   2.299  0.8000  0.7234 -0.0090
  782MOL0     C 5445   8.641   2.707   2.167  0.0847  0.3890 -0.0538
  782MOL0     C 5446   8.692   2.637   2.038 -0.3847  0.3005  0.4481
  782MOL0     C 5447   8.595   2.632   1.925 -0.9600 -0.1759  0.9095
  782MOL0     C 5448   8.484   2.542   1.944 -0.1511  0.7559 -0.1788
  782MOL0     C 5449   8.421   2.508   1.813 -0.0247 -0.0986 -0.8290
  782MOL0     C 5450   8.284   2.432   1.826 -1.0988 -0.6373  0.6437
  782MOL0     C 5451   8.227   2.410   1.681 -0.2784  0.3019  0.4550
  782MOL0     N 5452   8.106   2.332   1.685 -0.8949  1.2502 -0.8182
  782MOL0     C 5453   8.101   2.194   1.721 -0.4005 -0.1998 -0.6310
  782MOL0     C 5454   7.966   2.154   1.718  0.0393 -0.0390  0.3377
  782MOL0     C 5455   7.923   2.021   1.757  0.1674 -0.6796  0.0913
  782MOL0     C 5456   7.983   1.914   1.665  1.5782  0.1981  0.6932
  782MOL0     C 5457   7.900   1.893   1.535 -0.2433  0.7273 -0.0891
  782MOL0     C 5458   7.949   1.780   1.448 -0.0901 -1.1788 -0.6222
  782MOL0     O 5459   7.852   1.667   1.461 -1.2012 -0.2770  0.9432
  782MOL0     C 5460   7.870   1.572   1.362  0.1348 -0.0269  0.6696
  782MOL0     C 5461   7.790   1.575   1.249  0.0641  0.2613  0.0159
  782MOL0     C 5462   7.808   1.486   1.143  0.2400  1.1441 -0.7655
  782MOL0     C 5463   7.906   1.389   1.146 -0.3561  0.0699 -0.2351
  782MOL0     C 5464   7.909   1.287   1.033  0.0507  0.1625  0.5834
  782MOL0     O 5465   7.805   1.281   0.948  0.3132  0.0343  0.5311
  782MOL0     C 5466   7.792   1.174   0.861 -0.0693 -0.8876  0.7246
  782MOL0     C 5467   7.742   1.059   0.909 -0.8348 -0.2524 -0.9656
  782MOL0     C 5468   7.723   0.942   0.837 -0.8550  1.2671  1.0871
  782MOL0     C 5469   7.780   0.935   0.713 -0.2949  0.3865 -0.8594
  782MOL0     O 5470   7.790   0.817   0.643  0.3353  0.2454 -0.4249
  782MOL0     C 5471   7.694   0.804   0.538 -0.6443 -0.2535  0.7509
  782MOL0     C 5472   7.551   0.799   0.576  0.6535 -0.4973  0.7344
  782MOL0     C 5473   7.484   0.710   0.479 -0.7722 -0.2014 -1.0542
  782MOL0     C 5474   7.430   0.798   0.370 -0.1378 -0.4748  0.0670
  782MOL0     C 5475   7.319   0.726   0.282 -0.8378 -0.2791  1.0920
  782MOL0     C 5476   7.196   0.696   0.358 -0.3124 -0.0036 -0.0663
  782MOL0     C 5477   7.088   0.627   0.287  0.7796 -0.1383 -0.1846
  782MOL0     C 5478   7.034   0.684   0.156 -0.2567 -0.3122 -0.4471
  782MOL0    Cl 5479   6.993   0.843   0.170 -0.1802  0.4651  0.2023
  782MOL0     C 5480   7.839   1.046   0.651 -0.1304  0.7441 -0.4391
  782MOL0     C 5481   7.846   1.170   0.726  0.1935 -0.9500 -0.4105
  782MOL0     O 5482   8.011   1.211   1.042  0.8202 -0.1865  1.0981
  782MOL0     C 5483   7.986   1.380   1.259 -0.1600 -0.0912  0.2195
  782MOL0     C 5484   7.964   1.467   1.375 -0.5899 -0.6668 -0.7799
  782MOL0     N 5485   7.886   2.259   1.663  0.2925  0.1441 -0.7638
  782MOL0     N 5486   7.973   2.361   1.664  0.3777 -0.3092  0.7268
  782MOL0     C 5487   9.000   2.644   2.241 -0.1102  0.1240 -0.0733
  782MOL0     C 5488   9.132   2.635   2.206 -0.4652  0.2985 -0.3886
  782MOL0     C 5489   9.566   2.704   2.179  0.0605 -1.2831  0.9978
  782MOL0     C 5490   9.674   2.773   2.237  0.1145 -0.7953 -0.2730
  782MOL0     C 5491   9.806   2.734   2.220 -0.0894 -0.5436 -0.3920
  782MOL0     C 5492   9.839   2.623   2.150 -0.1948  0.4429  0.3928
  782MOL0     O 5493   9.962   2.558   2.141  0.4452  0.0925  0.5928
  782MOL0     C 5494   9.980   2.456   2.242 -0.3707 -0.0205  1.5334
  782MOL0     C 5495  10.108   2.482   2.320 -0.0129 -0.6749  0.1265
  782MOL0     C 5496  10.237   2.487   2.236  0.9060 -0.0388  0.4898
  782MOL0     C 5497  10.260   2.337   2.192  0.0165 -0.0268  0.0781
  782MOL0     C 5498  10.377   2.330   2.120  0.1972 -0.7414  1.1453
  782MOL0     C 5499  10.473   2.321   2.052  0.0303  0.1387  0.0786
  782MOL0     C 5500   9.730   2.549   2.092  0.9090  0.0649 -0.9929
  782MOL0     C 5501   9.596   2.592   2.106  0.3905  0.5937 -0.3028
  782MOL0     C 5502   9.495   2.480   2.051 -0.2149  0.5158  0.4867
  782MOL0     H 5503   9.217   2.945   2.148 -0.5314  0.7049  2.7778
  782MOL0     H 5504   8.965   2.979   2.201 -2.7924 -1.0639  4.8463
  782MOL0     H 5505   8.759   2.597   2.319 -1.4671 -0.1675  1.0908
  782MOL0     H 5506   8.645   2.712   2.383  0.0065 -2.7178  0.1954
  782MOL0     H 5507   8.612   2.812   2.153 -0.9601  0.1273  0.0497
  782MOL0     H 5508   8.541   2.668   2.189 -0.1155 -0.2702 -1.9676
  782MOL0     H 5509   8.714   2.534   2.068 -2.4943  0.0568  1.3522
  782MOL0     H 5510   8.782   2.693   2.012 -0.2563  0.7863  1.8343
  782MOL0     H 5511   8.552   2.731   1.915 -1.2075 -0.5162 -4.6717
  782MOL0     H 5512   8.651   2.610   1.833 -0.6293 -4.2287  1.8871
  782MOL0     H 5513   8.519   2.455   2.000 -1.3771  2.0909  2.8947
  782MOL0     H 5514   8.404   2.586   2.004 -0.8281 -0.5976 -0.0661
  782MOL0     H 5515   8.413   2.594   1.747  4.1891  1.6611  0.6444
  782MOL0     H 5516   8.483   2.436   1.758  0.1013  0.8796 -2.0128
  782MOL0     H 5517   8.210   2.493   1.880  0.4001  1.0388  0.9192
  782MOL0     H 5518   8.295   2.341   1.885 -2.0356 -2.2128 -1.5032
  782MOL0     H 5519   8.202   2.508   1.637  0.1619 -0.0224 -0.5471
  782MOL0     H 5520   8.294   2.352   1.617  0.1502  0.5613  0.6607
  782MOL0     H 5521   8.186   2.129   1.741 -0.6896 -1.2906 -2.6650
  782MOL0     H 5522   7.956   2.005   1.860 -0.2850 -1.7306  0.0849
  782MOL0     H 5523   7.815   2.026   1.739  0.2590 -1.0106 -0.5651
  782MOL0     H 5524   8.088   1.926   1.637  0.7504 -1.0104 -3.7152
  782MOL0     H 5525   7.962   1.816   1.709  1.8062  0.8611  2.3471
  782MOL0     H 5526   7.879   1.982   1.474 -0.2187  2.6836  2.5630
  782MOL0     H 5527   7.795   1.881   1.563 -1.0599  3.0124 -1.8455
  782MOL0     H 5528   8.053   1.751   1.465 -0.3447 -1.3143  0.8626
  782MOL0     H 5529   7.945   1.808   1.342 -2.7957  1.8056  0.1143
  782MOL0     H 5530   7.721   1.658   1.241  0.1453  0.1323 -4.1097
  782MOL0     H 5531   7.737   1.498   1.062 -1.9583  2.5425  1.2268
  782MOL0     H 5532   7.707   1.068   1.012  0.6866  3.2206 -0.5732
  782MOL0     H 5533   7.677   0.857   0.886  0.1297  1.3127  2.1342
  782MOL0     H 5534   7.696   0.886   0.465  0.8515 -0.2182  0.8043
  782MOL0     H 5535   7.733   0.721   0.479  1.1062  1.5374 -0.7518
  782MOL0     H 5536   7.543   0.750   0.673 -1.2554  1.0570  1.4529
  782MOL0     H 5537   7.520   0.904   0.584  0.4328 -0.4931 -0.1435
  782MOL0     H 5538   7.543   0.631   0.432 -0.1067 -0.2661 -0.1345
  782MOL0     H 5539   7.400   0.675   0.538  1.0987  3.0712  4.2435
  782MOL0     H 5540   7.510   0.829   0.302 -1.2525  1.4273 -0.4807
  782MOL0     H 5541   7.382   0.894   0.394 -2.0206 -0.9318 -1.5147
  782MOL0     H 5542   7.360   0.631   0.246  2.0866  1.0348  0.6659
  782MOL0     H 5543   7.311   0.788   0.193  1.6096 -0.8558  0.4112
  782MOL0     H 5544   7.226   0.627   0.438  0.8694 -0.7102 -1.0714
  782MOL0     H 5545   7.151   0.781   0.409  0.9269  1.7553 -1.7825
  782MOL0     H 5546   6.998   0.629   0.348 -1.3598  3.4373 -3.0289
  782MOL0     H 5547   7.103   0.520   0.273 -0.6294 -0.8828  3.1741
  782MOL0     H 5548   7.117   0.675   0.085  1.0460  1.5884  0.7560
  782MOL0     H 5549   6.946   0.627   0.124 -1.0642  1.6383 -1.9807
  782MOL0     H 5550   7.902   1.022   0.566  1.8221 -1.0691  1.3999
  782MOL0     H 5551   7.905   1.241   0.669 -0.0725 -0.7842 -0.4839
  782MOL0     H 5552   8.051   1.293   1.270 -0.4758 -1.1764 -4.3942
  782MOL0     H 5553   8.012   1.461   1.472 -1.0510 -0.9751 -0.5648
  782MOL0     H 5554   8.941   2.556   2.263 -0.2311  0.2610  0.1609
  782MOL0     H 5555   9.173   2.535   2.205 -0.6547  0.1750  1.4930
  782MOL0     H 5556   9.661   2.862   2.298 -1.9247 -0.6438 -0.8691
  782MOL0     H 5557   9.882   2.802   2.258 -0.9783  2.5712 -3.6119
  782MOL0     H 5558   9.994   2.356   2.200  2.4678  0.4912  1.0618
  782MOL0     H 5559   9.918   2.475   2.330  1.4005  1.8713  2.4568
  782MOL0     H 5560  10.113   2.408   2.401 -0.1665 -2.3463 -1.3445
  782MOL0     H 5561  10.107   2.582   2.365  1.0186 -1.6222  2.4283
  782MOL0     H 5562  10.318   2.519   2.303 -1.4028  1.1223  2.8983
  782MOL0     H 5563  10.212   2.559   2.158  1.1987  2.5709  2.6510
  782MOL0     H 5564  10.276   2.268   2.276  0.9249 -3.5653 -2.7517
  782MOL0     H 5565  10.188   2.288   2.125  4.4028 -2.7639 -3.2142
  782MOL0     H 5566  10.546   2.309   1.974  0.8960 -3.4345  1.2260
  782MOL0     H 5567   9.752   2.454   2.044 -1.2056 -1.4999  0.9119
  782MOL0     H 5568   9.536   2.380   2.070  1.3967  0.5208 -2.3966
  782MOL0     H 5569   9.403   2.487   2.110  0.9720 -0.5430  2.5854
  782MOL0     H 5570   9.462   2.505   1.950  0.3614 -0.6378 -0.0097
  783MOL0     O 5571   2.652  10.723   4.184 -0.1878 -0.4563 -0.0633
  783MOL0     C 5572   2.680  10.811   4.266  0.1479  0.1972  0.4405
  783MOL0     O 5573   2.627  10.935   4.274 -0.8019  0.8891  0.5292
  783MOL0     C 5574   2.512  10.950   4.215 -0.1754  0.0589 -0.1080
  783MOL0     C 5575   2.508  11.069   4.140 -0.1311 -0.0236 -0.9757
  783MOL0     C 5576   2.393  11.098   4.064  0.7784  0.1937 -0.9594
  783MOL0     C 5577   2.274  11.011   4.078 -0.0067  0.0106 -0.9933
  783MOL0     O 5578   2.163  11.038   4.014  0.8731  0.6723  0.3584
  783MOL0     C 5579   2.170  11.040   3.867  0.8864 -0.5523 -0.1867
  783MOL0     C 5580   2.028  11.042   3.805  0.0467 -0.4810  0.7976
  783MOL0     C 5581   2.022  11.005   3.649  0.1286 -0.1270  0.4007
  783MOL0     C 5582   2.044  11.132   3.575  0.7374  1.0853 -0.1466
  783MOL0     C 5583   2.021  11.118   3.426  0.1566  1.0645 -0.5248
  783MOL0     C 5584   2.069  11.246   3.349 -0.7297 -0.1104  0.5937
  783MOL0     C 5585   1.987  11.370   3.395  0.1542 -0.0804  0.2433
  783MOL0     C 5586   1.961  11.463   3.284  0.1085  1.5727 -0.6185
  783MOL0     N 5587   1.862  11.405   3.190 -0.1569 -0.2354  0.6714
  783MOL0     C 5588   1.779  11.291   3.209 -0.2777  0.3516 -0.0764
  783MOL0     C 5589   1.757  11.245   3.082 -0.4642 -0.1905  1.0384
  783MOL0     C 5590   1.676  11.126   3.043 -0.4140 -0.5349 -0.5576
  783MOL0     C 5591   1.757  11.006   3.111 -0.3928 -0.0363 -0.0169
  783MOL0     C 5592   1.896  10.985   3.049  0.4300  0.2983  0.2567
  783MOL0     C 5593   1.890  10.925   2.909 -0.0900 -0.1104  0.4616
  783MOL0     O 5594   2.014  10.927   2.840  0.6477  0.2564  0.0209
  783MOL0     C 5595   2.052  11.043   2.777  0.8749  0.4225  0.5081
  783MOL0     C 5596   1.965  11.150   2.726  0.5198 -0.2174  0.0963
  783MOL0     C 5597   2.003  11.251   2.636  0.2715 -0.8305 -0.0644
  783MOL0     C 5598   2.132  11.234   2.577  0.7623  0.1367 -0.6513
  783MOL0     C 5599   2.179  11.331   2.474 -0.1693  0.4507 -1.1341
  783MOL0     O 5600   2.317  11.319   2.434 -0.7084 -0.4872  0.1713
  783MOL0     C 5601   2.374  11.425   2.358 -0.3398  0.2120  0.2462
  783MOL0     C 5602   2.304  11.511   2.268  0.1491 -0.6960  0.9699
  783MOL0     C 5603   2.372  11.619   2.208 -0.2992 -0.1193  0.3949
  783MOL0     C 5604   2.512  11.626   2.215 -0.9750 -0.7638 -0.3086
  783MOL0     O 5605   2.584  11.722   2.140 -0.3438 -0.7058  0.4572
  783MOL0     C 5606   2.521  11.762   2.012  0.0799 -0.9434  1.0062
  783MOL0     C 5607   2.488  11.909   2.024 -0.5851 -1.0885  0.1964
  783MOL0     C 5608   2.617  12.003   2.031  0.9194 -1.1786  0.9131
  783MOL0     C 5609   2.598  12.151   2.078  0.1819 -0.5163  0.7681
  783MOL0     C 5610   2.727  12.233   2.108 -0.6454  0.3146 -0.9270
  783MOL0     C 5611   2.690  12.349   2.214 -0.1312  0.4601  0.8989
  783MOL0     C 5612   2.798  12.449   2.251  0.4819  0.5933  0.0398
  783MOL0     C 5613   2.743  12.538   2.362 -0.5670  0.3034  0.6822
  783MOL0    Cl 5614   2.629  12.648   2.276 -0.1066  0.2862 -0.0606
  783MOL0     C 5615   2.589  11.541   2.298  0.3106  0.5783  0.5348
  783MOL0     C 5616   2.513  11.442   2.373 -0.8286  0.3741  1.5317
  783MOL0     O 5617   2.090  11.409   2.433 -0.0511  0.2201 -0.1394
  783MOL0     C 5618   2.209  11.116   2.607 -0.9818  0.1439 -0.8223
  783MOL0     C 5619   2.172  11.025   2.711 -0.0499 -1.8426 -0.9577
  783MOL0     N 5620   1.819  11.340   2.995 -0.3801 -0.0247 -0.8621
  783MOL0     N 5621   1.877  11.430   3.066 -0.2200 -0.1022  0.6266
  783MOL0     C 5622   2.283  10.896   4.162 -0.1000  0.6685  0.1458
  783MOL0     C 5623   2.396  10.872   4.238 -0.9539 -1.0470  0.5340
  783MOL0     C 5624   2.794  10.788   4.359  0.3494 -0.4908 -0.7064
  783MOL0     C 5625   2.884  10.688   4.347 -0.4789  0.0928 -0.0363
  783MOL0     C 5626   3.000  10.657   4.409  0.1540 -0.3309 -0.5247
  783MOL0     C 5627   3.030  10.734   4.524 -0.0499  0.2194 -0.4124
  783MOL0     O 5628   3.138  10.681   4.599 -0.0117  0.0083  0.1497
  783MOL0     C 5629   3.208  10.773   4.696 -0.3264 -0.1455  0.6110
  783MOL0     C 5630   3.305  10.858   4.616  0.3973 -0.5727  0.4833
  783MOL0     C 5631   3.388  10.948   4.707 -0.8380 -0.5160  0.3724
  783MOL0     C 5632   3.510  10.870   4.753 -0.3509 -0.1180  0.1300
  783MOL0     C 5633   3.593  10.969   4.829 -0.0143 -0.0496  0.5924
  783MOL0     C 5634   3.664  11.064   4.863  0.4529  0.3368 -0.8810
  783MOL0     C 5635   2.946  10.836   4.557 -0.3185 -1.3433  0.1664
  783MOL0     C 5636   2.830  10.869   4.470 -0.2000  1.0363 -0.7394
  783MOL0     C 5637   2.747  10.991   4.518  0.1755  0.5587 -0.5915
  783MOL0     H 5638   2.586  11.143   4.153 -0.0962  0.2433 -2.4574
  783MOL0     H 5639   2.384  11.192   4.011  2.2603  1.1356  0.3747
  783MOL0     H 5640   2.217  11.135   3.839  0.0828 -0.5761 -1.7451
  783MOL0     H 5641   2.225  10.960   3.817  1.6511  0.0481 -0.3392
  783MOL0     H 5642   1.979  11.137   3.829 -0.1063 -0.6119  1.0081
  783MOL0     H 5643   1.960  10.971   3.854 -0.9906  1.6853  2.6597
  783MOL0     H 5644   1.925  10.962   3.624 -0.4503 -0.7535  3.3596
  783MOL0     H 5645   2.094  10.927   3.622 -0.5308 -1.1791  1.5959
  783MOL0     H 5646   1.976  11.211   3.607 -0.0917 -0.4628  2.1693
  783MOL0     H 5647   2.148  11.163   3.589  0.0542  2.8801  1.2457
  783MOL0     H 5648   2.083  11.034   3.392 -1.1013  0.1967 -0.7532
  783MOL0     H 5649   1.920  11.077   3.410  1.7211 -3.5432 -0.1032
  783MOL0     H 5650   2.174  11.267   3.371 -0.4128 -1.7444  0.7423
  783MOL0     H 5651   2.066  11.228   3.242  0.7775 -1.6977  0.7747
  783MOL0     H 5652   2.051  11.419   3.469  3.0831  0.0995 -2.2173
  783MOL0     H 5653   1.898  11.337   3.450 -0.5238  1.3219  0.0343
  783MOL0     H 5654   1.925  11.561   3.316 -1.4030  0.4033  1.5499
  783MOL0     H 5655   2.056  11.461   3.230  0.5267  0.9934  0.1359
  783MOL0     H 5656   1.737  11.262   3.304  0.4027  0.4536  0.2642
  783MOL0     H 5657   1.580  11.143   3.094  0.7894  3.9101  0.7454
  783MOL0     H 5658   1.661  11.124   2.935 -2.5429  1.8915 -0.4082
  783MOL0     H 5659   1.771  11.032   3.216 -0.4835  2.3754 -0.5578
  783MOL0     H 5660   1.704  10.911   3.100  2.6093 -1.7500 -0.7942
  783MOL0     H 5661   1.949  10.917   3.117 -1.4199 -0.0691  1.3719
  783MOL0     H 5662   1.952  11.079   3.052  0.2243  0.3932  2.1059
  783MOL0     H 5663   1.811  10.973   2.851 -0.2152  0.7654  1.3294
  783MOL0     H 5664   1.871  10.817   2.916  0.4701 -0.4643 -2.1742
  783MOL0     H 5665   1.860  11.155   2.754  0.7028 -1.1983  1.0210
  783MOL0     H 5666   1.934  11.332   2.620  0.6127 -0.0803  1.9643
  783MOL0     H 5667   2.199  11.495   2.245 -0.2054 -0.0190  2.0214
  783MOL0     H 5668   2.309  11.675   2.139  2.9960  0.5449 -2.3539
  783MOL0     H 5669   2.588  11.745   1.927  0.2850  0.8808  0.7704
  783MOL0     H 5670   2.425  11.723   1.978  0.7361  0.8306 -3.4458
  783MOL0     H 5671   2.425  11.941   1.941  0.2618 -0.4471 -0.2174
  783MOL0     H 5672   2.426  11.930   2.111 -3.0614  2.6523 -2.2263
  783MOL0     H 5673   2.693  11.950   2.089 -1.8568 -1.9001  4.1939
  783MOL0     H 5674   2.648  12.011   1.926 -1.8701 -0.0134  0.0864
  783MOL0     H 5675   2.535  12.152   2.167 -0.2797  2.9015  0.5589
  783MOL0     H 5676   2.563  12.204   1.988  3.3912  1.0214  0.2560
  783MOL0     H 5677   2.763  12.289   2.021  1.8077  1.7887  0.9145
  783MOL0     H 5678   2.801  12.167   2.155 -2.1598  0.3468  1.6722
  783MOL0     H 5679   2.618  12.410   2.159 -1.2568 -2.5016 -1.1744
  783MOL0     H 5680   2.653  12.301   2.306 -2.1380 -0.1608 -0.1762
  783MOL0     H 5681   2.846  12.493   2.163  0.1313 -3.0479 -2.1534
  783MOL0     H 5682   2.872  12.382   2.297 -1.5335 -1.7860 -0.0003
  783MOL0     H 5683   2.695  12.471   2.434  2.0843 -2.6509 -0.0508
  783MOL0     H 5684   2.820  12.584   2.425 -0.8919 -2.9433  3.7743
  783MOL0     H 5685   2.696  11.550   2.315  0.4401 -1.7330  1.4471
  783MOL0     H 5686   2.577  11.385   2.439  0.9632 -2.5071 -2.2874
  783MOL0     H 5687   2.299  11.096   2.550 -0.2446  0.1446  0.2960
  783MOL0     H 5688   2.236  10.941   2.739  0.3398 -1.9798 -2.2063
  783MOL0     H 5689   2.197  10.833   4.183  1.4692 -2.6599 -2.4497
  783MOL0     H 5690   2.408  10.797   4.315 -3.1246 -1.7562  0.2520
  783MOL0     H 5691   2.858  10.610   4.275 -1.0332 -1.1503  1.4514
  783MOL0     H 5692   3.055  10.574   4.365  0.6952  1.5670 -3.7967
  783MOL0     H 5693   3.266  10.722   4.773  1.2268  0.3677 -0.1666
  783MOL0     H 5694   3.139  10.844   4.743 -2.8181 -0.9963 -1.5108
  783MOL0     H 5695   3.247  10.916   4.544 -1.3583 -1.5348  1.0744
  783MOL0     H 5696   3.369  10.791   4.559  1.4483  1.4067 -0.7900
  783MOL0     H 5697   3.325  10.990   4.786 -0.6614  0.2597  0.1137
  783MOL0     H 5698   3.413  11.044   4.660  2.1619 -2.7565 -3.1881
  783MOL0     H 5699   3.479  10.785   4.814  1.8418  1.3031  3.4972
  783MOL0     H 5700   3.574  10.830   4.674  2.0195  1.0441  1.3404
  783MOL0     H 5701   3.728  11.145   4.889 -0.0467  0.3493  0.4297
  783MOL0     H 5702   2.974  10.897   4.642 -1.6888 -0.1237 -0.2222
  783MOL0     H 5703   2.769  10.994   4.625 -1.3473 -2.4904 -0.0801
  783MOL0     H 5704   2.788  11.086   4.482 -2.3748  2.9345  2.2388
  783MOL0     H 5705   2.639  10.986   4.506  0.0825  0.6996  0.1629
  784MOL0     O 5706   4.136   7.135   0.066 -1.0295 -0.6572 -0.0755
  784MOL0     C 5707   4.161   7.141  -0.055  0.1203 -0.6738  0.1653
  784MOL0     O 5708   4.076   7.117  -0.153  0.0975  0.6372  0.0498
  784MOL0     C 5709   3.946   7.102  -0.118 -0.6219  0.5409  1.7041
  784MOL0     C 5710   3.889   6.993  -0.049 -0.1919  0.5695  0.0193
  784MOL0     C 5711   3.746   6.987  -0.030  0.7791 -0.0962  0.2680
  784MOL0     C 5712   3.657   7.095  -0.050  0.9859  0.7588  0.9562
  784MOL0     O 5713   3.528   7.097   0.002 -0.2039  1.1047 -0.3169
  784MOL0     C 5714   3.428   7.063  -0.093  0.2506 -0.3522  0.0109
  784MOL0     C 5715   3.323   6.978  -0.018  0.1586  0.4424 -0.4275
  784MOL0     C 5716   3.188   6.968  -0.070  0.1912  0.1355  0.2029
  784MOL0     C 5717   3.090   6.895   0.024  0.3811 -0.5787  0.3098
  784MOL0     C 5718   2.938   6.913  -0.023 -0.3979  0.2260  0.4774
  784MOL0     C 5719   2.881   7.053  -0.010 -0.4574 -0.2958  0.1124
  784MOL0     C 5720   2.741   7.054  -0.070 -0.5116  0.1059 -0.4686
  784MOL0     C 5721   2.669   7.184  -0.051 -0.2661 -0.6405  0.0969
  784MOL0     N 5722   2.744   7.297  -0.106  0.3486 -0.1726 -0.0807
  784MOL0     C 5723   2.808   7.399  -0.035  0.4806 -0.4600  0.7381
  784MOL0     C 5724   2.890   7.465  -0.124 -0.1046 -0.2990 -0.3313
  784MOL0     C 5725   2.970   7.598  -0.102 -0.4033 -0.1676  0.0683
  784MOL0     C 5726   2.963   7.685  -0.238  0.3045 -1.4967 -0.0107
  784MOL0     C 5727   2.975   7.838  -0.204 -1.1837  0.2755 -0.4300
  784MOL0     C 5728   2.952   7.922  -0.335  0.0215  0.4091 -0.4733
  784MOL0     O 5729   2.952   8.059  -0.301  0.2398  0.7753  0.9684
  784MOL0     C 5730   3.020   8.142  -0.385 -0.0502  0.1719  0.7525
  784MOL0     C 5731   2.996   8.128  -0.527  0.5726  0.4519  0.5279
  784MOL0     C 5732   3.055   8.219  -0.616 -0.5007 -0.4819 -0.4526
  784MOL0     C 5733   3.139   8.322  -0.569 -0.2821  0.4381  0.2387
  784MOL0     C 5734   3.203   8.415  -0.662 -0.6930 -0.3448 -0.0334
  784MOL0     O 5735   3.285   8.515  -0.599  0.6129 -0.6077 -0.2209
  784MOL0     C 5736   3.370   8.588  -0.675  0.1257  0.3262 -0.8610
  784MOL0     C 5737   3.472   8.656  -0.607 -0.5522  0.6588 -0.6022
  784MOL0     C 5738   3.562   8.752  -0.667 -0.1694  0.2426  0.0949
  784MOL0     C 5739   3.540   8.787  -0.800  0.4523 -0.2526  0.4782
  784MOL0     O 5740   3.632   8.873  -0.848  0.3505 -0.1403 -0.7904
  784MOL0     C 5741   3.717   8.811  -0.945  0.0989 -0.1527  0.4734
  784MOL0     C 5742   3.836   8.917  -0.953  0.7250  0.2550  0.1149
  784MOL0     C 5743   3.814   9.059  -0.997  0.4840  0.5090 -0.3193
  784MOL0     C 5744   3.703   9.080  -1.100  0.0870  0.4211 -0.4496
  784MOL0     C 5745   3.724   9.225  -1.161  0.2094 -0.0621 -0.1262
  784MOL0     C 5746   3.600   9.280  -1.227 -0.7844 -0.3395  0.1148
  784MOL0     C 5747   3.631   9.411  -1.284  0.1873  0.1486  0.4884
  784MOL0     C 5748   3.510   9.483  -1.350 -0.2153 -0.7809 -0.5275
  784MOL0    Cl 5749   3.472   9.399  -1.505  0.1578 -0.2557 -0.5379
  784MOL0     C 5750   3.429   8.733  -0.866  0.3137 -0.1785  0.3760
  784MOL0     C 5751   3.344   8.634  -0.805 -0.2685  0.5991  0.3109
  784MOL0     O 5752   3.189   8.398  -0.780  0.2361  0.0313 -0.0955
  784MOL0     C 5753   3.145   8.335  -0.430  0.4163  0.2695  0.0702
  784MOL0     C 5754   3.087   8.250  -0.338 -0.3953 -0.3560 -0.9910
  784MOL0     N 5755   2.867   7.414  -0.251 -0.4136 -0.2554  0.4466
  784MOL0     N 5756   2.781   7.312  -0.232 -0.8387  0.2400 -0.1772
  784MOL0     C 5757   3.721   7.205  -0.097  0.0716  0.4272 -0.5761
  784MOL0     C 5758   3.856   7.207  -0.141 -0.0318 -0.3586 -0.7583
  784MOL0     C 5759   4.305   7.173  -0.089  1.5364  0.5580 -0.9646
  784MOL0     C 5760   4.395   7.143   0.021  0.6566 -0.3641 -0.2505
  784MOL0     C 5761   4.535   7.156   0.004 -0.2655  0.9398  1.2358
  784MOL0     C 5762   4.590   7.205  -0.115  0.9422  1.0467 -1.0550
  784MOL0     O 5763   4.728   7.218  -0.140  0.2516 -0.0107  0.1837
  784MOL0     C 5764   4.812   7.103  -0.120  0.0934  0.6330 -1.3532
  784MOL0     C 5765   4.957   7.134  -0.141 -0.9684 -0.2238 -0.1760
  784MOL0     C 5766   5.049   7.008  -0.122 -0.3774 -0.0895  0.8022
  784MOL0     C 5767   5.047   6.899  -0.220  0.6537 -0.4170  0.7347
  784MOL0     C 5768   4.990   6.926  -0.356 -0.5969 -0.8170  0.3799
  784MOL0     C 5769   4.932   6.957  -0.459  0.7792 -0.5593  0.5298
  784MOL0     C 5770   4.498   7.241  -0.218  0.0486  0.6954  0.4066
  784MOL0     C 5771   4.357   7.231  -0.201  0.8440  0.1681 -0.5982
  784MOL0     C 5772   4.259   7.274  -0.307 -0.2731  0.0004 -0.4052
  784MOL0     H 5773   3.953   6.910  -0.019 -3.0901 -1.7271  0.3186
  784MOL0     H 5774   3.704   6.902   0.023  0.6736  0.4683  1.1060
  784MOL0     H 5775   3.375   7.148  -0.137  0.2351 -1.3829 -2.0722
  784MOL0     H 5776   3.469   7.004  -0.176 -0.7324 -2.0961  0.7186
  784MOL0     H 5777   3.315   7.025   0.081  2.8667  1.1110 -0.4409
  784MOL0     H 5778   3.363   6.877  -0.006 -2.1339 -0.3626  1.1321
  784MOL0     H 5779   3.190   6.905  -0.159 -3.7330 -0.4264  0.3264
  784MOL0     H 5780   3.157   7.068  -0.102 -0.7902 -0.1729  0.1578
  784MOL0     H 5781   3.123   6.791   0.033  2.3189 -0.0277  0.0094
  784MOL0     H 5782   3.091   6.943   0.122 -1.2001 -0.8933  0.5128
  784MOL0     H 5783   2.928   6.872  -0.123  2.1679  2.4077 -0.8052
  784MOL0     H 5784   2.883   6.848   0.046 -2.4567  3.1263  1.7759
  784MOL0     H 5785   2.879   7.082   0.096  2.7628  2.6539 -0.4472
  784MOL0     H 5786   2.944   7.131  -0.054 -3.7471  2.3399 -0.4113
  784MOL0     H 5787   2.689   6.969  -0.024  3.4334 -1.6881  1.0964
  784MOL0     H 5788   2.754   7.033  -0.176  0.7794  3.2709 -1.0504
  784MOL0     H 5789   2.574   7.183  -0.104 -1.1836  2.6487  1.4626
  784MOL0     H 5790   2.651   7.206   0.054 -0.3414  3.1361 -0.5875
  784MOL0     H 5791   2.775   7.438   0.061  3.6111  1.2762  1.2445
  784MOL0     H 5792   2.918   7.657  -0.026 -0.1269 -1.2227  1.1093
  784MOL0     H 5793   3.071   7.573  -0.070 -1.2325  0.3395  3.4697
  784MOL0     H 5794   3.033   7.665  -0.320  1.2525  0.7864  0.1708
  784MOL0     H 5795   2.865   7.682  -0.285  0.3868 -1.7171 -0.1677
  784MOL0     H 5796   3.077   7.859  -0.171 -0.7583  1.0291 -2.1283
  784MOL0     H 5797   2.900   7.863  -0.128 -1.1480  2.7722 -1.1470
  784MOL0     H 5798   2.849   7.899  -0.363  0.1626 -1.4005  0.3309
  784MOL0     H 5799   3.014   7.903  -0.423  1.3902 -1.0812  0.7499
  784MOL0     H 5800   2.939   8.056  -0.585  1.0731  0.4205  0.0712
  784MOL0     H 5801   3.050   8.191  -0.721  1.3222 -0.5104 -0.5616
  784MOL0     H 5802   3.488   8.632  -0.502 -3.1643  0.8652 -0.1023
  784MOL0     H 5803   3.645   8.782  -0.605 -0.5132  0.8191  0.2854
  784MOL0     H 5804   3.764   8.721  -0.906  2.4655  1.4659  1.6159
  784MOL0     H 5805   3.676   8.798  -1.045  2.9004  0.9645 -0.9323
  784MOL0     H 5806   3.889   8.905  -0.858  0.9879 -1.6307 -0.2265
  784MOL0     H 5807   3.913   8.884  -1.023  2.4500  1.9833  1.0759
  784MOL0     H 5808   3.794   9.111  -0.903 -3.9107  3.0029 -2.3344
  784MOL0     H 5809   3.901   9.095  -1.052 -0.0896  0.7952 -1.0566
  784MOL0     H 5810   3.608   9.065  -1.049  0.5406 -1.7667 -0.1477
  784MOL0     H 5811   3.703   9.009  -1.184 -1.6676  1.6903 -1.5911
  784MOL0     H 5812   3.811   9.215  -1.228 -0.1081 -0.5437 -0.4727
  784MOL0     H 5813   3.745   9.278  -1.068 -2.3913 -0.8361  0.9843
  784MOL0     H 5814   3.573   9.209  -1.306 -0.7438  2.8189 -2.9666
  784MOL0     H 5815   3.519   9.291  -1.154 -1.0508  1.7391 -0.4476
  784MOL0     H 5816   3.704   9.419  -1.365 -0.1626 -0.6843  0.0809
  784MOL0     H 5817   3.674   9.470  -1.203  2.2440  0.4774 -0.7615
  784MOL0     H 5818   3.426   9.479  -1.279  2.7759  0.9496  3.5344
  784MOL0     H 5819   3.535   9.588  -1.370  2.3839 -1.0083  1.0134
  784MOL0     H 5820   3.423   8.768  -0.969  0.9274  2.1744  1.0768
  784MOL0     H 5821   3.256   8.606  -0.862 -0.6268  2.1963  0.0315
  784MOL0     H 5822   3.197   8.419  -0.386  1.3269  2.7159 -4.9717
  784MOL0     H 5823   3.085   8.266  -0.231 -2.2892 -2.9656 -0.5477
  784MOL0     H 5824   3.668   7.299  -0.094  1.7820  1.4321 -0.3411
  784MOL0     H 5825   3.892   7.295  -0.194 -0.2272 -0.0058 -0.3130
  784MOL0     H 5826   4.361   7.103   0.117 -2.9090 -0.4600 -1.4150
  784MOL0     H 5827   4.609   7.131   0.079 -0.2331  2.0846  1.6047
  784MOL0     H 5828   4.781   7.018  -0.183 -0.3768  0.7506 -1.2863
  784MOL0     H 5829   4.805   7.067  -0.017  1.5168 -0.2541 -1.5363
  784MOL0     H 5830   4.978   7.220  -0.077 -2.4932 -0.4242  0.6459
  784MOL0     H 5831   4.972   7.171  -0.242  0.3767 -0.4101 -0.0620
  784MOL0     H 5832   5.021   6.962  -0.027 -2.5213  0.0776  0.3053
  784MOL0     H 5833   5.151   7.050  -0.120  0.1020 -0.8729 -2.0450
  784MOL0     H 5834   5.149   6.862  -0.235 -0.1069 -3.4868  2.3726
  784MOL0     H 5835   4.984   6.815  -0.191 -0.0101  0.0234  0.5918
  784MOL0     H 5836   4.884   6.963  -0.554  0.0677 -2.2647  0.7560
  784MOL0     H 5837   4.547   7.268  -0.311  1.9148 -1.4070  0.7126
  784MOL0     H 5838   4.176   7.329  -0.261 -1.1114 -2.3549  1.0999
  784MOL0     H 5839   4.312   7.342  -0.374  1.3058 -2.4985 -1.8165
  784MOL0     H 5840   4.218   7.184  -0.354 -0.5510  0.9418 -2.0491
  785MOL0     O 5841  11.436   1.613   1.597  0.4284 -0.6849 -0.0588
  785MOL0     C 5842  11.365   1.540   1.666  0.2757 -0.3551 -0.1469
  785MOL0     O 5843  11.294   1.440   1.618  0.4777  0.3010  0.4080
  785MOL0     C 5844  11.338   1.371   1.506 -0.1539 -0.9730  1.1504
  785MOL0     C 5845  11.433   1.263   1.523  1.3619  0.0837 -0.0069
  785MOL0     C 5846  11.474   1.189   1.412 -0.1101  0.1707  0.3470
  785MOL0     C 5847  11.432   1.228   1.291  0.6630  0.1444  1.4290
  785MOL0     O 5848  11.468   1.159   1.180 -0.3808 -0.0687 -0.1272
  785MOL0     C 5849  11.363   1.085   1.125 -0.4478  1.2369  0.7549
  785MOL0     C 5850  11.412   0.956   1.047 -0.3656  0.8803  0.6176
  785MOL0     C 5851  11.288   0.867   0.988 -0.8451 -0.9389  0.1258
  785MOL0     C 5852  11.176   0.936   0.914  0.0817 -0.1708  1.1689
  785MOL0     C 5853  11.108   0.849   0.818  0.6901  0.1027  0.4935
  785MOL0     C 5854  11.005   0.766   0.901  0.7880  0.0486  0.0387
  785MOL0     C 5855  10.930   0.686   0.805 -0.7422  0.1722  0.5777
  785MOL0     C 5856  10.852   0.583   0.873 -0.4371 -0.8727 -0.2932
  785MOL0     N 5857  10.777   0.499   0.774  0.3263  0.2732 -1.1102
  785MOL0     C 5858  10.652   0.535   0.729 -0.8284  0.8249 -0.3798
  785MOL0     C 5859  10.624   0.444   0.640  0.6482  0.2533  0.8280
  785MOL0     C 5860  10.502   0.442   0.543 -0.5143  0.6004 -0.5457
  785MOL0     C 5861  10.529   0.550   0.430  0.2584 -0.0791  0.0035
  785MOL0     C 5862  10.443   0.666   0.427 -0.2673  0.3920 -0.2688
  785MOL0     C 5863  10.482   0.768   0.319 -0.2973  0.1589  0.2572
  785MOL0     O 5864  10.618   0.811   0.316  0.3840 -0.4092  0.4999
  785MOL0     C 5865  10.645   0.927   0.388  0.1244 -0.3481  0.0436
  785MOL0     C 5866  10.756   0.921   0.459  0.7739 -0.2544  0.2159
  785MOL0     C 5867  10.782   1.033   0.542  0.5497  0.6477 -0.1462
  785MOL0     C 5868  10.708   1.151   0.547 -0.2942  0.5852  0.4825
  785MOL0     C 5869  10.740   1.252   0.648 -0.1175  0.0228 -0.0993
  785MOL0     O 5870  10.839   1.236   0.740  0.4903 -0.0918  0.6773
  785MOL0     C 5871  10.883   1.341   0.816  0.4831 -0.6817  0.4997
  785MOL0     C 5872  11.017   1.329   0.834 -0.2572  0.0559  0.1602
  785MOL0     C 5873  11.080   1.411   0.925 -0.5693 -1.3260 -0.1301
  785MOL0     C 5874  11.008   1.500   1.007 -0.6541  0.5012  0.7515
  785MOL0     O 5875  11.081   1.580   1.097 -0.0630  0.7333  1.1386
  785MOL0     C 5876  11.101   1.710   1.057 -0.8037 -0.3945 -0.3508
  785MOL0     C 5877  11.200   1.713   0.936  0.1504 -0.1493 -0.6587
  785MOL0     C 5878  11.258   1.858   0.914  0.5799  0.1858 -0.1360
  785MOL0     C 5879  11.335   1.858   0.786 -0.1183  0.1645 -0.2893
  785MOL0     C 5880  11.259   1.893   0.660  0.3500 -0.2838  0.3647
  785MOL0     C 5881  11.366   1.925   0.553 -0.1244  0.3235 -0.3904
  785MOL0     C 5882  11.296   1.960   0.424  0.4758  0.4152  0.0040
  785MOL0     C 5883  11.396   2.036   0.333 -0.6514  0.3092  0.1199
  785MOL0    Cl 5884  11.534   1.934   0.300 -0.0794  0.5639 -0.4034
  785MOL0     C 5885  10.866   1.519   0.982  0.2742 -0.1695 -0.2458
  785MOL0     C 5886  10.801   1.436   0.887 -0.6453  0.3515 -1.2825
  785MOL0     O 5887  10.671   1.351   0.641 -0.1921 -0.0128  0.4577
  785MOL0     C 5888  10.597   1.152   0.457 -0.6704 -0.6794 -0.6382
  785MOL0     C 5889  10.579   1.044   0.370  0.3493 -0.1995  0.8402
  785MOL0     N 5890  10.722   0.338   0.650 -0.1622 -0.6456 -0.2541
  785MOL0     N 5891  10.807   0.372   0.736 -0.0855  0.0136  0.9346
  785MOL0     C 5892  11.345   1.344   1.271 -0.6148  0.2666  0.5648
  785MOL0     C 5893  11.294   1.407   1.380 -0.2430  0.2314 -0.3007
  785MOL0     C 5894  11.358   1.568   1.807 -0.5842 -0.1143 -0.2872
  785MOL0     C 5895  11.234   1.529   1.876 -0.7857 -0.2174  0.3592
  785MOL0     C 5896  11.221   1.544   2.015 -0.4767  0.5275  0.3243
  785MOL0     C 5897  11.311   1.615   2.087 -0.5817  0.6619 -0.4083
  785MOL0     O 5898  11.286   1.647   2.220  1.2214  0.3231 -0.0711
  785MOL0     C 5899  11.282   1.538   2.311 -0.9072 -1.2709 -0.4179
  785MOL0     C 5900  11.281   1.609   2.453 -0.5847 -0.5648  0.3116
  785MOL0     C 5901  11.154   1.682   2.476 -0.9745 -0.3112 -0.1941
  785MOL0     C 5902  11.176   1.815   2.543 -0.4396  0.5631  0.4966
  785MOL0     C 5903  11.057   1.895   2.558 -0.7305 -0.1847  0.0207
  785MOL0     C 5904  10.951   1.959   2.566  0.0277 -0.3687  0.6025
  785MOL0     C 5905  11.429   1.655   2.027  0.5079 -1.1581 -0.0749
  785MOL0     C 5906  11.447   1.634   1.887 -0.9390  0.3176 -0.0100
  785MOL0     C 5907  11.572   1.706   1.846 -0.0117  0.2765  0.0165
  785MOL0     H 5908  11.461   1.227   1.622  3.0197 -0.4739 -0.6387
  785MOL0     H 5909  11.541   1.105   1.401  0.1707  0.6234 -1.8878
  785MOL0     H 5910  11.287   1.065   1.201  0.2996  1.0081  1.4627
  785MOL0     H 5911  11.324   1.153   1.049  2.0047  2.3738  0.4098
  785MOL0     H 5912  11.464   0.891   1.118 -2.3800 -1.8886 -0.2654
  785MOL0     H 5913  11.486   0.975   0.968 -1.7247  2.1008 -0.4187
  785MOL0     H 5914  11.241   0.820   1.075  2.2453 -2.2323  1.2649
  785MOL0     H 5915  11.328   0.779   0.936  2.7814  0.9648 -0.5832
  785MOL0     H 5916  11.115   0.985   0.990  3.2307  0.3283  3.5894
  785MOL0     H 5917  11.221   1.010   0.848  0.0959 -1.5130 -0.3941
  785MOL0     H 5918  11.055   0.898   0.736 -0.4075  0.2523  1.2723
  785MOL0     H 5919  11.169   0.777   0.764 -1.1267  0.0003 -1.5612
  785MOL0     H 5920  11.058   0.714   0.982 -0.2260 -0.6428  0.2855
  785MOL0     H 5921  10.927   0.825   0.951  0.5065  1.6131 -2.1297
  785MOL0     H 5922  11.004   0.637   0.741 -0.8569  1.5434 -0.6581
  785MOL0     H 5923  10.859   0.736   0.739 -1.5466 -3.6960 -1.7342
  785MOL0     H 5924  10.914   0.521   0.939  1.1575 -1.4484 -2.2251
  785MOL0     H 5925  10.778   0.629   0.939  1.3985  0.7007  0.7954
  785MOL0     H 5926  10.598   0.626   0.750 -3.7824 -0.9329  0.2196
  785MOL0     H 5927  10.491   0.338   0.512 -0.9106  0.7794 -1.0100
  785MOL0     H 5928  10.414   0.459   0.605  0.5784 -1.0993  1.6175
  785MOL0     H 5929  10.635   0.574   0.434  1.3003 -3.2115 -3.2836
  785MOL0     H 5930  10.519   0.500   0.333 -0.4159 -0.8473  0.4466
  785MOL0     H 5931  10.449   0.725   0.519 -2.9737  4.6934 -2.5057
  785MOL0     H 5932  10.342   0.625   0.414  0.0571 -1.1205  1.5708
  785MOL0     H 5933  10.411   0.851   0.328  1.6298  1.8270  0.7058
  785MOL0     H 5934  10.454   0.708   0.231  0.9561  0.5206 -0.4111
  785MOL0     H 5935  10.808   0.826   0.467  1.6944  0.1243 -0.9477
  785MOL0     H 5936  10.874   1.022   0.599  0.5066 -1.5270 -0.3976
  785MOL0     H 5937  11.080   1.259   0.779  1.7882  1.6004  0.4403
  785MOL0     H 5938  11.185   1.396   0.949 -1.5395 -4.2019  3.0148
  785MOL0     H 5939  11.010   1.751   1.012  0.1377  3.1871  0.7040
  785MOL0     H 5940  11.121   1.773   1.145 -2.1235  0.6345 -0.7461
  785MOL0     H 5941  11.270   1.629   0.947 -0.8540 -0.8368  0.7383
  785MOL0     H 5942  11.132   1.683   0.856 -2.0160 -3.5806  2.1498
  785MOL0     H 5943  11.181   1.936   0.903  2.3073  1.7191 -2.4918
  785MOL0     H 5944  11.320   1.882   1.000  1.4976  2.0851 -1.2528
  785MOL0     H 5945  11.382   1.760   0.771  0.4254  0.4867 -0.7341
  785MOL0     H 5946  11.413   1.933   0.803  0.8424 -1.2108  1.7720
  785MOL0     H 5947  11.195   1.975   0.694  0.0812 -0.0273 -0.7177
  785MOL0     H 5948  11.201   1.807   0.623  0.8376 -0.6558  0.4562
  785MOL0     H 5949  11.427   2.014   0.571 -0.8342  1.1679 -2.0247
  785MOL0     H 5950  11.425   1.834   0.537  0.0583 -0.2885  2.9395
  785MOL0     H 5951  11.205   2.016   0.444  0.1986 -0.8389  2.8643
  785MOL0     H 5952  11.272   1.865   0.377 -1.5330 -0.5515  2.7601
  785MOL0     H 5953  11.358   2.059   0.233  0.9786  2.7407 -0.0270
  785MOL0     H 5954  11.423   2.138   0.361 -1.7281  1.0989 -1.5625
  785MOL0     H 5955  10.814   1.584   1.051 -0.0703 -1.0813  0.3798
  785MOL0     H 5956  10.693   1.442   0.877 -1.1674 -0.2967  2.4638
  785MOL0     H 5957  10.531   1.238   0.463 -0.3380 -0.4066 -0.8729
  785MOL0     H 5958  10.499   1.065   0.300  0.8008  1.6624  0.8439
  785MOL0     H 5959  11.326   1.383   1.171  1.0913  0.4529  0.2804
  785MOL0     H 5960  11.223   1.485   1.355  2.3243  1.7314 -3.6873
  785MOL0     H 5961  11.152   1.483   1.822 -3.6314  2.2561  2.2047
  785MOL0     H 5962  11.123   1.517   2.052 -0.4925 -0.2129 -0.2493
  785MOL0     H 5963  11.372   1.476   2.302  0.4846  0.4961  0.5915
  785MOL0     H 5964  11.206   1.464   2.284  1.0318 -2.7396 -2.2620
  785MOL0     H 5965  11.364   1.678   2.470 -0.2563 -1.1427  1.0881
  785MOL0     H 5966  11.299   1.531   2.527 -0.5572  0.8430  1.8604
  785MOL0     H 5967  11.092   1.615   2.535  0.2967 -3.6697 -2.3738
  785MOL0     H 5968  11.113   1.705   2.377  1.6936 -0.0863 -1.3350
  785MOL0     H 5969  11.212   1.787   2.642 -0.0421 -3.5359 -0.6155
  785MOL0     H 5970  11.251   1.883   2.501 -0.5399  2.5703  3.3182
  785MOL0     H 5971  10.857   2.011   2.569 -0.0760  0.1502 -4.4227
  785MOL0     H 5972  11.490   1.704   2.102  3.0425 -0.7030 -2.2919
  785MOL0     H 5973  11.646   1.642   1.798 -1.4463 -1.4201 -0.0448
  785MOL0     H 5974  11.552   1.785   1.774  1.5865 -0.8074 -1.7079
  785MOL0     H 5975  11.633   1.724   1.935 -0.7508 -2.1648  1.1172
  786MOL0     O 5976   0.904   2.398   0.763  0.5634  0.4084 -0.4253
  786MOL0     C 5977   0.963   2.354   0.867 -1.2040 -0.5598  0.3558
  786MOL0     O 5978   0.896   2.331   0.985 -0.3967 -0.4361  0.1007
  786MOL0     C 5979   0.780   2.408   1.013 -0.8833  0.5618 -0.6470
  786MOL0     C 5980   0.663   2.347   1.036  0.2342  0.3010 -0.5294
  786MOL0     C 5981   0.539   2.412   1.075  0.1284  0.1488  0.7238
  786MOL0     C 5982   0.542   2.544   1.098 -0.7559 -0.7066  0.2168
  786MOL0     O 5983   0.427   2.599   1.143 -0.5930 -0.1486  0.1357
  786MOL0     C 5984   0.426   2.704   1.253 -0.3862  0.2854  0.1730
  786MOL0     C 5985   0.452   2.631   1.381 -1.0603  0.3958  0.1177
  786MOL0     C 5986   0.478   2.722   1.499  0.3370  0.8977 -0.3868
  786MOL0     C 5987   0.539   2.655   1.623  0.3391  0.3788 -0.1697
  786MOL0     C 5988   0.529   2.748   1.740 -0.6303  0.3224  0.1458
  786MOL0     C 5989   0.553   2.670   1.871 -0.1554 -1.0029 -0.1404
  786MOL0     C 5990   0.700   2.640   1.898  0.2184 -0.5917  0.4061
  786MOL0     C 5991   0.746   2.612   2.041 -0.3916  0.4890  0.2516
  786MOL0     N 5992   0.724   2.476   2.106  0.3388 -0.5561  0.1538
  786MOL0     C 5993   0.766   2.436   2.225 -0.8105 -0.7436  0.3740
  786MOL0     C 5994   0.719   2.310   2.238 -0.4699 -0.2811 -0.6370
  786MOL0     C 5995   0.716   2.219   2.365 -0.0541 -0.3947  0.0793
  786MOL0     C 5996   0.856   2.213   2.440  1.2054 -1.1538 -0.3106
  786MOL0     C 5997   0.957   2.111   2.392  0.1849  0.0579  0.1991
  786MOL0     C 5998   1.094   2.123   2.468 -0.1912  0.5188  0.7635
  786MOL0     O 5999   1.181   2.225   2.416 -0.0045  0.8706  0.0355
  786MOL0     C 6000   1.315   2.225   2.452 -0.1285 -0.1955  0.1674
  786MOL0     C 6001   1.378   2.345   2.426 -0.0797 -0.5501 -0.1519
  786MOL0     C 6002   1.513   2.376   2.471  0.2000  0.3909  0.9921
  786MOL0     C 6003   1.584   2.278   2.535  0.2415  0.6858 -0.8812
  786MOL0     C 6004   1.726   2.291   2.574 -0.3515 -0.2666  0.5574
  786MOL0     O 6005   1.791   2.178   2.605 -0.1320 -0.4750 -0.0277
  786MOL0     C 6006   1.925   2.176   2.638 -0.9312  0.5141 -0.4824
  786MOL0     C 6007   2.026   2.268   2.608  0.0150 -0.3813  0.5729
  786MOL0     C 6008   2.157   2.242   2.651 -0.2773  0.6142 -0.0286
  786MOL0     C 6009   2.194   2.124   2.718  0.4451 -1.1697  1.3036
  786MOL0     O 6010   2.330   2.102   2.748  0.4272 -0.7931 -0.1614
  786MOL0     C 6011   2.387   1.986   2.687  0.3034 -0.1388 -0.9992
  786MOL0     C 6012   2.541   1.985   2.711  0.6601  0.5954 -0.8177
  786MOL0     C 6013   2.574   2.003   2.863 -0.7883 -0.7421  0.2838
  786MOL0     C 6014   2.519   1.888   2.959 -0.3266  0.0734  0.2205
  786MOL0     C 6015   2.530   1.928   3.101  0.2721  0.4185  0.0348
  786MOL0     C 6016   2.672   1.922   3.157 -0.1116 -0.4980 -0.7003
  786MOL0     C 6017   2.685   1.786   3.231  0.7386  0.4476 -0.2946
  786MOL0     C 6018   2.824   1.730   3.238 -1.2192 -0.2482  0.3133
  786MOL0    Cl 6019   2.805   1.555   3.260  0.3970 -0.2788  0.1367
  786MOL0     C 6020   2.094   2.029   2.735 -0.7420  0.0946 -0.1640
  786MOL0     C 6021   1.962   2.060   2.703 -0.1891 -0.2886 -0.5721
  786MOL0     O 6022   1.779   2.404   2.556 -0.1114  0.0516  0.0091
  786MOL0     C 6023   1.526   2.149   2.560  0.2879 -0.0269 -0.0046
  786MOL0     C 6024   1.389   2.127   2.518  0.7238 -0.9329 -0.4011
  786MOL0     N 6025   0.656   2.279   2.122  0.7264  0.2765  0.1505
  786MOL0     N 6026   0.653   2.375   2.039 -0.0700 -0.8094 -0.9229
  786MOL0     C 6027   0.667   2.619   1.063  0.8346  0.5433 -0.4555
  786MOL0     C 6028   0.785   2.546   1.030 -0.3755  0.3968 -0.8893
  786MOL0     C 6029   1.105   2.333   0.852  0.0573 -0.3589  0.1631
  786MOL0     C 6030   1.162   2.415   0.753  0.1537 -0.5015 -0.9754
  786MOL0     C 6031   1.299   2.400   0.722 -0.3082 -0.6383  1.1055
  786MOL0     C 6032   1.375   2.302   0.778 -0.0278 -0.1754  1.2098
  786MOL0     O 6033   1.506   2.287   0.744 -0.0899 -0.4919 -1.2407
  786MOL0     C 6034   1.539   2.176   0.667  0.6364 -0.3585  0.9017
  786MOL0     C 6035   1.692   2.184   0.644  0.0034  0.2323 -0.0059
  786MOL0     C 6036   1.727   2.315   0.573 -0.5248 -0.2161 -0.2847
  786MOL0     C 6037   1.883   2.304   0.566 -0.8963  0.9881 -0.4228
  786MOL0     C 6038   1.927   2.196   0.474 -0.7101 -0.2199  0.3815
  786MOL0     C 6039   1.971   2.109   0.397 -0.2347 -0.2038 -0.4520
  786MOL0     C 6040   1.317   2.216   0.871 -0.3711 -0.6026 -0.0177
  786MOL0     C 6041   1.182   2.231   0.913  0.8046 -0.5308  0.1976
  786MOL0     C 6042   1.113   2.122   1.004 -0.0313 -1.3750 -0.1657
  786MOL0     H 6043   0.671   2.239   1.027 -0.5537  0.3615 -2.1864
  786MOL0     H 6044   0.455   2.342   1.082  1.4459 -2.7294 -5.2284
  786MOL0     H 6045   0.502   2.782   1.243  1.3832 -0.7709  3.5169
  786MOL0     H 6046   0.328   2.752   1.254  0.4281  2.1418 -1.4419
  786MOL0     H 6047   0.536   2.563   1.369 -1.7316 -0.4507  0.1080
  786MOL0     H 6048   0.366   2.564   1.389 -2.0184  1.3763 -1.5205
  786MOL0     H 6049   0.385   2.776   1.520  1.1072  2.7834 -1.4878
  786MOL0     H 6050   0.549   2.798   1.464  2.3917 -1.3688 -1.3793
  786MOL0     H 6051   0.481   2.565   1.646  0.5118 -0.0527 -1.3904
  786MOL0     H 6052   0.641   2.632   1.591 -0.4298  1.9768 -4.4737
  786MOL0     H 6053   0.600   2.831   1.738 -0.9904  0.6252 -0.3612
  786MOL0     H 6054   0.425   2.784   1.739 -1.8776 -2.8189 -2.1797
  786MOL0     H 6055   0.510   2.711   1.963 -0.2872 -3.3076  0.9044
  786MOL0     H 6056   0.500   2.575   1.866  0.8383 -1.5932  0.2060
  786MOL0     H 6057   0.745   2.737   1.875 -2.3883  1.2554  2.6216
  786MOL0     H 6058   0.743   2.567   1.828 -0.8553  0.3154 -1.2580
  786MOL0     H 6059   0.852   2.637   2.054  0.2484 -0.4583 -2.5270
  786MOL0     H 6060   0.693   2.679   2.109  0.3561 -0.6279  2.0219
  786MOL0     H 6061   0.829   2.495   2.291 -2.9909  1.1931  0.8715
  786MOL0     H 6062   0.643   2.269   2.430  0.9391  0.1230  0.8240
  786MOL0     H 6063   0.678   2.121   2.334  0.1845  0.3403 -2.8454
  786MOL0     H 6064   0.903   2.311   2.444  0.7150 -0.8679 -1.1867
  786MOL0     H 6065   0.839   2.181   2.543  0.4361  1.2700  0.3660
  786MOL0     H 6066   0.958   2.139   2.286  0.3450  0.0972  0.2118
  786MOL0     H 6067   0.912   2.011   2.396  1.2130 -0.6668 -3.3253
  786MOL0     H 6068   1.139   2.024   2.453 -2.6508 -0.7182  0.9406
  786MOL0     H 6069   1.072   2.139   2.574 -1.6760  2.7649  0.1751
  786MOL0     H 6070   1.321   2.423   2.378  1.2963  1.1054  0.7702
  786MOL0     H 6071   1.545   2.477   2.450  0.1074  0.5470  1.5733
  786MOL0     H 6072   2.001   2.357   2.550  0.1219  0.7572  2.2001
  786MOL0     H 6073   2.241   2.300   2.615  0.4935 -1.1493 -1.2415
  786MOL0     H 6074   2.343   1.891   2.719 -0.8894  1.3837  2.3858
  786MOL0     H 6075   2.374   1.995   2.579  1.1242  1.8385 -0.9831
  786MOL0     H 6076   2.590   1.894   2.674  3.1600  0.8303  1.5789
  786MOL0     H 6077   2.595   2.053   2.646 -0.5325  0.4558 -1.9885
  786MOL0     H 6078   2.682   2.016   2.870 -0.7430 -0.1650 -1.1729
  786MOL0     H 6079   2.529   2.097   2.899  1.7715 -0.4569  3.1982
  786MOL0     H 6080   2.579   1.799   2.941  0.9599  1.0011 -0.2403
  786MOL0     H 6081   2.418   1.861   2.926  0.1101 -0.7381 -0.5037
  786MOL0     H 6082   2.454   1.867   3.150  2.4111 -1.2336  1.5154
  786MOL0     H 6083   2.478   2.024   3.109  0.0538  0.3491 -0.4716
  786MOL0     H 6084   2.747   1.929   3.078  0.4130  0.0811 -0.1602
  786MOL0     H 6085   2.692   2.008   3.221 -2.2047 -2.1357  2.4132
  786MOL0     H 6086   2.619   1.708   3.190  0.8480  1.2381 -2.0141
  786MOL0     H 6087   2.668   1.813   3.336  3.2985  3.0126 -0.4219
  786MOL0     H 6088   2.871   1.755   3.143 -2.8439  0.1078 -0.4452
  786MOL0     H 6089   2.873   1.776   3.324 -0.0580 -0.6530 -0.1186
  786MOL0     H 6090   2.115   1.936   2.788  2.5862  0.2582 -1.0032
  786MOL0     H 6091   1.889   1.983   2.728  0.4265 -0.3113  1.3285
  786MOL0     H 6092   1.574   2.066   2.610 -0.9507 -0.6253  0.2280
  786MOL0     H 6093   1.347   2.027   2.524  0.5631 -0.7960  1.4747
  786MOL0     H 6094   0.668   2.724   1.091  0.8200  0.6717 -0.9356
  786MOL0     H 6095   0.868   2.615   1.015 -0.5486  0.7554 -0.2326
  786MOL0     H 6096   1.096   2.485   0.702 -1.1013  0.9369  2.3599
  786MOL0     H 6097   1.360   2.459   0.656 -0.8925 -2.4512 -1.1805
  786MOL0     H 6098   1.489   2.174   0.570 -0.5349  4.4660  1.1760
  786MOL0     H 6099   1.517   2.081   0.717 -1.2673 -0.8101 -0.6982
  786MOL0     H 6100   1.724   2.094   0.591 -0.4748  1.2904 -2.2412
  786MOL0     H 6101   1.740   2.184   0.742 -0.2755 -3.4351  0.2955
  786MOL0     H 6102   1.698   2.406   0.626 -0.5882 -0.7561  0.6267
  786MOL0     H 6103   1.686   2.317   0.472  1.0700 -2.0494 -1.0378
  786MOL0     H 6104   1.898   2.405   0.527 -1.1940  1.8001  1.4488
  786MOL0     H 6105   1.932   2.284   0.662 -0.2239 -0.3867 -1.0220
  786MOL0     H 6106   2.019   2.038   0.333 -0.6372  0.0079 -0.9986
  786MOL0     H 6107   1.372   2.133   0.915  4.3402  3.0552  1.7759
  786MOL0     H 6108   1.163   2.025   1.007 -1.5968 -2.1894  0.2883
  786MOL0     H 6109   1.104   2.170   1.102  1.2715  3.2729 -1.9957
  786MOL0     H 6110   1.018   2.107   0.953  0.3339  0.1618 -1.3945
  787MOL0     O 6111   2.781   2.604   8.836  0.4994  0.1857 -0.5230
  787MOL0     C 6112   2.780   2.697   8.910 -0.0525 -0.1778 -0.3624
  787MOL0     O 6113   2.862   2.815   8.893  0.3977 -1.1174  0.0866
  787MOL0     C 6114   2.926   2.839   8.773  0.2644 -1.1863 -0.0844
  787MOL0     C 6115   2.885   2.795   8.648  1.0379 -0.7360 -0.4796
  787MOL0     C 6116   2.952   2.831   8.530 -0.7738 -0.7842 -0.3013
  787MOL0     C 6117   3.061   2.915   8.535  0.1320  0.6673 -0.4078
  787MOL0     O 6118   3.110   2.942   8.417  0.1006  1.5280 -0.0007
  787MOL0     C 6119   3.245   2.971   8.408 -0.4021  0.1100  0.7999
  787MOL0     C 6120   3.294   2.937   8.260  0.1220 -0.4263  0.5858
  787MOL0     C 6121   3.268   2.803   8.210 -0.1998  0.2566 -0.0881
  787MOL0     C 6122   3.317   2.679   8.291  0.2683  0.3236 -0.2525
  787MOL0     C 6123   3.468   2.664   8.308 -0.1803  0.1873 -1.1489
  787MOL0     C 6124   3.556   2.680   8.181  0.1330  1.1017  0.0221
  787MOL0     C 6125   3.704   2.708   8.203 -0.2319 -0.7035 -0.1775
  787MOL0     C 6126   3.767   2.669   8.065 -0.4583  0.8722 -0.1609
  787MOL0     N 6127   3.915   2.690   8.057  0.2802 -0.3825  0.5590
  787MOL0     C 6128   4.004   2.641   8.151 -0.3040  0.0077 -0.0828
  787MOL0     C 6129   4.103   2.729   8.140 -0.4505  0.6515 -0.1862
  787MOL0     C 6130   4.221   2.724   8.238  0.4051  0.2658 -0.0358
  787MOL0     C 6131   4.188   2.823   8.354  0.0018  0.3951 -0.9943
  787MOL0     C 6132   4.300   2.818   8.459 -0.3017  0.3769 -0.4942
  787MOL0     C 6133   4.269   2.922   8.565 -0.0979  0.9938  0.6414
  787MOL0     O 6134   4.324   2.864   8.681  0.3966  0.3951 -0.7625
  787MOL0     C 6135   4.357   2.940   8.791 -0.0029 -0.4644  0.4263
  787MOL0     C 6136   4.417   3.065   8.771  0.4670  0.5969 -0.0863
  787MOL0     C 6137   4.448   3.154   8.881 -0.4264 -0.5238  0.5787
  787MOL0     C 6138   4.427   3.110   9.007  0.2105 -0.2908  0.1696
  787MOL0     C 6139   4.488   3.191   9.116 -0.2679  0.5656 -0.5722
  787MOL0     O 6140   4.597   3.279   9.092  0.0533  0.0596 -0.2330
  787MOL0     C 6141   4.662   3.320   9.205 -0.8017 -0.4000 -0.0586
  787MOL0     C 6142   4.676   3.461   9.202  0.9233 -0.2192 -0.1399
  787MOL0     C 6143   4.757   3.528   9.285 -1.2797 -0.0457  1.1958
  787MOL0     C 6144   4.820   3.467   9.395  0.2930  0.3940  0.5493
  787MOL0     O 6145   4.896   3.535   9.497  0.8998 -0.1881  0.2507
  787MOL0     C 6146   4.874   3.669   9.530  0.4994  0.1012 -0.6168
  787MOL0     C 6147   4.952   3.698   9.656 -0.3504 -0.3369 -0.3621
  787MOL0     C 6148   4.956   3.855   9.667  0.0489 -0.9472  0.1426
  787MOL0     C 6149   5.011   3.900   9.798 -0.0075 -1.0584 -0.0355
  787MOL0     C 6150   4.979   4.054   9.822  0.1529  0.3626  0.7911
  787MOL0     C 6151   5.051   4.150   9.727 -0.0122  0.3310 -0.4384
  787MOL0     C 6152   5.212   4.133   9.741  0.3172 -0.0843  0.7343
  787MOL0     C 6153   5.273   4.235   9.652 -0.1290 -0.7685  0.1570
  787MOL0    Cl 6154   5.268   4.398   9.727 -0.3232 -0.0172 -0.3784
  787MOL0     C 6155   4.802   3.326   9.412 -0.4967  0.2730 -0.1233
  787MOL0     C 6156   4.722   3.252   9.315  0.4852  0.1181  0.4955
  787MOL0     O 6157   4.454   3.160   9.228 -0.0819 -0.1598  0.0073
  787MOL0     C 6158   4.347   2.995   9.022  0.3726  0.1731  0.5527
  787MOL0     C 6159   4.328   2.901   8.919 -0.1346  0.1752  0.3641
  787MOL0     N 6160   4.076   2.825   8.041 -0.4097 -1.4355 -0.4841
  787MOL0     N 6161   3.960   2.803   7.997 -0.2583  0.0880  0.0196
  787MOL0     C 6162   3.111   2.961   8.661 -0.9943 -0.0560  0.1243
  787MOL0     C 6163   3.045   2.923   8.782  0.6434 -0.4125 -0.2305
  787MOL0     C 6164   2.725   2.668   9.046  0.7111 -0.4919 -0.4407
  787MOL0     C 6165   2.764   2.757   9.145 -0.2290 -0.0613 -0.5576
  787MOL0     C 6166   2.716   2.745   9.273 -0.5490  0.0110 -0.0092
  787MOL0     C 6167   2.622   2.646   9.313 -0.2240 -0.2027  0.6053
  787MOL0     O 6168   2.576   2.652   9.436  0.2612 -0.2197 -0.1253
  787MOL0     C 6169   2.497   2.538   9.476  0.9372  0.4566  0.7713
  787MOL0     C 6170   2.502   2.528   9.626 -0.1114 -0.2898 -0.4594
  787MOL0     C 6171   2.615   2.433   9.666  0.5934 -0.0113  0.4716
  787MOL0     C 6172   2.578   2.288   9.680  0.3061 -0.2197  0.5277
  787MOL0     C 6173   2.594   2.275   9.832  0.6686  0.4353  0.0938
  787MOL0     C 6174   2.635   2.260   9.946 -0.6770  0.0195  0.1563
  787MOL0     C 6175   2.582   2.558   9.207  0.3080  0.0313 -0.1529
  787MOL0     C 6176   2.632   2.570   9.077  0.5276 -0.0121  0.6847
  787MOL0     C 6177   2.572   2.477   8.973 -0.1380  0.1747  0.1647
  787MOL0     H 6178   2.789   2.748   8.635  0.0424  0.3136  2.3971
  787MOL0     H 6179   2.914   2.788   8.438 -2.2192 -2.7411  1.1103
  787MOL0     H 6180   3.275   3.072   8.440  1.6057 -0.2504  0.2141
  787MOL0     H 6181   3.303   2.903   8.472 -0.4405 -0.6765  0.0137
  787MOL0     H 6182   3.400   2.963   8.247 -0.0954 -0.4830 -1.5988
  787MOL0     H 6183   3.251   3.002   8.184  0.5118 -2.3061 -1.3561
  787MOL0     H 6184   3.305   2.796   8.108 -0.2451 -1.1289 -0.0226
  787MOL0     H 6185   3.161   2.799   8.187 -0.1136 -0.4549 -0.3710
  787MOL0     H 6186   3.265   2.668   8.387  1.1663 -0.2541  0.1853
  787MOL0     H 6187   3.282   2.590   8.238 -0.1888  0.9544 -1.0329
  787MOL0     H 6188   3.503   2.740   8.379 -1.0352 -0.1246 -0.3846
  787MOL0     H 6189   3.479   2.564   8.352  0.2483  0.7132 -0.0217
  787MOL0     H 6190   3.556   2.581   8.134  4.0569  0.2286  1.4292
  787MOL0     H 6191   3.510   2.747   8.109  1.8517  0.2380 -1.9939
  787MOL0     H 6192   3.744   2.650   8.286  0.6193  0.2668  0.1060
  787MOL0     H 6193   3.725   2.812   8.226  3.7943 -0.4882 -3.5823
  787MOL0     H 6194   3.745   2.563   8.044 -0.5493  1.0148 -0.8027
  787MOL0     H 6195   3.716   2.718   7.982 -1.4983  1.9219  1.0657
  787MOL0     H 6196   3.993   2.560   8.222 -0.9701  0.6637  0.5854
  787MOL0     H 6197   4.231   2.620   8.271 -3.5316  0.0507  1.0365
  787MOL0     H 6198   4.313   2.754   8.188  0.7405 -1.3764 -0.4712
  787MOL0     H 6199   4.171   2.927   8.326 -1.4792  0.5221  0.2066
  787MOL0     H 6200   4.089   2.797   8.391 -0.6624 -1.0359 -3.5649
  787MOL0     H 6201   4.393   2.836   8.404  0.9665 -1.7114  0.8396
  787MOL0     H 6202   4.314   2.716   8.496  0.1314  0.8765  0.7536
  787MOL0     H 6203   4.161   2.924   8.586 -0.3877 -0.4058 -0.5159
  787MOL0     H 6204   4.298   3.021   8.530  4.6828 -0.7600 -1.2010
  787MOL0     H 6205   4.443   3.095   8.670 -2.3012  1.3649 -0.6446
  787MOL0     H 6206   4.508   3.239   8.852 -0.1575 -0.7502  0.4617
  787MOL0     H 6207   4.619   3.515   9.127 -2.9668 -2.0343  1.2216
  787MOL0     H 6208   4.762   3.633   9.256  1.2273 -1.0182 -2.7423
  787MOL0     H 6209   4.902   3.732   9.445  0.9856 -1.1893 -1.4224
  787MOL0     H 6210   4.768   3.685   9.555  1.4644  2.7363  2.6157
  787MOL0     H 6211   4.913   3.647   9.744 -0.8918  1.0251  0.2152
  787MOL0     H 6212   5.056   3.671   9.631  1.6378  2.6248  3.6668
  787MOL0     H 6213   5.016   3.905   9.591 -1.4612  0.7837  0.0152
  787MOL0     H 6214   4.854   3.889   9.648  1.0223  0.9456 -2.1721
  787MOL0     H 6215   5.118   3.883   9.816 -0.6383 -2.0474  3.5150
  787MOL0     H 6216   4.973   3.840   9.881 -0.4318 -2.6271 -1.3154
  787MOL0     H 6217   5.010   4.076   9.924 -0.3002  1.3783  0.7189
  787MOL0     H 6218   4.873   4.079   9.825  0.6194  2.4975  3.7481
  787MOL0     H 6219   5.017   4.128   9.625  0.4613 -1.2208 -0.2756
  787MOL0     H 6220   5.032   4.255   9.752 -1.8222  0.8282 -3.3801
  787MOL0     H 6221   5.244   4.033   9.711  2.8273 -0.2856  3.6098
  787MOL0     H 6222   5.261   4.148   9.837  2.4003  1.4362 -0.4574
  787MOL0     H 6223   5.380   4.215   9.644  0.9022  1.8447  4.2450
  787MOL0     H 6224   5.232   4.232   9.550  2.2290  0.5829 -0.9099
  787MOL0     H 6225   4.827   3.271   9.502 -0.4350  2.4836  1.2847
  787MOL0     H 6226   4.709   3.144   9.316  0.8312  0.0627 -0.3582
  787MOL0     H 6227   4.320   2.965   9.123 -5.4203  0.1074 -0.6707
  787MOL0     H 6228   4.296   2.799   8.940 -0.4221 -0.3140 -2.1619
  787MOL0     H 6229   3.207   3.012   8.661 -0.2194 -1.3504  2.6502
  787MOL0     H 6230   3.079   2.952   8.881 -1.7832  1.1089  0.2453
  787MOL0     H 6231   2.828   2.844   9.133 -0.8927  0.5465  0.2330
  787MOL0     H 6232   2.738   2.818   9.350 -3.6950  0.9137  0.1457
  787MOL0     H 6233   2.536   2.440   9.448 -0.4936 -0.0534  0.4933
  787MOL0     H 6234   2.394   2.551   9.443  0.7082 -2.7394 -0.1274
  787MOL0     H 6235   2.404   2.494   9.660  0.4581 -1.8012 -0.2658
  787MOL0     H 6236   2.526   2.623   9.674  3.6993 -2.0421  1.5363
  787MOL0     H 6237   2.665   2.476   9.753  1.7575 -0.9092  0.2808
  787MOL0     H 6238   2.687   2.436   9.584 -0.6569  0.0327 -0.6555
  787MOL0     H 6239   2.480   2.245   9.657 -0.0023 -0.8779  2.7843
  787MOL0     H 6240   2.651   2.225   9.628 -1.5094  0.4759 -3.1811
  787MOL0     H 6241   2.665   2.274  10.048  3.5790 -0.5443 -0.8119
  787MOL0     H 6242   2.500   2.488   9.219  1.1498 -0.6974  1.6748
  787MOL0     H 6243   2.477   2.429   8.999 -0.6264 -1.8250 -4.3842
  787MOL0     H 6244   2.547   2.522   8.876  0.4906 -0.1469 -0.1538
  787MOL0     H 6245   2.643   2.397   8.953 -1.1341 -0.4560 -1.0245
  788MOL0     O 6246   4.853   7.306   8.543 -0.9405 -0.8972  0.2011
  788MOL0     C 6247   4.852   7.356   8.654  0.6168 -0.8210 -0.3310
  788MOL0     O 6248   4.816   7.486   8.668 -0.1400  0.1419 -0.2714
  788MOL0     C 6249   4.779   7.575   8.577 -0.2749 -0.0321 -0.0921
  788MOL0     C 6250   4.665   7.654   8.589  0.5136 -0.9183 -0.4095
  788MOL0     C 6251   4.629   7.733   8.484 -1.1542 -0.1611  0.2583
  788MOL0     C 6252   4.697   7.733   8.364 -0.2280  0.7865 -0.4264
  788MOL0     O 6253   4.637   7.810   8.270  0.2697 -0.1798  1.2517
  788MOL0     C 6254   4.734   7.867   8.182  0.6418  1.0565  0.0503
  788MOL0     C 6255   4.672   7.966   8.085 -0.8575 -0.4459  0.3867
  788MOL0     C 6256   4.547   7.931   8.011  0.1239  0.1420  0.0341
  788MOL0     C 6257   4.525   8.009   7.880  0.5661  0.1375 -0.5996
  788MOL0     C 6258   4.385   7.986   7.813  0.2025  0.0916  0.1668
  788MOL0     C 6259   4.398   7.849   7.734  0.2557  0.0529  1.2732
  788MOL0     C 6260   4.273   7.813   7.653  1.0181  0.6815 -0.8778
  788MOL0     C 6261   4.284   7.677   7.580  0.1888  0.1661  0.7281
  788MOL0     N 6262   4.315   7.567   7.671 -1.2600 -0.0782  0.0950
  788MOL0     C 6263   4.245   7.514   7.772 -0.6886 -0.4041  0.5728
  788MOL0     C 6264   4.281   7.388   7.784 -0.2432  0.4771  0.2389
  788MOL0     C 6265   4.213   7.299   7.877  0.0957 -0.7075  0.5299
  788MOL0     C 6266   4.238   7.147   7.849  0.1993  0.6183 -0.1999
  788MOL0     C 6267   4.184   7.096   7.716  0.2238  0.0797  0.0762
  788MOL0     C 6268   4.227   6.953   7.681 -1.2303  0.4231 -0.1925
  788MOL0     O 6269   4.139   6.855   7.735 -1.2828 -0.4866 -0.1242
  788MOL0     C 6270   4.198   6.757   7.807 -0.2037  0.0287 -0.4236
  788MOL0     C 6271   4.170   6.621   7.793  0.4497 -0.8666 -0.1164
  788MOL0     C 6272   4.211   6.527   7.886  0.4612  0.5406  0.2616
  788MOL0     C 6273   4.270   6.560   8.004 -0.0952  0.2105  0.6563
  788MOL0     C 6274   4.316   6.445   8.093  1.5488  0.3387 -0.0279
  788MOL0     O 6275   4.393   6.476   8.207  0.1432  0.3292  0.0448
  788MOL0     C 6276   4.441   6.371   8.282  0.8009 -0.4491 -0.1774
  788MOL0     C 6277   4.527   6.278   8.231 -0.7302  1.1973  1.3217
  788MOL0     C 6278   4.578   6.183   8.321 -0.5031  0.2490 -0.3196
  788MOL0     C 6279   4.532   6.162   8.452  0.2233 -0.0648  0.4945
  788MOL0     O 6280   4.593   6.067   8.533 -0.0902 -0.2491  0.5378
  788MOL0     C 6281   4.547   6.030   8.666  0.1447 -0.4857 -0.1168
  788MOL0     C 6282   4.653   5.931   8.728  0.6986 -0.2764  0.7405
  788MOL0     C 6283   4.611   5.896   8.883 -0.9573  0.2571 -0.1301
  788MOL0     C 6284   4.519   5.771   8.890  0.1384  0.1191 -0.6102
  788MOL0     C 6285   4.506   5.727   9.029 -0.0378 -0.4276  0.1348
  788MOL0     C 6286   4.473   5.578   9.034  0.7054  0.1789 -0.1058
  788MOL0     C 6287   4.443   5.532   9.176 -0.1048  0.4116 -0.2081
  788MOL0     C 6288   4.366   5.397   9.175  0.9889 -0.0670  0.1563
  788MOL0    Cl 6289   4.322   5.349   9.335 -0.5034 -0.0547  0.0243
  788MOL0     C 6290   4.445   6.263   8.501  0.1171  0.9164  0.1796
  788MOL0     C 6291   4.401   6.364   8.418  0.5466  0.1728  1.2989
  788MOL0     O 6292   4.264   6.337   8.079  0.6560  0.5264  0.1928
  788MOL0     C 6293   4.307   6.694   8.034  0.6590 -0.0100  1.1024
  788MOL0     C 6294   4.261   6.789   7.937 -0.3054 -0.7479  0.3831
  788MOL0     N 6295   4.387   7.366   7.697 -0.3844 -0.5068  0.7336
  788MOL0     N 6296   4.406   7.474   7.634 -0.5655  0.6988 -0.2137
  788MOL0     C 6297   4.812   7.658   8.349  0.5061 -0.1206 -0.3968
  788MOL0     C 6298   4.849   7.579   8.455 -0.4844 -0.8385 -0.1207
  788MOL0     C 6299   4.882   7.274   8.772  0.1607 -0.2952 -0.1083
  788MOL0     C 6300   4.967   7.166   8.749 -0.9179 -0.0889  0.5505
  788MOL0     C 6301   5.023   7.098   8.853 -0.0664  0.1290 -1.0336
  788MOL0     C 6302   4.974   7.119   8.993 -0.5198 -0.3930 -0.0528
  788MOL0     O 6303   5.042   7.059   9.105 -0.3002 -0.7869  0.5858
  788MOL0     C 6304   5.163   6.983   9.080  0.6189 -0.0837 -0.8596
  788MOL0     C 6305   5.223   6.944   9.209 -0.1290  0.5454 -0.7711
  788MOL0     C 6306   5.274   7.061   9.296  0.0621 -0.7464 -0.2652
  788MOL0     C 6307   5.397   7.031   9.378 -0.0586 -0.3897  1.2691
  788MOL0     C 6308   5.363   6.944   9.487  0.2841 -0.2231 -0.1462
  788MOL0     C 6309   5.335   6.849   9.569 -0.4018 -0.3815 -1.5049
  788MOL0     C 6310   4.885   7.221   9.006  0.6684 -0.0601  0.2847
  788MOL0     C 6311   4.834   7.301   8.902 -0.8917 -0.2510  0.0099
  788MOL0     C 6312   4.753   7.421   8.941  0.4824  0.4197 -0.0104
  788MOL0     H 6313   4.616   7.654   8.686  0.2734 -2.3486 -0.5095
  788MOL0     H 6314   4.545   7.802   8.481 -2.2525 -1.4558  0.3797
  788MOL0     H 6315   4.833   7.895   8.217  0.0014  0.9045  2.1207
  788MOL0     H 6316   4.747   7.779   8.118 -3.1770  1.5216 -1.6644
  788MOL0     H 6317   4.754   7.980   8.015 -0.7624  2.0428  0.8958
  788MOL0     H 6318   4.655   8.064   8.131 -1.3130 -0.5220  0.3903
  788MOL0     H 6319   4.463   7.954   8.077  0.0369  1.0098 -0.3675
  788MOL0     H 6320   4.554   7.825   7.984 -2.7488  0.0880 -0.9115
  788MOL0     H 6321   4.528   8.116   7.903  2.7894  0.7396 -3.1329
  788MOL0     H 6322   4.608   7.983   7.813  1.0800 -0.4067  0.2226
  788MOL0     H 6323   4.302   7.978   7.884  0.5971 -2.2618  0.4539
  788MOL0     H 6324   4.374   8.067   7.741  1.8791 -3.3621 -4.5243
  788MOL0     H 6325   4.475   7.867   7.659  0.3351  1.3896  1.6520
  788MOL0     H 6326   4.429   7.773   7.806  2.7747 -0.2292 -0.0266
  788MOL0     H 6327   4.243   7.886   7.577 -2.3938 -0.7655 -1.0865
  788MOL0     H 6328   4.192   7.792   7.723  0.2469 -2.1806 -2.4889
  788MOL0     H 6329   4.191   7.642   7.534  0.7762 -2.4647  1.3880
  788MOL0     H 6330   4.362   7.686   7.503 -0.4943 -0.7373 -0.0895
  788MOL0     H 6331   4.161   7.560   7.824 -1.2644 -2.5620  1.6646
  788MOL0     H 6332   4.230   7.332   7.981 -3.9823  0.9429  0.8688
  788MOL0     H 6333   4.105   7.317   7.866  0.1317 -0.8802 -0.1197
  788MOL0     H 6334   4.344   7.126   7.864  0.0249  0.1233  0.3719
  788MOL0     H 6335   4.188   7.090   7.928  1.4320 -1.3486 -0.7547
  788MOL0     H 6336   4.211   7.158   7.630 -4.4469 -2.0444 -3.3908
  788MOL0     H 6337   4.075   7.104   7.715  0.3667  3.5937 -1.9194
  788MOL0     H 6338   4.333   6.948   7.708 -1.7568  1.1609  2.2760
  788MOL0     H 6339   4.225   6.949   7.572 -0.4302  1.2859 -0.2525
  788MOL0     H 6340   4.133   6.581   7.699  1.2527 -1.6533 -0.1125
  788MOL0     H 6341   4.177   6.426   7.868 -3.4728  1.7991 -0.3214
  788MOL0     H 6342   4.574   6.283   8.134 -0.5059  1.3503  1.4371
  788MOL0     H 6343   4.654   6.115   8.284  1.5441  2.2380  0.0311
  788MOL0     H 6344   4.513   6.116   8.725 -0.8329 -1.7968  1.3120
  788MOL0     H 6345   4.453   5.979   8.641  0.5999 -0.5928 -1.7023
  788MOL0     H 6346   4.668   5.847   8.660 -0.3446 -0.4973  0.7566
  788MOL0     H 6347   4.747   5.985   8.723 -0.8062  2.5139  0.6971
  788MOL0     H 6348   4.708   5.869   8.927 -0.9598 -1.3990 -1.0333
  788MOL0     H 6349   4.569   5.983   8.934 -0.2012  0.8820 -0.5437
  788MOL0     H 6350   4.575   5.706   8.822 -0.2076  1.5239 -2.2800
  788MOL0     H 6351   4.422   5.789   8.844 -1.3168  1.4190  2.6822
  788MOL0     H 6352   4.432   5.786   9.083 -0.5373  0.4849 -1.4615
  788MOL0     H 6353   4.601   5.736   9.083  0.4085 -1.0110 -0.5354
  788MOL0     H 6354   4.385   5.573   8.969  0.0068 -0.0876  0.8431
  788MOL0     H 6355   4.554   5.516   8.994 -0.4269 -0.9166 -0.7701
  788MOL0     H 6356   4.382   5.611   9.219  1.3169  0.0870  2.6044
  788MOL0     H 6357   4.531   5.512   9.237 -0.1315  1.0342  0.0356
  788MOL0     H 6358   4.268   5.399   9.126  0.0897 -1.3613  1.7967
  788MOL0     H 6359   4.419   5.314   9.128  0.0707 -1.3832  1.3708
  788MOL0     H 6360   4.423   6.271   8.607  0.0231 -0.4456  0.2775
  788MOL0     H 6361   4.334   6.445   8.446  1.7005  2.6168 -2.3041
  788MOL0     H 6362   4.364   6.722   8.122 -0.8860  0.7490  1.9162
  788MOL0     H 6363   4.283   6.885   7.982 -1.1176 -0.6926  0.6789
  788MOL0     H 6364   4.874   7.670   8.261  0.7978 -1.6985 -0.4312
  788MOL0     H 6365   4.929   7.514   8.421 -1.7745 -2.5790  0.0096
  788MOL0     H 6366   5.006   7.153   8.649  0.0553  0.9053  0.7908
  788MOL0     H 6367   5.086   7.014   8.824 -1.5261 -0.7344 -1.8212
  788MOL0     H 6368   5.238   7.033   9.018  0.8672 -3.3288 -3.4436
  788MOL0     H 6369   5.159   6.892   9.020  3.0360 -0.0665 -1.1691
  788MOL0     H 6370   5.324   6.903   9.197  1.4558  2.6256  3.4214
  788MOL0     H 6371   5.155   6.869   9.251  1.9994 -0.6909  0.6791
  788MOL0     H 6372   5.201   7.105   9.365 -0.7125  1.3829 -2.3204
  788MOL0     H 6373   5.311   7.146   9.238  3.2324  0.9945  3.7373
  788MOL0     H 6374   5.476   6.985   9.318  0.7289  1.4559  0.8091
  788MOL0     H 6375   5.441   7.125   9.414  0.3006 -0.0523 -0.0156
  788MOL0     H 6376   5.324   6.760   9.629  1.8798  0.5347  0.4523
  788MOL0     H 6377   4.856   7.237   9.110  1.6947  2.0005  0.2867
  788MOL0     H 6378   4.816   7.507   8.915  2.8763 -1.0844  0.4202
  788MOL0     H 6379   4.661   7.420   8.882  0.7465 -0.7725 -0.4252
  788MOL0     H 6380   4.729   7.414   9.047  0.7585 -0.3782  0.0040
  789MOL0     O 6381   9.885  10.360   6.055 -0.0452  0.0441  0.1228
  789MOL0     C 6382   9.983  10.345   6.129 -0.1350 -0.2237 -0.1900
  789MOL0     O 6383  10.100  10.278   6.105 -0.1310  0.5724  0.1738
  789MOL0     C 6384  10.160  10.280   5.991  0.2933  0.8523  0.1926
  789MOL0     C 6385  10.092  10.291   5.860  0.2703 -0.5567  0.9193
  789MOL0     C 6386  10.177  10.286   5.748  0.3974  0.7503  0.1784
  789MOL0     C 6387  10.308  10.272   5.756  0.8306  0.4820  0.3686
  789MOL0     O 6388  10.377  10.236   5.647  0.0707 -0.1373  0.2483
  789MOL0     C 6389  10.428  10.351   5.571 -0.3528  0.2674 -0.6243
  789MOL0     C 6390  10.547  10.429   5.633  0.2681  0.1882 -1.0110
  789MOL0     C 6391  10.586  10.555   5.563  0.0160  0.4742  0.1724
  789MOL0     C 6392  10.698  10.627   5.643  0.6265  1.1748 -0.0209
  789MOL0     C 6393  10.671  10.675   5.787  0.9555 -0.3900  0.1142
  789MOL0     C 6394  10.777  10.779   5.830  0.3078  0.4592  0.1061
  789MOL0     C 6395  10.727  10.873   5.936  0.1165  0.0661  0.1265
  789MOL0     C 6396  10.790  10.854   6.073  0.0722  0.8269 -0.4073
  789MOL0     N 6397  10.927  10.913   6.077  0.0350 -0.1505 -0.1054
  789MOL0     C 6398  11.048  10.843   6.064  0.5435 -0.6106  0.1643
  789MOL0     C 6399  11.144  10.936   6.093  0.7774  0.1149  0.2212
  789MOL0     C 6400  11.293  10.917   6.084 -1.0097 -0.2224  0.7257
  789MOL0     C 6401  11.355  10.821   6.184  0.4631  0.8054 -1.5936
  789MOL0     C 6402  11.285  10.822   6.326  0.1396 -0.3614  0.3322
  789MOL0     C 6403  11.310  10.951   6.412  0.4468 -0.1360 -0.0956
  789MOL0     O 6404  11.227  10.928   6.525 -0.8266  0.3165 -0.9345
  789MOL0     C 6405  11.094  10.962   6.536 -0.0454  0.9848  0.3416
  789MOL0     C 6406  11.028  11.069   6.472  0.4722 -0.7361  0.3595
  789MOL0     C 6407  10.889  11.084   6.474  0.1811 -0.2031 -0.6625
  789MOL0     C 6408  10.818  11.001   6.571  0.4041 -0.2833  0.2562
  789MOL0     C 6409  10.670  11.028   6.590  1.1651 -0.1945  0.3238
  789MOL0     O 6410  10.615  10.954   6.687  0.1779 -0.1051  0.1252
  789MOL0     C 6411  10.475  10.944   6.690  0.5761  0.3103 -0.3179
  789MOL0     C 6412  10.392  11.060   6.683 -0.0927  0.6254 -0.7672
  789MOL0     C 6413  10.256  11.034   6.701 -0.9772 -0.3339  0.5283
  789MOL0     C 6414  10.195  10.906   6.694 -0.0669  0.8488 -0.4565
  789MOL0     O 6415  10.055  10.883   6.697 -0.5111 -0.0805 -0.1188
  789MOL0     C 6416   9.965  10.998   6.683 -0.1886  0.0533 -1.1932
  789MOL0     C 6417   9.823  10.953   6.640  0.3329  0.4830  1.1505
  789MOL0     C 6418   9.833  10.843   6.534  0.1204  0.7542  0.1222
  789MOL0     C 6419   9.730  10.856   6.426 -0.2974  0.4038  1.2633
  789MOL0     C 6420   9.724  10.738   6.315 -0.6525 -1.4441 -1.1555
  789MOL0     C 6421   9.647  10.619   6.360  0.7072  1.0030  0.2162
  789MOL0     C 6422   9.492  10.635   6.375  1.0458  0.0016 -0.1695
  789MOL0     C 6423   9.423  10.519   6.458  0.2923 -0.0349 -0.7711
  789MOL0    Cl 6424   9.458  10.521   6.631  0.0612 -0.5471  0.1713
  789MOL0     C 6425  10.282  10.791   6.695 -1.1259 -0.5363  1.0919
  789MOL0     C 6426  10.420  10.814   6.703  0.0543 -0.2888  0.0777
  789MOL0     O 6427  10.616  11.098   6.508 -0.6715  0.7058  0.3116
  789MOL0     C 6428  10.877  10.893   6.636 -0.2676 -0.6337  0.3143
  789MOL0     C 6429  11.019  10.888   6.630  0.0594  0.9518 -0.2267
  789MOL0     N 6430  11.086  11.056   6.127  0.2313 -0.1601  0.2604
  789MOL0     N 6431  10.958  11.041   6.119  0.3668 -0.1591  0.4765
  789MOL0     C 6432  10.371  10.267   5.881 -1.0388  0.4583  0.1994
  789MOL0     C 6433  10.297  10.279   5.992 -0.0640  0.0294  0.3984
  789MOL0     C 6434   9.951  10.360   6.269 -0.6579 -0.5872 -0.4571
  789MOL0     C 6435   9.848  10.284   6.320  0.0062 -0.4461  0.4544
  789MOL0     C 6436   9.827  10.287   6.459  0.4789 -1.1397  0.5379
  789MOL0     C 6437   9.900  10.366   6.542  0.6704 -0.1847 -0.5572
  789MOL0     O 6438   9.858  10.341   6.675  0.1331 -0.4461  0.2625
  789MOL0     C 6439   9.911  10.431   6.784  1.1585 -0.0622  0.7160
  789MOL0     C 6440   9.788  10.466   6.867  0.2891  0.1631 -0.2608
  789MOL0     C 6441   9.768  10.616   6.874 -0.1331  0.1323  0.5942
  789MOL0     C 6442   9.656  10.650   6.976 -0.1073 -0.3117 -0.2499
  789MOL0     C 6443   9.604  10.791   6.953 -0.8488 -0.4382  1.0784
  789MOL0     C 6444   9.580  10.908   6.929  0.0789  0.2513 -0.1915
  789MOL0     C 6445  10.004  10.446   6.495  0.5567  0.2262 -0.2708
  789MOL0     C 6446  10.028  10.443   6.358 -0.5390 -0.2634 -1.2530
  789MOL0     C 6447  10.143  10.528   6.313 -0.3698 -0.1122 -0.0268
  789MOL0     H 6448   9.985  10.287   5.844  0.2354 -2.0545  1.4063
  789MOL0     H 6449  10.137  10.281   5.647 -2.5677 -0.6301  1.2970
  789MOL0     H 6450  10.481  10.298   5.490  1.2313  2.8299 -1.3979
  789MOL0     H 6451  10.348  10.415   5.534 -0.9238  1.1037  1.9094
  789MOL0     H 6452  10.632  10.360   5.634  1.7342  1.9391 -0.5011
  789MOL0     H 6453  10.515  10.453   5.735 -1.7789 -0.2142 -1.5036
  789MOL0     H 6454  10.498  10.618   5.546  0.0602 -0.1733 -2.9623
  789MOL0     H 6455  10.622  10.533   5.462  1.9585 -1.0524  1.1344
  789MOL0     H 6456  10.783  10.559   5.642  0.2918  0.7333 -2.2664
  789MOL0     H 6457  10.720  10.714   5.580  1.7427 -0.1391 -1.5345
  789MOL0     H 6458  10.579  10.735   5.788  2.2826  2.2269 -4.4928
  789MOL0     H 6459  10.670  10.585   5.849 -2.3936 -2.8845 -3.0876
  789MOL0     H 6460  10.846  10.716   5.887  1.2877  1.4013 -0.0110
  789MOL0     H 6461  10.835  10.830   5.753 -0.2158  1.3049  0.2658
  789MOL0     H 6462  10.618  10.880   5.942  0.2821  1.5302  2.6980
  789MOL0     H 6463  10.754  10.972   5.899 -2.2328  0.4610 -0.6958
  789MOL0     H 6464  10.720  10.907   6.138 -1.7211 -0.3677 -1.2807
  789MOL0     H 6465  10.794  10.752   6.113 -1.6449  0.7102 -0.4661
  789MOL0     H 6466  11.050  10.739   6.033  0.5975 -1.3991  2.6309
  789MOL0     H 6467  11.316  10.870   5.988  0.9971 -1.1998  1.6340
  789MOL0     H 6468  11.335  11.018   6.084  1.5124 -1.1643 -0.9928
  789MOL0     H 6469  11.335  10.718   6.153  0.0424  0.0752  0.9145
  789MOL0     H 6470  11.462  10.840   6.197  0.2942  0.4544  0.7891
  789MOL0     H 6471  11.335  10.743   6.382  1.1424  2.4403  3.6743
  789MOL0     H 6472  11.179  10.794   6.318  0.2862 -0.6099 -1.0400
  789MOL0     H 6473  11.280  11.036   6.349 -0.9560 -0.5604 -0.0287
  789MOL0     H 6474  11.417  10.962   6.433  0.8993 -2.8653 -0.6410
  789MOL0     H 6475  11.090  11.128   6.405 -0.7866  2.1424  1.5767
  789MOL0     H 6476  10.834  11.162   6.423 -2.3172 -0.6529  1.1642
  789MOL0     H 6477  10.425  11.163   6.679  0.1449  0.7724  2.2851
  789MOL0     H 6478  10.192  11.121   6.709  1.8954  1.9206  0.5022
  789MOL0     H 6479   9.962  11.032   6.787  0.8298 -1.5297 -0.6217
  789MOL0     H 6480  10.010  11.082   6.630  1.0779  2.3908  3.1022
  789MOL0     H 6481   9.773  10.906   6.726 -0.4728 -1.0939 -0.1249
  789MOL0     H 6482   9.767  11.042   6.611 -1.0899 -1.1440 -1.4360
  789MOL0     H 6483   9.929  10.820   6.487 -1.7090 -0.6446 -3.2593
  789MOL0     H 6484   9.800  10.758   6.594  2.2261  0.9003  1.6074
  789MOL0     H 6485   9.734  10.952   6.373  0.7944 -0.1169  0.3689
  789MOL0     H 6486   9.632  10.845   6.475 -2.1822 -0.5203 -2.3741
  789MOL0     H 6487   9.827  10.719   6.284 -1.1778 -0.9533 -3.3526
  789MOL0     H 6488   9.670  10.774   6.227 -0.5803  1.1352 -0.2222
  789MOL0     H 6489   9.654  10.525   6.305  0.2299 -0.3862  2.3804
  789MOL0     H 6490   9.678  10.589   6.461 -1.0370 -2.5428 -0.1357
  789MOL0     H 6491   9.453  10.629   6.273 -0.4322 -3.7351  0.4616
  789MOL0     H 6492   9.479  10.741   6.399  4.1160  1.2507 -3.0906
  789MOL0     H 6493   9.313  10.520   6.455  0.1571  1.7316  1.8795
  789MOL0     H 6494   9.462  10.428   6.413  1.0452 -0.2348  0.2654
  789MOL0     H 6495  10.246  10.690   6.678  3.6247 -2.2715 -0.3841
  789MOL0     H 6496  10.474  10.722   6.725 -1.3145 -1.1439  0.0588
  789MOL0     H 6497  10.828  10.826   6.704 -0.0270  0.2103  1.3532
  789MOL0     H 6498  11.072  10.804   6.673 -0.9279  1.3895  1.9524
  789MOL0     H 6499  10.476  10.239   5.875 -1.0950  0.3903 -0.5171
  789MOL0     H 6500  10.345  10.286   6.089  1.0570  0.3721 -0.1547
  789MOL0     H 6501   9.786  10.213   6.265 -0.6088 -0.9868  1.8013
  789MOL0     H 6502   9.740  10.228   6.488 -1.2239 -0.5256 -2.8527
  789MOL0     H 6503   9.961  10.520   6.745 -0.0835  0.5539  0.5009
  789MOL0     H 6504   9.984  10.379   6.847  1.4333  1.0251  1.3133
  789MOL0     H 6505   9.792  10.441   6.973 -2.4633 -1.4394 -0.4349
  789MOL0     H 6506   9.697  10.416   6.832  1.4101 -2.3283  0.1701
  789MOL0     H 6507   9.731  10.646   6.776 -0.6281  1.0624  1.0607
  789MOL0     H 6508   9.853  10.676   6.907 -2.1124  2.9190  0.9375
  789MOL0     H 6509   9.572  10.583   6.957 -1.0695  1.3605 -2.3045
  789MOL0     H 6510   9.690  10.633   7.078 -0.9419  0.3411  0.1533
  789MOL0     H 6511   9.552  11.007   6.900 -0.7247 -0.3333 -1.5367
  789MOL0     H 6512  10.049  10.519   6.561 -2.6046  1.7875  0.3584
  789MOL0     H 6513  10.216  10.549   6.392  0.6379 -1.6827 -0.4944
  789MOL0     H 6514  10.192  10.470   6.234 -1.4720  0.4462 -1.1620
  789MOL0     H 6515  10.110  10.619   6.262  2.8805  0.5167 -1.2521
  790MOL0     O 6516  11.091   9.379   3.987  0.0888  0.2782  0.4102
  790MOL0     C 6517  11.121   9.274   3.925  0.3005 -0.0381  0.5023
  790MOL0     O 6518  11.131   9.260   3.785 -0.0390 -0.1296 -0.4582
  790MOL0     C 6519  11.190   9.372   3.729  0.3485  1.9015  0.7443
  790MOL0     C 6520  11.114   9.486   3.698 -0.2327  0.7713 -0.7610
  790MOL0     C 6521  11.178   9.594   3.642  0.2659 -0.9811  0.7480
  790MOL0     C 6522  11.322   9.590   3.617  0.0690  0.7662 -0.3306
  790MOL0     O 6523  11.372   9.705   3.562 -0.0517 -0.0006  0.1379
  790MOL0     C 6524  11.508   9.733   3.595 -0.2684 -1.0075 -0.5885
  790MOL0     C 6525  11.537   9.886   3.567 -0.1761  0.8869 -0.4177
  790MOL0     C 6526  11.482   9.983   3.675 -0.8911 -0.9298 -0.1144
  790MOL0     C 6527  11.447  10.113   3.608 -0.1543  0.0213  0.9975
  790MOL0     C 6528  11.582  10.184   3.561  0.2386 -0.0102  0.2659
  790MOL0     C 6529  11.559  10.327   3.529  0.0100 -0.6614 -0.4370
  790MOL0     C 6530  11.541  10.419   3.658  0.5353 -0.0753 -0.4795
  790MOL0     C 6531  11.505  10.572   3.626 -0.7748 -0.0188 -1.1848
  790MOL0     N 6532  11.383  10.586   3.554  1.1796 -0.1601  0.0418
  790MOL0     C 6533  11.253  10.585   3.606  0.2440  0.1038 -0.6163
  790MOL0     C 6534  11.170  10.612   3.497  0.1598 -0.2519 -1.3304
  790MOL0     C 6535  11.022  10.632   3.525  0.2225 -0.0531 -0.4389
  790MOL0     C 6536  10.938  10.521   3.459  0.0747  0.7079  0.4405
  790MOL0     C 6537  10.789  10.561   3.475  0.2735 -0.3668 -0.1191
  790MOL0     C 6538  10.681  10.484   3.411  0.8557 -0.7682 -0.6902
  790MOL0     O 6539  10.674  10.348   3.449 -0.5007 -0.1609  0.1028
  790MOL0     C 6540  10.597  10.264   3.373  0.1765 -0.2404 -0.2374
  790MOL0     C 6541  10.533  10.284   3.248 -1.0871  1.1667 -0.9772
  790MOL0     C 6542  10.451  10.183   3.189  0.1371 -0.7034  0.7688
  790MOL0     C 6543  10.436  10.065   3.258  0.3607 -0.8794  1.0021
  790MOL0     C 6544  10.343   9.962   3.202 -0.0518 -0.0823 -0.1883
  790MOL0     O 6545  10.301   9.983   3.081  0.8583 -0.1640  0.0050
  790MOL0     C 6546  10.233   9.885   3.014  0.5272 -0.1641  0.5954
  790MOL0     C 6547  10.270   9.750   3.015  0.3740 -0.1992  0.1203
  790MOL0     C 6548  10.194   9.644   2.977 -0.2690  0.1864  0.5226
  790MOL0     C 6549  10.063   9.675   2.926 -0.6581 -0.3606 -0.2833
  790MOL0     O 6550   9.968   9.584   2.886 -0.2785  0.2040  0.1265
  790MOL0     C 6551   9.988   9.445   2.895 -0.3470 -1.1282 -0.3537
  790MOL0     C 6552   9.863   9.366   2.851 -0.1994  0.5303 -0.2181
  790MOL0     C 6553   9.840   9.332   2.695  0.7383  1.2786 -0.5145
  790MOL0     C 6554   9.748   9.203   2.674  0.1576  0.2475  0.2217
  790MOL0     C 6555   9.825   9.070   2.660 -0.4710  0.0944 -0.9976
  790MOL0     C 6556   9.924   9.038   2.773 -0.3792  0.4497 -0.3377
  790MOL0     C 6557   9.849   8.994   2.900  0.4788  1.0079  0.7235
  790MOL0     C 6558   9.912   9.010   3.033  0.0842  0.3231  0.6368
  790MOL0    Cl 6559  10.059   8.914   3.046  0.2072 -0.2229  0.1892
  790MOL0     C 6560  10.024   9.812   2.905 -0.4165  0.5704 -0.2792
  790MOL0     C 6561  10.113   9.910   2.956  1.0456  0.0737  0.2583
  790MOL0     O 6562  10.299   9.874   3.277  0.1352 -0.6733 -0.4441
  790MOL0     C 6563  10.501  10.048   3.378 -0.2126  0.9213  0.0444
  790MOL0     C 6564  10.580  10.143   3.436  0.0717  0.1640 -0.3806
  790MOL0     N 6565  11.253  10.610   3.382  0.6320  0.2236  0.3234
  790MOL0     N 6566  11.377  10.587   3.419 -0.5704  0.2289  0.3863
  790MOL0     C 6567  11.392   9.476   3.638 -0.8123 -0.6354 -0.9021
  790MOL0     C 6568  11.330   9.363   3.692 -1.0942 -0.3456  0.2123
  790MOL0     C 6569  11.107   9.147   4.019  0.6260 -0.1652  0.2511
  790MOL0     C 6570  11.012   9.141   4.131 -0.1617  0.9061  0.3693
  790MOL0     C 6571  11.014   9.029   4.214 -0.3494 -0.4303 -0.3782
  790MOL0     C 6572  11.107   8.926   4.189 -0.4766 -0.0787  0.5886
  790MOL0     O 6573  11.102   8.811   4.261  0.0630  0.0083 -0.0010
  790MOL0     C 6574  10.991   8.760   4.336 -0.8954 -0.7076 -0.7227
  790MOL0     C 6575  10.874   8.730   4.255  0.5822  0.5345  0.3607
  790MOL0     C 6576  10.786   8.618   4.318  0.7237  0.3085 -0.0914
  790MOL0     C 6577  10.838   8.486   4.265 -0.5289 -0.1898  0.1479
  790MOL0     C 6578  10.819   8.480   4.118 -0.1851  0.2346 -0.8810
  790MOL0     C 6579  10.794   8.473   4.000 -0.5799 -0.2015 -0.7685
  790MOL0     C 6580  11.205   8.934   4.093  0.1784  0.2741 -0.8127
  790MOL0     C 6581  11.201   9.043   4.005 -0.4910  0.5792  0.2501
  790MOL0     C 6582  11.308   9.035   3.899  0.2739 -0.1236  0.0816
  790MOL0     H 6583  11.007   9.497   3.715 -0.2980 -1.2576  0.4346
  790MOL0     H 6584  11.127   9.682   3.603  0.5578 -0.1072  2.2375
  790MOL0     H 6585  11.540   9.721   3.699 -2.1557  1.7539  0.4077
  790MOL0     H 6586  11.570   9.682   3.520  1.7086  2.6761 -1.6967
  790MOL0     H 6587  11.515   9.908   3.462  2.0726 -0.1236 -1.1848
  790MOL0     H 6588  11.644   9.909   3.565 -0.0863  0.5155  0.0107
  790MOL0     H 6589  11.561  10.000   3.748 -0.9424 -2.4313  0.3306
  790MOL0     H 6590  11.389   9.952   3.724 -0.4027 -0.6570  1.0145
  790MOL0     H 6591  11.374  10.109   3.527  0.9722 -0.7476 -0.0167
  790MOL0     H 6592  11.399  10.179   3.680  0.1599 -2.3879  3.5956
  790MOL0     H 6593  11.657  10.186   3.641 -3.9778  1.1201  4.6415
  790MOL0     H 6594  11.613  10.134   3.468  1.3325  0.6378  0.2604
  790MOL0     H 6595  11.643  10.366   3.470 -0.4624  3.5006  1.3675
  790MOL0     H 6596  11.471  10.349   3.468  0.2392  3.2850  0.4106
  790MOL0     H 6597  11.640  10.414   3.703  0.3588  1.3651  0.0944
  790MOL0     H 6598  11.476  10.372   3.733  0.7591  0.1612 -0.1344
  790MOL0     H 6599  11.505  10.625   3.721  2.5923 -3.3403  0.9431
  790MOL0     H 6600  11.586  10.606   3.561 -0.4754  0.7163 -0.4406
  790MOL0     H 6601  11.216  10.565   3.706 -0.9994 -1.5179 -1.3524
  790MOL0     H 6602  10.992  10.636   3.630 -0.5933 -0.6812 -0.6379
  790MOL0     H 6603  10.994  10.724   3.474 -3.4555 -0.7527  0.0962
  790MOL0     H 6604  10.963  10.520   3.352 -1.9403 -0.5147 -0.0792
  790MOL0     H 6605  10.964  10.429   3.512 -1.7074  1.7398  3.3270
  790MOL0     H 6606  10.777  10.659   3.427 -0.2279  0.3285  1.3799
  790MOL0     H 6607  10.781  10.589   3.580  2.2921  2.3986 -0.5684
  790MOL0     H 6608  10.691  10.495   3.302  1.0583  2.2574 -0.4352
  790MOL0     H 6609  10.590  10.537   3.440  1.3151  0.7069 -1.8465
  790MOL0     H 6610  10.550  10.378   3.196  1.0722  3.7669  3.7684
  790MOL0     H 6611  10.395  10.200   3.098 -0.5496  2.9650  1.7179
  790MOL0     H 6612  10.371   9.722   3.042  2.4402  2.4369 -4.0082
  790MOL0     H 6613  10.219   9.540   2.997  2.5029  0.7683  0.4728
  790MOL0     H 6614  10.072   9.427   2.828  3.5537  2.1327  3.0940
  790MOL0     H 6615  10.010   9.411   2.997  0.2890 -0.0810 -0.1318
  790MOL0     H 6616   9.878   9.274   2.908 -1.3723  1.7497  2.1754
  790MOL0     H 6617   9.765   9.405   2.880 -0.6581 -1.3793  1.0379
  790MOL0     H 6618   9.776   9.412   2.657  0.5046  1.8581  1.0251
  790MOL0     H 6619   9.929   9.297   2.641  1.8885 -4.5803  4.1019
  790MOL0     H 6620   9.696   9.209   2.578  1.9712 -2.3139 -1.0536
  790MOL0     H 6621   9.672   9.191   2.752  2.7744 -1.9697  2.6976
  790MOL0     H 6622   9.884   9.082   2.568  1.6875  0.9444  0.4261
  790MOL0     H 6623   9.752   8.989   2.650 -2.4821  1.4765  1.3372
  790MOL0     H 6624   9.992   8.962   2.733  1.4596  1.9780 -0.2280
  790MOL0     H 6625   9.990   9.122   2.795  3.2848 -1.2322 -3.6395
  790MOL0     H 6626   9.839   8.885   2.891  3.6517  0.6623  0.3241
  790MOL0     H 6627   9.753   9.045   2.908  1.0505  2.1157  0.6982
  790MOL0     H 6628   9.928   9.114   3.065  0.4775  0.3226  0.4460
  790MOL0     H 6629   9.844   8.967   3.107  1.0253 -3.1337 -0.3514
  790MOL0     H 6630   9.923   9.834   2.870 -0.4355  3.6600  1.3746
  790MOL0     H 6631  10.098  10.017   2.950  1.1072  0.1664  1.5762
  790MOL0     H 6632  10.493   9.952   3.428  1.1822  1.6379  1.7550
  790MOL0     H 6633  10.641  10.124   3.524  1.2760 -5.3306 -2.0410
  790MOL0     H 6634  11.500   9.475   3.625 -0.4025 -1.0488  1.9522
  790MOL0     H 6635  11.392   9.274   3.697  0.9312  0.7676 -2.3474
  790MOL0     H 6636  10.945   9.222   4.157 -0.5247  0.8910 -0.4711
  790MOL0     H 6637  10.934   9.015   4.286  0.3445 -0.5895  0.3646
  790MOL0     H 6638  10.963   8.840   4.404  4.1762 -0.5370  1.6053
  790MOL0     H 6639  11.022   8.672   4.393 -1.2319 -1.3400 -1.4851
  790MOL0     H 6640  10.901   8.710   4.151 -5.5218  0.9178 -1.7476
  790MOL0     H 6641  10.807   8.817   4.248 -0.6256 -0.3970  0.0123
  790MOL0     H 6642  10.679   8.636   4.302  0.5217 -0.5024  0.2909
  790MOL0     H 6643  10.800   8.624   4.426 -1.1009  1.3824  0.1301
  790MOL0     H 6644  10.943   8.480   4.294 -1.1588 -0.2295  2.7095
  790MOL0     H 6645  10.807   8.397   4.320 -0.5990 -0.4775 -0.3485
  790MOL0     H 6646  10.772   8.463   3.896  0.3395  0.0141 -0.9892
  790MOL0     H 6647  11.268   8.847   4.079 -1.6531 -1.0271 -1.3495
  790MOL0     H 6648  11.267   9.051   3.799 -0.2885  2.3050  0.6324
  790MOL0     H 6649  11.371   9.124   3.907 -0.2790  0.4279 -1.2518
  790MOL0     H 6650  11.364   8.942   3.901 -0.0587 -0.3801 -1.4070
  791MOL0     O 6651   6.995   6.444   4.916 -0.2671  0.3978  0.1445
  791MOL0     C 6652   6.885   6.469   4.960 -0.4628  0.1872 -0.8232
  791MOL0     O 6653   6.863   6.546   5.072  0.2329 -0.9172 -0.1422
  791MOL0     C 6654   6.973   6.617   5.133  0.1996 -0.0178 -1.0003
  791MOL0     C 6655   7.050   6.720   5.078 -0.0677  0.0675  0.3981
  791MOL0     C 6656   7.173   6.776   5.140  1.2275 -0.4814  0.8055
  791MOL0     C 6657   7.224   6.716   5.254  0.0572  0.5133  0.0754
  791MOL0     O 6658   7.339   6.768   5.312  0.2106 -0.1632  1.1877
  791MOL0     C 6659   7.416   6.691   5.406  0.1111 -0.4931 -0.6801
  791MOL0     C 6660   7.392   6.732   5.551 -0.4541  0.1281 -0.3635
  791MOL0     C 6661   7.476   6.645   5.647  0.2670  0.5123 -0.1557
  791MOL0     C 6662   7.396   6.536   5.720 -0.5843 -0.3585 -0.7876
  791MOL0     C 6663   7.480   6.494   5.849 -0.7528  0.5076  0.3945
  791MOL0     C 6664   7.428   6.367   5.921 -0.8574 -0.0005  0.1885
  791MOL0     C 6665   7.514   6.251   5.898  1.0296  0.2023  0.7731
  791MOL0     C 6666   7.510   6.188   5.749  1.2897  0.9258 -1.0516
  791MOL0     N 6667   7.552   6.047   5.749  0.0585  0.0713 -0.1591
  791MOL0     C 6668   7.647   6.006   5.834 -0.0639 -1.9066  0.0622
  791MOL0     C 6669   7.675   5.880   5.791 -0.4598 -0.6117 -0.8830
  791MOL0     C 6670   7.776   5.791   5.848 -0.3364 -0.2675 -0.7066
  791MOL0     C 6671   7.710   5.662   5.895  0.0567 -0.5311 -0.4253
  791MOL0     C 6672   7.830   5.571   5.949  0.5898 -1.1735  0.8115
  791MOL0     C 6673   7.780   5.430   5.965  0.8364  0.4737 -0.3755
  791MOL0     O 6674   7.872   5.368   6.060  0.2391 -0.1256  0.7226
  791MOL0     C 6675   7.996   5.320   6.019  0.4884 -0.2998 -0.3224
  791MOL0     C 6676   8.059   5.343   5.897  0.1126  0.4706  0.7392
  791MOL0     C 6677   8.193   5.299   5.876  0.5815 -0.4650 -0.5231
  791MOL0     C 6678   8.266   5.261   5.989 -0.8473  0.1255  0.2624
  791MOL0     C 6679   8.410   5.233   5.956  0.6912  0.3420  0.2390
  791MOL0     O 6680   8.475   5.318   5.865 -0.1222  0.0856 -0.1326
  791MOL0     C 6681   8.620   5.325   5.859  0.6473 -0.5244 -0.3167
  791MOL0     C 6682   8.695   5.336   5.971 -1.1142 -0.3066  0.0139
  791MOL0     C 6683   8.840   5.353   5.977  0.8665  0.0043  0.1705
  791MOL0     C 6684   8.913   5.346   5.862  1.1580 -0.3268 -0.5299
  791MOL0     O 6685   9.053   5.345   5.865 -0.1583  0.9515 -0.0664
  791MOL0     C 6686   9.111   5.285   5.982 -0.4460 -0.2525 -0.8564
  791MOL0     C 6687   9.240   5.220   5.949  0.2936 -0.4890  0.4962
  791MOL0     C 6688   9.344   5.266   6.057 -0.1395 -0.2243 -0.1038
  791MOL0     C 6689   9.468   5.170   6.060 -0.0338 -0.4914  0.0021
  791MOL0     C 6690   9.596   5.226   6.110  1.0979 -0.4773  0.0918
  791MOL0     C 6691   9.710   5.124   6.142 -0.7189 -0.4934  0.3321
  791MOL0     C 6692   9.765   5.029   6.033  0.6979 -0.4217 -0.6334
  791MOL0     C 6693   9.826   5.083   5.911 -0.5421  0.8918 -0.4303
  791MOL0    Cl 6694   9.957   5.189   5.943  0.2779  0.1996  0.5123
  791MOL0     C 6695   8.836   5.341   5.740 -0.3897 -0.8816 -0.7339
  791MOL0     C 6696   8.696   5.332   5.735  0.4143 -0.7535 -0.1492
  791MOL0     O 6697   8.467   5.156   6.031  0.7278 -0.5625 -0.0077
  791MOL0     C 6698   8.205   5.242   6.110 -0.0189 -0.2263 -0.1665
  791MOL0     C 6699   8.067   5.259   6.126 -1.1491 -0.1345  1.4279
  791MOL0     N 6700   7.578   5.849   5.691  0.2271  0.7862 -0.4928
  791MOL0     N 6701   7.511   5.954   5.662  0.0196  0.2374 -0.1859
  791MOL0     C 6702   7.138   6.629   5.318  0.6856  0.6938 -0.3133
  791MOL0     C 6703   7.013   6.582   5.264  0.2094 -1.1920 -0.2925
  791MOL0     C 6704   6.759   6.419   4.904 -0.1324 -0.2669  0.6825
  791MOL0     C 6705   6.640   6.494   4.907  0.7663 -0.2498 -0.0273
  791MOL0     C 6706   6.522   6.447   4.852 -0.4557  0.0469  0.8418
  791MOL0     C 6707   6.521   6.332   4.773  0.1463 -0.7043  0.2290
  791MOL0     O 6708   6.422   6.272   4.701 -0.3531  0.5033  0.2005
  791MOL0     C 6709   6.308   6.248   4.775  0.1495 -0.2674  0.2538
  791MOL0     C 6710   6.208   6.176   4.684  0.5249 -0.2446  0.2639
  791MOL0     C 6711   6.221   6.029   4.690  0.4710  0.6457 -0.5140
  791MOL0     C 6712   6.137   5.948   4.585 -0.5495 -1.2786 -0.1574
  791MOL0     C 6713   6.182   5.803   4.583  0.4000 -0.6918  0.0818
  791MOL0     C 6714   6.236   5.697   4.567 -0.3132 -0.8797 -0.3420
  791MOL0     C 6715   6.639   6.259   4.773  0.3879  0.9632 -0.1684
  791MOL0     C 6716   6.754   6.299   4.835 -0.3267  0.4520 -0.1134
  791MOL0     C 6717   6.865   6.204   4.815 -0.1486 -0.6779  0.6885
  791MOL0     H 6718   7.030   6.757   4.978 -0.8516  0.6345  0.7519
  791MOL0     H 6719   7.235   6.849   5.087  0.7632  0.1761  1.1646
  791MOL0     H 6720   7.389   6.585   5.411 -3.1213  0.2256  3.9659
  791MOL0     H 6721   7.523   6.693   5.386  0.3786 -0.5735  0.6535
  791MOL0     H 6722   7.284   6.741   5.564 -0.4156  1.1712 -0.6665
  791MOL0     H 6723   7.428   6.835   5.559  0.8366 -0.4404  2.0668
  791MOL0     H 6724   7.525   6.714   5.716  1.0340  0.0691 -0.2458
  791MOL0     H 6725   7.563   6.608   5.593  0.0003 -1.7857  0.8440
  791MOL0     H 6726   7.304   6.573   5.766  1.4382  2.0907  1.6465
  791MOL0     H 6727   7.388   6.448   5.656 -0.8134 -2.1960  1.6425
  791MOL0     H 6728   7.584   6.474   5.819 -0.6917  0.4017  0.6733
  791MOL0     H 6729   7.480   6.573   5.924  0.4966 -0.7805  1.8173
  791MOL0     H 6730   7.429   6.394   6.027 -0.5410  0.1348  0.1535
  791MOL0     H 6731   7.328   6.351   5.878 -0.8794 -0.0758  0.2680
  791MOL0     H 6732   7.473   6.167   5.955 -0.9642  0.7871  0.2776
  791MOL0     H 6733   7.616   6.271   5.932  0.8857  0.8932  0.8096
  791MOL0     H 6734   7.405   6.186   5.721  0.9987 -1.0238  0.0103
  791MOL0     H 6735   7.566   6.253   5.681  0.2127  0.1124 -2.7670
  791MOL0     H 6736   7.700   6.063   5.910  0.1607 -0.4208 -1.1371
  791MOL0     H 6737   7.841   5.766   5.763  0.0119 -0.7675 -0.2989
  791MOL0     H 6738   7.840   5.840   5.922 -1.4145  2.8678 -1.7091
  791MOL0     H 6739   7.640   5.666   5.978  0.4640 -0.4776 -0.0789
  791MOL0     H 6740   7.666   5.608   5.811  0.0888 -1.3468  0.0714
  791MOL0     H 6741   7.864   5.620   6.040  0.1736  1.3443 -0.3007
  791MOL0     H 6742   7.916   5.576   5.882 -0.6953  2.0727 -0.8064
  791MOL0     H 6743   7.772   5.395   5.861 -0.5952 -2.4365  0.5816
  791MOL0     H 6744   7.681   5.426   6.012  1.9652  2.1728  2.3350
  791MOL0     H 6745   8.019   5.389   5.808  4.3055 -2.0607 -2.8999
  791MOL0     H 6746   8.232   5.313   5.776 -1.8818  0.4953 -1.4232
  791MOL0     H 6747   8.648   5.345   6.068 -1.4009 -2.5761  0.1429
  791MOL0     H 6748   8.881   5.376   6.075  0.4354 -0.7721  0.5406
  791MOL0     H 6749   9.115   5.357   6.064 -2.5686 -4.0150  2.9528
  791MOL0     H 6750   9.042   5.210   6.022 -0.3487  0.4053  0.6011
  791MOL0     H 6751   9.232   5.111   5.946 -0.6834 -0.4253  0.0936
  791MOL0     H 6752   9.268   5.254   5.849 -1.3444  3.4876  1.1847
  791MOL0     H 6753   9.391   5.361   6.031  0.1407 -0.9876 -2.6604
  791MOL0     H 6754   9.294   5.269   6.154  2.0229 -2.2136  1.1529
  791MOL0     H 6755   9.489   5.133   5.960  1.5914 -3.6743  1.3880
  791MOL0     H 6756   9.438   5.084   6.122 -3.2399  0.8906  0.5742
  791MOL0     H 6757   9.571   5.303   6.184 -1.0021 -1.3355  0.3444
  791MOL0     H 6758   9.628   5.289   6.026  1.1236 -2.3869 -1.4103
  791MOL0     H 6759   9.792   5.178   6.191 -1.6473  2.8105 -1.4986
  791MOL0     H 6760   9.671   5.057   6.220  0.9410 -1.7686  0.1321
  791MOL0     H 6761   9.696   4.950   5.999  0.3516 -0.1197 -0.6413
  791MOL0     H 6762   9.842   4.966   6.078  0.6434  0.2969  0.4992
  791MOL0     H 6763   9.858   4.992   5.859  3.1842  1.1995  1.0228
  791MOL0     H 6764   9.755   5.134   5.844 -0.9867  0.6325 -0.1613
  791MOL0     H 6765   8.887   5.343   5.644 -2.4452 -1.9864 -1.9079
  791MOL0     H 6766   8.641   5.324   5.642  1.9237 -0.2278 -1.1245
  791MOL0     H 6767   8.258   5.200   6.195 -1.1988  1.7502  1.6372
  791MOL0     H 6768   8.018   5.223   6.216  0.5199 -1.1762  1.9631
  791MOL0     H 6769   7.149   6.587   5.418 -0.3317  1.0460 -0.0355
  791MOL0     H 6770   6.949   6.513   5.317 -1.6706  2.1343  2.1899
  791MOL0     H 6771   6.636   6.590   4.958 -4.2128 -0.3263  0.2079
  791MOL0     H 6772   6.426   6.494   4.869 -1.4658 -1.3622 -0.6913
  791MOL0     H 6773   6.266   6.346   4.796  1.7447 -0.0249  2.6892
  791MOL0     H 6774   6.337   6.193   4.865  0.6939  0.1830  0.3624
  791MOL0     H 6775   6.225   6.208   4.581 -5.6296 -2.9474 -2.0867
  791MOL0     H 6776   6.105   6.198   4.713  0.9589  0.7296  1.1753
  791MOL0     H 6777   6.206   5.986   4.790  2.7319 -1.1223 -0.8601
  791MOL0     H 6778   6.325   6.010   4.664  0.4325 -2.8234  1.2085
  791MOL0     H 6779   6.030   5.947   4.610 -0.8822 -1.2849 -1.5356
  791MOL0     H 6780   6.148   5.993   4.486 -0.4602 -0.7466  0.0903
  791MOL0     H 6781   6.285   5.603   4.548 -0.5742 -1.4668  1.6235
  791MOL0     H 6782   6.633   6.162   4.724 -2.6417  0.7422  0.4370
  791MOL0     H 6783   6.842   6.098   4.830  0.7832 -0.7809  1.4912
  791MOL0     H 6784   6.913   6.216   4.717 -4.0023 -0.8988 -1.4022
  791MOL0     H 6785   6.953   6.221   4.878  1.6720 -1.2799 -1.5220
  792MOL0     O 6786   2.476   5.636   3.213 -0.2330 -0.5020 -0.0503
  792MOL0     C 6787   2.523   5.652   3.098  1.1158 -0.0370 -0.3845
  792MOL0     O 6788   2.629   5.733   3.068 -0.3963 -0.0464 -0.3021
  792MOL0     C 6789   2.707   5.776   3.175  0.5660  0.1450 -0.0222
  792MOL0     C 6790   2.661   5.889   3.237 -0.4524  0.2264 -0.8563
  792MOL0     C 6791   2.726   5.941   3.355 -1.1968  0.4741  0.6701
  792MOL0     C 6792   2.848   5.888   3.389  0.1206  0.3393  0.0701
  792MOL0     O 6793   2.926   5.958   3.489  0.3895  0.3569  0.0621
  792MOL0     C 6794   2.963   5.887   3.606  0.4059  0.7545 -0.5741
  792MOL0     C 6795   2.844   5.892   3.705 -0.4946  0.5363  0.0100
  792MOL0     C 6796   2.861   5.781   3.811  0.0836  0.4662 -0.6545
  792MOL0     C 6797   2.788   5.646   3.765 -0.2703 -0.1849  0.1365
  792MOL0     C 6798   2.821   5.576   3.643  0.3385 -1.0231  1.1184
  792MOL0     C 6799   2.746   5.442   3.612 -0.0883  0.1987  0.6175
  792MOL0     C 6800   2.813   5.333   3.692 -0.5087  0.6230  0.7323
  792MOL0     C 6801   2.744   5.197   3.704  0.1270  0.2687 -0.4151
  792MOL0     N 6802   2.722   5.142   3.575 -0.1464  0.0330  0.2941
  792MOL0     C 6803   2.827   5.123   3.472  0.3344 -0.8118 -0.7920
  792MOL0     C 6804   2.774   5.040   3.385 -0.1679 -0.2577 -0.6977
  792MOL0     C 6805   2.844   4.970   3.272 -0.5084  0.4559  0.5627
  792MOL0     C 6806   2.834   5.047   3.132  0.0523  0.7906 -0.0080
  792MOL0     C 6807   2.891   5.188   3.151 -0.0580 -0.7792 -0.2191
  792MOL0     C 6808   3.048   5.210   3.180  0.7101  0.2336 -0.2766
  792MOL0     O 6809   3.116   5.152   3.069  0.3066 -0.3450 -0.3923
  792MOL0     C 6810   3.248   5.195   3.052  0.1047  0.0640 -1.0865
  792MOL0     C 6811   3.279   5.249   2.926 -0.0776  0.8159 -0.2240
  792MOL0     C 6812   3.401   5.313   2.898  0.4211 -0.1071  0.0935
  792MOL0     C 6813   3.498   5.328   2.992 -0.3439  0.9836 -0.0912
  792MOL0     C 6814   3.640   5.389   2.965  0.1314  0.7748 -0.0526
  792MOL0     O 6815   3.662   5.430   2.837  0.5462  0.0339 -0.0520
  792MOL0     C 6816   3.791   5.456   2.798  0.5051  0.7989 -0.1584
  792MOL0     C 6817   3.849   5.577   2.835  0.6620  0.6253  0.3690
  792MOL0     C 6818   3.975   5.625   2.784  0.5017  0.5712 -0.6343
  792MOL0     C 6819   4.042   5.537   2.699 -0.6546 -0.3590 -0.5018
  792MOL0     O 6820   4.153   5.559   2.628  0.2004 -0.8761  0.8047
  792MOL0     C 6821   4.237   5.667   2.671  0.6959 -0.1676  0.3204
  792MOL0     C 6822   4.330   5.689   2.563 -0.4499 -1.2106  0.0309
  792MOL0     C 6823   4.446   5.598   2.587  0.1144  1.0569 -0.6260
  792MOL0     C 6824   4.551   5.593   2.474 -1.0113  0.8202 -0.4287
  792MOL0     C 6825   4.682   5.523   2.525  0.1817 -0.1031 -0.3144
  792MOL0     C 6826   4.664   5.377   2.501 -0.1257  0.0894  0.8329
  792MOL0     C 6827   4.783   5.305   2.560 -0.2842 -0.1755 -0.6465
  792MOL0     C 6828   4.759   5.158   2.554 -0.2846  0.1993  0.5828
  792MOL0    Cl 6829   4.897   5.067   2.618 -0.2089  0.4494  0.0151
  792MOL0     C 6830   3.984   5.415   2.669 -0.1766  0.2259  0.1080
  792MOL0     C 6831   3.859   5.372   2.712 -0.6116  0.4567 -0.7105
  792MOL0     O 6832   3.715   5.394   3.064  0.4987  0.2199  0.7087
  792MOL0     C 6833   3.465   5.277   3.123  0.8966  0.5366 -0.5612
  792MOL0     C 6834   3.346   5.203   3.156  0.3043  0.0870  0.4457
  792MOL0     N 6835   2.646   5.006   3.424 -0.6666 -0.3067  0.9777
  792MOL0     N 6836   2.611   5.066   3.527  0.7371 -0.7196  0.6428
  792MOL0     C 6837   2.897   5.772   3.317 -1.6471  0.8383 -0.2379
  792MOL0     C 6838   2.830   5.722   3.208 -0.1327  0.0198  0.4577
  792MOL0     C 6839   2.452   5.568   2.996  0.2286  0.0880  0.8110
  792MOL0     C 6840   2.530   5.461   2.940  0.0900  0.7479  0.2001
  792MOL0     C 6841   2.464   5.368   2.859 -0.1948  0.5083  0.5242
  792MOL0     C 6842   2.326   5.382   2.834 -0.1292  0.0955  0.2676
  792MOL0     O 6843   2.270   5.274   2.774 -0.0906 -0.4610  0.5850
  792MOL0     C 6844   2.129   5.290   2.745  0.5596  0.2193  1.1340
  792MOL0     C 6845   2.065   5.148   2.705  0.0690 -0.6149 -0.9298
  792MOL0     C 6846   2.059   5.053   2.820 -0.4604 -0.3274  0.2844
  792MOL0     C 6847   2.019   4.906   2.776 -0.9494 -0.1064 -0.2739
  792MOL0     C 6848   1.976   4.823   2.890 -0.2223 -0.1152 -0.3141
  792MOL0     C 6849   1.915   4.766   2.973 -0.7457 -0.7804 -0.6151
  792MOL0     C 6850   2.257   5.503   2.865 -0.3351 -0.1595  0.1761
  792MOL0     C 6851   2.316   5.588   2.960  0.0077  0.7210  1.1379
  792MOL0     C 6852   2.239   5.717   2.987 -0.3334  0.7775 -0.1648
  792MOL0     H 6853   2.569   5.946   3.233  0.6228  2.0821 -0.0252
  792MOL0     H 6854   2.670   6.001   3.426 -3.8201 -0.7076 -0.2487
  792MOL0     H 6855   2.995   5.784   3.585  1.6115  1.0978 -0.5418
  792MOL0     H 6856   3.056   5.937   3.636 -0.0607  1.6788 -0.6269
  792MOL0     H 6857   2.750   5.902   3.651 -1.3327  0.8202  1.4516
  792MOL0     H 6858   2.863   5.989   3.752  2.0239  0.5977 -1.0022
  792MOL0     H 6859   2.819   5.812   3.907  0.5857  1.5181 -0.7676
  792MOL0     H 6860   2.967   5.757   3.818  0.4797  1.9643 -1.2167
  792MOL0     H 6861   2.797   5.573   3.846  0.2968 -3.5346 -2.7445
  792MOL0     H 6862   2.681   5.669   3.760 -0.3490 -0.3372  0.8779
  792MOL0     H 6863   2.797   5.656   3.572 -0.2485 -0.3421  2.0663
  792MOL0     H 6864   2.928   5.560   3.631  0.9374  1.6160  2.1430
  792MOL0     H 6865   2.640   5.468   3.614 -0.0215  0.4383  2.0693
  792MOL0     H 6866   2.765   5.413   3.509 -1.6858 -1.4132  0.7335
  792MOL0     H 6867   2.822   5.369   3.795 -1.2408 -2.5860  2.0245
  792MOL0     H 6868   2.910   5.309   3.649 -0.7756  0.3944  0.2494
  792MOL0     H 6869   2.802   5.117   3.751 -0.5154 -0.1678 -0.3538
  792MOL0     H 6870   2.653   5.204   3.764 -0.0586 -1.5501 -0.4286
  792MOL0     H 6871   2.929   5.156   3.486  0.2423 -0.3943 -1.1104
  792MOL0     H 6872   2.951   4.962   3.293 -0.1394  5.5668  2.0230
  792MOL0     H 6873   2.807   4.870   3.250 -1.0222  0.4362  1.4902
  792MOL0     H 6874   2.879   4.989   3.051 -1.9414  0.1051 -0.6800
  792MOL0     H 6875   2.730   5.062   3.102  0.5024  0.4894 -1.8434
  792MOL0     H 6876   2.838   5.236   3.233  0.2106  0.5703 -0.8007
  792MOL0     H 6877   2.883   5.236   3.053  2.2296  0.0193 -0.0852
  792MOL0     H 6878   3.080   5.173   3.278 -2.7909  1.2119  1.4100
  792MOL0     H 6879   3.074   5.315   3.169 -0.3268  0.7380  1.6020
  792MOL0     H 6880   3.193   5.229   2.863  0.8639  2.4246 -2.1026
  792MOL0     H 6881   3.413   5.360   2.802 -2.7195  0.7380 -0.0092
  792MOL0     H 6882   3.785   5.628   2.905 -2.4559  1.3418 -2.7369
  792MOL0     H 6883   4.022   5.720   2.808 -1.3797  1.0548  1.5334
  792MOL0     H 6884   4.171   5.754   2.680 -0.7489 -1.2907  1.0914
  792MOL0     H 6885   4.285   5.652   2.768  1.3370  0.9920  0.1998
  792MOL0     H 6886   4.269   5.669   2.474 -0.8657  0.3664 -0.0713
  792MOL0     H 6887   4.348   5.797   2.566  1.6695 -1.5078 -0.8865
  792MOL0     H 6888   4.495   5.623   2.682  0.3729 -2.5993  0.3503
  792MOL0     H 6889   4.412   5.495   2.577  1.2862  0.6889 -1.0475
  792MOL0     H 6890   4.567   5.699   2.455 -1.4048  0.9157 -0.2300
  792MOL0     H 6891   4.510   5.535   2.391 -2.4686 -0.8838  1.3819
  792MOL0     H 6892   4.698   5.552   2.629  0.6712  0.8546 -0.6495
  792MOL0     H 6893   4.762   5.566   2.464 -0.0654 -1.3727 -1.5841
  792MOL0     H 6894   4.579   5.346   2.563  1.4547 -0.9187  2.6236
  792MOL0     H 6895   4.651   5.359   2.394  0.7739  1.0055  0.5606
  792MOL0     H 6896   4.799   5.325   2.666 -3.2663  0.9677 -0.3229
  792MOL0     H 6897   4.868   5.346   2.505 -0.4086  0.1008 -0.6359
  792MOL0     H 6898   4.672   5.134   2.616  1.1592  1.6932  3.3912
  792MOL0     H 6899   4.758   5.119   2.452 -0.0086 -2.5117  1.5215
  792MOL0     H 6900   4.035   5.349   2.599 -0.6364 -0.7209  0.6470
  792MOL0     H 6901   3.819   5.280   2.670 -2.1654 -0.1500  1.8941
  792MOL0     H 6902   3.536   5.285   3.204 -1.9652  1.9551  1.9806
  792MOL0     H 6903   3.328   5.159   3.254  0.7041  0.4475  0.6823
  792MOL0     H 6904   2.997   5.734   3.334 -1.3761  1.2115 -0.9636
  792MOL0     H 6905   2.872   5.660   3.130  1.1877  1.5318 -0.0775
  792MOL0     H 6906   2.631   5.443   2.975  1.0228 -0.3082 -2.6855
  792MOL0     H 6907   2.515   5.281   2.820 -1.0380  0.8482 -1.4654
  792MOL0     H 6908   2.129   5.365   2.665 -3.1584 -0.4380  0.3371
  792MOL0     H 6909   2.063   5.330   2.823 -2.7952 -3.1943  0.3402
  792MOL0     H 6910   2.106   5.103   2.614 -2.1913 -2.7285 -1.0110
  792MOL0     H 6911   1.965   5.178   2.673  0.3937  1.2353 -0.3420
  792MOL0     H 6912   1.982   5.080   2.892 -2.3157 -0.4860 -1.5591
  792MOL0     H 6913   2.162   5.053   2.858 -1.4029 -2.5797  3.2346
  792MOL0     H 6914   1.940   4.897   2.701 -0.7164 -3.3070 -0.2685
  792MOL0     H 6915   2.096   4.843   2.732  0.5675  0.5596  1.3341
  792MOL0     H 6916   1.854   4.698   3.030 -2.6934  0.2632 -1.3444
  792MOL0     H 6917   2.152   5.510   2.838 -0.0237 -1.7380 -1.6428
  792MOL0     H 6918   2.164   5.744   2.912 -0.4545  0.3777 -0.1885
  792MOL0     H 6919   2.196   5.703   3.087 -1.7862  2.1240 -0.5496
  792MOL0     H 6920   2.305   5.803   2.996 -0.7041  1.3880 -2.6103
  793MOL0     O 6921  11.279  10.721   9.817 -0.8843  0.3314 -0.2062
  793MOL0     C 6922  11.187  10.764   9.749  0.4791  0.7995 -0.1592
  793MOL0     O 6923  11.135  10.705   9.633  1.5250 -0.3725 -0.4781
  793MOL0     C 6924  11.156  10.573   9.605  0.1898  0.2173 -0.3435
  793MOL0     C 6925  11.280  10.524   9.557 -1.5556  0.0919 -0.9805
  793MOL0     C 6926  11.300  10.389   9.518 -0.0557 -0.1884  0.2331
  793MOL0     C 6927  11.201  10.297   9.529  1.2199  0.0710  0.1099
  793MOL0     O 6928  11.223  10.171   9.473  0.0089  0.0338 -0.2440
  793MOL0     C 6929  11.129  10.069   9.481  0.0529  0.5457  0.5555
  793MOL0     C 6930  11.193   9.935   9.487 -0.2678 -0.6723 -0.1781
  793MOL0     C 6931  11.093   9.819   9.504 -0.1860  0.5092  0.0549
  793MOL0     C 6932  11.144   9.688   9.426  0.1604  0.1059  0.6393
  793MOL0     C 6933  11.039   9.585   9.443 -0.7041 -0.4585 -0.4728
  793MOL0     C 6934  11.091   9.447   9.386 -0.1975 -0.1190  0.4177
  793MOL0     C 6935  11.168   9.353   9.483 -0.0559  0.3181 -0.9532
  793MOL0     C 6936  11.196   9.214   9.434  0.7841  0.2906  0.7518
  793MOL0     N 6937  11.075   9.132   9.416 -0.0785  0.0823 -0.4761
  793MOL0     C 6938  10.992   9.094   9.521 -0.0005  0.3170 -0.1540
  793MOL0     C 6939  10.888   9.033   9.453 -1.0488  0.8229 -0.6372
  793MOL0     C 6940  10.762   8.982   9.518  0.9125 -0.2444 -1.2452
  793MOL0     C 6941  10.667   9.100   9.569 -0.6610  0.3746  0.4180
  793MOL0     C 6942  10.666   9.236   9.487  0.3139  0.6051 -0.6639
  793MOL0     C 6943  10.545   9.252   9.398 -0.0157 -0.6666  0.4703
  793MOL0     O 6944  10.535   9.393   9.375 -0.1543 -0.5919  0.1811
  793MOL0     C 6945  10.416   9.422   9.308  0.8815 -0.5677  0.5332
  793MOL0     C 6946  10.388   9.560   9.308  1.1692 -0.0944 -0.9752
  793MOL0     C 6947  10.277   9.619   9.245  0.6006  0.8267  0.6620
  793MOL0     C 6948  10.202   9.538   9.160  0.2254 -0.2089  0.3097
  793MOL0     C 6949  10.096   9.600   9.072 -0.6709  0.7555 -0.9513
  793MOL0     O 6950  10.083   9.555   8.943  0.8516 -0.0941 -0.3794
  793MOL0     C 6951   9.982   9.618   8.866 -0.5849  0.5068  0.7549
  793MOL0     C 6952   9.850   9.654   8.907 -0.3764  0.1766  0.0987
  793MOL0     C 6953   9.754   9.711   8.821  0.3427 -0.2935 -0.3174
  793MOL0     C 6954   9.781   9.709   8.688 -0.9242 -0.5060  0.6247
  793MOL0     O 6955   9.689   9.773   8.597  0.6863  0.3831 -0.7966
  793MOL0     C 6956   9.713   9.767   8.460  0.2088  0.0268 -0.8413
  793MOL0     C 6957   9.577   9.815   8.388  0.5570 -0.5039 -0.1668
  793MOL0     C 6958   9.583   9.818   8.237  0.6949 -0.7629  0.3002
  793MOL0     C 6959   9.454   9.840   8.164  1.1561 -0.0730  0.1578
  793MOL0     C 6960   9.441   9.865   8.011  0.3755 -0.1021  0.5704
  793MOL0     C 6961   9.498  10.000   7.961  0.6918  0.7402  0.0445
  793MOL0     C 6962   9.512   9.999   7.814 -0.5260 -0.6303 -0.4672
  793MOL0     C 6963   9.390  10.019   7.738 -0.6731 -0.6952 -0.1627
  793MOL0    Cl 6964   9.434  10.054   7.572 -0.0288  0.2635 -0.2204
  793MOL0     C 6965   9.901   9.655   8.641 -0.1732  0.1428  1.1551
  793MOL0     C 6966  10.000   9.612   8.732 -0.4313 -0.4142 -0.2569
  793MOL0     O 6967  10.029   9.687   9.131 -0.5431 -0.6390  0.3783
  793MOL0     C 6968  10.236   9.402   9.149 -1.1690 -0.0770 -0.9796
  793MOL0     C 6969  10.333   9.337   9.223 -0.2562 -1.0099 -0.0640
  793MOL0     N 6970  10.909   9.037   9.318 -0.2468 -0.1031 -0.2430
  793MOL0     N 6971  11.028   9.097   9.292 -0.8816  1.0845  0.3749
  793MOL0     C 6972  11.071  10.342   9.577  0.4684 -0.1139 -0.8577
  793MOL0     C 6973  11.055  10.481   9.617  0.4669 -1.2606 -0.6458
  793MOL0     C 6974  11.116  10.874   9.795  0.5839 -0.4413  0.7081
  793MOL0     C 6975  11.070  10.866   9.923 -0.0830  0.0003 -0.4231
  793MOL0     C 6976  10.986  10.965   9.988  1.0383  0.1988  0.0496
  793MOL0     C 6977  10.952  11.085   9.921 -0.5125 -1.6195 -0.4982
  793MOL0     O 6978  10.865  11.175   9.981 -0.0219  0.0786 -0.4355
  793MOL0     C 6979  10.845  11.312   9.932 -0.1709  0.3199 -0.8219
  793MOL0     C 6980  10.759  11.332   9.809 -0.1002  0.2885 -0.2138
  793MOL0     C 6981  10.612  11.288   9.846  0.0998  0.8655  0.7300
  793MOL0     C 6982  10.534  11.244   9.712  0.5281 -0.1299  0.0729
  793MOL0     C 6983  10.525  11.098   9.693 -0.6271 -0.1201 -0.4619
  793MOL0     C 6984  10.524  10.982   9.675 -0.4710 -0.4563 -0.2903
  793MOL0     C 6985  10.996  11.087   9.786 -1.0320 -0.3945 -1.5872
  793MOL0     C 6986  11.069  10.990   9.725  0.0828  0.1372  0.3668
  793MOL0     C 6987  11.115  11.013   9.580  0.7093  0.1220  0.6238
  793MOL0     H 6988  11.358  10.599   9.545 -1.5181  0.5965  1.9032
  793MOL0     H 6989  11.397  10.359   9.481  0.4043 -3.2821  3.4016
  793MOL0     H 6990  11.061  10.080   9.566 -0.6871 -0.2752  0.0940
  793MOL0     H 6991  11.064  10.070   9.393 -0.2239 -1.1722  0.7005
  793MOL0     H 6992  11.259   9.939   9.574 -1.9765  1.4311  1.1507
  793MOL0     H 6993  11.265   9.918   9.407 -0.7078  0.9057 -0.9465
  793MOL0     H 6994  10.991   9.850   9.481 -0.0135  3.5025  2.6076
  793MOL0     H 6995  11.105   9.782   9.606  3.5519 -0.7785 -0.6705
  793MOL0     H 6996  11.152   9.714   9.320  1.6325 -1.1692  0.3878
  793MOL0     H 6997  11.244   9.660   9.463 -0.3580 -2.1403  0.5039
  793MOL0     H 6998  11.010   9.572   9.547  0.4100 -2.2690 -0.3458
  793MOL0     H 6999  10.947   9.607   9.388 -1.4606 -4.3241 -1.0432
  793MOL0     H 7000  11.003   9.389   9.356 -1.0759  1.7970 -0.9295
  793MOL0     H 7001  11.145   9.452   9.291  0.8391 -2.5749  0.8209
  793MOL0     H 7002  11.112   9.357   9.577 -0.9866  1.0179 -1.5196
  793MOL0     H 7003  11.268   9.395   9.497  0.6684 -1.9374  1.6971
  793MOL0     H 7004  11.255   9.205   9.342 -0.1910  2.3202 -0.1297
  793MOL0     H 7005  11.241   9.161   9.519  2.1737  0.2786  0.0477
  793MOL0     H 7006  11.002   9.104   9.629 -0.5819 -1.9294  0.1605
  793MOL0     H 7007  10.704   8.930   9.441 -1.2450 -0.7009  0.6118
  793MOL0     H 7008  10.788   8.923   9.606  1.4950  0.6462 -0.7959
  793MOL0     H 7009  10.564   9.064   9.575 -0.1360 -1.4654 -0.6974
  793MOL0     H 7010  10.711   9.123   9.666  0.5361  3.6340 -0.7363
  793MOL0     H 7011  10.761   9.270   9.445 -0.7973  0.8362 -3.1699
  793MOL0     H 7012  10.638   9.309   9.564 -2.3390 -1.8811  0.9492
  793MOL0     H 7013  10.450   9.206   9.424  1.5412 -4.1247  0.5487
  793MOL0     H 7014  10.565   9.210   9.299 -0.8396  0.4008 -0.1712
  793MOL0     H 7015  10.457   9.619   9.367 -1.0443 -0.0351  1.7673
  793MOL0     H 7016  10.277   9.728   9.251  0.1754  0.8238  0.7616
  793MOL0     H 7017   9.825   9.653   9.013 -0.8861  0.1668 -0.0198
  793MOL0     H 7018   9.667   9.751   8.871  1.3220 -0.4848  1.6543
  793MOL0     H 7019   9.789   9.838   8.426 -1.7760  2.7952  0.1091
  793MOL0     H 7020   9.745   9.670   8.420 -0.4577  0.4605 -2.5358
  793MOL0     H 7021   9.502   9.739   8.415  1.0271 -0.9643 -0.1442
  793MOL0     H 7022   9.553   9.915   8.423  0.5340  0.0560 -1.6889
  793MOL0     H 7023   9.651   9.895   8.197 -2.0679  0.8993 -1.5359
  793MOL0     H 7024   9.626   9.728   8.193 -0.8204 -0.8546 -1.0664
  793MOL0     H 7025   9.390   9.911   8.217 -0.3729 -2.0128  1.0459
  793MOL0     H 7026   9.396   9.751   8.192  1.1272 -0.1687 -0.2029
  793MOL0     H 7027   9.337   9.860   7.977  1.0352 -2.0114 -1.4197
  793MOL0     H 7028   9.500   9.788   7.960  1.6919  0.9387  0.4693
  793MOL0     H 7029   9.439  10.085   7.997  1.3722  0.7641  1.1409
  793MOL0     H 7030   9.600  10.014   7.997  1.2025 -1.3021 -0.4587
  793MOL0     H 7031   9.569   9.915   7.773 -0.2910 -0.0955 -1.2637
  793MOL0     H 7032   9.578  10.086   7.802 -1.7763  0.3595 -0.2763
  793MOL0     H 7033   9.349   9.920   7.714  0.5198 -0.2825 -4.7444
  793MOL0     H 7034   9.321  10.085   7.792 -0.7096  0.2581 -1.3250
  793MOL0     H 7035   9.921   9.652   8.534 -1.2574  3.0182  0.7735
  793MOL0     H 7036  10.094   9.581   8.688 -0.0241  1.4977 -0.8549
  793MOL0     H 7037  10.178   9.343   9.078 -2.6226  1.6179 -1.2560
  793MOL0     H 7038  10.344   9.231   9.200  2.0150 -1.3571  2.1633
  793MOL0     H 7039  10.985  10.276   9.570  3.3178 -4.3797  0.6268
  793MOL0     H 7040  10.956  10.503   9.656 -0.3707 -0.0257 -3.2649
  793MOL0     H 7041  11.094  10.777   9.979 -2.4735 -1.1085 -1.0333
  793MOL0     H 7042  10.951  10.952  10.090  1.2877  1.0617  0.2554
  793MOL0     H 7043  10.948  11.345   9.917  1.4002 -1.7073  3.5856
  793MOL0     H 7044  10.809  11.378  10.011  4.5340  2.3462 -0.0343
  793MOL0     H 7045  10.794  11.266   9.729  0.3023  0.3346 -0.0810
  793MOL0     H 7046  10.770  11.435   9.776  1.3786  0.0128 -0.6749
  793MOL0     H 7047  10.579  11.383   9.889 -0.5327  0.9688  0.0458
  793MOL0     H 7048  10.615  11.209   9.921  2.5371  0.0159 -0.1506
  793MOL0     H 7049  10.431  11.281   9.721  0.8816  0.5936  1.3041
  793MOL0     H 7050  10.577  11.274   9.616  1.1657 -1.8373 -0.2024
  793MOL0     H 7051  10.515  10.877   9.658 -0.2445 -0.4932 -0.1728
  793MOL0     H 7052  10.971  11.177   9.731  0.0776  0.6721 -0.4034
  793MOL0     H 7053  11.209  11.069   9.578  3.9923 -4.8503 -0.1962
  793MOL0     H 7054  11.137  10.917   9.533 -0.2083  0.5798 -0.8061
  793MOL0     H 7055  11.034  11.067   9.529 -1.0332 -1.5315  1.5498
  794MOL0     O 7056  11.232   0.834   8.653  0.6729 -0.1765 -0.7979
  794MOL0     C 7057  11.216   0.783   8.767  0.1590 -0.2915 -0.9823
  794MOL0     O 7058  11.209   0.645   8.792 -0.5489  0.0097 -0.5038
  794MOL0     C 7059  11.245   0.568   8.683  0.3933 -0.1852 -0.1312
  794MOL0     C 7060  11.381   0.544   8.652 -0.2414 -1.1865  0.1672
  794MOL0     C 7061  11.404   0.465   8.536 -0.1973  0.9348  0.7387
  794MOL0     C 7062  11.295   0.399   8.473  0.1147 -0.2449  0.5863
  794MOL0     O 7063  11.341   0.320   8.359  0.7710 -0.2113 -0.0274
  794MOL0     C 7064  11.247   0.223   8.307 -1.0019  0.1516 -0.8619
  794MOL0     C 7065  11.329   0.119   8.233  0.3495 -0.3329  0.2706
  794MOL0     C 7066  11.412   0.181   8.123  1.2416  0.8076  0.1476
  794MOL0     C 7067  11.529   0.090   8.071 -0.2855  0.2596 -0.0497
  794MOL0     C 7068  11.468  -0.037   8.014  0.7196  0.4086  0.6154
  794MOL0     C 7069  11.559  -0.112   7.919  0.6556 -0.0027 -0.3146
  794MOL0     C 7070  11.545  -0.050   7.776  0.3643  0.3847 -0.3180
  794MOL0     C 7071  11.599  -0.156   7.669 -0.3015  0.0589  0.6149
  794MOL0     N 7072  11.531  -0.148   7.541  0.3637  0.1951 -0.3284
  794MOL0     C 7073  11.401  -0.183   7.508  0.1590 -0.3687  0.8021
  794MOL0     C 7074  11.393  -0.148   7.371 -0.7740 -0.4641 -0.5133
  794MOL0     C 7075  11.281  -0.178   7.278  0.1362  0.3295 -0.0766
  794MOL0     C 7076  11.151  -0.105   7.325  1.1604 -1.3434 -0.2093
  794MOL0     C 7077  11.036  -0.114   7.220  0.2056 -0.3001  0.0093
  794MOL0     C 7078  10.920  -0.018   7.262 -0.6428 -0.0225  0.1694
  794MOL0     O 7079  10.801  -0.022   7.187  0.4970 -0.5945  0.4262
  794MOL0     C 7080  10.731   0.093   7.160 -0.3303  0.4428  0.1456
  794MOL0     C 7081  10.652   0.099   7.046 -0.2313  0.2615  0.1046
  794MOL0     C 7082  10.574   0.217   7.026 -0.0603  0.3668 -0.5156
  794MOL0     C 7083  10.590   0.330   7.098  0.7029  0.6247 -0.4662
  794MOL0     C 7084  10.503   0.450   7.071 -0.1015  0.2916 -0.2260
  794MOL0     O 7085  10.446   0.467   6.949  0.3009 -0.1728  0.1140
  794MOL0     C 7086  10.361   0.574   6.926  0.1080 -0.2313 -0.4274
  794MOL0     C 7087  10.373   0.617   6.790 -0.7075 -0.6916 -0.6254
  794MOL0     C 7088  10.317   0.736   6.742 -0.0586  0.3185  0.7569
  794MOL0     C 7089  10.238   0.814   6.827  0.2722 -0.6123 -0.4142
  794MOL0     O 7090  10.177   0.929   6.779  0.5425 -0.4223  0.6113
  794MOL0     C 7091  10.112   1.027   6.866 -0.8090  0.3461 -0.7740
  794MOL0     C 7092  10.104   1.161   6.790  1.1048 -0.1945  0.1257
  794MOL0     C 7093   9.989   1.147   6.676 -0.0721 -0.4392 -0.3903
  794MOL0     C 7094   9.844   1.173   6.731  0.4365 -0.3068 -0.7507
  794MOL0     C 7095   9.742   1.120   6.629  1.0776 -0.2728 -0.5211
  794MOL0     C 7096   9.728   0.969   6.638  0.1174  0.7306  0.4158
  794MOL0     C 7097   9.659   0.927   6.770  0.6137  0.0093 -0.2626
  794MOL0     C 7098   9.569   0.809   6.758 -0.2862  0.0029 -0.7752
  794MOL0    Cl 7099   9.415   0.845   6.694  0.0375 -0.0729  0.1488
  794MOL0     C 7100  10.220   0.769   6.965 -0.6083 -0.0504 -0.0302
  794MOL0     C 7101  10.282   0.651   7.011 -0.5887  0.7716 -1.2025
  794MOL0     O 7102  10.485   0.521   7.168 -0.0423 -0.1844 -0.0680
  794MOL0     C 7103  10.672   0.326   7.210 -0.9084  0.2225 -0.1042
  794MOL0     C 7104  10.732   0.203   7.246 -1.0957 -0.1838  0.3342
  794MOL0     N 7105  11.513  -0.104   7.330  0.1677 -0.7094  0.5740
  794MOL0     N 7106  11.594  -0.093   7.430 -0.5505 -0.3704 -0.1656
  794MOL0     C 7107  11.159   0.423   8.508  0.0450  0.2780 -0.3426
  794MOL0     C 7108  11.138   0.509   8.612  0.4708 -0.8207  0.6980
  794MOL0     C 7109  11.218   0.856   8.896  0.5845 -0.7281  0.2500
  794MOL0     C 7110  11.254   0.787   9.009  0.0942  0.4841  0.3685
  794MOL0     C 7111  11.262   0.857   9.133 -0.0356  0.2365  0.7457
  794MOL0     C 7112  11.245   0.990   9.142 -0.2954  0.7978  0.1994
  794MOL0     O 7113  11.252   1.039   9.267 -0.4750  0.1488  0.2028
  794MOL0     C 7114  11.242   1.189   9.282  0.0871  0.9555  0.5113
  794MOL0     C 7115  11.242   1.217   9.443  0.4140 -0.6375  0.2854
  794MOL0     C 7116  11.381   1.187   9.494 -0.7295  0.1514 -0.0841
  794MOL0     C 7117  11.394   1.194   9.647 -0.0953 -0.9738 -0.6019
  794MOL0     C 7118  11.527   1.145   9.701 -0.3740 -0.5229 -0.0842
  794MOL0     C 7119  11.622   1.103   9.757 -0.2663 -1.1534 -0.0936
  794MOL0     C 7120  11.196   1.054   9.034 -0.0498 -0.1195  0.3852
  794MOL0     C 7121  11.187   0.994   8.907  0.7229  0.1961  0.1229
  794MOL0     C 7122  11.131   1.075   8.796 -0.1901 -0.6301  0.4188
  794MOL0     H 7123  11.459   0.603   8.698 -0.1316  0.3259 -1.7877
  794MOL0     H 7124  11.505   0.448   8.501 -0.0136 -4.6744  2.9716
  794MOL0     H 7125  11.196   0.162   8.382 -3.4068  1.6214 -1.1743
  794MOL0     H 7126  11.177   0.286   8.251  1.1143  1.5626 -2.0788
  794MOL0     H 7127  11.261   0.045   8.189  1.0096  0.4765 -2.3035
  794MOL0     H 7128  11.387   0.059   8.303  0.4944 -0.2992  0.1790
  794MOL0     H 7129  11.455   0.275   8.158 -1.0796  1.5831  1.1129
  794MOL0     H 7130  11.345   0.211   8.042 -0.4592  2.1192  1.9623
  794MOL0     H 7131  11.589   0.150   8.001 -0.6177  0.8614  0.1719
  794MOL0     H 7132  11.582   0.079   8.166  2.0654  2.1166 -1.0069
  794MOL0     H 7133  11.439  -0.084   8.109  0.0475  2.2491  1.3645
  794MOL0     H 7134  11.374  -0.008   7.965  0.9315 -1.2274 -0.8465
  794MOL0     H 7135  11.665  -0.108   7.945 -0.0872  1.1133  2.9997
  794MOL0     H 7136  11.527  -0.216   7.928  0.1463  0.3411  5.5164
  794MOL0     H 7137  11.603   0.042   7.765  0.6339 -0.0015 -2.6463
  794MOL0     H 7138  11.438  -0.041   7.755  0.2756 -2.5128 -1.6976
  794MOL0     H 7139  11.704  -0.139   7.646 -0.4883 -2.3707 -2.8053
  794MOL0     H 7140  11.580  -0.259   7.701  1.9580 -0.1351  1.4697
  794MOL0     H 7141  11.337  -0.245   7.570 -1.3345  0.8102  0.5113
  794MOL0     H 7142  11.302  -0.150   7.175 -1.9622 -0.0195 -0.6467
  794MOL0     H 7143  11.272  -0.287   7.291 -1.5123  0.6788  2.5053
  794MOL0     H 7144  11.122  -0.147   7.422 -1.5829  2.0696  0.6521
  794MOL0     H 7145  11.173   0.001   7.340  0.9853 -1.4198  0.6270
  794MOL0     H 7146  10.999  -0.217   7.217 -0.0868 -0.1789 -1.5090
  794MOL0     H 7147  11.061  -0.090   7.116 -4.0330 -1.1761 -1.4206
  794MOL0     H 7148  10.969   0.080   7.262  0.3098 -0.4767  0.7093
  794MOL0     H 7149  10.894  -0.049   7.364  4.4171 -0.3465  1.6404
  794MOL0     H 7150  10.647   0.004   6.994 -0.3880  1.0332 -1.3495
  794MOL0     H 7151  10.510   0.207   6.939  0.9333 -4.2797 -0.9796
  794MOL0     H 7152  10.453   0.560   6.743 -0.3978 -0.3685 -0.4987
  794MOL0     H 7153  10.323   0.764   6.637  0.9836  1.0384  1.0025
  794MOL0     H 7154  10.012   0.986   6.884 -0.2126 -1.4734 -1.3887
  794MOL0     H 7155  10.162   1.041   6.962 -0.3232  1.0798 -1.1220
  794MOL0     H 7156  10.081   1.248   6.852  1.5467 -0.3096  0.4588
  794MOL0     H 7157  10.193   1.182   6.731  0.3934  0.3932 -0.7631
  794MOL0     H 7158  10.016   1.230   6.610 -1.2115  1.9667  1.9513
  794MOL0     H 7159  10.009   1.051   6.628  2.5992  1.2543 -2.9976
  794MOL0     H 7160   9.834   1.282   6.741  2.8221 -0.1544  0.6969
  794MOL0     H 7161   9.836   1.134   6.833  0.8461 -2.3767 -1.4607
  794MOL0     H 7162   9.764   1.173   6.536 -0.4391  2.3466  0.5196
  794MOL0     H 7163   9.643   1.153   6.660  0.3846 -1.0952 -1.7755
  794MOL0     H 7164   9.669   0.935   6.552  0.6474 -0.8051  0.6187
  794MOL0     H 7165   9.829   0.931   6.620  0.0423 -1.1633  3.3301
  794MOL0     H 7166   9.595   1.010   6.801  0.1115 -0.0974 -0.9803
  794MOL0     H 7167   9.737   0.906   6.844  0.3635 -1.6915 -0.4359
  794MOL0     H 7168   9.615   0.737   6.689  1.0131  1.6199 -1.6415
  794MOL0     H 7169   9.543   0.772   6.858  2.0860  0.1096 -0.0702
  794MOL0     H 7170  10.158   0.821   7.038 -0.3099  2.0143 -1.1394
  794MOL0     H 7171  10.289   0.628   7.117  4.2902 -0.4029 -1.5423
  794MOL0     H 7172  10.658   0.408   7.279 -1.5483  0.7161 -0.7972
  794MOL0     H 7173  10.791   0.199   7.337  1.3105  2.6962 -0.8944
  794MOL0     H 7174  11.076   0.368   8.466 -0.2053 -0.5289  1.1411
  794MOL0     H 7175  11.035   0.537   8.634  0.7721 -0.6128  1.9715
  794MOL0     H 7176  11.282   0.683   9.020 -0.9967  0.3873  2.9515
  794MOL0     H 7177  11.299   0.798   9.217 -0.4309 -1.4202 -0.2080
  794MOL0     H 7178  11.144   1.227   9.251 -0.3860 -1.9309 -2.0467
  794MOL0     H 7179  11.324   1.233   9.225 -1.5357  1.9073 -1.1850
  794MOL0     H 7180  11.162   1.165   9.497 -2.6862  2.7820 -0.5396
  794MOL0     H 7181  11.207   1.320   9.459 -0.3562 -0.5897 -1.5341
  794MOL0     H 7182  11.449   1.263   9.454  3.0843 -1.4541  2.7591
  794MOL0     H 7183  11.409   1.086   9.463 -2.5169  0.1956 -2.1161
  794MOL0     H 7184  11.389   1.293   9.692 -1.5377 -1.7752  1.1103
  794MOL0     H 7185  11.316   1.126   9.682  0.4050 -1.5075 -0.4924
  794MOL0     H 7186  11.702   1.083   9.824  0.5203  0.2038 -0.5723
  794MOL0     H 7187  11.188   1.163   9.037  0.4319  0.2551 -4.1419
  794MOL0     H 7188  11.067   1.010   8.735  0.6672 -0.8947 -0.2186
  794MOL0     H 7189  11.076   1.166   8.823 -1.0595  0.4551 -4.1059
  794MOL0     H 7190  11.211   1.115   8.732  0.0649 -2.8034 -0.7269
  795MOL0     O 7191   1.251   9.683   2.310 -0.1353  0.4769 -0.4732
  795MOL0     C 7192   1.328   9.770   2.306 -0.4020  0.5800  0.3694
  795MOL0     O 7193   1.354   9.845   2.195 -0.1231 -0.0843 -0.0308
  795MOL0     C 7194   1.268   9.826   2.089  0.3887 -0.6285 -0.2487
  795MOL0     C 7195   1.164   9.918   2.082 -0.5121 -0.3609 -0.1231
  795MOL0     C 7196   1.073   9.904   1.980  1.2177 -0.1641  0.8805
  795MOL0     C 7197   1.098   9.818   1.879  0.4581 -0.0691  1.2399
  795MOL0     O 7198   1.013   9.807   1.769  0.1180  0.0703  0.9398
  795MOL0     C 7199   0.921   9.696   1.767  1.1533 -0.5232 -0.2897
  795MOL0     C 7200   0.887   9.659   1.627 -0.0047  0.4261 -0.0812
  795MOL0     C 7201   1.007   9.601   1.548  0.3080 -0.5529  0.2716
  795MOL0     C 7202   0.975   9.528   1.419  0.2212  0.2888  1.0987
  795MOL0     C 7203   0.927   9.380   1.429  0.1744 -0.1034 -0.1461
  795MOL0     C 7204   0.906   9.313   1.296 -0.5007 -0.4335 -0.9536
  795MOL0     C 7205   1.009   9.326   1.182 -0.1349 -1.2975 -0.7419
  795MOL0     C 7206   0.992   9.210   1.083  0.0341 -0.5425 -0.0233
  795MOL0     N 7207   0.856   9.219   1.025 -0.5054  1.0935  0.6904
  795MOL0     C 7208   0.749   9.133   1.051 -0.7923 -0.3725  0.5562
  795MOL0     C 7209   0.664   9.139   0.945 -1.4950 -0.7778 -0.0474
  795MOL0     C 7210   0.531   9.070   0.936  1.0952  0.2273 -0.2168
  795MOL0     C 7211   0.532   8.914   0.907  0.4481  1.4798 -0.3155
  795MOL0     C 7212   0.620   8.820   0.987 -0.0160 -0.2368 -0.5138
  795MOL0     C 7213   0.628   8.673   0.934  0.0151 -0.4200 -0.0985
  795MOL0     O 7214   0.504   8.608   0.967  0.3628  0.8908  1.6650
  795MOL0     C 7215   0.409   8.581   0.871  0.7167 -0.5400  1.1901
  795MOL0     C 7216   0.420   8.599   0.735  0.2018 -0.1950 -0.6176
  795MOL0     C 7217   0.310   8.594   0.655 -0.1190  0.5067  0.0180
  795MOL0     C 7218   0.177   8.577   0.712  0.8305  0.1937 -0.0966
  795MOL0     C 7219   0.064   8.582   0.619  0.0669  0.5959 -1.3559
  795MOL0     O 7220  -0.041   8.507   0.661 -0.4355  0.2978  0.0128
  795MOL0     C 7221  -0.167   8.510   0.611 -0.2687 -0.6506  0.3233
  795MOL0     C 7222  -0.231   8.391   0.582 -0.1891  0.8032  0.8681
  795MOL0     C 7223  -0.361   8.386   0.526  0.2730  0.2971 -0.3782
  795MOL0     C 7224  -0.429   8.510   0.505  0.0668 -0.5799 -0.5732
  795MOL0     O 7225  -0.553   8.520   0.451  0.7670  0.0207  0.4149
  795MOL0     C 7226  -0.646   8.413   0.482  0.7144 -0.6097 -0.1500
  795MOL0     C 7227  -0.791   8.455   0.512 -0.2664  0.7319  0.3089
  795MOL0     C 7228  -0.845   8.548   0.397 -0.1305 -0.7319  0.1072
  795MOL0     C 7229  -0.791   8.687   0.379 -0.9384  0.4010  0.6126
  795MOL0     C 7230  -0.892   8.795   0.350 -0.5927 -0.3375  0.1080
  795MOL0     C 7231  -0.833   8.938   0.359 -0.3116  0.1387  0.3361
  795MOL0     C 7232  -0.918   9.040   0.283  0.2194 -0.9430  0.8754
  795MOL0     C 7233  -0.862   9.180   0.318 -0.3232 -0.3075  0.1119
  795MOL0    Cl 7234  -0.931   9.237   0.471  0.0131 -0.1199 -0.1457
  795MOL0     C 7235  -0.370   8.635   0.539  0.4700  0.9189  0.4579
  795MOL0     C 7236  -0.243   8.627   0.598  0.0812  0.5082  0.9928
  795MOL0     O 7237   0.067   8.656   0.523 -0.4278 -0.2100  0.5654
  795MOL0     C 7238   0.162   8.554   0.855  0.2250 -0.1451 -0.5730
  795MOL0     C 7239   0.281   8.538   0.925  0.5347 -0.1273  0.2764
  795MOL0     N 7240   0.723   9.228   0.851  0.3842  0.3900  0.6274
  795MOL0     N 7241   0.825   9.277   0.904 -1.5889 -1.0692  0.1531
  795MOL0     C 7242   1.198   9.721   1.889  0.0467  0.4610 -0.1890
  795MOL0     C 7243   1.291   9.735   1.988  0.5994 -1.2304  0.2749
  795MOL0     C 7244   1.413   9.791   2.417  0.0041  0.0714  0.3823
  795MOL0     C 7245   1.549   9.773   2.412  0.5501 -0.6493  0.4634
  795MOL0     C 7246   1.636   9.801   2.518  0.2418 -0.3841 -1.4363
  795MOL0     C 7247   1.588   9.830   2.647 -0.7911 -0.6155  0.8978
  795MOL0     O 7248   1.682   9.847   2.758  0.1758  0.2334  0.3487
  795MOL0     C 7249   1.621   9.835   2.888  0.0677 -0.1767  0.2164
  795MOL0     C 7250   1.721   9.857   3.000 -0.6024  0.7436 -0.4919
  795MOL0     C 7251   1.791   9.992   3.014 -0.2834  0.4839  0.8539
  795MOL0     C 7252   1.864  10.009   3.153  0.4350  0.2782 -0.0058
  795MOL0     C 7253   1.987   9.924   3.167 -0.0157 -0.6735  0.1014
  795MOL0     C 7254   2.075   9.842   3.188  0.5466  0.6218 -0.0760
  795MOL0     C 7255   1.451   9.824   2.662 -0.4917 -0.0703 -0.7370
  795MOL0     C 7256   1.367   9.815   2.551 -0.3414  0.4630  0.9033
  795MOL0     C 7257   1.221   9.831   2.578  0.4888  1.4063 -0.0405
  795MOL0     H 7258   1.152   9.993   2.159  0.8854 -1.3720  1.1392
  795MOL0     H 7259   0.993   9.977   1.986 -0.0630 -1.5871  1.7715
  795MOL0     H 7260   0.957   9.613   1.828 -2.0349 -1.2599  0.7917
  795MOL0     H 7261   0.838   9.734   1.827  2.9941  0.0141  2.0655
  795MOL0     H 7262   0.845   9.746   1.575 -3.2736  0.1196  1.7461
  795MOL0     H 7263   0.805   9.589   1.645 -0.2613  1.0365  1.2224
  795MOL0     H 7264   1.064   9.530   1.608  1.7884  1.3888  1.2738
  795MOL0     H 7265   1.078   9.681   1.525 -2.2680  1.1744 -2.2749
  795MOL0     H 7266   0.893   9.578   1.368  0.6714  3.9536  3.5919
  795MOL0     H 7267   1.062   9.533   1.352  0.6229  0.7478  1.6393
  795MOL0     H 7268   1.003   9.320   1.480  0.6013  1.5900  1.3486
  795MOL0     H 7269   0.834   9.373   1.485  2.2051 -1.3610  3.3963
  795MOL0     H 7270   0.908   9.208   1.326 -0.4724 -0.1348  0.1388
  795MOL0     H 7271   0.806   9.335   1.258 -1.2305 -3.4066 -0.9852
  795MOL0     H 7272   1.110   9.339   1.221 -0.2756  1.2084 -1.0212
  795MOL0     H 7273   0.990   9.422   1.133  0.2258  0.8166  2.9438
  795MOL0     H 7274   1.069   9.227   1.006  1.0512 -1.7915  0.6685
  795MOL0     H 7275   1.013   9.118   1.139  0.7977  0.8447  2.0915
  795MOL0     H 7276   0.750   9.073   1.142 -0.3650  2.2720  2.4079
  795MOL0     H 7277   0.460   9.105   1.012  0.6222  2.8687 -1.7578
  795MOL0     H 7278   0.471   9.106   0.852  1.8658  2.0367 -0.0441
  795MOL0     H 7279   0.430   8.874   0.910  0.8865 -0.7927 -4.9544
  795MOL0     H 7280   0.549   8.896   0.800 -0.1637 -1.2560 -0.0331
  795MOL0     H 7281   0.572   8.815   1.085 -0.0937  0.7636 -0.4921
  795MOL0     H 7282   0.720   8.861   1.007 -0.4866  0.0968  1.3040
  795MOL0     H 7283   0.712   8.615   0.973 -0.0102 -0.5204 -0.1925
  795MOL0     H 7284   0.652   8.688   0.829  0.6154  3.7140  0.4309
  795MOL0     H 7285   0.514   8.622   0.685 -0.9509  1.1443 -2.2631
  795MOL0     H 7286   0.316   8.601   0.547  0.6522 -0.8194 -0.0489
  795MOL0     H 7287  -0.182   8.295   0.591 -0.8713  0.2226 -1.0898
  795MOL0     H 7288  -0.405   8.288   0.510  6.2500 -2.9926  0.4892
  795MOL0     H 7289  -0.641   8.356   0.388  0.9141  2.6745 -2.2860
  795MOL0     H 7290  -0.618   8.346   0.564  3.8093  0.7870  0.0891
  795MOL0     H 7291  -0.852   8.365   0.497  0.1022  0.6464 -0.7892
  795MOL0     H 7292  -0.798   8.502   0.611  1.0409  0.3659  0.6002
  795MOL0     H 7293  -0.846   8.509   0.295  1.5999  1.9333 -1.0499
  795MOL0     H 7294  -0.946   8.556   0.439  0.1462 -1.0585  0.8594
  795MOL0     H 7295  -0.705   8.688   0.311  0.3172  0.1985  2.1400
  795MOL0     H 7296  -0.757   8.714   0.479  0.8973  2.2310 -0.4436
  795MOL0     H 7297  -0.970   8.785   0.425 -0.6248 -0.3214  0.0769
  795MOL0     H 7298  -0.921   8.779   0.246  0.2089 -0.4867 -0.0990
  795MOL0     H 7299  -0.815   8.970   0.461 -0.8595 -3.6435  1.7969
  795MOL0     H 7300  -0.735   8.934   0.312 -1.3773 -2.9838 -1.9984
  795MOL0     H 7301  -1.026   9.041   0.300 -0.0716  0.9543 -0.7210
  795MOL0     H 7302  -0.919   9.014   0.177 -1.5720  0.8942  0.3868
  795MOL0     H 7303  -0.753   9.177   0.332 -0.0773  4.1562  0.5051
  795MOL0     H 7304  -0.879   9.253   0.238  0.3129 -1.7092 -1.3624
  795MOL0     H 7305  -0.416   8.732   0.524  2.4580  1.7906 -0.2587
  795MOL0     H 7306  -0.190   8.702   0.656  1.6252 -1.0556  1.7206
  795MOL0     H 7307   0.070   8.563   0.911  1.4808 -3.4305  2.3314
  795MOL0     H 7308   0.292   8.519   1.031 -0.2699 -1.5989  0.1046
  795MOL0     H 7309   1.214   9.640   1.818 -0.0795 -1.0065  1.3992
  795MOL0     H 7310   1.367   9.658   1.991  0.7184 -1.1701 -0.8404
  795MOL0     H 7311   1.594   9.745   2.318 -2.1243 -1.7886 -0.5583
  795MOL0     H 7312   1.744   9.795   2.504  0.1236  0.4903 -2.9033
  795MOL0     H 7313   1.578   9.734   2.895  1.1340 -0.7473 -0.9609
  795MOL0     H 7314   1.540   9.905   2.906  0.8623 -0.1438  4.6542
  795MOL0     H 7315   1.805   9.788   2.993 -0.4490  1.0164 -1.4694
  795MOL0     H 7316   1.679   9.832   3.098  1.6980 -0.7782  0.1776
  795MOL0     H 7317   1.718  10.074   3.009 -0.3178  0.4420 -4.2904
  795MOL0     H 7318   1.872  10.003   2.942 -1.2564  0.4345 -0.2900
  795MOL0     H 7319   1.898  10.109   3.177  1.8455 -0.3864  0.8752
  795MOL0     H 7320   1.798   9.982   3.236  1.3805 -0.4864  0.5090
  795MOL0     H 7321   2.126   9.763   3.239  2.1228  2.3121  1.0834
  795MOL0     H 7322   1.412   9.845   2.761  1.5927 -2.7213  0.7828
  795MOL0     H 7323   1.185   9.871   2.673 -2.0661 -1.3232  0.2652
  795MOL0     H 7324   1.165   9.881   2.498 -1.8030 -0.1335  0.5073
  795MOL0     H 7325   1.184   9.730   2.595  0.6736  1.4738  0.8170
  796MOL0     O 7326   6.778   6.695   6.511 -0.2322  0.2843 -0.0088
  796MOL0     C 7327   6.674   6.674   6.575 -0.0494  0.3421 -1.2084
  796MOL0     O 7328   6.664   6.596   6.688 -0.5932 -0.1342 -0.0892
  796MOL0     C 7329   6.784   6.556   6.739  0.4520 -0.0461 -0.0136
  796MOL0     C 7330   6.851   6.443   6.686 -0.5246 -0.9997  0.6232
  796MOL0     C 7331   6.975   6.423   6.737 -0.2442  1.1840 -0.6300
  796MOL0     C 7332   7.033   6.490   6.843  0.5407  0.0995 -0.3113
  796MOL0     O 7333   7.151   6.448   6.903  0.4972 -0.0944 -0.1607
  796MOL0     C 7334   7.242   6.544   6.955  0.5393  0.3376 -0.7004
  796MOL0     C 7335   7.324   6.635   6.855 -0.4293 -0.1525  0.3943
  796MOL0     C 7336   7.426   6.568   6.769  0.7302 -0.9594  0.1429
  796MOL0     C 7337   7.382   6.463   6.676  0.9540 -0.9904 -0.6379
  796MOL0     C 7338   7.476   6.417   6.566  0.3745 -0.1194 -0.0546
  796MOL0     C 7339   7.438   6.283   6.498 -0.8370 -0.2608 -0.9713
  796MOL0     C 7340   7.560   6.211   6.451  0.1289  0.2005 -0.0990
  796MOL0     C 7341   7.619   6.281   6.324  0.3592 -0.7041  0.5836
  796MOL0     N 7342   7.720   6.203   6.264 -0.6024 -0.0701  0.0171
  796MOL0     C 7343   7.837   6.177   6.318  0.6595 -0.2842 -0.3244
  796MOL0     C 7344   7.894   6.080   6.244  0.0485  0.3942  0.8101
  796MOL0     C 7345   8.031   6.009   6.265  0.1852  0.7383 -0.7146
  796MOL0     C 7346   8.103   6.003   6.132 -0.6982 -0.3099  0.7894
  796MOL0     C 7347   8.216   5.896   6.135 -0.4472  0.2399 -0.0127
  796MOL0     C 7348   8.290   5.884   5.993 -0.3123  0.7753 -1.2901
  796MOL0     O 7349   8.206   5.800   5.914 -0.9483  0.6457  0.5266
  796MOL0     C 7350   8.235   5.783   5.784  0.3252 -0.2761  0.5174
  796MOL0     C 7351   8.347   5.841   5.723 -0.4107  0.0796  0.2134
  796MOL0     C 7352   8.374   5.812   5.584 -0.3293  0.5559 -0.5237
  796MOL0     C 7353   8.278   5.738   5.507  0.2864  0.9705 -0.7024
  796MOL0     C 7354   8.299   5.709   5.368 -0.3600  0.2767 -0.0212
  796MOL0     O 7355   8.191   5.693   5.301  0.8515  0.0010 -0.5858
  796MOL0     C 7356   8.187   5.661   5.173  0.3423 -0.8710 -0.6873
  796MOL0     C 7357   8.282   5.686   5.069  1.0852  0.1577 -0.5667
  796MOL0     C 7358   8.251   5.642   4.939 -0.3594  0.0839  0.1469
  796MOL0     C 7359   8.136   5.573   4.905  0.2262  0.4407 -1.1491
  796MOL0     O 7360   8.124   5.532   4.774 -0.3241  0.1375 -0.2071
  796MOL0     C 7361   8.074   5.413   4.752  0.6237 -0.3551 -0.6312
  796MOL0     C 7362   8.063   5.384   4.606 -0.1501 -0.9102  0.5216
  796MOL0     C 7363   8.185   5.351   4.516 -0.4887  0.5474 -0.3179
  796MOL0     C 7364   8.275   5.240   4.573  0.0840  0.8764  0.6033
  796MOL0     C 7365   8.399   5.220   4.492  0.1805 -0.6387  0.4551
  796MOL0     C 7366   8.379   5.142   4.365  0.4742  0.4062  0.6256
  796MOL0     C 7367   8.512   5.159   4.287  0.5533  0.1206 -0.3873
  796MOL0     C 7368   8.516   5.064   4.171 -0.7760 -0.3497 -0.2516
  796MOL0    Cl 7369   8.449   5.106   4.018  0.0214 -0.3205 -0.4148
  796MOL0     C 7370   8.043   5.556   5.008  0.4129  0.8453  0.3130
  796MOL0     C 7371   8.069   5.597   5.136 -0.1201  0.2689 -0.0302
  796MOL0     O 7372   8.411   5.694   5.323 -0.5416  0.3937  0.2593
  796MOL0     C 7373   8.159   5.707   5.568 -0.5622 -0.7502  0.4128
  796MOL0     C 7374   8.139   5.717   5.704 -0.0247  0.3603  0.3393
  796MOL0     N 7375   7.796   6.035   6.150  0.4210  0.3676 -0.3742
  796MOL0     N 7376   7.696   6.117   6.165 -0.0523  1.0577 -0.0007
  796MOL0     C 7377   6.958   6.600   6.897 -0.0116  0.1528  0.3049
  796MOL0     C 7378   6.826   6.629   6.853 -0.6355  0.2206  0.5469
  796MOL0     C 7379   6.548   6.730   6.530 -0.6007 -0.3364 -0.2862
  796MOL0     C 7380   6.559   6.830   6.431  0.5733 -0.5673  0.8338
  796MOL0     C 7381   6.449   6.868   6.363 -0.8621  0.2692  0.5071
  796MOL0     C 7382   6.318   6.817   6.386 -0.5269  0.8817  0.3738
  796MOL0     O 7383   6.219   6.842   6.300 -0.2044  0.4345 -0.5291
  796MOL0     C 7384   6.083   6.790   6.332 -0.3788 -0.0394  0.4665
  796MOL0     C 7385   5.967   6.852   6.240 -0.4245 -0.0808  0.1616
  796MOL0     C 7386   5.985   6.825   6.094 -0.7021  0.4624 -1.6051
  796MOL0     C 7387   5.868   6.876   6.011 -1.0306 -0.6621 -0.9311
  796MOL0     C 7388   5.903   6.895   5.874 -0.0497 -0.8443  0.4458
  796MOL0     C 7389   5.907   6.911   5.752  1.1144  1.0306 -0.5385
  796MOL0     C 7390   6.307   6.727   6.497  1.3334  0.1739 -0.2883
  796MOL0     C 7391   6.418   6.682   6.571 -0.1756  0.7711 -0.2039
  796MOL0     C 7392   6.370   6.594   6.692 -0.4504 -0.5391 -0.4031
  796MOL0     H 7393   6.809   6.396   6.598  3.2290  0.0193 -1.9748
  796MOL0     H 7394   7.034   6.332   6.731 -1.1811  0.2219  2.5271
  796MOL0     H 7395   7.190   6.608   7.028  0.3151  0.1308 -0.6773
  796MOL0     H 7396   7.321   6.494   7.009  1.1135 -1.1512 -2.7964
  796MOL0     H 7397   7.383   6.704   6.915  1.2649 -0.5804 -0.7241
  796MOL0     H 7398   7.246   6.681   6.794 -0.5257  0.4743  0.9772
  796MOL0     H 7399   7.502   6.522   6.833  0.6599 -2.1262 -0.5810
  796MOL0     H 7400   7.484   6.639   6.709  2.3256 -2.1599  0.2115
  796MOL0     H 7401   7.335   6.378   6.727 -1.9395  0.8237 -0.1019
  796MOL0     H 7402   7.289   6.500   6.634  0.2575  1.0650  2.4263
  796MOL0     H 7403   7.483   6.495   6.489  2.3891  0.9758  1.1407
  796MOL0     H 7404   7.570   6.404   6.621  2.3332  4.6902 -1.6947
  796MOL0     H 7405   7.385   6.219   6.570  2.1329 -1.5689  0.2057
  796MOL0     H 7406   7.378   6.306   6.410  0.7792  0.8955 -1.8071
  796MOL0     H 7407   7.531   6.111   6.418 -2.2780  0.7772  0.1266
  796MOL0     H 7408   7.630   6.200   6.535  0.7967 -2.6980 -0.8917
  796MOL0     H 7409   7.537   6.303   6.255  1.5582 -1.7807 -1.2857
  796MOL0     H 7410   7.669   6.377   6.337 -0.4861  0.8632 -4.9238
  796MOL0     H 7411   7.880   6.216   6.409  0.7533  1.8927 -1.2488
  796MOL0     H 7412   8.092   6.063   6.338  0.4211  0.9210 -1.0486
  796MOL0     H 7413   8.011   5.910   6.307  1.0483  0.8964  0.1016
  796MOL0     H 7414   8.039   5.985   6.045  0.5233  0.4453 -0.2928
  796MOL0     H 7415   8.148   6.101   6.116  0.6786 -1.0257  0.0526
  796MOL0     H 7416   8.170   5.803   6.169  0.7143 -0.3208  0.0498
  796MOL0     H 7417   8.278   5.924   6.220 -0.5854 -0.3298  0.2753
  796MOL0     H 7418   8.384   5.830   6.004 -0.3535  1.1599  1.8500
  796MOL0     H 7419   8.303   5.985   5.955  2.2698  0.4982 -1.2795
  796MOL0     H 7420   8.426   5.901   5.767  2.6084 -0.4741 -3.8136
  796MOL0     H 7421   8.467   5.845   5.539  2.1198 -2.2353  2.0608
  796MOL0     H 7422   8.375   5.740   5.085 -0.6667  2.9884  0.9058
  796MOL0     H 7423   8.302   5.679   4.850  1.1604  2.5730  1.9209
  796MOL0     H 7424   8.143   5.342   4.798  1.0124  0.3087 -0.1572
  796MOL0     H 7425   7.972   5.407   4.791  1.8997  1.3561  3.6348
  796MOL0     H 7426   8.009   5.290   4.588 -0.6940 -0.9040  1.9674
  796MOL0     H 7427   7.998   5.457   4.557 -0.3979 -0.8072  1.0015
  796MOL0     H 7428   8.145   5.323   4.418 -0.7397 -1.9288  0.4380
  796MOL0     H 7429   8.247   5.438   4.492  1.1877  0.3115  2.7243
  796MOL0     H 7430   8.225   5.144   4.587  0.2365  0.8565  1.0375
  796MOL0     H 7431   8.312   5.274   4.670 -0.2189  1.0342  0.6660
  796MOL0     H 7432   8.473   5.157   4.542  0.5255 -1.8561 -1.4924
  796MOL0     H 7433   8.439   5.321   4.481  1.4768 -1.2909 -1.2107
  796MOL0     H 7434   8.357   5.038   4.387  0.3662  0.3228  0.1370
  796MOL0     H 7435   8.292   5.179   4.310 -0.3119  3.3280  3.4959
  796MOL0     H 7436   8.604   5.139   4.342 -0.5833  3.8646  3.2854
  796MOL0     H 7437   8.536   5.262   4.260  0.5515 -0.3025 -2.1703
  796MOL0     H 7438   8.622   5.041   4.156  0.2314  3.2870  0.2323
  796MOL0     H 7439   8.466   4.969   4.191  0.7714 -1.1301  0.0689
  796MOL0     H 7440   7.947   5.508   4.988  1.6259 -0.1380 -4.2097
  796MOL0     H 7441   7.994   5.569   5.210 -1.8640  3.1172 -0.5759
  796MOL0     H 7442   8.084   5.648   5.515 -1.3771  0.8616 -0.2882
  796MOL0     H 7443   8.049   5.686   5.756  0.6947  1.8703  2.6293
  796MOL0     H 7444   6.988   6.660   6.982 -1.7516 -0.9278  1.7570
  796MOL0     H 7445   6.766   6.709   6.893 -0.0508  1.3525 -0.7603
  796MOL0     H 7446   6.653   6.879   6.408 -0.6412  1.8614  0.7635
  796MOL0     H 7447   6.472   6.937   6.283  0.3002  0.7464  1.2254
  796MOL0     H 7448   6.056   6.795   6.438 -0.7172 -2.4961  0.5452
  796MOL0     H 7449   6.066   6.686   6.303 -1.4672  0.4838 -0.8972
  796MOL0     H 7450   5.975   6.961   6.249 -0.4705 -0.1791  1.7130
  796MOL0     H 7451   5.870   6.821   6.280 -0.0018 -0.7061  0.7377
  796MOL0     H 7452   6.019   6.724   6.067 -0.0893  0.2282 -0.0701
  796MOL0     H 7453   6.079   6.877   6.070 -0.8105  2.1494  1.1940
  796MOL0     H 7454   5.777   6.816   6.028 -1.1658  0.5701  4.0569
  796MOL0     H 7455   5.846   6.975   6.051  1.5291 -0.6732  0.7494
  796MOL0     H 7456   5.930   6.929   5.649 -1.2487  1.2834 -1.0643
  796MOL0     H 7457   6.217   6.676   6.530  1.8008 -1.0430 -0.8375
  796MOL0     H 7458   6.272   6.548   6.671 -1.8241  1.9122  0.1935
  796MOL0     H 7459   6.449   6.519   6.703  0.6175  0.5960 -0.1518
  796MOL0     H 7460   6.368   6.655   6.782  3.6087 -2.1981  1.0232
  797MOL0     O 7461   2.291   1.931   0.120 -0.1080  0.3466  0.7113
  797MOL0     C 7462   2.275   2.037   0.067  0.4500 -0.9941  0.4664
  797MOL0     O 7463   2.144   2.085   0.017  0.0924 -0.4431 -0.1049
  797MOL0     C 7464   2.039   2.001   0.042 -0.8400  1.3266  0.4411
  797MOL0     C 7465   1.918   2.066   0.066  0.1949  0.7633 -0.3200
  797MOL0     C 7466   1.808   1.980   0.102  0.1143  0.2041  1.2895
  797MOL0     C 7467   1.819   1.841   0.120 -0.4144  1.1995  0.6844
  797MOL0     O 7468   1.708   1.762   0.154 -0.4069  0.0910 -0.0230
  797MOL0     C 7469   1.713   1.620   0.117 -0.0199 -0.5148 -0.3941
  797MOL0     C 7470   1.570   1.577   0.096 -0.6071 -0.0767 -0.2912
  797MOL0     C 7471   1.536   1.431   0.070  0.0432  0.0055  0.4668
  797MOL0     C 7472   1.396   1.386   0.117  0.5060  0.6953 -0.7405
  797MOL0     C 7473   1.413   1.338   0.270  0.1454  0.1339 -0.3581
  797MOL0     C 7474   1.280   1.339   0.344 -0.1217 -0.6422 -0.5398
  797MOL0     C 7475   1.164   1.277   0.263  1.2483  0.6380 -0.4708
  797MOL0     C 7476   1.188   1.138   0.199 -1.0639  0.7698  0.4462
  797MOL0     N 7477   1.229   1.044   0.300  0.0398 -0.3279 -0.6393
  797MOL0     C 7478   1.153   1.008   0.413  0.8728 -0.3866  0.3374
  797MOL0     C 7479   1.218   0.902   0.459  1.1043  0.2631 -0.9195
  797MOL0     C 7480   1.166   0.821   0.571  0.1952 -0.2743  0.1260
  797MOL0     C 7481   1.070   0.708   0.534  0.3071  0.1842 -0.7914
  797MOL0     C 7482   1.125   0.627   0.410  1.1110 -0.0341 -0.9483
  797MOL0     C 7483   1.056   0.483   0.400  0.0066 -0.4397  1.0051
  797MOL0     O 7484   1.045   0.412   0.512 -0.7230  0.3006 -0.7255
  797MOL0     C 7485   0.967   0.306   0.494 -0.2114  0.9722 -0.2837
  797MOL0     C 7486   0.952   0.232   0.612  0.2347  0.0147  0.2353
  797MOL0     C 7487   0.866   0.126   0.614  0.1249  0.7012 -0.0524
  797MOL0     C 7488   0.789   0.086   0.503 -0.1782  0.8676  0.4326
  797MOL0     C 7489   0.682  -0.012   0.520  1.7539 -0.2113 -0.0835
  797MOL0     O 7490   0.591  -0.018   0.419 -0.7359  0.1524 -0.7030
  797MOL0     C 7491   0.489  -0.115   0.421 -0.1629  0.5410 -0.2873
  797MOL0     C 7492   0.523  -0.250   0.439  0.2910 -0.4441 -0.6491
  797MOL0     C 7493   0.416  -0.342   0.475  0.0261 -0.4222  0.0460
  797MOL0     C 7494   0.282  -0.307   0.458 -0.1998  0.4990  0.4937
  797MOL0     O 7495   0.193  -0.414   0.461 -0.0803 -0.9617  0.2994
  797MOL0     C 7496   0.053  -0.383   0.464 -0.7797  0.1864  0.2850
  797MOL0     C 7497  -0.032  -0.519   0.462  0.3681 -0.7820  0.6727
  797MOL0     C 7498  -0.007  -0.615   0.340  0.8558 -0.4583  0.6213
  797MOL0     C 7499   0.108  -0.715   0.356 -0.8490  0.2952  0.2227
  797MOL0     C 7500   0.135  -0.799   0.226  0.1271  0.4155  0.1166
  797MOL0     C 7501   0.256  -0.894   0.245 -1.0227  0.4954  1.4530
  797MOL0     C 7502   0.247  -1.015   0.144 -0.6302  0.4911  1.1832
  797MOL0     C 7503   0.331  -1.129   0.165  0.4594 -0.2071  0.6627
  797MOL0    Cl 7504   0.505  -1.091   0.157 -0.0947  0.1980 -0.5982
  797MOL0     C 7505   0.246  -0.170   0.430 -0.1657 -0.0026  0.1244
  797MOL0     C 7506   0.346  -0.078   0.406 -0.4096  0.2807  0.3095
  797MOL0     O 7507   0.670  -0.066   0.633  0.4433  0.2009 -0.1168
  797MOL0     C 7508   0.807   0.159   0.381 -0.1634 -0.6255 -0.5803
  797MOL0     C 7509   0.895   0.256   0.384 -0.2431  0.2103 -0.7227
  797MOL0     N 7510   1.337   0.880   0.383 -0.3545  0.4564 -0.4162
  797MOL0     N 7511   1.342   0.970   0.293  0.2559 -0.0123 -0.9693
  797MOL0     C 7512   1.944   1.779   0.089  0.9559 -0.1542  0.1165
  797MOL0     C 7513   2.050   1.859   0.046  0.9928 -0.3542  0.5057
  797MOL0     C 7514   2.394   2.128   0.028 -0.2088  0.1631 -0.2787
  797MOL0     C 7515   2.375   2.217  -0.080  0.0122 -0.7662 -0.8375
  797MOL0     C 7516   2.476   2.311  -0.117  1.6397  0.0211  0.9391
  797MOL0     C 7517   2.598   2.311  -0.044  0.1980  0.9245  0.3065
  797MOL0     O 7518   2.687   2.386  -0.101 -1.0057 -0.0825  1.1647
  797MOL0     C 7519   2.811   2.387  -0.036  0.1051 -0.9141  0.2548
  797MOL0     C 7520   2.909   2.490  -0.089 -0.0820  0.6861 -0.6365
  797MOL0     C 7521   2.884   2.558  -0.219  0.4785  0.3001  0.3737
  797MOL0     C 7522   2.996   2.655  -0.252 -0.3190 -0.7214 -0.0135
  797MOL0     C 7523   3.000   2.772  -0.154  0.5018 -0.2804  0.1768
  797MOL0     C 7524   2.999   2.874  -0.089 -0.6136 -0.1052 -0.1199
  797MOL0     C 7525   2.618   2.217   0.061  0.3546 -0.8222 -0.6042
  797MOL0     C 7526   2.522   2.123   0.099 -0.3750 -0.6556  0.4164
  797MOL0     C 7527   2.548   2.028   0.208  0.2266 -0.6545  0.1009
  797MOL0     H 7528   1.914   2.173   0.049  3.7772  1.2420  1.0913
  797MOL0     H 7529   1.709   2.019   0.123 -0.0013  1.0789 -0.6354
  797MOL0     H 7530   1.760   1.613   0.019 -0.5240  0.4496 -0.7210
  797MOL0     H 7531   1.754   1.562   0.200 -0.9993 -0.6176  0.0413
  797MOL0     H 7532   1.523   1.632   0.015 -2.3862  0.3170  0.9482
  797MOL0     H 7533   1.516   1.608   0.186 -2.2261  3.1711 -2.1998
  797MOL0     H 7534   1.615   1.373   0.119 -2.1970 -3.5105  0.3399
  797MOL0     H 7535   1.547   1.408  -0.037 -1.6099  0.6048  0.1334
  797MOL0     H 7536   1.333   1.476   0.114 -2.4225 -1.2124 -0.0335
  797MOL0     H 7537   1.356   1.304   0.057 -0.2013 -0.0393  0.6789
  797MOL0     H 7538   1.453   1.235   0.273  2.9540  1.0823 -1.3070
  797MOL0     H 7539   1.486   1.402   0.321  0.3005  0.1724 -0.6216
  797MOL0     H 7540   1.300   1.283   0.436  1.8403 -0.2077 -0.6467
  797MOL0     H 7541   1.266   1.445   0.368  0.4558 -0.4895 -0.8639
  797MOL0     H 7542   1.141   1.349   0.184  0.8451  0.5180 -0.4655
  797MOL0     H 7543   1.075   1.275   0.327  1.5215 -2.4293 -0.0304
  797MOL0     H 7544   1.096   1.107   0.148  1.0314 -0.4825 -2.9528
  797MOL0     H 7545   1.259   1.135   0.115 -3.9928 -1.4639 -2.2002
  797MOL0     H 7546   1.060   1.046   0.455  0.5193  0.7310 -1.3473
  797MOL0     H 7547   1.245   0.767   0.624 -0.0589 -0.8168 -0.0389
  797MOL0     H 7548   1.125   0.892   0.642  1.4541  1.6151 -0.9476
  797MOL0     H 7549   1.065   0.653   0.628  0.0990 -0.0747 -0.9524
  797MOL0     H 7550   0.973   0.750   0.502 -0.1884 -2.2485 -2.7234
  797MOL0     H 7551   1.234   0.623   0.419  1.2753  4.2189  2.0584
  797MOL0     H 7552   1.088   0.680   0.321 -0.3426  0.6389  0.0067
  797MOL0     H 7553   1.109   0.430   0.321  1.4418  0.9022  0.9985
  797MOL0     H 7554   0.954   0.506   0.366  0.4623  1.7488  0.9323
  797MOL0     H 7555   0.999   0.258   0.706 -0.7155  4.3356 -0.2834
  797MOL0     H 7556   0.841   0.080   0.708  0.1101 -3.5168 -1.8889
  797MOL0     H 7557   0.629  -0.274   0.451  0.3482  0.9964  3.5889
  797MOL0     H 7558   0.449  -0.442   0.502  3.3845  0.0966 -1.6946
  797MOL0     H 7559   0.007  -0.341   0.554 -0.0787  2.1341 -0.2225
  797MOL0     H 7560   0.021  -0.312   0.387 -2.4765 -1.6432 -0.7909
  797MOL0     H 7561  -0.002  -0.580   0.547  1.3604 -1.6789 -0.2771
  797MOL0     H 7562  -0.141  -0.512   0.459  0.3190 -1.3052  1.0503
  797MOL0     H 7563  -0.102  -0.664   0.316  0.7456  0.5072 -1.0604
  797MOL0     H 7564   0.018  -0.560   0.249 -1.0684 -0.3847  0.0965
  797MOL0     H 7565   0.081  -0.784   0.437 -0.7357 -1.6139 -1.2928
  797MOL0     H 7566   0.196  -0.657   0.386 -1.6319  3.1054 -2.3865
  797MOL0     H 7567   0.168  -0.735   0.144  1.0594  3.6445  2.7473
  797MOL0     H 7568   0.048  -0.861   0.204  0.7748  0.0734 -1.6271
  797MOL0     H 7569   0.354  -0.848   0.229  1.0383 -4.2773 -1.9886
  797MOL0     H 7570   0.263  -0.944   0.342 -1.6924 -3.9666 -0.5754
  797MOL0     H 7571   0.265  -0.983   0.041  2.4042 -1.2514  1.0372
  797MOL0     H 7572   0.148  -1.060   0.157  0.3730 -2.0581  0.6856
  797MOL0     H 7573   0.314  -1.180   0.260 -2.7666  0.0959  0.3431
  797MOL0     H 7574   0.303  -1.195   0.083  2.5616 -1.8240  1.1517
  797MOL0     H 7575   0.144  -0.132   0.427  0.0692  0.8537  1.8667
  797MOL0     H 7576   0.323   0.024   0.379  2.3317  0.3919 -2.1420
  797MOL0     H 7577   0.761   0.146   0.283 -0.2892 -0.0387 -0.6043
  797MOL0     H 7578   0.909   0.323   0.300 -1.3403  2.9441  1.1085
  797MOL0     H 7579   1.975   1.678   0.113  0.0500 -0.0398  1.9357
  797MOL0     H 7580   2.135   1.807   0.003  0.8208  1.9645 -3.0473
  797MOL0     H 7581   2.294   2.208  -0.153 -0.2991 -1.0807 -0.4605
  797MOL0     H 7582   2.453   2.378  -0.199 -0.8643 -1.6315  0.1609
  797MOL0     H 7583   2.862   2.291  -0.035  2.5174  0.2365 -1.5449
  797MOL0     H 7584   2.786   2.436   0.058  1.2369 -1.1091  0.6793
  797MOL0     H 7585   3.005   2.444  -0.113 -1.0284 -2.1840  0.6186
  797MOL0     H 7586   2.915   2.574  -0.020 -0.8058  0.5304 -0.3757
  797MOL0     H 7587   2.779   2.590  -0.226  0.1423 -0.5919  1.1092
  797MOL0     H 7588   2.904   2.499  -0.309 -1.5514  2.6392 -1.7553
  797MOL0     H 7589   3.098   2.614  -0.255 -0.8072 -1.9551 -2.8648
  797MOL0     H 7590   2.979   2.697  -0.351 -1.3338 -0.1190  0.4017
  797MOL0     H 7591   2.995   2.968  -0.038 -1.6391 -0.6267  0.8005
  797MOL0     H 7592   2.712   2.205   0.115  0.5595 -2.1620 -1.2407
  797MOL0     H 7593   2.641   2.041   0.265 -1.3562 -0.7460  2.8577
  797MOL0     H 7594   2.468   2.062   0.274  1.6922  1.5044  0.8770
  797MOL0     H 7595   2.533   1.924   0.177 -3.5244 -0.2099  0.0520
  798MOL0     O 7596   9.482   7.743   4.481  0.2499 -0.2582  0.3386
  798MOL0     C 7597   9.382   7.740   4.406  0.2037  0.3305  0.0407
  798MOL0     O 7598   9.380   7.684   4.281  0.0557  0.3412  0.3665
  798MOL0     C 7599   9.497   7.617   4.243 -0.3277  0.1381  0.2190
  798MOL0     C 7600   9.476   7.485   4.201 -0.2749  0.5596  0.1999
  798MOL0     C 7601   9.580   7.402   4.168  0.3412 -0.0974  0.5735
  798MOL0     C 7602   9.716   7.440   4.156  0.3974 -0.4128 -0.7369
  798MOL0     O 7603   9.813   7.356   4.112  0.6611  1.0119 -1.1518
  798MOL0     C 7604   9.796   7.219   4.169  0.3753 -1.3490 -0.6659
  798MOL0     C 7605   9.929   7.150   4.177 -0.2561  0.7589 -0.3360
  798MOL0     C 7606   9.921   7.004   4.229  0.4857  0.9505 -0.9599
  798MOL0     C 7607  10.054   6.937   4.246  0.3297  0.5963 -0.2305
  798MOL0     C 7608  10.033   6.786   4.288 -0.0985 -0.5779 -0.3217
  798MOL0     C 7609  10.160   6.727   4.363 -0.1742 -0.3165  0.0481
  798MOL0     C 7610  10.143   6.569   4.366  0.6078 -0.5650 -1.2703
  798MOL0     C 7611  10.271   6.514   4.436  1.2470  0.0878  0.6247
  798MOL0     N 7612  10.269   6.368   4.420 -0.0186 -0.2137  0.0183
  798MOL0     C 7613  10.207   6.283   4.499 -0.7963  0.8036 -0.0322
  798MOL0     C 7614  10.201   6.164   4.424 -0.2499  0.9313 -0.6787
  798MOL0     C 7615  10.136   6.045   4.480 -0.2130  0.9347 -0.7091
  798MOL0     C 7616  10.202   5.916   4.425 -0.2411 -0.3111  0.3502
  798MOL0     C 7617  10.137   5.781   4.464 -0.8101  0.4527 -0.2663
  798MOL0     C 7618  10.203   5.652   4.390 -0.5319 -0.0793  1.0968
  798MOL0     O 7619  10.165   5.662   4.247  0.0010  0.0199  0.0473
  798MOL0     C 7620  10.192   5.564   4.159 -0.0504  0.5968 -0.1116
  798MOL0     C 7621  10.142   5.601   4.033 -0.4551 -0.3599 -0.6251
  798MOL0     C 7622  10.168   5.511   3.922 -0.0628 -0.3527 -0.0552
  798MOL0     C 7623  10.244   5.392   3.941 -0.4579  1.0632  0.2820
  798MOL0     C 7624  10.277   5.300   3.824  0.3845 -0.0710  0.0107
  798MOL0     O 7625  10.318   5.182   3.861 -0.3619 -0.4807  0.5462
  798MOL0     C 7626  10.333   5.080   3.765  0.0326  0.7770 -0.6650
  798MOL0     C 7627  10.232   5.055   3.671  0.1281 -0.0381 -0.6796
  798MOL0     C 7628  10.247   4.946   3.579  0.0819  0.4480 -0.0029
  798MOL0     C 7629  10.366   4.872   3.574  0.3679 -0.0914 -0.7560
  798MOL0     O 7630  10.402   4.780   3.475  0.0352  0.5986 -0.7276
  798MOL0     C 7631  10.298   4.689   3.438 -0.1429  0.2485  0.8781
  798MOL0     C 7632  10.324   4.596   3.323  0.1504  0.5645 -0.7986
  798MOL0     C 7633  10.460   4.530   3.340  0.1167  0.5472  0.1507
  798MOL0     C 7634  10.466   4.377   3.299  0.2215  0.0793  0.4883
  798MOL0     C 7635  10.612   4.342   3.272  0.2356 -0.7671 -0.1302
  798MOL0     C 7636  10.672   4.379   3.135 -0.1299 -0.5424  0.4172
  798MOL0     C 7637  10.587   4.362   3.000  0.4207  0.0797 -1.0416
  798MOL0     C 7638  10.681   4.388   2.881  0.8652  1.0446 -0.7263
  798MOL0    Cl 7639  10.749   4.552   2.874 -0.2458  0.4043 -0.0284
  798MOL0     C 7640  10.468   4.897   3.664 -0.2091 -0.0912 -0.1912
  798MOL0     C 7641  10.450   4.998   3.758 -0.1713  0.7883 -1.5640
  798MOL0     O 7642  10.249   5.331   3.709 -0.3615  0.3368  0.6765
  798MOL0     C 7643  10.267   5.349   4.076  0.3738  0.3306 -0.3431
  798MOL0     C 7644  10.250   5.438   4.184  0.1302  0.3023 -0.9395
  798MOL0     N 7645  10.268   6.182   4.308 -0.0334  0.7729 -0.3924
  798MOL0     N 7646  10.301   6.308   4.301 -0.4260  0.1599  0.0467
  798MOL0     C 7647   9.741   7.576   4.184  0.0532  0.3538  0.5779
  798MOL0     C 7648   9.634   7.662   4.228  0.1580  0.7231 -0.1862
  798MOL0     C 7649   9.260   7.812   4.443 -0.9148 -0.5308 -0.1041
  798MOL0     C 7650   9.138   7.755   4.401  0.8560  0.4154 -0.4317
  798MOL0     C 7651   9.015   7.804   4.453 -0.4629  0.7016 -0.3741
  798MOL0     C 7652   9.014   7.905   4.538  0.2029 -0.3365  0.6220
  798MOL0     O 7653   8.896   7.946   4.576  0.2544  0.5977  0.0088
  798MOL0     C 7654   8.865   8.059   4.654 -0.0357 -0.6707  0.6853
  798MOL0     C 7655   8.716   8.067   4.672  0.8524 -0.2139 -0.0845
  798MOL0     C 7656   8.651   7.947   4.740  0.4455  0.9970  1.0492
  798MOL0     C 7657   8.516   7.984   4.801  0.5007  0.5588 -0.1731
  798MOL0     C 7658   8.481   7.878   4.892 -0.5117  0.0900 -0.5230
  798MOL0     C 7659   8.435   7.794   4.964  0.0804 -0.1292 -0.4837
  798MOL0     C 7660   9.135   7.972   4.573  0.3223  0.3013  0.4601
  798MOL0     C 7661   9.257   7.928   4.525 -0.7062  0.5883  0.7881
  798MOL0     C 7662   9.379   8.000   4.580 -0.7305  0.7223  0.6010
  798MOL0     H 7663   9.374   7.449   4.213 -0.4124  0.0271 -2.1077
  798MOL0     H 7664   9.547   7.302   4.142  3.0144 -0.9770  0.2036
  798MOL0     H 7665   9.751   7.220   4.269  2.9309 -2.7161  0.5938
  798MOL0     H 7666   9.733   7.159   4.103  2.4797 -0.3598 -3.8231
  798MOL0     H 7667   9.993   7.202   4.248  0.4779 -0.4797 -0.0680
  798MOL0     H 7668   9.978   7.154   4.079 -1.4156  2.0948 -0.9013
  798MOL0     H 7669   9.869   6.956   4.145 -1.0323 -0.1626  0.5407
  798MOL0     H 7670   9.864   6.991   4.322 -0.7329 -0.3998 -1.8583
  798MOL0     H 7671  10.113   6.936   4.154  0.4695 -0.2270 -0.1348
  798MOL0     H 7672  10.120   6.998   4.309  2.9831 -0.2370 -2.0125
  798MOL0     H 7673   9.954   6.774   4.363 -2.7202  0.7046 -2.7119
  798MOL0     H 7674  10.003   6.723   4.204 -4.8810 -1.8405  1.9434
  798MOL0     H 7675  10.242   6.762   4.299 -1.6483  2.7372 -0.3394
  798MOL0     H 7676  10.171   6.760   4.466 -2.2634  1.0083 -0.0939
  798MOL0     H 7677  10.128   6.531   4.265 -4.2752 -1.8443 -0.3528
  798MOL0     H 7678  10.052   6.545   4.422 -0.4956  0.1753 -2.6995
  798MOL0     H 7679  10.359   6.554   4.384  0.6889  2.8774  1.6201
  798MOL0     H 7680  10.270   6.549   4.540  0.2319  0.0322  0.6506
  798MOL0     H 7681  10.177   6.288   4.604  3.2834 -1.7746  1.4949
  798MOL0     H 7682  10.170   6.051   4.584  2.6329  0.1306 -1.4953
  798MOL0     H 7683  10.027   6.047   4.480 -0.2724  0.3282  1.3283
  798MOL0     H 7684  10.211   5.913   4.316 -0.6617  3.1358  0.1288
  798MOL0     H 7685  10.302   5.907   4.467 -0.8427 -1.1559  1.6801
  798MOL0     H 7686  10.033   5.777   4.432  0.0002 -2.0648 -3.1272
  798MOL0     H 7687  10.150   5.765   4.571 -1.1059  1.6517 -0.0398
  798MOL0     H 7688  10.168   5.558   4.433 -0.6246  0.0271  1.2532
  798MOL0     H 7689  10.310   5.664   4.409 -0.5792 -2.9658  4.0955
  798MOL0     H 7690  10.090   5.695   4.019 -0.9063 -0.8572 -2.6616
  798MOL0     H 7691  10.120   5.542   3.830 -0.5981  1.5805  0.8411
  798MOL0     H 7692  10.142   5.113   3.684  0.2216 -0.5447  3.5603
  798MOL0     H 7693  10.167   4.943   3.506 -2.7097 -0.2374  2.8862
  798MOL0     H 7694  10.262   4.631   3.523 -1.0375 -1.1147 -0.3793
  798MOL0     H 7695  10.224   4.747   3.383  0.7914  1.6730  1.0725
  798MOL0     H 7696  10.248   4.517   3.318 -2.4403  2.8701 -0.3210
  798MOL0     H 7697  10.318   4.658   3.233  0.1524  2.9065  0.7298
  798MOL0     H 7698  10.539   4.582   3.287  0.1839 -1.9712 -2.4554
  798MOL0     H 7699  10.496   4.539   3.443  3.0565  1.0934 -0.8529
  798MOL0     H 7700  10.406   4.359   3.210 -0.5923  3.3020  0.2853
  798MOL0     H 7701  10.430   4.309   3.377 -1.3465 -1.4203 -1.4626
  798MOL0     H 7702  10.608   4.233   3.275  0.6690 -0.8142  3.0190
  798MOL0     H 7703  10.688   4.374   3.345  1.0121  0.4152 -1.4050
  798MOL0     H 7704  10.716   4.479   3.137 -0.0984 -0.4426 -2.0970
  798MOL0     H 7705  10.758   4.312   3.129 -0.1040 -0.5831  1.1750
  798MOL0     H 7706  10.507   4.436   2.992 -0.9160 -1.4207 -2.6174
  798MOL0     H 7707  10.532   4.267   3.000 -3.6657  2.1420  1.8492
  798MOL0     H 7708  10.756   4.310   2.862 -0.8080 -0.0822 -3.2847
  798MOL0     H 7709  10.627   4.380   2.786 -0.3583  0.8920 -0.0408
  798MOL0     H 7710  10.567   4.853   3.657 -1.2193 -2.5828  0.2276
  798MOL0     H 7711  10.537   5.033   3.813 -0.4752  0.3961 -0.8063
  798MOL0     H 7712  10.308   5.251   4.095 -2.3942 -0.2310  4.1626
  798MOL0     H 7713  10.292   5.425   4.283 -3.2812  0.3968  0.6543
  798MOL0     H 7714   9.840   7.617   4.171 -0.9445  2.0190 -2.8315
  798MOL0     H 7715   9.652   7.765   4.257 -0.0921  0.6850  0.1015
  798MOL0     H 7716   9.136   7.670   4.334 -1.0333  0.0962 -0.0311
  798MOL0     H 7717   8.922   7.765   4.415  1.2756 -2.6804 -1.6016
  798MOL0     H 7718   8.898   8.143   4.592  0.1576 -3.7103 -3.8439
  798MOL0     H 7719   8.913   8.057   4.752 -0.6821  1.5258  1.0876
  798MOL0     H 7720   8.658   8.112   4.591 -0.3267 -0.2262  0.7259
  798MOL0     H 7721   8.699   8.149   4.744 -2.5309  0.1669 -1.1769
  798MOL0     H 7722   8.710   7.918   4.827  0.2475  2.0332  1.5376
  798MOL0     H 7723   8.633   7.857   4.681  0.8314  0.2800  2.0057
  798MOL0     H 7724   8.527   8.075   4.861 -0.6191  0.1133  0.7391
  798MOL0     H 7725   8.440   8.005   4.724  0.4360  0.2562 -0.1929
  798MOL0     H 7726   8.390   7.717   5.023  1.1747  0.5977  1.4109
  798MOL0     H 7727   9.126   8.048   4.650 -0.6402  1.1327 -0.4383
  798MOL0     H 7728   9.464   7.983   4.514 -1.7997 -0.1611 -0.6028
  798MOL0     H 7729   9.364   8.109   4.579 -0.7629  0.7438 -1.7988
  798MOL0     H 7730   9.402   7.961   4.680  0.2348  0.6551  0.3589
  799MOL0     O 7731   3.342   0.542   5.157 -0.1025  0.2075  0.0861
  799MOL0     C 7732   3.266   0.556   5.256  0.1108  0.1221  0.1284
  799MOL0     O 7733   3.170   0.471   5.302  0.2506  0.0069 -0.0160
  799MOL0     C 7734   3.178   0.333   5.277  0.1252  0.0570  0.5895
  799MOL0     C 7735   3.289   0.262   5.260  0.1492 -0.8192  0.1229
  799MOL0     C 7736   3.287   0.123   5.269 -0.6928  0.8322  0.9922
  799MOL0     C 7737   3.173   0.058   5.293  0.8345 -0.1362  0.2900
  799MOL0     O 7738   3.182  -0.084   5.309  0.1813 -0.3206  0.2116
  799MOL0     C 7739   3.068  -0.164   5.323  0.7373  0.1583  0.1480
  799MOL0     C 7740   3.119  -0.307   5.317  0.2361  2.1232 -0.1692
  799MOL0     C 7741   3.186  -0.358   5.451 -0.6775 -0.7823  1.5275
  799MOL0     C 7742   3.184  -0.502   5.444 -1.1262 -0.0749 -0.1364
  799MOL0     C 7743   3.236  -0.562   5.578  0.3883  0.1644  0.0210
  799MOL0     C 7744   3.229  -0.720   5.586 -0.7062 -0.9335 -0.5992
  799MOL0     C 7745   3.334  -0.785   5.495  0.3995  0.8128  0.9514
  799MOL0     C 7746   3.340  -0.935   5.481 -0.2555 -0.1785 -0.4903
  799MOL0     N 7747   3.205  -1.002   5.469 -0.2677 -0.2067  0.9283
  799MOL0     C 7748   3.180  -1.123   5.529  0.5149 -0.7511  0.4364
  799MOL0     C 7749   3.058  -1.150   5.487 -0.0225  0.0590  0.2959
  799MOL0     C 7750   2.971  -1.251   5.535  0.9444  0.4855 -0.0461
  799MOL0     C 7751   2.916  -1.237   5.673  0.1456 -0.4275  0.3157
  799MOL0     C 7752   2.775  -1.156   5.665  0.1474 -0.4312  0.1161
  799MOL0     C 7753   2.788  -1.005   5.635  0.0756  0.2554  0.0337
  799MOL0     O 7754   2.808  -0.934   5.757 -0.5211 -0.2469 -0.1981
  799MOL0     C 7755   2.748  -0.815   5.784 -1.0610 -0.2739  0.3095
  799MOL0     C 7756   2.794  -0.753   5.903 -0.4859  0.4285  0.9051
  799MOL0     C 7757   2.742  -0.631   5.956  0.2050  0.2537  0.2194
  799MOL0     C 7758   2.648  -0.567   5.876  0.6144  0.0086 -0.4368
  799MOL0     C 7759   2.576  -0.448   5.918 -0.4344  0.1198  0.0526
  799MOL0     O 7760   2.453  -0.414   5.865 -0.2514 -0.3018 -0.2478
  799MOL0     C 7761   2.403  -0.284   5.876  0.4058  0.3678 -1.2867
  799MOL0     C 7762   2.398  -0.210   5.990 -0.0682 -0.0382  0.5660
  799MOL0     C 7763   2.350  -0.077   5.985  1.1967  1.1538  0.5213
  799MOL0     C 7764   2.291  -0.023   5.873 -0.2677  0.2617 -0.2864
  799MOL0     O 7765   2.258   0.112   5.870 -0.0205  0.2683 -0.3514
  799MOL0     C 7766   2.225   0.177   5.745  0.3336 -0.1598 -0.0008
  799MOL0     C 7767   2.214   0.324   5.802 -0.3476  0.2958  0.4036
  799MOL0     C 7768   2.167   0.429   5.693 -0.0683  0.8023 -0.4421
  799MOL0     C 7769   2.168   0.559   5.779  0.0100  0.3860 -0.5208
  799MOL0     C 7770   2.128   0.685   5.703  1.3687  1.0486  0.6084
  799MOL0     C 7771   2.187   0.685   5.560 -0.0837  0.5416  0.7488
  799MOL0     C 7772   2.214   0.817   5.492 -0.3700  0.0459  1.4042
  799MOL0     C 7773   2.278   0.908   5.592  0.5714  0.5572 -0.2205
  799MOL0    Cl 7774   2.371   1.047   5.510 -0.5275  0.2030  0.3364
  799MOL0     C 7775   2.288  -0.101   5.755 -0.7323 -0.3721 -0.7608
  799MOL0     C 7776   2.350  -0.234   5.752 -0.0001 -0.1721  0.1694
  799MOL0     O 7777   2.645  -0.372   5.982  0.4513  0.7588 -0.1644
  799MOL0     C 7778   2.606  -0.635   5.758  1.0774 -0.2058 -0.2094
  799MOL0     C 7779   2.647  -0.763   5.720 -0.0730 -0.0083 -0.2128
  799MOL0     N 7780   3.020  -1.053   5.391  0.4650  0.4701  0.3832
  799MOL0     N 7781   3.114  -0.965   5.380  0.0182 -0.0671 -0.2260
  799MOL0     C 7782   3.047   0.129   5.311  0.2646  0.2496 -0.5473
  799MOL0     C 7783   3.058   0.267   5.294  0.2947 -0.1960 -0.2015
  799MOL0     C 7784   3.287   0.678   5.323  0.5951  0.4985 -0.1864
  799MOL0     C 7785   3.279   0.679   5.467  0.1252 -0.2092  0.1564
  799MOL0     C 7786   3.305   0.792   5.551  0.4592 -0.1675  0.7322
  799MOL0     C 7787   3.330   0.911   5.480  1.3660  0.3587 -0.0963
  799MOL0     O 7788   3.347   1.030   5.561  0.2990  0.1948  1.3780
  799MOL0     C 7789   3.237   1.100   5.596  0.0377  0.4559 -1.6653
  799MOL0     C 7790   3.245   1.111   5.749  0.4398 -0.4811 -0.3965
  799MOL0     C 7791   3.143   1.199   5.818 -0.6986  0.0381  0.3795
  799MOL0     C 7792   3.008   1.131   5.843 -0.1118  0.2046  0.3548
  799MOL0     C 7793   2.915   1.154   5.732  0.1954 -0.1295 -0.3484
  799MOL0     C 7794   2.837   1.174   5.654  1.1820  0.0785 -1.0225
  799MOL0     C 7795   3.337   0.918   5.346  0.0208  0.0700  0.3939
  799MOL0     C 7796   3.318   0.804   5.264 -0.2505 -0.2522  0.7768
  799MOL0     C 7797   3.338   0.827   5.115 -0.3193  0.1795 -0.5092
  799MOL0     H 7798   3.386   0.308   5.244 -1.1895  1.4459 -2.2928
  799MOL0     H 7799   3.375   0.063   5.248 -1.8010 -0.7169  0.6214
  799MOL0     H 7800   3.026  -0.145   5.423  0.8665 -1.1796  0.4677
  799MOL0     H 7801   2.987  -0.143   5.252 -0.0964 -0.4022  0.9053
  799MOL0     H 7802   3.191  -0.322   5.237  1.5194 -4.2129  1.6581
  799MOL0     H 7803   3.038  -0.377   5.293  2.7302 -1.4125  0.9846
  799MOL0     H 7804   3.126  -0.332   5.539 -0.5963 -1.6581  1.8509
  799MOL0     H 7805   3.289  -0.323   5.458  0.2264 -2.7345 -0.5085
  799MOL0     H 7806   3.080  -0.531   5.424 -0.6959 -1.9566  0.1229
  799MOL0     H 7807   3.252  -0.548   5.372 -0.3968 -0.3872  0.7312
  799MOL0     H 7808   3.339  -0.530   5.599  0.5868 -0.3903 -0.0915
  799MOL0     H 7809   3.157  -0.538   5.649 -3.0605 -0.9310 -3.1613
  799MOL0     H 7810   3.251  -0.754   5.687 -0.9330 -0.5623 -0.4219
  799MOL0     H 7811   3.129  -0.751   5.555 -0.0057 -4.6086  0.3320
  799MOL0     H 7812   3.436  -0.751   5.513  1.8289 -2.2535 -0.6213
  799MOL0     H 7813   3.302  -0.751   5.396  0.4184  1.8284  1.2832
  799MOL0     H 7814   3.412  -0.960   5.403  1.7127 -0.8693  1.4753
  799MOL0     H 7815   3.396  -0.959   5.571  0.8749  0.6219 -0.9655
  799MOL0     H 7816   3.236  -1.177   5.605  2.3361 -0.9488 -0.9922
  799MOL0     H 7817   2.886  -1.265   5.468  1.0967 -3.0439  0.2820
  799MOL0     H 7818   3.030  -1.343   5.539  1.7463  0.8784 -1.9086
  799MOL0     H 7819   2.899  -1.338   5.708  0.5047 -1.7894 -3.0091
  799MOL0     H 7820   2.998  -1.197   5.733  2.4536  1.2864 -3.5467
  799MOL0     H 7821   2.727  -1.169   5.763  1.2872 -3.2811  0.4003
  799MOL0     H 7822   2.720  -1.203   5.583  2.2626 -1.3238 -0.8382
  799MOL0     H 7823   2.695  -0.991   5.580  1.8588 -0.0753 -3.3233
  799MOL0     H 7824   2.872  -0.975   5.571  0.8409  1.2976  1.4721
  799MOL0     H 7825   2.866  -0.812   5.959  2.5909  2.4781 -0.6082
  799MOL0     H 7826   2.766  -0.588   6.052  4.0452 -1.7447  0.3669
  799MOL0     H 7827   2.434  -0.248   6.085 -0.6252 -0.4659  0.6092
  799MOL0     H 7828   2.371  -0.014   6.070 -2.3060 -0.3966  2.7706
  799MOL0     H 7829   2.304   0.162   5.672  1.4412 -0.9279  1.3164
  799MOL0     H 7830   2.127   0.147   5.706 -1.8737 -0.0095  4.6721
  799MOL0     H 7831   2.141   0.308   5.881 -3.5849 -2.3295 -2.7957
  799MOL0     H 7832   2.315   0.350   5.835 -0.4393 -0.1772  1.0778
  799MOL0     H 7833   2.241   0.422   5.613  2.9586  1.1019  2.1467
  799MOL0     H 7834   2.063   0.421   5.660 -1.0175  2.4499  1.8869
  799MOL0     H 7835   2.274   0.571   5.805 -0.3811  0.8590  0.9542
  799MOL0     H 7836   2.097   0.545   5.861 -0.9088  0.6558 -1.2583
  799MOL0     H 7837   2.155   0.774   5.761  3.2000  1.7508 -1.2022
  799MOL0     H 7838   2.021   0.667   5.695  1.4294  0.5034  1.0202
  799MOL0     H 7839   2.278   0.624   5.558 -0.0358  0.6220 -0.5986
  799MOL0     H 7840   2.108   0.634   5.504  2.4463 -1.9651 -0.7818
  799MOL0     H 7841   2.125   0.865   5.448 -0.2275 -0.9687 -0.0729
  799MOL0     H 7842   2.287   0.789   5.415  3.2960  4.0754  2.9712
  799MOL0     H 7843   2.198   0.952   5.652  0.5166 -0.0027  0.1188
  799MOL0     H 7844   2.350   0.853   5.653  2.1735  2.5182 -0.2456
  799MOL0     H 7845   2.235  -0.066   5.667  0.2398 -0.4199 -1.3774
  799MOL0     H 7846   2.361  -0.290   5.660 -0.5185 -0.1545  0.0966
  799MOL0     H 7847   2.535  -0.580   5.697 -0.0360  0.0574  1.2706
  799MOL0     H 7848   2.584  -0.816   5.650  1.4602 -2.6595  0.2581
  799MOL0     H 7849   2.957   0.080   5.346  1.7907 -1.2038  1.6345
  799MOL0     H 7850   2.974   0.333   5.313  1.4574  1.5808 -0.9700
  799MOL0     H 7851   3.237   0.590   5.513 -3.6813  1.1879 -0.3026
  799MOL0     H 7852   3.309   0.802   5.659  2.4020 -1.6452  0.8550
  799MOL0     H 7853   3.146   1.040   5.582  0.1461 -0.0425 -0.4067
  799MOL0     H 7854   3.222   1.193   5.541  0.5069 -1.0044 -4.4022
  799MOL0     H 7855   3.338   1.163   5.775 -0.8198  0.9744  1.4452
  799MOL0     H 7856   3.258   1.013   5.796 -1.0073 -1.6565 -2.3313
  799MOL0     H 7857   3.125   1.284   5.751  2.0754  0.0193 -0.4925
  799MOL0     H 7858   3.185   1.203   5.919 -0.6691 -2.2677  0.4967
  799MOL0     H 7859   3.031   1.025   5.852  3.1197  0.8365  0.7021
  799MOL0     H 7860   2.962   1.156   5.939 -1.8250  0.6274 -0.5320
  799MOL0     H 7861   2.756   1.198   5.587 -1.4100 -0.5712  1.6510
  799MOL0     H 7862   3.365   1.015   5.305 -1.4665  0.6424  0.6414
  799MOL0     H 7863   3.347   0.935   5.102 -0.8998  0.1520 -1.2113
  799MOL0     H 7864   3.431   0.774   5.094 -1.2326 -2.1426  0.8757
  799MOL0     H 7865   3.262   0.801   5.040 -1.1405  6.1504 -2.2361
  800MOL0     O 7866  11.000   5.353   6.580 -0.8649 -0.3818  0.0444
  800MOL0     C 7867  10.997   5.465   6.542 -0.3087 -0.2692 -0.1272
  800MOL0     O 7868  10.927   5.567   6.601 -0.0160  0.9218 -0.0717
  800MOL0     C 7869  10.858   5.539   6.721  0.2746  0.3066  0.1248
  800MOL0     C 7870  10.926   5.567   6.836  0.0638  0.1992 -0.7253
  800MOL0     C 7871  10.874   5.555   6.969 -0.1139 -0.6661 -0.1012
  800MOL0     C 7872  10.748   5.499   6.988 -0.0511  0.1533 -0.5889
  800MOL0     O 7873  10.694   5.488   7.118 -0.7483  0.0367  0.3203
  800MOL0     C 7874  10.558   5.443   7.138  0.7371  0.3395  1.3973
  800MOL0     C 7875  10.493   5.450   7.275  0.0486 -1.0089  0.3186
  800MOL0     C 7876  10.348   5.435   7.265 -0.0475  0.6465 -0.5134
  800MOL0     C 7877  10.281   5.418   7.406  0.1278 -0.0630  0.3610
  800MOL0     C 7878  10.130   5.411   7.369 -0.4878 -0.3664 -0.1702
  800MOL0     C 7879  10.064   5.315   7.471 -0.0594 -0.5129 -0.3502
  800MOL0     C 7880   9.915   5.304   7.459 -0.0395 -0.5187 -0.2999
  800MOL0     C 7881   9.833   5.418   7.537  0.6164  0.7890 -0.0543
  800MOL0     N 7882   9.687   5.386   7.532 -0.1328  0.1592  0.4175
  800MOL0     C 7883   9.609   5.380   7.415  0.8042  0.3258 -0.1814
  800MOL0     C 7884   9.481   5.341   7.459 -0.1335 -0.5323 -1.2220
  800MOL0     C 7885   9.357   5.298   7.372  0.2379  0.4252 -0.0804
  800MOL0     C 7886   9.223   5.300   7.455 -0.7588 -0.6682  0.2558
  800MOL0     C 7887   9.124   5.231   7.365 -0.4073 -0.6223  0.1543
  800MOL0     C 7888   8.988   5.223   7.438  0.0555 -0.2872  0.3023
  800MOL0     O 7889   8.885   5.225   7.332  0.3435  0.5476 -0.3178
  800MOL0     C 7890   8.757   5.166   7.364 -0.3654 -0.9555  0.2680
  800MOL0     C 7891   8.660   5.163   7.269  0.4059 -0.3404  0.2686
  800MOL0     C 7892   8.532   5.119   7.297  0.0145 -0.5652  0.1625
  800MOL0     C 7893   8.494   5.091   7.433 -0.1455  0.0086  0.5644
  800MOL0     C 7894   8.347   5.089   7.473  0.2570 -0.5666  0.5085
  800MOL0     O 7895   8.267   5.125   7.366 -0.5221 -0.4382  0.7571
  800MOL0     C 7896   8.136   5.141   7.384 -0.5489 -0.3358 -0.3616
  800MOL0     C 7897   8.064   5.069   7.294  0.0924 -0.5204 -0.4594
  800MOL0     C 7898   7.923   5.055   7.301  0.2141 -0.0188 -0.0614
  800MOL0     C 7899   7.848   5.130   7.394  0.0593 -0.5750 -0.5622
  800MOL0     O 7900   7.712   5.104   7.408 -0.0447 -0.4010 -0.0820
  800MOL0     C 7901   7.631   5.180   7.503  0.7403 -0.3568  0.2629
  800MOL0     C 7902   7.494   5.194   7.442 -0.3915 -0.6015 -0.4218
  800MOL0     C 7903   7.397   5.074   7.450  0.2408  1.3780  0.2323
  800MOL0     C 7904   7.357   5.023   7.321 -0.7141 -0.1550 -0.5944
  800MOL0     C 7905   7.241   4.921   7.333 -0.2041  0.0748  0.7616
  800MOL0     C 7906   7.223   4.832   7.217 -0.2428  0.8756  0.4219
  800MOL0     C 7907   7.077   4.775   7.238 -0.4619 -0.4794 -0.6814
  800MOL0     C 7908   7.028   4.696   7.116 -0.6416  0.2219  0.3352
  800MOL0    Cl 7909   7.101   4.771   6.961  0.1411  0.2645 -0.0451
  800MOL0     C 7910   7.921   5.203   7.486 -0.1190  1.0928 -0.4973
  800MOL0     C 7911   8.065   5.213   7.484  0.2130 -0.0283  0.0630
  800MOL0     O 7912   8.309   5.064   7.591  0.6283  0.0758  0.7310
  800MOL0     C 7913   8.594   5.090   7.528  0.1886  0.2343  0.8367
  800MOL0     C 7914   8.718   5.125   7.486 -0.2144  0.8065 -0.6333
  800MOL0     N 7915   9.497   5.295   7.587 -0.6828 -0.2050  0.6647
  800MOL0     N 7916   9.605   5.339   7.629 -0.5095 -0.3082 -0.8772
  800MOL0     C 7917  10.678   5.464   6.865  0.5853  0.1001  0.4167
  800MOL0     C 7918  10.729   5.481   6.735  0.9615  0.6154 -0.4974
  800MOL0     C 7919  11.084   5.490   6.419 -0.0540  0.2739  0.8042
  800MOL0     C 7920  11.130   5.624   6.408 -0.7317  0.0180  0.4142
  800MOL0     C 7921  11.212   5.664   6.302 -0.6846 -0.4112  0.5378
  800MOL0     C 7922  11.233   5.562   6.207 -0.3907  0.6548  0.5076
  800MOL0     O 7923  11.302   5.574   6.084  0.3745 -0.0498 -0.8680
  800MOL0     C 7924  11.287   5.701   6.018  0.1876 -0.1804  0.3955
  800MOL0     C 7925  11.358   5.705   5.886  0.1082 -0.6826  0.3881
  800MOL0     C 7926  11.506   5.733   5.908 -0.4248  0.1436  0.4493
  800MOL0     C 7927  11.592   5.719   5.785 -0.5186 -1.2098 -0.2186
  800MOL0     C 7928  11.562   5.814   5.681 -0.0512 -0.1786 -0.1402
  800MOL0     C 7929  11.544   5.899   5.597  0.1158  0.4065 -0.0829
  800MOL0     C 7930  11.193   5.431   6.218  0.2190  0.4102  0.5634
  800MOL0     C 7931  11.112   5.395   6.317  0.6043  0.4313 -0.2107
  800MOL0     C 7932  11.064   5.257   6.310  0.0227  0.1412 -0.1728
  800MOL0     H 7933  11.024   5.613   6.836 -0.5411  1.6574  1.5920
  800MOL0     H 7934  10.941   5.580   7.050 -0.6096  2.2518 -0.4948
  800MOL0     H 7935  10.498   5.504   7.070 -0.1841 -0.6894  1.2561
  800MOL0     H 7936  10.552   5.337   7.113 -4.0227  0.5547  0.6004
  800MOL0     H 7937  10.512   5.547   7.322 -1.0297  0.4677 -2.0632
  800MOL0     H 7938  10.534   5.371   7.339 -0.7165 -0.5196  1.4486
  800MOL0     H 7939  10.331   5.339   7.216  1.2655 -2.5185  4.5307
  800MOL0     H 7940  10.292   5.520   7.226 -2.7231 -0.1483  1.2789
  800MOL0     H 7941  10.321   5.332   7.460  0.1864 -0.7540 -0.7550
  800MOL0     H 7942  10.309   5.504   7.467 -0.5877 -0.0422  0.6737
  800MOL0     H 7943  10.086   5.510   7.350 -0.2061 -0.6412 -2.5730
  800MOL0     H 7944  10.124   5.360   7.272  0.0591  0.1300 -0.4781
  800MOL0     H 7945  10.114   5.218   7.466 -2.5885 -1.8448 -1.8713
  800MOL0     H 7946  10.082   5.355   7.571 -3.0792 -1.3602  0.6299
  800MOL0     H 7947   9.891   5.204   7.497 -2.3438  0.1816  0.2589
  800MOL0     H 7948   9.865   5.314   7.363 -0.5740  3.0179  0.2106
  800MOL0     H 7949   9.863   5.435   7.641  1.0380 -0.9083  0.1293
  800MOL0     H 7950   9.843   5.517   7.491  1.0539  1.4509  1.4141
  800MOL0     H 7951   9.642   5.414   7.317  1.9266  0.7158  0.3127
  800MOL0     H 7952   9.344   5.364   7.286  1.4321  2.8269  1.4611
  800MOL0     H 7953   9.375   5.195   7.339  2.5550  0.7273  0.0948
  800MOL0     H 7954   9.224   5.239   7.545 -1.3479 -0.4230  0.4300
  800MOL0     H 7955   9.202   5.404   7.480 -1.3955 -1.0666  1.4592
  800MOL0     H 7956   9.148   5.126   7.347  1.0147 -0.3195  0.1330
  800MOL0     H 7957   9.121   5.272   7.263  2.5218 -1.0164 -0.1725
  800MOL0     H 7958   8.981   5.299   7.516  0.9294  0.5809 -0.4500
  800MOL0     H 7959   8.992   5.126   7.489  0.7094 -0.6682 -0.4533
  800MOL0     H 7960   8.685   5.198   7.169 -0.2656 -1.1954 -0.2096
  800MOL0     H 7961   8.454   5.109   7.222 -1.7516 -2.2666  2.1175
  800MOL0     H 7962   8.118   5.025   7.210  2.0579  3.7148 -1.6900
  800MOL0     H 7963   7.853   4.994   7.244  0.7497 -0.5378 -0.1691
  800MOL0     H 7964   7.625   5.127   7.598  1.0116 -2.3927 -0.7899
  800MOL0     H 7965   7.670   5.280   7.522 -1.0076  0.1294  1.5403
  800MOL0     H 7966   7.439   5.280   7.482 -0.1157  1.1737 -3.5425
  800MOL0     H 7967   7.512   5.221   7.337  2.2458 -0.4665  0.0177
  800MOL0     H 7968   7.454   5.009   7.518 -1.2733  2.2013  2.4363
  800MOL0     H 7969   7.306   5.108   7.501 -0.4432  0.2189 -0.1662
  800MOL0     H 7970   7.429   4.958   7.271 -0.1210 -1.1480  1.4325
  800MOL0     H 7971   7.325   5.106   7.257 -2.7447  0.4925  1.1266
  800MOL0     H 7972   7.152   4.972   7.370  0.6539  0.6449  2.1027
  800MOL0     H 7973   7.261   4.856   7.419 -1.1371 -0.9332  0.2465
  800MOL0     H 7974   7.232   4.895   7.129 -0.0406  0.8988  0.4583
  800MOL0     H 7975   7.306   4.763   7.203  1.4211  2.9002 -0.1952
  800MOL0     H 7976   7.007   4.856   7.260  0.4653  0.3423 -0.6864
  800MOL0     H 7977   7.072   4.703   7.321 -2.8606  0.3585 -0.0275
  800MOL0     H 7978   7.056   4.590   7.114 -2.3268 -0.2934  1.6721
  800MOL0     H 7979   6.919   4.699   7.107 -0.6237 -0.4523 -0.2817
  800MOL0     H 7980   7.876   5.255   7.569  3.6396  1.3829  1.5506
  800MOL0     H 7981   8.129   5.271   7.550  2.8003 -2.8030  0.2293
  800MOL0     H 7982   8.560   5.073   7.630 -1.6310  1.2740  0.4458
  800MOL0     H 7983   8.793   5.122   7.565 -0.6462 -1.5063 -0.2436
  800MOL0     H 7984  10.582   5.419   6.890  0.4282 -0.5870 -1.2992
  800MOL0     H 7985  10.680   5.455   6.641 -1.4017  1.5672  0.3902
  800MOL0     H 7986  11.095   5.688   6.489 -0.9951  0.6202 -0.1673
  800MOL0     H 7987  11.260   5.758   6.279 -1.6464  0.1667  0.8201
  800MOL0     H 7988  11.326   5.780   6.083  0.1896 -0.3215  0.5654
  800MOL0     H 7989  11.181   5.714   5.997  0.2339  0.9946  0.7925
  800MOL0     H 7990  11.315   5.788   5.828  0.6905 -0.9107 -0.3851
  800MOL0     H 7991  11.343   5.614   5.827  0.9953 -0.5721 -0.0224
  800MOL0     H 7992  11.555   5.672   5.985 -0.4765 -2.6406 -1.5826
  800MOL0     H 7993  11.512   5.836   5.945 -1.5635  0.5603 -0.4831
  800MOL0     H 7994  11.695   5.749   5.809 -0.8569  0.5283 -0.7885
  800MOL0     H 7995  11.596   5.614   5.756 -1.7061 -1.6656  1.1793
  800MOL0     H 7996  11.532   5.973   5.520 -2.2747  1.3247  1.0722
  800MOL0     H 7997  11.214   5.367   6.133 -1.4149 -0.2166  0.5995
  800MOL0     H 7998  10.959   5.260   6.342 -0.0230 -0.3809 -0.2699
  800MOL0     H 7999  11.074   5.220   6.207  0.2632  1.2594 -0.5653
  800MOL0     H 8000  11.127   5.193   6.372 -0.4459 -1.1901 -1.0090
  801MOL0     O 8001   1.781   0.391   5.112  0.1767 -0.0011 -0.1045
  801MOL0     C 8002   1.826   0.424   5.008  0.2967  0.5961 -0.6338
  801MOL0     O 8003   1.815   0.362   4.899  0.7795 -0.1313  0.2338
  801MOL0     C 8004   1.796   0.225   4.907  1.2484  0.4134 -0.1636
  801MOL0     C 8005   1.840   0.123   5.001  1.1867  0.3392  0.6412
  801MOL0     C 8006   1.825  -0.015   4.983 -0.1742 -0.3417 -0.1979
  801MOL0     C 8007   1.754  -0.064   4.873 -0.3656 -0.2195 -0.8072
  801MOL0     O 8008   1.739  -0.201   4.870  0.2420 -0.0646  0.2171
  801MOL0     C 8009   1.676  -0.256   4.755 -0.5837  0.6386 -0.0445
  801MOL0     C 8010   1.608  -0.390   4.782 -0.7149  1.1640  0.1362
  801MOL0     C 8011   1.620  -0.479   4.646 -0.1918 -0.4191 -0.9450
  801MOL0     C 8012   1.511  -0.586   4.651 -0.6664  0.7228 -0.0933
  801MOL0     C 8013   1.498  -0.645   4.507 -0.9075  0.0314 -0.1535
  801MOL0     C 8014   1.384  -0.753   4.492  0.3398  0.4917  0.7886
  801MOL0     C 8015   1.392  -0.832   4.358 -0.5901 -0.1836 -0.5924
  801MOL0     C 8016   1.500  -0.939   4.367  0.0172  0.5943  0.6350
  801MOL0     N 8017   1.518  -1.009   4.243  1.0033 -0.2445  0.4952
  801MOL0     C 8018   1.414  -1.079   4.170  0.7785  0.6261  0.2227
  801MOL0     C 8019   1.465  -1.091   4.042 -0.2607  0.5978 -0.9051
  801MOL0     C 8020   1.401  -1.151   3.916  0.2419 -0.2288  0.8754
  801MOL0     C 8021   1.331  -1.047   3.824  0.2468  0.7234 -0.6969
  801MOL0     C 8022   1.273  -1.098   3.694  0.4908 -0.9957  0.1221
  801MOL0     C 8023   1.371  -1.109   3.575  0.6292  0.0186  0.6816
  801MOL0     O 8024   1.309  -1.094   3.445  0.1522 -0.3933 -0.9546
  801MOL0     C 8025   1.214  -1.180   3.390 -0.6190 -0.7076 -0.7749
  801MOL0     C 8026   1.184  -1.314   3.422  0.4853 -0.6496  0.6286
  801MOL0     C 8027   1.091  -1.393   3.366  0.9309  0.1901 -0.3362
  801MOL0     C 8028   1.005  -1.336   3.258 -0.4720  1.3040 -1.0345
  801MOL0     C 8029   0.923  -1.418   3.171 -0.4284 -0.1964  0.2825
  801MOL0     O 8030   0.945  -1.556   3.170  1.0811 -1.0494  0.2838
  801MOL0     C 8031   0.855  -1.632   3.109  1.3085  1.0120 -0.5706
  801MOL0     C 8032   0.898  -1.717   3.005  0.0887 -0.2881  0.4586
  801MOL0     C 8033   0.813  -1.813   2.953 -0.1226  0.6645  1.0613
  801MOL0     C 8034   0.689  -1.847   3.006  0.4555 -0.3836  0.1865
  801MOL0     O 8035   0.635  -1.959   2.950  0.6455 -0.0425  0.3827
  801MOL0     C 8036   0.526  -2.003   3.023  0.3346 -0.5597 -0.3864
  801MOL0     C 8037   0.496  -2.139   2.973  0.1537  0.0339 -0.1757
  801MOL0     C 8038   0.377  -2.205   3.054 -0.1922  0.0590 -0.4541
  801MOL0     C 8039   0.356  -2.352   3.017  0.8937 -0.4249  0.3903
  801MOL0     C 8040   0.297  -2.379   2.879  0.6023 -0.0665  0.1843
  801MOL0     C 8041   0.164  -2.310   2.853 -0.9108  1.1353 -0.2894
  801MOL0     C 8042   0.077  -2.375   2.754  0.1294 -0.1985  0.4785
  801MOL0     C 8043  -0.071  -2.348   2.752  0.1066 -0.3034 -0.4769
  801MOL0    Cl 8044  -0.151  -2.447   2.882 -0.0836 -0.1007  0.1954
  801MOL0     C 8045   0.645  -1.750   3.110 -0.3083 -0.1021  0.1741
  801MOL0     C 8046   0.727  -1.651   3.160  0.3008  0.3966 -0.6101
  801MOL0     O 8047   0.852  -1.357   3.103  0.0487  0.6613  0.2265
  801MOL0     C 8048   1.026  -1.195   3.222  0.0568 -0.5232  0.2451
  801MOL0     C 8049   1.132  -1.129   3.287 -0.4324 -0.3422  1.2007
  801MOL0     N 8050   1.578  -1.012   4.033 -0.3782 -0.1920  0.1085
  801MOL0     N 8051   1.618  -0.978   4.154 -0.6489  0.2167 -0.4659
  801MOL0     C 8052   1.709   0.030   4.780  0.4744 -1.0587  0.3347
  801MOL0     C 8053   1.742   0.169   4.787 -0.0424 -0.0517 -0.1363
  801MOL0     C 8054   1.907   0.552   4.998  0.2291  0.2351  0.7006
  801MOL0     C 8055   1.957   0.591   4.865  0.2271  0.3333 -0.9998
  801MOL0     C 8056   2.021   0.709   4.848 -1.3365 -0.8801  0.0133
  801MOL0     C 8057   2.048   0.798   4.960  0.3415  0.6412 -0.1810
  801MOL0     O 8058   2.086   0.926   4.939  0.8484  0.4624 -0.5821
  801MOL0     C 8059   2.217   0.944   4.875 -0.1316  0.3529  0.1242
  801MOL0     C 8060   2.328   0.939   4.978 -0.1797 -0.2376 -0.5437
  801MOL0     C 8061   2.324   1.042   5.098 -0.0976 -0.5928 -0.3594
  801MOL0     C 8062   2.455   1.088   5.165 -0.7334  0.0255  0.4481
  801MOL0     C 8063   2.538   1.144   5.063 -0.3794 -0.1123 -0.4831
  801MOL0     C 8064   2.623   1.169   4.982  1.6375 -0.6723  0.4825
  801MOL0     C 8065   2.007   0.760   5.088 -0.1803 -0.1960  0.0977
  801MOL0     C 8066   1.943   0.642   5.106  1.1784  0.1448  0.6378
  801MOL0     C 8067   1.885   0.621   5.250  0.6608 -1.5114 -0.3672
  801MOL0     H 8068   1.889   0.149   5.094 -0.5211  0.1760  1.6401
  801MOL0     H 8069   1.851  -0.090   5.057 -1.0949  0.1586  0.6536
  801MOL0     H 8070   1.599  -0.190   4.715 -0.9298  1.3651  1.6953
  801MOL0     H 8071   1.758  -0.273   4.685  0.1036  1.0946  0.6375
  801MOL0     H 8072   1.502  -0.379   4.807 -1.2213 -1.2039 -0.7107
  801MOL0     H 8073   1.661  -0.446   4.860 -0.2838 -1.5279 -1.9593
  801MOL0     H 8074   1.723  -0.513   4.630 -0.3058 -0.2878 -2.0128
  801MOL0     H 8075   1.592  -0.407   4.569  1.1516  1.4093  0.1994
  801MOL0     H 8076   1.523  -0.655   4.735 -2.1646 -1.1386 -1.3539
  801MOL0     H 8077   1.419  -0.536   4.684 -1.7890 -1.7013  0.6855
  801MOL0     H 8078   1.478  -0.561   4.441  3.2928 -1.1332 -3.3474
  801MOL0     H 8079   1.594  -0.693   4.483 -0.3498  2.3583 -3.0987
  801MOL0     H 8080   1.398  -0.817   4.579 -0.0922 -1.0959 -0.2569
  801MOL0     H 8081   1.287  -0.713   4.521  0.8056  2.3689 -0.0880
  801MOL0     H 8082   1.414  -0.767   4.273  1.7986 -1.3078 -0.9017
  801MOL0     H 8083   1.296  -0.884   4.345 -1.6485  0.5933  2.9588
  801MOL0     H 8084   1.597  -0.888   4.377  0.7523 -0.8805  1.2614
  801MOL0     H 8085   1.491  -1.000   4.457  1.6600  2.3151  2.0839
  801MOL0     H 8086   1.322  -1.113   4.217  1.2176  0.0400  0.6845
  801MOL0     H 8087   1.479  -1.183   3.847  0.0337  2.0469 -0.5250
  801MOL0     H 8088   1.339  -1.234   3.950  1.5912 -0.9616  1.6496
  801MOL0     H 8089   1.245  -1.015   3.884  2.5408 -0.3485  3.5358
  801MOL0     H 8090   1.400  -0.964   3.806 -0.0631  1.0140 -0.5663
  801MOL0     H 8091   1.194  -1.026   3.668  1.9569  1.6515  2.4347
  801MOL0     H 8092   1.220  -1.191   3.715 -0.8050 -0.4836 -0.7662
  801MOL0     H 8093   1.424  -1.205   3.576  0.8854  0.0765 -1.6994
  801MOL0     H 8094   1.447  -1.032   3.591  1.3856 -0.8762  1.6030
  801MOL0     H 8095   1.245  -1.355   3.501  1.3203 -0.7901 -0.0821
  801MOL0     H 8096   1.078  -1.493   3.406  1.0064 -0.1097 -1.0409
  801MOL0     H 8097   0.990  -1.715   2.948 -0.7098 -1.4420 -0.9054
  801MOL0     H 8098   0.865  -1.874   2.880  3.3594  2.3409  1.9500
  801MOL0     H 8099   0.540  -2.008   3.132 -1.3606  3.0844  0.1268
  801MOL0     H 8100   0.450  -1.928   2.998  0.6539  0.9002  2.5857
  801MOL0     H 8101   0.465  -2.138   2.868  1.6215 -1.4342 -0.6531
  801MOL0     H 8102   0.579  -2.210   2.974 -1.1354 -1.5351 -0.9629
  801MOL0     H 8103   0.414  -2.203   3.157  0.6948  0.4897 -0.7719
  801MOL0     H 8104   0.278  -2.161   3.036 -0.1791 -0.5095 -2.1189
  801MOL0     H 8105   0.281  -2.400   3.081  1.6288 -2.0345  0.1004
  801MOL0     H 8106   0.445  -2.414   3.033  1.7447  0.2716 -1.4005
  801MOL0     H 8107   0.273  -2.485   2.869  0.1630  0.0880 -0.4400
  801MOL0     H 8108   0.366  -2.342   2.802  2.4400  0.5739  2.0290
  801MOL0     H 8109   0.106  -2.309   2.946  1.5669 -0.3374  1.3826
  801MOL0     H 8110   0.179  -2.205   2.825  0.1299  1.4074  1.1689
  801MOL0     H 8111   0.092  -2.482   2.769 -1.8507 -0.7185 -0.7684
  801MOL0     H 8112   0.113  -2.343   2.656 -0.4695  2.2967  1.0060
  801MOL0     H 8113  -0.079  -2.245   2.786 -2.2957  1.1534 -4.7778
  801MOL0     H 8114  -0.122  -2.368   2.658  2.8110 -2.4379 -1.6381
  801MOL0     H 8115   0.549  -1.767   3.156  0.9234 -0.9542  2.6560
  801MOL0     H 8116   0.693  -1.612   3.255 -0.2413 -1.7654  0.1446
  801MOL0     H 8117   0.990  -1.133   3.141  0.0914  0.8366  1.2259
  801MOL0     H 8118   1.151  -1.028   3.252 -0.6119 -0.9499 -0.7892
  801MOL0     H 8119   1.658   0.012   4.686 -0.8494 -1.8266  1.1785
  801MOL0     H 8120   1.703   0.251   4.728 -3.8411 -0.1890  1.8508
  801MOL0     H 8121   1.944   0.518   4.785  2.4386 -0.4243 -0.7341
  801MOL0     H 8122   2.051   0.747   4.751 -2.6114  0.8577  0.2433
  801MOL0     H 8123   2.222   1.050   4.849  1.4802 -0.5361 -3.8268
  801MOL0     H 8124   2.240   0.885   4.786  1.4511  2.1850 -0.7566
  801MOL0     H 8125   2.425   0.951   4.929  1.9522 -1.6680  2.9582
  801MOL0     H 8126   2.337   0.837   5.019  1.5735 -0.8364 -2.2701
  801MOL0     H 8127   2.254   1.001   5.172 -3.0674 -0.5078 -2.8982
  801MOL0     H 8128   2.275   1.131   5.058  0.5681 -0.2798 -0.4874
  801MOL0     H 8129   2.436   1.170   5.235  1.4474  3.7796 -2.9188
  801MOL0     H 8130   2.493   0.997   5.212 -2.7096 -0.1875  1.7693
  801MOL0     H 8131   2.694   1.194   4.906 -1.1441  0.4521 -1.9864
  801MOL0     H 8132   2.003   0.831   5.170 -2.8016 -1.9544  1.6648
  801MOL0     H 8133   1.941   0.695   5.309  2.3525 -1.8568 -1.4504
  801MOL0     H 8134   1.780   0.651   5.246  2.1249  5.4952  0.8984
  801MOL0     H 8135   1.897   0.520   5.292 -0.2367 -0.4705  2.6699
  802MOL0     O 8136   8.978   6.294  10.026 -0.0238 -0.7222 -0.0923
  802MOL0     C 8137   8.992   6.394   9.962  0.0338 -0.2753 -0.5851
  802MOL0     O 8138   8.964   6.407   9.832 -0.5550  0.5922 -0.4396
  802MOL0     C 8139   9.013   6.517   9.767 -1.1281 -0.1366  1.3491
  802MOL0     C 8140   8.929   6.575   9.677  0.6249 -0.9147  0.7970
  802MOL0     C 8141   8.967   6.680   9.592 -0.8217  0.0660 -0.0855
  802MOL0     C 8142   9.106   6.728   9.600 -0.7814 -0.1556 -0.5494
  802MOL0     O 8143   9.165   6.830   9.528  0.1927 -0.4649  0.2539
  802MOL0     C 8144   9.089   6.893   9.426  0.5907  1.2820  0.3770
  802MOL0     C 8145   8.964   6.959   9.486  0.3842  0.1425  0.0975
  802MOL0     C 8146   8.995   7.101   9.509 -0.1517 -0.4850 -1.1108
  802MOL0     C 8147   8.875   7.166   9.602 -0.6353 -0.6078 -0.7817
  802MOL0     C 8148   8.745   7.193   9.528  0.3344  0.2500 -0.8858
  802MOL0     C 8149   8.741   7.337   9.473  0.1529 -0.1676  0.3980
  802MOL0     C 8150   8.614   7.367   9.399  0.8177  0.8033  0.3393
  802MOL0     C 8151   8.591   7.523   9.365  0.2845 -0.3814  0.1593
  802MOL0     N 8152   8.463   7.552   9.300  0.9436 -0.1781  0.0923
  802MOL0     C 8153   8.341   7.565   9.373 -0.9942 -0.0890 -0.1471
  802MOL0     C 8154   8.259   7.640   9.285 -0.2554 -0.4523 -0.7551
  802MOL0     C 8155   8.122   7.698   9.325  0.2473  0.1947  1.1737
  802MOL0     C 8156   8.115   7.854   9.324  0.1247 -0.7918  0.1935
  802MOL0     C 8157   8.242   7.919   9.387  0.1052 -0.0627  0.5541
  802MOL0     C 8158   8.222   8.071   9.394 -0.1213 -0.1379 -0.7403
  802MOL0     O 8159   8.343   8.148   9.405 -0.0736  0.1795 -0.2274
  802MOL0     C 8160   8.383   8.180   9.527 -0.6724  0.0032  0.1882
  802MOL0     C 8161   8.328   8.145   9.658 -0.1565 -0.7905 -0.5457
  802MOL0     C 8162   8.393   8.199   9.772  0.0373  0.2595  0.1346
  802MOL0     C 8163   8.493   8.294   9.760  0.7711  0.2090 -0.1832
  802MOL0     C 8164   8.536   8.372   9.881 -0.8154 -0.6218  0.1076
  802MOL0     O 8165   8.637   8.456   9.861  0.0013  0.4250  0.0764
  802MOL0     C 8166   8.683   8.547   9.959 -0.3896 -0.4455  0.3956
  802MOL0     C 8167   8.735   8.660   9.907  0.4492 -0.1810  0.2497
  802MOL0     C 8168   8.795   8.756   9.986  0.5250  0.4859 -0.6912
  802MOL0     C 8169   8.831   8.722  10.120  0.3086 -0.3453  0.1346
  802MOL0     O 8170   8.887   8.810  10.203 -0.0951  0.2750 -0.5986
  802MOL0     C 8171   8.885   8.950  10.187 -0.2538  0.7495 -0.0734
  802MOL0     C 8172   8.748   8.999  10.223  0.1017  0.4266  0.9359
  802MOL0     C 8173   8.724   9.152  10.182  0.2473 -0.3774 -0.2656
  802MOL0     C 8174   8.581   9.207  10.218 -0.2508 -0.0485 -0.7148
  802MOL0     C 8175   8.570   9.223  10.368 -0.6351  0.2911 -0.2244
  802MOL0     C 8176   8.433   9.263  10.407 -0.0163  0.6453 -0.0993
  802MOL0     C 8177   8.417   9.312  10.554  1.2280  0.2495  0.3829
  802MOL0     C 8178   8.281   9.391  10.577 -0.3291 -0.5317  0.1403
  802MOL0    Cl 8179   8.130   9.296  10.543 -0.2004  0.1131  0.4671
  802MOL0     C 8180   8.773   8.611  10.173 -0.4886 -0.2828 -0.1105
  802MOL0     C 8181   8.706   8.518  10.098 -0.5938 -0.6653 -0.4222
  802MOL0     O 8182   8.485   8.351   9.986  0.3995 -0.8916  0.0943
  802MOL0     C 8183   8.546   8.323   9.639 -0.1266 -0.7229  0.6574
  802MOL0     C 8184   8.497   8.267   9.521  0.7406 -0.0785  0.3111
  802MOL0     N 8185   8.331   7.662   9.168 -0.3013  0.8070  0.2043
  802MOL0     N 8186   8.447   7.608   9.184  1.2734 -0.2550  0.6064
  802MOL0     C 8187   9.197   6.663   9.676  0.2928  0.4548  0.2214
  802MOL0     C 8188   9.148   6.568   9.765 -0.7027  0.7253 -1.0223
  802MOL0     C 8189   9.048   6.501  10.055  0.8607 -0.5914  0.0039
  802MOL0     C 8190   9.165   6.472  10.121  0.1830  0.3943 -0.4154
  802MOL0     C 8191   9.216   6.561  10.215  0.3184 -0.0853 -0.8471
  802MOL0     C 8192   9.154   6.686  10.244 -0.0284  0.1185  0.2266
  802MOL0     O 8193   9.221   6.780  10.320 -0.2097  0.1575 -0.3074
  802MOL0     C 8194   9.146   6.874  10.396  0.0901  0.3318 -0.7165
  802MOL0     C 8195   9.242   6.922  10.521 -0.6699 -0.3740 -0.1773
  802MOL0     C 8196   9.355   7.005  10.457 -0.1149  1.1717 -0.0112
  802MOL0     C 8197   9.410   7.096  10.581 -0.0575  0.0364  0.2987
  802MOL0     C 8198   9.492   7.199  10.506 -1.4049 -0.1056 -0.5610
  802MOL0     C 8199   9.561   7.269  10.437  0.5083  0.5109 -0.2091
  802MOL0     C 8200   9.035   6.709  10.177  0.3558 -0.0484 -0.3579
  802MOL0     C 8201   8.984   6.623  10.076  0.2250 -0.5270 -0.0926
  802MOL0     C 8202   8.858   6.672  10.008 -1.2599  0.6227  0.2480
  802MOL0     H 8203   8.832   6.529   9.661  1.0812 -1.6301  0.0146
  802MOL0     H 8204   8.901   6.715   9.513 -0.0770 -0.1397 -0.8117
  802MOL0     H 8205   9.153   6.963   9.371  0.7353  0.1094 -1.0216
  802MOL0     H 8206   9.048   6.810   9.367  1.3700  0.9029  0.3437
  802MOL0     H 8207   8.937   6.920   9.584  1.3493 -0.2029  0.2289
  802MOL0     H 8208   8.884   6.956   9.411  1.1143  0.0778 -0.7029
  802MOL0     H 8209   8.989   7.153   9.413  0.0224  1.1121 -0.3010
  802MOL0     H 8210   9.088   7.102   9.567 -0.3472  1.4524 -0.7699
  802MOL0     H 8211   8.871   7.094   9.684  0.5013  2.7946  2.5324
  802MOL0     H 8212   8.911   7.262   9.639 -2.5314 -0.4345  0.7690
  802MOL0     H 8213   8.729   7.116   9.452  3.2892 -0.9652 -0.4265
  802MOL0     H 8214   8.660   7.171   9.593 -0.1822 -0.7717 -1.8759
  802MOL0     H 8215   8.744   7.414   9.551 -2.8427  1.3220 -0.7880
  802MOL0     H 8216   8.828   7.348   9.408 -0.5139  0.0138 -0.4743
  802MOL0     H 8217   8.527   7.336   9.458  0.1295  4.0120  1.2595
  802MOL0     H 8218   8.629   7.323   9.301  1.2900  2.2956 -0.2872
  802MOL0     H 8219   8.603   7.575   9.461  1.3376 -1.0525  0.4039
  802MOL0     H 8220   8.669   7.556   9.296  0.3823  0.3051  0.5922
  802MOL0     H 8221   8.321   7.527   9.473  2.1042  0.2917  0.7102
  802MOL0     H 8222   8.040   7.663   9.262  0.7578  0.4465  0.3610
  802MOL0     H 8223   8.107   7.657   9.425  0.6967 -1.1627  0.6945
  802MOL0     H 8224   8.110   7.873   9.217 -0.2928 -1.8191  0.0254
  802MOL0     H 8225   8.028   7.894   9.377  2.9868  1.5813  3.6457
  802MOL0     H 8226   8.325   7.918   9.315 -0.6763  1.9435 -0.4452
  802MOL0     H 8227   8.263   7.874   9.485 -2.9361 -1.2424  0.7650
  802MOL0     H 8228   8.142   8.094   9.465  0.0853 -1.2001 -0.1353
  802MOL0     H 8229   8.166   8.096   9.303  0.1011 -2.0228 -1.4443
  802MOL0     H 8230   8.237   8.087   9.668  1.7342 -3.8384  0.5813
  802MOL0     H 8231   8.368   8.170   9.874 -0.9478  1.8589  0.3917
  802MOL0     H 8232   8.714   8.679   9.802 -0.6798  0.5595  0.5913
  802MOL0     H 8233   8.822   8.849   9.938  1.2751 -0.0224 -1.2723
  802MOL0     H 8234   8.953   8.984  10.266  0.5861 -0.1335 -0.3870
  802MOL0     H 8235   8.916   8.971  10.084  0.9420  1.6129  0.4373
  802MOL0     H 8236   8.685   8.924  10.174 -0.1446 -1.6294  4.1635
  802MOL0     H 8237   8.731   8.984  10.330 -1.3414 -1.5373  0.4907
  802MOL0     H 8238   8.795   9.215  10.236 -1.7482  0.9646  0.9350
  802MOL0     H 8239   8.736   9.159  10.074 -0.8532 -0.8733 -0.4303
  802MOL0     H 8240   8.503   9.132  10.203 -1.9143  0.5106  3.6948
  802MOL0     H 8241   8.554   9.302  10.171  2.0744  2.0620  1.8514
  802MOL0     H 8242   8.643   9.298  10.401  0.2069 -0.2463 -0.8235
  802MOL0     H 8243   8.593   9.126  10.412 -2.2763 -0.3291 -0.6585
  802MOL0     H 8244   8.408   9.341  10.335  1.6207  1.9773  0.7193
  802MOL0     H 8245   8.355   9.186  10.400  0.3686  0.2174  0.2473
  802MOL0     H 8246   8.496   9.384  10.576  4.3600 -3.0185  0.7324
  802MOL0     H 8247   8.422   9.226  10.621  0.3858  1.0301  1.4861
  802MOL0     H 8248   8.275   9.441  10.674  4.3517 -2.4700  1.7288
  802MOL0     H 8249   8.292   9.474  10.506  0.6300  0.1443  1.0408
  802MOL0     H 8250   8.777   8.596  10.280 -2.2126  0.0547  0.0347
  802MOL0     H 8251   8.672   8.435  10.160 -1.3710 -1.1118 -1.4012
  802MOL0     H 8252   8.626   8.395   9.629 -0.4454 -0.0967  2.3282
  802MOL0     H 8253   8.555   8.287   9.432 -0.2721  1.4465 -0.0459
  802MOL0     H 8254   9.304   6.684   9.675 -0.0154  2.5669  2.4340
  802MOL0     H 8255   9.223   6.522   9.829 -0.0490  1.5273 -1.1913
  802MOL0     H 8256   9.224   6.385  10.094  0.1180  0.4725 -0.8173
  802MOL0     H 8257   9.310   6.542  10.267  0.1622  0.7776 -0.2190
  802MOL0     H 8258   9.055   6.838  10.446 -0.4755  0.7979 -1.3816
  802MOL0     H 8259   9.110   6.956  10.333  1.8445  0.8398 -1.1158
  802MOL0     H 8260   9.284   6.836  10.573  2.2982 -1.7168 -4.2470
  802MOL0     H 8261   9.176   6.985  10.581  1.9056  0.8239  1.5614
  802MOL0     H 8262   9.319   7.079  10.384  1.5051  0.3016 -1.7972
  802MOL0     H 8263   9.436   6.950  10.408  2.6700  1.1287  4.1658
  802MOL0     H 8264   9.319   7.143  10.622 -0.7806 -2.5762  2.0032
  802MOL0     H 8265   9.464   7.039  10.658  1.2971  0.3324 -0.4064
  802MOL0     H 8266   9.633   7.314  10.371  0.8495 -1.6585 -1.4380
  802MOL0     H 8267   8.983   6.802  10.195  0.2844  0.0792 -1.1952
  802MOL0     H 8268   8.799   6.584   9.980  2.3187 -1.8611 -0.1325
  802MOL0     H 8269   8.800   6.732  10.079 -3.0630 -1.3375  0.5156
  802MOL0     H 8270   8.897   6.732   9.925  4.2017 -4.1796 -1.3104
  803MOL0     O 8271   6.982   1.703   2.327  0.2036  0.3518  0.4694
  803MOL0     C 8272   7.085   1.767   2.351  0.0437  0.5502 -0.8219
  803MOL0     O 8273   7.096   1.856   2.459 -0.5240  0.1362  1.6001
  803MOL0     C 8274   6.996   1.860   2.547 -0.1181 -0.1244 -0.1924
  803MOL0     C 8275   7.003   1.774   2.657  0.2895  0.3620 -0.4059
  803MOL0     C 8276   6.910   1.761   2.755 -0.4823  0.8781  0.1330
  803MOL0     C 8277   6.799   1.844   2.750 -0.5494 -0.2332  0.1676
  803MOL0     O 8278   6.701   1.838   2.850 -0.2730 -0.7045  0.1056
  803MOL0     C 8279   6.660   1.707   2.891  0.2038  0.0951  0.8207
  803MOL0     C 8280   6.515   1.736   2.934  0.3512  0.2598 -0.9724
  803MOL0     C 8281   6.463   1.605   3.011 -0.3500 -0.1167  1.2086
  803MOL0     C 8282   6.508   1.615   3.157  1.3316 -0.2974 -0.3079
  803MOL0     C 8283   6.434   1.713   3.242 -0.2367  0.0779  0.4019
  803MOL0     C 8284   6.297   1.652   3.276  0.5578 -0.3930  0.6362
  803MOL0     C 8285   6.233   1.735   3.394  0.2760  0.6009 -0.9533
  803MOL0     C 8286   6.213   1.879   3.359 -0.4828 -0.4188 -0.4173
  803MOL0     N 8287   6.139   1.905   3.230  1.3129  0.7968 -0.5283
  803MOL0     C 8288   6.182   1.971   3.126  0.4737 -0.6809 -1.3563
  803MOL0     C 8289   6.087   1.960   3.034 -0.6690 -0.3516 -0.8471
  803MOL0     C 8290   6.081   2.009   2.892  0.2349  1.2887 -0.2392
  803MOL0     C 8291   6.023   1.908   2.794 -0.4813  0.2191 -0.4096
  803MOL0     C 8292   6.094   1.770   2.767  0.0552 -0.2507 -0.5274
  803MOL0     C 8293   5.994   1.666   2.719 -0.4987 -0.1393  0.2768
  803MOL0     O 8294   6.054   1.533   2.716  0.5478  0.0836  0.8506
  803MOL0     C 8295   6.077   1.473   2.841 -0.2963  0.0392 -0.9031
  803MOL0     C 8296   6.155   1.354   2.842 -0.1274  0.2517 -1.5398
  803MOL0     C 8297   6.178   1.280   2.967  0.1583  0.2077  0.1559
  803MOL0     C 8298   6.111   1.325   3.081  0.0916  0.0718  0.2652
  803MOL0     C 8299   6.140   1.276   3.218 -0.1425  0.1143 -0.3283
  803MOL0     O 8300   6.062   1.186   3.293  0.5122 -0.5352 -0.4124
  803MOL0     C 8301   6.095   1.126   3.406  0.3153  0.4594 -0.1404
  803MOL0     C 8302   5.984   1.064   3.475 -0.6284 -0.1846  0.1298
  803MOL0     C 8303   6.016   0.987   3.584 -0.5721 -0.5395  0.7436
  803MOL0     C 8304   6.145   0.952   3.630 -0.5260  0.0006  0.6207
  803MOL0     O 8305   6.177   0.858   3.727  0.4169 -0.4788 -0.8779
  803MOL0     C 8306   6.089   0.747   3.739  0.7656 -0.0649  0.5948
  803MOL0     C 8307   6.150   0.636   3.823 -0.1131  0.1981 -0.7289
  803MOL0     C 8308   6.282   0.580   3.775 -0.4246 -0.4950  0.7134
  803MOL0     C 8309   6.357   0.518   3.887 -0.1703  0.0051  0.0029
  803MOL0     C 8310   6.487   0.450   3.848 -0.5945  0.2418 -0.3316
  803MOL0     C 8311   6.601   0.555   3.862 -0.2842  0.6850  0.6274
  803MOL0     C 8312   6.726   0.515   3.780 -0.2538 -0.2423  0.3892
  803MOL0     C 8313   6.849   0.581   3.834  0.0525 -0.4222  0.7064
  803MOL0    Cl 8314   6.830   0.764   3.824  0.0484 -0.4995 -0.4090
  803MOL0     C 8315   6.248   1.015   3.565  0.0534  0.2285 -0.1068
  803MOL0     C 8316   6.226   1.097   3.448 -0.4646  0.3609 -0.3048
  803MOL0     O 8317   6.242   1.326   3.247  0.1880  0.0402 -0.7527
  803MOL0     C 8318   6.029   1.439   3.078  0.3608 -0.4528 -0.7813
  803MOL0     C 8319   6.024   1.513   2.964 -0.2887 -0.8790  0.7621
  803MOL0     N 8320   5.987   1.885   3.082  0.1282  0.4006  0.2246
  803MOL0     N 8321   6.020   1.849   3.203  0.2187  0.0766  0.0178
  803MOL0     C 8322   6.768   1.925   2.638  0.2327 -0.2600  0.0922
  803MOL0     C 8323   6.872   1.932   2.537  0.4270  0.8519  0.2754
  803MOL0     C 8324   7.183   1.769   2.248 -0.2448 -0.7500 -0.2438
  803MOL0     C 8325   7.237   1.892   2.192 -0.1440  0.6713 -0.6612
  803MOL0     C 8326   7.316   1.885   2.083 -0.4499 -0.7735  0.1377
  803MOL0     C 8327   7.362   1.765   2.032 -0.2011 -1.5444 -0.7511
  803MOL0     O 8328   7.423   1.761   1.904  0.3983 -0.5375 -0.8206
  803MOL0     C 8329   7.560   1.730   1.931 -0.1341  0.5359  0.1097
  803MOL0     C 8330   7.658   1.829   1.884  0.6520 -0.4166  0.1540
  803MOL0     C 8331   7.636   1.971   1.947 -0.6326 -0.4620  0.7205
  803MOL0     C 8332   7.672   1.973   2.100 -0.4878  0.2414 -0.1898
  803MOL0     C 8333   7.813   1.958   2.128 -0.6760 -0.0451  0.3189
  803MOL0     C 8334   7.934   1.948   2.127  0.5276  0.6170  0.2263
  803MOL0     C 8335   7.321   1.643   2.086  0.3096 -0.2055  0.4463
  803MOL0     C 8336   7.226   1.645   2.188  0.0787 -0.3122 -0.3305
  803MOL0     C 8337   7.172   1.507   2.234 -0.5508 -0.7796  0.3195
  803MOL0     H 8338   7.089   1.709   2.674 -0.6868 -0.4739  1.7355
  803MOL0     H 8339   6.937   1.693   2.835 -0.6840  1.3588  0.6218
  803MOL0     H 8340   6.659   1.647   2.800  1.7768  3.5374 -1.7086
  803MOL0     H 8341   6.721   1.670   2.974 -1.2410  1.6710  2.6843
  803MOL0     H 8342   6.459   1.747   2.840 -2.0760 -2.1216  0.0522
  803MOL0     H 8343   6.504   1.825   2.996  3.0503  0.3727 -0.5501
  803MOL0     H 8344   6.496   1.513   2.962 -2.1408  0.3188 -0.9455
  803MOL0     H 8345   6.354   1.591   3.016 -0.4237  0.4000  1.1330
  803MOL0     H 8346   6.488   1.519   3.206 -2.5536  1.6238  2.3893
  803MOL0     H 8347   6.617   1.625   3.154  1.2028  1.1640 -1.1363
  803MOL0     H 8348   6.470   1.729   3.344  0.6830  2.0960 -0.1797
  803MOL0     H 8349   6.443   1.811   3.194  0.7031 -1.1639 -2.1558
  803MOL0     H 8350   6.237   1.663   3.186  0.6799  0.3016  0.6360
  803MOL0     H 8351   6.295   1.547   3.305 -0.6414 -1.0766 -1.7179
  803MOL0     H 8352   6.295   1.722   3.484 -2.7372 -6.2794  0.8520
  803MOL0     H 8353   6.136   1.688   3.415  0.3443  0.6205 -0.5877
  803MOL0     H 8354   6.166   1.926   3.447 -0.5323 -5.5755  2.7596
  803MOL0     H 8355   6.310   1.929   3.351 -0.6553 -0.2376 -1.4545
  803MOL0     H 8356   6.274   2.028   3.117  3.3395 -4.6561 -0.3023
  803MOL0     H 8357   6.007   2.090   2.892  1.0066  2.0508  2.0469
  803MOL0     H 8358   6.175   2.051   2.856  2.1318 -3.4898 -1.7505
  803MOL0     H 8359   5.926   1.868   2.825 -0.6805  0.2000 -1.0549
  803MOL0     H 8360   6.020   1.965   2.701  2.3111  1.8415  0.3626
  803MOL0     H 8361   6.135   1.727   2.858 -2.4474 -1.8739 -0.0507
  803MOL0     H 8362   6.160   1.778   2.680  0.8442 -0.2520  0.0705
  803MOL0     H 8363   5.964   1.695   2.617 -0.4006 -0.4729  0.1519
  803MOL0     H 8364   5.895   1.666   2.766  0.3547  1.4202  2.1991
  803MOL0     H 8365   6.184   1.331   2.740  2.7614 -1.3429 -0.4952
  803MOL0     H 8366   6.249   1.197   2.965  0.5208  0.3102  3.2106
  803MOL0     H 8367   5.878   1.073   3.450 -0.9063 -4.1476 -0.7867
  803MOL0     H 8368   5.926   0.955   3.633 -0.7174 -1.0984  0.1254
  803MOL0     H 8369   5.991   0.778   3.776 -0.7630 -2.1822 -1.3664
  803MOL0     H 8370   6.067   0.708   3.639 -1.7793  2.2677  0.1071
  803MOL0     H 8371   6.160   0.691   3.917 -0.2321 -0.7434 -0.1441
  803MOL0     H 8372   6.085   0.550   3.843 -0.1443  0.2342 -0.6725
  803MOL0     H 8373   6.271   0.506   3.695 -0.1662  0.5475 -0.3143
  803MOL0     H 8374   6.344   0.654   3.723  1.0935 -1.4705  1.0644
  803MOL0     H 8375   6.294   0.441   3.933  0.8078  0.1953  1.7357
  803MOL0     H 8376   6.376   0.588   3.969  1.0179 -1.1298  0.7304
  803MOL0     H 8377   6.478   0.419   3.743  1.1963 -0.3616 -0.3380
  803MOL0     H 8378   6.499   0.368   3.919  0.5292  0.8970  0.2497
  803MOL0     H 8379   6.570   0.652   3.821  0.1794  0.8184  0.5777
  803MOL0     H 8380   6.643   0.576   3.961  3.2566  2.5164 -1.0539
  803MOL0     H 8381   6.711   0.546   3.676 -2.3673  1.5967  1.1784
  803MOL0     H 8382   6.745   0.407   3.779 -3.0771 -0.8210  1.0387
  803MOL0     H 8383   6.871   0.551   3.937  0.8745 -2.2076  0.0587
  803MOL0     H 8384   6.938   0.557   3.776 -0.1458  0.2900  0.0860
  803MOL0     H 8385   6.345   1.014   3.612  1.7016  1.0969 -3.2258
  803MOL0     H 8386   6.301   1.147   3.389 -0.7678  0.8206 -0.3096
  803MOL0     H 8387   5.988   1.489   3.165 -1.9586 -0.1574 -1.9684
  803MOL0     H 8388   5.972   1.608   2.971 -0.5572 -0.9600 -0.0033
  803MOL0     H 8389   6.670   1.969   2.623 -0.0654 -0.2290  1.9549
  803MOL0     H 8390   6.854   1.969   2.437  1.7369 -1.9532 -1.0980
  803MOL0     H 8391   7.209   1.985   2.240 -0.0491 -1.1141  3.2304
  803MOL0     H 8392   7.345   1.973   2.026  0.6250 -1.8167 -0.9954
  803MOL0     H 8393   7.595   1.636   1.887  1.3511  0.0905  2.0927
  803MOL0     H 8394   7.583   1.721   2.038 -0.1595  3.7295  0.4762
  803MOL0     H 8395   7.644   1.835   1.775  1.0199  0.7268  0.1568
  803MOL0     H 8396   7.758   1.790   1.905  2.0631  0.9476 -3.2393
  803MOL0     H 8397   7.534   2.009   1.941  0.3436  2.0610 -2.0941
  803MOL0     H 8398   7.688   2.053   1.898  0.0434 -1.5773 -0.5069
  803MOL0     H 8399   7.627   2.063   2.143 -0.9272  0.9486 -2.0258
  803MOL0     H 8400   7.624   1.885   2.143 -0.2293 -1.6595 -3.5155
  803MOL0     H 8401   8.041   1.948   2.127  0.5643 -1.6757  0.1544
  803MOL0     H 8402   7.370   1.559   2.038  1.7986  1.1839 -0.5590
  803MOL0     H 8403   7.066   1.501   2.261 -0.1973  0.5995  2.1676
  803MOL0     H 8404   7.189   1.423   2.166  2.2549  0.0509 -0.1143
  803MOL0     H 8405   7.224   1.494   2.329  3.0238 -2.8320 -1.6941
  804MOL0     O 8406   4.990   9.882   8.940 -0.5691  0.1227  0.3330
  804MOL0     C 8407   5.019   9.778   8.990 -1.0885  0.7061  0.0463
  804MOL0     O 8408   5.064   9.766   9.125  0.3032  0.3722 -1.0316
  804MOL0     C 8409   5.104   9.878   9.200 -0.9309 -0.5553  0.4523
  804MOL0     C 8410   5.085   9.873   9.341 -0.7065 -0.6342 -0.2642
  804MOL0     C 8411   5.107   9.988   9.418  0.1804  0.1995 -0.4309
  804MOL0     C 8412   5.161  10.110   9.358 -0.0972 -0.3106 -1.3844
  804MOL0     O 8413   5.204  10.221   9.436  1.0095 -0.4075  0.9115
  804MOL0     C 8414   5.192  10.205   9.572 -0.9582 -0.1323 -0.5922
  804MOL0     C 8415   5.272  10.324   9.624  0.5789 -1.0557 -0.3040
  804MOL0     C 8416   5.279  10.316   9.783  0.9186  0.4667  0.3821
  804MOL0     C 8417   5.151  10.343   9.853 -0.0601 -0.4005 -0.4451
  804MOL0     C 8418   5.160  10.337  10.009 -0.2532  0.5687  0.7846
  804MOL0     C 8419   5.018  10.352  10.070 -0.2922  0.0552 -0.1398
  804MOL0     C 8420   4.924  10.222  10.065  0.8862  0.3145  0.2758
  804MOL0     C 8421   4.782  10.249  10.037  0.4917 -1.2418 -0.4136
  804MOL0     N 8422   4.693  10.149  10.088  0.1325 -0.1073 -0.8150
  804MOL0     C 8423   4.623  10.154  10.207 -0.1657 -0.7093 -0.1269
  804MOL0     C 8424   4.557  10.044  10.210  0.2771  0.2109  0.7235
  804MOL0     C 8425   4.460   9.996  10.315  0.7862  0.4815  0.4867
  804MOL0     C 8426   4.312  10.012  10.294  0.3343  0.4335  1.0396
  804MOL0     C 8427   4.248   9.910  10.192 -0.9384  0.8794  0.3126
  804MOL0     C 8428   4.106   9.923  10.144  1.3133 -0.1188 -0.3392
  804MOL0     O 8429   4.023   9.928  10.257 -0.4103  0.0921  0.1386
  804MOL0     C 8430   3.894   9.893  10.258 -0.0765  0.1614 -0.4456
  804MOL0     C 8431   3.817   9.875  10.143  0.9185 -0.7730  0.3367
  804MOL0     C 8432   3.676   9.861  10.156 -0.6340  0.0639  1.1192
  804MOL0     C 8433   3.618   9.849  10.287 -0.2621  0.1225  0.3299
  804MOL0     C 8434   3.467   9.845  10.306 -1.1125 -0.3595  0.3379
  804MOL0     O 8435   3.386   9.816  10.202 -0.4143  0.1760  0.3236
  804MOL0     C 8436   3.257   9.788  10.224  0.1744  0.3646  0.1811
  804MOL0     C 8437   3.212   9.663  10.189  0.5840 -0.0829  0.1689
  804MOL0     C 8438   3.080   9.634  10.200 -0.2437 -0.4299 -0.3415
  804MOL0     C 8439   2.980   9.728  10.246 -0.4744 -0.0535  0.4397
  804MOL0     O 8440   2.845   9.690  10.244 -0.0143 -0.3573 -0.3917
  804MOL0     C 8441   2.743   9.775  10.317  0.0167 -0.6803  0.1415
  804MOL0     C 8442   2.679   9.878  10.228 -0.7086  0.1695 -0.0746
  804MOL0     C 8443   2.625   9.816  10.105  0.8195  0.4328  0.2682
  804MOL0     C 8444   2.544   9.913  10.020 -0.2788  0.1008 -0.2782
  804MOL0     C 8445   2.436   9.858   9.927 -0.9131 -0.8579  0.7038
  804MOL0     C 8446   2.365   9.980   9.862  0.0829 -0.5770 -1.1487
  804MOL0     C 8447   2.286   9.958   9.738  1.0606 -0.0965  0.4480
  804MOL0     C 8448   2.367   9.880   9.637 -0.0679 -0.8348 -0.5654
  804MOL0    Cl 8449   2.505   9.980   9.591  0.1998  0.0340  0.0449
  804MOL0     C 8450   3.028   9.851  10.285  0.2190  0.3706  0.0839
  804MOL0     C 8451   3.162   9.883  10.269 -0.2532 -0.1230 -0.4170
  804MOL0     O 8452   3.432   9.849  10.424  0.0470  0.1979 -0.3771
  804MOL0     C 8453   3.705   9.865  10.399  0.5749  0.4776  0.1343
  804MOL0     C 8454   3.840   9.878  10.386  0.7016  1.6904 -0.4949
  804MOL0     N 8455   4.614   9.965  10.117 -1.0215  0.6315 -0.0708
  804MOL0     N 8456   4.689  10.029  10.038  0.0142  0.1078  0.1815
  804MOL0     C 8457   5.186  10.118   9.224 -0.5960 -0.0719 -0.1871
  804MOL0     C 8458   5.150  10.007   9.142  0.4701  1.2498 -0.1703
  804MOL0     C 8459   4.979   9.652   8.932  0.0180 -0.0357  0.7039
  804MOL0     C 8460   4.956   9.533   9.007  0.2800  0.1894  0.8049
  804MOL0     C 8461   4.913   9.415   8.947 -0.6598 -0.1325 -0.2016
  804MOL0     C 8462   4.905   9.404   8.806 -1.1795 -0.5220 -1.1747
  804MOL0     O 8463   4.847   9.302   8.737  0.1296 -0.0170 -0.2017
  804MOL0     C 8464   4.793   9.191   8.814  0.0714  0.4127  0.7102
  804MOL0     C 8465   4.914   9.110   8.868 -0.6088  0.4686  2.0349
  804MOL0     C 8466   5.015   9.081   8.753 -0.0429  0.1722  0.3943
  804MOL0     C 8467   4.972   9.004   8.620  0.3539  0.2164 -0.5945
  804MOL0     C 8468   4.979   8.859   8.636  0.3557  0.6660  0.0941
  804MOL0     C 8469   4.979   8.740   8.659  0.5724 -0.5734  1.3597
  804MOL0     C 8470   4.929   9.518   8.731 -0.3682 -0.9150  0.4977
  804MOL0     C 8471   4.966   9.640   8.788 -0.2243 -0.0449 -0.2825
  804MOL0     C 8472   5.001   9.745   8.687  0.2812  0.4429  0.3290
  804MOL0     H 8473   5.024   9.795   9.387 -0.9897  0.9718  2.2960
  804MOL0     H 8474   5.090   9.980   9.525 -1.1363 -1.3693 -0.7229
  804MOL0     H 8475   5.092  10.203   9.615 -0.4314  2.2379  0.9153
  804MOL0     H 8476   5.246  10.113   9.595  0.6724  1.0857  0.7243
  804MOL0     H 8477   5.222  10.413   9.584 -0.6618 -1.3470  0.5595
  804MOL0     H 8478   5.372  10.337   9.582  2.0557  1.7208  3.5697
  804MOL0     H 8479   5.367  10.377   9.804  0.3471  1.1512  0.8338
  804MOL0     H 8480   5.301  10.211   9.806  1.0376  0.2032 -0.8639
  804MOL0     H 8481   5.102  10.430   9.808  0.9357  1.0743  1.2016
  804MOL0     H 8482   5.083  10.259   9.835  0.4465 -1.0205  0.4527
  804MOL0     H 8483   5.206  10.245  10.046  1.7223  1.0536 -0.3173
  804MOL0     H 8484   5.211  10.421  10.056  2.0292 -0.8647  1.0169
  804MOL0     H 8485   5.039  10.377  10.174  0.8118 -1.6287  0.0809
  804MOL0     H 8486   4.969  10.438  10.023  0.1630  0.2609 -0.2384
  804MOL0     H 8487   4.927  10.168  10.160 -1.7758  0.0451  0.2769
  804MOL0     H 8488   4.963  10.159   9.985 -1.7123  0.0358 -0.8510
  804MOL0     H 8489   4.756  10.339  10.094  2.7442 -1.2271  0.6949
  804MOL0     H 8490   4.768  10.275   9.932  3.0374 -1.9540 -0.9796
  804MOL0     H 8491   4.600  10.227  10.285  2.6947 -2.8378  2.9874
  804MOL0     H 8492   4.476   9.889  10.335 -1.6414 -0.7082 -2.9835
  804MOL0     H 8493   4.480  10.049  10.409  0.3754  2.3224 -0.4214
  804MOL0     H 8494   4.266   9.995  10.392 -0.3941  1.7904  0.9657
  804MOL0     H 8495   4.305  10.118  10.267 -1.1519  0.0226 -0.3574
  804MOL0     H 8496   4.267   9.816  10.244 -1.3038  0.7758  0.2588
  804MOL0     H 8497   4.306   9.902  10.100 -1.7781 -0.4497 -0.1240
  804MOL0     H 8498   4.081   9.838  10.080 -0.3971  0.3603 -0.3553
  804MOL0     H 8499   4.114  10.023  10.099  0.0954 -0.8183 -2.2225
  804MOL0     H 8500   3.864   9.911  10.052  0.9245  0.4312  0.7972
  804MOL0     H 8501   3.618   9.869  10.065 -1.9214  1.9879  2.0478
  804MOL0     H 8502   3.271   9.583  10.146  2.3703  0.7222  1.0321
  804MOL0     H 8503   3.034   9.545  10.158 -3.8585  1.6811 -1.3242
  804MOL0     H 8504   2.661   9.706  10.336 -0.6941 -0.3073 -1.4130
  804MOL0     H 8505   2.781   9.819  10.409 -1.4886  0.9206  0.0468
  804MOL0     H 8506   2.610   9.937  10.289 -0.5901  0.9628 -0.6855
  804MOL0     H 8507   2.760   9.943  10.192  0.9681 -2.2730 -0.9567
  804MOL0     H 8508   2.697   9.758  10.047  1.4152 -0.3296  1.7056
  804MOL0     H 8509   2.553   9.745  10.148  2.5744 -1.7361 -0.2255
  804MOL0     H 8510   2.613   9.974   9.962 -0.8515  1.8814  0.8383
  804MOL0     H 8511   2.492   9.978  10.090 -0.7237 -0.4989 -0.0360
  804MOL0     H 8512   2.367   9.793   9.982  1.4369 -1.6156  2.9473
  804MOL0     H 8513   2.496   9.796   9.860 -1.7791 -1.4263  0.4366
  804MOL0     H 8514   2.305  10.017   9.945  0.1502 -1.7722 -0.5516
  804MOL0     H 8515   2.429  10.065   9.837 -0.3286 -0.2531 -1.1061
  804MOL0     H 8516   2.265  10.057   9.697 -2.3722 -1.1946 -0.8575
  804MOL0     H 8517   2.189   9.910   9.757  0.2105  1.0914 -0.6571
  804MOL0     H 8518   2.394   9.781   9.674  0.9494 -0.7050 -0.9493
  804MOL0     H 8519   2.301   9.872   9.550 -1.8484  2.4212  0.2839
  804MOL0     H 8520   2.977   9.939  10.325  0.3562  0.7303 -0.5279
  804MOL0     H 8521   3.198   9.980  10.301 -3.4822  0.7896  0.9588
  804MOL0     H 8522   3.661   9.865  10.498  0.9056  1.3825  0.2950
  804MOL0     H 8523   3.893   9.878  10.480 -1.9281 -1.5750  1.2047
  804MOL0     H 8524   5.219  10.214   9.188 -0.8092 -0.1547 -0.6142
  804MOL0     H 8525   5.157  10.021   9.035  2.4069 -3.3064 -0.8846
  804MOL0     H 8526   4.958   9.532   9.115  1.3458 -0.0275  0.7978
  804MOL0     H 8527   4.886   9.338   9.018  2.6582 -0.0195  1.3981
  804MOL0     H 8528   4.744   9.124   8.743  2.7512  1.1608 -2.0772
  804MOL0     H 8529   4.717   9.220   8.887 -0.9069 -2.0949  0.7728
  804MOL0     H 8530   4.885   9.009   8.900 -0.0399  0.8931  4.0431
  804MOL0     H 8531   4.959   9.161   8.954  0.1483  1.4075  1.0979
  804MOL0     H 8532   5.094   9.027   8.807  0.5561  0.1686 -0.4669
  804MOL0     H 8533   5.055   9.173   8.710 -1.6316  1.1146  0.8485
  804MOL0     H 8534   4.868   9.022   8.589 -0.2973 -2.8660 -0.4644
  804MOL0     H 8535   5.040   9.040   8.543 -0.4639  0.5700 -1.1748
  804MOL0     H 8536   4.982   8.634   8.674  3.6805 -0.7267  0.4795
  804MOL0     H 8537   4.899   9.523   8.627  0.9421  5.3136  0.0122
  804MOL0     H 8538   5.087   9.807   8.714 -1.7265  4.2735 -1.2530
  804MOL0     H 8539   5.013   9.699   8.589 -0.6767 -0.8008  0.7565
  804MOL0     H 8540   4.912   9.808   8.681  1.1458  2.0172  2.6331
  805MOL0     O 8541   5.105   1.416   0.121 -0.0225 -0.2436 -0.3273
  805MOL0     C 8542   5.136   1.363   0.016 -1.0875 -0.2832  0.3013
  805MOL0     O 8543   5.066   1.262  -0.040  0.1484 -0.0140  0.0484
  805MOL0     C 8544   4.966   1.198   0.026 -0.6718 -0.4545  0.8119
  805MOL0     C 8545   4.838   1.256   0.020  0.2958 -0.0521 -1.0168
  805MOL0     C 8546   4.726   1.188   0.080  0.1341 -0.7351  1.3825
  805MOL0     C 8547   4.748   1.057   0.139 -0.1917 -0.0532  0.0543
  805MOL0     O 8548   4.640   1.003   0.196 -0.5778  0.7341 -0.2973
  805MOL0     C 8549   4.667   0.945   0.323 -1.0548 -0.5619  0.2641
  805MOL0     C 8550   4.561   1.013   0.409 -0.4672  0.3174 -0.0391
  805MOL0     C 8551   4.430   0.940   0.385  0.0288 -0.3446  0.7479
  805MOL0     C 8552   4.319   0.994   0.473  0.3921 -0.3248 -0.0377
  805MOL0     C 8553   4.193   0.916   0.458  0.5128 -0.0999  0.5073
  805MOL0     C 8554   4.079   0.988   0.536  0.3468  0.4220 -0.2232
  805MOL0     C 8555   4.076   0.953   0.689  0.0372  0.2707  0.2272
  805MOL0     C 8556   3.974   1.029   0.776  0.0645  0.1670 -0.3206
  805MOL0     N 8557   3.985   0.972   0.916 -0.2863 -0.1232 -0.6046
  805MOL0     C 8558   4.077   1.007   1.014  0.6708  0.5546  0.1408
  805MOL0     C 8559   4.013   0.957   1.122 -0.6523  0.5197  0.0358
  805MOL0     C 8560   4.086   0.955   1.255 -0.1233  0.8141  0.0995
  805MOL0     C 8561   4.008   1.022   1.363  0.3797  0.2892  0.2082
  805MOL0     C 8562   3.966   1.162   1.340 -0.5010 -0.1943  0.3860
  805MOL0     C 8563   3.889   1.241   1.449  0.1291  0.4273  0.9893
  805MOL0     O 8564   3.968   1.262   1.571  0.1726  0.1979 -0.4659
  805MOL0     C 8565   3.896   1.283   1.685 -0.5952  0.1752  0.0956
  805MOL0     C 8566   3.758   1.314   1.700 -0.0398  0.1065 -0.7565
  805MOL0     C 8567   3.701   1.328   1.829  0.3155  1.2745  0.6467
  805MOL0     C 8568   3.779   1.303   1.940 -0.3333 -0.8813 -0.8392
  805MOL0     C 8569   3.710   1.311   2.073 -0.8229 -0.2445 -0.3467
  805MOL0     O 8570   3.589   1.374   2.078  0.0342 -0.5547 -0.0438
  805MOL0     C 8571   3.543   1.379   2.208 -0.2587  0.0435  0.1117
  805MOL0     C 8572   3.430   1.312   2.248  0.3114  0.2212  0.2781
  805MOL0     C 8573   3.377   1.315   2.376  0.0694 -0.3138  0.0767
  805MOL0     C 8574   3.447   1.392   2.466  0.4431  1.0839  0.8452
  805MOL0     O 8575   3.418   1.396   2.594 -0.5779 -0.1279 -0.3445
  805MOL0     C 8576   3.361   1.277   2.649  0.8963  0.0131 -0.1471
  805MOL0     C 8577   3.322   1.310   2.804  0.4929 -0.2950  0.4591
  805MOL0     C 8578   3.248   1.441   2.824  0.9714 -0.9060  0.0784
  805MOL0     C 8579   3.193   1.452   2.973 -0.2645  0.2538  1.1369
  805MOL0     C 8580   3.136   1.595   2.999 -0.9035  0.2744 -0.5091
  805MOL0     C 8581   3.035   1.640   2.896  0.0101 -0.3573 -0.5548
  805MOL0     C 8582   2.924   1.532   2.868 -0.3055  0.2861  0.0436
  805MOL0     C 8583   2.868   1.564   2.722 -0.0839 -0.4535 -0.0663
  805MOL0    Cl 8584   2.722   1.478   2.685 -0.0612 -0.3560  0.2051
  805MOL0     C 8585   3.550   1.474   2.427  0.4486  0.6712 -0.0447
  805MOL0     C 8586   3.602   1.459   2.301  0.3252  0.4241 -0.1752
  805MOL0     O 8587   3.772   1.260   2.170  0.7327  0.0792 -0.0298
  805MOL0     C 8588   3.910   1.261   1.925 -0.4115  0.8461  0.1611
  805MOL0     C 8589   3.975   1.262   1.795 -0.0852 -0.8009  0.3384
  805MOL0     N 8590   3.901   0.888   1.093  0.1005  0.4107  0.0479
  805MOL0     N 8591   3.885   0.890   0.967  1.0213  0.7613  0.2544
  805MOL0     C 8592   4.879   1.003   0.145  0.2774  1.4033  1.5973
  805MOL0     C 8593   4.988   1.077   0.092  0.1198  0.9663  1.0888
  805MOL0     C 8594   5.233   1.443  -0.070 -0.1474  1.1475 -0.1085
  805MOL0     C 8595   5.215   1.433  -0.211  0.4465 -0.3726 -0.5508
  805MOL0     C 8596   5.309   1.477  -0.308  0.0582 -0.2509  0.1182
  805MOL0     C 8597   5.420   1.551  -0.262  0.6622  0.4915 -0.1366
  805MOL0     O 8598   5.515   1.585  -0.359 -0.5398 -0.0361  0.0368
  805MOL0     C 8599   5.638   1.533  -0.322 -0.7861 -0.4048  0.1957
  805MOL0     C 8600   5.707   1.523  -0.453  0.5298  0.0964 -0.7327
  805MOL0     C 8601   5.843   1.477  -0.428 -0.2173 -0.1033 -0.4535
  805MOL0     C 8602   5.871   1.336  -0.380  0.5502 -0.2656 -0.2338
  805MOL0     C 8603   5.954   1.248  -0.465  0.0572 -0.7697 -0.0196
  805MOL0     C 8604   5.999   1.182  -0.556  0.2958  0.8680 -0.5799
  805MOL0     C 8605   5.436   1.562  -0.121  0.4537  0.5383 -0.1018
  805MOL0     C 8606   5.344   1.504  -0.029 -0.1622  0.9025  0.1199
  805MOL0     C 8607   5.385   1.525   0.119  0.1533 -0.0460 -0.4305
  805MOL0     H 8608   4.811   1.354  -0.015 -1.3226 -0.0427  0.1782
  805MOL0     H 8609   4.631   1.235   0.105  0.3443 -1.0863  2.9241
  805MOL0     H 8610   4.648   0.838   0.319  1.2139 -1.1778  3.0045
  805MOL0     H 8611   4.771   0.965   0.351 -0.1177 -1.6220 -2.1208
  805MOL0     H 8612   4.556   1.119   0.385 -0.0358  1.3721  3.8443
  805MOL0     H 8613   4.582   1.005   0.516  2.4358 -1.5893 -0.6360
  805MOL0     H 8614   4.438   0.835   0.416  0.0126 -0.0491  1.7908
  805MOL0     H 8615   4.398   0.942   0.280 -0.4107  0.1624  0.8935
  805MOL0     H 8616   4.349   0.980   0.577  0.7567 -0.3179 -0.1420
  805MOL0     H 8617   4.312   1.101   0.453 -0.5427 -0.4078 -0.2023
  805MOL0     H 8618   4.166   0.907   0.352 -1.0150  0.4700  0.8154
  805MOL0     H 8619   4.207   0.816   0.500 -1.6394  0.8736  3.9199
  805MOL0     H 8620   4.054   1.093   0.517 -4.6815 -0.7792 -1.7804
  805MOL0     H 8621   3.987   0.941   0.499  0.5068 -0.1288  0.0749
  805MOL0     H 8622   4.179   0.972   0.720  0.9055 -1.5710 -1.2870
  805MOL0     H 8623   4.066   0.844   0.692  0.4031  0.2108 -0.4827
  805MOL0     H 8624   3.994   1.136   0.780  1.7315 -0.1133 -0.3672
  805MOL0     H 8625   3.873   1.021   0.733  0.1436  1.3988 -0.7833
  805MOL0     H 8626   4.170   1.062   1.005  1.3497 -0.4964  0.5671
  805MOL0     H 8627   4.086   0.850   1.285 -1.8171  0.9533  0.7055
  805MOL0     H 8628   4.182   1.003   1.236 -1.1582  2.6930 -0.6442
  805MOL0     H 8629   3.911   0.971   1.367  0.9168 -0.8099 -0.4984
  805MOL0     H 8630   4.052   1.002   1.461  1.5420 -0.4925 -0.4507
  805MOL0     H 8631   3.895   1.167   1.257  0.6421 -0.8351 -0.6624
  805MOL0     H 8632   4.054   1.227   1.334 -0.8583  0.3700  1.1392
  805MOL0     H 8633   3.795   1.185   1.457 -2.0592  3.0301 -3.0390
  805MOL0     H 8634   3.855   1.333   1.400 -2.1968 -0.2824  1.1515
  805MOL0     H 8635   3.696   1.330   1.612 -3.6222  0.0729  1.5448
  805MOL0     H 8636   3.602   1.370   1.841 -1.4688 -2.5526  0.7666
  805MOL0     H 8637   3.381   1.266   2.162  2.4220  0.1296 -0.9326
  805MOL0     H 8638   3.285   1.259   2.388 -0.0643 -0.9538 -3.1336
  805MOL0     H 8639   3.267   1.254   2.598  1.5706 -2.3356 -0.4451
  805MOL0     H 8640   3.426   1.190   2.640 -1.1460 -1.7193  0.9752
  805MOL0     H 8641   3.272   1.227   2.854  1.3307 -1.0265  0.1063
  805MOL0     H 8642   3.421   1.322   2.850  0.0281  1.6301  1.0437
  805MOL0     H 8643   3.326   1.518   2.823  1.3518 -1.2905 -1.2165
  805MOL0     H 8644   3.176   1.452   2.742  2.5581 -0.5878 -1.3302
  805MOL0     H 8645   3.276   1.420   3.037 -0.3519 -2.8493 -0.1283
  805MOL0     H 8646   3.112   1.380   2.987 -0.1102 -0.8670 -2.5955
  805MOL0     H 8647   3.212   1.674   3.000  0.1482 -0.7178  0.2110
  805MOL0     H 8648   3.095   1.601   3.100  0.1497  2.3748 -0.1455
  805MOL0     H 8649   2.981   1.727   2.936  2.1579  0.6697  0.3122
  805MOL0     H 8650   3.080   1.676   2.803 -0.4126 -1.1996 -1.0957
  805MOL0     H 8651   2.845   1.536   2.943 -0.7980 -0.7077 -0.4005
  805MOL0     H 8652   2.950   1.426   2.868 -1.7873 -0.1246 -1.3747
  805MOL0     H 8653   2.866   1.671   2.702 -1.0866 -0.7352 -1.7400
  805MOL0     H 8654   2.947   1.536   2.651  0.3418  1.2151 -0.2894
  805MOL0     H 8655   3.598   1.540   2.498 -0.4567  1.7616 -0.4252
  805MOL0     H 8656   3.691   1.512   2.269  1.8001 -1.6214  0.3979
  805MOL0     H 8657   3.966   1.236   2.014  2.9597  2.7370 -1.2193
  805MOL0     H 8658   4.076   1.228   1.774 -0.3346 -0.3742 -1.6960
  805MOL0     H 8659   4.900   0.901   0.177  2.1591  1.8086  1.7216
  805MOL0     H 8660   5.092   1.045   0.092  0.6973  2.7412  1.1227
  805MOL0     H 8661   5.131   1.371  -0.240  0.0316 -0.2321  0.3222
  805MOL0     H 8662   5.290   1.447  -0.411 -2.3300  1.9365 -0.1625
  805MOL0     H 8663   5.628   1.443  -0.261  1.7947 -0.9181 -0.0139
  805MOL0     H 8664   5.685   1.598  -0.248 -2.7363  0.8821  0.3699
  805MOL0     H 8665   5.716   1.625  -0.491  0.6470 -0.3216 -1.8882
  805MOL0     H 8666   5.658   1.457  -0.526  0.0953 -1.8082  1.1572
  805MOL0     H 8667   5.884   1.549  -0.357  0.6888 -0.3862 -0.6725
  805MOL0     H 8668   5.909   1.493  -0.514  0.0908 -3.9408 -1.0938
  805MOL0     H 8669   5.921   1.355  -0.285  2.8731  2.2865 -1.8054
  805MOL0     H 8670   5.773   1.290  -0.369 -0.0495  0.6491 -1.4367
  805MOL0     H 8671   6.029   1.124  -0.641 -3.8001 -0.9529 -1.0185
  805MOL0     H 8672   5.526   1.620  -0.104  1.1849  0.1617 -2.3606
  805MOL0     H 8673   5.486   1.566   0.115 -1.1325  3.6187 -4.9764
  805MOL0     H 8674   5.322   1.589   0.181  0.5425  1.0281 -1.1040
  805MOL0     H 8675   5.377   1.425   0.161 -3.0692 -0.7745 -2.3472
  806MOL0     O 8676   1.356   2.998   8.107 -0.0384 -0.7892  0.0613
  806MOL0     C 8677   1.272   3.061   8.045  0.4094 -0.9773  0.3449
  806MOL0     O 8678   1.151   3.011   8.006  0.2990  1.6537 -0.6205
  806MOL0     C 8679   1.122   2.877   8.020  0.0119 -0.3854 -0.0873
  806MOL0     C 8680   1.122   2.790   7.916 -0.7253  0.6316  0.5618
  806MOL0     C 8681   1.087   2.654   7.918 -0.2560 -0.1680  0.0957
  806MOL0     C 8682   1.035   2.604   8.034  0.3312 -0.6277 -0.7187
  806MOL0     O 8683   1.014   2.468   8.053 -0.6254  0.1846  0.5915
  806MOL0     C 8684   1.111   2.395   8.129 -0.2248 -0.9629  0.2584
  806MOL0     C 8685   1.246   2.420   8.048 -0.7373  0.2087  1.6757
  806MOL0     C 8686   1.375   2.372   8.121 -0.8344 -0.8517 -0.1650
  806MOL0     C 8687   1.366   2.225   8.170 -0.1907 -0.4602 -0.1354
  806MOL0     C 8688   1.499   2.183   8.221  0.1965  0.4643  1.0009
  806MOL0     C 8689   1.485   2.047   8.260 -0.6849  1.2649 -0.0384
  806MOL0     C 8690   1.461   1.949   8.140  0.8188  0.0811  0.2423
  806MOL0     C 8691   1.478   1.800   8.165 -0.4072 -0.9905 -0.1062
  806MOL0     N 8692   1.477   1.710   8.051  0.1587  0.3375 -0.3687
  806MOL0     C 8693   1.381   1.692   7.958 -1.2217 -0.8563  0.2598
  806MOL0     C 8694   1.425   1.584   7.882 -0.1066  0.0177 -0.5821
  806MOL0     C 8695   1.366   1.553   7.744  0.1836 -1.2202 -1.1826
  806MOL0     C 8696   1.385   1.404   7.717 -0.1449  0.1922  0.2401
  806MOL0     C 8697   1.366   1.387   7.563 -0.3237  0.7746  0.6767
  806MOL0     C 8698   1.225   1.364   7.529  1.0573 -0.7525  0.2073
  806MOL0     O 8699   1.151   1.481   7.513  0.0392  0.2612  0.1466
  806MOL0     C 8700   1.011   1.471   7.485 -0.9176 -0.2651 -0.3123
  806MOL0     C 8701   0.939   1.354   7.472 -0.8694 -0.1390 -0.0923
  806MOL0     C 8702   0.808   1.350   7.437 -0.3658 -1.2515 -0.0941
  806MOL0     C 8703   0.736   1.469   7.395 -0.3699  0.2659 -0.2300
  806MOL0     C 8704   0.605   1.475   7.344  0.8271 -0.5947 -0.9799
  806MOL0     O 8705   0.558   1.596   7.308  0.1797 -1.0863 -0.0681
  806MOL0     C 8706   0.442   1.611   7.251  0.4765 -0.1729  0.8273
  806MOL0     C 8707   0.429   1.575   7.109 -0.1463  0.4557 -0.1313
  806MOL0     C 8708   0.305   1.579   7.051 -0.3870  0.6824 -0.0375
  806MOL0     C 8709   0.194   1.621   7.121  0.0147  0.1610  0.8460
  806MOL0     O 8710   0.083   1.651   7.047 -0.3687  0.2619  0.1111
  806MOL0     C 8711   0.067   1.792   7.020 -0.7099 -1.0130 -0.6710
  806MOL0     C 8712   0.184   1.848   6.951  0.1015  0.3746 -0.2812
  806MOL0     C 8713   0.152   1.997   6.918  0.4002  1.4842 -0.3942
  806MOL0     C 8714   0.235   2.047   6.799 -0.2876 -0.6400  0.2064
  806MOL0     C 8715   0.178   2.002   6.663  0.5385 -0.1017  0.5581
  806MOL0     C 8716   0.253   2.052   6.544 -0.0915 -0.8113 -0.7118
  806MOL0     C 8717   0.215   2.006   6.403  0.6324 -0.5150 -1.1916
  806MOL0     C 8718   0.301   2.086   6.298  0.3706 -0.4215  0.1961
  806MOL0    Cl 8719   0.282   2.015   6.131  0.7197  0.4054 -0.1475
  806MOL0     C 8720   0.201   1.648   7.258 -0.3687 -0.5942 -0.1521
  806MOL0     C 8721   0.326   1.647   7.317  0.2859  0.0042  0.3506
  806MOL0     O 8722   0.538   1.371   7.350 -0.3493  0.4730  0.5534
  806MOL0     C 8723   0.813   1.583   7.404 -0.4257  0.6185 -0.2083
  806MOL0     C 8724   0.945   1.592   7.447  0.2821 -0.4841 -0.2648
  806MOL0     N 8725   1.553   1.560   7.922 -0.0820  0.8042  0.6622
  806MOL0     N 8726   1.575   1.617   8.024 -0.3187 -0.6061  0.0919
  806MOL0     C 8727   1.015   2.694   8.150  0.5718  0.4473  0.3202
  806MOL0     C 8728   1.062   2.827   8.146  0.6140  0.1337  0.7466
  806MOL0     C 8729   1.291   3.203   8.007  1.0106 -0.4898  0.0803
  806MOL0     C 8730   1.181   3.287   7.965 -0.5176  0.1786 -0.2462
  806MOL0     C 8731   1.198   3.424   7.936 -0.5761 -0.0916 -0.1613
  806MOL0     C 8732   1.327   3.481   7.963  0.4509  0.2587  0.2994
  806MOL0     O 8733   1.337   3.616   7.938 -0.6697  0.2656  1.0644
  806MOL0     C 8734   1.388   3.646   7.807 -0.3308  1.1964 -1.0291
  806MOL0     C 8735   1.287   3.686   7.703  0.6685 -0.1947  0.5434
  806MOL0     C 8736   1.221   3.816   7.755  0.3268  0.0698  0.3908
  806MOL0     C 8737   1.128   3.886   7.657 -0.4674  0.1498 -0.4256
  806MOL0     C 8738   1.189   3.919   7.530  0.1821 -0.2474  1.0512
  806MOL0     C 8739   1.234   3.953   7.420 -0.1517  0.3907  0.8733
  806MOL0     C 8740   1.435   3.391   7.988 -0.4076 -1.0246  0.3666
  806MOL0     C 8741   1.419   3.261   8.009  1.9265  0.2434 -0.2951
  806MOL0     C 8742   1.546   3.180   8.029 -0.0999 -0.8260 -0.4638
  806MOL0     H 8743   1.137   2.844   7.823  0.1527 -1.0309 -0.3094
  806MOL0     H 8744   1.087   2.593   7.828  0.7349 -2.1439  1.3551
  806MOL0     H 8745   1.109   2.435   8.231 -0.8301 -1.6280  0.5120
  806MOL0     H 8746   1.082   2.290   8.131  1.0166 -1.4752 -3.0933
  806MOL0     H 8747   1.263   2.525   8.024 -0.0646 -0.1619  0.4535
  806MOL0     H 8748   1.227   2.373   7.951 -1.5126  1.2449  1.3010
  806MOL0     H 8749   1.394   2.444   8.201  0.3114  0.3680 -1.4765
  806MOL0     H 8750   1.457   2.380   8.049 -1.6628  0.3587 -1.0345
  806MOL0     H 8751   1.301   2.230   8.257 -0.2139 -0.8086 -0.1324
  806MOL0     H 8752   1.322   2.166   8.088 -1.7018  2.0842 -1.2656
  806MOL0     H 8753   1.563   2.196   8.133 -0.4729 -0.7872  0.3128
  806MOL0     H 8754   1.537   2.257   8.292  2.9800  1.7490 -1.6328
  806MOL0     H 8755   1.581   2.011   8.296 -0.7077  0.9365 -0.3055
  806MOL0     H 8756   1.404   2.045   8.334 -0.9985  3.5850 -0.2500
  806MOL0     H 8757   1.517   1.977   8.050  0.7368 -0.2762  0.0751
  806MOL0     H 8758   1.352   1.955   8.130  0.7079 -0.5440  1.0296
  806MOL0     H 8759   1.568   1.781   8.225 -0.1338 -0.5282 -0.3623
  806MOL0     H 8760   1.396   1.773   8.233 -1.8193 -0.2074 -1.4328
  806MOL0     H 8761   1.285   1.737   7.937 -0.5138 -0.1518 -1.7400
  806MOL0     H 8762   1.259   1.571   7.756  0.4478  0.6088 -1.3175
  806MOL0     H 8763   1.407   1.619   7.667  1.6303 -0.2047  0.3836
  806MOL0     H 8764   1.477   1.368   7.764 -0.5676  0.1807  1.0785
  806MOL0     H 8765   1.313   1.351   7.779  0.7494  0.2331  1.3538
  806MOL0     H 8766   1.422   1.299   7.530  0.0339  1.1807  0.1823
  806MOL0     H 8767   1.406   1.470   7.503  1.1238 -0.1719  0.2837
  806MOL0     H 8768   1.186   1.298   7.606  0.9119 -0.2036  0.6120
  806MOL0     H 8769   1.216   1.293   7.446  4.8107 -2.2811  0.8728
  806MOL0     H 8770   0.996   1.265   7.498 -0.4788  0.6439  1.9051
  806MOL0     H 8771   0.753   1.257   7.444  1.8099 -2.7395 -1.5170
  806MOL0     H 8772   0.512   1.532   7.055 -0.1043  1.2805 -0.7483
  806MOL0     H 8773   0.301   1.548   6.947 -2.1672  1.2906 -0.1783
  806MOL0     H 8774  -0.022   1.800   6.956 -3.5978 -3.4029  2.6697
  806MOL0     H 8775   0.053   1.852   7.110 -4.8150 -0.2940 -1.5720
  806MOL0     H 8776   0.281   1.827   6.997  0.0735 -0.5483 -0.6323
  806MOL0     H 8777   0.195   1.792   6.858  3.3986  3.2748 -1.9099
  806MOL0     H 8778   0.047   2.005   6.889 -0.0908  1.0724  1.1435
  806MOL0     H 8779   0.163   2.062   7.006 -0.7263  3.4199 -1.6114
  806MOL0     H 8780   0.329   1.993   6.803  0.4009  0.3384 -1.6311
  806MOL0     H 8781   0.248   2.154   6.821 -0.4719 -0.6603  0.4222
  806MOL0     H 8782   0.074   2.034   6.649  1.0412  1.6363  0.4938
  806MOL0     H 8783   0.192   1.894   6.659 -0.4636 -0.2068 -0.9984
  806MOL0     H 8784   0.242   2.160   6.540  0.3612 -0.6958  0.7608
  806MOL0     H 8785   0.358   2.031   6.568  0.6262  3.5519  0.6902
  806MOL0     H 8786   0.110   2.030   6.383  0.4316  0.3932  0.7221
  806MOL0     H 8787   0.234   1.899   6.389 -0.0959 -0.3465 -4.3620
  806MOL0     H 8788   0.293   2.195   6.300  0.3390 -0.4310  0.7342
  806MOL0     H 8789   0.402   2.061   6.332 -0.0454 -1.1398  0.9749
  806MOL0     H 8790   0.122   1.702   7.309 -0.1186  0.1402 -0.5187
  806MOL0     H 8791   0.334   1.658   7.424 -0.7826  0.8883  0.3516
  806MOL0     H 8792   0.775   1.678   7.370 -2.4342  0.6787  1.8805
  806MOL0     H 8793   1.006   1.681   7.439  2.3938 -1.7819  0.7728
  806MOL0     H 8794   0.966   2.661   8.241  0.9570  2.1702  1.2087
  806MOL0     H 8795   1.050   2.890   8.233 -1.0272 -0.9152  1.3248
  806MOL0     H 8796   1.079   3.250   7.965 -0.1547 -0.9227  1.5405
  806MOL0     H 8797   1.116   3.489   7.909 -1.3729 -0.9444  0.1346
  806MOL0     H 8798   1.440   3.559   7.766 -0.4606  0.3983  0.4262
  806MOL0     H 8799   1.449   3.734   7.829 -2.3074  1.7161  3.5851
  806MOL0     H 8800   1.209   3.610   7.691  0.9420 -0.3350 -0.4728
  806MOL0     H 8801   1.312   3.708   7.599 -0.8873  0.4359  0.2697
  806MOL0     H 8802   1.289   3.898   7.781  0.0765  0.6477 -0.7012
  806MOL0     H 8803   1.164   3.789   7.844 -3.0264 -0.7116 -1.8340
  806MOL0     H 8804   1.054   3.811   7.626  1.5797 -1.4292 -1.6977
  806MOL0     H 8805   1.084   3.971   7.711 -0.9584  0.8880 -1.9458
  806MOL0     H 8806   1.274   3.999   7.332  2.2510  0.3106  1.8506
  806MOL0     H 8807   1.536   3.430   7.979 -0.1184 -0.9132  3.1597
  806MOL0     H 8808   1.643   3.222   7.999 -0.7446 -1.2684 -3.4987
  806MOL0     H 8809   1.551   3.165   8.137 -4.4642 -1.5055 -0.1555
  806MOL0     H 8810   1.556   3.088   7.971  2.2352 -1.5316  0.9199
  807MOL0     O 8811   1.117   4.792  10.671  0.4230 -0.4012 -0.8486
  807MOL0     C 8812   1.056   4.823  10.773 -0.1445  0.5558 -0.5998
  807MOL0     O 8813   1.096   4.788  10.902 -0.2722 -0.2603 -0.8440
  807MOL0     C 8814   1.215   4.733  10.911  0.1437 -1.5399 -0.5149
  807MOL0     C 8815   1.247   4.623  10.833 -0.0947  0.6413  0.2716
  807MOL0     C 8816   1.365   4.547  10.858  0.3000  0.0868  0.7598
  807MOL0     C 8817   1.449   4.578  10.962 -1.1605 -0.4085 -0.0076
  807MOL0     O 8818   1.567   4.507  10.964 -0.0115  0.1526  0.2047
  807MOL0     C 8819   1.689   4.556  10.999 -0.5786  0.1220  0.2243
  807MOL0     C 8820   1.732   4.677  10.931  0.8151 -0.5894 -0.4424
  807MOL0     C 8821   1.835   4.746  11.028  0.2556  0.3107 -0.0953
  807MOL0     C 8822   1.983   4.698  11.019  0.6657  0.3350  0.0475
  807MOL0     C 8823   2.083   4.808  11.029  0.5887  0.0073  0.1901
  807MOL0     C 8824   2.222   4.756  11.060  0.6574  1.0416  0.4217
  807MOL0     C 8825   2.330   4.870  11.076  0.3421 -0.0880  0.2528
  807MOL0     C 8826   2.297   4.982  11.183  0.6356  0.6053  0.3234
  807MOL0     N 8827   2.402   5.075  11.183 -0.5893  0.0438 -1.0376
  807MOL0     C 8828   2.403   5.191  11.116  0.9057  1.2016  0.4101
  807MOL0     C 8829   2.519   5.260  11.159 -0.2338 -0.2648  1.3844
  807MOL0     C 8830   2.569   5.390  11.096  0.2423 -0.2882 -1.0231
  807MOL0     C 8831   2.720   5.379  11.035  0.5056  0.4142 -0.5325
  807MOL0     C 8832   2.764   5.528  11.013 -0.4213 -0.4069 -0.0691
  807MOL0     C 8833   2.912   5.560  10.988  0.3880  0.0288  0.0608
  807MOL0     O 8834   2.938   5.519  10.844 -0.2174 -0.7866  0.1873
  807MOL0     C 8835   2.980   5.399  10.810 -0.6722  0.0347  0.3527
  807MOL0     C 8836   2.909   5.348  10.706  0.8980  0.2577 -0.2450
  807MOL0     C 8837   2.940   5.216  10.661 -0.2741  0.2715  0.1469
  807MOL0     C 8838   3.052   5.145  10.719  0.2522 -0.7465 -0.2001
  807MOL0     C 8839   3.097   5.019  10.650 -0.0693  0.0160  0.0177
  807MOL0     O 8840   3.167   4.929  10.723 -0.2682 -0.0146 -0.9720
  807MOL0     C 8841   3.195   4.805  10.685  0.0121  0.4288  0.3652
  807MOL0     C 8842   3.319   4.752  10.716  1.0238 -0.5833  0.5530
  807MOL0     C 8843   3.351   4.621  10.697  1.1938  0.3665 -0.0021
  807MOL0     C 8844   3.249   4.535  10.636 -0.6398 -0.6638 -0.0602
  807MOL0     O 8845   3.284   4.410  10.612  0.7913 -0.2836 -0.9389
  807MOL0     C 8846   3.332   4.377  10.487  0.0894 -0.7476  0.4427
  807MOL0     C 8847   3.393   4.238  10.475  0.9109  0.0445 -1.0918
  807MOL0     C 8848   3.502   4.234  10.373 -0.1928  0.3297  0.1367
  807MOL0     C 8849   3.639   4.287  10.425  0.2879 -1.2247 -1.2704
  807MOL0     C 8850   3.750   4.255  10.329 -0.4392  0.5104  1.1676
  807MOL0     C 8851   3.795   4.376  10.247  0.1494  0.8867 -0.0840
  807MOL0     C 8852   3.899   4.338  10.152 -0.6821 -0.7125 -0.3224
  807MOL0     C 8853   4.007   4.459  10.140  0.0942 -0.0794 -0.2389
  807MOL0    Cl 8854   4.093   4.514  10.288  0.7278  0.2158 -0.2035
  807MOL0     C 8855   3.125   4.585  10.608 -0.0576  0.0599  0.4550
  807MOL0     C 8856   3.096   4.721  10.634  0.0524  0.5565  0.0464
  807MOL0     O 8857   3.072   5.002  10.528  0.1356 -0.5579 -0.4054
  807MOL0     C 8858   3.113   5.197  10.832  1.0766  0.5031 -0.1718
  807MOL0     C 8859   3.083   5.330  10.870 -0.0076  0.1886 -0.0122
  807MOL0     N 8860   2.569   5.195  11.272  0.7952  0.2906 -0.1318
  807MOL0     N 8861   2.486   5.091  11.293  0.2941 -0.4279 -0.6847
  807MOL0     C 8862   1.407   4.675  11.060  0.0846  0.2567 -0.3104
  807MOL0     C 8863   1.286   4.750  11.030 -0.7771  0.1345 -0.0478
  807MOL0     C 8864   0.934   4.901  10.765 -0.0732 -0.1904 -1.0231
  807MOL0     C 8865   0.885   4.955  10.892 -0.0049  0.1443  0.0165
  807MOL0     C 8866   0.761   5.020  10.896 -0.2475  0.7789  0.8149
  807MOL0     C 8867   0.682   5.053  10.783 -0.9739 -0.8082  0.4384
  807MOL0     O 8868   0.562   5.121  10.781 -0.7777 -0.6066 -0.3709
  807MOL0     C 8869   0.499   5.152  10.908  0.2782  0.0631  0.7541
  807MOL0     C 8870   0.391   5.251  10.897  0.2932 -0.2028 -0.1788
  807MOL0     C 8871   0.421   5.381  10.816 -0.0863  0.4438 -0.4199
  807MOL0     C 8872   0.299   5.473  10.798 -0.0786 -0.1379  0.3917
  807MOL0     C 8873   0.235   5.519  10.919  0.2479  0.1696  0.5406
  807MOL0     C 8874   0.197   5.535  11.029 -0.3071 -1.1215  0.6928
  807MOL0     C 8875   0.736   5.009  10.660  0.4210 -0.0637 -0.6586
  807MOL0     C 8876   0.855   4.935  10.649  0.7310 -0.2362  0.6564
  807MOL0     C 8877   0.914   4.932  10.506 -0.1695 -0.3970  0.3800
  807MOL0     H 8878   1.177   4.589  10.757 -0.1922  1.9369 -0.2589
  807MOL0     H 8879   1.385   4.460  10.796 -3.0161  0.8599 -1.6851
  807MOL0     H 8880   1.693   4.572  11.107  0.0561 -0.5461  0.2988
  807MOL0     H 8881   1.765   4.480  10.983 -0.5118 -0.1886  1.8284
  807MOL0     H 8882   1.656   4.752  10.907  0.8557 -0.9884 -1.9835
  807MOL0     H 8883   1.784   4.646  10.839  2.9907 -0.7401  0.7675
  807MOL0     H 8884   1.802   4.739  11.132  0.1130  0.7376 -0.1066
  807MOL0     H 8885   1.842   4.854  11.009 -2.5114  0.1769 -2.3646
  807MOL0     H 8886   2.014   4.613  11.081  4.6100  0.1842 -1.8510
  807MOL0     H 8887   1.977   4.671  10.913 -5.1329 -1.4652  0.4407
  807MOL0     H 8888   2.081   4.876  10.943 -1.3218  0.6132  0.6708
  807MOL0     H 8889   2.054   4.868  11.115  1.2468  0.2927  0.2164
  807MOL0     H 8890   2.219   4.689  11.147  0.5684  0.9854  0.3753
  807MOL0     H 8891   2.259   4.693  10.978 -2.3661  0.1585 -0.3944
  807MOL0     H 8892   2.323   4.928  10.983 -1.1681  1.1438  1.0924
  807MOL0     H 8893   2.431   4.831  11.089  0.7155  1.0599  0.9104
  807MOL0     H 8894   2.202   5.024  11.150  0.9147  0.1879 -1.0714
  807MOL0     H 8895   2.298   4.935  11.282 -0.1035  1.2668  0.6539
  807MOL0     H 8896   2.327   5.206  11.041 -1.0760 -1.6204  1.6668
  807MOL0     H 8897   2.505   5.409  11.009  0.1651 -0.8568 -1.0964
  807MOL0     H 8898   2.559   5.477  11.161  0.5048  0.4003 -1.8876
  807MOL0     H 8899   2.785   5.328  11.107 -2.7220 -3.2142  0.1640
  807MOL0     H 8900   2.715   5.320  10.943 -0.1304  1.7001 -1.3480
  807MOL0     H 8901   2.730   5.582  11.101 -0.8327 -0.5638 -0.1285
  807MOL0     H 8902   2.712   5.570  10.925  1.8645 -0.3883 -1.4949
  807MOL0     H 8903   2.975   5.511  11.062 -1.7416 -0.5301  1.6039
  807MOL0     H 8904   2.934   5.667  10.989  1.1400 -0.1224  0.0657
  807MOL0     H 8905   2.834   5.410  10.658  1.1306  0.8814  0.1912
  807MOL0     H 8906   2.901   5.169  10.572 -1.0932  2.4043 -0.6775
  807MOL0     H 8907   3.391   4.807  10.776 -1.5536 -0.8224  4.1511
  807MOL0     H 8908   3.450   4.577  10.708  0.2198 -1.8586  0.3905
  807MOL0     H 8909   3.258   4.383  10.407 -0.2486 -2.2582  0.6130
  807MOL0     H 8910   3.410   4.452  10.471  0.2559  0.2105  4.5027
  807MOL0     H 8911   3.424   4.211  10.576 -4.4066  1.1435  1.1772
  807MOL0     H 8912   3.318   4.166  10.441  1.9023 -0.6756 -1.8101
  807MOL0     H 8913   3.506   4.130  10.342 -0.3243  0.9948 -2.3041
  807MOL0     H 8914   3.473   4.282  10.279  2.4584 -2.1241 -2.1450
  807MOL0     H 8915   3.654   4.240  10.523  1.4239  0.7463 -0.4163
  807MOL0     H 8916   3.634   4.395  10.441 -3.1901 -1.2793 -1.2446
  807MOL0     H 8917   3.733   4.164  10.271  1.7453  0.8340 -0.0783
  807MOL0     H 8918   3.829   4.234  10.402 -1.3654 -2.9465  1.3624
  807MOL0     H 8919   3.713   4.413  10.185  0.8969  0.8271 -1.1404
  807MOL0     H 8920   3.817   4.459  10.316  1.1542 -1.4217  2.5658
  807MOL0     H 8921   3.843   4.330  10.059 -0.8947 -2.9956 -0.0726
  807MOL0     H 8922   3.935   4.239  10.184 -2.5289 -1.5865 -0.8445
  807MOL0     H 8923   4.089   4.424  10.076  0.2452 -1.5055  0.6929
  807MOL0     H 8924   3.959   4.544  10.091  1.2262  0.9196  0.3213
  807MOL0     H 8925   3.049   4.522  10.563  0.7787 -0.1982 -0.6490
  807MOL0     H 8926   2.999   4.757  10.600  1.1027  3.9163  0.2778
  807MOL0     H 8927   3.179   5.139  10.896 -1.0560  1.3400  3.0344
  807MOL0     H 8928   3.135   5.383  10.950  0.1827  0.1179 -0.0882
  807MOL0     H 8929   1.467   4.707  11.144  0.2257  0.4905 -0.4988
  807MOL0     H 8930   1.254   4.816  11.110 -0.3140 -3.6431  3.6155
  807MOL0     H 8931   0.932   4.930  10.987 -1.0760  0.9392  0.7837
  807MOL0     H 8932   0.724   5.022  10.998  0.9428 -2.3283  1.4003
  807MOL0     H 8933   0.566   5.181  10.990 -0.3142  0.3535  1.1443
  807MOL0     H 8934   0.455   5.060  10.947  0.6105 -0.7450 -0.6934
  807MOL0     H 8935   0.364   5.281  10.999 -1.8425 -1.2198 -0.3793
  807MOL0     H 8936   0.292   5.218  10.862 -0.4184  1.9745 -0.3937
  807MOL0     H 8937   0.442   5.344  10.715 -1.7475  3.8504 -2.1927
  807MOL0     H 8938   0.508   5.441  10.844  0.7239  0.9521 -3.6272
  807MOL0     H 8939   0.328   5.565  10.747 -2.6091  1.8319  2.2288
  807MOL0     H 8940   0.229   5.421  10.733  1.1377 -0.0421 -1.0402
  807MOL0     H 8941   0.138   5.550  11.117 -1.5111 -0.4403 -0.1978
  807MOL0     H 8942   0.685   5.049  10.573 -1.9620 -0.3715  0.5183
  807MOL0     H 8943   1.021   4.953  10.522 -0.3746 -0.1535  1.5017
  807MOL0     H 8944   0.886   4.836  10.463 -0.1200 -0.2419 -0.0075
  807MOL0     H 8945   0.880   5.015  10.443  0.4099 -0.0490  0.5105
  808MOL0     O 8946   7.980   0.298   4.669  0.0525  0.7636 -0.2446
  808MOL0     C 8947   8.002   0.382   4.755 -0.3969  0.2045  0.2880
  808MOL0     O 8948   8.098   0.358   4.853 -0.4166 -0.2790  0.3768
  808MOL0     C 8949   8.155   0.231   4.862 -0.5793 -0.3595 -0.0487
  808MOL0     C 8950   8.296   0.217   4.862 -0.7789 -0.6741  0.7799
  808MOL0     C 8951   8.347   0.084   4.879 -0.1671 -0.3640 -0.5352
  808MOL0     C 8952   8.268  -0.026   4.918 -0.2606  0.0014  1.0011
  808MOL0     O 8953   8.322  -0.151   4.955 -0.4167 -0.1533 -0.1136
  808MOL0     C 8954   8.425  -0.197   4.856  0.8994 -0.3750 -0.0514
  808MOL0     C 8955   8.360  -0.222   4.713 -0.3311 -0.5152  0.6771
  808MOL0     C 8956   8.471  -0.223   4.599  0.3523  0.4380  0.2032
  808MOL0     C 8957   8.390  -0.206   4.456 -0.4098  0.2159  0.4057
  808MOL0     C 8958   8.333  -0.076   4.408 -0.1162  0.0196  0.5128
  808MOL0     C 8959   8.441   0.033   4.390  0.0583 -0.1457  0.2646
  808MOL0     C 8960   8.514   0.014   4.257  0.4688 -0.0034  0.4637
  808MOL0     C 8961   8.621   0.126   4.253  0.0912 -0.6734 -0.6592
  808MOL0     N 8962   8.735   0.089   4.170 -0.6613 -0.0711 -0.6806
  808MOL0     C 8963   8.863   0.102   4.201 -0.0908  0.0408  0.1914
  808MOL0     C 8964   8.934   0.050   4.091 -1.0687 -0.3215 -0.6624
  808MOL0     C 8965   9.088   0.051   4.084 -0.9985 -0.4417 -0.8629
  808MOL0     C 8966   9.125   0.125   3.961 -0.2411  0.3982 -0.0325
  808MOL0     C 8967   9.275   0.164   3.957  0.9413  1.0301  0.2408
  808MOL0     C 8968   9.305   0.270   3.856  0.1211 -0.1751 -1.3016
  808MOL0     O 8969   9.451   0.283   3.864  0.6912 -0.4101  0.0438
  808MOL0     C 8970   9.498   0.364   3.768  0.6049 -0.3594  0.1204
  808MOL0     C 8971   9.628   0.355   3.738 -1.3352  0.0229  0.5962
  808MOL0     C 8972   9.694   0.422   3.638 -0.7884  0.4960  1.2523
  808MOL0     C 8973   9.634   0.521   3.571  0.1752 -1.1972  0.2714
  808MOL0     C 8974   9.711   0.603   3.469  0.4640 -0.4006 -0.3427
  808MOL0     O 8975   9.847   0.591   3.478  0.5824  0.1249  0.1761
  808MOL0     C 8976   9.928   0.612   3.371 -0.0698 -0.3679 -0.0013
  808MOL0     C 8977   9.919   0.698   3.258  1.0532 -0.0939 -0.4086
  808MOL0     C 8978  10.032   0.730   3.184 -0.0330  0.0751  0.7719
  808MOL0     C 8979  10.154   0.675   3.218 -0.3652 -0.1774  0.3844
  808MOL0     O 8980  10.265   0.704   3.148  0.0900 -0.4651 -0.7364
  808MOL0     C 8981  10.294   0.611   3.050  0.2626 -0.2390  0.5839
  808MOL0     C 8982  10.208   0.630   2.919 -0.8540 -0.7523 -0.2640
  808MOL0     C 8983  10.254   0.532   2.815  0.2179  0.0856  0.3668
  808MOL0     C 8984  10.176   0.547   2.680 -0.3895 -0.5285  0.8854
  808MOL0     C 8985  10.207   0.676   2.595  0.6115  0.1431 -0.6181
  808MOL0     C 8986  10.122   0.674   2.467  0.2616 -0.3056  0.3579
  808MOL0     C 8987   9.972   0.702   2.482  0.5780 -0.3222  0.0495
  808MOL0     C 8988   9.950   0.842   2.516  0.2546  0.1722  0.0846
  808MOL0    Cl 8989   9.861   0.839   2.675 -0.2034 -0.5466 -0.2090
  808MOL0     C 8990  10.159   0.576   3.319  0.0927 -0.6128 -0.3515
  808MOL0     C 8991  10.045   0.541   3.382 -0.4123 -0.0747 -0.1197
  808MOL0     O 8992   9.648   0.669   3.384  0.2244 -0.9013 -0.6673
  808MOL0     C 8993   9.501   0.556   3.604  1.1756 -0.1703 -0.4743
  808MOL0     C 8994   9.429   0.483   3.704 -0.2482  0.7560  0.6537
  808MOL0     N 8995   8.842  -0.001   4.007 -0.4473 -0.4016 -0.0630
  808MOL0     N 8996   8.732   0.022   4.053 -0.0572 -0.2441  0.1304
  808MOL0     C 8997   8.128   0.001   4.932  0.6877  0.3112  1.1756
  808MOL0     C 8998   8.071   0.127   4.895  0.7312  0.5695 -1.0530
  808MOL0     C 8999   7.935   0.503   4.762 -0.2604 -0.4599  0.5480
  808MOL0     C 9000   7.974   0.605   4.850 -0.5914 -0.0105  1.0009
  808MOL0     C 9001   7.916   0.726   4.857  0.1394 -0.0936  0.2001
  808MOL0     C 9002   7.802   0.751   4.798 -0.3782  0.2402  0.1842
  808MOL0     O 9003   7.739   0.864   4.835 -0.0827  1.0511 -0.4060
  808MOL0     C 9004   7.621   0.913   4.763 -0.4977  0.0414  0.1402
  808MOL0     C 9005   7.632   0.976   4.620 -1.1033 -0.8198  0.2630
  808MOL0     C 9006   7.501   1.008   4.550  0.8951  0.0785  0.0220
  808MOL0     C 9007   7.441   0.895   4.467 -0.3821 -0.1937  0.0465
  808MOL0     C 9008   7.552   0.812   4.386  0.0519 -0.9986 -0.4337
  808MOL0     C 9009   7.643   0.754   4.322  0.0929  0.4939 -1.0008
  808MOL0     C 9010   7.756   0.660   4.707 -0.4024  0.0727  0.9686
  808MOL0     C 9011   7.821   0.538   4.690 -0.9563 -0.1486 -0.5496
  808MOL0     C 9012   7.762   0.453   4.588 -0.8833  0.9379 -0.8243
  808MOL0     H 9013   8.366   0.292   4.828 -2.0519 -0.6055 -1.9682
  808MOL0     H 9014   8.453   0.069   4.896 -0.3791  0.4906  1.8340
  808MOL0     H 9015   8.513  -0.133   4.851 -0.2727  1.5219  1.7447
  808MOL0     H 9016   8.469  -0.293   4.883 -2.1489 -1.1614  2.9130
  808MOL0     H 9017   8.281  -0.151   4.688 -2.5572 -3.4202 -1.2215
  808MOL0     H 9018   8.302  -0.314   4.705 -0.7333 -0.1468 -1.0823
  808MOL0     H 9019   8.525  -0.317   4.613 -0.7316 -0.0986  0.9267
  808MOL0     H 9020   8.547  -0.145   4.608 -1.5392  2.2805  0.8259
  808MOL0     H 9021   8.454  -0.253   4.380 -0.6653 -2.5418  1.7586
  808MOL0     H 9022   8.299  -0.263   4.479  0.7782 -1.1130  2.0891
  808MOL0     H 9023   8.275  -0.091   4.316  0.0478 -0.7045  0.5186
  808MOL0     H 9024   8.262  -0.042   4.484  1.2391  0.9768  1.4045
  808MOL0     H 9025   8.391   0.129   4.372  0.0998 -0.4396 -1.5629
  808MOL0     H 9026   8.509   0.028   4.476  0.6872 -1.4296 -0.2770
  808MOL0     H 9027   8.451   0.030   4.169  1.0954  1.8299  0.3101
  808MOL0     H 9028   8.551  -0.088   4.252  0.6755  0.0578  0.7229
  808MOL0     H 9029   8.576   0.216   4.210  0.3124 -0.1486  0.1777
  808MOL0     H 9030   8.648   0.160   4.354  1.1954 -1.0998 -0.7919
  808MOL0     H 9031   8.904   0.162   4.282  1.1244  0.9293 -1.0342
  808MOL0     H 9032   9.139   0.075   4.178 -0.4395 -2.7376 -0.5161
  808MOL0     H 9033   9.118  -0.054   4.077 -0.4477 -0.6996  2.9301
  808MOL0     H 9034   9.099   0.070   3.870 -2.0208  2.3428 -0.7782
  808MOL0     H 9035   9.064   0.216   3.962 -3.0878 -1.3020  3.1299
  808MOL0     H 9036   9.333   0.072   3.945  0.5061  0.3840  2.5935
  808MOL0     H 9037   9.302   0.203   4.055  0.7625  2.7597 -0.3531
  808MOL0     H 9038   9.246   0.360   3.874 -0.6015 -0.8794 -0.0139
  808MOL0     H 9039   9.277   0.222   3.763  0.1219 -1.7723 -0.5103
  808MOL0     H 9040   9.681   0.277   3.792 -0.8059  0.1765  0.3048
  808MOL0     H 9041   9.799   0.397   3.632 -0.8828  0.5630 -1.5474
  808MOL0     H 9042   9.826   0.748   3.235 -0.0847 -0.4262  2.9095
  808MOL0     H 9043  10.027   0.792   3.095  0.0431 -0.8134  0.1338
  808MOL0     H 9044  10.399   0.624   3.021  0.1634 -3.0365 -1.4502
  808MOL0     H 9045  10.283   0.510   3.089 -0.0943 -0.7520 -0.8082
  808MOL0     H 9046  10.101   0.613   2.935 -1.5532  1.8608 -1.5036
  808MOL0     H 9047  10.219   0.732   2.879  0.9651  0.0851  2.1365
  808MOL0     H 9048  10.360   0.539   2.790 -0.2096 -1.7534 -2.5128
  808MOL0     H 9049  10.239   0.429   2.850  2.8806 -0.4753  0.0629
  808MOL0     H 9050  10.068   0.552   2.700 -0.7082 -1.5875 -0.4270
  808MOL0     H 9051  10.195   0.459   2.618  0.0394  0.3758 -0.2950
  808MOL0     H 9052  10.312   0.669   2.565  1.8455  2.0509  2.7150
  808MOL0     H 9053  10.187   0.773   2.641 -3.6840 -0.9485  0.3033
  808MOL0     H 9054  10.166   0.751   2.404  1.1113 -0.6058  0.5730
  808MOL0     H 9055  10.130   0.578   2.414 -1.3950 -0.5548  0.5093
  808MOL0     H 9056   9.929   0.637   2.559 -0.0655 -1.3136 -1.1023
  808MOL0     H 9057   9.920   0.689   2.387  2.5842 -0.4722 -1.0901
  808MOL0     H 9058  10.044   0.896   2.529  0.0908  0.9474 -1.6110
  808MOL0     H 9059   9.893   0.883   2.432  1.4912 -3.6832 -2.9393
  808MOL0     H 9060  10.250   0.532   3.357 -1.2406 -0.9149  2.7704
  808MOL0     H 9061  10.062   0.464   3.457 -0.4205 -0.4508 -0.5020
  808MOL0     H 9062   9.443   0.640   3.568  1.5430 -0.0367 -0.7731
  808MOL0     H 9063   9.323   0.496   3.718 -0.3541  3.2186 -1.7108
  808MOL0     H 9064   8.063  -0.076   4.975  0.8505  0.6430  2.0348
  808MOL0     H 9065   7.966   0.155   4.901  1.1445  2.4985 -2.0434
  808MOL0     H 9066   8.067   0.604   4.906  0.0433 -0.1571 -0.0358
  808MOL0     H 9067   7.955   0.816   4.902  3.2637  0.6278 -3.3610
  808MOL0     H 9068   7.579   0.995   4.822  0.0744 -0.3083  1.0665
  808MOL0     H 9069   7.551   0.830   4.758  1.8836 -2.0180 -2.4841
  808MOL0     H 9070   7.694   0.910   4.560 -1.0868 -0.0988 -0.5255
  808MOL0     H 9071   7.681   1.073   4.633 -1.4939 -0.7542  1.4240
  808MOL0     H 9072   7.522   1.092   4.483  2.4520 -0.8716 -0.7262
  808MOL0     H 9073   7.422   1.047   4.616 -1.7303 -0.0048 -2.8395
  808MOL0     H 9074   7.392   0.821   4.531 -2.2306  0.6592 -0.3126
  808MOL0     H 9075   7.366   0.947   4.407  0.2488 -0.1596 -0.7251
  808MOL0     H 9076   7.733   0.720   4.276  1.1326  1.9000 -0.0783
  808MOL0     H 9077   7.669   0.690   4.651 -0.0183  0.3181  0.4956
  808MOL0     H 9078   7.684   0.505   4.532 -3.4959 -1.5367  0.2855
  808MOL0     H 9079   7.833   0.417   4.513 -3.2616 -1.4418 -2.1152
  808MOL0     H 9080   7.715   0.364   4.631  2.6833 -1.4428 -1.4326
  809MOL0     O 9081   9.877   2.375   0.109 -0.5852  0.5507 -0.6546
  809MOL0     C 9082   9.893   2.343  -0.013  0.7088 -1.4978  0.2784
  809MOL0     O 9083  10.014   2.326  -0.072 -0.5912  0.6536  0.0371
  809MOL0     C 9084  10.129   2.323   0.009 -0.2360 -0.1219  0.3894
  809MOL0     C 9085  10.165   2.210   0.072 -0.2178  0.5937  0.4785
  809MOL0     C 9086  10.285   2.204   0.143 -0.0721  0.1176 -1.0834
  809MOL0     C 9087  10.351   2.325   0.172  0.2500 -0.7179  0.7725
  809MOL0     O 9088  10.455   2.311   0.261  0.2287  0.0055 -0.1324
  809MOL0     C 9089  10.524   2.436   0.302 -0.1548  0.0251 -1.7005
  809MOL0     C 9090  10.618   2.419   0.425 -0.1183  0.0930  0.1554
  809MOL0     C 9091  10.540   2.401   0.549  0.2414  0.0092 -0.3432
  809MOL0     C 9092  10.629   2.368   0.669  0.6272 -0.4016 -0.4309
  809MOL0     C 9093  10.536   2.348   0.787  0.3108  0.4411 -0.5085
  809MOL0     C 9094  10.636   2.315   0.907  0.1444 -0.7683 -0.4402
  809MOL0     C 9095  10.554   2.289   1.036  0.4162 -0.3868 -0.2860
  809MOL0     C 9096  10.666   2.290   1.148 -0.6580 -0.2608  0.0191
  809MOL0     N 9097  10.595   2.243   1.263 -0.4144  0.0151  0.2851
  809MOL0     C 9098  10.518   2.321   1.339 -0.4136  0.5624  0.0350
  809MOL0     C 9099  10.471   2.240   1.438  0.0372 -1.3863  1.4591
  809MOL0     C 9100  10.373   2.267   1.544 -0.3572  0.1560  0.6984
  809MOL0     C 9101  10.365   2.420   1.567 -0.4802  1.1472 -0.1480
  809MOL0     C 9102  10.336   2.452   1.715  0.4664 -0.6810  1.1298
  809MOL0     C 9103  10.349   2.600   1.743  0.3594 -0.1752 -0.1587
  809MOL0     O 9104  10.278   2.687   1.656 -0.2675  0.4067 -0.2751
  809MOL0     C 9105  10.145   2.679   1.664  0.3851 -0.6537  0.5731
  809MOL0     C 9106  10.067   2.694   1.785  0.2760  0.0872  0.0957
  809MOL0     C 9107   9.940   2.652   1.792 -0.3516 -0.1238 -1.0967
  809MOL0     C 9108   9.865   2.625   1.677 -0.1632 -0.7261  0.0508
  809MOL0     C 9109   9.716   2.605   1.684 -0.5212 -0.1683  1.1958
  809MOL0     O 9110   9.660   2.591   1.561  0.7617  1.3951  0.6863
  809MOL0     C 9111   9.528   2.565   1.534  0.5226 -0.0506  0.2455
  809MOL0     C 9112   9.450   2.672   1.513  0.9946 -0.0334  0.4697
  809MOL0     C 9113   9.311   2.655   1.481 -0.0170 -0.0923 -0.3761
  809MOL0     C 9114   9.254   2.526   1.485  0.2960 -0.4123  0.6230
  809MOL0     O 9115   9.117   2.502   1.471  0.5958 -1.3072  0.6136
  809MOL0     C 9116   9.024   2.613   1.449 -0.1279  0.3504  0.2866
  809MOL0     C 9117   8.892   2.559   1.395  0.4419 -0.4890 -0.1792
  809MOL0     C 9118   8.780   2.677   1.387 -0.2791 -0.1395 -0.1557
  809MOL0     C 9119   8.803   2.797   1.295  0.1646 -0.2992 -0.3912
  809MOL0     C 9120   8.679   2.877   1.254  0.4499 -1.1670  0.5959
  809MOL0     C 9121   8.720   2.980   1.159  0.0198  0.4346  0.4289
  809MOL0     C 9122   8.597   3.067   1.107  0.4285 -1.0986  0.6187
  809MOL0     C 9123   8.636   3.187   1.018 -0.1741  0.6390  0.5328
  809MOL0    Cl 9124   8.694   3.328   1.113  0.5413 -0.6809  0.1301
  809MOL0     C 9125   9.331   2.409   1.521 -1.0362 -0.4360 -0.0313
  809MOL0     C 9126   9.465   2.438   1.546 -1.2791  0.5043  0.2250
  809MOL0     O 9127   9.654   2.618   1.786 -0.3615 -0.0336 -0.2423
  809MOL0     C 9128   9.933   2.623   1.557 -0.1550  0.2795 -0.3344
  809MOL0     C 9129  10.073   2.630   1.552  0.4465 -0.4842 -0.2056
  809MOL0     N 9130  10.507   2.116   1.413 -0.5700 -0.0767  0.3698
  809MOL0     N 9131  10.586   2.115   1.300 -0.0075 -0.6924 -0.0373
  809MOL0     C 9132  10.315   2.445   0.106  0.5193 -0.0584 -0.5362
  809MOL0     C 9133  10.202   2.446   0.027 -0.3174  0.7973  0.6250
  809MOL0     C 9134   9.783   2.326  -0.109  0.7695 -0.6255  0.2570
  809MOL0     C 9135   9.800   2.294  -0.244  0.3520 -0.4020 -0.3025
  809MOL0     C 9136   9.691   2.287  -0.333 -0.1666 -0.3790 -0.4828
  809MOL0     C 9137   9.556   2.308  -0.293 -1.0888  1.3519 -0.0572
  809MOL0     O 9138   9.441   2.272  -0.365 -0.3155  0.3387  1.2992
  809MOL0     C 9139   9.469   2.176  -0.461  0.0200  0.1737 -0.3046
  809MOL0     C 9140   9.329   2.131  -0.502 -0.9266  0.3672  0.0773
  809MOL0     C 9141   9.253   2.066  -0.387 -0.3023  0.4564  0.1595
  809MOL0     C 9142   9.182   1.940  -0.405 -0.4104  0.9762  0.6031
  809MOL0     C 9143   9.274   1.826  -0.410  1.2296 -0.0303 -0.5454
  809MOL0     C 9144   9.338   1.725  -0.405 -0.8093 -0.5246  0.2956
  809MOL0     C 9145   9.545   2.341  -0.159  0.2504  0.2412 -0.6686
  809MOL0     C 9146   9.650   2.346  -0.066 -0.0222  0.0315  1.5315
  809MOL0     C 9147   9.601   2.372   0.071  0.2953  0.2159  0.4609
  809MOL0     H 9148  10.104   2.121   0.062 -2.5160  2.0907  0.1180
  809MOL0     H 9149  10.316   2.120   0.205 -1.8724  0.4160  0.2978
  809MOL0     H 9150  10.577   2.475   0.215 -0.9315 -0.8135 -2.5797
  809MOL0     H 9151  10.462   2.516   0.342  1.9748  0.7135  0.4338
  809MOL0     H 9152  10.679   2.507   0.445 -1.1147  1.3698 -2.0635
  809MOL0     H 9153  10.681   2.329   0.421 -2.8491 -2.0569  2.0580
  809MOL0     H 9154  10.480   2.311   0.533  0.7261 -0.4765  0.5008
  809MOL0     H 9155  10.464   2.477   0.566 -1.0406 -0.7661 -2.2587
  809MOL0     H 9156  10.694   2.283   0.646  2.1798  0.5710  0.1710
  809MOL0     H 9157  10.694   2.453   0.692  1.5451 -1.2102  0.0943
  809MOL0     H 9158  10.474   2.436   0.803  1.6402  1.6549 -1.7471
  809MOL0     H 9159  10.473   2.259   0.779  1.0058 -0.2766  1.3745
  809MOL0     H 9160  10.689   2.222   0.885 -0.7979 -1.5958  0.6317
  809MOL0     H 9161  10.708   2.396   0.922  1.6051 -2.3758  1.8228
  809MOL0     H 9162  10.518   2.189   1.010  1.7682  0.0714 -4.7890
  809MOL0     H 9163  10.473   2.361   1.053  2.1852  1.5431  0.3229
  809MOL0     H 9164  10.757   2.236   1.121 -1.3297 -1.3906 -0.0430
  809MOL0     H 9165  10.694   2.395   1.161 -0.6418 -0.1275 -1.0689
  809MOL0     H 9166  10.498   2.426   1.316 -0.0337  0.4501 -0.8650
  809MOL0     H 9167  10.274   2.225   1.523 -0.5824  1.3904 -0.8881
  809MOL0     H 9168  10.415   2.216   1.631 -1.9952 -2.3766  0.1090
  809MOL0     H 9169  10.466   2.461   1.557  0.6865 -1.0911  1.5351
  809MOL0     H 9170  10.291   2.463   1.500  0.5178  2.3959 -0.4793
  809MOL0     H 9171  10.402   2.389   1.776  1.2325 -0.8900  0.0978
  809MOL0     H 9172  10.233   2.417   1.731 -1.6404  4.7963  1.6042
  809MOL0     H 9173  10.456   2.623   1.731 -0.1247  1.9590 -0.8140
  809MOL0     H 9174  10.344   2.616   1.851  0.8848 -1.5222  0.0908
  809MOL0     H 9175  10.121   2.703   1.879 -2.5590 -0.8880  1.9330
  809MOL0     H 9176   9.882   2.659   1.884 -1.6686 -0.1773 -1.8919
  809MOL0     H 9177   9.494   2.770   1.523 -3.4610  2.2107  0.2725
  809MOL0     H 9178   9.257   2.744   1.452 -2.9574 -2.4879 -2.9562
  809MOL0     H 9179   9.014   2.642   1.554  1.9928  0.3809  0.5324
  809MOL0     H 9180   9.067   2.692   1.387 -1.1025  0.1936 -0.6086
  809MOL0     H 9181   8.901   2.503   1.302  1.3433 -1.7526  0.6498
  809MOL0     H 9182   8.849   2.484   1.461 -2.8197  0.9001 -0.5003
  809MOL0     H 9183   8.680   2.639   1.362 -1.5197  1.6078  1.8037
  809MOL0     H 9184   8.783   2.715   1.490 -0.7386  0.2010 -0.2702
  809MOL0     H 9185   8.845   2.767   1.198  1.2767  2.1240 -0.7255
  809MOL0     H 9186   8.869   2.873   1.337  1.0594 -0.1560 -1.9465
  809MOL0     H 9187   8.637   2.934   1.338 -1.9592 -0.6464 -0.8652
  809MOL0     H 9188   8.599   2.816   1.213 -0.7997 -0.8026  2.3759
  809MOL0     H 9189   8.792   3.045   1.211  2.6934 -1.3758 -0.8290
  809MOL0     H 9190   8.757   2.920   1.076 -1.1868  0.3615 -0.0723
  809MOL0     H 9191   8.541   3.118   1.186  0.7646 -1.3177  1.0030
  809MOL0     H 9192   8.526   3.000   1.057 -0.8015  1.5669 -1.4971
  809MOL0     H 9193   8.720   3.148   0.959 -0.6435 -0.1577  0.3793
  809MOL0     H 9194   8.551   3.210   0.954  0.1626 -2.2651 -1.1288
  809MOL0     H 9195   9.285   2.311   1.529 -1.7752  0.0388  2.5911
  809MOL0     H 9196   9.538   2.359   1.561  0.9486  2.9758  4.2060
  809MOL0     H 9197   9.887   2.608   1.460  0.6800 -0.3843 -0.6421
  809MOL0     H 9198  10.120   2.615   1.455 -1.2763  1.7044 -1.4761
  809MOL0     H 9199  10.371   2.533   0.134  1.1334 -0.9637  1.2773
  809MOL0     H 9200  10.161   2.526  -0.034 -0.4427 -0.3185 -0.8089
  809MOL0     H 9201   9.903   2.272  -0.271  0.8324 -2.8675  2.8885
  809MOL0     H 9202   9.712   2.265  -0.437 -1.1493 -2.4836 -0.2871
  809MOL0     H 9203   9.538   2.096  -0.430  2.7193  1.2946 -2.8885
  809MOL0     H 9204   9.513   2.224  -0.548  1.5986 -0.7013 -0.0268
  809MOL0     H 9205   9.343   2.059  -0.583  1.6649  1.2167 -0.3258
  809MOL0     H 9206   9.267   2.213  -0.539 -2.9702 -0.5923  1.1947
  809MOL0     H 9207   9.175   2.140  -0.369 -1.5281 -1.5973  4.8977
  809MOL0     H 9208   9.315   2.056  -0.297  2.7482  2.6362 -1.5092
  809MOL0     H 9209   9.111   1.917  -0.325  3.8953  0.6523  4.7811
  809MOL0     H 9210   9.132   1.946  -0.502  0.9051  1.3095 -0.0676
  809MOL0     H 9211   9.387   1.631  -0.417 -0.9192 -0.4669 -0.6651
  809MOL0     H 9212   9.443   2.367  -0.132 -0.3775  0.0544 -2.7116
  809MOL0     H 9213   9.493   2.356   0.073  0.1297  1.3143  1.3041
  809MOL0     H 9214   9.650   2.302   0.140  0.8079 -0.3308 -0.4269
  809MOL0     H 9215   9.606   2.479   0.093  1.2631  1.7878 -5.5567
  810MOL0     O 9216   6.849   1.171   9.610 -0.2965 -0.1991  0.2749
  810MOL0     C 9217   6.895   1.265   9.667 -0.0198  0.6203 -0.7094
  810MOL0     O 9218   7.019   1.273   9.710 -1.0234  0.3899  1.2690
  810MOL0     C 9219   7.108   1.162   9.705  0.3649  0.3831  0.4782
  810MOL0     C 9220   7.246   1.164   9.684 -0.6646  0.3643 -0.4153
  810MOL0     C 9221   7.324   1.045   9.707 -0.0068  0.1553  0.5420
  810MOL0     C 9222   7.272   0.923   9.752 -0.0712  0.6701 -0.5231
  810MOL0     O 9223   7.343   0.812   9.775  0.3564  0.2900 -0.4994
  810MOL0     C 9224   7.471   0.829   9.849  0.2983 -1.0151 -0.4779
  810MOL0     C 9225   7.508   0.692   9.901 -0.5188 -0.7762 -0.0427
  810MOL0     C 9226   7.634   0.698   9.993  0.6871  0.4135  0.6851
  810MOL0     C 9227   7.659   0.561  10.042 -1.4981  0.4751 -1.4291
  810MOL0     C 9228   7.811   0.542  10.081  0.6568 -0.0558  0.1335
  810MOL0     C 9229   7.840   0.400  10.137  0.5204  0.3876 -0.7302
  810MOL0     C 9230   7.992   0.364  10.133  0.6668 -0.2098  0.1300
  810MOL0     C 9231   8.004   0.216  10.168 -0.0114  0.2473  0.6593
  810MOL0     N 9232   8.138   0.166  10.160  1.0736  0.1751  0.4721
  810MOL0     C 9233   8.201   0.130  10.048  0.3131 -1.0897  0.3461
  810MOL0     C 9234   8.321   0.093  10.098 -0.0881 -0.1865  0.3447
  810MOL0     C 9235   8.431   0.070   9.997  0.0845  0.3496 -0.2809
  810MOL0     C 9236   8.517  -0.048  10.031  0.3066 -0.2416 -0.1284
  810MOL0     C 9237   8.663  -0.033   9.975  0.2542  0.5507 -0.3362
  810MOL0     C 9238   8.683  -0.054   9.827 -0.7411  0.1053 -0.3582
  810MOL0     O 9239   8.702  -0.193   9.800 -0.4994  0.5035 -0.3809
  810MOL0     C 9240   8.730  -0.244   9.672 -0.1841  0.3842 -0.6380
  810MOL0     C 9241   8.736  -0.383   9.657 -0.8174 -0.1570 -0.1302
  810MOL0     C 9242   8.756  -0.439   9.537 -0.0194 -0.3658  0.1738
  810MOL0     C 9243   8.790  -0.357   9.426 -0.3500  0.0436  0.1164
  810MOL0     C 9244   8.798  -0.419   9.298  0.6675 -0.5408  0.0464
  810MOL0     O 9245   8.736  -0.535   9.281 -0.3031 -0.4249 -0.1358
  810MOL0     C 9246   8.729  -0.593   9.161  0.5154  0.0441  1.1024
  810MOL0     C 9247   8.724  -0.522   9.048 -0.2521  0.7954  0.3789
  810MOL0     C 9248   8.725  -0.595   8.924 -0.1332  0.4089 -0.2318
  810MOL0     C 9249   8.713  -0.735   8.923 -0.9374 -0.0465 -0.3757
  810MOL0     O 9250   8.707  -0.804   8.807  0.4608  0.0247 -1.5586
  810MOL0     C 9251   8.591  -0.797   8.735  0.2037  0.2117  0.0413
  810MOL0     C 9252   8.599  -0.871   8.594  0.3260  0.3726 -0.1541
  810MOL0     C 9253   8.478  -0.967   8.571  0.9449 -0.0017 -1.1125
  810MOL0     C 9254   8.476  -1.087   8.664  0.9902 -0.4948  0.3728
  810MOL0     C 9255   8.595  -1.187   8.653  0.0659  0.2340  0.2380
  810MOL0     C 9256   8.615  -1.235   8.508  1.0934  0.7677  0.2954
  810MOL0     C 9257   8.505  -1.294   8.415  0.0364  0.6717 -0.2697
  810MOL0     C 9258   8.522  -1.251   8.265  1.6067 -0.3897 -0.4119
  810MOL0    Cl 9259   8.424  -1.355   8.149  0.0616 -0.1794 -0.0358
  810MOL0     C 9260   8.723  -0.805   9.040  0.7987  0.0996 -0.4915
  810MOL0     C 9261   8.729  -0.732   9.155  0.2857  0.0442 -0.0931
  810MOL0     O 9262   8.866  -0.361   9.213  0.2544  0.0993  0.0351
  810MOL0     C 9263   8.820  -0.229   9.445 -0.3397  0.9448 -0.3639
  810MOL0     C 9264   8.782  -0.170   9.565  0.1831  0.0677 -0.2423
  810MOL0     N 9265   8.320   0.105  10.236 -0.0179 -0.1227 -0.3711
  810MOL0     N 9266   8.207   0.140  10.276 -0.3467 -0.5699 -0.1076
  810MOL0     C 9267   7.132   0.919   9.756  0.1676  0.0830 -0.0211
  810MOL0     C 9268   7.049   1.032   9.726  0.2111 -0.1782  0.3440
  810MOL0     C 9269   6.809   1.382   9.674  0.4096 -0.4467  0.7173
  810MOL0     C 9270   6.863   1.502   9.714  0.4778  0.4446 -0.5338
  810MOL0     C 9271   6.810   1.620   9.685 -0.4067 -0.3363 -0.6150
  810MOL0     C 9272   6.688   1.629   9.614  0.4350  0.4242 -0.0985
  810MOL0     O 9273   6.632   1.748   9.578 -1.0451 -0.7681  0.2528
  810MOL0     C 9274   6.701   1.866   9.617 -0.2496 -0.8429  0.9463
  810MOL0     C 9275   6.629   1.996   9.551  0.2777  0.4300 -0.3917
  810MOL0     C 9276   6.510   2.050   9.634 -0.6310 -0.4222  0.5480
  810MOL0     C 9277   6.496   2.203   9.630 -0.0487 -0.1139  0.4780
  810MOL0     C 9278   6.471   2.247   9.483  0.0950  0.4275  0.2386
  810MOL0     C 9279   6.470   2.284   9.366  0.0874  1.1053  0.4538
  810MOL0     C 9280   6.618   1.515   9.574  0.6360 -0.0655 -0.3077
  810MOL0     C 9281   6.671   1.387   9.619 -0.5598  0.0755 -0.5677
  810MOL0     C 9282   6.585   1.269   9.580  0.1964 -0.3718  0.0360
  810MOL0     H 9283   7.294   1.257   9.658  1.1179  0.0809  1.5579
  810MOL0     H 9284   7.432   1.055   9.709  0.0335 -0.3858  1.3895
  810MOL0     H 9285   7.533   0.884   9.777  0.9654  0.3503  1.0831
  810MOL0     H 9286   7.453   0.893   9.935 -2.9508 -1.3532 -0.7654
  810MOL0     H 9287   7.524   0.622   9.819  1.4596 -1.9903  1.2638
  810MOL0     H 9288   7.429   0.650   9.965 -1.9335  0.5996 -0.8396
  810MOL0     H 9289   7.618   0.771  10.074  1.8539 -0.9916  2.2466
  810MOL0     H 9290   7.714   0.727   9.925 -1.9824  3.0170 -1.6224
  810MOL0     H 9291   7.587   0.528  10.117  2.0021 -1.9718  1.2282
  810MOL0     H 9292   7.645   0.482   9.968  0.0743 -1.0257 -0.2002
  810MOL0     H 9293   7.873   0.559   9.993 -0.4009  1.3918 -0.3648
  810MOL0     H 9294   7.839   0.623  10.149 -0.4165  2.0530 -1.8354
  810MOL0     H 9295   7.797   0.390  10.237 -2.2143  3.0386 -1.4970
  810MOL0     H 9296   7.780   0.342  10.065  0.1405  0.4775 -0.4849
  810MOL0     H 9297   8.037   0.437  10.201 -3.0326  0.5818  2.0036
  810MOL0     H 9298   8.022   0.363  10.028 -0.0653 -0.9738 -0.0772
  810MOL0     H 9299   7.971   0.201  10.272  0.5867 -1.0090  0.6833
  810MOL0     H 9300   7.929   0.158  10.113  1.7496 -0.4721 -1.0754
  810MOL0     H 9301   8.171   0.150   9.945  1.5626  3.4605  0.6519
  810MOL0     H 9302   8.393   0.065   9.895 -0.8831 -0.7261  0.1100
  810MOL0     H 9303   8.485   0.165   9.994 -0.2112  0.7436  3.2246
  810MOL0     H 9304   8.532  -0.065  10.138  1.1053  2.3355  0.2407
  810MOL0     H 9305   8.464  -0.139  10.005  1.9513 -1.1383 -0.4808
  810MOL0     H 9306   8.729  -0.104  10.026  2.5237  1.3900 -1.9514
  810MOL0     H 9307   8.705   0.064  10.000  3.1793 -1.1668  2.0822
  810MOL0     H 9308   8.773  -0.003   9.791  0.4551 -1.8388 -0.2178
  810MOL0     H 9309   8.598  -0.013   9.770 -1.5536  0.1506  0.8597
  810MOL0     H 9310   8.706  -0.448   9.738 -0.7348  2.0143  1.7146
  810MOL0     H 9311   8.743  -0.545   9.515 -1.4008  0.0423 -1.1065
  810MOL0     H 9312   8.723  -0.415   9.031  0.8030  0.6237 -0.9282
  810MOL0     H 9313   8.720  -0.543   8.829  2.4031 -1.4940 -1.5210
  810MOL0     H 9314   8.506  -0.838   8.791 -0.6393  1.2210 -0.4776
  810MOL0     H 9315   8.572  -0.690   8.724 -1.0355  0.0846  0.7115
  810MOL0     H 9316   8.603  -0.805   8.507  5.1482 -1.0174 -1.3369
  810MOL0     H 9317   8.693  -0.925   8.578  1.2607  1.0382  2.4860
  810MOL0     H 9318   8.390  -0.903   8.579  2.7742  2.8201 -1.9155
  810MOL0     H 9319   8.476  -1.000   8.466  2.1659  2.4276 -1.9905
  810MOL0     H 9320   8.380  -1.131   8.635  0.9108 -0.7400  0.9854
  810MOL0     H 9321   8.465  -1.039   8.762 -1.5707 -1.4561  0.6223
  810MOL0     H 9322   8.575  -1.277   8.712  2.1199 -1.6999 -1.8312
  810MOL0     H 9323   8.682  -1.141   8.701 -0.9544  0.7315  1.6825
  810MOL0     H 9324   8.665  -1.153   8.455  2.5656  0.1154  0.6225
  810MOL0     H 9325   8.697  -1.307   8.516  1.0165  0.4274 -1.5575
  810MOL0     H 9326   8.404  -1.263   8.444 -1.4010 -2.4733 -1.3954
  810MOL0     H 9327   8.513  -1.403   8.424 -0.0882  0.7366  0.7206
  810MOL0     H 9328   8.487  -1.148   8.253 -1.7852 -0.9102  2.9691
  810MOL0     H 9329   8.627  -1.255   8.233  2.5262  2.0951  1.8420
  810MOL0     H 9330   8.726  -0.913   9.035 -4.3679 -0.2600 -0.7755
  810MOL0     H 9331   8.754  -0.791   9.243  2.2976 -0.2080 -0.7864
  810MOL0     H 9332   8.858  -0.176   9.359 -0.1524 -0.7431 -1.3628
  810MOL0     H 9333   8.793  -0.062   9.569 -0.6371  0.1299  0.8463
  810MOL0     H 9334   7.084   0.823   9.768 -0.6330  0.6061  1.1986
  810MOL0     H 9335   6.943   1.012   9.740  0.2538  0.5853  1.9953
  810MOL0     H 9336   6.964   1.505   9.756  0.0314  1.1492  0.5350
  810MOL0     H 9337   6.859   1.712   9.712 -0.0538 -1.1236  1.6693
  810MOL0     H 9338   6.793   1.856   9.559  0.6129  1.0158  1.8853
  810MOL0     H 9339   6.718   1.887   9.723 -0.7296  1.2955  0.6472
  810MOL0     H 9340   6.578   1.974   9.457  1.5262 -3.6230 -0.3202
  810MOL0     H 9341   6.697   2.080   9.531 -1.0256  1.8654  0.8691
  810MOL0     H 9342   6.518   2.035   9.742 -4.1014 -1.7052  0.7208
  810MOL0     H 9343   6.422   1.999   9.596  1.7645 -4.0878 -0.6419
  810MOL0     H 9344   6.414   2.233   9.696  1.6051  0.7652  2.2019
  810MOL0     H 9345   6.595   2.240   9.657  0.8319 -1.4729 -0.7722
  810MOL0     H 9346   6.452   2.315   9.265  0.7466 -0.3271 -0.1372
  810MOL0     H 9347   6.525   1.538   9.524  1.6214 -0.5618 -2.4671
  810MOL0     H 9348   6.487   1.301   9.544 -0.2699 -0.3095  1.3076
  810MOL0     H 9349   6.631   1.202   9.507  0.3976 -1.0345  0.7699
  810MOL0     H 9350   6.560   1.220   9.674  1.6373 -1.2887 -0.0433
  811MOL0     O 9351   8.962   6.842   0.155  0.1203 -0.0285 -0.7546
  811MOL0     C 9352   9.082   6.821   0.173 -0.9366  0.5273  0.1146
  811MOL0     O 9353   9.139   6.788   0.293 -0.2947  0.9048  0.5283
  811MOL0     C 9354   9.061   6.724   0.382 -0.4739  0.3602  0.4619
  811MOL0     C 9355   8.940   6.778   0.434 -0.4782  0.2186  1.4468
  811MOL0     C 9356   8.888   6.724   0.552  0.4215 -0.5204  0.3115
  811MOL0     C 9357   8.935   6.612   0.612  0.9124  0.3925  0.1051
  811MOL0     O 9358   8.910   6.554   0.734  0.0318 -0.1938  0.5082
  811MOL0     C 9359   8.818   6.632   0.813 -0.1148  0.1568  0.3752
  811MOL0     C 9360   8.810   6.565   0.948 -0.6476  1.0727 -0.3111
  811MOL0     C 9361   8.765   6.663   1.061  0.0580  0.3190  0.3734
  811MOL0     C 9362   8.735   6.562   1.184  0.0222 -0.8490  0.2169
  811MOL0     C 9363   8.742   6.637   1.321  0.2320 -0.9591 -0.1451
  811MOL0     C 9364   8.751   6.552   1.446 -0.2814  0.0276  0.4790
  811MOL0     C 9365   8.787   6.625   1.578  0.0096  0.1984 -0.6525
  811MOL0     C 9366   8.937   6.633   1.610  0.5027  0.7914 -0.4945
  811MOL0     N 9367   9.018   6.707   1.521  0.1412 -0.8217  1.2995
  811MOL0     C 9368   9.062   6.838   1.543 -0.5781 -0.2617 -0.6610
  811MOL0     C 9369   9.162   6.856   1.461 -0.3898 -0.2481 -0.0614
  811MOL0     C 9370   9.239   6.983   1.441  0.1162 -0.4766 -0.1008
  811MOL0     C 9371   9.296   6.992   1.304 -0.3939 -1.1469  0.3498
  811MOL0     C 9372   9.324   7.152   1.281  0.8132  0.6126  0.2702
  811MOL0     C 9373   9.364   7.176   1.128  0.5758 -0.0435  0.4140
  811MOL0     O 9374   9.375   7.314   1.103  0.7105 -0.2925 -0.0135
  811MOL0     C 9375   9.400   7.336   0.967  0.5451  0.0589 -0.8569
  811MOL0     C 9376   9.511   7.417   0.943  0.6738 -0.3641 -0.4917
  811MOL0     C 9377   9.547   7.459   0.817  0.0670 -0.1190 -0.1411
  811MOL0     C 9378   9.476   7.416   0.708 -0.3717  0.3058 -0.5447
  811MOL0     C 9379   9.520   7.465   0.569 -0.1364 -0.1159 -0.4605
  811MOL0     O 9380   9.596   7.589   0.570 -0.0746  0.8582 -0.2087
  811MOL0     C 9381   9.642   7.639   0.445 -0.5061 -0.0423 -0.3404
  811MOL0     C 9382   9.721   7.560   0.350 -0.2321 -0.2468  0.5328
  811MOL0     C 9383   9.768   7.621   0.235 -0.2106  0.1655  0.9562
  811MOL0     C 9384   9.726   7.755   0.193 -1.0558 -0.4245 -0.1797
  811MOL0     O 9385   9.775   7.822   0.081 -0.2685 -0.6408  0.4026
  811MOL0     C 9386   9.876   7.752  -0.005  0.4710  0.0008 -0.2026
  811MOL0     C 9387   9.879   7.812  -0.151  1.1034  0.4693  0.4676
  811MOL0     C 9388   9.745   7.821  -0.219 -0.1903 -0.9793  0.1603
  811MOL0     C 9389   9.741   7.908  -0.346 -0.6240 -0.0441 -0.5522
  811MOL0     C 9390   9.596   7.892  -0.398  0.9797  0.0626  0.0355
  811MOL0     C 9391   9.555   7.963  -0.526  0.4970  0.2957 -1.0189
  811MOL0     C 9392   9.411   7.929  -0.548  0.7815 -0.3843 -0.0612
  811MOL0     C 9393   9.373   7.970  -0.682 -0.5489 -0.0166 -0.4383
  811MOL0    Cl 9394   9.197   7.925  -0.698  0.0892 -0.1638 -0.1570
  811MOL0     C 9395   9.649   7.831   0.277 -0.0947  0.6487 -0.2005
  811MOL0     C 9396   9.603   7.768   0.402  0.2611  0.3844 -0.6930
  811MOL0     O 9397   9.486   7.406   0.471 -0.2452 -0.2715 -1.3153
  811MOL0     C 9398   9.362   7.340   0.726 -0.4071  0.2509 -0.0226
  811MOL0     C 9399   9.327   7.286   0.861 -0.0331  0.2849  0.5137
  811MOL0     N 9400   9.179   6.736   1.388  0.0207  0.6933 -0.4549
  811MOL0     N 9401   9.090   6.650   1.418 -0.1825  0.7354 -0.5544
  811MOL0     C 9402   9.049   6.556   0.558  0.1262  0.0499  0.1392
  811MOL0     C 9403   9.110   6.607   0.442  0.2037 -0.9859  0.5873
  811MOL0     C 9404   9.179   6.852   0.071  1.4112  0.1718 -0.2973
  811MOL0     C 9405   9.221   6.985   0.052 -0.1282  1.0931  0.5155
  811MOL0     C 9406   9.312   7.019  -0.046  0.5713 -0.1931  1.0758
  811MOL0     C 9407   9.345   6.925  -0.148  0.0794 -0.2608 -0.2652
  811MOL0     O 9408   9.414   6.971  -0.255 -0.2145  0.7450  0.0177
  811MOL0     C 9409   9.436   6.899  -0.378  0.7538 -0.7059 -0.0292
  811MOL0     C 9410   9.491   6.977  -0.498 -0.3782 -0.7745 -0.6971
  811MOL0     C 9411   9.592   7.088  -0.462 -0.0928 -0.8427 -0.3062
  811MOL0     C 9412   9.659   7.151  -0.586 -0.3892 -0.3297  0.3832
  811MOL0     C 9413   9.767   7.074  -0.660 -0.6003  0.9226  0.3951
  811MOL0     C 9414   9.826   6.987  -0.718 -0.0186  0.7557 -0.2676
  811MOL0     C 9415   9.308   6.790  -0.137 -0.2620  0.0390 -0.2811
  811MOL0     C 9416   9.222   6.749  -0.027 -0.8017  0.9029  0.3040
  811MOL0     C 9417   9.179   6.602  -0.012 -0.0857  0.0577  0.6240
  811MOL0     H 9418   8.900   6.868   0.390  5.8893  2.7410 -0.3597
  811MOL0     H 9419   8.796   6.769   0.589 -1.1539 -3.4891  0.2953
  811MOL0     H 9420   8.839   6.738   0.832  0.0724  0.3190 -0.6663
  811MOL0     H 9421   8.714   6.633   0.779 -0.4739  4.5250  0.9252
  811MOL0     H 9422   8.905   6.532   0.991 -1.9393  0.9020  2.6694
  811MOL0     H 9423   8.743   6.479   0.947 -1.0282  1.3435  0.7084
  811MOL0     H 9424   8.673   6.718   1.040  0.7667  2.0494  1.5490
  811MOL0     H 9425   8.838   6.741   1.084 -1.5771  3.0446 -2.9082
  811MOL0     H 9426   8.641   6.508   1.171 -0.8818  0.8696 -0.7922
  811MOL0     H 9427   8.822   6.496   1.194  2.7557  2.2790 -1.1325
  811MOL0     H 9428   8.830   6.702   1.324  0.7782 -1.6959  0.1447
  811MOL0     H 9429   8.662   6.712   1.323 -0.4294 -1.6575 -0.2557
  811MOL0     H 9430   8.657   6.498   1.463 -2.6492  3.4666 -0.5946
  811MOL0     H 9431   8.819   6.467   1.432 -1.2116 -0.7530  0.6023
  811MOL0     H 9432   8.738   6.574   1.663  0.3852 -4.0091 -2.6985
  811MOL0     H 9433   8.747   6.727   1.578 -0.6775 -0.0567 -0.0126
  811MOL0     H 9434   8.946   6.656   1.717 -0.5421 -3.5046  0.6967
  811MOL0     H 9435   8.973   6.530   1.606 -0.2438  0.4990  0.1150
  811MOL0     H 9436   9.014   6.916   1.602 -1.3780  1.1257 -3.0441
  811MOL0     H 9437   9.185   7.072   1.473 -0.4451 -1.0603  0.6143
  811MOL0     H 9438   9.317   6.983   1.518 -0.2762  1.7223  0.3670
  811MOL0     H 9439   9.392   6.941   1.297  0.6278  0.7767 -0.4318
  811MOL0     H 9440   9.236   6.945   1.225  1.6731 -1.3070 -1.2191
  811MOL0     H 9441   9.408   7.172   1.348  1.1467 -0.9765  0.3610
  811MOL0     H 9442   9.236   7.216   1.292 -0.3893 -0.1676 -3.2958
  811MOL0     H 9443   9.276   7.137   1.076  0.9738 -0.6142  0.1544
  811MOL0     H 9444   9.454   7.122   1.097  2.0710  1.3358  2.1490
  811MOL0     H 9445   9.558   7.444   1.037  0.0579 -0.9033 -0.0160
  811MOL0     H 9446   9.633   7.524   0.807 -0.1717  0.5829  1.9043
  811MOL0     H 9447   9.756   7.462   0.383  1.5250  0.2052  0.1378
  811MOL0     H 9448   9.835   7.560   0.175  0.6581  0.1367  1.9367
  811MOL0     H 9449   9.979   7.751   0.032  0.9703 -0.0642 -1.5531
  811MOL0     H 9450   9.851   7.647  -0.025  0.2402 -0.0739  0.4689
  811MOL0     H 9451   9.918   7.914  -0.164 -1.9581  1.9519  1.9700
  811MOL0     H 9452   9.943   7.747  -0.211  1.6176 -0.6269  2.1187
  811MOL0     H 9453   9.723   7.716  -0.236  2.4225 -1.9725  2.2263
  811MOL0     H 9454   9.670   7.858  -0.148  0.5761  1.1064 -0.0342
  811MOL0     H 9455   9.810   7.867  -0.420 -1.7577 -2.3817 -0.4089
  811MOL0     H 9456   9.778   8.008  -0.321  1.9832 -1.4191  1.6435
  811MOL0     H 9457   9.521   7.915  -0.323  1.1882 -0.1910  0.3214
  811MOL0     H 9458   9.579   7.787  -0.421 -4.3023  0.4081  1.2221
  811MOL0     H 9459   9.558   8.072  -0.517 -1.0329  0.3921 -1.2977
  811MOL0     H 9460   9.616   7.931  -0.611  0.3243  0.4247 -1.1934
  811MOL0     H 9461   9.349   7.967  -0.466  1.5055 -3.4254  2.0616
  811MOL0     H 9462   9.394   7.821  -0.554 -1.4288 -0.0708 -0.3899
  811MOL0     H 9463   9.383   8.079  -0.687  1.0268 -0.0520  1.0684
  811MOL0     H 9464   9.424   7.938  -0.774 -1.3848 -1.1743 -0.5274
  811MOL0     H 9465   9.616   7.931   0.251  1.3970  1.0916 -0.4427
  811MOL0     H 9466   9.540   7.829   0.466  1.7563 -0.5813  1.8718
  811MOL0     H 9467   9.303   7.301   0.643 -2.5102 -3.4554  2.8866
  811MOL0     H 9468   9.238   7.227   0.881  0.8906 -1.0665  0.7577
  811MOL0     H 9469   9.106   6.493   0.625 -3.0733 -1.1087  2.0130
  811MOL0     H 9470   9.194   6.554   0.399 -1.7808 -2.6473 -1.5205
  811MOL0     H 9471   9.212   7.054   0.135 -1.9183  0.3289  1.0259
  811MOL0     H 9472   9.358   7.117  -0.056  5.2065 -2.2561 -0.6040
  811MOL0     H 9473   9.340   6.854  -0.405  1.2328 -1.2815 -0.8071
  811MOL0     H 9474   9.511   6.822  -0.357 -0.8636 -2.4915 -0.5417
  811MOL0     H 9475   9.402   7.020  -0.543 -0.5150  0.7354  0.9189
  811MOL0     H 9476   9.542   6.900  -0.558 -2.1226 -1.4653 -1.3596
  811MOL0     H 9477   9.675   7.047  -0.404 -0.0507  0.0381  0.2634
  811MOL0     H 9478   9.540   7.164  -0.404  1.5029  0.6421 -0.7629
  811MOL0     H 9479   9.582   7.184  -0.656 -1.0168 -0.2398  1.1057
  811MOL0     H 9480   9.707   7.241  -0.546  1.1062  0.2723 -2.4706
  811MOL0     H 9481   9.867   6.904  -0.771 -0.4363  0.2452  0.2031
  811MOL0     H 9482   9.323   6.711  -0.209 -0.1516 -2.2948  2.1279
  811MOL0     H 9483   9.228   6.557   0.075  0.2225  1.1715  1.0393
  811MOL0     H 9484   9.071   6.604   0.003  0.0761  1.3180  1.7466
  811MOL0     H 9485   9.209   6.542  -0.099 -2.2371 -0.5930  0.2734
  812MOL0     O 9486  10.148   0.226   3.739 -0.4245 -0.0647  0.3245
  812MOL0     C 9487  10.197   0.331   3.706  0.9675 -0.0318 -0.9864
  812MOL0     O 9488  10.291   0.348   3.619  0.8299  0.4696  0.6571
  812MOL0     C 9489  10.350   0.235   3.559 -0.3613  0.7444  0.7642
  812MOL0     C 9490  10.448   0.163   3.625  0.6750  0.4948 -0.4308
  812MOL0     C 9491  10.483   0.035   3.584  0.5421  0.0680 -0.1027
  812MOL0     C 9492  10.434  -0.019   3.461  1.4831 -1.0547  0.8300
  812MOL0     O 9493  10.486  -0.137   3.413  0.2756  0.5331 -0.5303
  812MOL0     C 9494  10.451  -0.185   3.284 -0.3636 -0.1504 -0.2748
  812MOL0     C 9495  10.305  -0.248   3.283  0.4915 -0.6696 -0.8839
  812MOL0     C 9496  10.317  -0.391   3.357  0.1967  0.1617 -0.4989
  812MOL0     C 9497  10.188  -0.435   3.438 -0.4122 -0.3402 -0.2634
  812MOL0     C 9498  10.200  -0.581   3.487  0.3787 -0.9151 -0.1145
  812MOL0     C 9499  10.108  -0.609   3.593  0.1727  0.0097  0.6834
  812MOL0     C 9500  10.115  -0.744   3.657  0.1501  0.9937  0.2690
  812MOL0     C 9501  10.006  -0.762   3.764  0.0654  0.6276  0.6772
  812MOL0     N 9502   9.976  -0.903   3.787 -0.0828  0.5373 -0.1700
  812MOL0     C 9503   9.857  -0.976   3.773 -0.7295 -0.2972 -0.6143
  812MOL0     C 9504   9.863  -1.081   3.855  0.5073 -0.7481 -0.9544
  812MOL0     C 9505   9.751  -1.173   3.890  0.2434  0.4464  0.2843
  812MOL0     C 9506   9.785  -1.313   3.831 -0.3490 -0.4025  0.0226
  812MOL0     C 9507   9.687  -1.426   3.884 -0.6766 -0.3518 -0.1643
  812MOL0     C 9508   9.566  -1.434   3.783 -0.3949  1.0473  0.6745
  812MOL0     O 9509   9.592  -1.488   3.651 -0.6034  1.1440 -0.6531
  812MOL0     C 9510   9.485  -1.521   3.577  0.4170 -0.0001 -0.6765
  812MOL0     C 9511   9.492  -1.655   3.527 -0.6313  0.0702 -0.4037
  812MOL0     C 9512   9.402  -1.707   3.442  0.9138  0.7726  0.0134
  812MOL0     C 9513   9.290  -1.620   3.403  0.0865  0.3224 -0.2934
  812MOL0     C 9514   9.175  -1.669   3.309  0.4507  0.0339  0.3081
  812MOL0     O 9515   9.186  -1.799   3.269  0.2323  0.4871  0.2671
  812MOL0     C 9516   9.072  -1.851   3.199 -0.4386 -0.1056  0.2968
  812MOL0     C 9517   8.944  -1.856   3.256 -0.0346  0.8933 -0.1760
  812MOL0     C 9518   8.825  -1.892   3.189  0.6647 -0.6348 -0.0235
  812MOL0     C 9519   8.840  -1.957   3.066 -0.3620  0.1514  0.0386
  812MOL0     O 9520   8.723  -1.999   3.008  0.3503  0.8604  0.1081
  812MOL0     C 9521   8.709  -2.102   2.913  0.5176 -0.6546  0.1205
  812MOL0     C 9522   8.755  -2.239   2.976  0.0147 -0.6272  0.0849
  812MOL0     C 9523   8.689  -2.273   3.113  0.0519  0.1607  0.4593
  812MOL0     C 9524   8.745  -2.405   3.164 -0.1389 -0.0331 -0.2120
  812MOL0     C 9525   8.723  -2.430   3.315 -1.1266 -0.0891 -0.0845
  812MOL0     C 9526   8.749  -2.583   3.352  0.1315  0.5532 -1.2195
  812MOL0     C 9527   8.747  -2.623   3.506  0.2455  0.0902 -0.1094
  812MOL0     C 9528   8.853  -2.545   3.585  0.0659 -0.2541 -0.3774
  812MOL0    Cl 9529   8.866  -2.598   3.761 -0.2706  0.1278  0.1623
  812MOL0     C 9530   8.965  -1.945   2.998  0.1717  0.6961 -0.4777
  812MOL0     C 9531   9.082  -1.898   3.064  0.2908 -0.8484  0.0652
  812MOL0     O 9532   9.081  -1.595   3.294 -0.6720 -0.1612  0.3041
  812MOL0     C 9533   9.278  -1.495   3.458 -0.0480  0.5875  0.3444
  812MOL0     C 9534   9.378  -1.443   3.546  0.4276 -0.4080  0.6714
  812MOL0     N 9535   9.991  -1.083   3.911  0.4845 -0.3393  0.4043
  812MOL0     N 9536  10.054  -0.976   3.873 -0.4535 -0.6241  0.3591
  812MOL0     C 9537  10.328   0.057   3.387  1.3309 -0.3843  0.2821
  812MOL0     C 9538  10.287   0.178   3.443 -0.5261 -0.1984 -0.7110
  812MOL0     C 9539  10.135   0.467   3.760  0.3114  0.4355 -0.3959
  812MOL0     C 9540  10.179   0.577   3.686  0.2291 -0.1889 -0.9769
  812MOL0     C 9541  10.123   0.707   3.703 -0.2852 -0.1699 -0.3027
  812MOL0     C 9542  10.024   0.717   3.794  0.5257 -0.9970 -1.0183
  812MOL0     O 9543   9.980   0.840   3.825  0.6289 -0.2095  0.2597
  812MOL0     C 9544   9.908   0.911   3.723 -0.0259  0.0424  0.2027
  812MOL0     C 9545   9.849   1.047   3.762 -0.3808 -0.2283 -0.2553
  812MOL0     C 9546   9.954   1.122   3.840  0.1976  0.3257  0.4320
  812MOL0     C 9547   9.900   1.250   3.890  0.2491  0.1977  0.1956
  812MOL0     C 9548   9.797   1.237   3.994 -0.5896  0.3574 -0.4657
  812MOL0     C 9549   9.735   1.235   4.097 -0.0955  0.4871  0.4363
  812MOL0     C 9550   9.982   0.605   3.862  1.9434  0.0083 -0.4350
  812MOL0     C 9551  10.034   0.480   3.852 -0.8258 -0.1476  0.0742
  812MOL0     C 9552   9.978   0.366   3.923 -0.1829 -0.1690 -0.1420
  812MOL0     H 9553  10.488   0.211   3.714 -2.2096  0.0067  1.2305
  812MOL0     H 9554  10.563  -0.016   3.637 -0.5283 -0.1065  1.4133
  812MOL0     H 9555  10.441  -0.101   3.215 -2.1360  2.3733  2.7874
  812MOL0     H 9556  10.533  -0.246   3.243  1.4533  0.2270  2.4806
  812MOL0     H 9557  10.267  -0.259   3.181 -0.3186 -0.9460 -0.5599
  812MOL0     H 9558  10.226  -0.187   3.327  1.3405 -0.4422  0.3560
  812MOL0     H 9559  10.393  -0.395   3.435  1.4176 -0.5095 -1.6754
  812MOL0     H 9560  10.346  -0.456   3.274  0.9183  2.5103 -2.2066
  812MOL0     H 9561  10.180  -0.366   3.523  2.4242 -1.7953  1.3251
  812MOL0     H 9562  10.095  -0.440   3.381  0.6211 -4.5152 -1.9323
  812MOL0     H 9563  10.194  -0.650   3.402  3.6447  0.1451 -1.3647
  812MOL0     H 9564  10.303  -0.597   3.521  0.8359 -2.9892 -2.1745
  812MOL0     H 9565  10.130  -0.544   3.678  1.0373 -2.1090  2.1794
  812MOL0     H 9566  10.007  -0.597   3.553 -0.2511 -0.9988  1.3853
  812MOL0     H 9567  10.214  -0.760   3.701  1.4784  3.5404 -1.4947
  812MOL0     H 9568  10.106  -0.807   3.568  3.5280  2.2366 -1.1293
  812MOL0     H 9569  10.037  -0.728   3.864 -1.0444  0.0189  1.2467
  812MOL0     H 9570   9.906  -0.729   3.737 -0.2752 -0.8727  0.0260
  812MOL0     H 9571   9.773  -0.934   3.718 -0.6813  2.0840  1.0098
  812MOL0     H 9572   9.733  -1.175   3.997  1.6185  0.5975  0.5359
  812MOL0     H 9573   9.670  -1.136   3.826  0.4472  2.7119  1.2503
  812MOL0     H 9574   9.790  -1.319   3.722 -0.9294 -2.5342  0.0786
  812MOL0     H 9575   9.883  -1.340   3.873  1.0979  0.8307 -2.2925
  812MOL0     H 9576   9.660  -1.414   3.989  4.4465  3.8527  1.0671
  812MOL0     H 9577   9.747  -1.518   3.888  1.9728  1.2385 -0.6923
  812MOL0     H 9578   9.534  -1.330   3.770 -1.0275  0.5424 -3.1437
  812MOL0     H 9579   9.487  -1.492   3.832  2.7163 -3.2713  1.1432
  812MOL0     H 9580   9.570  -1.723   3.558 -0.9302 -0.1034 -0.0229
  812MOL0     H 9581   9.420  -1.808   3.405  2.6059  0.6815  0.9965
  812MOL0     H 9582   8.930  -1.827   3.360 -0.5727  2.1780 -0.5800
  812MOL0     H 9583   8.731  -1.880   3.241 -0.0885  1.5449 -1.7498
  812MOL0     H 9584   8.602  -2.119   2.897  0.5391  0.6381 -1.6970
  812MOL0     H 9585   8.761  -2.077   2.820 -1.6842  0.5169 -0.8919
  812MOL0     H 9586   8.730  -2.319   2.906 -1.3912  0.6142 -0.9078
  812MOL0     H 9587   8.863  -2.235   2.995  0.0159 -0.3799  0.0252
  812MOL0     H 9588   8.705  -2.199   3.191 -7.1121  1.9631  0.9885
  812MOL0     H 9589   8.582  -2.290   3.096  0.3409 -0.0405 -1.2788
  812MOL0     H 9590   8.853  -2.394   3.152 -0.3974  4.6364 -0.3561
  812MOL0     H 9591   8.709  -2.489   3.105  0.7603 -0.4066 -0.2391
  812MOL0     H 9592   8.617  -2.417   3.336 -1.4133 -2.7095  0.4294
  812MOL0     H 9593   8.777  -2.361   3.380  2.2684 -3.7701  1.4439
  812MOL0     H 9594   8.665  -2.639   3.309  1.8088 -2.1669 -1.1696
  812MOL0     H 9595   8.839  -2.630   3.312  1.0790  1.8604 -0.7011
  812MOL0     H 9596   8.764  -2.730   3.522  0.5244  0.2798  0.9329
  812MOL0     H 9597   8.653  -2.599   3.556  1.5483  3.1778  1.1756
  812MOL0     H 9598   8.947  -2.560   3.533  0.5862  2.1076 -0.2231
  812MOL0     H 9599   8.820  -2.440   3.581  5.5128  1.8128  0.1480
  812MOL0     H 9600   8.983  -1.975   2.896 -1.4251 -0.9035 -0.3422
  812MOL0     H 9601   9.177  -1.902   3.012 -0.8967  0.6240 -2.3931
  812MOL0     H 9602   9.206  -1.421   3.424  1.6840  1.6834 -1.1075
  812MOL0     H 9603   9.351  -1.347   3.589 -0.2053 -0.0752 -0.4156
  812MOL0     H 9604  10.275   0.012   3.304  0.3056 -1.1468  1.3108
  812MOL0     H 9605  10.213   0.243   3.397  0.0935  0.3202 -1.0026
  812MOL0     H 9606  10.261   0.579   3.615  0.9305  0.6245 -0.1763
  812MOL0     H 9607  10.161   0.790   3.645 -0.6090  0.2648  0.1017
  812MOL0     H 9608   9.832   0.842   3.684 -2.0903  2.9033 -1.1601
  812MOL0     H 9609   9.980   0.933   3.645 -1.4919  0.8448 -0.9700
  812MOL0     H 9610   9.754   1.026   3.812 -1.6116  1.6504 -1.6971
  812MOL0     H 9611   9.826   1.102   3.671  0.5353  0.0472 -0.3350
  812MOL0     H 9612  10.042   1.135   3.775  1.5513 -2.4485  1.5671
  812MOL0     H 9613   9.982   1.060   3.925  0.8615 -1.8655 -1.2967
  812MOL0     H 9614   9.981   1.312   3.930 -0.7584  0.0010  2.7186
  812MOL0     H 9615   9.849   1.321   3.823 -1.9454  1.1805  2.7418
  812MOL0     H 9616   9.680   1.239   4.189  0.0684 -1.1895  0.6370
  812MOL0     H 9617   9.905   0.616   3.939  1.2635 -1.7204 -0.8265
  812MOL0     H 9618   9.921   0.395   4.011 -0.2805  1.3130 -0.6779
  812MOL0     H 9619   9.905   0.306   3.866  0.6544 -1.8948  0.5193
  812MOL0     H 9620  10.051   0.293   3.959  0.8392  1.5090  1.2787
  813MOL0     O 9621   7.604   1.539   0.794  0.0407 -0.3614  0.6559
  813MOL0     C 9622   7.493   1.585   0.774 -0.8855  0.7584  1.2575
  813MOL0     O 9623   7.371   1.526   0.793  0.2111 -0.7739  0.8555
  813MOL0     C 9624   7.365   1.391   0.820 -0.6697  0.1228  0.7346
  813MOL0     C 9625   7.254   1.347   0.892  0.2787  0.1417  0.7706
  813MOL0     C 9626   7.229   1.215   0.916 -0.0572 -0.0605 -0.2535
  813MOL0     C 9627   7.312   1.115   0.855  0.4721 -0.2257 -0.2447
  813MOL0     O 9628   7.297   0.979   0.859  0.0166  0.1127  0.9019
  813MOL0     C 9629   7.181   0.908   0.899  0.3572  0.6479 -0.0381
  813MOL0     C 9630   7.121   0.830   0.782 -0.8256  0.2426  0.7642
  813MOL0     C 9631   6.974   0.795   0.798  0.3931  0.7558 -0.0961
  813MOL0     C 9632   6.872   0.912   0.830 -0.1733  0.7590  0.2585
  813MOL0     C 9633   6.876   1.029   0.734 -0.4789  0.1369 -0.8899
  813MOL0     C 9634   6.745   1.099   0.752  0.0376 -0.2312  0.0322
  813MOL0     C 9635   6.733   1.220   0.657 -0.0896 -0.4892 -0.1547
  813MOL0     C 9636   6.831   1.337   0.686  0.9318 -0.3237 -0.0532
  813MOL0     N 9637   6.793   1.469   0.630  0.1087 -0.4823 -0.0428
  813MOL0     C 9638   6.780   1.509   0.498  0.8419 -0.3688 -0.9378
  813MOL0     C 9639   6.740   1.635   0.511 -0.1788  0.4693  0.3385
  813MOL0     C 9640   6.715   1.737   0.397 -1.2235  0.3816 -0.7697
  813MOL0     C 9641   6.615   1.684   0.304 -0.1801 -0.1904  0.4090
  813MOL0     C 9642   6.613   1.751   0.178 -0.4762  0.3345  0.6672
  813MOL0     C 9643   6.483   1.706   0.107 -0.5629  0.2971 -0.2951
  813MOL0     O 9644   6.364   1.774   0.156 -0.1940  0.4398 -0.0585
  813MOL0     C 9645   6.384   1.908   0.177 -1.0090  0.6245  0.0657
  813MOL0     C 9646   6.415   1.989   0.064 -0.3491  0.0187  0.2961
  813MOL0     C 9647   6.430   2.134   0.075  0.4353  0.8314  0.6000
  813MOL0     C 9648   6.431   2.187   0.203 -0.5013  0.0176 -0.9017
  813MOL0     C 9649   6.447   2.333   0.221 -0.3306  0.3626 -0.0125
  813MOL0     O 9650   6.398   2.385   0.347  0.5255 -0.2021  0.1183
  813MOL0     C 9651   6.387   2.519   0.374  1.3537  0.0348  0.7248
  813MOL0     C 9652   6.360   2.611   0.272  0.7097 -0.7951  0.2611
  813MOL0     C 9653   6.336   2.753   0.299 -0.0805 -0.0540  0.2640
  813MOL0     C 9654   6.357   2.792   0.434 -0.3388 -0.0393  0.3504
  813MOL0     O 9655   6.365   2.931   0.458  0.1792  0.0436 -0.0200
  813MOL0     C 9656   6.393   2.977   0.594  1.0178  0.1262  0.7705
  813MOL0     C 9657   6.265   2.978   0.669 -0.2589 -0.0714  2.0339
  813MOL0     C 9658   6.174   3.083   0.622  0.1396 -0.1507 -0.7143
  813MOL0     C 9659   6.076   3.128   0.730  0.0734 -0.2514  0.0652
  813MOL0     C 9660   5.981   3.245   0.690  0.7414 -0.3489  0.9417
  813MOL0     C 9661   5.951   3.337   0.814  0.5647  0.5913  0.8066
  813MOL0     C 9662   6.067   3.437   0.832  0.7313  0.3873 -0.0486
  813MOL0     C 9663   6.044   3.527   0.957 -0.4210  0.8393  0.4280
  813MOL0    Cl 9664   5.871   3.565   0.980 -0.2872 -0.0763  0.0495
  813MOL0     C 9665   6.398   2.694   0.533 -0.3036 -0.4395 -0.1746
  813MOL0     C 9666   6.400   2.562   0.500 -0.7172 -1.6816 -0.5597
  813MOL0     O 9667   6.488   2.403   0.124  0.4219  0.6566 -0.2383
  813MOL0     C 9668   6.417   2.102   0.312  0.7885  0.3063  0.5598
  813MOL0     C 9669   6.388   1.964   0.303 -1.0049 -0.7828 -0.5807
  813MOL0     N 9670   6.711   1.664   0.642  0.8465 -0.2805 -0.4477
  813MOL0     N 9671   6.737   1.556   0.710 -0.2758 -0.7025 -0.9406
  813MOL0     C 9672   7.428   1.162   0.793 -0.3308  1.1138 -0.7727
  813MOL0     C 9673   7.459   1.297   0.773  0.2677  1.3592  0.2903
  813MOL0     C 9674   7.486   1.721   0.716  0.3401  0.4558 -0.4486
  813MOL0     C 9675   7.557   1.745   0.604  0.0562  0.3012  0.5487
  813MOL0     C 9676   7.549   1.866   0.537 -0.0108 -0.9095 -0.0789
  813MOL0     C 9677   7.467   1.972   0.581 -0.4751 -1.0393 -0.7172
  813MOL0     O 9678   7.458   2.091   0.508  0.4055 -0.3056 -0.9555
  813MOL0     C 9679   7.566   2.178   0.533  0.1883 -0.9357 -1.1835
  813MOL0     C 9680   7.535   2.310   0.612 -0.7794  0.0568 -0.5627
  813MOL0     C 9681   7.435   2.392   0.527 -0.0609 -0.0033 -0.4134
  813MOL0     C 9682   7.288   2.357   0.525  0.0603 -0.6986 -0.0627
  813MOL0     C 9683   7.226   2.351   0.661  0.7886 -0.4434  0.5491
  813MOL0     C 9684   7.179   2.339   0.772  0.0237  0.3915 -0.4478
  813MOL0     C 9685   7.403   1.946   0.703 -1.0601  0.6208 -0.2922
  813MOL0     C 9686   7.404   1.826   0.766 -0.2322  0.9255  0.4259
  813MOL0     C 9687   7.321   1.809   0.890 -0.1737 -0.2487  1.4173
  813MOL0     H 9688   7.196   1.423   0.945  3.4391  2.2825  1.4571
  813MOL0     H 9689   7.148   1.183   0.981  0.7758  0.9686  1.3785
  813MOL0     H 9690   7.196   0.834   0.978 -0.7431  2.8255  2.3659
  813MOL0     H 9691   7.113   0.987   0.934 -0.0881  1.2637 -2.1668
  813MOL0     H 9692   7.174   0.736   0.763  2.1515  1.4795  2.2729
  813MOL0     H 9693   7.137   0.892   0.693 -0.3222  2.0778  2.0623
  813MOL0     H 9694   6.974   0.715   0.873 -0.0298  0.4251 -0.4491
  813MOL0     H 9695   6.926   0.741   0.716 -0.2295  1.0609  0.0594
  813MOL0     H 9696   6.770   0.874   0.842  0.1544  0.1990  1.3953
  813MOL0     H 9697   6.892   0.946   0.932  0.1806 -2.7561  1.5221
  813MOL0     H 9698   6.960   1.097   0.744 -1.2358  0.8182  1.2951
  813MOL0     H 9699   6.884   0.998   0.629 -1.3495 -1.5486 -0.4861
  813MOL0     H 9700   6.661   1.030   0.746 -1.9587  2.1732 -2.0227
  813MOL0     H 9701   6.728   1.144   0.850  2.0460  1.1106 -0.1551
  813MOL0     H 9702   6.632   1.261   0.671 -0.0446  0.5024 -2.2667
  813MOL0     H 9703   6.727   1.195   0.550 -0.6504  1.3449 -0.5870
  813MOL0     H 9704   6.832   1.341   0.795 -4.0008 -1.9035  0.3235
  813MOL0     H 9705   6.931   1.310   0.650  0.3971 -2.3504 -0.1367
  813MOL0     H 9706   6.796   1.442   0.414  2.5195  1.1246 -1.8864
  813MOL0     H 9707   6.676   1.828   0.444 -1.6665 -1.2506  2.2490
  813MOL0     H 9708   6.809   1.759   0.346 -0.6385  0.7561  0.4308
  813MOL0     H 9709   6.639   1.579   0.286  2.2163  0.1800  1.1206
  813MOL0     H 9710   6.517   1.679   0.350  0.3273 -1.8962  1.3774
  813MOL0     H 9711   6.696   1.724   0.112 -0.9402  3.6265 -1.4877
  813MOL0     H 9712   6.614   1.857   0.205 -3.9321  0.4883  0.6573
  813MOL0     H 9713   6.473   1.598   0.120  2.3935  0.1752  1.8743
  813MOL0     H 9714   6.499   1.729   0.001  4.7904  0.4936  0.2982
  813MOL0     H 9715   6.425   1.944  -0.034 -0.8314 -1.4122  0.8802
  813MOL0     H 9716   6.450   2.190  -0.016 -2.9136  2.8476  0.9422
  813MOL0     H 9717   6.346   2.577   0.170 -1.3595  0.9808 -0.1301
  813MOL0     H 9718   6.319   2.825   0.219  0.8196 -0.6117 -0.4564
  813MOL0     H 9719   6.475   2.918   0.636  1.6117 -1.6044 -2.4362
  813MOL0     H 9720   6.436   3.077   0.587 -0.6620  1.0076  2.3850
  813MOL0     H 9721   6.213   2.883   0.650 -0.1308  0.3128 -0.7586
  813MOL0     H 9722   6.305   2.994   0.769  0.9152 -1.6211  1.8547
  813MOL0     H 9723   6.235   3.168   0.590  1.8649 -0.7404  0.8059
  813MOL0     H 9724   6.118   3.054   0.533 -2.3313  1.1039  0.3310
  813MOL0     H 9725   6.149   3.157   0.806  1.5718 -2.7335 -0.2837
  813MOL0     H 9726   6.020   3.040   0.762 -0.3290  0.6964  2.0881
  813MOL0     H 9727   5.887   3.213   0.644  1.5959 -2.7634  0.7362
  813MOL0     H 9728   6.024   3.294   0.602 -1.1724  0.9493  0.6707
  813MOL0     H 9729   5.853   3.384   0.803 -1.7214 -3.1102  3.0159
  813MOL0     H 9730   5.938   3.274   0.903  4.5267  0.7993  1.7517
  813MOL0     H 9731   6.075   3.509   0.750  1.1715  1.8532  1.2221
  813MOL0     H 9732   6.159   3.380   0.842  2.0742  2.5899  0.8325
  813MOL0     H 9733   6.076   3.463   1.039  0.7352 -3.7889 -3.1868
  813MOL0     H 9734   6.099   3.622   0.957  0.3002  0.4617 -1.3496
  813MOL0     H 9735   6.421   2.708   0.638 -0.8430 -2.7001  0.3000
  813MOL0     H 9736   6.425   2.490   0.577  0.1571 -1.0919 -0.2713
  813MOL0     H 9737   6.419   2.136   0.415 -2.2987 -0.4655  0.9956
  813MOL0     H 9738   6.371   1.900   0.390  1.2437 -1.8331 -0.8522
  813MOL0     H 9739   7.494   1.081   0.761 -1.0606  0.7459 -1.3688
  813MOL0     H 9740   7.547   1.324   0.717  2.8326 -3.1698  1.6535
  813MOL0     H 9741   7.620   1.669   0.559 -1.3703 -0.7297  0.2328
  813MOL0     H 9742   7.592   1.895   0.442  0.4766 -0.6078  0.2282
  813MOL0     H 9743   7.595   2.204   0.431 -3.5013  1.0539 -1.8885
  813MOL0     H 9744   7.654   2.136   0.583  0.9240  1.8124  0.0638
  813MOL0     H 9745   7.627   2.369   0.614 -1.7319  1.6438  2.2452
  813MOL0     H 9746   7.496   2.282   0.710 -2.7016 -3.3403 -2.1372
  813MOL0     H 9747   7.461   2.379   0.421 -0.9096 -0.1633 -0.6042
  813MOL0     H 9748   7.430   2.496   0.562 -3.7147 -0.2288  0.1279
  813MOL0     H 9749   7.230   2.424   0.461 -2.0259 -4.1819 -2.1682
  813MOL0     H 9750   7.275   2.255   0.486  0.1272 -0.2888 -1.1813
  813MOL0     H 9751   7.133   2.335   0.869 -1.9615  2.0004 -1.2388
  813MOL0     H 9752   7.337   2.022   0.743 -0.7351  0.6839  0.1207
  813MOL0     H 9753   7.251   1.728   0.871  1.3103 -0.6622 -4.2936
  813MOL0     H 9754   7.388   1.793   0.975 -1.8092  0.6203  2.9387
  813MOL0     H 9755   7.271   1.905   0.909 -0.7719 -0.2294 -0.0742
  814MOL0     O 9756   6.504  10.535  10.513  0.0635 -1.1378  0.1655
  814MOL0     C 9757   6.468  10.561  10.397  0.1672  0.0730  0.1117
  814MOL0     O 9758   6.447  10.685  10.349  0.1130 -1.1651 -0.1059
  814MOL0     C 9759   6.426  10.797  10.429 -0.3896  1.0930 -0.0907
  814MOL0     C 9760   6.296  10.839  10.452  0.2640 -0.6732 -0.1461
  814MOL0     C 9761   6.272  10.937  10.541  0.7885  0.4939  0.4005
  814MOL0     C 9762   6.372  11.013  10.612  0.0718  1.2056  0.0847
  814MOL0     O 9763   6.355  11.106  10.704 -0.1255  0.1420  0.4322
  814MOL0     C 9764   6.235  11.194  10.693 -0.7202 -0.2578  0.7401
  814MOL0     C 9765   6.117  11.150  10.785 -0.1895  0.1327  0.3089
  814MOL0     C 9766   6.123  11.221  10.917  0.0090  0.6834  0.0618
  814MOL0     C 9767   6.013  11.174  11.005  0.3100  0.2962  0.8142
  814MOL0     C 9768   6.040  11.242  11.136 -0.4171  0.1452  0.2403
  814MOL0     C 9769   5.953  11.205  11.257 -0.0899 -0.1503  0.3292
  814MOL0     C 9770   5.889  11.318  11.318 -0.2857 -0.3682  0.2108
  814MOL0     C 9771   5.781  11.279  11.417 -0.0509 -0.0629  0.0040
  814MOL0     N 9772   5.702  11.387  11.464  1.3995 -0.8376 -0.4291
  814MOL0     C 9773   5.752  11.506  11.498  0.2822  0.9855 -0.8489
  814MOL0     C 9774   5.632  11.570  11.518 -0.4847 -0.5087 -0.1502
  814MOL0     C 9775   5.652  11.721  11.555  0.7975  0.8156  0.1719
  814MOL0     C 9776   5.552  11.791  11.470 -0.7632 -0.0928  0.6525
  814MOL0     C 9777   5.555  11.948  11.507  0.2593  0.0498  0.8794
  814MOL0     C 9778   5.551  11.974  11.652 -0.2701  0.6267 -0.6639
  814MOL0     O 9779   5.683  11.978  11.722 -0.6140  0.5352  0.3218
  814MOL0     C 9780   5.733  12.108  11.755  0.5660  0.1412 -1.2693
  814MOL0     C 9781   5.679  12.162  11.873  0.3105 -0.9940  1.3933
  814MOL0     C 9782   5.724  12.281  11.920  0.6890 -0.2336  0.1020
  814MOL0     C 9783   5.823  12.363  11.854 -0.4706 -0.4205  0.4958
  814MOL0     C 9784   5.879  12.485  11.919  0.1475 -0.9296  0.4538
  814MOL0     O 9785   5.818  12.524  12.028  0.3426 -0.5610  0.9580
  814MOL0     C 9786   5.869  12.620  12.107 -0.8933  0.2187  0.0951
  814MOL0     C 9787   5.884  12.750  12.059  0.6264  0.0080  0.6975
  814MOL0     C 9788   5.954  12.845  12.129 -1.1394 -0.6886  0.3244
  814MOL0     C 9789   5.992  12.827  12.266  1.5839 -0.5694 -0.0882
  814MOL0     O 9790   6.040  12.931  12.340  0.6475  0.4052  0.5658
  814MOL0     C 9791   6.101  12.913  12.472 -0.6813 -0.1744 -0.8371
  814MOL0     C 9792   6.103  13.053  12.544  0.8876  1.5245 -0.2772
  814MOL0     C 9793   5.965  13.110  12.569 -0.0404 -0.1995  0.1725
  814MOL0     C 9794   5.965  13.256  12.619  0.3570  0.1238 -0.1024
  814MOL0     C 9795   5.837  13.299  12.694  0.1643  0.0133 -0.5633
  814MOL0     C 9796   5.724  13.335  12.597 -1.4363  0.5851 -0.3818
  814MOL0     C 9797   5.786  13.450  12.512  0.7123 -0.6134  0.7376
  814MOL0     C 9798   5.685  13.505  12.409 -0.1168  0.7479  0.4792
  814MOL0    Cl 9799   5.748  13.625  12.296  0.1919  0.1237  0.6121
  814MOL0     C 9800   5.971  12.701  12.317 -1.1145 -0.6828 -0.7849
  814MOL0     C 9801   5.917  12.594  12.241 -0.7685 -0.0791  0.8840
  814MOL0     O 9802   5.985  12.526  11.881 -0.1109 -0.9802 -0.1530
  814MOL0     C 9803   5.863  12.312  11.725 -0.3232  0.2325 -0.0270
  814MOL0     C 9804   5.824  12.183  11.682  0.3858  0.2112 -0.6539
  814MOL0     N 9805   5.521  11.498  11.496  0.5768  0.3358 -0.6289
  814MOL0     N 9806   5.570  11.384  11.454 -0.5177 -0.2865 -0.6135
  814MOL0     C 9807   6.503  10.983  10.578 -1.5521  1.0781 -0.4500
  814MOL0     C 9808   6.526  10.879  10.481 -0.3658 -0.2651 -0.1953
  814MOL0     C 9809   6.466  10.449  10.299 -0.8549 -0.6612 -0.4318
  814MOL0     C 9810   6.480  10.480  10.163  0.6005  0.3316  0.3892
  814MOL0     C 9811   6.472  10.378  10.070  0.8076 -0.1320  0.0726
  814MOL0     C 9812   6.445  10.247  10.096 -0.5803  0.2646  0.1662
  814MOL0     O 9813   6.445  10.161   9.988  1.0476 -0.1504  0.5161
  814MOL0     C 9814   6.419  10.020  10.016  0.4380 -0.4842 -0.1722
  814MOL0     C 9815   6.537   9.931  10.041  0.3609  0.0120  0.4192
  814MOL0     C 9816   6.494   9.781  10.033  0.0038 -0.9715 -0.3008
  814MOL0     C 9817   6.608   9.687   9.998 -0.1174  0.4631 -0.8222
  814MOL0     C 9818   6.689   9.657  10.117 -0.2794  0.3961 -0.2713
  814MOL0     C 9819   6.753   9.635  10.216 -0.5767 -0.0059  0.4253
  814MOL0     C 9820   6.444  10.215  10.235 -0.1531  0.2775  0.1250
  814MOL0     C 9821   6.467  10.309  10.336  0.5722  0.5437  0.6803
  814MOL0     C 9822   6.469  10.257  10.485  1.1715  0.0475 -0.2842
  814MOL0     H 9823   6.201  10.813  10.407 -0.4307  0.2676  0.7080
  814MOL0     H 9824   6.168  10.969  10.544 -0.9953 -4.5219  0.5642
  814MOL0     H 9825   6.267  11.298  10.702  0.0512 -0.3990 -0.2083
  814MOL0     H 9826   6.194  11.183  10.592 -1.0788 -0.7289  0.9311
  814MOL0     H 9827   6.115  11.041  10.797 -3.0539 -0.1631 -1.7764
  814MOL0     H 9828   6.026  11.174  10.729  1.6384  1.0069 -2.5117
  814MOL0     H 9829   6.114  11.329  10.901  0.1958  0.5157 -1.2718
  814MOL0     H 9830   6.221  11.206  10.964  1.0960  0.5728 -2.0851
  814MOL0     H 9831   5.913  11.201  10.968  1.4103  2.7103 -0.5655
  814MOL0     H 9832   6.022  11.065  11.017  0.7764  0.2128 -0.1717
  814MOL0     H 9833   6.142  11.222  11.170 -0.1293  3.9748  2.0778
  814MOL0     H 9834   6.036  11.346  11.102 -0.7930  0.4675  1.2246
  814MOL0     H 9835   5.876  11.140  11.215  1.5761  0.2200 -3.7150
  814MOL0     H 9836   6.013  11.146  11.327  2.2408  3.5639  1.7561
  814MOL0     H 9837   5.859  11.387  11.239  0.2382  1.2094  1.3565
  814MOL0     H 9838   5.965  11.371  11.376 -2.1872 -0.5230  3.0018
  814MOL0     H 9839   5.718  11.206  11.365  0.3173  1.2238 -2.3994
  814MOL0     H 9840   5.831  11.239  11.505 -2.2888  0.7745  1.7703
  814MOL0     H 9841   5.848  11.557  11.494 -1.2412  4.2501  0.2265
  814MOL0     H 9842   5.636  11.705  11.662 -1.2006 -1.9587 -0.4405
  814MOL0     H 9843   5.755  11.757  11.545  1.1624 -0.3356 -0.4453
  814MOL0     H 9844   5.573  11.782  11.363 -1.8636  0.2018  0.3937
  814MOL0     H 9845   5.458  11.738  11.493 -0.3894  0.5160  4.1682
  814MOL0     H 9846   5.470  11.999  11.461  0.3524  0.9093  1.6292
  814MOL0     H 9847   5.648  11.984  11.462  1.1800  2.3781  4.2273
  814MOL0     H 9848   5.485  11.897  11.694 -0.7224  3.0581  3.5583
  814MOL0     H 9849   5.500  12.069  11.667  0.4046  1.3865 -2.8117
  814MOL0     H 9850   5.608  12.103  11.930  1.7370 -0.6478  3.6263
  814MOL0     H 9851   5.691  12.318  12.016  0.6684  0.4779 -0.1771
  814MOL0     H 9852   5.860  12.774  11.955  2.1310 -1.2530  0.0212
  814MOL0     H 9853   5.962  12.942  12.081 -3.1652 -1.6586 -2.1710
  814MOL0     H 9854   6.046  12.848  12.540 -0.4465  1.7855  1.3317
  814MOL0     H 9855   6.202  12.879  12.449 -0.0836 -0.9421  2.4522
  814MOL0     H 9856   6.172  13.062  12.628  0.6501  1.2418 -0.0514
  814MOL0     H 9857   6.145  13.111  12.461 -0.7125  0.2601 -2.0557
  814MOL0     H 9858   5.899  13.110  12.482 -2.8651  0.0232  2.1522
  814MOL0     H 9859   5.900  13.050  12.635 -1.0145  0.8282  0.1692
  814MOL0     H 9860   5.999  13.325  12.542 -2.8727  1.4004 -0.5411
  814MOL0     H 9861   6.046  13.256  12.693 -0.3307  0.1745  0.6693
  814MOL0     H 9862   5.866  13.381  12.759  0.6996 -1.2413  0.8297
  814MOL0     H 9863   5.800  13.215  12.754 -2.9893  1.0516 -0.9052
  814MOL0     H 9864   5.695  13.248  12.539 -0.6132 -1.4186  2.0267
  814MOL0     H 9865   5.641  13.375  12.656 -0.9951  2.1903 -0.7915
  814MOL0     H 9866   5.865  13.420  12.443  1.0564 -0.8905  1.2495
  814MOL0     H 9867   5.818  13.528  12.581 -3.0146  1.6171  0.2678
  814MOL0     H 9868   5.636  13.422  12.358  0.7118 -0.3455  1.4008
  814MOL0     H 9869   5.608  13.564  12.461  0.8283  4.2279 -1.7173
  814MOL0     H 9870   6.013  12.686  12.416 -0.4900 -1.6124 -1.1780
  814MOL0     H 9871   5.917  12.498  12.292  2.3896  0.0879  1.4030
  814MOL0     H 9872   5.930  12.360  11.655  0.7706 -0.3990  0.5726
  814MOL0     H 9873   5.864  12.146  11.588  1.1888 -3.7141  1.0311
  814MOL0     H 9874   6.579  11.034  10.638 -1.4358 -2.3026  2.6440
  814MOL0     H 9875   6.632  10.861  10.467  0.0148  1.2163  0.6609
  814MOL0     H 9876   6.489  10.582  10.126  0.9025 -0.1732 -0.9831
  814MOL0     H 9877   6.488  10.409   9.967 -0.1038 -1.0670 -0.3676
  814MOL0     H 9878   6.350   9.987   9.938 -2.4956  1.4434  1.4169
  814MOL0     H 9879   6.351  10.020  10.103  0.4331 -4.9421  0.0518
  814MOL0     H 9880   6.573   9.957  10.141 -2.5379  0.8675  1.3185
  814MOL0     H 9881   6.615   9.954   9.968  1.0419  0.7344  1.3479
  814MOL0     H 9882   6.422   9.768   9.951 -0.0189 -1.0250 -0.2727
  814MOL0     H 9883   6.450   9.746  10.127 -2.3771 -0.8860 -1.3072
  814MOL0     H 9884   6.570   9.587   9.975 -1.3755  0.8879 -0.6624
  814MOL0     H 9885   6.672   9.709   9.913  1.1809 -1.0090 -0.2813
  814MOL0     H 9886   6.813   9.616  10.302 -1.7898  2.8423  2.0169
  814MOL0     H 9887   6.418  10.117  10.275 -1.2154  0.7338  0.5892
  814MOL0     H 9888   6.407  10.166  10.482  2.1726 -0.6704 -3.2182
  814MOL0     H 9889   6.573  10.252  10.516  2.0056 -0.7809 -2.8906
  814MOL0     H 9890   6.408  10.318  10.551 -0.5044 -2.4437  0.6296
  815MOL0     O 9891   6.838  10.619   6.090 -0.6412  0.5914  0.1933
  815MOL0     C 9892   6.851  10.738   6.077 -0.6092 -0.5305  0.6452
  815MOL0     O 9893   6.800  10.834   6.161 -0.1723 -0.0994  0.1893
  815MOL0     C 9894   6.743  10.799   6.277  0.6132  0.1032 -0.8149
  815MOL0     C 9895   6.629  10.865   6.323  0.7046  0.1272  0.3805
  815MOL0     C 9896   6.547  10.834   6.438 -0.1054  0.0427  0.1415
  815MOL0     C 9897   6.585  10.718   6.501  0.6133  0.4060  0.1338
  815MOL0     O 9898   6.521  10.658   6.613  0.6685  0.1590 -0.1252
  815MOL0     C 9899   6.397  10.717   6.663  0.0016  0.2261 -0.6115
  815MOL0     C 9900   6.436  10.834   6.752 -0.2271 -0.4413  0.0322
  815MOL0     C 9901   6.555  10.811   6.858  0.3577 -0.2616 -0.9013
  815MOL0     C 9902   6.518  10.738   6.988  0.0327 -0.2900  0.7596
  815MOL0     C 9903   6.619  10.741   7.094 -0.1334 -0.7605  0.3226
  815MOL0     C 9904   6.561  10.711   7.237  0.8269 -0.9591  1.0970
  815MOL0     C 9905   6.646  10.759   7.350 -0.2092 -0.6963 -0.4108
  815MOL0     C 9906   6.562  10.758   7.476 -0.9142 -0.1340 -0.0116
  815MOL0     N 9907   6.641  10.811   7.592 -0.0147  0.2179  1.0976
  815MOL0     C 9908   6.777  10.774   7.622  0.8251 -0.4632 -0.3450
  815MOL0     C 9909   6.811  10.830   7.738  0.7633  0.8098 -0.0640
  815MOL0     C 9910   6.942  10.829   7.815  0.2883 -0.7368 -0.6346
  815MOL0     C 9911   7.050  10.755   7.742  0.4339 -0.2949  0.2203
  815MOL0     C 9912   7.184  10.764   7.797 -1.0303 -0.2024 -0.2297
  815MOL0     C 9913   7.191  10.718   7.942  0.2566  0.2984 -0.1833
  815MOL0     O 9914   7.327  10.705   7.979 -0.1828 -0.9039 -0.3559
  815MOL0     C 9915   7.358  10.681   8.111 -0.0431  0.3186  0.3183
  815MOL0     C 9916   7.266  10.653   8.209 -0.7838 -0.2702 -0.7379
  815MOL0     C 9917   7.316  10.607   8.329 -0.5704 -0.0883  0.1759
  815MOL0     C 9918   7.454  10.595   8.354  0.4287 -0.5369  0.3612
  815MOL0     C 9919   7.502  10.548   8.488 -0.4115 -0.1059  0.5130
  815MOL0     O 9920   7.413  10.523   8.585 -0.5402  0.2860  0.2726
  815MOL0     C 9921   7.447  10.452   8.697  0.9658 -0.0702 -0.2017
  815MOL0     C 9922   7.551  10.366   8.724 -0.1496 -1.0658  0.0060
  815MOL0     C 9923   7.557  10.265   8.828  0.1566 -0.5443  0.1885
  815MOL0     C 9924   7.448  10.248   8.921  0.5457 -0.3373  0.3661
  815MOL0     O 9925   7.450  10.160   9.029  0.3169  0.2769 -0.2135
  815MOL0     C 9926   7.572  10.092   9.055  0.3830  0.7283 -0.2461
  815MOL0     C 9927   7.599   9.964   8.982 -1.1305 -0.4548  0.6600
  815MOL0     C 9928   7.517   9.844   9.039  0.3194  0.5497  0.1696
  815MOL0     C 9929   7.433   9.769   8.940 -0.7617  0.1962  0.7422
  815MOL0     C 9930   7.519   9.666   8.858  0.0588 -0.0630 -0.4177
  815MOL0     C 9931   7.444   9.581   8.757 -0.0648 -0.0569 -0.1047
  815MOL0     C 9932   7.348   9.661   8.659 -0.2858 -0.0860 -1.3693
  815MOL0     C 9933   7.286   9.568   8.547 -0.1015  0.0543 -0.4728
  815MOL0    Cl 9934   7.195   9.685   8.448 -0.2035  0.4151 -0.0881
  815MOL0     C 9935   7.340  10.329   8.893 -1.2435  0.3021  0.4286
  815MOL0     C 9936   7.338  10.425   8.787  0.1917  0.1958  0.2187
  815MOL0     O 9937   7.625  10.538   8.505  0.1160 -0.3892 -0.5877
  815MOL0     C 9938   7.536  10.624   8.247 -0.5956  0.2341 -0.3413
  815MOL0     C 9939   7.497  10.681   8.124  0.5678  0.6597  0.9109
  815MOL0     N 9940   6.709  10.904   7.784  0.3625  0.4131  0.6168
  815MOL0     N 9941   6.608  10.886   7.698 -0.5534 -0.0163  0.2811
  815MOL0     C 9942   6.693  10.645   6.451  0.6018  0.1685 -0.2022
  815MOL0     C 9943   6.771  10.687   6.355  1.0375  0.3715  0.9640
  815MOL0     C 9944   6.905  10.771   5.940 -0.1621  0.0990 -0.6248
  815MOL0     C 9945   7.036  10.806   5.934 -0.0564 -0.3346  0.3823
  815MOL0     C 9946   7.095  10.818   5.807 -0.0964 -0.3125  0.4314
  815MOL0     C 9947   7.019  10.793   5.693  0.6655 -0.4571  0.7011
  815MOL0     O 9948   7.087  10.831   5.583 -0.4939  0.5573 -0.9925
  815MOL0     C 9949   7.034  10.792   5.453  0.8956 -0.3682 -0.2465
  815MOL0     C 9950   7.083  10.660   5.418 -0.6752  0.3055  0.6173
  815MOL0     C 9951   7.231  10.635   5.442  0.1586 -0.4236  0.8443
  815MOL0     C 9952   7.288  10.512   5.380  0.1098 -0.3053 -1.1292
  815MOL0     C 9953   7.412  10.492   5.456  1.0780  0.2049 -0.5416
  815MOL0     C 9954   7.515  10.468   5.521  0.8830 -0.4886 -0.1742
  815MOL0     C 9955   6.878  10.761   5.697 -0.3809  0.0436  0.1569
  815MOL0     C 9956   6.823  10.750   5.821  1.0965  0.0100 -0.2606
  815MOL0     C 9957   6.676  10.724   5.826 -0.4089  0.2914  0.0632
  815MOL0     H 9958   6.594  10.932   6.245 -1.3636 -0.6292  0.5863
  815MOL0     H 9959   6.451  10.876   6.465 -1.4062 -3.1953  1.0775
  815MOL0     H 9960   6.324  10.746   6.586  0.9504 -0.0722 -1.6440
  815MOL0     H 9961   6.344  10.645   6.726 -1.3048  0.6700 -1.1802
  815MOL0     H 9962   6.342  10.861   6.802  0.2237 -0.3126  0.8300
  815MOL0     H 9963   6.466  10.918   6.689  0.8447  0.1609  1.2981
  815MOL0     H 9964   6.586  10.914   6.879 -5.8208  1.8005  0.2860
  815MOL0     H 9965   6.641  10.754   6.823  0.7806 -1.6086  2.0407
  815MOL0     H 9966   6.429  10.785   7.032  1.0702  1.7387  0.8327
  815MOL0     H 9967   6.496  10.640   6.946 -0.4121 -0.4948  1.4466
  815MOL0     H 9968   6.691  10.663   7.070 -1.7152 -1.5185 -2.5063
  815MOL0     H 9969   6.672  10.836   7.095  1.9025 -1.8017 -1.2004
  815MOL0     H 9970   6.459  10.753   7.235 -0.0880 -3.0052 -1.2772
  815MOL0     H 9971   6.534  10.605   7.247 -1.5969 -0.2458  3.6431
  815MOL0     H 9972   6.664  10.866   7.339  0.4042 -0.6190  1.1448
  815MOL0     H 9973   6.751  10.730   7.352  0.5890  1.8020 -1.4337
  815MOL0     H 9974   6.487  10.833   7.448 -0.3663  0.2266 -0.5544
  815MOL0     H 9975   6.513  10.663   7.499  0.5044 -1.1381 -0.9656
  815MOL0     H 9976   6.843  10.704   7.571 -2.2557 -4.1305  0.2411
  815MOL0     H 9977   6.980  10.931   7.819  0.8193 -0.9561  1.4538
  815MOL0     H 9978   6.920  10.789   7.915  0.7083 -0.7740 -0.5536
  815MOL0     H 9979   7.041  10.647   7.756 -2.5029  0.0070  1.1979
  815MOL0     H 9980   7.045  10.782   7.636  2.6077  1.3573  0.4764
  815MOL0     H 9981   7.231  10.860   7.773 -1.7578 -0.1713 -1.5665
  815MOL0     H 9982   7.238  10.687   7.741 -1.3221 -0.1793 -0.5407
  815MOL0     H 9983   7.144  10.619   7.949  1.3308 -0.1418  1.6368
  815MOL0     H 9984   7.139  10.782   8.014 -1.1670 -1.3117  0.2853
  815MOL0     H 9985   7.158  10.662   8.205 -0.9521 -2.2368 -3.5560
  815MOL0     H 9986   7.250  10.579   8.411  0.3335 -0.9134  0.6468
  815MOL0     H 9987   7.631  10.367   8.651 -1.6977 -0.8361 -1.7727
  815MOL0     H 9988   7.645  10.202   8.830  1.1587  0.7275 -1.2006
  815MOL0     H 9989   7.660  10.157   9.044 -0.6286  2.6227  1.9238
  815MOL0     H 9990   7.578  10.071   9.163 -0.4683  0.7383 -0.1894
  815MOL0     H 9991   7.569   9.974   8.877 -2.9207 -0.1062  1.1812
  815MOL0     H 9992   7.708   9.959   8.991 -0.9644  3.3324  2.3814
  815MOL0     H 9993   7.583   9.772   9.088  0.2275  0.3959  0.0683
  815MOL0     H 9994   7.452   9.887   9.116 -1.1489  1.7604 -1.6521
  815MOL0     H 9995   7.380   9.838   8.874  0.1458  2.6658  2.4667
  815MOL0     H 9996   7.351   9.717   8.991 -0.2699  0.3591  1.7272
  815MOL0     H 9997   7.567   9.596   8.927  2.5947 -0.0982 -2.0735
  815MOL0     H 9998   7.599   9.720   8.806  0.6502 -0.4126  0.1072
  815MOL0     H 9999   7.519   9.532   8.693 -2.3681 -2.0156 -1.4582
  815MOL0     H10000   7.380   9.501   8.796 -0.3962  0.0978 -0.3270
  815MOL0     H10001   7.398   9.746   8.613 -0.4403  0.6080 -0.2654
  815MOL0     H10002   7.262   9.704   8.712  0.5673  1.6869 -1.3681
  815MOL0     H10003   7.372   9.519   8.500  0.2245  0.8522 -0.7140
  815MOL0     H10004   7.213   9.496   8.585  0.5776 -0.0926  0.6032
  815MOL0     H10005   7.250  10.308   8.951  0.1385 -0.4334  2.4217
  815MOL0     H10006   7.247  10.481   8.767  0.1729  0.4821  1.0802
  815MOL0     H10007   7.644  10.629   8.257 -0.3203  0.8610 -2.9974
  815MOL0     H10008   7.574  10.692   8.049  2.6621 -1.6672  2.5441
  815MOL0     H10009   6.718  10.552   6.501 -0.1073 -0.6839 -1.3615
  815MOL0     H10010   6.858  10.627   6.328  1.2632  1.0959  0.0270
  815MOL0     H10011   7.093  10.834   6.022 -2.4450  0.8290  1.6715
  815MOL0     H10012   7.200  10.843   5.802  0.1413 -1.0087  1.5909
  815MOL0     H10013   7.070  10.848   5.366  2.0428 -1.1255 -0.2833
  815MOL0     H10014   6.926  10.784   5.436  0.3784  0.3923  2.2541
  815MOL0     H10015   7.059  10.642   5.313 -1.1130  0.6369  0.6543
  815MOL0     H10016   7.031  10.583   5.475  0.6630 -0.4254  0.8825
  815MOL0     H10017   7.250  10.633   5.550  2.1843  1.5658  0.5885
  815MOL0     H10018   7.282  10.727   5.412  1.0131 -0.9927  0.5189
  815MOL0     H10019   7.221  10.427   5.396  1.3511 -0.7601  2.4615
  815MOL0     H10020   7.299  10.523   5.272  0.8188  1.4635 -0.9111
  815MOL0     H10021   7.589  10.461   5.599 -0.9278 -1.9986  1.5061
  815MOL0     H10022   6.821  10.741   5.607  2.8067 -1.2101 -1.7333
  815MOL0     H10023   6.665  10.615   5.826 -1.6954  0.4089 -0.3366
  815MOL0     H10024   6.627  10.765   5.915 -1.5395 -1.6854  0.4035
  815MOL0     H10025   6.634  10.776   5.739  2.8943  1.7886 -0.7997
  816MOL0     O10026   7.798   2.572   6.508 -0.1184  0.8270  0.3015
  816MOL0     C10027   7.832   2.468   6.455  0.1646  0.3298  0.1683
  816MOL0     O10028   7.954   2.414   6.461  0.7849 -0.4724  0.1281
  816MOL0     C10029   8.065   2.483   6.494 -0.5019  0.1253 -0.3813
  816MOL0     C10030   8.080   2.621   6.500 -0.0438 -0.7992 -0.7715
  816MOL0     C10031   8.195   2.677   6.558 -0.3535 -0.0006  0.7781
  816MOL0     C10032   8.301   2.589   6.600 -0.5155  0.1042  0.3019
  816MOL0     O10033   8.419   2.626   6.667  0.2084  0.1682  0.2978
  816MOL0     C10034   8.466   2.757   6.665 -0.3014 -0.3353 -0.2421
  816MOL0     C10035   8.549   2.774   6.542  0.2529 -0.1924  0.5079
  816MOL0     C10036   8.574   2.926   6.506 -0.0627  0.8987  1.0853
  816MOL0     C10037   8.673   2.955   6.394 -0.4614 -0.8162  0.0045
  816MOL0     C10038   8.660   3.098   6.359 -0.3884  0.4126  0.4738
  816MOL0     C10039   8.782   3.161   6.296 -0.3358  0.2279  0.2456
  816MOL0     C10040   8.747   3.306   6.248 -0.2220  0.1163 -0.0375
  816MOL0     C10041   8.854   3.387   6.164  0.6541  0.2384 -0.4366
  816MOL0     N10042   8.911   3.299   6.068  0.2464 -0.4817  0.2029
  816MOL0     C10043   8.860   3.273   5.935  0.0054  0.7430 -0.1725
  816MOL0     C10044   8.963   3.217   5.862  1.0704  1.5430  0.5484
  816MOL0     C10045   8.958   3.181   5.715  0.3748  0.8370 -0.0719
  816MOL0     C10046   8.891   3.042   5.672  0.5049 -0.5625 -0.2133
  816MOL0     C10047   8.811   2.963   5.778 -0.1310 -1.4382 -0.2346
  816MOL0     C10048   8.744   2.843   5.712  0.2851 -0.0834  0.1085
  816MOL0     O10049   8.683   2.763   5.814  0.4895 -0.1438  1.4823
  816MOL0     C10050   8.610   2.661   5.759  0.8362  0.0095  0.3015
  816MOL0     C10051   8.606   2.621   5.623 -0.1600  0.2423 -0.2632
  816MOL0     C10052   8.519   2.516   5.578 -0.7658  0.8311 -0.8468
  816MOL0     C10053   8.463   2.437   5.683  0.3339  0.6494 -0.2291
  816MOL0     C10054   8.375   2.318   5.645 -0.3209 -0.3329  0.5838
  816MOL0     O10055   8.326   2.237   5.743 -0.7352  0.0213 -0.0167
  816MOL0     C10056   8.235   2.150   5.688 -1.3115  0.2069 -0.3256
  816MOL0     C10057   8.279   2.023   5.642  0.5196  0.1271 -1.1754
  816MOL0     C10058   8.187   1.939   5.579 -0.2399 -0.3192  0.4053
  816MOL0     C10059   8.049   1.969   5.562 -0.1346 -0.8505 -0.5082
  816MOL0     O10060   7.944   1.895   5.514  0.1381 -0.5319 -0.5452
  816MOL0     C10061   7.987   1.778   5.455  0.3557 -0.6832  0.1650
  816MOL0     C10062   7.872   1.722   5.369 -0.1574 -0.1102 -0.3330
  816MOL0     C10063   7.909   1.588   5.290  0.0245 -0.1729  0.2812
  816MOL0     C10064   7.807   1.477   5.267  0.6328 -0.5408 -0.2661
  816MOL0     C10065   7.848   1.354   5.178  0.4027 -0.2657  1.0211
  816MOL0     C10066   7.903   1.393   5.042 -1.5360 -0.3889  0.0978
  816MOL0     C10067   7.867   1.294   4.933 -0.0970 -0.0210 -1.7090
  816MOL0     C10068   7.714   1.299   4.905 -0.8578  0.9089  0.1042
  816MOL0    Cl10069   7.678   1.436   4.810  0.5497  0.1860  0.3528
  816MOL0     C10070   8.013   2.107   5.606  0.5029 -0.2801 -0.2417
  816MOL0     C10071   8.097   2.201   5.666  0.1283 -0.3233 -0.1307
  816MOL0     O10072   8.330   2.326   5.530 -0.0652  0.5945 -0.6461
  816MOL0     C10073   8.484   2.460   5.812 -0.9435  0.4352 -0.3714
  816MOL0     C10074   8.550   2.573   5.857 -0.3426 -0.1119  0.2724
  816MOL0     N10075   9.073   3.229   5.946 -0.0221  0.2265  0.5646
  816MOL0     N10076   9.047   3.269   6.064  0.3134  0.2442 -0.2067
  816MOL0     C10077   8.287   2.444   6.576  0.3154  0.0420  0.3868
  816MOL0     C10078   8.170   2.397   6.513  0.4975 -0.2596  0.1528
  816MOL0     C10079   7.734   2.372   6.402 -0.5059 -0.2421  0.4270
  816MOL0     C10080   7.779   2.256   6.327 -0.1069 -0.2622  0.1463
  816MOL0     C10081   7.686   2.174   6.266  0.1713  0.8343  0.5293
  816MOL0     C10082   7.553   2.178   6.292  0.6394 -1.1114  0.4392
  816MOL0     O10083   7.448   2.098   6.245 -0.4879 -0.0179  0.2876
  816MOL0     C10084   7.472   2.012   6.131 -0.0294  0.0881  0.0307
  816MOL0     C10085   7.367   1.899   6.129  1.2251 -1.0177  0.2299
  816MOL0     C10086   7.230   1.966   6.071  0.4436  1.0307 -0.1490
  816MOL0     C10087   7.115   1.845   6.074 -0.0763 -1.3873  0.7335
  816MOL0     C10088   7.129   1.753   5.964 -0.4595  0.1989  1.2273
  816MOL0     C10089   7.154   1.678   5.869 -0.1978  0.3074 -0.2420
  816MOL0     C10090   7.507   2.284   6.377 -0.4555  0.4845  0.5116
  816MOL0     C10091   7.596   2.384   6.434 -0.0970  0.6701  0.0917
  816MOL0     C10092   7.532   2.490   6.519  0.2048  0.2460  1.0259
  816MOL0     H10093   7.998   2.690   6.485 -1.0009 -1.1061  2.2792
  816MOL0     H10094   8.204   2.778   6.594 -0.1793 -0.1293  1.0995
  816MOL0     H10095   8.383   2.827   6.672  0.1465  0.4251 -2.0046
  816MOL0     H10096   8.543   2.770   6.741 -0.5640  0.6359 -0.1390
  816MOL0     H10097   8.490   2.738   6.458 -1.9031  1.1330  1.3483
  816MOL0     H10098   8.649   2.731   6.548  1.3964  2.2958  0.7694
  816MOL0     H10099   8.623   2.977   6.589  2.4095 -2.1828  1.6901
  816MOL0     H10100   8.477   2.971   6.483 -1.3702 -1.8596  0.7645
  816MOL0     H10101   8.773   2.933   6.433 -0.7560 -0.6897  0.8596
  816MOL0     H10102   8.648   2.888   6.312  0.1783 -2.3344  1.0002
  816MOL0     H10103   8.581   3.114   6.286 -0.6042  4.7655  1.3745
  816MOL0     H10104   8.637   3.154   6.451  0.7689 -0.0700  1.0825
  816MOL0     H10105   8.867   3.169   6.364 -0.4135 -1.7815  0.6375
  816MOL0     H10106   8.795   3.099   6.207 -0.4335 -0.3581  0.6352
  816MOL0     H10107   8.726   3.371   6.334  3.3525  1.1773  0.2223
  816MOL0     H10108   8.659   3.292   6.186  0.2938  1.2901 -1.0933
  816MOL0     H10109   8.795   3.459   6.108 -3.1166 -0.0801  2.6728
  816MOL0     H10110   8.930   3.438   6.224 -0.4571  2.2036 -0.6221
  816MOL0     H10111   8.760   3.294   5.898  0.9074  0.1766 -3.1950
  816MOL0     H10112   8.902   3.262   5.668 -2.9220 -1.0687  0.2616
  816MOL0     H10113   9.060   3.164   5.679 -1.0040 -0.1051 -4.1004
  816MOL0     H10114   8.812   3.076   5.605  0.1705  1.2042  1.0145
  816MOL0     H10115   8.968   2.981   5.623 -0.1892 -0.3615 -1.5957
  816MOL0     H10116   8.745   3.041   5.815  1.0437 -0.3565 -0.3540
  816MOL0     H10117   8.873   2.940   5.865 -1.5670  1.7107  1.7986
  816MOL0     H10118   8.827   2.780   5.677  0.2357 -0.3952  0.5435
  816MOL0     H10119   8.684   2.876   5.628  4.9963  2.1745 -2.8026
  816MOL0     H10120   8.657   2.667   5.538 -1.3472  1.2694 -0.4591
  816MOL0     H10121   8.509   2.482   5.476 -1.1599 -1.4483 -0.0897
  816MOL0     H10122   8.383   2.001   5.666 -0.3969 -1.7696  1.6995
  816MOL0     H10123   8.235   1.851   5.538  0.6393  0.7960 -1.0641
  816MOL0     H10124   8.060   1.801   5.377 -1.6125 -0.0268 -1.6056
  816MOL0     H10125   8.024   1.698   5.519  0.1816  0.5236  1.8533
  816MOL0     H10126   7.791   1.703   5.439 -1.1727 -1.3596 -1.7838
  816MOL0     H10127   7.840   1.798   5.297  0.7785 -0.0336 -0.6857
  816MOL0     H10128   7.950   1.609   5.191  1.1668 -2.7084  0.1442
  816MOL0     H10129   7.996   1.542   5.338 -1.0307 -1.0713  1.3927
  816MOL0     H10130   7.719   1.521   5.219 -0.4352 -1.9318  0.3474
  816MOL0     H10131   7.767   1.448   5.365  0.6145  1.1023  0.2352
  816MOL0     H10132   7.767   1.281   5.180 -0.7806  0.9087 -1.2361
  816MOL0     H10133   7.935   1.306   5.224  1.7820 -0.3057 -1.5022
  816MOL0     H10134   7.874   1.496   5.019 -0.4934  0.8980  3.7323
  816MOL0     H10135   8.011   1.402   5.059 -1.2702 -5.3003  2.8825
  816MOL0     H10136   7.895   1.198   4.977  4.0142  2.8460  3.0823
  816MOL0     H10137   7.933   1.321   4.850  0.4948  0.1027 -1.2059
  816MOL0     H10138   7.688   1.211   4.844 -1.2011 -0.6464  2.3727
  816MOL0     H10139   7.651   1.284   4.993  0.3399  0.4551  0.9053
  816MOL0     H10140   7.913   2.136   5.576  1.1088  0.6169 -1.4985
  816MOL0     H10141   8.059   2.297   5.700 -0.9755 -0.9136  0.3612
  816MOL0     H10142   8.471   2.397   5.900  3.9373  0.2675  0.5333
  816MOL0     H10143   8.549   2.609   5.959  0.6934 -1.7105  0.8894
  816MOL0     H10144   8.357   2.369   6.610 -1.7553 -0.4688  4.1025
  816MOL0     H10145   8.155   2.293   6.486  1.7228  0.1360 -2.3232
  816MOL0     H10146   7.887   2.243   6.321  0.1786  1.8207 -0.0703
  816MOL0     H10147   7.720   2.099   6.196  0.9841  0.1110  1.6744
  816MOL0     H10148   7.570   1.965   6.141 -0.5934 -1.1745 -0.1515
  816MOL0     H10149   7.495   2.057   6.035  3.6449 -0.8421  0.3173
  816MOL0     H10150   7.350   1.864   6.231  1.8245  0.2971  0.8081
  816MOL0     H10151   7.396   1.814   6.066 -0.9877 -1.6742  0.0164
  816MOL0     H10152   7.252   2.007   5.972  1.9465  1.3750  0.3066
  816MOL0     H10153   7.212   2.045   6.144  0.5346 -0.7969  1.9628
  816MOL0     H10154   7.097   1.802   6.173  0.8538  0.3118  1.7027
  816MOL0     H10155   7.023   1.899   6.049  0.9727  0.5310  0.7798
  816MOL0     H10156   7.168   1.609   5.788  0.0403  1.3232 -1.0866
  816MOL0     H10157   7.400   2.291   6.390 -0.0964  0.6553  4.5410
  816MOL0     H10158   7.540   2.592   6.480 -2.6927  0.6148  1.1899
  816MOL0     H10159   7.424   2.474   6.523 -0.9378  5.3260 -1.8160
  816MOL0     H10160   7.571   2.493   6.621  1.6769 -0.0579  0.5026
  817MOL0     O10161   5.737   2.965   1.482  0.5103 -0.4860 -0.2261
  817MOL0     C10162   5.688   2.858   1.518 -0.3301  0.4642 -1.1339
  817MOL0     O10163   5.555   2.827   1.525 -0.2846 -0.5267 -0.5128
  817MOL0     C10164   5.458   2.904   1.456  0.2939  0.8200  0.0135
  817MOL0     C10165   5.480   3.007   1.363  0.5542 -0.3840 -0.1524
  817MOL0     C10166   5.370   3.060   1.300  0.5204  0.2241  0.2094
  817MOL0     C10167   5.237   3.025   1.331  0.1633  0.0702 -0.3438
  817MOL0     O10168   5.136   3.089   1.263  0.1992 -0.1625  0.6836
  817MOL0     C10169   5.142   3.096   1.120  0.0377  0.9320  0.1228
  817MOL0     C10170   5.018   3.174   1.065 -0.0318  0.8251  0.4260
  817MOL0     C10171   5.012   3.315   1.105  0.4453  0.0492  0.0342
  817MOL0     C10172   5.083   3.414   1.014  0.2867  0.6245 -0.2666
  817MOL0     C10173   5.018   3.437   0.874  1.1070 -0.5407 -0.2357
  817MOL0     C10174   5.085   3.555   0.798  0.0412 -0.0176  0.2419
  817MOL0     C10175   5.024   3.592   0.655  1.2887 -0.0503 -0.3306
  817MOL0     C10176   5.127   3.590   0.538  1.1146 -0.1500 -0.9009
  817MOL0     N10177   5.070   3.636   0.409  0.0945  0.1983  0.6819
  817MOL0     C10178   4.959   3.710   0.382  0.2842 -0.6839  0.4386
  817MOL0     C10179   4.963   3.741   0.258 -0.3362 -0.0168 -0.3906
  817MOL0     C10180   4.875   3.833   0.175 -1.1618 -0.4050 -0.3806
  817MOL0     C10181   4.934   3.980   0.183  0.4283 -0.2414  0.4762
  817MOL0     C10182   4.846   4.061   0.087 -0.2066 -0.3913 -0.3579
  817MOL0     C10183   4.870   4.216   0.104  0.6641  0.9224 -0.0726
  817MOL0     O10184   5.007   4.231   0.077  0.2521  0.3065 -0.1434
  817MOL0     C10185   5.037   4.287  -0.047  0.2066  0.1097  0.5750
  817MOL0     C10186   5.099   4.201  -0.137 -0.2690 -0.1879  0.4508
  817MOL0     C10187   5.119   4.240  -0.268 -1.0842  0.1209  0.1654
  817MOL0     C10188   5.086   4.365  -0.315 -0.7955  0.8864 -0.9039
  817MOL0     C10189   5.112   4.396  -0.458 -0.3796  0.0189 -0.2629
  817MOL0     O10190   5.122   4.279  -0.534  0.7342 -0.2961  0.8432
  817MOL0     C10191   5.148   4.297  -0.668 -1.2360  0.6068  0.9680
  817MOL0     C10192   5.062   4.312  -0.776 -0.1114  0.7521 -0.0147
  817MOL0     C10193   5.108   4.329  -0.902 -1.4057 -0.1419  0.0446
  817MOL0     C10194   5.250   4.305  -0.919 -0.0782 -0.8236 -0.3394
  817MOL0     O10195   5.299   4.283  -1.050  0.1049  1.4101  0.1255
  817MOL0     C10196   5.375   4.173  -1.077  0.4823 -0.1863 -0.9880
  817MOL0     C10197   5.352   4.134  -1.221  0.3645 -0.0535 -0.4056
  817MOL0     C10198   5.219   4.063  -1.252 -0.8730  0.3655  0.4033
  817MOL0     C10199   5.123   4.182  -1.305  0.3057 -0.8781  0.1865
  817MOL0     C10200   4.984   4.114  -1.329  0.3247  0.4373 -0.4932
  817MOL0     C10201   4.887   4.225  -1.368 -0.0241 -0.7905  0.1510
  817MOL0     C10202   4.745   4.176  -1.421  0.4059  0.0790  0.4147
  817MOL0     C10203   4.681   4.288  -1.514  0.3365 -0.0488  0.4773
  817MOL0    Cl10204   4.504   4.239  -1.556 -0.6791  0.0395 -0.2238
  817MOL0     C10205   5.334   4.289  -0.812 -0.2859  0.4692  0.5130
  817MOL0     C10206   5.283   4.283  -0.680  1.0561  0.7902  0.4662
  817MOL0     O10207   5.128   4.511  -0.494  1.2644 -0.2024  0.0848
  817MOL0     C10208   5.027   4.458  -0.223 -0.0266  0.2190 -0.0081
  817MOL0     C10209   4.993   4.419  -0.092  0.6693  0.1042 -0.3518
  817MOL0     N10210   5.078   3.687   0.209  0.4891 -0.1662 -0.2326
  817MOL0     N10211   5.135   3.608   0.297  0.1960  1.5272 -0.1103
  817MOL0     C10212   5.213   2.928   1.432  0.4463  0.8381 -0.6582
  817MOL0     C10213   5.328   2.859   1.485  0.4402 -0.3138 -0.1406
  817MOL0     C10214   5.788   2.769   1.586  0.9724  0.0194 -0.0791
  817MOL0     C10215   5.921   2.807   1.599  0.1505  1.5575 -0.8746
  817MOL0     C10216   6.014   2.724   1.659 -0.5622 -0.0342 -0.5152
  817MOL0     C10217   5.986   2.609   1.727 -0.8947 -0.5754 -0.3341
  817MOL0     O10218   6.081   2.549   1.803  0.1065 -0.5065 -0.4383
  817MOL0     C10219   6.089   2.406   1.786 -0.2323 -0.2440  0.7462
  817MOL0     C10220   6.226   2.350   1.821 -0.6296 -0.1341 -0.7712
  817MOL0     C10221   6.237   2.195   1.844 -0.1550 -0.5606  0.6280
  817MOL0     C10222   6.192   2.130   1.976  0.0048 -0.9012 -0.6960
  817MOL0     C10223   6.205   1.985   1.973 -0.3888  0.8511 -0.8050
  817MOL0     C10224   6.225   1.860   1.981 -0.1279 -0.3031 -0.2535
  817MOL0     C10225   5.855   2.564   1.703 -0.7944  0.1526 -0.6308
  817MOL0     C10226   5.756   2.640   1.637 -0.3262 -0.1452 -0.3823
  817MOL0     C10227   5.631   2.562   1.614 -0.3024  0.3900  0.8414
  817MOL0     H10228   5.575   3.040   1.323  0.7769 -2.9948 -2.0739
  817MOL0     H10229   5.380   3.152   1.244 -0.3891  1.9693  2.7200
  817MOL0     H10230   5.235   3.147   1.095 -1.2765  2.8092 -1.2271
  817MOL0     H10231   5.148   2.993   1.084 -1.2558  0.3549  1.4712
  817MOL0     H10232   4.923   3.127   1.094  0.0679 -0.8367 -1.7224
  817MOL0     H10233   5.024   3.172   0.956  1.7806 -1.5713  0.4952
  817MOL0     H10234   5.051   3.330   1.207  1.1194 -1.5657  0.0342
  817MOL0     H10235   4.909   3.348   1.124  1.0261  0.5747  2.8354
  817MOL0     H10236   5.096   3.500   1.081  1.7127 -0.5637  1.0718
  817MOL0     H10237   5.177   3.361   0.997 -3.0534 -6.0768 -1.2140
  817MOL0     H10238   5.038   3.350   0.810  0.2961  0.2203 -1.5809
  817MOL0     H10239   4.909   3.443   0.883  0.6588 -2.0043 -3.2396
  817MOL0     H10240   5.077   3.644   0.861  1.7086  1.6473 -1.7333
  817MOL0     H10241   5.190   3.529   0.777 -0.8123 -3.1874 -0.5641
  817MOL0     H10242   4.987   3.693   0.672 -0.4316 -0.8327  0.7311
  817MOL0     H10243   4.935   3.538   0.623  0.7603  0.7123 -0.1611
  817MOL0     H10244   5.209   3.652   0.575  0.7643 -2.3994  4.7809
  817MOL0     H10245   5.186   3.503   0.509  1.3675  0.8083 -3.5105
  817MOL0     H10246   4.887   3.753   0.451  2.4882  1.1241  1.7586
  817MOL0     H10247   4.865   3.789   0.076 -2.5256  0.0472 -0.4626
  817MOL0     H10248   4.777   3.834   0.223 -0.6454  0.9756  0.7263
  817MOL0     H10249   4.922   4.010   0.288 -5.5590 -2.7523  0.9083
  817MOL0     H10250   5.039   3.973   0.154  0.0647 -0.5877 -0.8409
  817MOL0     H10251   4.742   4.050   0.119  0.1511  0.7810  1.3978
  817MOL0     H10252   4.867   4.019  -0.011  2.0660 -1.5734  0.5574
  817MOL0     H10253   4.841   4.247   0.205 -0.6811 -4.0056  1.3439
  817MOL0     H10254   4.807   4.259   0.026  1.0211 -0.4736 -1.1838
  817MOL0     H10255   5.127   4.106  -0.092 -2.6541 -2.0799 -1.7014
  817MOL0     H10256   5.165   4.164  -0.331  1.5752  1.8969 -0.1978
  817MOL0     H10257   4.956   4.294  -0.756 -0.0975 -1.1106 -1.3722
  817MOL0     H10258   5.046   4.350  -0.989 -0.4476 -0.5099 -0.7463
  817MOL0     H10259   5.478   4.205  -1.055  0.1779  0.2998 -0.2384
  817MOL0     H10260   5.345   4.082  -1.025  0.1333 -0.5415 -1.7894
  817MOL0     H10261   5.369   4.223  -1.281 -1.1464  0.7677  0.3398
  817MOL0     H10262   5.419   4.052  -1.248 -0.7391 -0.7471 -1.0978
  817MOL0     H10263   5.230   3.984  -1.327 -1.9799  1.6232 -1.1433
  817MOL0     H10264   5.190   4.018  -1.157 -1.2686 -1.3312 -0.4836
  817MOL0     H10265   5.152   4.228  -1.399  1.4126  0.8101  1.2915
  817MOL0     H10266   5.097   4.263  -1.236 -0.8895  0.2421 -1.5084
  817MOL0     H10267   4.956   4.069  -1.234  0.2446  0.8246 -0.3317
  817MOL0     H10268   4.985   4.041  -1.410 -2.9978  0.1038 -0.3583
  817MOL0     H10269   4.868   4.289  -1.282 -1.7473 -2.9133  1.4596
  817MOL0     H10270   4.923   4.287  -1.450 -2.7901 -1.9096 -2.0705
  817MOL0     H10271   4.682   4.132  -1.342 -1.5505  0.9449 -0.6030
  817MOL0     H10272   4.764   4.086  -1.481  2.1443 -1.6851  3.2992
  817MOL0     H10273   4.688   4.387  -1.469  2.5788  0.4703 -0.8547
  817MOL0     H10274   4.727   4.289  -1.613 -1.9015 -0.5009 -0.6400
  817MOL0     H10275   5.439   4.270  -0.833 -0.5454  0.2196 -0.6677
  817MOL0     H10276   5.344   4.247  -0.598  1.3581  0.4017  0.0786
  817MOL0     H10277   5.011   4.562  -0.250  1.7548  0.8786  1.2280
  817MOL0     H10278   4.946   4.482  -0.017  1.2144  2.5199 -1.9305
  817MOL0     H10279   5.111   2.908   1.463  1.4755 -2.9935  0.8194
  817MOL0     H10280   5.311   2.796   1.571  0.4115 -1.0827 -0.6974
  817MOL0     H10281   5.954   2.900   1.554  0.2221  2.3615  0.7548
  817MOL0     H10282   6.115   2.764   1.659 -0.3299 -0.6078 -0.4913
  817MOL0     H10283   6.066   2.378   1.683  1.5628  0.5021  0.0989
  817MOL0     H10284   6.013   2.358   1.849  0.5125  1.9134  3.4990
  817MOL0     H10285   6.251   2.402   1.914 -1.5674  1.4951 -1.3960
  817MOL0     H10286   6.297   2.383   1.745  0.0432 -1.7960 -0.9205
  817MOL0     H10287   6.342   2.170   1.825 -0.7225 -2.1473 -0.7045
  817MOL0     H10288   6.178   2.146   1.765 -1.1680  0.6075  0.6355
  817MOL0     H10289   6.233   2.182   2.063 -4.5406  0.6736  0.7994
  817MOL0     H10290   6.085   2.145   1.994  0.2300 -2.2267  2.5995
  817MOL0     H10291   6.232   1.755   2.001  1.7831 -0.1041  0.2593
  817MOL0     H10292   5.835   2.465   1.743  1.2592 -0.8107 -1.8207
  817MOL0     H10293   5.651   2.455   1.627  1.1135  0.7100  1.4936
  817MOL0     H10294   5.551   2.601   1.678 -1.7729 -1.2772  0.0962
  817MOL0     H10295   5.599   2.573   1.510  1.1344  2.3620  0.5500
  818MOL0     O10296   4.839   1.983   6.136 -0.2778  0.6730  0.1955
  818MOL0     C10297   4.929   1.899   6.154 -0.1085 -0.2834  0.4166
  818MOL0     O10298   4.919   1.757   6.121  0.2491 -0.2615 -0.2229
  818MOL0     C10299   4.812   1.694   6.067 -0.2171  0.1786  0.0583
  818MOL0     C10300   4.838   1.601   5.969  0.4115  0.2232 -0.3344
  818MOL0     C10301   4.724   1.555   5.898  0.0036 -0.0145 -0.3354
  818MOL0     C10302   4.597   1.592   5.931  0.5663  0.2464  0.4590
  818MOL0     O10303   4.486   1.555   5.857 -0.4622 -0.2844 -0.1594
  818MOL0     C10304   4.434   1.427   5.877  0.5700 -0.2370  0.4912
  818MOL0     C10305   4.392   1.435   6.022  0.0000 -1.0487  0.2113
  818MOL0     C10306   4.308   1.315   6.056 -0.4947 -0.7604  0.4343
  818MOL0     C10307   4.225   1.342   6.183 -0.3057  0.1548 -0.3253
  818MOL0     C10308   4.166   1.214   6.245 -0.0070 -0.4754 -0.5298
  818MOL0     C10309   4.096   1.246   6.376  0.4496  0.0816 -0.1655
  818MOL0     C10310   4.049   1.118   6.458 -0.5015 -0.3486  0.3701
  818MOL0     C10311   3.953   1.029   6.391  0.2035 -0.1292  0.5143
  818MOL0     N10312   3.820   1.093   6.368  0.3031  0.5807  0.5076
  818MOL0     C10313   3.786   1.175   6.259 -0.0387  0.5353  0.0413
  818MOL0     C10314   3.671   1.224   6.299  0.5100  0.2862 -0.2703
  818MOL0     C10315   3.616   1.337   6.214  0.0769  0.0563 -0.1475
  818MOL0     C10316   3.618   1.311   6.066  0.2178  0.0652  0.5247
  818MOL0     C10317   3.551   1.411   5.988  0.1100 -0.0957  0.2849
  818MOL0     C10318   3.626   1.542   5.971  0.4425  1.0344 -1.1030
  818MOL0     O10319   3.744   1.526   5.894 -0.4292  0.0160 -0.6173
  818MOL0     C10320   3.837   1.635   5.890  0.5280  0.6585  0.9243
  818MOL0     C10321   3.955   1.612   5.823  1.2506  0.4568  0.3563
  818MOL0     C10322   4.057   1.713   5.821  0.2689 -0.7541  0.2792
  818MOL0     C10323   4.036   1.846   5.878 -0.4558  0.1221 -0.1935
  818MOL0     C10324   4.143   1.943   5.886 -0.0065  0.0781  0.8797
  818MOL0     O10325   4.252   1.933   5.799 -0.2980  0.6840 -1.0762
  818MOL0     C10326   4.356   2.021   5.819 -0.3226 -0.2245  0.1587
  818MOL0     C10327   4.463   1.993   5.910  0.5481  0.5727  0.2644
  818MOL0     C10328   4.568   2.074   5.931 -0.1549 -0.5439 -0.3741
  818MOL0     C10329   4.580   2.183   5.846 -0.3695  0.8786 -0.2227
  818MOL0     O10330   4.685   2.272   5.868 -0.2573  0.2409  0.7507
  818MOL0     C10331   4.827   2.240   5.888 -0.0618 -0.3394  0.1700
  818MOL0     C10332   4.906   2.380   5.888  1.1712 -0.3904  0.3767
  818MOL0     C10333   4.864   2.467   6.000  1.0987 -0.3046  0.1895
  818MOL0     C10334   4.921   2.613   5.986 -0.5771 -0.3235 -0.1631
  818MOL0     C10335   4.948   2.670   6.133  0.3690  0.5188  0.5687
  818MOL0     C10336   5.029   2.808   6.133  0.1665 -0.2483  0.1592
  818MOL0     C10337   5.054   2.858   6.283  0.8728 -0.2499 -1.0764
  818MOL0     C10338   5.160   2.978   6.283  0.3657  0.4681  1.0289
  818MOL0    Cl10339   5.325   2.936   6.208  0.0355 -0.7168 -0.3069
  818MOL0     C10340   4.481   2.204   5.749 -0.2419 -0.4295  1.0644
  818MOL0     C10341   4.368   2.121   5.730 -0.7614 -0.1579  0.0132
  818MOL0     O10342   4.128   2.036   5.971 -0.5155  0.0057  0.3177
  818MOL0     C10343   3.905   1.866   5.915  0.5695  0.4917 -0.5867
  818MOL0     C10344   3.803   1.761   5.924  0.1327 -0.4675 -0.9877
  818MOL0     N10345   3.625   1.170   6.418  0.5229 -0.1985 -0.4942
  818MOL0     N10346   3.716   1.084   6.447 -0.6575 -0.1125 -0.2852
  818MOL0     C10347   4.571   1.672   6.041  0.5004  0.3965  0.9279
  818MOL0     C10348   4.678   1.735   6.104 -0.3948  0.0159 -0.1895
  818MOL0     C10349   5.061   1.934   6.215  0.7397 -0.3099  0.5574
  818MOL0     C10350   5.173   1.894   6.157 -0.2238 -1.1839 -0.3956
  818MOL0     C10351   5.299   1.902   6.223  0.9640  0.4159 -0.4158
  818MOL0     C10352   5.318   1.968   6.340  0.0513 -0.5974 -0.0213
  818MOL0     O10353   5.442   1.961   6.406 -0.2087 -0.5523 -0.2478
  818MOL0     C10354   5.478   2.066   6.499 -0.2122  0.9631 -0.3420
  818MOL0     C10355   5.507   2.196   6.413 -0.6501  1.0218  0.1824
  818MOL0     C10356   5.617   2.177   6.304  0.7704 -0.0030 -0.8426
  818MOL0     C10357   5.579   2.269   6.190  0.2975  0.7998 -0.2892
  818MOL0     C10358   5.674   2.260   6.088  0.4175  0.0838  0.0685
  818MOL0     C10359   5.749   2.247   5.991 -0.4524  0.0899 -0.4460
  818MOL0     C10360   5.198   2.020   6.396 -0.6508 -0.1686 -0.1856
  818MOL0     C10361   5.072   2.010   6.334 -0.1174  0.9738  1.0355
  818MOL0     C10362   4.953   2.058   6.412  0.1372  1.0158 -0.6913
  818MOL0     H10363   4.937   1.566   5.944 -0.5293 -1.9288 -1.2898
  818MOL0     H10364   4.744   1.500   5.807  1.3237 -1.5555  0.8342
  818MOL0     H10365   4.351   1.416   5.806  2.0115  1.0071 -1.4965
  818MOL0     H10366   4.498   1.341   5.852  1.3842  0.8561 -1.4127
  818MOL0     H10367   4.331   1.524   6.037 -0.1475 -0.6670 -2.1568
  818MOL0     H10368   4.477   1.427   6.091 -0.6622  3.1717  1.8530
  818MOL0     H10369   4.377   1.230   6.067 -0.3258 -0.5514  1.0068
  818MOL0     H10370   4.247   1.297   5.968 -0.7961  1.7006  0.0870
  818MOL0     H10371   4.301   1.384   6.250  1.0583 -1.3112 -0.8809
  818MOL0     H10372   4.150   1.418   6.162  0.1873  0.6631 -0.2804
  818MOL0     H10373   4.088   1.182   6.175  1.2982 -0.2868 -2.1416
  818MOL0     H10374   4.243   1.137   6.254  0.5011  0.0747 -0.0832
  818MOL0     H10375   4.171   1.302   6.434  0.6129 -1.5881  1.3086
  818MOL0     H10376   4.006   1.307   6.362 -0.4292 -0.7096  1.6435
  818MOL0     H10377   4.004   1.148   6.553 -1.2554 -0.7157  0.1370
  818MOL0     H10378   4.128   1.046   6.480 -1.5965 -2.2230 -1.5194
  818MOL0     H10379   3.990   0.981   6.300 -2.2649 -0.5145 -0.3349
  818MOL0     H10380   3.943   0.945   6.461 -1.0452 -0.1670  0.3035
  818MOL0     H10381   3.842   1.209   6.173 -3.2078  0.4090 -2.2113
  818MOL0     H10382   3.508   1.340   6.232 -0.2999 -2.0001 -1.6835
  818MOL0     H10383   3.657   1.436   6.239  0.8434 -0.1223 -0.6623
  818MOL0     H10384   3.715   1.297   6.018  1.4465  3.5188  1.7037
  818MOL0     H10385   3.568   1.214   6.061  0.9065 -0.4136  2.0963
  818MOL0     H10386   3.457   1.440   6.034  1.2933  3.0047  0.9538
  818MOL0     H10387   3.522   1.364   5.894  0.0156 -0.7484  0.6362
  818MOL0     H10388   3.648   1.577   6.072  1.6271 -2.1354 -0.1383
  818MOL0     H10389   3.561   1.611   5.916  1.1842  2.5764 -0.1279
  818MOL0     H10390   3.968   1.518   5.771  1.0079 -1.7925  4.0247
  818MOL0     H10391   4.149   1.685   5.770  0.6048 -0.3311  0.6428
  818MOL0     H10392   4.450   1.903   5.969  2.4947  1.8761  2.8751
  818MOL0     H10393   4.659   2.034   5.974 -0.6840 -1.3173  0.0364
  818MOL0     H10394   4.818   2.201   5.990 -3.0072  0.1954  0.2062
  818MOL0     H10395   4.864   2.168   5.814 -5.0426 -0.3267 -2.8230
  818MOL0     H10396   5.013   2.361   5.891  0.9909 -1.5624  0.0150
  818MOL0     H10397   4.868   2.425   5.796  1.7356  0.3536  0.5022
  818MOL0     H10398   4.755   2.475   6.006  1.0555  0.3675 -1.1918
  818MOL0     H10399   4.912   2.415   6.084  1.8980 -1.1846 -0.7839
  818MOL0     H10400   4.846   2.671   5.932 -1.4126 -1.1390  0.1014
  818MOL0     H10401   5.013   2.609   5.928 -1.1011 -1.2712 -0.9602
  818MOL0     H10402   5.023   2.606   6.181  0.8786  0.5398 -0.1764
  818MOL0     H10403   4.857   2.660   6.193 -1.4470 -0.6138 -2.1696
  818MOL0     H10404   5.123   2.805   6.077  0.0624  0.7655 -0.0897
  818MOL0     H10405   4.961   2.883   6.091 -1.1938 -1.0468  0.8414
  818MOL0     H10406   5.079   2.778   6.353  1.1464  0.5340 -0.2612
  818MOL0     H10407   4.957   2.895   6.316  1.2221  0.6645 -1.0291
  818MOL0     H10408   5.118   3.069   6.240 -1.7217  0.1945  2.3700
  818MOL0     H10409   5.167   3.001   6.390 -2.1076 -3.9566  2.3811
  818MOL0     H10410   4.500   2.286   5.680 -0.9165 -1.5142 -0.4521
  818MOL0     H10411   4.304   2.156   5.650 -0.9073  3.0535  1.3645
  818MOL0     H10412   3.876   1.965   5.948  4.4218  0.5349  3.6334
  818MOL0     H10413   3.709   1.793   5.968 -0.3912 -0.0514 -2.3704
  818MOL0     H10414   4.470   1.696   6.072 -0.6918 -0.5254 -1.8679
  818MOL0     H10415   4.659   1.803   6.187 -1.3271 -1.9121  1.2534
  818MOL0     H10416   5.169   1.839   6.063  3.2307  1.4091 -2.2956
  818MOL0     H10417   5.385   1.852   6.180  2.5491  3.4066 -0.9819
  818MOL0     H10418   5.566   2.034   6.556 -1.3962  2.6297  2.6354
  818MOL0     H10419   5.394   2.082   6.567 -0.6234 -1.1892 -0.2727
  818MOL0     H10420   5.529   2.282   6.477  1.4747  0.0079  0.8954
  818MOL0     H10421   5.412   2.228   6.368  0.2795  1.1557 -1.8167
  818MOL0     H10422   5.624   2.074   6.267 -1.5147 -0.2966 -0.6224
  818MOL0     H10423   5.711   2.213   6.348 -1.1881  1.3481  2.6067
  818MOL0     H10424   5.480   2.248   6.147  0.3751  2.0208 -1.1125
  818MOL0     H10425   5.566   2.370   6.229 -0.8014  0.8472 -0.7425
  818MOL0     H10426   5.798   2.236   5.897  1.5648  2.4429  0.2347
  818MOL0     H10427   5.195   2.069   6.493  0.9926 -1.1588  0.4168
  818MOL0     H10428   4.973   2.045   6.519  0.5038  0.3037 -0.8390
  818MOL0     H10429   4.928   2.163   6.392  0.2678  0.9872 -1.0150
  818MOL0     H10430   4.869   1.992   6.389 -0.1373  1.4650 -1.0011
  819MOL0     O10431   0.252   2.323   9.398 -0.1049 -0.6076  0.1757
  819MOL0     C10432   0.352   2.372   9.332  1.0295  0.5463 -0.3045
  819MOL0     O10433   0.379   2.498   9.315 -0.1731 -0.3010  0.0047
  819MOL0     C10434   0.292   2.598   9.333 -0.0549 -0.5398  0.8088
  819MOL0     C10435   0.219   2.663   9.229  0.7500  0.6250  0.3833
  819MOL0     C10436   0.106   2.749   9.255  0.4334 -0.0761 -0.5324
  819MOL0     C10437   0.081   2.787   9.390 -0.6138 -0.2911  0.1514
  819MOL0     O10438  -0.021   2.882   9.406 -0.1418  0.5726  1.1950
  819MOL0     C10439  -0.032   2.954   9.532  0.6481 -0.1320  0.7019
  819MOL0     C10440  -0.111   3.084   9.517  0.5209 -0.3897  0.1731
  819MOL0     C10441  -0.231   3.093   9.418  0.6205 -0.3649  0.0948
  819MOL0     C10442  -0.269   3.243   9.383  0.2104  0.0114  0.1384
  819MOL0     C10443  -0.382   3.251   9.285  0.9296  0.7500 -0.0317
  819MOL0     C10444  -0.413   3.393   9.249  0.3937  0.4129  0.3886
  819MOL0     C10445  -0.524   3.385   9.158  0.3460  0.6182  0.6086
  819MOL0     C10446  -0.576   3.514   9.102 -0.2142 -0.8253 -0.0621
  819MOL0     N10447  -0.527   3.558   8.968  0.0328  0.4563  0.2766
  819MOL0     C10448  -0.595   3.548   8.854 -0.7158  1.0983  0.3183
  819MOL0     C10449  -0.499   3.552   8.751  0.3092  0.1907  0.2974
  819MOL0     C10450  -0.528   3.541   8.607  0.4968 -0.2279  1.1858
  819MOL0     C10451  -0.652   3.621   8.563 -0.0463  0.2550  0.0438
  819MOL0     C10452  -0.671   3.767   8.589  0.2239 -0.7709 -0.5103
  819MOL0     C10453  -0.550   3.861   8.580 -0.1981  0.1861 -0.3168
  819MOL0     O10454  -0.444   3.820   8.477 -0.6941  0.1115  0.8886
  819MOL0     C10455  -0.454   3.868   8.351  0.3522 -0.0113  0.8825
  819MOL0     C10456  -0.436   4.008   8.318 -0.4466 -0.4972  0.3711
  819MOL0     C10457  -0.445   4.060   8.193 -0.6296  0.1880  0.9005
  819MOL0     C10458  -0.495   3.978   8.092  0.1044 -0.6961 -0.4598
  819MOL0     C10459  -0.521   4.034   7.956  0.0065 -1.0466 -0.7345
  819MOL0     O10460  -0.603   3.964   7.868  0.4020  0.0910  0.4450
  819MOL0     C10461  -0.638   4.028   7.752  0.6449 -0.1897 -0.1330
  819MOL0     C10462  -0.725   4.136   7.739  0.4276  0.3662 -0.4455
  819MOL0     C10463  -0.739   4.209   7.618  0.5601 -0.4387 -0.1476
  819MOL0     C10464  -0.705   4.153   7.493  0.3130  0.0156  0.7565
  819MOL0     O10465  -0.738   4.208   7.371  0.5793  0.2157 -0.3138
  819MOL0     C10466  -0.783   4.114   7.268  0.1357 -0.3909  0.3762
  819MOL0     C10467  -0.687   4.104   7.142  0.4986 -1.3203  0.2861
  819MOL0     C10468  -0.693   4.236   7.061  0.2994 -0.3422  0.8272
  819MOL0     C10469  -0.620   4.228   6.929  0.1480  0.6616 -0.7349
  819MOL0     C10470  -0.664   4.353   6.840 -0.0209  0.1094  0.7407
  819MOL0     C10471  -0.600   4.346   6.704  0.3071  1.1399  0.1930
  819MOL0     C10472  -0.655   4.461   6.619 -0.5650  0.5691 -0.6226
  819MOL0     C10473  -0.621   4.436   6.464 -1.0210  0.1867 -0.6906
  819MOL0    Cl10474  -0.451   4.444   6.442 -0.1156 -0.4375 -0.0951
  819MOL0     C10475  -0.625   4.037   7.509 -0.6961 -0.2876  0.4008
  819MOL0     C10476  -0.594   3.977   7.631  0.5470 -0.7254  0.0665
  819MOL0     O10477  -0.486   4.150   7.931  0.3979 -0.5812  0.4875
  819MOL0     C10478  -0.508   3.840   8.121  0.0024 -0.6788  0.0811
  819MOL0     C10479  -0.490   3.785   8.244  0.7638  1.0434 -1.2975
  819MOL0     N10480  -0.375   3.550   8.809  0.5527 -1.1294 -0.6027
  819MOL0     N10481  -0.398   3.549   8.937 -0.3273 -0.5072  0.5402
  819MOL0     C10482   0.139   2.714   9.499  0.2679  0.1294 -1.0417
  819MOL0     C10483   0.241   2.623   9.467 -0.0673  0.6193  0.2638
  819MOL0     C10484   0.445   2.270   9.277 -0.5745 -0.1818  0.2793
  819MOL0     C10485   0.471   2.276   9.139  0.5874  0.9696  0.1686
  819MOL0     C10486   0.529   2.170   9.071  0.1905  0.2744  0.2380
  819MOL0     C10487   0.586   2.062   9.137  0.3513 -0.2674 -0.0262
  819MOL0     O10488   0.633   1.961   9.064  0.0351 -0.5005 -0.0763
  819MOL0     C10489   0.571   1.837   9.074  0.1137  0.3681 -1.0873
  819MOL0     C10490   0.444   1.835   8.989 -0.4830  0.0913  0.5351
  819MOL0     C10491   0.479   1.848   8.833  0.0097  0.8628 -0.9451
  819MOL0     C10492   0.598   1.755   8.787  0.8075 -0.7700 -0.2348
  819MOL0     C10493   0.615   1.758   8.644 -0.0482 -0.6679  0.3172
  819MOL0     C10494   0.624   1.749   8.521  0.2560 -0.2353  0.2681
  819MOL0     C10495   0.566   2.057   9.274 -0.6413 -0.4006 -0.7502
  819MOL0     C10496   0.495   2.157   9.342 -0.2325  0.5844 -1.0485
  819MOL0     C10497   0.477   2.133   9.491  0.3822  0.4403  0.2142
  819MOL0     H10498   0.239   2.635   9.126 -4.0444  0.3293 -0.7246
  819MOL0     H10499   0.045   2.793   9.177 -0.6183 -0.6606 -0.0496
  819MOL0     H10500  -0.086   2.890   9.603 -0.8998 -0.7907 -0.9722
  819MOL0     H10501   0.067   2.978   9.570  0.8808 -1.5368  1.0348
  819MOL0     H10502  -0.036   3.156   9.482 -0.5394  0.7693  0.2176
  819MOL0     H10503  -0.135   3.121   9.617  0.3521 -0.1443  0.0453
  819MOL0     H10504  -0.321   3.051   9.462  1.0180  0.3881  1.6802
  819MOL0     H10505  -0.194   3.043   9.327 -0.6914 -2.6397  0.7360
  819MOL0     H10506  -0.286   3.297   9.476  1.7141  3.8837 -1.6059
  819MOL0     H10507  -0.188   3.297   9.334 -0.6288  4.0817  2.7617
  819MOL0     H10508  -0.365   3.187   9.198  1.9633  2.2706 -1.0181
  819MOL0     H10509  -0.474   3.206   9.322  0.7189  2.4603  1.6466
  819MOL0     H10510  -0.450   3.458   9.329  2.2198  0.5488  1.1662
  819MOL0     H10511  -0.335   3.443   9.191 -0.7800  0.1966 -1.4861
  819MOL0     H10512  -0.605   3.341   9.217 -0.1321 -1.1507 -1.2346
  819MOL0     H10513  -0.511   3.304   9.086  1.0889  0.4432  0.9333
  819MOL0     H10514  -0.685   3.518   9.094 -0.0906 -0.9497 -2.9211
  819MOL0     H10515  -0.548   3.593   9.172 -2.7120  1.8026 -1.7779
  819MOL0     H10516  -0.703   3.552   8.840 -0.5761 -0.4541 -1.6874
  819MOL0     H10517  -0.451   3.588   8.546 -1.9577  1.0428 -1.1469
  819MOL0     H10518  -0.541   3.435   8.580 -2.9510  1.0302 -3.4050
  819MOL0     H10519  -0.663   3.600   8.457 -1.7336  1.5438 -0.0775
  819MOL0     H10520  -0.739   3.565   8.600 -0.8949  1.2386 -0.4165
  819MOL0     H10521  -0.699   3.765   8.695  0.9841 -3.7951 -0.2903
  819MOL0     H10522  -0.768   3.791   8.543 -1.1366 -3.1373  0.9481
  819MOL0     H10523  -0.501   3.841   8.676  2.3284 -1.3547 -1.8194
  819MOL0     H10524  -0.578   3.966   8.571 -1.3540 -0.1726 -1.3971
  819MOL0     H10525  -0.410   4.082   8.393  0.9483  1.2003 -1.6754
  819MOL0     H10526  -0.441   4.168   8.177  0.0679  0.2134  1.2019
  819MOL0     H10527  -0.767   4.169   7.834  2.0763  0.7752  0.1925
  819MOL0     H10528  -0.790   4.304   7.611 -0.0714 -0.7987 -0.4617
  819MOL0     H10529  -0.797   4.008   7.293  0.4723 -1.9669 -4.9769
  819MOL0     H10530  -0.881   4.153   7.240 -0.6822 -0.4521  2.8528
  819MOL0     H10531  -0.580   4.093   7.164  0.1233  0.9396  3.9633
  819MOL0     H10532  -0.716   4.019   7.079 -0.0572 -1.8459  1.2251
  819MOL0     H10533  -0.789   4.288   7.057  1.4219  2.0500  2.5161
  819MOL0     H10534  -0.632   4.302   7.124 -2.2822  2.2763  0.8026
  819MOL0     H10535  -0.633   4.134   6.873 -0.5225 -0.3005  0.9543
  819MOL0     H10536  -0.514   4.220   6.954  0.3625  1.4758 -1.3370
  819MOL0     H10537  -0.632   4.449   6.882 -2.4409  1.0796  0.5547
  819MOL0     H10538  -0.773   4.352   6.835 -0.1279 -3.9183  0.4516
  819MOL0     H10539  -0.491   4.343   6.708  0.2639 -0.9089  1.9000
  819MOL0     H10540  -0.629   4.248   6.665  0.8757  1.7041 -1.7338
  819MOL0     H10541  -0.598   4.544   6.663  1.5477 -0.1601 -1.8213
  819MOL0     H10542  -0.762   4.474   6.635 -0.3725  3.6796 -1.2073
  819MOL0     H10543  -0.653   4.338   6.426  4.2332 -0.4407 -4.6529
  819MOL0     H10544  -0.670   4.500   6.391 -3.1031 -1.2595 -0.6426
  819MOL0     H10545  -0.571   4.000   7.422  0.6306 -1.0068  1.4961
  819MOL0     H10546  -0.534   3.887   7.620  2.8979  0.7688 -0.0978
  819MOL0     H10547  -0.541   3.770   8.044  2.8697 -1.5647 -0.4810
  819MOL0     H10548  -0.496   3.677   8.251  2.5519  1.0122  1.8872
  819MOL0     H10549   0.111   2.735   9.601 -1.9129  1.2915 -1.8170
  819MOL0     H10550   0.269   2.556   9.548 -3.3323 -0.8335  0.3428
  819MOL0     H10551   0.431   2.363   9.088  1.5007  1.5205  0.3792
  819MOL0     H10552   0.536   2.180   8.963  2.2648 -0.5527  0.2655
  819MOL0     H10553   0.552   1.817   9.180  3.3896  1.5036 -0.1394
  819MOL0     H10554   0.636   1.755   9.041 -0.4622 -1.0082  0.9938
  819MOL0     H10555   0.384   1.919   9.025  1.3432  1.5240  0.4012
  819MOL0     H10556   0.395   1.738   9.001 -0.4020 -0.2081 -1.2444
  819MOL0     H10557   0.507   1.953   8.818  0.8554  0.8515  0.4099
  819MOL0     H10558   0.392   1.816   8.774 -1.1026 -0.3643  1.2542
  819MOL0     H10559   0.693   1.788   8.831  0.4746 -1.5771  1.1341
  819MOL0     H10560   0.580   1.652   8.817 -1.7841  0.3283  2.3714
  819MOL0     H10561   0.612   1.743   8.415 -1.1834  0.7204  0.3485
  819MOL0     H10562   0.612   1.981   9.336 -1.6217  1.2393  2.1416
  819MOL0     H10563   0.394   2.186   9.539 -0.6063 -0.2895 -0.6402
  819MOL0     H10564   0.464   2.025   9.507  0.7851  0.6428  2.2344
  819MOL0     H10565   0.567   2.173   9.539  0.3469  0.7514  0.0203
  820MOL0     O10566   8.731   1.690  11.245 -1.1859 -0.3355  0.1250
  820MOL0     C10567   8.711   1.749  11.351  1.5250 -0.0413 -0.5429
  820MOL0     O10568   8.626   1.857  11.363  0.1279 -0.0884 -0.0018
  820MOL0     C10569   8.541   1.859  11.256 -0.4320  0.1668 -0.6875
  820MOL0     C10570   8.448   1.754  11.240  0.1092 -0.3598  0.5881
  820MOL0     C10571   8.344   1.768  11.151  0.2285 -0.4466 -0.9493
  820MOL0     C10572   8.320   1.889  11.087  0.5761 -0.9047  0.8873
  820MOL0     O10573   8.210   1.882  11.006  0.3462 -0.2968 -0.0016
  820MOL0     C10574   8.130   2.005  10.988  0.4215  0.7193 -0.3831
  820MOL0     C10575   8.043   1.988  10.851 -0.5870  0.4083 -0.0001
  820MOL0     C10576   8.021   2.120  10.780  0.7435 -0.1614  0.6891
  820MOL0     C10577   7.909   2.206  10.851  0.1167  0.1637  0.3450
  820MOL0     C10578   7.896   2.342  10.789  0.3691 -0.1581 -0.3531
  820MOL0     C10579   7.786   2.425  10.861  0.3794 -0.5549  0.3185
  820MOL0     C10580   7.818   2.442  11.007  0.8008 -0.2023  0.1563
  820MOL0     C10581   7.728   2.541  11.076  0.9520 -1.3784  0.0603
  820MOL0     N10582   7.783   2.610  11.193  0.2530 -0.5732  0.0204
  820MOL0     C10583   7.897   2.587  11.270 -0.0787 -0.2216 -0.4468
  820MOL0     C10584   7.887   2.675  11.377  0.8398  0.0853 -0.2596
  820MOL0     C10585   7.984   2.663  11.493 -0.2669  0.7746 -0.6816
  820MOL0     C10586   8.090   2.780  11.503  0.3231  0.7985 -0.4837
  820MOL0     C10587   8.199   2.758  11.398  0.1257 -0.5628 -0.3090
  820MOL0     C10588   8.310   2.651  11.450  0.5485 -0.4195  0.4812
  820MOL0     O10589   8.339   2.660  11.589 -0.1190  0.1212 -0.1928
  820MOL0     C10590   8.413   2.775  11.621  0.9054 -0.2405 -0.4402
  820MOL0     C10591   8.426   2.804  11.758  0.8005  0.3018 -1.1190
  820MOL0     C10592   8.503   2.905  11.811 -0.5542 -0.1857 -0.5689
  820MOL0     C10593   8.560   3.005  11.729 -1.1917 -0.4880  0.2775
  820MOL0     C10594   8.626   3.131  11.786  1.0359 -0.2843 -0.8872
  820MOL0     O10595   8.609   3.146  11.922  0.8856 -0.3381 -0.5314
  820MOL0     C10596   8.634   3.264  11.968  0.6738 -0.6146  0.6580
  820MOL0     C10597   8.705   3.264  12.090  0.8815  0.2725 -0.3148
  820MOL0     C10598   8.738   3.386  12.153 -0.2349  0.2636  0.7325
  820MOL0     C10599   8.709   3.515  12.100  0.2402  0.1689 -0.2043
  820MOL0     O10600   8.739   3.634  12.166 -0.2666 -0.3487  0.3440
  820MOL0     C10601   8.799   3.635  12.292 -0.5436 -0.5753 -0.3275
  820MOL0     C10602   8.834   3.779  12.323  0.9910  0.2304  0.5976
  820MOL0     C10603   8.907   3.778  12.455 -1.3097  0.0547  0.2805
  820MOL0     C10604   9.007   3.896  12.464 -0.4930  0.4595 -0.2081
  820MOL0     C10605   9.017   3.962  12.603 -0.0637 -0.0505 -0.7898
  820MOL0     C10606   9.104   3.877  12.693 -0.2878 -0.6745  0.5632
  820MOL0     C10607   9.077   3.913  12.842 -0.6565  0.7197 -0.5722
  820MOL0     C10608   9.144   3.819  12.943 -0.2294  0.2735  0.7564
  820MOL0    Cl10609   9.094   3.650  12.927 -0.0049  0.1973 -0.3342
  820MOL0     C10610   8.636   3.511  11.983  0.5177 -0.5922 -0.4583
  820MOL0     C10611   8.595   3.386  11.919 -0.4677 -0.5813 -0.2224
  820MOL0     O10612   8.694   3.203  11.712 -0.1239  0.3000 -0.7832
  820MOL0     C10613   8.545   2.987  11.592 -0.4277  0.1743  0.1246
  820MOL0     C10614   8.476   2.872  11.537  0.4170 -0.2946  0.3205
  820MOL0     N10615   7.776   2.759  11.360 -0.4466 -0.1350 -0.7005
  820MOL0     N10616   7.725   2.724  11.248  0.6218 -0.6626 -0.3530
  820MOL0     C10617   8.412   1.991  11.101  0.2268  0.3316 -0.2598
  820MOL0     C10618   8.524   1.972  11.187  0.6410 -0.7504 -0.7228
  820MOL0     C10619   8.777   1.710  11.472  0.0281  0.0540  0.0997
  820MOL0     C10620   8.821   1.809  11.562  0.3081 -0.4818  1.1267
  820MOL0     C10621   8.867   1.774  11.688 -0.6246  0.3724 -0.7730
  820MOL0     C10622   8.867   1.639  11.723 -0.2070  0.4916  0.0261
  820MOL0     O10623   8.913   1.622  11.854 -0.1458  0.0327 -0.4634
  820MOL0     C10624   8.931   1.488  11.917  0.8823 -2.0481 -0.0256
  820MOL0     C10625   8.824   1.477  12.021  0.3498  0.5372  0.0030
  820MOL0     C10626   8.678   1.473  11.962  0.0939 -0.6394  0.1891
  820MOL0     C10627   8.553   1.447  12.052  0.7545  0.1221  0.4395
  820MOL0     C10628   8.559   1.328  12.133  0.2633  0.4142  0.5303
  820MOL0     C10629   8.586   1.234  12.212 -0.3216 -0.1408 -0.1912
  820MOL0     C10630   8.831   1.537  11.640 -0.9164  0.5142  0.1758
  820MOL0     C10631   8.789   1.577  11.512 -0.4769  0.2513 -0.2477
  820MOL0     C10632   8.746   1.463  11.418 -0.3852  0.5548  0.8651
  820MOL0     H10633   8.457   1.660  11.294 -0.1767  0.8060  2.7659
  820MOL0     H10634   8.274   1.688  11.128 -1.0753  0.9283 -1.9266
  820MOL0     H10635   8.067   2.009  11.078  3.9815  0.7124  2.3477
  820MOL0     H10636   8.195   2.092  10.977  0.1046  1.1280  0.8176
  820MOL0     H10637   7.961   1.915  10.858 -0.5953  0.3713 -0.4155
  820MOL0     H10638   8.108   1.924  10.791  1.4401  1.6273  0.7885
  820MOL0     H10639   7.977   2.105  10.681 -2.2079 -3.7336  2.2756
  820MOL0     H10640   8.116   2.172  10.771 -0.0580  1.3404  0.6562
  820MOL0     H10641   7.814   2.153  10.854 -1.3113  2.4757 -1.0998
  820MOL0     H10642   7.954   2.224  10.949  0.5439  1.2048 -0.0208
  820MOL0     H10643   7.992   2.394  10.789 -1.2288  3.1701  2.1827
  820MOL0     H10644   7.865   2.326  10.685 -2.9527  0.0474  0.5050
  820MOL0     H10645   7.789   2.517  10.802 -2.0784 -1.6389 -1.6925
  820MOL0     H10646   7.692   2.370  10.856  0.2524 -0.2302 -1.3303
  820MOL0     H10647   7.915   2.488  11.024  0.3016  0.5077  1.1995
  820MOL0     H10648   7.807   2.352  11.068 -1.1365  1.3595  2.2884
  820MOL0     H10649   7.684   2.612  11.005 -0.8870 -0.3926  2.0344
  820MOL0     H10650   7.633   2.493  11.103 -0.8998  0.5027 -2.6496
  820MOL0     H10651   7.974   2.516  11.241 -0.6741 -0.9444 -0.2834
  820MOL0     H10652   7.932   2.659  11.589  0.0912 -0.9980 -0.5212
  820MOL0     H10653   8.036   2.566  11.487  0.4860  0.9682  1.5919
  820MOL0     H10654   8.034   2.871  11.481  0.1908  0.6634 -0.7151
  820MOL0     H10655   8.134   2.805  11.600  3.2505  0.8975 -1.7178
  820MOL0     H10656   8.262   2.848  11.392 -0.4153 -0.2798 -2.2771
  820MOL0     H10657   8.169   2.741  11.295  2.3205 -2.3801 -0.7188
  820MOL0     H10658   8.403   2.651  11.392  1.3203  0.3285  1.6783
  820MOL0     H10659   8.256   2.557  11.435 -1.3843  0.1756  3.0130
  820MOL0     H10660   8.375   2.734  11.823 -0.3051  0.3912 -1.8720
  820MOL0     H10661   8.533   2.909  11.915  0.2825 -2.5246 -0.6526
  820MOL0     H10662   8.729   3.167  12.132 -1.4751 -1.5221 -2.7086
  820MOL0     H10663   8.784   3.383  12.251  2.6500 -0.5371 -0.5269
  820MOL0     H10664   8.729   3.604  12.369 -0.5802 -0.1379 -0.1846
  820MOL0     H10665   8.891   3.576  12.285 -1.8179 -2.5498 -1.3338
  820MOL0     H10666   8.898   3.815  12.242  0.4263 -2.3187 -1.0737
  820MOL0     H10667   8.744   3.839  12.339  2.5348  2.5981  0.9023
  820MOL0     H10668   8.840   3.771  12.541 -2.5790 -2.0311 -0.7849
  820MOL0     H10669   8.973   3.691  12.458 -3.0755 -1.3008  1.5121
  820MOL0     H10670   8.961   3.972  12.399 -2.8816 -1.9432 -1.5154
  820MOL0     H10671   9.104   3.854  12.439 -0.2724  0.3215  0.8399
  820MOL0     H10672   8.914   3.968  12.638  0.7139 -0.3653  1.7789
  820MOL0     H10673   9.063   4.061  12.601 -1.4581  0.7295  1.7737
  820MOL0     H10674   9.080   3.772  12.673 -0.9274 -0.3369 -0.5484
  820MOL0     H10675   9.211   3.889  12.674  0.2630 -1.4667  2.8189
  820MOL0     H10676   8.970   3.907  12.865 -0.3100  1.8637  1.5812
  820MOL0     H10677   9.107   4.016  12.864  2.5143 -0.2636  0.2922
  820MOL0     H10678   9.252   3.824  12.925  0.4054 -0.1988  3.7485
  820MOL0     H10679   9.140   3.863  13.043 -0.0522 -1.7273  1.7010
  820MOL0     H10680   8.598   3.609  11.955 -1.1836 -0.9362  0.5014
  820MOL0     H10681   8.552   3.393  11.820 -0.2698 -1.7209 -0.3951
  820MOL0     H10682   8.603   3.040  11.517 -2.2483  0.9499 -0.8118
  820MOL0     H10683   8.483   2.847  11.432 -0.8891  0.0493  0.1439
  820MOL0     H10684   8.405   2.082  11.042  1.4791  0.4975 -0.1663
  820MOL0     H10685   8.575   2.063  11.218 -1.1295  0.5436 -1.4382
  820MOL0     H10686   8.811   1.916  11.547  0.2122 -0.5869  0.3614
  820MOL0     H10687   8.898   1.846  11.762  1.2166 -1.7607  0.6511
  820MOL0     H10688   9.034   1.482  11.953  1.1928 -0.7205 -0.6480
  820MOL0     H10689   8.913   1.413  11.839 -4.0044  1.0338 -2.3609
  820MOL0     H10690   8.824   1.553  12.099  0.2912  0.4872  0.0527
  820MOL0     H10691   8.839   1.384  12.077 -0.1970  0.4859  0.0737
  820MOL0     H10692   8.676   1.391  11.890  0.4448  0.4978 -1.1642
  820MOL0     H10693   8.673   1.557  11.893  2.6157 -1.9732 -1.7890
  820MOL0     H10694   8.525   1.527  12.121  0.0847  0.5315 -0.2996
  820MOL0     H10695   8.466   1.435  11.988  1.5110  2.9704 -1.3200
  820MOL0     H10696   8.635   1.161  12.273  1.4576  0.5309 -0.7651
  820MOL0     H10697   8.836   1.430  11.657 -2.1790  0.1872 -1.3064
  820MOL0     H10698   8.764   1.364  11.462  0.6094  1.9044  3.7478
  820MOL0     H10699   8.640   1.461  11.393 -0.2027 -0.8929  0.1051
  820MOL0     H10700   8.819   1.469  11.337  1.2536 -2.5523  1.9237
  821MOL0     O10701   3.944  11.434  11.064  0.4003 -0.2013  0.4185
  821MOL0     C10702   3.977  11.520  11.130 -0.3825  0.3600 -1.1707
  821MOL0     O10703   4.106  11.540  11.179 -0.4115 -0.4496  0.2576
  821MOL0     C10704   4.196  11.440  11.164  0.0632  0.5727 -0.6328
  821MOL0     C10705   4.177  11.315  11.111 -0.0498  0.4654 -0.7586
  821MOL0     C10706   4.280  11.227  11.080 -0.0052  0.5495 -0.3098
  821MOL0     C10707   4.416  11.259  11.102 -0.0344  0.1780 -1.2971
  821MOL0     O10708   4.524  11.172  11.056  0.2241 -0.1138  0.1843
  821MOL0     C10709   4.540  11.154  10.910  0.4287 -0.3089 -0.6323
  821MOL0     C10710   4.630  11.266  10.867 -1.3791  0.5987  0.1014
  821MOL0     C10711   4.720  11.233  10.748  0.4208  0.2950 -0.1415
  821MOL0     C10712   4.808  11.342  10.717 -1.0711 -0.3417  0.4966
  821MOL0     C10713   4.877  11.335  10.570 -0.5884 -0.0287  0.0346
  821MOL0     C10714   4.957  11.199  10.564 -0.6302 -0.1930 -0.1220
  821MOL0     C10715   4.993  11.169  10.426  0.2337  0.7220 -0.9579
  821MOL0     C10716   5.054  11.027  10.416 -0.1483  0.3890  1.2657
  821MOL0     N10717   5.169  11.005  10.510 -0.4789 -0.4387  0.1225
  821MOL0     C10718   5.175  10.911  10.614  0.6476  0.1961  1.1424
  821MOL0     C10719   5.296  10.921  10.662 -0.3144 -0.3248  0.0200
  821MOL0     C10720   5.347  10.826  10.773 -0.2332 -0.1882  1.2050
  821MOL0     C10721   5.277  10.859  10.902  0.1658 -0.2235  0.0612
  821MOL0     C10722   5.337  10.978  10.965  0.9550  0.1346 -0.7475
  821MOL0     C10723   5.249  11.012  11.081  0.6784  0.8496 -1.4075
  821MOL0     O10724   5.103  11.015  11.050 -0.5206 -0.3407  0.2739
  821MOL0     C10725   5.010  11.021  11.152 -0.6066 -0.4153 -0.0069
  821MOL0     C10726   5.026  10.940  11.267 -0.6390 -0.1999  0.0565
  821MOL0     C10727   4.931  10.946  11.370  0.7815 -0.4922  0.7885
  821MOL0     C10728   4.816  11.039  11.364  0.3954  0.7522  0.3550
  821MOL0     C10729   4.709  11.025  11.471  0.5479  0.0462  0.3382
  821MOL0     O10730   4.595  11.101  11.453 -0.1693  0.2394  0.1031
  821MOL0     C10731   4.487  11.088  11.537  0.3104  0.1484 -0.2202
  821MOL0     C10732   4.452  10.980  11.621 -0.3555  0.3441 -0.1000
  821MOL0     C10733   4.334  10.986  11.693 -0.7164 -0.2722 -0.1527
  821MOL0     C10734   4.257  11.112  11.699  0.2443  0.6591 -0.2217
  821MOL0     O10735   4.134  11.124  11.762 -0.3158  0.7224  0.2239
  821MOL0     C10736   4.058  11.020  11.828  0.1351  0.3121 -1.2183
  821MOL0     C10737   4.005  10.913  11.727  0.4650  0.3980 -0.3054
  821MOL0     C10738   3.901  10.825  11.791  0.2221 -0.3048 -0.5947
  821MOL0     C10739   3.878  10.711  11.693  0.1489  0.3278  0.6888
  821MOL0     C10740   3.741  10.640  11.704 -0.7411 -0.1430  0.4016
  821MOL0     C10741   3.715  10.588  11.850  0.1033 -0.9172 -1.3776
  821MOL0     C10742   3.599  10.488  11.844  0.5754 -0.3047  0.5170
  821MOL0     C10743   3.567  10.449  11.992  0.1470  0.2123  1.0742
  821MOL0    Cl10744   3.452  10.306  12.005 -0.2058  0.2830 -0.2277
  821MOL0     C10745   4.296  11.209  11.612  0.4982  0.5983  0.7223
  821MOL0     C10746   4.419  11.203  11.545  0.5146 -1.0200  0.0224
  821MOL0     O10747   4.724  10.934  11.552 -0.5303 -0.7919  0.1607
  821MOL0     C10748   4.806  11.116  11.250  0.3524  0.3730  0.3544
  821MOL0     C10749   4.900  11.109  11.146  0.0571  0.5125  0.6603
  821MOL0     N10750   5.368  11.014  10.595  0.1607  0.1040  0.8408
  821MOL0     N10751   5.293  11.066  10.503  0.0022 -0.2714 -0.3184
  821MOL0     C10752   4.442  11.381  11.157  0.2156 -0.6272 -0.1411
  821MOL0     C10753   4.338  11.468  11.190  0.7737  0.2381 -0.3585
  821MOL0     C10754   3.868  11.594  11.199  0.2701 -0.7890 -0.2196
  821MOL0     C10755   3.903  11.704  11.278  0.6993 -0.1782  0.4757
  821MOL0     C10756   3.820  11.774  11.362 -0.3396  0.7504  0.1223
  821MOL0     C10757   3.687  11.737  11.374  0.4540 -0.1584  0.0663
  821MOL0     O10758   3.595  11.806  11.445  0.1931 -0.1027 -0.3532
  821MOL0     C10759   3.655  11.868  11.561 -0.2520  0.3698  0.3431
  821MOL0     C10760   3.560  11.923  11.663 -0.6776  0.4055 -0.1187
  821MOL0     C10761   3.466  12.034  11.608  0.5733 -0.0766  1.1726
  821MOL0     C10762   3.388  12.106  11.710  0.6717 -0.1251  0.0968
  821MOL0     C10763   3.348  12.230  11.652 -0.2488 -0.9513  1.0476
  821MOL0     C10764   3.307  12.326  11.600  0.5168  0.4998  0.4855
  821MOL0     C10765   3.640  11.637  11.286 -0.5835  0.6107 -0.0786
  821MOL0     C10766   3.723  11.566  11.199 -1.0962  0.0919  0.3578
  821MOL0     C10767   3.664  11.461  11.099  0.0899  0.3587 -0.6682
  821MOL0     H10768   4.079  11.267  11.103 -0.6187  1.4563  0.0491
  821MOL0     H10769   4.239  11.129  11.058 -0.9444  0.8893 -0.1438
  821MOL0     H10770   4.596  11.060  10.907 -1.1265 -1.2732 -0.7965
  821MOL0     H10771   4.443  11.150  10.859 -2.8153  4.1367  4.1021
  821MOL0     H10772   4.699  11.309  10.941 -0.3959 -1.0385  0.2044
  821MOL0     H10773   4.562  11.349  10.849 -1.1040  1.1319  1.4024
  821MOL0     H10774   4.656  11.228  10.659 -0.5686  4.9995  0.0378
  821MOL0     H10775   4.786  11.150  10.776  1.3465  1.1470  0.2805
  821MOL0     H10776   4.751  11.435  10.711 -3.9606 -2.0544 -0.4863
  821MOL0     H10777   4.892  11.345  10.788  1.6033 -0.7325 -2.4328
  821MOL0     H10778   4.798  11.320  10.495 -1.1880 -4.1424  1.2265
  821MOL0     H10779   4.939  11.421  10.543  1.1181 -1.1360  0.3063
  821MOL0     H10780   5.051  11.207  10.618  0.2430 -0.8216 -1.4842
  821MOL0     H10781   4.886  11.118  10.584  1.0605 -1.9724 -1.0102
  821MOL0     H10782   5.073  11.231  10.384  3.3924 -1.9993  0.5873
  821MOL0     H10783   4.902  11.171  10.364  0.3232 -0.0099 -1.1285
  821MOL0     H10784   4.976  10.953  10.437  1.6349 -1.6462  1.1029
  821MOL0     H10785   5.074  11.007  10.311 -1.4852  1.4791  0.7653
  821MOL0     H10786   5.097  10.842  10.644  1.3771 -1.1957 -0.0461
  821MOL0     H10787   5.314  10.727  10.740 -0.3845  0.2180  0.0918
  821MOL0     H10788   5.455  10.818  10.785 -0.2385 -0.1959  1.2482
  821MOL0     H10789   5.171  10.876  10.879  0.8339  1.5371 -1.9455
  821MOL0     H10790   5.297  10.771  10.964  2.2208  0.8778  1.0583
  821MOL0     H10791   5.346  11.060  10.894  1.8208  1.5433  0.9114
  821MOL0     H10792   5.440  10.963  11.000  1.2317  4.6475  1.0599
  821MOL0     H10793   5.264  11.110  11.127  1.1571  0.0201  0.3095
  821MOL0     H10794   5.277  10.940  11.159 -1.2236  2.0745  0.4996
  821MOL0     H10795   5.127  10.901  11.271 -0.8383 -0.8171 -0.6201
  821MOL0     H10796   4.926  10.881  11.457 -0.3564 -2.1154 -0.4281
  821MOL0     H10797   4.521  10.897  11.621 -1.0293 -0.2300 -1.1196
  821MOL0     H10798   4.327  10.904  11.764  2.4857  2.5732  3.9458
  821MOL0     H10799   4.120  10.972  11.905  0.2820 -0.7837 -1.9940
  821MOL0     H10800   3.976  11.065  11.884 -1.2467 -1.0215 -2.1097
  821MOL0     H10801   3.959  10.964  11.642 -2.5688 -0.0637  0.9424
  821MOL0     H10802   4.091  10.858  11.688  0.3808  0.6043 -0.7907
  821MOL0     H10803   3.926  10.779  11.887 -1.6257 -1.0075 -0.4099
  821MOL0     H10804   3.809  10.879  11.815  0.3450  0.4999 -1.8527
  821MOL0     H10805   3.953  10.631  11.699 -0.9107 -0.7543  0.0799
  821MOL0     H10806   3.891  10.746  11.591 -1.2033 -0.3669  0.2564
  821MOL0     H10807   3.733  10.554  11.637 -2.0611 -0.3720  0.8179
  821MOL0     H10808   3.655  10.702  11.679 -2.8364 -3.8188 -2.5991
  821MOL0     H10809   3.803  10.532  11.886 -1.7140 -2.8338  0.3437
  821MOL0     H10810   3.695  10.676  11.912 -0.6966 -0.6747 -1.9767
  821MOL0     H10811   3.623  10.398  11.786 -0.9360 -0.0284 -0.5885
  821MOL0     H10812   3.510  10.532  11.798  0.3729  1.5656  2.5417
  821MOL0     H10813   3.653  10.417  12.050 -1.3555 -0.4262  3.0684
  821MOL0     H10814   3.519  10.535  12.039  0.1744  1.7740 -1.5097
  821MOL0     H10815   4.234  11.297  11.595  2.6052  1.6046 -3.0066
  821MOL0     H10816   4.455  11.291  11.493  0.6879 -1.4665 -0.6242
  821MOL0     H10817   4.712  11.169  11.239  0.1204 -0.0173  0.4321
  821MOL0     H10818   4.886  11.172  11.059 -0.4523  0.2953  0.5839
  821MOL0     H10819   4.546  11.412  11.156 -0.3525  1.6242  1.5629
  821MOL0     H10820   4.375  11.565  11.222  3.2075 -0.0700 -1.9950
  821MOL0     H10821   4.001  11.749  11.267 -0.3923  1.7946 -2.0894
  821MOL0     H10822   3.859  11.849  11.430  0.0092 -1.7245  2.8960
  821MOL0     H10823   3.708  11.957  11.527 -0.9654  0.2015 -1.3117
  821MOL0     H10824   3.719  11.792  11.608 -2.0803 -1.7465 -0.4205
  821MOL0     H10825   3.621  11.963  11.744 -1.0764  0.2241  0.2724
  821MOL0     H10826   3.498  11.842  11.702  0.2890 -0.8592 -1.1376
  821MOL0     H10827   3.404  11.989  11.530  1.4207 -0.5812  0.7751
  821MOL0     H10828   3.520  12.107  11.547 -1.9413  2.2628  1.5372
  821MOL0     H10829   3.302  12.047  11.745 -1.0192  1.1276 -1.7102
  821MOL0     H10830   3.451  12.117  11.799  0.5807  0.7559  0.0587
  821MOL0     H10831   3.262  12.407  11.546  2.5123  0.8647 -0.7466
  821MOL0     H10832   3.532  11.621  11.283 -0.6974  1.3726 -0.5099
  821MOL0     H10833   3.702  11.476  10.998  2.2948 -2.6520 -0.4438
  821MOL0     H10834   3.694  11.361  11.132 -0.0977  0.3360 -0.5612
  821MOL0     H10835   3.555  11.463  11.095 -0.0433 -2.6451 -0.4670
  822MOL0     O10836   3.981   8.409   0.081 -0.7505 -0.8128 -0.2135
  822MOL0     C10837   4.047   8.477   0.154  0.9330  0.0496  1.6216
  822MOL0     O10838   4.126   8.579   0.109  0.2864  0.3042  0.2182
  822MOL0     C10839   4.136   8.600  -0.027  0.3019 -0.0455  0.6254
  822MOL0     C10840   4.058   8.695  -0.089  0.0024  0.5975 -0.5916
  822MOL0     C10841   4.070   8.724  -0.231 -0.3506 -0.3583  0.0251
  822MOL0     C10842   4.161   8.646  -0.306 -0.3679 -0.3991 -0.8906
  822MOL0     O10843   4.187   8.674  -0.435  0.5649  0.1475  0.4444
  822MOL0     C10844   4.079   8.654  -0.517  0.1123 -0.2118  0.4298
  822MOL0     C10845   4.117   8.692  -0.658 -0.0670  1.3088 -0.6871
  822MOL0     C10846   4.200   8.591  -0.733 -0.4447  0.1413 -0.1418
  822MOL0     C10847   4.242   8.637  -0.865  0.2194 -0.0563  0.9061
  822MOL0     C10848   4.338   8.543  -0.950  0.3430  0.3849 -0.5564
  822MOL0     C10849   4.469   8.523  -0.876  0.7012 -0.5460  0.2740
  822MOL0     C10850   4.578   8.506  -0.985 -0.4808  0.3018 -0.1200
  822MOL0     C10851   4.714   8.480  -0.910 -0.3680  0.6811 -0.2644
  822MOL0     N10852   4.813   8.437  -1.009 -0.2279  0.5265 -0.3148
  822MOL0     C10853   4.854   8.511  -1.115 -0.6442  0.6110  1.2141
  822MOL0     C10854   4.963   8.444  -1.164 -0.1230 -0.4308  0.2785
  822MOL0     C10855   5.036   8.462  -1.298 -0.0579  0.5812  0.2917
  822MOL0     C10856   5.091   8.335  -1.367  0.4305  0.2314  0.5318
  822MOL0     C10857   5.210   8.280  -1.301 -0.8210  0.1524  0.0383
  822MOL0     C10858   5.253   8.150  -1.369  0.3326 -1.2040  0.6691
  822MOL0     O10859   5.312   8.187  -1.496  0.1656 -0.4943 -0.7545
  822MOL0     C10860   5.371   8.078  -1.554  0.2971 -0.0689  0.1766
  822MOL0     C10861   5.306   7.955  -1.574  0.2587  0.4531 -0.3585
  822MOL0     C10862   5.379   7.851  -1.637  0.9798 -1.4755 -0.1847
  822MOL0     C10863   5.508   7.868  -1.693  0.0776 -1.3606  0.1694
  822MOL0     C10864   5.584   7.751  -1.745  0.8514  0.3013 -0.1622
  822MOL0     O10865   5.712   7.765  -1.763  0.0470 -0.3332 -0.0591
  822MOL0     C10866   5.769   7.677  -1.851  0.0575  0.4972 -0.3626
  822MOL0     C10867   5.730   7.678  -1.985 -0.0738  0.8463  0.4292
  822MOL0     C10868   5.797   7.611  -2.087  0.4076  1.4550  0.2916
  822MOL0     C10869   5.913   7.531  -2.050  0.5505 -0.8216 -1.0342
  822MOL0     O10870   5.993   7.461  -2.141  0.1947  0.0011  0.6456
  822MOL0     C10871   5.960   7.489  -2.276 -0.7896  0.1752  0.5902
  822MOL0     C10872   6.082   7.440  -2.365  0.3102 -0.8614  0.4561
  822MOL0     C10873   6.196   7.552  -2.379  0.3803 -0.1067 -0.5377
  822MOL0     C10874   6.160   7.667  -2.461 -0.6336 -0.2250  0.1710
  822MOL0     C10875   6.260   7.781  -2.457 -0.9369  0.3513  0.5065
  822MOL0     C10876   6.408   7.733  -2.487 -0.1586 -0.3355  0.8732
  822MOL0     C10877   6.509   7.848  -2.497 -0.3045 -1.1226  0.3293
  822MOL0     C10878   6.656   7.817  -2.482 -0.3265  0.6479  0.7611
  822MOL0    Cl10879   6.681   7.799  -2.302  0.0928  0.4746 -0.1210
  822MOL0     C10880   5.951   7.520  -1.915 -0.1897 -0.4596 -1.3145
  822MOL0     C10881   5.882   7.596  -1.825 -0.3015 -0.5900 -0.5698
  822MOL0     O10882   5.515   7.645  -1.748 -0.1875  0.1689 -0.0444
  822MOL0     C10883   5.568   7.992  -1.679  1.1386 -0.9027  0.1257
  822MOL0     C10884   5.497   8.096  -1.619  0.6983  0.5791 -0.3574
  822MOL0     N10885   4.975   8.331  -1.088 -0.2577 -0.6030 -0.0379
  822MOL0     N10886   4.892   8.322  -0.994 -0.1935 -0.0275  0.9847
  822MOL0     C10887   4.253   8.564  -0.234  0.1295  0.8077 -0.3661
  822MOL0     C10888   4.239   8.538  -0.100  0.3320  0.1446  0.4166
  822MOL0     C10889   4.037   8.465   0.298  0.7844  1.0314  0.0478
  822MOL0     C10890   4.143   8.529   0.376  0.4279  0.4594  0.2430
  822MOL0     C10891   4.143   8.499   0.521 -0.9513 -0.3849 -0.2027
  822MOL0     C10892   4.043   8.441   0.588  0.8592 -0.1465  0.5597
  822MOL0     O10893   4.041   8.439   0.724  0.4733  0.3591 -0.7435
  822MOL0     C10894   3.944   8.520   0.789 -0.1484  0.2224 -0.4092
  822MOL0     C10895   3.975   8.536   0.938 -0.4197  0.5134 -0.7222
  822MOL0     C10896   4.115   8.548   0.991 -0.5133 -0.6751 -0.3023
  822MOL0     C10897   4.186   8.683   0.974  0.4193 -0.2520  0.3654
  822MOL0     C10898   4.156   8.764   1.090 -0.4026 -0.3193 -0.3272
  822MOL0     C10899   4.138   8.813   1.198 -1.1033 -0.3861  0.0201
  822MOL0     C10900   3.929   8.405   0.510  1.1250 -0.0204 -1.6213
  822MOL0     C10901   3.928   8.411   0.368 -0.4217 -0.3117 -0.6495
  822MOL0     C10902   3.793   8.361   0.310 -0.9038  0.2851 -0.1837
  822MOL0     H10903   3.970   8.729  -0.035  1.5032  3.5847  0.1592
  822MOL0     H10904   4.004   8.792  -0.284 -0.2415  1.2001  1.7830
  822MOL0     H10905   4.056   8.547  -0.508  1.5715 -0.4250  2.3360
  822MOL0     H10906   3.996   8.719  -0.489 -1.4674 -2.5310  1.4288
  822MOL0     H10907   4.161   8.792  -0.658 -0.7779  1.6324 -0.1687
  822MOL0     H10908   4.030   8.709  -0.722 -0.8356  1.5329  0.3929
  822MOL0     H10909   4.145   8.498  -0.752 -1.3297  0.8480 -1.2019
  822MOL0     H10910   4.295   8.566  -0.685  0.7778 -0.9977 -2.9308
  822MOL0     H10911   4.151   8.645  -0.925 -1.7323  2.4855  3.8803
  822MOL0     H10912   4.295   8.732  -0.851 -1.4675  0.4800  4.9758
  822MOL0     H10913   4.295   8.444  -0.969  3.8835 -1.2015 -1.2107
  822MOL0     H10914   4.344   8.591  -1.048  1.8120  0.7613 -0.3010
  822MOL0     H10915   4.495   8.617  -0.827  0.1483 -0.3600  0.2085
  822MOL0     H10916   4.452   8.442  -0.806 -2.2615 -0.0437  0.2561
  822MOL0     H10917   4.579   8.600  -1.041 -0.8334 -0.1723 -0.9381
  822MOL0     H10918   4.565   8.418  -1.048  3.7237 -0.1163 -0.7269
  822MOL0     H10919   4.750   8.561  -0.846 -0.9752 -0.3135  1.3908
  822MOL0     H10920   4.697   8.392  -0.846 -1.9466  0.9200 -0.3076
  822MOL0     H10921   4.800   8.593  -1.161  0.3690  1.4619  1.4963
  822MOL0     H10922   4.961   8.507  -1.364 -1.2237 -1.1718  0.3810
  822MOL0     H10923   5.112   8.540  -1.286 -1.0000  1.2283  2.4938
  822MOL0     H10924   5.009   8.267  -1.393  1.1050  0.0885 -1.3663
  822MOL0     H10925   5.141   8.368  -1.458  1.1361  0.2926  0.9411
  822MOL0     H10926   5.196   8.268  -1.193 -0.5539  2.2403  0.3397
  822MOL0     H10927   5.292   8.352  -1.309  0.6028 -1.5843 -3.3129
  822MOL0     H10928   5.165   8.087  -1.386 -2.0136  1.8852  0.3840
  822MOL0     H10929   5.335   8.105  -1.312 -0.6513 -4.4105 -0.2787
  822MOL0     H10930   5.203   7.948  -1.540 -0.7778  1.9992 -2.8224
  822MOL0     H10931   5.324   7.758  -1.627  1.2831 -1.3990  3.9156
  822MOL0     H10932   5.646   7.742  -2.011 -0.7602  0.0998  0.7663
  822MOL0     H10933   5.762   7.625  -2.189 -1.3000  1.7095  0.8916
  822MOL0     H10934   5.876   7.427  -2.306 -0.3358  0.0226 -0.4080
  822MOL0     H10935   5.948   7.597  -2.291 -1.7184  0.2002  1.4193
  822MOL0     H10936   6.113   7.342  -2.330  0.4332 -0.9406  0.1305
  822MOL0     H10937   6.057   7.416  -2.469  2.1895  0.2798 -0.3223
  822MOL0     H10938   6.219   7.570  -2.273 -0.8398  1.6934 -0.5366
  822MOL0     H10939   6.281   7.500  -2.424 -0.1784 -3.8970  2.2870
  822MOL0     H10940   6.074   7.726  -2.428  0.5960  0.6136  2.1281
  822MOL0     H10941   6.146   7.635  -2.564 -2.5585 -3.1202  1.2088
  822MOL0     H10942   6.251   7.819  -2.355  3.5708 -1.1494  1.6930
  822MOL0     H10943   6.254   7.862  -2.530  2.0648 -0.0282 -0.3119
  822MOL0     H10944   6.442   7.663  -2.411 -0.5792  2.6723  4.1090
  822MOL0     H10945   6.407   7.702  -2.592 -3.2927  0.8070  0.4579
  822MOL0     H10946   6.490   7.924  -2.421 -1.6743 -1.3510  0.2378
  822MOL0     H10947   6.500   7.893  -2.596  0.4570 -0.3530  0.5983
  822MOL0     H10948   6.677   7.727  -2.541  1.2614  3.0749 -2.7069
  822MOL0     H10949   6.713   7.899  -2.526 -3.2881  2.8537  0.6983
  822MOL0     H10950   6.030   7.452  -1.886  0.6316  1.2053  0.6207
  822MOL0     H10951   5.916   7.587  -1.723 -1.3729  2.7335  0.1997
  822MOL0     H10952   5.670   8.012  -1.712  1.5173 -1.1402  1.1137
  822MOL0     H10953   5.530   8.199  -1.613  0.2318  0.6568  1.6471
  822MOL0     H10954   4.330   8.507  -0.285 -2.3401 -1.1041 -2.2187
  822MOL0     H10955   4.309   8.475  -0.046  1.7277  2.0030  0.8728
  822MOL0     H10956   4.227   8.586   0.338 -0.8278  1.9384 -0.4101
  822MOL0     H10957   4.227   8.536   0.579 -0.3011 -2.6107  0.3943
  822MOL0     H10958   3.843   8.484   0.770  0.3348 -1.3949 -0.0616
  822MOL0     H10959   3.967   8.621   0.753 -0.3520  0.5565  0.3788
  822MOL0     H10960   3.919   8.462   0.997 -0.2552  0.4826 -0.6061
  822MOL0     H10961   3.941   8.635   0.968 -3.0684 -0.5587  0.1137
  822MOL0     H10962   4.175   8.477   0.934 -1.4803 -0.4909 -1.6030
  822MOL0     H10963   4.105   8.519   1.096 -0.1898 -3.1505 -0.9109
  822MOL0     H10964   4.294   8.665   0.971  0.1160 -2.1823 -0.6299
  822MOL0     H10965   4.163   8.736   0.881 -3.3775  0.7974  1.7227
  822MOL0     H10966   4.109   8.853   1.293  0.2129  1.5096 -0.3258
  822MOL0     H10967   3.844   8.355   0.556  0.9781  0.4318 -1.3996
  822MOL0     H10968   3.705   8.357   0.374 -0.1479  1.4714  0.9841
  822MOL0     H10969   3.768   8.416   0.218  0.4659  1.6827  0.2303
  822MOL0     H10970   3.801   8.257   0.278 -1.5033  0.8486 -2.3312
  823MOL0     O10971   9.237   7.432   6.305 -0.6938 -0.2659 -0.0128
  823MOL0     C10972   9.201   7.461   6.192  0.5998  0.3717 -0.3791
  823MOL0     O10973   9.287   7.491   6.080  0.0075  0.3327 -0.3135
  823MOL0     C10974   9.416   7.437   6.089  0.4906  0.9830  0.1155
  823MOL0     C10975   9.467   7.323   6.161 -0.0795 -0.0445 -0.2183
  823MOL0     C10976   9.594   7.285   6.155 -0.2024  0.4302  0.3895
  823MOL0     C10977   9.681   7.349   6.063  0.1006  0.0948 -0.4555
  823MOL0     O10978   9.808   7.285   6.052  0.5814 -0.4355  0.5877
  823MOL0     C10979   9.889   7.352   5.952 -0.5735 -0.4221 -0.0053
  823MOL0     C10980  10.003   7.259   5.938 -0.3435  0.3228  0.0078
  823MOL0     C10981   9.996   7.133   5.839 -0.5920  0.3423 -0.3588
  823MOL0     C10982   9.863   7.057   5.861  0.0498 -0.0041  0.4096
  823MOL0     C10983   9.875   6.967   5.983 -0.8316  1.1174 -0.2528
  823MOL0     C10984   9.760   6.875   5.992 -0.0143 -0.2418 -0.6576
  823MOL0     C10985   9.763   6.792   6.116 -1.1562  0.0752  0.3428
  823MOL0     C10986   9.629   6.716   6.124  1.3335 -0.0689 -0.6766
  823MOL0     N10987   9.613   6.622   6.241  0.3428  0.2272 -0.1906
  823MOL0     C10988   9.571   6.646   6.372  0.5357 -0.0574 -0.4240
  823MOL0     C10989   9.580   6.531   6.435 -0.5758 -0.0561  0.1576
  823MOL0     C10990   9.542   6.494   6.575 -0.2667 -0.0516 -0.1419
  823MOL0     C10991   9.662   6.514   6.672  1.2522 -0.0873  0.0730
  823MOL0     C10992   9.675   6.656   6.712  0.5097 -0.8266 -0.1100
  823MOL0     C10993   9.594   6.690   6.842 -0.2560 -0.4128  0.3690
  823MOL0     O10994   9.622   6.826   6.869 -0.7184  0.6979 -0.4894
  823MOL0     C10995   9.633   6.871   6.997 -0.0675 -0.2818  0.6777
  823MOL0     C10996   9.590   7.003   7.025 -0.9566  0.4686  0.0878
  823MOL0     C10997   9.601   7.054   7.157  0.1474  0.3138 -0.3708
  823MOL0     C10998   9.657   6.982   7.260  0.7616 -0.0331  0.3538
  823MOL0     C10999   9.671   7.044   7.394 -0.1003 -0.5253 -0.6167
  823MOL0     O11000   9.647   7.176   7.411  0.4029 -0.1768  0.5919
  823MOL0     C11001   9.623   7.226   7.537  0.2433 -0.0389 -0.1499
  823MOL0     C11002   9.506   7.184   7.614  0.0975  0.5976  0.9743
  823MOL0     C11003   9.464   7.247   7.735 -0.5626  0.0721  0.8117
  823MOL0     C11004   9.533   7.360   7.773 -1.2618 -0.5970 -0.1772
  823MOL0     O11005   9.495   7.436   7.877  0.3544 -0.4929 -0.0271
  823MOL0     C11006   9.392   7.383   7.972 -1.2162 -0.4509  0.3385
  823MOL0     C11007   9.257   7.426   7.931 -0.4196 -0.3120 -0.6651
  823MOL0     C11008   9.140   7.352   8.008 -0.7937 -1.0584  0.0119
  823MOL0     C11009   9.142   7.369   8.165  0.2391  0.1261  0.0704
  823MOL0     C11010   9.154   7.511   8.224  0.8615 -1.7649 -0.4911
  823MOL0     C11011   9.033   7.609   8.206 -0.4646  0.0605 -0.9346
  823MOL0     C11012   9.035   7.719   8.320  0.9289  0.7372 -0.1160
  823MOL0     C11013   8.902   7.790   8.310 -0.3965  0.0915  0.4868
  823MOL0    Cl11014   8.875   7.937   8.394 -0.7796  0.3580  0.0162
  823MOL0     C11015   9.651   7.400   7.707 -0.2996  1.0654  0.1683
  823MOL0     C11016   9.702   7.326   7.591 -0.2364 -1.3159 -0.2434
  823MOL0     O11017   9.698   6.967   7.487  0.4129 -0.3182  0.7920
  823MOL0     C11018   9.707   6.855   7.231  0.2785 -0.6079 -0.6315
  823MOL0     C11019   9.688   6.799   7.106 -0.5067 -1.0270 -0.0009
  823MOL0     N11020   9.638   6.442   6.341  1.0227  0.7895 -0.0444
  823MOL0     N11021   9.650   6.496   6.226  0.1840  0.4127  0.4953
  823MOL0     C11022   9.637   7.466   5.998 -0.0841 -0.4221  1.2429
  823MOL0     C11023   9.507   7.502   6.008 -0.3897  1.1987 -0.4411
  823MOL0     C11024   9.057   7.484   6.172 -0.1869  0.1944 -0.7430
  823MOL0     C11025   8.972   7.402   6.245 -0.0863 -0.8955 -0.8037
  823MOL0     C11026   8.836   7.418   6.234  0.6281 -0.4302  0.8215
  823MOL0     C11027   8.791   7.506   6.129 -0.8296 -0.5577  0.4829
  823MOL0     O11028   8.663   7.482   6.091  0.3632 -0.0274  0.0826
  823MOL0     C11029   8.581   7.602   6.083  0.0870  0.9875 -0.1970
  823MOL0     C11030   8.440   7.586   6.107  0.7437 -0.5321  1.4569
  823MOL0     C11031   8.410   7.551   6.254 -0.0292 -0.3636 -0.1619
  823MOL0     C11032   8.290   7.466   6.283 -0.0648  0.4399 -0.2878
  823MOL0     C11033   8.277   7.337   6.211  0.1550 -0.3457  0.6008
  823MOL0     C11034   8.274   7.238   6.147 -0.0925  0.2648 -0.6460
  823MOL0     C11035   8.874   7.565   6.042 -0.4400 -0.0730 -0.8795
  823MOL0     C11036   9.009   7.569   6.071 -0.0910  0.8793  0.1209
  823MOL0     C11037   9.090   7.658   5.983  0.2022  0.0512 -0.6733
  823MOL0     H11038   9.403   7.268   6.229 -2.0678  1.0642 -1.1006
  823MOL0     H11039   9.636   7.194   6.196 -1.4462 -0.6586 -0.6702
  823MOL0     H11040   9.843   7.353   5.853  0.2742 -0.1647 -0.4141
  823MOL0     H11041   9.931   7.449   5.980  1.6238 -1.7443  1.6149
  823MOL0     H11042  10.023   7.216   6.037 -1.5427 -2.9576 -1.0483
  823MOL0     H11043  10.093   7.315   5.909 -1.4239  0.4900 -3.4534
  823MOL0     H11044  10.077   7.061   5.854 -2.4929 -1.4730  1.7817
  823MOL0     H11045   9.993   7.175   5.738  0.3111  3.7600  0.9009
  823MOL0     H11046   9.771   7.113   5.881  0.1334 -0.4013  2.0301
  823MOL0     H11047   9.850   6.989   5.776  0.9644 -0.6281  0.7517
  823MOL0     H11048   9.967   6.910   5.967 -1.7986  0.3677 -4.5141
  823MOL0     H11049   9.882   7.019   6.079 -1.0208 -0.6963  0.7738
  823MOL0     H11050   9.673   6.941   5.990  0.6743  0.7057 -0.3245
  823MOL0     H11051   9.748   6.808   5.907  3.2883  0.7011 -2.0141
  823MOL0     H11052   9.782   6.863   6.198 -1.6059 -1.7603  2.1322
  823MOL0     H11053   9.844   6.719   6.111 -0.1880  1.1907 -0.9524
  823MOL0     H11054   9.544   6.786   6.129  2.2733  1.0017  2.3171
  823MOL0     H11055   9.601   6.652   6.040 -2.0166 -1.1617  1.0634
  823MOL0     H11056   9.548   6.741   6.420  0.3115 -1.2200  1.9117
  823MOL0     H11057   9.459   6.556   6.609  0.0485  1.2328 -1.6175
  823MOL0     H11058   9.511   6.389   6.566  1.7066 -0.7744  0.9348
  823MOL0     H11059   9.668   6.448   6.759  2.1493 -2.0035 -1.3610
  823MOL0     H11060   9.749   6.488   6.611 -0.0217 -3.1160 -0.6176
  823MOL0     H11061   9.626   6.718   6.636 -0.5042 -0.1680  1.0546
  823MOL0     H11062   9.776   6.691   6.734 -1.0836  2.9581  2.4323
  823MOL0     H11063   9.619   6.614   6.916  1.1775 -0.7459 -0.4266
  823MOL0     H11064   9.490   6.680   6.809 -0.6127  3.3891 -0.1454
  823MOL0     H11065   9.567   7.050   6.930  0.1357 -2.3647 -1.7280
  823MOL0     H11066   9.591   7.161   7.170  1.8342  0.6341 -1.4503
  823MOL0     H11067   9.462   7.094   7.570  0.9864  2.0114 -3.3221
  823MOL0     H11068   9.373   7.207   7.779  0.8572 -1.6384  2.3934
  823MOL0     H11069   9.389   7.277   7.997 -2.6784 -0.6947 -0.7376
  823MOL0     H11070   9.410   7.439   8.065  2.7219  0.0049 -0.5676
  823MOL0     H11071   9.245   7.533   7.949  1.8922 -0.2910  1.2118
  823MOL0     H11072   9.246   7.410   7.823  1.1640 -1.0573 -0.7525
  823MOL0     H11073   9.044   7.368   7.958 -0.4845 -2.4250 -1.0802
  823MOL0     H11074   9.160   7.246   7.988 -3.0422 -1.3946 -0.7437
  823MOL0     H11075   9.229   7.315   8.205  0.6946  0.2250 -0.7553
  823MOL0     H11076   9.050   7.326   8.204  0.0787  1.5495  1.3273
  823MOL0     H11077   9.242   7.562   8.183 -0.6209  1.0751 -0.3753
  823MOL0     H11078   9.180   7.514   8.331 -1.6616  1.4176  0.2054
  823MOL0     H11079   9.048   7.665   8.113 -0.0747 -0.0738 -0.9530
  823MOL0     H11080   8.942   7.550   8.198 -0.1624 -0.6193  0.3516
  823MOL0     H11081   9.117   7.789   8.300  2.6228 -1.7092 -2.5491
  823MOL0     H11082   9.046   7.684   8.423 -2.8144 -1.4607 -0.3134
  823MOL0     H11083   8.896   7.817   8.204  1.7479 -2.6875 -0.4539
  823MOL0     H11084   8.818   7.723   8.330  1.1850 -2.0838  0.1203
  823MOL0     H11085   9.714   7.483   7.737  2.5016 -1.1851  0.9995
  823MOL0     H11086   9.794   7.358   7.543 -1.3253  0.5764 -1.1711
  823MOL0     H11087   9.735   6.783   7.307 -2.1515 -1.3590 -0.3713
  823MOL0     H11088   9.720   6.697   7.084  1.7999 -0.1810 -0.8718
  823MOL0     H11089   9.700   7.528   5.935 -2.2406 -1.1516 -1.8413
  823MOL0     H11090   9.469   7.591   5.958  0.8964  1.6279 -0.6694
  823MOL0     H11091   8.997   7.326   6.318  2.4701 -1.3775 -2.0693
  823MOL0     H11092   8.758   7.370   6.292  1.2893 -2.7265 -0.0885
  823MOL0     H11093   8.581   7.634   5.978  0.7399  0.5622 -0.3311
  823MOL0     H11094   8.621   7.682   6.145  2.8869 -1.8649  1.9725
  823MOL0     H11095   8.393   7.516   6.037 -0.5816  1.4079  0.2952
  823MOL0     H11096   8.390   7.679   6.076 -0.6783 -2.0268 -1.1329
  823MOL0     H11097   8.412   7.646   6.308 -0.7646 -0.1742 -0.4570
  823MOL0     H11098   8.490   7.482   6.283 -1.5029 -0.9034  3.0465
  823MOL0     H11099   8.294   7.442   6.389 -1.5179 -0.7687 -0.4703
  823MOL0     H11100   8.194   7.512   6.261 -2.4613 -1.9762  3.9619
  823MOL0     H11101   8.277   7.144   6.094  0.0235  0.8050 -1.6345
  823MOL0     H11102   8.832   7.625   5.961  0.0818  0.8209 -0.5019
  823MOL0     H11103   9.018   7.716   5.924 -0.0268 -2.4325 -3.0655
  823MOL0     H11104   9.167   7.700   6.048  3.0077 -5.0618 -0.1862
  823MOL0     H11105   9.154   7.602   5.914  0.7501  0.3834 -0.4380
  824MOL0     O11106   5.553   5.538  10.704  0.4808 -0.2197  0.0444
  824MOL0     C11107   5.566   5.527  10.586  0.6424 -0.4988 -0.5563
  824MOL0     O11108   5.670   5.560  10.512 -0.9664  0.1277 -0.3979
  824MOL0     C11109   5.767   5.629  10.578 -0.5383 -0.6584  0.2919
  824MOL0     C11110   5.895   5.575  10.558 -0.8449 -0.4792  0.2118
  824MOL0     C11111   6.011   5.632  10.620  0.0466  0.4089 -0.5365
  824MOL0     C11112   5.995   5.742  10.701  0.1307 -0.0310 -0.7113
  824MOL0     O11113   6.099   5.791  10.768 -0.1423 -0.3224  0.2033
  824MOL0     C11114   6.087   5.784  10.908  0.0560 -0.5229 -1.0293
  824MOL0     C11115   6.221   5.858  10.945  0.9891  0.3525  0.3389
  824MOL0     C11116   6.227   5.874  11.090 -0.1222  0.1108  0.1059
  824MOL0     C11117   6.316   5.986  11.130  0.6774 -0.4603 -0.4381
  824MOL0     C11118   6.369   5.958  11.270 -0.3244 -0.2941 -0.7379
  824MOL0     C11119   6.415   6.077  11.336 -0.2150 -0.2512 -0.2574
  824MOL0     C11120   6.477   6.059  11.482 -0.1437 -0.7856 -0.4409
  824MOL0     C11121   6.376   6.051  11.596 -0.5082  0.1064  0.9928
  824MOL0     N11122   6.330   6.185  11.635 -1.0986 -0.2243 -0.0892
  824MOL0     C11123   6.256   6.277  11.569  0.6743 -1.0872 -0.4829
  824MOL0     C11124   6.245   6.382  11.656  0.4287  0.2850  0.6651
  824MOL0     C11125   6.168   6.513  11.624  0.2914  0.3237  0.2302
  824MOL0     C11126   6.207   6.626  11.715 -0.0564 -0.4712  0.0141
  824MOL0     C11127   6.163   6.766  11.667  0.1317  0.3226  0.8558
  824MOL0     C11128   6.007   6.770  11.653  0.5993 -0.3562 -0.2021
  824MOL0     O11129   5.956   6.703  11.538 -0.6436  0.4769  0.1982
  824MOL0     C11130   5.949   6.762  11.412  0.1228 -0.1311 -0.2451
  824MOL0     C11131   5.997   6.888  11.364  0.6093  0.5909 -0.4900
  824MOL0     C11132   5.980   6.929  11.237 -0.6392  0.4193 -0.1810
  824MOL0     C11133   5.915   6.846  11.145  0.3269  0.9293  0.7003
  824MOL0     C11134   5.896   6.874  11.007  0.5198 -0.2956 -0.6596
  824MOL0     O11135   5.959   6.988  10.961  0.0087 -0.6674 -0.2582
  824MOL0     C11136   5.917   7.033  10.840 -0.0541 -0.2564 -0.0039
  824MOL0     C11137   5.990   7.026  10.730  0.2927  0.0708 -0.0233
  824MOL0     C11138   5.944   7.070  10.609 -0.0973 -0.4793  0.3320
  824MOL0     C11139   5.814   7.127  10.599 -0.1298  0.1210 -0.3230
  824MOL0     O11140   5.765   7.161  10.471 -0.2030 -0.1762 -0.2217
  824MOL0     C11141   5.678   7.270  10.464  0.2154  0.5304  0.4131
  824MOL0     C11142   5.525   7.242  10.454 -0.8251 -0.4759 -0.1089
  824MOL0     C11143   5.461   7.380  10.453  0.2999  0.3162 -0.5227
  824MOL0     C11144   5.316   7.373  10.395  0.4245 -0.8857 -0.6621
  824MOL0     C11145   5.241   7.493  10.448  0.0232 -0.5594 -0.0983
  824MOL0     C11146   5.172   7.454  10.584 -0.5948  0.8537 -0.0930
  824MOL0     C11147   5.094   7.570  10.639 -1.0834 -0.0302  0.0127
  824MOL0     C11148   5.123   7.574  10.790  0.3557  0.0675  0.2353
  824MOL0    Cl11149   5.059   7.733  10.846 -0.5796 -0.1630  0.5413
  824MOL0     C11150   5.731   7.135  10.713 -0.5050  0.8065  0.1232
  824MOL0     C11151   5.791   7.087  10.835 -0.0982 -0.6765 -0.3449
  824MOL0     O11152   5.839   6.788  10.936 -0.2429 -0.0321  0.1322
  824MOL0     C11153   5.867   6.719  11.191  0.1062  0.1114 -0.8009
  824MOL0     C11154   5.866   6.690  11.327  0.1639  0.8395  0.6100
  824MOL0     N11155   6.317   6.354  11.775 -0.4854 -0.3780  0.5985
  824MOL0     N11156   6.359   6.236  11.761 -0.3530 -0.5205 -0.0317
  824MOL0     C11157   5.865   5.806  10.723  0.0086 -0.2102  1.2440
  824MOL0     C11158   5.758   5.749  10.655  0.7817 -0.1755  0.5958
  824MOL0     C11159   5.441   5.472  10.516 -0.6559  0.7049  0.7492
  824MOL0     C11160   5.313   5.499  10.564 -0.2452  0.0073  0.2217
  824MOL0     C11161   5.204   5.453  10.495 -0.6114  0.5811 -0.2606
  824MOL0     C11162   5.209   5.370  10.383  0.4830 -0.0242  0.7869
  824MOL0     O11163   5.108   5.318  10.300 -0.8841  0.5720 -0.7553
  824MOL0     C11164   4.974   5.350  10.343 -0.4566  0.3315 -0.1142
  824MOL0     C11165   4.899   5.234  10.278 -0.3869  0.1673  0.4776
  824MOL0     C11166   4.742   5.244  10.303  0.4259  0.0097 -0.6409
  824MOL0     C11167   4.674   5.161  10.208  0.2516 -0.2932  0.1908
  824MOL0     C11168   4.526   5.159  10.225  0.1944 -0.7732 -0.2494
  824MOL0     C11169   4.408   5.127  10.241 -0.7402  0.5485 -0.0733
  824MOL0     C11170   5.332   5.329  10.350  0.6784 -0.2299  0.3695
  824MOL0     C11171   5.455   5.378  10.402 -0.1465 -0.1513  0.2642
  824MOL0     C11172   5.580   5.335  10.343 -0.2388  0.3080 -0.4618
  824MOL0     H11173   5.912   5.489  10.495 -1.1131 -1.4716  1.4482
  824MOL0     H11174   6.108   5.585  10.609  0.5639  1.4638 -0.6170
  824MOL0     H11175   6.005   5.838  10.956  0.0026 -1.1461 -0.4090
  824MOL0     H11176   6.087   5.676  10.924 -2.6087 -1.1242 -4.0704
  824MOL0     H11177   6.223   5.955  10.896 -0.3567 -0.5238 -1.6044
  824MOL0     H11178   6.311   5.802  10.921  0.6643  1.0959 -3.0389
  824MOL0     H11179   6.261   5.776  11.126 -3.1558 -1.8017 -1.7189
  824MOL0     H11180   6.130   5.889  11.140  0.4125 -0.0713  1.2387
  824MOL0     H11181   6.404   5.977  11.065  0.6310  0.1720 -0.5930
  824MOL0     H11182   6.272   6.083  11.104  0.4430 -0.9123 -1.8248
  824MOL0     H11183   6.296   5.921  11.343  1.4858  0.3304  1.4858
  824MOL0     H11184   6.452   5.889  11.257 -1.2888 -1.4094 -1.1521
  824MOL0     H11185   6.502   6.115  11.282 -0.0021  2.5783  1.8309
  824MOL0     H11186   6.331   6.147  11.341 -0.0413  0.0116 -0.9657
  824MOL0     H11187   6.548   6.141  11.493 -0.3922 -0.8085  1.8164
  824MOL0     H11188   6.545   5.974  11.488  0.3564 -0.2862  2.6524
  824MOL0     H11189   6.292   5.990  11.561 -0.5021  0.3068  0.6183
  824MOL0     H11190   6.426   5.997  11.677 -0.1723  0.7346  1.2107
  824MOL0     H11191   6.218   6.279  11.467 -1.8425  1.6200  0.3723
  824MOL0     H11192   6.189   6.544  11.521 -4.0119 -0.1025 -0.9725
  824MOL0     H11193   6.065   6.480  11.639  0.4283 -0.2974 -0.1636
  824MOL0     H11194   6.168   6.596  11.813  3.2075 -0.8627  1.3571
  824MOL0     H11195   6.317   6.628  11.712  0.0123  0.9972 -5.1996
  824MOL0     H11196   6.214   6.786  11.572 -0.2505 -2.1926  0.0522
  824MOL0     H11197   6.204   6.831  11.744  3.4624 -2.0551  1.3200
  824MOL0     H11198   5.972   6.874  11.653  4.0247  1.0624 -3.9487
  824MOL0     H11199   5.966   6.715  11.738 -1.1723  2.1514  0.6765
  824MOL0     H11200   6.046   6.960  11.430 -3.0882  0.6427  2.5552
  824MOL0     H11201   6.018   7.028  11.214 -0.6203  0.8481  1.5455
  824MOL0     H11202   6.090   6.983  10.724 -0.1751 -1.0328 -0.2166
  824MOL0     H11203   6.005   7.060  10.520 -2.3188  0.3437 -1.3624
  824MOL0     H11204   5.693   7.333  10.552  1.4180  1.9173 -0.7024
  824MOL0     H11205   5.716   7.336  10.385  1.3583  0.3532  0.7916
  824MOL0     H11206   5.512   7.189  10.359 -1.0329 -0.8454  0.1246
  824MOL0     H11207   5.482   7.183  10.536 -3.2329  0.8844 -0.3025
  824MOL0     H11208   5.473   7.433  10.548 -0.0752 -0.0360 -0.2744
  824MOL0     H11209   5.513   7.452  10.390  1.2288 -1.8264 -2.3517
  824MOL0     H11210   5.268   7.276  10.414 -0.2863 -0.7223 -1.5731
  824MOL0     H11211   5.329   7.387  10.288  2.0521 -1.9772 -0.6535
  824MOL0     H11212   5.164   7.540  10.386 -0.8381 -0.2904  1.1377
  824MOL0     H11213   5.314   7.574  10.461 -1.6168  1.0402 -0.4797
  824MOL0     H11214   5.098   7.376  10.566  1.9387 -1.1471 -2.8752
  824MOL0     H11215   5.251   7.419  10.651  1.4546 -0.8593 -3.1472
  824MOL0     H11216   4.989   7.563  10.609 -1.1774 -0.4332  0.4359
  824MOL0     H11217   5.136   7.661  10.595  1.2200 -2.5829 -3.6636
  824MOL0     H11218   5.082   7.489  10.844  1.1449 -1.2546 -1.1551
  824MOL0     H11219   5.230   7.580  10.813 -0.3632  3.3953  3.8192
  824MOL0     H11220   5.627   7.162  10.729 -1.7776 -2.7663 -1.2841
  824MOL0     H11221   5.735   7.091  10.928  1.3017 -0.7257  0.5338
  824MOL0     H11222   5.814   6.651  11.125  4.4351 -2.5098 -1.9376
  824MOL0     H11223   5.819   6.602  11.371 -3.7122  2.5003  0.1723
  824MOL0     H11224   5.843   5.893  10.784 -3.1986 -0.8978  1.2626
  824MOL0     H11225   5.669   5.810  10.645  1.3867  0.4499 -1.3708
  824MOL0     H11226   5.306   5.557  10.655 -1.4993 -0.0443  0.1792
  824MOL0     H11227   5.113   5.491  10.541  0.9973  1.4682  2.3789
  824MOL0     H11228   4.951   5.446  10.296  3.2378 -0.1163 -3.3228
  824MOL0     H11229   4.962   5.352  10.451  3.6313  1.8526  0.4759
  824MOL0     H11230   4.944   5.142  10.317  4.1973  2.8702  2.4227
  824MOL0     H11231   4.918   5.231  10.171 -1.5871 -1.0545  0.2790
  824MOL0     H11232   4.710   5.348  10.290 -0.2632  0.0403  1.0069
  824MOL0     H11233   4.713   5.204  10.401  0.3915 -1.5368 -1.2573
  824MOL0     H11234   4.708   5.197  10.110 -1.1032  3.3392  0.9106
  824MOL0     H11235   4.708   5.058  10.222 -3.2711 -1.5949 -0.0085
  824MOL0     H11236   4.304   5.104  10.253 -0.1048 -1.6090  2.0980
  824MOL0     H11237   5.347   5.270  10.260  1.2265 -2.7798  2.0371
  824MOL0     H11238   5.592   5.377  10.242 -0.4022 -0.9409 -1.0219
  824MOL0     H11239   5.661   5.338  10.416 -1.6302 -1.4213  1.2864
  824MOL0     H11240   5.576   5.230  10.314 -2.0211 -0.3578  1.8448
  825MOL0     O11241   5.593   7.764   1.659  0.5790  0.0099  0.0124
  825MOL0     C11242   5.692   7.769   1.723  0.0744 -0.5875 -1.5389
  825MOL0     O11243   5.729   7.867   1.817 -0.5551 -0.0870 -0.5591
  825MOL0     C11244   5.638   7.972   1.824  0.1090 -0.5469 -0.5633
  825MOL0     C11245   5.526   7.977   1.910  0.2648  1.0242 -1.3859
  825MOL0     C11246   5.433   8.078   1.911  0.0889 -0.9232 -0.7725
  825MOL0     C11247   5.430   8.177   1.820 -0.1444 -0.3700 -0.2374
  825MOL0     O11248   5.341   8.278   1.813 -0.4431 -0.1927 -0.2099
  825MOL0     C11249   5.243   8.271   1.919 -1.0042  0.2551 -0.0290
  825MOL0     C11250   5.150   8.389   1.914  0.1295  0.1348 -0.0008
  825MOL0     C11251   5.055   8.378   2.020 -0.7213 -0.4012 -1.2195
  825MOL0     C11252   5.101   8.441   2.149  0.8183 -0.0670 -0.8176
  825MOL0     C11253   4.996   8.410   2.259  0.2868  0.2262  1.0137
  825MOL0     C11254   4.876   8.501   2.245  0.1817  0.3808 -0.5809
  825MOL0     C11255   4.762   8.438   2.333  0.2800 -0.6865 -1.0963
  825MOL0     C11256   4.698   8.320   2.270  0.0287  0.0798 -0.2073
  825MOL0     N11257   4.571   8.285   2.328  0.2279 -0.6540  0.6314
  825MOL0     C11258   4.501   8.165   2.336 -0.5289 -0.3446  0.4912
  825MOL0     C11259   4.365   8.186   2.356 -1.0325  0.0220 -0.4857
  825MOL0     C11260   4.246   8.097   2.363  0.8071 -0.2541  0.1446
  825MOL0     C11261   4.225   8.020   2.236  1.5254  0.0296 -0.4164
  825MOL0     C11262   4.072   7.985   2.237  0.6144 -0.1120  0.1153
  825MOL0     C11263   4.041   7.913   2.102  0.4455 -0.0674  1.1331
  825MOL0     O11264   4.066   7.778   2.112  0.2679 -0.8667 -0.0691
  825MOL0     C11265   4.138   7.723   2.011 -0.6515  0.1946 -0.5838
  825MOL0     C11266   4.282   7.701   2.020  0.1200 -0.6708  0.6895
  825MOL0     C11267   4.364   7.677   1.902  0.2286  0.1098  0.3137
  825MOL0     C11268   4.298   7.630   1.786  0.5935  1.0903 -0.4552
  825MOL0     C11269   4.382   7.574   1.667 -0.0912  0.2494  0.3146
  825MOL0     O11270   4.502   7.519   1.701 -0.2919  1.2295  0.7089
  825MOL0     C11271   4.567   7.456   1.597  0.1348  0.2275 -0.2089
  825MOL0     C11272   4.685   7.508   1.558  0.4445 -0.0737 -0.3088
  825MOL0     C11273   4.762   7.453   1.448  0.3245  0.6931 -0.1635
  825MOL0     C11274   4.722   7.354   1.377  1.0608  0.9769  0.8748
  825MOL0     O11275   4.792   7.299   1.268 -0.0249  0.8334  0.3174
  825MOL0     C11276   4.927   7.275   1.298  0.5250 -0.8194  0.0947
  825MOL0     C11277   4.977   7.220   1.178 -0.9464 -0.4639  0.6135
  825MOL0     C11278   5.020   7.339   1.075 -0.7477  0.1932  0.7872
  825MOL0     C11279   4.905   7.435   1.033 -0.4920 -0.5734  0.5245
  825MOL0     C11280   4.915   7.577   1.100 -0.5232 -0.2760  0.0576
  825MOL0     C11281   4.878   7.682   1.013 -0.5640  0.3421 -0.1693
  825MOL0     C11282   4.887   7.813   1.079  0.2050 -1.0030 -0.1091
  825MOL0     C11283   4.789   7.913   1.008  0.3214 -0.1707  1.1526
  825MOL0    Cl11284   4.820   8.075   1.068 -0.0068  0.2770  0.0172
  825MOL0     C11285   4.602   7.294   1.416 -0.0653  0.1751  1.2586
  825MOL0     C11286   4.522   7.341   1.517  0.2405 -0.3875 -0.1600
  825MOL0     O11287   4.326   7.552   1.559  0.6031 -0.8406 -0.3326
  825MOL0     C11288   4.158   7.631   1.780 -0.0438  0.3680 -0.3391
  825MOL0     C11289   4.081   7.677   1.886 -0.1676  0.2207 -0.2957
  825MOL0     N11290   4.354   8.322   2.377 -0.4436  0.6395  0.6153
  825MOL0     N11291   4.474   8.382   2.363  0.2482  0.6887  0.1504
  825MOL0     C11292   5.540   8.181   1.727 -0.6007  0.3429 -0.3007
  825MOL0     C11293   5.635   8.081   1.730 -0.7346  0.0695 -0.1413
  825MOL0     C11294   5.782   7.645   1.694 -0.3266  0.6635 -0.4128
  825MOL0     C11295   5.907   7.640   1.759  0.3602  0.6986 -0.6992
  825MOL0     C11296   5.995   7.529   1.744 -0.1449 -0.3684 -0.3435
  825MOL0     C11297   5.957   7.413   1.669  0.1445 -0.2482  0.4311
  825MOL0     O11298   6.030   7.300   1.648 -0.3715 -0.9735  0.2935
  825MOL0     C11299   6.138   7.274   1.733  0.0465 -0.0646 -0.1533
  825MOL0     C11300   6.182   7.127   1.713 -0.4105 -0.3753  0.3319
  825MOL0     C11301   6.075   7.031   1.721 -0.5207  0.3559 -0.0220
  825MOL0     C11302   6.113   6.881   1.686  0.6608 -0.2949 -0.6095
  825MOL0     C11303   6.178   6.830   1.810  0.1899 -0.3726  0.0857
  825MOL0     C11304   6.215   6.794   1.921 -0.2199 -0.6116  0.1501
  825MOL0     C11305   5.831   7.414   1.615  0.4606  0.2821  0.9475
  825MOL0     C11306   5.748   7.519   1.628  0.9397 -1.2440  0.1004
  825MOL0     C11307   5.609   7.493   1.586  1.3161 -0.2962 -0.3044
  825MOL0     H11308   5.516   7.908   1.993 -2.1763  3.8316  0.9072
  825MOL0     H11309   5.360   8.061   1.989 -0.8424  2.6540 -0.7205
  825MOL0     H11310   5.182   8.182   1.897  1.1980 -0.8114 -2.2612
  825MOL0     H11311   5.296   8.258   2.014  0.4978 -2.2945 -1.0909
  825MOL0     H11312   5.108   8.383   1.814 -1.3703 -1.6290  0.6655
  825MOL0     H11313   5.213   8.478   1.922 -0.5354  0.8864 -2.3593
  825MOL0     H11314   5.028   8.273   2.037  3.9492 -1.3330  2.4863
  825MOL0     H11315   4.969   8.439   1.989 -0.9332 -0.7516 -1.3342
  825MOL0     H11316   5.199   8.404   2.182  0.7135  0.4264  0.0605
  825MOL0     H11317   5.103   8.550   2.138 -0.6733 -0.0448 -0.9796
  825MOL0     H11318   4.975   8.302   2.259  1.4666 -0.0229 -0.3190
  825MOL0     H11319   5.032   8.415   2.362  0.2171 -3.4411  1.3500
  825MOL0     H11320   4.907   8.603   2.267 -0.9573  0.9767 -1.5976
  825MOL0     H11321   4.826   8.506   2.147 -1.9740 -1.6435  0.3145
  825MOL0     H11322   4.684   8.512   2.354  0.5204 -0.1168 -2.1351
  825MOL0     H11323   4.785   8.423   2.439 -7.6136 -1.9604  1.0172
  825MOL0     H11324   4.689   8.339   2.163 -0.3658 -2.0505 -0.5882
  825MOL0     H11325   4.759   8.233   2.299  3.0798  1.6966 -1.3148
  825MOL0     H11326   4.549   8.068   2.333  0.5464  0.0992  1.9268
  825MOL0     H11327   4.264   8.040   2.455  1.4134 -0.4457 -0.0869
  825MOL0     H11328   4.159   8.162   2.372  0.0160 -0.7100 -2.9074
  825MOL0     H11329   4.241   8.077   2.144  2.7616 -1.2616 -1.0386
  825MOL0     H11330   4.302   7.942   2.237  2.8175  1.0187  4.2248
  825MOL0     H11331   4.031   8.086   2.232  1.6032  0.2727 -0.9094
  825MOL0     H11332   4.046   7.930   2.327  0.7584  0.9447  0.8214
  825MOL0     H11333   4.091   7.959   2.016 -0.8391  1.8552  1.3432
  825MOL0     H11334   3.933   7.915   2.087  0.6530  3.2569 -0.9820
  825MOL0     H11335   4.332   7.746   2.105  1.5986 -0.6482 -0.1564
  825MOL0     H11336   4.472   7.682   1.907  0.2378 -0.9009  1.4755
  825MOL0     H11337   4.714   7.581   1.633 -1.2311  0.6414 -0.3169
  825MOL0     H11338   4.850   7.508   1.417 -1.1160  2.1034 -1.9849
  825MOL0     H11339   4.975   7.369   1.330 -0.4329  0.7979 -2.8311
  825MOL0     H11340   4.927   7.204   1.381  0.3942 -0.6936  0.2033
  825MOL0     H11341   5.068   7.165   1.204 -0.4248  0.9536  1.8936
  825MOL0     H11342   4.910   7.142   1.139 -4.1364  1.1876  2.4130
  825MOL0     H11343   5.103   7.393   1.121 -0.1905 -0.0841  0.1153
  825MOL0     H11344   5.056   7.304   0.978  1.4808 -0.0633  1.6622
  825MOL0     H11345   4.806   7.392   1.050  0.5522 -3.9707 -1.0476
  825MOL0     H11346   4.915   7.454   0.926  0.0474  1.9781  0.9588
  825MOL0     H11347   5.012   7.591   1.148 -1.5002  0.8825  1.7663
  825MOL0     H11348   4.833   7.586   1.171 -2.2123  0.3094 -1.8565
  825MOL0     H11349   4.930   7.668   0.918  3.2254 -1.0842  1.8698
  825MOL0     H11350   4.772   7.657   1.007 -0.8434  1.2912  0.5662
  825MOL0     H11351   4.990   7.845   1.062  0.3547 -2.0829 -1.4364
  825MOL0     H11352   4.862   7.816   1.185  0.0165  0.6932 -0.1810
  825MOL0     H11353   4.806   7.904   0.900 -0.4164 -2.7631  1.1767
  825MOL0     H11354   4.691   7.882   1.046 -0.6601  0.0648 -1.0423
  825MOL0     H11355   4.591   7.207   1.352  1.8730  1.0280 -0.3502
  825MOL0     H11356   4.426   7.291   1.523 -0.7325  1.4964  1.2282
  825MOL0     H11357   4.105   7.594   1.693 -0.9449 -3.5168  1.5951
  825MOL0     H11358   3.976   7.703   1.879  0.3239  3.7419  2.5615
  825MOL0     H11359   5.544   8.263   1.657 -0.1898 -0.7370 -1.6031
  825MOL0     H11360   5.708   8.069   1.651 -0.8266 -1.8833  0.0251
  825MOL0     H11361   5.941   7.712   1.833  0.7724 -0.7503  0.5893
  825MOL0     H11362   6.095   7.525   1.786  0.8151 -1.0281 -2.5501
  825MOL0     H11363   6.106   7.280   1.838 -1.9483  2.2314 -0.7976
  825MOL0     H11364   6.215   7.352   1.729 -0.8075  0.7898 -0.2994
  825MOL0     H11365   6.248   7.099   1.796 -2.1554  2.0287  2.6948
  825MOL0     H11366   6.238   7.109   1.621 -0.7567  0.6430 -0.0915
  825MOL0     H11367   5.995   7.061   1.653 -0.2660 -1.8590 -1.4207
  825MOL0     H11368   6.030   7.039   1.821  0.5672  0.1030  0.4991
  825MOL0     H11369   6.029   6.812   1.674  1.3192 -1.6722  1.8063
  825MOL0     H11370   6.170   6.882   1.593  1.2836  1.6995 -0.2366
  825MOL0     H11371   6.264   6.763   2.012 -1.1119 -0.2849  0.7506
  825MOL0     H11372   5.784   7.327   1.569 -4.6640  2.8016  0.6916
  825MOL0     H11373   5.542   7.511   1.670  3.1323 -1.9483  1.5880
  825MOL0     H11374   5.584   7.545   1.492 -1.7813  0.2274  0.6988
  825MOL0     H11375   5.596   7.387   1.561  4.8272 -1.2864  1.5267
  826MOL0     O11376   8.605   5.392   0.626  0.7807 -0.5411  0.3024
  826MOL0     C11377   8.689   5.328   0.695  0.5404  0.3790  0.6538
  826MOL0     O11378   8.794   5.264   0.641 -0.6021  0.5396 -0.0389
  826MOL0     C11379   8.809   5.250   0.501  1.1232 -1.2743  0.3952
  826MOL0     C11380   8.698   5.204   0.418  0.7662  0.0129 -1.2539
  826MOL0     C11381   8.720   5.177   0.283  1.4707 -0.6050  0.8238
  826MOL0     C11382   8.853   5.180   0.231 -0.4795 -1.6979 -0.2467
  826MOL0     O11383   8.866   5.126   0.110 -0.3082 -0.5552 -0.1594
  826MOL0     C11384   8.975   5.168   0.017 -0.0699  0.0258 -0.2020
  826MOL0     C11385   8.945   5.109  -0.123  1.0248  0.1193 -0.1576
  826MOL0     C11386   8.834   5.180  -0.194  0.1428 -0.1266  0.0629
  826MOL0     C11387   8.814   5.160  -0.356 -0.0988  0.1076  0.2464
  826MOL0     C11388   8.699   5.229  -0.426 -0.6315 -0.3316  1.0653
  826MOL0     C11389   8.723   5.377  -0.458 -0.3797 -0.3684 -0.0557
  826MOL0     C11390   8.598   5.454  -0.514 -0.5325 -1.3512 -0.1149
  826MOL0     C11391   8.642   5.583  -0.576  0.0684 -0.4305 -0.3535
  826MOL0     N11392   8.699   5.671  -0.476  0.3141  0.0395 -0.3960
  826MOL0     C11393   8.635   5.716  -0.367 -0.6279 -0.4813 -0.3676
  826MOL0     C11394   8.697   5.836  -0.349  0.0435 -0.2437  0.6223
  826MOL0     C11395   8.667   5.919  -0.228 -0.6527  0.4918  0.7280
  826MOL0     C11396   8.535   5.987  -0.244  0.4083  0.2298  0.1202
  826MOL0     C11397   8.483   6.034  -0.112  0.0098 -0.1301  0.3096
  826MOL0     C11398   8.328   6.086  -0.107 -0.4031 -0.1112 -0.1597
  826MOL0     O11399   8.301   6.121   0.030 -0.3879  0.3370  0.2904
  826MOL0     C11400   8.197   6.210   0.058 -0.0144 -0.2695 -0.3094
  826MOL0     C11401   8.193   6.247   0.200  0.2162 -0.1843  0.9621
  826MOL0     C11402   8.091   6.330   0.251  0.6052 -1.1148 -0.9898
  826MOL0     C11403   7.989   6.379   0.166 -0.1706  0.5928  0.2561
  826MOL0     C11404   7.880   6.468   0.208 -0.0996 -1.3146  0.9781
  826MOL0     O11405   7.797   6.523   0.114  0.6437 -0.0733  0.9137
  826MOL0     C11406   7.684   6.589   0.156  0.3478  0.0557  0.9615
  826MOL0     C11407   7.676   6.729   0.136 -0.1423  0.2876  0.0489
  826MOL0     C11408   7.579   6.802   0.188  0.2319 -0.5224 -1.2158
  826MOL0     C11409   7.474   6.740   0.258 -0.4570  0.4530  0.5033
  826MOL0     O11410   7.364   6.811   0.302  0.2749  0.2035  0.3535
  826MOL0     C11411   7.332   6.943   0.255  0.6032  0.6145  0.3671
  826MOL0     C11412   7.176   6.969   0.273  0.3463  0.3766  0.3650
  826MOL0     C11413   7.091   6.906   0.154 -0.1814 -0.3208  0.0081
  826MOL0     C11414   6.945   6.931   0.173 -0.4524  0.5357 -1.0678
  826MOL0     C11415   6.853   6.851   0.091  0.2757 -0.1576  0.5232
  826MOL0     C11416   6.835   6.714   0.142 -0.2736  0.0287  0.4440
  826MOL0     C11417   6.735   6.646   0.053 -0.1110 -0.0827  0.2604
  826MOL0     C11418   6.794   6.544  -0.035 -1.0542  0.4439  0.1476
  826MOL0    Cl11419   6.909   6.609  -0.154 -0.0516 -0.1216  0.0128
  826MOL0     C11420   7.488   6.597   0.277  0.4867  0.4080  0.1497
  826MOL0     C11421   7.588   6.522   0.228 -0.1352  0.0665 -0.2162
  826MOL0     O11422   7.869   6.493   0.331  0.8793  0.9243  0.0165
  826MOL0     C11423   7.997   6.332   0.029  1.2713  0.4718  0.5329
  826MOL0     C11424   8.095   6.250  -0.021 -0.1005 -0.1286  1.0371
  826MOL0     N11425   8.800   5.849  -0.437 -0.9668  0.4517  0.4001
  826MOL0     N11426   8.798   5.744  -0.509 -1.2952  0.0241 -0.9881
  826MOL0     C11427   8.958   5.223   0.309  0.2648 -0.3066 -0.0524
  826MOL0     C11428   8.932   5.257   0.442  0.6016  0.3723 -1.1563
  826MOL0     C11429   8.661   5.312   0.841  0.6911  0.0339 -0.1410
  826MOL0     C11430   8.750   5.225   0.911 -0.4778  0.6954 -0.5537
  826MOL0     C11431   8.739   5.201   1.055  0.4254 -0.2175  0.0215
  826MOL0     C11432   8.640   5.265   1.131  0.6626 -0.1827 -0.0117
  826MOL0     O11433   8.628   5.235   1.268  0.5997 -0.3592  0.8190
  826MOL0     C11434   8.511   5.294   1.334 -0.0041  0.3123 -0.9709
  826MOL0     C11435   8.528   5.447   1.353  1.4830 -0.3093 -0.5680
  826MOL0     C11436   8.584   5.498   1.487 -0.7691  0.0901  0.1357
  826MOL0     C11437   8.651   5.634   1.472  0.2062  0.5065  0.0469
  826MOL0     C11438   8.786   5.617   1.409 -0.4763  0.6295 -0.0831
  826MOL0     C11439   8.890   5.582   1.354  0.1861  0.2593 -0.0074
  826MOL0     C11440   8.551   5.343   1.063  0.0029 -0.3196  0.1530
  826MOL0     C11441   8.559   5.377   0.929 -0.0723  0.1708 -0.0886
  826MOL0     C11442   8.451   5.474   0.881  0.0134 -0.2740 -0.9868
  826MOL0     H11443   8.596   5.191   0.450  1.1045 -1.3445 -0.6832
  826MOL0     H11444   8.636   5.151   0.220  3.0905 -0.4900 -1.4885
  826MOL0     H11445   9.001   5.274   0.013 -0.5571  0.1070 -2.2281
  826MOL0     H11446   9.066   5.118   0.053 -0.7455 -4.2651 -3.5412
  826MOL0     H11447   8.921   5.003  -0.122  1.7520 -0.1063 -2.1026
  826MOL0     H11448   9.043   5.116  -0.171  0.2253 -1.1171 -2.0818
  826MOL0     H11449   8.835   5.286  -0.168 -2.1242  0.3969 -1.6495
  826MOL0     H11450   8.736   5.144  -0.163 -0.8348  2.0069 -0.3740
  826MOL0     H11451   8.910   5.184  -0.402 -1.6392  0.3407 -3.1747
  826MOL0     H11452   8.789   5.053  -0.365 -0.4455  0.0003  2.0668
  826MOL0     H11453   8.671   5.176  -0.517 -1.6662 -1.1269  1.8305
  826MOL0     H11454   8.617   5.218  -0.355 -1.8408  0.5800 -0.1434
  826MOL0     H11455   8.755   5.426  -0.365  4.3359 -0.4080 -1.3978
  826MOL0     H11456   8.804   5.400  -0.527 -1.0011  0.5460 -0.5074
  826MOL0     H11457   8.518   5.467  -0.441 -0.7470  1.8747 -0.7578
  826MOL0     H11458   8.550   5.399  -0.596  0.0731 -4.2912  1.3530
  826MOL0     H11459   8.705   5.565  -0.665  1.4131  1.9648  0.0357
  826MOL0     H11460   8.554   5.636  -0.613  1.2175  2.5499  0.8698
  826MOL0     H11461   8.553   5.673  -0.309 -2.3904  0.1224 -2.2802
  826MOL0     H11462   8.670   5.868  -0.131 -0.5852  0.3522  0.6543
  826MOL0     H11463   8.755   5.982  -0.215  0.2478 -1.0544  2.4704
  826MOL0     H11464   8.537   6.065  -0.321 -0.5390 -1.5506 -1.8187
  826MOL0     H11465   8.458   5.917  -0.279  1.6300 -0.2880 -1.6505
  826MOL0     H11466   8.546   6.120  -0.088  0.7220 -0.7358  0.6662
  826MOL0     H11467   8.492   5.952  -0.040 -4.3395 -0.0136  1.2605
  826MOL0     H11468   8.266   6.007  -0.150 -2.3570  0.8703  0.7349
  826MOL0     H11469   8.309   6.173  -0.170 -2.9861  1.4606  2.5252
  826MOL0     H11470   8.272   6.206   0.263  1.5909 -1.7570 -1.5854
  826MOL0     H11471   8.096   6.366   0.353  1.9565 -0.9947 -1.0843
  826MOL0     H11472   7.758   6.778   0.085 -3.3247  4.6442 -1.4988
  826MOL0     H11473   7.578   6.908   0.165  1.2192 -0.5240 -1.3062
  826MOL0     H11474   7.371   7.019   0.323  0.5275  2.2211 -1.3216
  826MOL0     H11475   7.362   6.951   0.150 -0.6619 -0.3930 -0.0939
  826MOL0     H11476   7.143   6.929   0.369 -0.8586 -1.8056 -0.8808
  826MOL0     H11477   7.153   7.076   0.271 -1.2023  0.0852  1.0767
  826MOL0     H11478   7.123   6.965   0.067  3.0998  0.9078  1.8720
  826MOL0     H11479   7.126   6.803   0.150 -0.2257 -0.3078 -2.6691
  826MOL0     H11480   6.920   7.037   0.167 -0.6655  0.6956  1.5394
  826MOL0     H11481   6.914   6.901   0.274 -3.5530  0.7485 -1.8682
  826MOL0     H11482   6.871   6.857  -0.017 -3.8810  0.2760 -0.3238
  826MOL0     H11483   6.756   6.902   0.097  0.1938 -0.4600  2.8432
  826MOL0     H11484   6.929   6.660   0.136 -0.9224 -1.0040 -0.7379
  826MOL0     H11485   6.804   6.724   0.247  0.3121  0.1810  0.6081
  826MOL0     H11486   6.686   6.714  -0.018  1.0007  0.0800 -0.3699
  826MOL0     H11487   6.656   6.602   0.115 -0.3345  0.7781  0.6104
  826MOL0     H11488   6.844   6.470   0.028 -1.4673 -0.6027 -0.7344
  826MOL0     H11489   6.717   6.495  -0.094 -1.4651  1.9141 -0.5894
  826MOL0     H11490   7.412   6.539   0.328 -0.5275  0.5702 -1.1202
  826MOL0     H11491   7.603   6.417   0.250 -0.3579  0.2652  0.9738
  826MOL0     H11492   7.929   6.373  -0.045 -0.9314 -0.2922  2.0444
  826MOL0     H11493   8.092   6.229  -0.128  2.6387  2.2514  0.3574
  826MOL0     H11494   9.062   5.218   0.279  0.3904 -0.3024  0.3702
  826MOL0     H11495   9.022   5.283   0.497 -0.1345  0.9135 -0.1915
  826MOL0     H11496   8.836   5.179   0.863  0.4435 -0.3996  1.9448
  826MOL0     H11497   8.799   5.121   1.098  0.4467  0.4717  1.3299
  826MOL0     H11498   8.513   5.258   1.437  2.0395 -0.0370 -1.0867
  826MOL0     H11499   8.420   5.263   1.282 -0.4716 -2.3727  1.2089
  826MOL0     H11500   8.425   5.482   1.348  2.3732  3.4373  2.2515
  826MOL0     H11501   8.573   5.505   1.272 -1.0971  0.1233 -1.7806
  826MOL0     H11502   8.655   5.426   1.528  2.2083 -0.1517 -4.7128
  826MOL0     H11503   8.498   5.512   1.553 -0.7500  0.0784  0.1629
  826MOL0     H11504   8.584   5.691   1.408  1.1047 -0.2475 -1.6506
  826MOL0     H11505   8.654   5.667   1.576 -0.6820 -1.6487  0.8178
  826MOL0     H11506   8.988   5.552   1.322  0.4782  2.2296 -1.1034
  826MOL0     H11507   8.462   5.380   1.113 -1.5818 -1.7466 -1.4708
  826MOL0     H11508   8.496   5.554   0.821 -0.1077 -1.6447 -3.0051
  826MOL0     H11509   8.381   5.427   0.812  0.5746  0.9705 -2.4748
  826MOL0     H11510   8.408   5.534   0.962 -0.5615  1.4202 -2.4757
  827MOL0     O11511   4.202   9.096   8.586 -0.4860  0.0138  0.8219
  827MOL0     C11512   4.279   9.068   8.679  0.1055 -0.3882  0.3485
  827MOL0     O11513   4.348   8.954   8.678  0.0721 -0.8689  0.4285
  827MOL0     C11514   4.433   8.927   8.570  0.1166 -0.1078  0.1855
  827MOL0     C11515   4.565   8.882   8.587  0.2138  0.6766  0.3791
  827MOL0     C11516   4.642   8.849   8.466  0.0265  0.0141 -0.4779
  827MOL0     C11517   4.590   8.875   8.343 -0.4983 -0.1736  0.2763
  827MOL0     O11518   4.643   8.834   8.223 -0.6411  0.1256  0.0371
  827MOL0     C11519   4.736   8.729   8.206  0.3202 -0.3334  0.6451
  827MOL0     C11520   4.869   8.795   8.141  1.3668 -0.2840 -0.0111
  827MOL0     C11521   4.932   8.700   8.040  0.3636 -0.7081  0.3079
  827MOL0     C11522   5.064   8.762   8.000  0.1900  0.5288 -0.3125
  827MOL0     C11523   5.183   8.709   8.070  0.2823  0.0574  0.1814
  827MOL0     C11524   5.187   8.700   8.223  0.6454  0.1224 -0.2006
  827MOL0     C11525   5.316   8.656   8.278  0.2161  1.1385 -1.0096
  827MOL0     C11526   5.306   8.664   8.434  0.0674  0.0212 -0.2458
  827MOL0     N11527   5.393   8.573   8.495  0.1256 -0.3464 -0.2138
  827MOL0     C11528   5.516   8.529   8.460  0.5739 -0.2825  0.5196
  827MOL0     C11529   5.549   8.432   8.557 -0.1565  0.3519 -0.2508
  827MOL0     C11530   5.681   8.359   8.571 -0.4232 -0.7937  0.7993
  827MOL0     C11531   5.678   8.225   8.492  0.2319 -1.1084  0.2637
  827MOL0     C11532   5.799   8.136   8.524 -0.2784 -0.1225 -0.2669
  827MOL0     C11533   5.916   8.186   8.445 -0.6556  0.3058  0.7165
  827MOL0     O11534   5.901   8.155   8.307 -0.4768 -0.2161  0.3830
  827MOL0     C11535   5.953   8.251   8.226  0.2818 -0.2865 -0.5543
  827MOL0     C11536   6.089   8.284   8.228 -0.0926  0.4011 -0.2030
  827MOL0     C11537   6.138   8.393   8.150  0.3449  0.5600 -0.2536
  827MOL0     C11538   6.050   8.443   8.048 -0.0785  0.0936 -0.1446
  827MOL0     C11539   6.107   8.530   7.946  0.3877  0.1449  0.3021
  827MOL0     O11540   6.244   8.547   7.956  0.1474  0.3418 -0.0238
  827MOL0     C11541   6.300   8.596   7.841  0.0939  0.1820 -0.2140
  827MOL0     C11542   6.315   8.507   7.734 -0.4225 -0.5698 -0.2346
  827MOL0     C11543   6.398   8.544   7.627 -1.8085  1.1372  0.2763
  827MOL0     C11544   6.461   8.670   7.617 -0.3878 -0.3127  0.1562
  827MOL0     O11545   6.533   8.694   7.507  0.7335  0.8146  0.7627
  827MOL0     C11546   6.596   8.817   7.489  0.1287  0.0570  0.5766
  827MOL0     C11547   6.674   8.813   7.359  0.9432  0.7395 -0.3956
  827MOL0     C11548   6.745   8.930   7.313  0.4447  0.7509  0.0911
  827MOL0     C11549   6.658   9.051   7.309 -0.6365  0.0913 -0.1213
  827MOL0     C11550   6.733   9.162   7.244 -0.1743 -0.3903 -0.0864
  827MOL0     C11551   6.641   9.271   7.183 -0.1390  0.5586  0.4268
  827MOL0     C11552   6.703   9.405   7.143 -0.0452  0.7440  0.3721
  827MOL0     C11553   6.777   9.484   7.248 -1.0919  0.1410 -0.8183
  827MOL0    Cl11554   6.651   9.552   7.367  0.5616  0.0991  0.0444
  827MOL0     C11555   6.438   8.754   7.722 -0.5045 -0.6137 -0.3986
  827MOL0     C11556   6.359   8.723   7.836  0.5666  0.0178 -0.4886
  827MOL0     O11557   6.033   8.576   7.853 -0.1932  0.2550 -0.3598
  827MOL0     C11558   5.915   8.402   8.040 -0.1423  0.1556  0.8297
  827MOL0     C11559   5.870   8.320   8.142 -0.0591 -0.4945  0.6157
  827MOL0     N11560   5.449   8.422   8.648 -1.0880 -0.1186  0.4047
  827MOL0     N11561   5.353   8.502   8.602 -1.4218  0.4326  0.0517
  827MOL0     C11562   4.455   8.910   8.331  0.3597 -1.0314 -0.1251
  827MOL0     C11563   4.380   8.930   8.445 -0.0361 -0.1993 -0.2862
  827MOL0     C11564   4.261   9.150   8.807 -2.0943  0.5107 -0.2438
  827MOL0     C11565   4.352   9.119   8.906 -0.0591  0.3503 -0.7051
  827MOL0     C11566   4.335   9.184   9.036 -0.6158 -0.5029  0.3963
  827MOL0     C11567   4.245   9.284   9.061  0.4191  0.3986 -0.3269
  827MOL0     O11568   4.249   9.346   9.184 -0.9454 -1.2043 -0.0653
  827MOL0     C11569   4.150   9.440   9.231  0.3393 -0.1616  0.6291
  827MOL0     C11570   4.180   9.595   9.198  0.2969 -0.6591 -0.2891
  827MOL0     C11571   4.084   9.690   9.274 -0.1038  0.0101  0.6791
  827MOL0     C11572   4.146   9.831   9.292 -0.3541 -0.2537 -0.4184
  827MOL0     C11573   4.054   9.920   9.371 -0.8623  0.4975 -0.1865
  827MOL0     C11574   3.995   9.982   9.456 -0.2186 -0.3436 -0.8757
  827MOL0     C11575   4.170   9.328   8.950 -1.2011 -0.0844 -0.2103
  827MOL0     C11576   4.168   9.257   8.833  0.1391 -0.1102 -0.1480
  827MOL0     C11577   4.053   9.291   8.739 -0.3563  0.7785 -0.3888
  827MOL0     H11578   4.598   8.854   8.686  0.4627  1.2758  0.4732
  827MOL0     H11579   4.738   8.799   8.475 -1.0074 -2.6968 -2.8097
  827MOL0     H11580   4.758   8.679   8.300  0.4141  1.0536  1.3752
  827MOL0     H11581   4.685   8.658   8.140 -1.5868  0.6190  1.0117
  827MOL0     H11582   4.941   8.810   8.223 -0.8257 -2.1558  2.4264
  827MOL0     H11583   4.853   8.891   8.091 -2.7461 -1.9733 -2.3750
  827MOL0     H11584   4.860   8.686   7.958 -0.3267  2.6043  0.2207
  827MOL0     H11585   4.943   8.599   8.081 -0.6610 -0.7002  0.6128
  827MOL0     H11586   5.076   8.744   7.893  1.2153  0.9170 -0.2765
  827MOL0     H11587   5.063   8.870   8.018 -2.3554  0.2025  2.2344
  827MOL0     H11588   5.201   8.609   8.030  1.8052  0.1817  0.5136
  827MOL0     H11589   5.269   8.771   8.044 -1.1021  1.6859 -0.7328
  827MOL0     H11590   5.171   8.804   8.254  2.2546  1.2210 -2.6849
  827MOL0     H11591   5.112   8.635   8.269 -0.7905  1.9598  0.1913
  827MOL0     H11592   5.402   8.704   8.230  0.5234  2.5085  0.7990
  827MOL0     H11593   5.325   8.548   8.262 -0.3705  1.3360 -2.8657
  827MOL0     H11594   5.318   8.769   8.464  0.3121  0.9568 -3.2494
  827MOL0     H11595   5.200   8.643   8.447 -0.4752  0.9019 -2.6314
  827MOL0     H11596   5.580   8.557   8.377  1.9083  0.9706  1.9068
  827MOL0     H11597   5.747   8.430   8.520 -1.3400 -0.9202 -0.6286
  827MOL0     H11598   5.711   8.348   8.676  3.2153 -1.7283 -0.2068
  827MOL0     H11599   5.585   8.168   8.503  1.6950 -3.4237  1.3617
  827MOL0     H11600   5.688   8.237   8.384  1.4255 -1.6346  0.3055
  827MOL0     H11601   5.783   8.029   8.507 -1.9873 -0.4061  2.4720
  827MOL0     H11602   5.827   8.150   8.629  0.6225 -0.1030 -0.5101
  827MOL0     H11603   6.012   8.135   8.459 -1.2546 -1.3249 -0.7632
  827MOL0     H11604   5.928   8.294   8.459  0.9767  0.1124  1.0832
  827MOL0     H11605   6.143   8.228   8.303 -1.4930 -2.8532 -1.4395
  827MOL0     H11606   6.243   8.423   8.148  1.8601 -3.2122  4.0137
  827MOL0     H11607   6.273   8.407   7.736  3.0455 -2.1902  0.5325
  827MOL0     H11608   6.417   8.474   7.546  2.1876  1.2410  0.8906
  827MOL0     H11609   6.515   8.888   7.474  0.3377  0.0398 -0.6914
  827MOL0     H11610   6.659   8.839   7.576 -0.0626  3.0320  0.0497
  827MOL0     H11611   6.735   8.722   7.364  1.0111  0.8461  1.7752
  827MOL0     H11612   6.607   8.773   7.283  4.4317  0.0823 -3.4064
  827MOL0     H11613   6.821   8.937   7.391  3.3112  0.0571 -2.4592
  827MOL0     H11614   6.807   8.915   7.225  0.9375  3.9116 -0.2160
  827MOL0     H11615   6.649   9.090   7.411 -0.1798 -1.0088  0.3640
  827MOL0     H11616   6.562   9.038   7.259 -0.4000 -0.7430 -0.3683
  827MOL0     H11617   6.784   9.120   7.156  0.3092 -1.0022  0.4773
  827MOL0     H11618   6.821   9.194   7.301 -0.2077 -0.9753  0.3046
  827MOL0     H11619   6.588   9.233   7.095  0.6163  0.3666  0.0461
  827MOL0     H11620   6.568   9.283   7.263  1.0910 -0.0041  1.6541
  827MOL0     H11621   6.624   9.467   7.099 -1.1688 -0.8808  0.0205
  827MOL0     H11622   6.776   9.382   7.064  0.2177 -0.8797  1.0548
  827MOL0     H11623   6.833   9.414   7.311 -1.8693  1.6448  1.6749
  827MOL0     H11624   6.849   9.563   7.225  0.8580 -1.8720 -1.9613
  827MOL0     H11625   6.493   8.847   7.736  1.6196 -2.0502  1.3987
  827MOL0     H11626   6.366   8.780   7.928  3.1875 -1.8296  0.5794
  827MOL0     H11627   5.852   8.438   7.960 -0.3097 -0.9574  0.4523
  827MOL0     H11628   5.766   8.292   8.149 -0.4389  1.1788  2.0573
  827MOL0     H11629   4.404   8.923   8.236  1.2033  0.3940 -0.4061
  827MOL0     H11630   4.273   8.947   8.445 -0.5704 -2.8998  1.4918
  827MOL0     H11631   4.426   9.039   8.900  0.3666  0.6368  0.5393
  827MOL0     H11632   4.405   9.184   9.119 -0.7254  3.1755  0.6541
  827MOL0     H11633   4.130   9.422   9.337 -4.6955  0.1015 -0.0088
  827MOL0     H11634   4.051   9.412   9.192  1.5761 -1.6175 -1.7304
  827MOL0     H11635   4.150   9.599   9.093  1.5112 -2.0134 -0.7246
  827MOL0     H11636   4.284   9.623   9.216  0.6160 -2.8287  1.7052
  827MOL0     H11637   4.056   9.641   9.368  1.9952 -0.7793  0.9358
  827MOL0     H11638   3.987   9.705   9.224 -0.6805  0.9920  2.0594
  827MOL0     H11639   4.243   9.831   9.343 -1.0555  0.7931  0.9671
  827MOL0     H11640   4.158   9.869   9.191  0.3825  1.6710  0.3475
  827MOL0     H11641   3.952  10.039   9.536 -0.0375  0.9700 -1.6961
  827MOL0     H11642   4.098   9.409   8.950 -1.5233 -0.3309 -1.8774
  827MOL0     H11643   3.998   9.204   8.702  1.0522  0.2479 -1.3041
  827MOL0     H11644   3.982   9.367   8.772 -0.3915  1.2894 -1.5922
  827MOL0     H11645   4.102   9.338   8.654 -1.7466  0.1744 -1.5562
  828MOL0     O11646   3.344   8.728   2.633  0.0665  0.6435 -0.3326
  828MOL0     C11647   3.335   8.852   2.635 -0.5562  0.1915  0.1000
  828MOL0     O11648   3.435   8.933   2.616 -0.0230 -0.0145  0.1326
  828MOL0     C11649   3.558   8.881   2.629 -0.1770  0.6593 -0.8169
  828MOL0     C11650   3.631   8.861   2.511  0.9755 -0.4896  0.0864
  828MOL0     C11651   3.764   8.829   2.516 -0.5788  0.1598  0.1543
  828MOL0     C11652   3.829   8.828   2.639  0.4374  0.9247  0.1762
  828MOL0     O11653   3.967   8.804   2.648 -0.2110  0.8006  0.4000
  828MOL0     C11654   4.002   8.666   2.624  0.6513 -1.2264 -0.1800
  828MOL0     C11655   4.158   8.668   2.629  0.0412  0.0225  1.0236
  828MOL0     C11656   4.220   8.639   2.491  0.2574  0.1651  0.8335
  828MOL0     C11657   4.222   8.776   2.400  0.0333  0.0589 -0.1004
  828MOL0     C11658   4.277   8.778   2.262 -0.0989 -0.2041  0.3204
  828MOL0     C11659   4.418   8.725   2.252  0.7867  0.1960 -0.2900
  828MOL0     C11660   4.478   8.757   2.119 -0.5647  0.2759  0.4751
  828MOL0     C11661   4.630   8.720   2.119 -0.3750 -0.2920  0.4274
  828MOL0     N11662   4.694   8.757   1.985 -0.7123 -0.6180 -0.9115
  828MOL0     C11663   4.634   8.767   1.862 -0.8971 -0.3383 -0.1498
  828MOL0     C11664   4.741   8.790   1.783  1.3130 -0.6229 -0.4599
  828MOL0     C11665   4.729   8.829   1.636  0.8931 -0.1646  0.1092
  828MOL0     C11666   4.748   8.702   1.548  0.7310  0.0571  0.6523
  828MOL0     C11667   4.887   8.634   1.560 -0.1372 -0.6381  0.3911
  828MOL0     C11668   4.879   8.528   1.662  0.6298 -0.1258  0.3514
  828MOL0     O11669   4.872   8.396   1.596 -0.4706 -0.1175 -0.2247
  828MOL0     C11670   4.980   8.324   1.546  0.6029  0.1210  0.3802
  828MOL0     C11671   5.110   8.364   1.547  0.1102  0.5988 -0.2575
  828MOL0     C11672   5.209   8.281   1.481  0.4073  0.2456  0.4901
  828MOL0     C11673   5.166   8.171   1.401 -0.7200 -0.3920 -0.3115
  828MOL0     C11674   5.260   8.089   1.327  0.6989  0.6217 -0.1099
  828MOL0     O11675   5.387   8.148   1.300 -0.3200  1.1587  0.5098
  828MOL0     C11676   5.486   8.055   1.283 -0.6661  0.5419 -0.4338
  828MOL0     C11677   5.546   8.048   1.150  0.5304  0.3815 -1.1666
  828MOL0     C11678   5.638   7.947   1.130  0.4885  0.8188  0.3080
  828MOL0     C11679   5.685   7.865   1.234  0.3583  0.1239 -0.3856
  828MOL0     O11680   5.767   7.766   1.187 -0.9451 -0.1426 -0.0208
  828MOL0     C11681   5.854   7.690   1.266 -0.1622 -0.2281 -0.9842
  828MOL0     C11682   5.917   7.577   1.175 -0.2734 -0.7872 -0.4843
  828MOL0     C11683   6.034   7.502   1.238 -0.0458 -0.2813  0.9075
  828MOL0     C11684   6.119   7.467   1.120 -0.2449 -1.3179 -0.6199
  828MOL0     C11685   6.236   7.374   1.162  0.9585 -0.8511  0.2648
  828MOL0     C11686   6.277   7.274   1.048 -0.0552  0.0442 -0.3987
  828MOL0     C11687   6.346   7.146   1.112  0.0928  0.9424  0.1899
  828MOL0     C11688   6.459   7.077   1.028  0.3848  0.2043 -0.0519
  828MOL0    Cl11689   6.375   6.982   0.899 -0.5409  0.3536  0.2620
  828MOL0     C11690   5.645   7.886   1.364  0.5124 -0.2052  0.0235
  828MOL0     C11691   5.541   7.976   1.391  0.2473  0.3855 -1.1683
  828MOL0     O11692   5.223   7.976   1.283  0.1213 -0.2723  0.3168
  828MOL0     C11693   5.032   8.137   1.413 -1.2455  0.3726 -0.5479
  828MOL0     C11694   4.937   8.211   1.480 -0.4341  0.1211 -0.5289
  828MOL0     N11695   4.864   8.787   1.855 -0.3947  0.1696  0.9754
  828MOL0     N11696   4.834   8.769   1.973  0.4643 -1.3535 -0.3554
  828MOL0     C11697   3.755   8.852   2.757 -0.2677 -0.4569  0.5675
  828MOL0     C11698   3.617   8.874   2.754  0.8899 -0.4301  0.0847
  828MOL0     C11699   3.207   8.924   2.662 -0.0100 -0.3819 -0.2389
  828MOL0     C11700   3.210   9.066   2.646  0.5099 -0.0336  0.4775
  828MOL0     C11701   3.100   9.139   2.682  0.2626  0.2306  1.6290
  828MOL0     C11702   2.982   9.079   2.728 -0.4432 -0.1025 -0.3783
  828MOL0     O11703   2.869   9.140   2.766 -0.7841  0.4379  0.3855
  828MOL0     C11704   2.842   9.276   2.735  0.8024  0.3404  0.6397
  828MOL0     C11705   2.783   9.276   2.594 -0.2844 -0.1524 -1.4203
  828MOL0     C11706   2.638   9.253   2.610  0.0325  0.1659  0.5508
  828MOL0     C11707   2.560   9.207   2.479  0.0131 -0.0186 -0.8011
  828MOL0     C11708   2.589   9.066   2.451  0.0744 -0.2302 -0.3047
  828MOL0     C11709   2.620   8.949   2.427 -0.1987  0.4540 -0.3821
  828MOL0     C11710   2.990   8.950   2.765 -0.5055  0.1726  0.7875
  828MOL0     C11711   3.095   8.864   2.730  0.2583 -0.0524  0.2464
  828MOL0     C11712   3.095   8.724   2.785  0.0064 -0.0867  0.2436
  828MOL0     H11713   3.578   8.886   2.420 -0.7362  0.3828  1.2679
  828MOL0     H11714   3.819   8.811   2.424 -0.8453  0.4495 -0.0623
  828MOL0     H11715   3.962   8.616   2.713 -2.3107  3.0803  1.2385
  828MOL0     H11716   3.973   8.629   2.525 -0.0967 -2.0177  0.3205
  828MOL0     H11717   4.187   8.589   2.698 -0.5547 -2.0307 -0.9486
  828MOL0     H11718   4.200   8.766   2.652 -0.9112  1.9874 -4.1198
  828MOL0     H11719   4.152   8.575   2.433  0.1305 -1.6998  2.9005
  828MOL0     H11720   4.317   8.589   2.489  1.5421  2.4390 -2.5354
  828MOL0     H11721   4.118   8.810   2.395 -0.6601 -1.7409  1.0446
  828MOL0     H11722   4.276   8.851   2.459 -0.6221  1.1015 -0.7940
  828MOL0     H11723   4.213   8.720   2.195  1.3102 -1.4897  0.0288
  828MOL0     H11724   4.262   8.878   2.222  2.9105  1.2806  2.4947
  828MOL0     H11725   4.474   8.775   2.332 -1.7540 -0.1330  1.8329
  828MOL0     H11726   4.418   8.618   2.277 -1.2610  0.4215  0.8689
  828MOL0     H11727   4.475   8.862   2.090 -1.1096  0.0925 -0.1460
  828MOL0     H11728   4.423   8.690   2.052  0.6704 -3.0934  2.5740
  828MOL0     H11729   4.680   8.779   2.197 -1.1086 -2.2536  2.4802
  828MOL0     H11730   4.649   8.613   2.132  0.6005 -0.3517 -1.1642
  828MOL0     H11731   4.531   8.750   1.831 -0.3806 -2.4890 -0.8338
  828MOL0     H11732   4.635   8.880   1.613  1.7521  1.2667 -0.3609
  828MOL0     H11733   4.800   8.910   1.615  0.6088 -0.2130 -1.0862
  828MOL0     H11734   4.669   8.628   1.565  1.8551 -0.9628  1.6453
  828MOL0     H11735   4.739   8.733   1.443 -0.2292 -2.1605  0.0067
  828MOL0     H11736   4.970   8.703   1.578  1.6245 -1.0548 -4.4804
  828MOL0     H11737   4.911   8.575   1.472  0.2102 -1.8929  1.3037
  828MOL0     H11738   4.796   8.542   1.732  1.1449 -1.1876  1.2165
  828MOL0     H11739   4.972   8.529   1.720  1.2145  0.5503 -0.5851
  828MOL0     H11740   5.140   8.450   1.606  4.0306 -0.4499 -0.4448
  828MOL0     H11741   5.316   8.285   1.492  0.2331  4.0720  2.5804
  828MOL0     H11742   5.523   8.109   1.063 -3.2109 -2.4476 -2.4466
  828MOL0     H11743   5.688   7.935   1.035  0.3508  0.4519  0.2839
  828MOL0     H11744   5.937   7.746   1.310 -1.6552 -0.8774  3.1301
  828MOL0     H11745   5.809   7.651   1.358  3.1701  0.9126  1.3033
  828MOL0     H11746   5.840   7.504   1.148 -1.1206  0.1245 -0.6192
  828MOL0     H11747   5.939   7.619   1.077  3.0005 -0.1281  0.4195
  828MOL0     H11748   6.100   7.566   1.297  2.6835 -1.3491 -0.7877
  828MOL0     H11749   6.003   7.420   1.304 -1.2100 -0.4485  0.1976
  828MOL0     H11750   6.143   7.550   1.052  1.1943 -1.0464  0.1866
  828MOL0     H11751   6.048   7.416   1.054 -0.8677 -0.8906 -0.2878
  828MOL0     H11752   6.211   7.328   1.258  2.1216 -1.1913  0.4150
  828MOL0     H11753   6.322   7.439   1.178 -0.6064  0.6018  4.0685
  828MOL0     H11754   6.191   7.260   0.982 -0.9481  0.0339  0.7218
  828MOL0     H11755   6.346   7.332   0.987 -0.3581 -0.3961 -1.1818
  828MOL0     H11756   6.263   7.079   1.136 -0.7632  2.3135  1.2300
  828MOL0     H11757   6.392   7.163   1.210 -2.6702 -1.0770  1.9856
  828MOL0     H11758   6.528   7.149   0.983 -1.0261  1.3661 -0.4273
  828MOL0     H11759   6.513   7.009   1.095  0.8228  1.0836  0.5020
  828MOL0     H11760   5.675   7.820   1.444  0.3160 -1.6199 -1.0195
  828MOL0     H11761   5.492   7.976   1.488  0.0142  3.8281 -1.1888
  828MOL0     H11762   5.003   8.048   1.358 -1.8813 -0.6807  1.3894
  828MOL0     H11763   4.838   8.176   1.507 -1.6896  3.6492 -0.1735
  828MOL0     H11764   3.823   8.855   2.841 -1.0707 -0.0102  1.2181
  828MOL0     H11765   3.563   8.899   2.845  3.1443 -1.3537  1.7955
  828MOL0     H11766   3.295   9.121   2.607  1.6479 -1.4427  0.9010
  828MOL0     H11767   3.104   9.247   2.673  1.7936  0.1633  1.2801
  828MOL0     H11768   2.931   9.339   2.731  1.8235 -1.0764 -0.0296
  828MOL0     H11769   2.780   9.317   2.815  1.0617  0.2657  0.8812
  828MOL0     H11770   2.831   9.204   2.527  3.4607  2.9152 -2.4171
  828MOL0     H11771   2.802   9.377   2.557  0.9478 -0.1081 -0.7207
  828MOL0     H11772   2.583   9.337   2.653 -1.2038  0.3849 -1.3396
  828MOL0     H11773   2.633   9.163   2.673 -0.8137 -1.2047 -1.3702
  828MOL0     H11774   2.451   9.220   2.485  0.2629  1.3809  3.0069
  828MOL0     H11775   2.611   9.259   2.398  1.6790 -1.0840 -0.4802
  828MOL0     H11776   2.632   8.843   2.411 -2.1719  0.1836 -0.3639
  828MOL0     H11777   2.903   8.908   2.815 -0.5745 -0.1819  0.3690
  828MOL0     H11778   3.017   8.711   2.861 -0.3877 -2.8427 -0.5331
  828MOL0     H11779   3.065   8.660   2.701 -0.4058  1.1690 -0.5970
  828MOL0     H11780   3.193   8.706   2.828 -0.1830  0.2835  0.8503
  829MOL0     O11781   3.829   5.440   0.424 -0.2762  0.0502  0.2903
  829MOL0     C11782   3.777   5.522   0.345 -0.3836 -0.3852 -0.0112
  829MOL0     O11783   3.824   5.650   0.328  0.2028  0.2431  0.6519
  829MOL0     C11784   3.902   5.702   0.429  0.6513 -0.3308 -0.5964
  829MOL0     C11785   4.046   5.730   0.431  0.3967  0.6112  0.3778
  829MOL0     C11786   4.095   5.790   0.541  0.1474 -0.5286 -0.2221
  829MOL0     C11787   4.025   5.824   0.660 -0.4974 -0.2527 -0.2024
  829MOL0     O11788   4.089   5.860   0.777  0.5286  0.5861 -0.0056
  829MOL0     C11789   4.232   5.873   0.786  0.0478 -0.1840  0.5774
  829MOL0     C11790   4.314   5.753   0.848  0.3802  0.9218  0.8388
  829MOL0     C11791   4.443   5.796   0.915 -0.0464 -0.6361 -0.5424
  829MOL0     C11792   4.495   5.699   1.023 -0.7885 -0.7430 -1.3513
  829MOL0     C11793   4.612   5.751   1.114 -0.2552 -0.8344 -0.2040
  829MOL0     C11794   4.580   5.883   1.189  0.8063 -0.0078 -0.2920
  829MOL0     C11795   4.455   5.883   1.281  0.7353 -0.5562  0.5846
  829MOL0     C11796   4.456   5.773   1.393  0.1723 -0.7461 -0.8314
  829MOL0     N11797   4.411   5.819   1.520  0.9964  1.1925  0.0846
  829MOL0     C11798   4.481   5.896   1.620 -0.0770  0.5946 -0.8566
  829MOL0     C11799   4.400   5.888   1.736  0.1306 -0.0640  1.1945
  829MOL0     C11800   4.434   5.953   1.866  0.4308 -1.2487 -0.5478
  829MOL0     C11801   4.521   5.872   1.963 -0.6275 -0.3888  0.2196
  829MOL0     C11802   4.523   5.924   2.109  0.9496  0.2868 -0.5764
  829MOL0     C11803   4.403   5.869   2.192 -0.8741 -0.9051  0.4057
  829MOL0     O11804   4.420   5.938   2.324 -0.0401  0.0892 -0.7540
  829MOL0     C11805   4.339   6.041   2.367 -0.6374 -0.2303 -0.1169
  829MOL0     C11806   4.346   6.059   2.510  0.6086  0.8580 -0.1941
  829MOL0     C11807   4.271   6.158   2.576  0.7839 -0.4143 -0.4715
  829MOL0     C11808   4.186   6.238   2.502 -0.2772  0.5849 -0.0907
  829MOL0     C11809   4.123   6.362   2.552 -1.7388 -0.3467 -0.8122
  829MOL0     O11810   4.138   6.473   2.473  0.1091 -0.2456  0.0679
  829MOL0     C11811   4.088   6.582   2.534  0.5713 -0.0410  1.1565
  829MOL0     C11812   4.182   6.673   2.589 -0.8154 -0.2585 -0.5285
  829MOL0     C11813   4.142   6.806   2.614 -0.4012 -0.1473 -0.0808
  829MOL0     C11814   4.006   6.840   2.612 -0.3965 -0.4129 -0.3145
  829MOL0     O11815   3.982   6.972   2.626  0.0799  0.1253 -0.6344
  829MOL0     C11816   3.879   7.006   2.715 -0.4111 -0.9525 -0.4103
  829MOL0     C11817   3.883   7.156   2.718 -0.2599 -1.0968 -0.2327
  829MOL0     C11818   4.023   7.203   2.768 -0.3111 -0.3381  0.1475
  829MOL0     C11819   4.039   7.350   2.785  0.1246  0.8993  0.1320
  829MOL0     C11820   4.145   7.392   2.890 -0.4551 -0.3673  0.4237
  829MOL0     C11821   4.289   7.350   2.839  0.0338  0.7350  0.9733
  829MOL0     C11822   4.410   7.400   2.922 -0.7437  0.2982 -0.1124
  829MOL0     C11823   4.398   7.382   3.073 -0.0548 -0.7245 -0.2363
  829MOL0    Cl11824   4.549   7.438   3.161  0.1852  0.2695 -0.1688
  829MOL0     C11825   3.914   6.752   2.564 -0.1520  0.1454 -0.1761
  829MOL0     C11826   3.954   6.619   2.538  0.2343  0.3963  0.2674
  829MOL0     O11827   4.059   6.352   2.654  1.1520  0.4074  0.8369
  829MOL0     C11828   4.166   6.212   2.367 -0.5891 -0.9403  0.1758
  829MOL0     C11829   4.242   6.115   2.303  0.1813  0.1552  0.5956
  829MOL0     N11830   4.280   5.833   1.697  0.6371 -1.1252  0.2625
  829MOL0     N11831   4.292   5.791   1.574  0.1370 -0.1591 -0.0874
  829MOL0     C11832   3.891   5.794   0.661  1.3525 -0.2894  0.3341
  829MOL0     C11833   3.830   5.730   0.554 -0.4492 -0.9329  0.5857
  829MOL0     C11834   3.651   5.492   0.273 -0.3413 -0.1961  0.1245
  829MOL0     C11835   3.593   5.593   0.186  1.1182  1.0214 -0.7685
  829MOL0     C11836   3.470   5.570   0.111 -1.3921 -0.1708 -1.1786
  829MOL0     C11837   3.415   5.455   0.132 -0.6514  1.1271  0.4713
  829MOL0     O11838   3.304   5.427   0.054 -0.1344 -0.1975 -0.9583
  829MOL0     C11839   3.184   5.497   0.104  0.6517  0.1181 -0.0317
  829MOL0     C11840   3.142   5.431   0.244 -0.1759 -0.3863 -0.3529
  829MOL0     C11841   3.033   5.510   0.314  0.5390  0.6501 -0.1744
  829MOL0     C11842   2.903   5.484   0.243  0.0827  0.3347  0.4575
  829MOL0     C11843   2.795   5.537   0.331 -0.2619  0.4564  0.4692
  829MOL0     C11844   2.703   5.583   0.401 -0.4808 -0.3298  1.2032
  829MOL0     C11845   3.466   5.353   0.212  0.4312  0.7989 -0.4100
  829MOL0     C11846   3.590   5.373   0.278  0.7752 -0.2338  0.1685
  829MOL0     C11847   3.638   5.250   0.349 -1.0919 -0.2569 -0.1522
  829MOL0     H11848   4.095   5.701   0.339  0.1836  0.7997  0.2034
  829MOL0     H11849   4.200   5.816   0.537  0.3617 -1.0991  1.2206
  829MOL0     H11850   4.275   5.924   0.699 -0.2031 -0.1182  0.4905
  829MOL0     H11851   4.248   5.946   0.866  0.2222 -1.0689  1.3753
  829MOL0     H11852   4.337   5.685   0.765  0.3405  1.9072 -0.0074
  829MOL0     H11853   4.243   5.712   0.921 -2.1966  4.4060  0.5757
  829MOL0     H11854   4.416   5.889   0.965 -1.6435 -2.1647  1.5948
  829MOL0     H11855   4.529   5.825   0.853  0.6648  2.9233  1.7986
  829MOL0     H11856   4.412   5.691   1.093  0.0869 -0.7659 -0.2901
  829MOL0     H11857   4.524   5.605   0.975  4.6626 -1.6247  2.6446
  829MOL0     H11858   4.647   5.681   1.190 -0.6640 -0.8294 -0.0094
  829MOL0     H11859   4.704   5.759   1.055 -0.3763 -1.1692 -0.4331
  829MOL0     H11860   4.655   5.891   1.268  1.4581  0.9128 -0.9705
  829MOL0     H11861   4.570   5.967   1.119 -0.7921  0.7277  0.7578
  829MOL0     H11862   4.369   5.871   1.214 -0.0622  0.8131  1.3276
  829MOL0     H11863   4.439   5.989   1.304 -1.6624 -0.7442  0.0361
  829MOL0     H11864   4.372   5.705   1.373 -1.1256  1.1129 -2.0159
  829MOL0     H11865   4.556   5.729   1.398 -0.3221 -1.7483  2.0084
  829MOL0     H11866   4.578   5.942   1.601 -0.2103  0.8183 -1.0167
  829MOL0     H11867   4.479   6.051   1.849 -0.1462 -1.1310 -1.4463
  829MOL0     H11868   4.342   5.971   1.921  0.7963 -0.0467 -0.2989
  829MOL0     H11869   4.506   5.764   1.955  0.0626 -0.3445 -2.3474
  829MOL0     H11870   4.623   5.890   1.929 -1.3446  6.4164  0.3030
  829MOL0     H11871   4.517   6.032   2.095  0.5990  0.1406 -1.6412
  829MOL0     H11872   4.617   5.901   2.160 -2.0631  0.7152  6.1290
  829MOL0     H11873   4.416   5.761   2.196 -0.0492 -1.0196 -2.7129
  829MOL0     H11874   4.301   5.892   2.160  0.0979  2.4810 -0.6762
  829MOL0     H11875   4.431   6.007   2.554  0.7545 -2.2947 -3.6028
  829MOL0     H11876   4.287   6.182   2.681 -2.5343 -1.8262  0.5083
  829MOL0     H11877   4.284   6.640   2.601 -0.0618  2.0050 -0.1705
  829MOL0     H11878   4.221   6.871   2.650 -0.6091 -0.1384  0.3621
  829MOL0     H11879   3.786   6.975   2.667 -0.3515 -0.9006 -0.5583
  829MOL0     H11880   3.900   6.968   2.815  1.2967 -2.3399 -1.2283
  829MOL0     H11881   3.855   7.212   2.628  0.1422 -0.1058  0.2401
  829MOL0     H11882   3.815   7.183   2.800  0.8989 -2.3831  1.2111
  829MOL0     H11883   4.043   7.160   2.867  4.7861  2.8373  0.8133
  829MOL0     H11884   4.099   7.174   2.696  0.9153  1.4901  0.6424
  829MOL0     H11885   3.948   7.398   2.823 -0.8572 -1.4491  0.9988
  829MOL0     H11886   4.063   7.402   2.692 -0.8712  1.6665  0.2824
  829MOL0     H11887   4.132   7.331   2.980  1.7994 -1.4907  0.0626
  829MOL0     H11888   4.142   7.500   2.905  2.0341  0.1621 -2.0876
  829MOL0     H11889   4.294   7.242   2.823  3.3027  1.3731 -5.5471
  829MOL0     H11890   4.308   7.389   2.739  0.9538 -0.7722  0.5357
  829MOL0     H11891   4.439   7.502   2.898  2.2778 -0.4108  0.1152
  829MOL0     H11892   4.497   7.341   2.893 -1.4046 -2.1584  2.4179
  829MOL0     H11893   4.307   7.424   3.117 -0.4639 -1.6606 -0.1518
  829MOL0     H11894   4.379   7.277   3.098 -3.0251  0.0159  1.0572
  829MOL0     H11895   3.807   6.767   2.571 -0.1871 -0.5061  0.9554
  829MOL0     H11896   3.884   6.546   2.497  0.4542 -1.0977  2.3782
  829MOL0     H11897   4.091   6.268   2.312 -0.2801  1.1386  1.7501
  829MOL0     H11898   4.221   6.099   2.197 -0.3205 -3.3654  1.0879
  829MOL0     H11899   3.840   5.833   0.749 -1.0164 -0.2879 -0.9459
  829MOL0     H11900   3.724   5.721   0.575 -0.1221  1.0454  3.9438
  829MOL0     H11901   3.648   5.686   0.180 -0.0786  1.8543  0.6606
  829MOL0     H11902   3.431   5.641   0.038  3.7564  1.7520 -2.4872
  829MOL0     H11903   3.106   5.487   0.029  2.2901  1.7478 -2.0904
  829MOL0     H11904   3.203   5.605   0.111  2.1052  0.0344 -1.8702
  829MOL0     H11905   3.236   5.437   0.300  0.5915 -2.5683 -1.3146
  829MOL0     H11906   3.117   5.327   0.225 -2.4517  0.3232 -1.5970
  829MOL0     H11907   3.056   5.617   0.317 -0.6683  0.9248 -0.3997
  829MOL0     H11908   3.038   5.481   0.420  0.5815  0.4502 -0.2295
  829MOL0     H11909   2.899   5.541   0.150 -1.8888  1.6712  1.2778
  829MOL0     H11910   2.881   5.379   0.222  0.3999 -0.2408  2.7083
  829MOL0     H11911   2.613   5.619   0.446 -0.2406  3.8719 -1.1210
  829MOL0     H11912   3.404   5.265   0.199 -3.8314  3.1990  1.5563
  829MOL0     H11913   3.640   5.261   0.458  0.8103 -2.4504  0.1092
  829MOL0     H11914   3.585   5.161   0.316 -4.1030 -0.2082  3.8505
  829MOL0     H11915   3.745   5.238   0.330 -1.1888 -3.5526  0.8191
  830MOL0     O11916  11.537   6.465   7.279 -0.6884  0.1100  0.3293
  830MOL0     C11917  11.656   6.480   7.295  0.4864 -1.1404 -0.5821
  830MOL0     O11918  11.730   6.450   7.395 -0.3909  0.0808 -1.1626
  830MOL0     C11919  11.655   6.382   7.496 -0.2749  0.9014 -0.0725
  830MOL0     C11920  11.582   6.454   7.593  1.0950  0.1174  0.3424
  830MOL0     C11921  11.521   6.384   7.695  0.7549 -0.0127 -0.0732
  830MOL0     C11922  11.558   6.247   7.713  0.3585  0.2805  0.3252
  830MOL0     O11923  11.500   6.201   7.822  0.5071  1.1450  0.2128
  830MOL0     C11924  11.561   6.239   7.947 -0.4617 -0.8691 -0.9375
  830MOL0     C11925  11.659   6.153   8.009  0.8243 -0.5300 -0.2125
  830MOL0     C11926  11.603   6.002   8.017 -0.7895 -0.1453 -0.3440
  830MOL0     C11927  11.680   5.931   8.122 -0.4794  0.5515 -0.0083
  830MOL0     C11928  11.607   5.928   8.257 -0.5010  0.0508 -0.2082
  830MOL0     C11929  11.688   5.855   8.359  0.8045 -0.8374 -0.2113
  830MOL0     C11930  11.603   5.793   8.475 -0.3561 -1.0417  0.8300
  830MOL0     C11931  11.580   5.902   8.579 -0.1427 -0.3107 -0.7987
  830MOL0     N11932  11.678   5.908   8.686 -0.2238  0.3817  0.6967
  830MOL0     C11933  11.692   5.824   8.794 -0.0414  0.1708  1.1486
  830MOL0     C11934  11.809   5.865   8.843  0.8829 -0.6179 -0.6144
  830MOL0     C11935  11.890   5.812   8.961  0.2283 -0.0175 -0.1817
  830MOL0     C11936  11.820   5.699   9.051  0.0202 -0.7371  0.6122
  830MOL0     C11937  11.899   5.651   9.165  0.3846  0.3749  0.0594
  830MOL0     C11938  12.006   5.552   9.128  0.4694  1.0175  0.1817
  830MOL0     O11939  11.949   5.421   9.144 -0.3014 -0.3220 -0.2373
  830MOL0     C11940  12.004   5.319   9.076  0.5712 -0.2487 -0.1628
  830MOL0     C11941  11.923   5.224   9.017 -0.5943  0.2984  0.0712
  830MOL0     C11942  11.978   5.121   8.942  0.2225 -0.0069  0.2779
  830MOL0     C11943  12.120   5.118   8.912  0.2724 -1.1673 -0.8702
  830MOL0     C11944  12.180   5.036   8.801  0.1586 -0.6594  0.3395
  830MOL0     O11945  12.308   5.044   8.775 -0.6221 -0.1112 -0.1972
  830MOL0     C11946  12.366   4.961   8.674  0.3520  0.1791 -0.1700
  830MOL0     C11947  12.451   4.860   8.712 -0.1612  0.3958 -0.0133
  830MOL0     C11948  12.526   4.781   8.618  0.2452 -0.5051  0.7744
  830MOL0     C11949  12.511   4.802   8.479  0.6892 -0.5017  0.7703
  830MOL0     O11950  12.567   4.717   8.393 -0.6426  1.4748  0.2830
  830MOL0     C11951  12.573   4.746   8.251  0.0272  0.3474  0.0666
  830MOL0     C11952  12.674   4.651   8.185 -0.2788  0.0684  0.0227
  830MOL0     C11953  12.711   4.705   8.042  0.7150  0.1961  0.2712
  830MOL0     C11954  12.777   4.600   7.947  0.6151 -0.2220  0.3544
  830MOL0     C11955  12.789   4.663   7.810 -0.0487 -0.2125  0.1191
  830MOL0     C11956  12.911   4.596   7.735 -0.6319 -0.0042 -0.1258
  830MOL0     C11957  12.939   4.673   7.602  0.2539  0.1099 -0.0882
  830MOL0     C11958  13.082   4.638   7.532 -0.2355 -0.1220 -0.3245
  830MOL0    Cl11959  13.071   4.724   7.389  0.4001  0.6687 -0.6569
  830MOL0     C11960  12.409   4.892   8.444 -0.1900  0.0834  0.0323
  830MOL0     C11961  12.341   4.976   8.529  0.0678 -0.6859 -0.5149
  830MOL0     O11962  12.106   4.946   8.751 -0.4230 -0.4110 -0.2817
  830MOL0     C11963  12.196   5.220   8.962 -0.2547 -0.0873  0.3724
  830MOL0     C11964  12.139   5.315   9.045 -0.7621 -0.9635  0.0737
  830MOL0     N11965  11.867   5.965   8.767  1.0435  0.3078  1.2020
  830MOL0     N11966  11.776   6.004   8.683 -0.4853 -0.1676 -0.4875
  830MOL0     C11967  11.632   6.172   7.619  0.0523 -0.1684  0.4586
  830MOL0     C11968  11.673   6.241   7.505  0.0029 -0.3439  0.3384
  830MOL0     C11969  11.738   6.540   7.188 -0.2340  0.0212  0.1442
  830MOL0     C11970  11.852   6.462   7.149  0.3334  0.0055  0.5759
  830MOL0     C11971  11.938   6.512   7.045  0.2389 -0.0605 -0.0413
  830MOL0     C11972  11.910   6.637   6.979  0.2605  0.0719 -0.1370
  830MOL0     O11973  11.992   6.693   6.887  0.1849  0.8181 -0.0779
  830MOL0     C11974  12.035   6.617   6.772 -0.0232 -0.5720 -0.8201
  830MOL0     C11975  12.129   6.706   6.673 -0.0884  0.8344  0.4404
  830MOL0     C11976  12.037   6.814   6.621  0.0578 -0.0742 -0.3060
  830MOL0     C11977  12.112   6.900   6.522 -0.5121 -0.8005  0.6720
  830MOL0     C11978  12.008   6.985   6.454  0.4227  0.2630 -0.3904
  830MOL0     C11979  11.922   7.053   6.401  0.2155 -1.3928  0.4566
  830MOL0     C11980  11.800   6.708   7.022 -0.3622 -0.5106  1.3525
  830MOL0     C11981  11.707   6.658   7.105  0.2669  0.8817  1.0209
  830MOL0     C11982  11.580   6.728   7.113 -0.0324 -0.3556 -0.1667
  830MOL0     H11983  11.561   6.560   7.578  0.4459  0.0261  0.5947
  830MOL0     H11984  11.451   6.430   7.765  0.2733 -0.9301  0.0599
  830MOL0     H11985  11.599   6.341   7.934  0.9081 -1.3448 -0.7533
  830MOL0     H11986  11.481   6.243   8.021  1.2204 -0.5522  0.9311
  830MOL0     H11987  11.687   6.179   8.112  0.0822  1.1288 -0.4157
  830MOL0     H11988  11.758   6.164   7.963  1.8433 -0.9360  1.7546
  830MOL0     H11989  11.624   5.959   7.919  2.0050 -2.3637  1.0748
  830MOL0     H11990  11.500   6.005   8.052  0.4380 -1.2995  4.1518
  830MOL0     H11991  11.705   5.832   8.084 -1.2601 -0.3876  1.8467
  830MOL0     H11992  11.776   5.982   8.131  0.6825 -1.4792 -0.4172
  830MOL0     H11993  11.579   6.032   8.278 -3.3188 -0.6140 -0.2531
  830MOL0     H11994  11.510   5.880   8.244  0.2919 -1.0636 -2.5591
  830MOL0     H11995  11.740   5.772   8.310  1.8152 -0.1922 -0.2572
  830MOL0     H11996  11.766   5.917   8.405  1.2115 -1.1288 -0.4992
  830MOL0     H11997  11.662   5.719   8.529  2.2322  0.2240 -0.0876
  830MOL0     H11998  11.512   5.747   8.436 -1.6764  1.6153  0.6044
  830MOL0     H11999  11.571   6.001   8.533 -1.6900  1.8561  3.6343
  830MOL0     H12000  11.480   5.892   8.623 -0.1503 -0.2948 -0.8111
  830MOL0     H12001  11.631   5.736   8.816  1.3657 -1.1339  0.0549
  830MOL0     H12002  11.982   5.771   8.919  1.1610  0.9896  0.7998
  830MOL0     H12003  11.928   5.891   9.026 -0.0183 -0.4487  0.5006
  830MOL0     H12004  11.740   5.754   9.102  1.5921  1.7372  0.5824
  830MOL0     H12005  11.777   5.618   8.991  0.7515 -0.7307  0.0651
  830MOL0     H12006  11.828   5.611   9.237 -1.3948 -1.2510 -2.4363
  830MOL0     H12007  11.944   5.738   9.213  0.2736  0.6789 -0.3838
  830MOL0     H12008  12.096   5.565   9.187 -2.0089 -1.9721  5.3191
  830MOL0     H12009  12.040   5.562   9.024  1.5360 -0.4174  0.3655
  830MOL0     H12010  11.818   5.220   9.044 -0.7532 -2.9920 -0.7282
  830MOL0     H12011  11.918   5.045   8.893  1.1621  0.0137 -0.9487
  830MOL0     H12012  12.458   4.841   8.818  0.6879 -1.3189 -0.3420
  830MOL0     H12013  12.607   4.718   8.655  0.1975 -1.9650 -1.4602
  830MOL0     H12014  12.471   4.734   8.213  0.4435  1.0905 -1.3312
  830MOL0     H12015  12.599   4.850   8.232  0.2739 -0.0461 -1.9333
  830MOL0     H12016  12.765   4.649   8.246  1.5052  0.1264 -2.4514
  830MOL0     H12017  12.622   4.555   8.180 -1.2452  0.4032  2.3956
  830MOL0     H12018  12.620   4.742   7.993  0.6702  0.7782  0.7732
  830MOL0     H12019  12.776   4.792   8.055  2.8380 -0.5366 -3.7848
  830MOL0     H12020  12.714   4.512   7.928 -0.2650  0.6051 -0.6448
  830MOL0     H12021  12.870   4.566   7.994 -0.6547 -0.3253  3.0252
  830MOL0     H12022  12.803   4.770   7.826 -2.9391  0.3887 -0.6303
  830MOL0     H12023  12.694   4.639   7.760  0.1857 -3.4360  1.0054
  830MOL0     H12024  13.010   4.601   7.780  1.5830  0.3344 -4.4489
  830MOL0     H12025  12.888   4.492   7.708  1.6583 -0.4489 -0.6246
  830MOL0     H12026  12.942   4.781   7.612 -0.2702  0.0494  0.9016
  830MOL0     H12027  12.849   4.664   7.539  0.1122  3.0647 -0.4275
  830MOL0     H12028  13.169   4.671   7.590 -1.1887  1.6657  0.1456
  830MOL0     H12029  13.084   4.531   7.512  0.4959 -0.0952 -0.4400
  830MOL0     H12030  12.373   4.902   8.342  0.7299  3.5347 -0.0580
  830MOL0     H12031  12.282   5.059   8.490  0.3588  0.8206  2.0231
  830MOL0     H12032  12.301   5.228   8.936 -0.2291 -0.1104  0.4660
  830MOL0     H12033  12.207   5.389   9.084 -0.6837 -0.3954 -1.0858
  830MOL0     H12034  11.637   6.064   7.633 -2.2543 -0.1536  1.7364
  830MOL0     H12035  11.742   6.194   7.435  2.7118  0.2809  2.4281
  830MOL0     H12036  11.878   6.366   7.192  2.1348  0.2949  0.2144
  830MOL0     H12037  12.028   6.459   7.017  0.4686  1.1418 -1.7071
  830MOL0     H12038  11.951   6.562   6.730  1.0481 -2.0275 -1.1474
  830MOL0     H12039  12.090   6.538   6.825 -0.0871 -1.0481 -1.4454
  830MOL0     H12040  12.165   6.649   6.587 -0.2408 -0.7878  1.4080
  830MOL0     H12041  12.213   6.756   6.721  0.8820  0.4880 -0.8515
  830MOL0     H12042  12.012   6.883   6.703  3.2078 -3.3561  3.9178
  830MOL0     H12043  11.960   6.761   6.564  3.2869 -2.1616 -3.1214
  830MOL0     H12044  12.178   6.973   6.569  1.0451 -2.1824  0.7279
  830MOL0     H12045  12.180   6.852   6.451  0.3197 -1.4490  1.8678
  830MOL0     H12046  11.848   7.105   6.344 -0.9694 -1.3862  1.9252
  830MOL0     H12047  11.775   6.796   6.963  1.9073 -0.3397  0.5652
  830MOL0     H12048  11.583   6.794   7.201  2.1109 -1.0804  0.3636
  830MOL0     H12049  11.560   6.794   7.029 -1.4495 -0.2764  0.2130
  830MOL0     H12050  11.495   6.660   7.118 -0.7262  0.4248 -0.8829
  831MOL0     O12051   6.149   8.388   8.522 -0.9116 -0.5585  0.6543
  831MOL0     C12052   6.161   8.498   8.561  0.7877 -0.2992 -0.0060
  831MOL0     O12053   6.268   8.576   8.542 -0.0841  0.2015  0.8152
  831MOL0     C12054   6.363   8.536   8.447  0.2795 -0.2100 -0.4502
  831MOL0     C12055   6.466   8.441   8.467 -0.2092 -0.5003  0.1826
  831MOL0     C12056   6.570   8.429   8.371 -1.0102  0.1706  0.4893
  831MOL0     C12057   6.558   8.477   8.246  1.2241 -0.6226 -0.0911
  831MOL0     O12058   6.670   8.476   8.166  0.5758  0.5280 -0.1987
  831MOL0     C12059   6.705   8.339   8.115  0.1228  0.1833  0.1798
  831MOL0     C12060   6.635   8.312   7.973 -0.0672  0.5597 -0.0006
  831MOL0     C12061   6.496   8.250   8.000 -0.1382  0.2449 -0.0691
  831MOL0     C12062   6.481   8.091   8.000  0.1148 -0.9039 -0.0237
  831MOL0     C12063   6.335   8.055   8.012  0.0143 -0.2933 -0.1636
  831MOL0     C12064   6.311   7.913   8.040  0.0678  0.5176 -0.3032
  831MOL0     C12065   6.163   7.886   8.049  0.3052  0.3807 -0.0172
  831MOL0     C12066   6.138   7.755   8.128  0.0645 -0.8870  0.0513
  831MOL0     N12067   6.104   7.786   8.268 -0.9785 -0.6067 -0.4388
  831MOL0     C12068   6.181   7.868   8.356  0.2883  0.4958  0.2081
  831MOL0     C12069   6.125   7.860   8.480  0.0518  0.2592  0.3042
  831MOL0     C12070   6.177   7.924   8.602 -0.3032  0.0654 -0.0863
  831MOL0     C12071   6.193   7.829   8.717 -0.4705  0.3503  0.3472
  831MOL0     C12072   6.312   7.733   8.680 -0.0456  0.1024  0.6473
  831MOL0     C12073   6.442   7.813   8.684 -0.3935 -0.2450  0.3445
  831MOL0     O12074   6.490   7.836   8.549  0.0567 -0.2116  0.6075
  831MOL0     C12075   6.594   7.926   8.542  0.8487  0.1404 -1.1567
  831MOL0     C12076   6.565   8.061   8.545  0.3691  0.1802  0.3073
  831MOL0     C12077   6.680   8.147   8.525  0.1513  1.0309  0.2339
  831MOL0     C12078   6.813   8.102   8.506  0.0528  0.5425  0.2487
  831MOL0     C12079   6.926   8.197   8.475  0.2370 -0.4242 -0.5030
  831MOL0     O12080   7.031   8.150   8.402 -0.0715 -0.1235 -0.2585
  831MOL0     C12081   7.126   8.231   8.346 -0.5360  0.7596 -0.0216
  831MOL0     C12082   7.246   8.160   8.303 -0.2523  0.7780 -0.5456
  831MOL0     C12083   7.347   8.226   8.246 -0.4185 -0.5972  1.0811
  831MOL0     C12084   7.332   8.360   8.229  1.0647 -0.2465 -0.2606
  831MOL0     O12085   7.435   8.428   8.165  0.6295 -0.2622 -0.5095
  831MOL0     C12086   7.507   8.382   8.051  0.2959 -0.3631  0.4053
  831MOL0     C12087   7.653   8.372   8.093 -0.2725  0.2336  0.4908
  831MOL0     C12088   7.743   8.354   7.974 -0.1693  0.0758 -0.5529
  831MOL0     C12089   7.866   8.279   8.010  0.1624 -0.2066 -0.7219
  831MOL0     C12090   7.959   8.265   7.889 -0.4549 -0.4447  0.2850
  831MOL0     C12091   8.044   8.139   7.879 -0.0901 -0.5742  0.0656
  831MOL0     C12092   8.123   8.130   7.741 -0.0226 -1.0651  0.3330
  831MOL0     C12093   8.201   8.002   7.725 -0.0712  0.7083 -1.7365
  831MOL0    Cl12094   8.310   8.028   7.591  0.5542  0.1908  0.3945
  831MOL0     C12095   7.212   8.427   8.246  0.7810  0.4039 -0.6840
  831MOL0     C12096   7.108   8.367   8.301  0.2160 -0.5761 -0.3785
  831MOL0     O12097   6.904   8.321   8.494  0.5966 -0.2052 -0.8927
  831MOL0     C12098   6.823   7.960   8.505 -1.1023  0.1651  0.1779
  831MOL0     C12099   6.724   7.874   8.531 -0.1279  0.6481  0.1531
  831MOL0     N12100   6.007   7.788   8.466  0.9267  0.7304  0.2109
  831MOL0     N12101   6.000   7.732   8.341  0.4939  0.5860 -0.1606
  831MOL0     C12102   6.454   8.563   8.217  0.7469  0.0457 -0.6755
  831MOL0     C12103   6.361   8.600   8.322  0.3401 -0.4676  0.0250
  831MOL0     C12104   6.049   8.567   8.628 -0.0206 -0.5475 -0.7049
  831MOL0     C12105   5.991   8.677   8.566 -0.3808 -0.2448  0.4409
  831MOL0     C12106   5.887   8.741   8.629  1.0930 -0.0856 -0.7557
  831MOL0     C12107   5.835   8.697   8.751 -0.6645  0.1153 -0.0151
  831MOL0     O12108   5.722   8.749   8.813 -0.4408 -0.1368  0.0613
  831MOL0     C12109   5.609   8.775   8.730  0.6539  0.1202  0.5601
  831MOL0     C12110   5.574   8.922   8.739  0.2772  0.5390  0.4769
  831MOL0     C12111   5.455   8.949   8.636 -0.4300 -0.6465 -0.2164
  831MOL0     C12112   5.415   9.098   8.618 -0.1826 -0.7293  1.2678
  831MOL0     C12113   5.377   9.172   8.738 -0.1436 -0.5828 -0.3185
  831MOL0     C12114   5.357   9.235   8.845  0.8408 -0.5348  0.4541
  831MOL0     C12115   5.891   8.592   8.813 -0.7284  0.2335 -0.2973
  831MOL0     C12116   5.995   8.524   8.746 -0.4844  0.7178 -0.2190
  831MOL0     C12117   6.039   8.397   8.803 -0.6535  0.0545 -0.0339
  831MOL0     H12118   6.473   8.386   8.560 -1.0169  1.5679  1.5400
  831MOL0     H12119   6.666   8.381   8.388 -0.0865  1.1413 -1.6552
  831MOL0     H12120   6.811   8.333   8.087 -0.2493  0.9466 -1.6051
  831MOL0     H12121   6.680   8.254   8.179  1.0119  1.1128  1.8031
  831MOL0     H12122   6.706   8.250   7.918  1.2066  0.6214  1.5040
  831MOL0     H12123   6.645   8.405   7.916  2.1277  0.9629  0.9376
  831MOL0     H12124   6.431   8.296   7.925  0.2830  0.1602 -0.4881
  831MOL0     H12125   6.457   8.280   8.098 -0.6059  1.1347 -0.5251
  831MOL0     H12126   6.515   8.055   7.902  1.0167 -3.2113  1.0570
  831MOL0     H12127   6.557   8.055   8.070 -0.6105 -1.3181  0.5600
  831MOL0     H12128   6.289   8.115   8.092 -1.2823 -0.7493 -0.5360
  831MOL0     H12129   6.291   8.073   7.914  2.8334  0.5578 -1.3542
  831MOL0     H12130   6.357   7.840   7.973 -0.5807 -0.1028 -0.0906
  831MOL0     H12131   6.346   7.904   8.144 -0.0517  0.8691 -0.2324
  831MOL0     H12132   6.126   7.879   7.946  3.7543 -3.7767 -1.2596
  831MOL0     H12133   6.117   7.974   8.095 -2.5433 -0.4911 -1.0105
  831MOL0     H12134   6.064   7.698   8.071  0.2754 -0.3409 -0.7819
  831MOL0     H12135   6.225   7.688   8.128  1.2486  0.4990  2.7582
  831MOL0     H12136   6.271   7.924   8.333 -0.5006  0.7910 -2.6562
  831MOL0     H12137   6.266   7.985   8.583  0.7952 -1.7635 -1.1362
  831MOL0     H12138   6.102   7.995   8.639 -0.5282  1.5504 -3.0903
  831MOL0     H12139   6.207   7.892   8.805 -0.6958  0.2798  0.4332
  831MOL0     H12140   6.096   7.785   8.740 -0.9023  1.6138  1.0442
  831MOL0     H12141   6.286   7.694   8.581 -2.4203  3.8860 -0.4320
  831MOL0     H12142   6.319   7.653   8.754 -2.3762  0.5817  1.4473
  831MOL0     H12143   6.515   7.762   8.748 -0.7070 -0.2526  0.6982
  831MOL0     H12144   6.413   7.908   8.731 -3.5362 -0.2165 -1.3941
  831MOL0     H12145   6.463   8.097   8.550  0.5745  1.4584 -2.6300
  831MOL0     H12146   6.666   8.254   8.539 -1.5720  0.6322  2.1447
  831MOL0     H12147   7.256   8.052   8.311  0.0014  0.8781  0.6181
  831MOL0     H12148   7.440   8.177   8.219 -1.2295 -2.1393  0.9716
  831MOL0     H12149   7.477   8.280   8.025  3.1909 -1.4552  0.9602
  831MOL0     H12150   7.506   8.452   7.967 -0.0597 -1.9866 -0.9910
  831MOL0     H12151   7.682   8.462   8.148 -0.8694  0.9783 -0.3714
  831MOL0     H12152   7.657   8.284   8.157  0.3385 -1.3628 -1.6334
  831MOL0     H12153   7.691   8.295   7.898  1.3027 -0.3437 -1.2742
  831MOL0     H12154   7.760   8.444   7.915 -3.1733 -0.5961 -2.7314
  831MOL0     H12155   7.838   8.178   8.042 -2.1939  1.0998  1.6881
  831MOL0     H12156   7.915   8.327   8.095  0.3144 -0.4670 -0.6605
  831MOL0     H12157   8.016   8.358   7.883  1.7969 -1.7686 -0.2329
  831MOL0     H12158   7.899   8.266   7.797 -1.5654 -0.8257  0.9837
  831MOL0     H12159   8.110   8.133   7.966  0.0456 -0.4482 -0.0262
  831MOL0     H12160   7.991   8.044   7.868  0.1926 -0.4226 -5.1361
  831MOL0     H12161   8.188   8.217   7.729 -0.3457 -0.2573  3.4898
  831MOL0     H12162   8.051   8.135   7.659 -0.0903  2.0752  0.4770
  831MOL0     H12163   8.266   7.985   7.812 -0.1187 -1.5928 -2.1003
  831MOL0     H12164   8.132   7.919   7.707 -0.2746  1.1217 -2.9447
  831MOL0     H12165   7.197   8.530   8.216 -0.5934 -0.0292 -1.6198
  831MOL0     H12166   7.011   8.414   8.311 -0.0898 -1.4722  1.2337
  831MOL0     H12167   6.907   7.903   8.467 -0.9444  1.0409 -0.8610
  831MOL0     H12168   6.745   7.767   8.527  0.7381  0.7347  1.5534
  831MOL0     H12169   6.453   8.627   8.129 -2.4534  3.2098  1.3971
  831MOL0     H12170   6.287   8.680   8.313  0.4399 -0.2182  1.2493
  831MOL0     H12171   6.028   8.715   8.472 -1.7445  0.3334  0.1064
  831MOL0     H12172   5.832   8.826   8.589 -0.0465 -1.2829 -1.8447
  831MOL0     H12173   5.522   8.725   8.774 -0.0730 -0.9603 -1.9323
  831MOL0     H12174   5.617   8.739   8.628 -3.4982 -0.1127  0.1411
  831MOL0     H12175   5.667   8.965   8.699 -0.5189  0.2292 -1.8767
  831MOL0     H12176   5.550   8.958   8.839  3.1715  2.0470  0.7369
  831MOL0     H12177   5.375   8.882   8.668 -0.7090 -0.7733 -1.1550
  831MOL0     H12178   5.479   8.916   8.535 -0.0617  0.8209 -0.6429
  831MOL0     H12179   5.501   9.152   8.577 -1.8651  0.7801 -0.4812
  831MOL0     H12180   5.335   9.105   8.543  1.5670 -3.5614 -1.0772
  831MOL0     H12181   5.328   9.294   8.930  1.0360  1.4739 -0.8022
  831MOL0     H12182   5.856   8.560   8.911 -0.4837 -1.9561 -0.8644
  831MOL0     H12183   5.967   8.323   8.767 -2.1303  0.4642  1.8829
  831MOL0     H12184   6.146   8.387   8.781 -0.5721 -0.6731  0.6383
  831MOL0     H12185   6.036   8.385   8.912  1.5110  0.7273  0.1676
  832MOL0     O12186   0.352   8.522   4.908  0.0152 -0.6781 -0.8335
  832MOL0     C12187   0.339   8.413   4.858  0.5362  0.7111  0.3207
  832MOL0     O12188   0.234   8.332   4.878  0.0645 -0.0963 -0.7310
  832MOL0     C12189   0.145   8.358   4.981 -0.0201  0.1822  0.2684
  832MOL0     C12190   0.179   8.410   5.110  0.9750  0.4825 -0.7519
  832MOL0     C12191   0.073   8.416   5.208 -1.1950 -0.9777  1.5105
  832MOL0     C12192  -0.057   8.376   5.176  0.8978  0.0400 -0.1002
  832MOL0     O12193  -0.146   8.391   5.277 -0.8136 -0.5148 -0.3997
  832MOL0     C12194  -0.270   8.306   5.284  0.1794  0.3907 -0.2516
  832MOL0     C12195  -0.286   8.276   5.434  0.5237 -0.0998 -0.1526
  832MOL0     C12196  -0.428   8.218   5.484  0.3535  1.1495  0.0560
  832MOL0     C12197  -0.397   8.090   5.560  0.5710  0.3939  1.1196
  832MOL0     C12198  -0.525   8.033   5.632  0.3421  0.4932 -0.3927
  832MOL0     C12199  -0.474   7.939   5.745  0.7930  1.1524  0.5740
  832MOL0     C12200  -0.594   7.872   5.807  1.1834  0.0502  0.1101
  832MOL0     C12201  -0.536   7.776   5.912  0.3376 -0.6971  0.5604
  832MOL0     N12202  -0.633   7.696   5.993  0.4506 -0.2769  0.0964
  832MOL0     C12203  -0.653   7.709   6.125  0.8369  0.3176  0.2322
  832MOL0     C12204  -0.731   7.609   6.159  1.2209  0.2848 -0.0787
  832MOL0     C12205  -0.778   7.575   6.304 -0.1515  0.7955  0.0952
  832MOL0     C12206  -0.711   7.649   6.420 -0.9888 -0.2532  0.4914
  832MOL0     C12207  -0.765   7.616   6.563 -0.1554 -0.5409  0.0623
  832MOL0     C12208  -0.653   7.668   6.649  0.1875  0.5620  0.1258
  832MOL0     O12209  -0.665   7.622   6.784  0.3211 -0.4906 -0.0592
  832MOL0     C12210  -0.750   7.693   6.868 -0.4519  0.1507 -0.4699
  832MOL0     C12211  -0.819   7.815   6.843  0.6716  0.0101  0.8032
  832MOL0     C12212  -0.917   7.862   6.925 -0.0264  0.1424  0.3215
  832MOL0     C12213  -0.927   7.819   7.061 -0.6473  0.3281  0.2071
  832MOL0     C12214  -1.017   7.896   7.151 -0.8358 -1.3079 -0.0483
  832MOL0     O12215  -1.090   8.004   7.103 -0.5092  0.3318  0.1753
  832MOL0     C12216  -1.159   8.093   7.184  0.0631  0.2382  0.3589
  832MOL0     C12217  -1.255   8.045   7.277  0.7917  1.0293  0.5955
  832MOL0     C12218  -1.325   8.130   7.354  0.3776 -0.4879  0.8361
  832MOL0     C12219  -1.307   8.276   7.336 -0.6757 -0.7224  0.2118
  832MOL0     O12220  -1.388   8.372   7.401  0.6096  0.9546  0.3512
  832MOL0     C12221  -1.528   8.383   7.360  0.2384  0.0638  0.0645
  832MOL0     C12222  -1.610   8.388   7.492 -0.6594  0.7885  0.6630
  832MOL0     C12223  -1.759   8.419   7.475  0.5524  0.3635  0.3023
  832MOL0     C12224  -1.843   8.391   7.588  0.4125 -0.1586  0.3410
  832MOL0     C12225  -1.796   8.467   7.715  0.0814 -0.7312  0.8830
  832MOL0     C12226  -1.770   8.616   7.685  0.8746  0.6187 -0.4945
  832MOL0     C12227  -1.753   8.696   7.819 -0.3556 -0.5715  0.9674
  832MOL0     C12228  -1.861   8.676   7.922 -0.8013  0.3123  0.3491
  832MOL0    Cl12229  -2.024   8.704   7.852  0.2145 -0.2079  0.2501
  832MOL0     C12230  -1.223   8.328   7.236 -0.6973  0.3672 -0.6741
  832MOL0     C12231  -1.143   8.231   7.168  1.1863  0.3233  0.2535
  832MOL0     O12232  -1.011   7.859   7.263  0.9202  0.2408 -0.3097
  832MOL0     C12233  -0.859   7.701   7.091 -0.0671  0.3081 -1.2609
  832MOL0     C12234  -0.778   7.643   6.994  0.1897  0.1541  0.3178
  832MOL0     N12235  -0.759   7.535   6.048 -0.6211  0.2226 -0.1223
  832MOL0     N12236  -0.693   7.584   5.945  0.6803 -0.0931  1.0864
  832MOL0     C12237  -0.091   8.324   5.052 -0.5120  0.3396  0.7466
  832MOL0     C12238   0.011   8.323   4.954 -0.0779  0.3501 -0.6963
  832MOL0     C12239   0.442   8.361   4.765  1.3490 -1.1637 -0.3116
  832MOL0     C12240   0.452   8.227   4.761  0.6362 -0.1682  0.0773
  832MOL0     C12241   0.531   8.158   4.668 -0.1790 -0.6589  0.0101
  832MOL0     C12242   0.607   8.233   4.574 -0.7117  0.0364  0.0249
  832MOL0     O12243   0.693   8.184   4.487 -0.4089  0.3826  0.7508
  832MOL0     C12244   0.731   8.048   4.486  0.3125 -1.6924  0.0606
  832MOL0     C12245   0.829   8.017   4.371  0.3357  0.3908  0.5169
  832MOL0     C12246   0.904   7.887   4.403 -0.3981 -0.9293  0.0656
  832MOL0     C12247   0.811   7.774   4.433 -0.5662  0.5986  0.8313
  832MOL0     C12248   0.728   7.738   4.317  0.1911 -0.4459 -0.2280
  832MOL0     C12249   0.675   7.716   4.217  1.0185  0.7075  0.6349
  832MOL0     C12250   0.607   8.375   4.588  0.0897  0.2953 -0.0705
  832MOL0     C12251   0.531   8.440   4.686  0.5606 -0.1574 -0.5488
  832MOL0     C12252   0.555   8.590   4.704 -0.0170 -0.6598  0.5834
  832MOL0     H12253   0.281   8.416   5.146  0.0338 -1.4863  2.7206
  832MOL0     H12254   0.097   8.453   5.307  1.4147 -0.8187  0.8908
  832MOL0     H12255  -0.357   8.365   5.253 -1.0852 -0.9240  0.6718
  832MOL0     H12256  -0.275   8.207   5.236 -2.0732 -1.5212  3.4447
  832MOL0     H12257  -0.278   8.374   5.483 -1.1169 -0.5309  1.0682
  832MOL0     H12258  -0.200   8.222   5.474 -0.6053  0.9726  4.1910
  832MOL0     H12259  -0.504   8.196   5.409  2.4880 -0.9592 -1.6490
  832MOL0     H12260  -0.471   8.295   5.549  1.2359 -0.2086  2.3620
  832MOL0     H12261  -0.362   8.014   5.490  1.9468  0.7451  1.4069
  832MOL0     H12262  -0.315   8.106   5.630  2.0804 -0.1983 -0.4544
  832MOL0     H12263  -0.577   8.107   5.694 -1.8686 -4.4907  4.5398
  832MOL0     H12264  -0.581   7.979   5.554  0.2588  0.6468 -0.4376
  832MOL0     H12265  -0.404   7.872   5.695 -1.5158  0.5206 -2.0968
  832MOL0     H12266  -0.422   8.003   5.817 -0.5779  2.0122  0.8431
  832MOL0     H12267  -0.653   7.819   5.731 -0.5487  0.5612  1.0506
  832MOL0     H12268  -0.659   7.947   5.852 -0.6340 -3.4039  3.9606
  832MOL0     H12269  -0.460   7.710   5.869  1.9211  1.4065 -0.0521
  832MOL0     H12270  -0.485   7.844   5.981 -1.8405 -0.6557  2.2298
  832MOL0     H12271  -0.617   7.792   6.185 -2.1152  3.3699 -1.8103
  832MOL0     H12272  -0.885   7.596   6.316 -0.0027  1.6520 -0.0083
  832MOL0     H12273  -0.782   7.469   6.328 -1.4272  0.1415 -2.6055
  832MOL0     H12274  -0.604   7.632   6.411 -0.0099  5.1628 -2.2942
  832MOL0     H12275  -0.719   7.756   6.398  3.6909 -0.2282 -2.3721
  832MOL0     H12276  -0.773   7.511   6.594 -2.4784  0.3482  2.9191
  832MOL0     H12277  -0.863   7.661   6.580  0.3993  0.4551  0.7681
  832MOL0     H12278  -0.643   7.776   6.636 -0.3226  0.4128 -1.7756
  832MOL0     H12279  -0.555   7.628   6.619  1.0409  0.0551  3.2550
  832MOL0     H12280  -0.824   7.860   6.745 -3.1724 -0.6820  0.5519
  832MOL0     H12281  -0.983   7.944   6.899  0.7546  1.0572  1.1212
  832MOL0     H12282  -1.308   7.951   7.276 -0.5717  1.7435 -1.4510
  832MOL0     H12283  -1.413   8.100   7.410 -0.5348  3.9195  2.1767
  832MOL0     H12284  -1.548   8.473   7.301  3.6545  0.0055 -1.4393
  832MOL0     H12285  -1.553   8.298   7.297 -0.9433 -0.5690  1.3421
  832MOL0     H12286  -1.603   8.287   7.532 -0.5360 -0.4010 -2.1314
  832MOL0     H12287  -1.551   8.450   7.561  1.3069 -0.5731  0.2903
  832MOL0     H12288  -1.776   8.523   7.444 -0.8344  0.3732  1.0369
  832MOL0     H12289  -1.798   8.362   7.390 -0.0509  2.3903 -0.8492
  832MOL0     H12290  -1.836   8.288   7.626  0.7121 -0.3302 -0.1765
  832MOL0     H12291  -1.945   8.422   7.565  1.7137  2.0603 -3.2700
  832MOL0     H12292  -1.710   8.415   7.758 -0.4442 -4.6265 -2.1945
  832MOL0     H12293  -1.877   8.469   7.789 -0.2983  2.6146  0.5504
  832MOL0     H12294  -1.677   8.638   7.631 -0.1312  3.8441 -1.1765
  832MOL0     H12295  -1.856   8.658   7.632  0.5062  2.3316  1.3531
  832MOL0     H12296  -1.738   8.798   7.782 -4.9984  1.2308  3.2061
  832MOL0     H12297  -1.666   8.665   7.878 -0.8629 -0.7341  1.6434
  832MOL0     H12298  -1.856   8.577   7.967  2.3690  0.6377  0.9011
  832MOL0     H12299  -1.855   8.752   8.001 -1.0127  0.1986  0.4759
  832MOL0     H12300  -1.214   8.436   7.226  1.0114  0.1868 -1.4477
  832MOL0     H12301  -1.074   8.263   7.091  0.4589  4.4614  1.1162
  832MOL0     H12302  -0.872   7.653   7.187 -2.7549  0.4553 -1.4938
  832MOL0     H12303  -0.734   7.548   7.022  1.5492  0.2313 -1.3736
  832MOL0     H12304  -0.189   8.287   5.021 -0.4214 -0.5747  1.5025
  832MOL0     H12305  -0.017   8.295   4.853  0.4491 -1.9899 -0.2632
  832MOL0     H12306   0.388   8.165   4.823  1.1166  1.2661  2.1285
  832MOL0     H12307   0.538   8.050   4.668  2.1041 -0.6205 -2.1180
  832MOL0     H12308   0.639   7.989   4.480 -1.4804  1.0316 -1.3322
  832MOL0     H12309   0.778   8.020   4.581  0.2242 -1.0407  0.3003
  832MOL0     H12310   0.902   8.096   4.348 -0.3218  1.0055  0.4766
  832MOL0     H12311   0.777   7.998   4.277  1.4055 -0.9881  0.1817
  832MOL0     H12312   0.962   7.916   4.491 -1.6902 -2.8350  1.6201
  832MOL0     H12313   0.971   7.855   4.323  0.5674  0.1905  0.3948
  832MOL0     H12314   0.865   7.691   4.479  1.1029  0.6180 -0.9568
  832MOL0     H12315   0.750   7.799   4.520 -3.7040  1.4658 -1.4188
  832MOL0     H12316   0.645   7.674   4.123 -0.8895 -1.4248  2.0845
  832MOL0     H12317   0.692   8.423   4.540 -0.4200 -1.0454 -2.4674
  832MOL0     H12318   0.470   8.630   4.648  0.8930 -0.9965 -1.1132
  832MOL0     H12319   0.559   8.628   4.806  2.0703  3.7363 -0.9287
  832MOL0     H12320   0.650   8.619   4.659 -0.7499  2.6122  0.8929
  833MOL0     O12321  10.782   3.610  10.395  0.0404  0.2348 -0.6022
  833MOL0     C12322  10.880   3.568  10.455 -0.0677  0.3766 -0.6649
  833MOL0     O12323  10.990   3.517  10.392  0.2195  0.3748  0.2490
  833MOL0     C12324  10.999   3.539  10.255  0.2776 -1.3180 -0.0021
  833MOL0     C12325  10.912   3.470  10.163 -0.1712 -0.0281  0.3364
  833MOL0     C12326  10.936   3.494  10.028  0.3129  0.0245  1.0136
  833MOL0     C12327  11.024   3.597   9.980  0.9032 -0.4375  0.2421
  833MOL0     O12328  11.021   3.647   9.856 -0.1450 -0.6261  0.2080
  833MOL0     C12329  11.102   3.761   9.819 -0.6813 -0.3765 -0.2376
  833MOL0     C12330  11.104   3.792   9.672  0.2122 -0.8176  0.2063
  833MOL0     C12331  11.251   3.776   9.620  0.8762 -0.0344 -0.2692
  833MOL0     C12332  11.251   3.754   9.465  0.1424  0.5896  0.1278
  833MOL0     C12333  11.206   3.870   9.383  0.5916  0.2058 -0.2126
  833MOL0     C12334  11.221   3.861   9.230 -0.3481 -0.4755  0.1114
  833MOL0     C12335  11.150   3.972   9.152 -0.8140  0.3275 -0.3438
  833MOL0     C12336  11.168   3.967   9.002 -0.4839  0.9134 -0.6823
  833MOL0     N12337  11.043   4.009   8.942 -0.1027 -0.4862  0.1285
  833MOL0     C12338  11.010   4.133   8.899  0.3462  0.0221 -0.1663
  833MOL0     C12339  10.889   4.119   8.849  0.3126  0.0988 -0.1432
  833MOL0     C12340  10.803   4.232   8.809 -0.1020 -0.4632  0.6802
  833MOL0     C12341  10.773   4.334   8.917  0.0572 -0.8508 -0.0920
  833MOL0     C12342  10.693   4.275   9.027  0.7208  0.3771  0.6600
  833MOL0     C12343  10.779   4.242   9.145  0.6463  0.2423 -0.4907
  833MOL0     O12344  10.691   4.205   9.257  0.2687 -0.0571  0.4251
  833MOL0     C12345  10.739   4.163   9.376  0.0872 -0.6773  0.1064
  833MOL0     C12346  10.643   4.163   9.479 -0.6098  0.3769 -0.6282
  833MOL0     C12347  10.678   4.131   9.615  0.4619  0.0381  0.5474
  833MOL0     C12348  10.812   4.108   9.647  0.9433  0.7218 -1.0678
  833MOL0     C12349  10.856   4.070   9.784 -0.0354  0.8754 -0.0403
  833MOL0     O12350  10.770   4.038   9.882 -0.1118 -0.0117  0.2604
  833MOL0     C12351  10.808   4.049  10.012 -0.4854  1.1986  1.0267
  833MOL0     C12352  10.810   4.173  10.071  0.3530  0.6994 -0.8260
  833MOL0     C12353  10.846   4.175  10.206 -0.8816  0.3357 -0.3260
  833MOL0     C12354  10.896   4.069  10.275 -0.9173  0.1914 -0.3498
  833MOL0     O12355  10.945   4.082  10.404 -0.2842  0.0135  0.1476
  833MOL0     C12356  10.901   3.965  10.482  0.2374 -0.3727 -0.1270
  833MOL0     C12357  10.942   3.985  10.626 -0.2305  0.3938  0.5261
  833MOL0     C12358  11.094   3.988  10.652  0.0208  0.4568  0.8979
  833MOL0     C12359  11.126   3.935  10.791  0.7652  0.1006  0.0557
  833MOL0     C12360  11.273   3.922  10.801 -0.5677  0.0077 -0.0416
  833MOL0     C12361  11.315   3.981  10.934 -0.0981 -0.7495  0.3706
  833MOL0     C12362  11.286   4.142  10.930 -0.4128  0.5607 -0.2268
  833MOL0     C12363  11.354   4.207  11.059 -0.4277 -0.2138 -0.9759
  833MOL0    Cl12364  11.529   4.191  11.056  0.2781  0.1079 -0.2042
  833MOL0     C12365  10.915   3.950  10.194 -0.0627  0.3412 -0.6942
  833MOL0     C12366  10.876   3.936  10.062  0.0069 -0.6734 -0.1477
  833MOL0     O12367  10.979   4.075   9.800 -0.1473  0.3252 -0.3060
  833MOL0     C12368  10.910   4.124   9.542 -0.3200 -0.1146  0.8274
  833MOL0     C12369  10.872   4.135   9.400  0.6567  1.1092 -0.6322
  833MOL0     N12370  10.855   3.986   8.855 -0.1848 -0.1072 -0.3736
  833MOL0     N12371  10.945   3.920   8.906  0.0828  0.3490 -0.3884
  833MOL0     C12372  11.111   3.651  10.078  0.6790 -1.1039  0.0938
  833MOL0     C12373  11.103   3.626  10.216  0.6860  0.1555 -0.1278
  833MOL0     C12374  10.885   3.581  10.608  0.4034  0.1163  0.1048
  833MOL0     C12375  10.767   3.619  10.675 -0.1356  0.5035 -0.2069
  833MOL0     C12376  10.772   3.664  10.809  0.2631 -1.0640 -0.0189
  833MOL0     C12377  10.875   3.656  10.890 -0.9513  0.8038  0.1498
  833MOL0     O12378  10.870   3.725  11.003 -0.2726  0.0144 -0.0428
  833MOL0     C12379  10.852   3.639  11.118 -0.0626  0.5660 -0.8657
  833MOL0     C12380  10.889   3.707  11.252 -0.4134  0.1483  0.1359
  833MOL0     C12381  10.839   3.852  11.258  0.5570 -0.2235  0.1395
  833MOL0     C12382  10.924   3.959  11.200  0.8213  0.8972  0.6056
  833MOL0     C12383  11.069   3.957  11.240  0.6082 -0.4842  0.2919
  833MOL0     C12384  11.182   3.951  11.278  0.2737 -0.0841 -0.5552
  833MOL0     C12385  10.987   3.590  10.839 -0.2226  0.5605 -0.2672
  833MOL0     C12386  10.992   3.557  10.701 -0.7284  0.0640 -1.0350
  833MOL0     C12387  11.125   3.484  10.662  0.2590 -0.0793 -0.4825
  833MOL0     H12388  10.834   3.400  10.190  2.9347 -2.6111  3.7461
  833MOL0     H12389  10.873   3.439   9.959  1.3520  1.3554 -1.0858
  833MOL0     H12390  11.058   3.849   9.866  0.4511 -0.3222  0.7888
  833MOL0     H12391  11.204   3.746   9.856 -1.2993  0.2001  1.8611
  833MOL0     H12392  11.061   3.889   9.648  1.7826 -0.3522 -0.8402
  833MOL0     H12393  11.039   3.724   9.616 -0.8845  2.4563 -2.8532
  833MOL0     H12394  11.308   3.695   9.668  3.7262  2.2309  0.4373
  833MOL0     H12395  11.301   3.872   9.637 -4.1806  2.9286 -0.3058
  833MOL0     H12396  11.348   3.721   9.426 -2.0187 -3.4259 -2.5879
  833MOL0     H12397  11.191   3.664   9.449  2.5322 -1.0503 -0.0963
  833MOL0     H12398  11.098   3.883   9.390  0.1244 -1.4853 -2.8228
  833MOL0     H12399  11.252   3.963   9.419  2.4769 -1.1054  0.9620
  833MOL0     H12400  11.330   3.861   9.220 -0.3459  2.5683 -1.0870
  833MOL0     H12401  11.177   3.764   9.207 -3.4707  0.9161 -0.2813
  833MOL0     H12402  11.197   4.059   9.199 -2.1811  0.7139  0.3299
  833MOL0     H12403  11.046   3.961   9.182 -0.2105 -1.8263  1.2214
  833MOL0     H12404  11.257   4.027   8.983 -0.8702  1.7059 -0.0368
  833MOL0     H12405  11.186   3.863   8.972 -2.8981 -0.1102  0.9838
  833MOL0     H12406  11.075   4.220   8.893 -0.8669  0.8682 -1.7625
  833MOL0     H12407  10.859   4.283   8.730 -3.1245  3.1709  0.5981
  833MOL0     H12408  10.715   4.193   8.756  1.7618 -0.7396 -2.5033
  833MOL0     H12409  10.863   4.380   8.959 -1.8228  0.7741  2.4449
  833MOL0     H12410  10.728   4.423   8.871 -0.9118 -1.0230  0.5042
  833MOL0     H12411  10.641   4.185   8.993  0.2937  0.6804  0.5012
  833MOL0     H12412  10.622   4.351   9.061 -4.4606 -2.3868 -2.5815
  833MOL0     H12413  10.831   4.332   9.179 -1.9054  1.7631 -0.3730
  833MOL0     H12414  10.856   4.168   9.122  1.5981  0.6754  1.1446
  833MOL0     H12415  10.535   4.165   9.463 -1.0337 -3.1295  0.8150
  833MOL0     H12416  10.601   4.130   9.692 -2.7003  0.4325 -2.3537
  833MOL0     H12417  10.767   4.264  10.031 -1.1950 -0.5362 -2.1429
  833MOL0     H12418  10.847   4.276  10.246  0.0790  2.0235 -4.1275
  833MOL0     H12419  10.793   3.950  10.478  0.6064 -3.7100 -1.3386
  833MOL0     H12420  10.956   3.878  10.445 -2.7219 -1.4261 -2.4573
  833MOL0     H12421  10.893   4.071  10.673 -5.0270 -0.3031 -2.5498
  833MOL0     H12422  10.899   3.897  10.675 -1.5032 -0.2328 -1.5768
  833MOL0     H12423  11.141   3.917  10.584  0.1673 -0.1365  1.6021
  833MOL0     H12424  11.127   4.091  10.639 -1.2711  0.7181 -0.6540
  833MOL0     H12425  11.079   3.837  10.803  1.9714 -0.2630  2.2231
  833MOL0     H12426  11.078   4.006  10.859  0.9140  0.9791 -0.7360
  833MOL0     H12427  11.305   3.988  10.721 -1.4911  1.3628  0.6708
  833MOL0     H12428  11.322   3.825  10.786  0.7964  1.0390 -2.9102
  833MOL0     H12429  11.272   3.936  11.024  2.8444 -1.7921  1.3940
  833MOL0     H12430  11.422   3.959  10.947  0.1363  0.4507  0.6588
  833MOL0     H12431  11.178   4.156  10.922 -0.0120  3.0107 -3.7524
  833MOL0     H12432  11.328   4.180  10.836  0.5949  2.4488  0.9036
  833MOL0     H12433  11.325   4.313  11.057 -1.1791 -0.4209 -1.1552
  833MOL0     H12434  11.313   4.156  11.146 -0.6457  0.0859 -0.9031
  833MOL0     H12435  10.953   3.862  10.244 -1.6715  1.3604  2.6690
  833MOL0     H12436  10.878   3.848   9.999 -0.7555  0.3776 -1.7253
  833MOL0     H12437  11.013   4.095   9.564 -0.5266 -2.2781 -0.6941
  833MOL0     H12438  10.940   4.135   9.315 -0.1600  2.4763 -1.3156
  833MOL0     H12439  11.187   3.723  10.049 -1.7968  2.1002  1.0082
  833MOL0     H12440  11.172   3.669  10.287  0.4946  0.5106 -0.1559
  833MOL0     H12441  10.670   3.628  10.627  0.2072 -2.1513 -1.5786
  833MOL0     H12442  10.686   3.714  10.852  3.3705  2.2218  2.9396
  833MOL0     H12443  10.906   3.546  11.103  0.2782  0.6751 -0.3417
  833MOL0     H12444  10.747   3.608  11.123 -0.2192  0.9099 -1.7284
  833MOL0     H12445  10.998   3.701  11.261 -0.2853  0.8592 -0.7870
  833MOL0     H12446  10.860   3.638  11.332  2.1132  0.2534  1.2554
  833MOL0     H12447  10.832   3.881  11.363  1.8315 -1.7344  0.6883
  833MOL0     H12448  10.736   3.856  11.223  0.4554  2.2412  0.5646
  833MOL0     H12449  10.914   3.957  11.091 -2.5567  0.9456  0.8182
  833MOL0     H12450  10.872   4.051  11.227 -1.1536  0.0943 -0.2352
  833MOL0     H12451  11.287   3.952  11.300  0.3699  2.9673 -0.6943
  833MOL0     H12452  11.074   3.586  10.903  0.4029  0.4638 -1.1090
  833MOL0     H12453  11.124   3.382  10.622 -1.1583 -0.5190  0.5825
  833MOL0     H12454  11.180   3.533  10.581  1.4028 -1.3408 -0.4964
  833MOL0     H12455  11.191   3.475  10.748  1.3424 -1.5726 -1.4261
  834MOL0     O12456   7.664   2.892   3.216 -0.0764  0.1131  0.0151
  834MOL0     C12457   7.759   2.836   3.266 -0.6535 -0.2996  0.7967
  834MOL0     O12458   7.888   2.850   3.224 -0.2548 -0.0078  0.2629
  834MOL0     C12459   7.927   2.942   3.128  0.2489 -0.7524 -0.4504
  834MOL0     C12460   7.862   2.946   2.997  0.9283  0.3796 -0.9705
  834MOL0     C12461   7.913   3.020   2.892 -0.4314  0.3337 -0.4262
  834MOL0     C12462   8.027   3.097   2.909 -0.6783 -0.1062 -0.6908
  834MOL0     O12463   8.068   3.181   2.808  0.2438 -0.1282 -0.2587
  834MOL0     C12464   7.985   3.228   2.697  0.0540 -0.1551  0.1278
  834MOL0     C12465   8.070   3.328   2.614 -0.1034  0.4637  1.0805
  834MOL0     C12466   7.990   3.445   2.576  0.4334 -0.4217 -0.2509
  834MOL0     C12467   7.867   3.416   2.491 -0.3194 -0.4502  0.7600
  834MOL0     C12468   7.823   3.523   2.395  0.1865 -0.2938 -0.4751
  834MOL0     C12469   7.931   3.539   2.287 -0.5361  1.3137  1.2837
  834MOL0     C12470   7.886   3.635   2.171  0.3213  0.4241 -0.3591
  834MOL0     C12471   7.784   3.568   2.077 -0.3127 -0.6761 -0.3281
  834MOL0     N12472   7.743   3.656   1.966 -0.5545 -0.0761 -0.7164
  834MOL0     C12473   7.671   3.613   1.855 -1.0209 -0.6422  0.0297
  834MOL0     C12474   7.659   3.725   1.783  0.1214 -0.8202  0.3786
  834MOL0     C12475   7.623   3.733   1.639  0.8590 -1.1206 -0.1157
  834MOL0     C12476   7.502   3.843   1.621 -0.9423  1.2560 -0.1871
  834MOL0     C12477   7.376   3.807   1.705  0.5610  1.2098  0.2108
  834MOL0     C12478   7.292   3.687   1.660 -0.7752 -0.5313  0.3461
  834MOL0     O12479   7.176   3.698   1.741  0.3674  0.7857 -0.5501
  834MOL0     C12480   7.062   3.754   1.696  0.3833 -0.6051  0.1630
  834MOL0     C12481   6.936   3.721   1.754  0.1420 -0.4827  0.0361
  834MOL0     C12482   6.814   3.772   1.712 -0.1124 -0.0910 -0.0999
  834MOL0     C12483   6.815   3.865   1.603 -0.0226 -0.6445  0.3116
  834MOL0     C12484   6.685   3.933   1.575  0.3761  0.6110 -0.2332
  834MOL0     O12485   6.675   4.002   1.465 -0.3547  0.3412 -0.0611
  834MOL0     C12486   6.550   4.033   1.421  0.2383  0.8168 -0.0514
  834MOL0     C12487   6.492   3.974   1.308 -0.2843 -0.3006 -0.3417
  834MOL0     C12488   6.369   4.017   1.256  0.3120 -0.7495  0.1079
  834MOL0     C12489   6.293   4.124   1.314  0.0924  0.0692 -0.9954
  834MOL0     O12490   6.177   4.166   1.254  0.1354 -0.6290 -0.0404
  834MOL0     C12491   6.071   4.080   1.269 -0.1871 -0.5854 -0.2089
  834MOL0     C12492   5.992   4.052   1.133 -1.0426 -0.5547 -0.3922
  834MOL0     C12493   5.848   4.014   1.158 -0.5961 -0.6583 -0.1910
  834MOL0     C12494   5.786   3.952   1.039  0.2407  0.5046  0.7560
  834MOL0     C12495   5.649   3.891   1.055 -0.3202 -0.0842  0.5738
  834MOL0     C12496   5.593   3.825   0.918  0.1888 -0.0477  0.6808
  834MOL0     C12497   5.437   3.800   0.911 -0.2216  0.6415  0.4737
  834MOL0     C12498   5.387   3.712   1.026  0.7345 -0.0124 -0.1387
  834MOL0    Cl12499   5.209   3.745   1.056 -0.0389 -0.3494  0.5639
  834MOL0     C12500   6.343   4.172   1.429 -0.9025 -0.3525 -0.2765
  834MOL0     C12501   6.478   4.129   1.481  0.2642 -0.2710  0.0674
  834MOL0     O12502   6.591   3.905   1.661 -1.0337 -0.1373  0.6811
  834MOL0     C12503   6.941   3.891   1.533  0.6071  0.1215 -0.7313
  834MOL0     C12504   7.062   3.833   1.578 -0.3860 -0.3069  0.0831
  834MOL0     N12505   7.729   3.831   1.849 -0.4259 -1.0984  0.5537
  834MOL0     N12506   7.785   3.780   1.951 -0.3066 -0.3369 -0.2535
  834MOL0     C12507   8.100   3.090   3.036  0.3509  1.3477  0.3776
  834MOL0     C12508   8.037   3.023   3.151 -0.9771 -0.4692  0.2295
  834MOL0     C12509   7.722   2.742   3.377 -0.4702  0.0973  0.5956
  834MOL0     C12510   7.801   2.619   3.380 -0.2618 -0.7523 -0.4926
  834MOL0     C12511   7.779   2.522   3.479 -0.1300  0.0013 -0.3426
  834MOL0     C12512   7.683   2.559   3.577 -0.6849 -0.0777 -0.3383
  834MOL0     O12513   7.654   2.478   3.682  0.1101 -0.0000  0.0336
  834MOL0     C12514   7.648   2.341   3.665 -0.0843 -1.1134  0.7346
  834MOL0     C12515   7.572   2.267   3.776  0.3139  0.1392 -0.3696
  834MOL0     C12516   7.658   2.244   3.897  0.7126  0.1541  0.1676
  834MOL0     C12517   7.570   2.153   3.986  1.4016  0.3743  0.4281
  834MOL0     C12518   7.644   2.095   4.098  0.6225  0.6318 -0.5879
  834MOL0     C12519   7.692   2.058   4.198 -0.5151 -0.1116 -0.2282
  834MOL0     C12520   7.614   2.680   3.570  0.7190 -0.0703  0.9044
  834MOL0     C12521   7.642   2.772   3.483  0.2984 -0.4264 -0.4468
  834MOL0     C12522   7.586   2.901   3.520  0.0710  0.0055 -0.6198
  834MOL0     H12523   7.778   2.881   2.974  1.9344 -2.4523  2.5934
  834MOL0     H12524   7.872   3.019   2.791  0.7262  2.1152 -0.9604
  834MOL0     H12525   7.966   3.141   2.635  1.5215 -0.8304  0.5952
  834MOL0     H12526   7.885   3.260   2.730  0.2962 -1.4471  2.3568
  834MOL0     H12527   8.124   3.276   2.535  2.1705  1.3500  1.9524
  834MOL0     H12528   8.159   3.360   2.670  3.2468 -0.6645 -3.0878
  834MOL0     H12529   8.067   3.506   2.527  1.8416 -0.8948  1.3072
  834MOL0     H12530   7.957   3.502   2.663  2.5593  1.0965 -0.3746
  834MOL0     H12531   7.889   3.321   2.441  1.6187 -1.4876  3.3707
  834MOL0     H12532   7.771   3.397   2.540  0.3484 -1.2397  1.8010
  834MOL0     H12533   7.716   3.527   2.374 -0.9587 -3.1490  3.6523
  834MOL0     H12534   7.833   3.615   2.455 -0.4647 -1.7697  2.0701
  834MOL0     H12535   8.029   3.572   2.323  0.4676 -0.0867 -0.0151
  834MOL0     H12536   7.957   3.446   2.236 -3.1043 -0.5082  3.0787
  834MOL0     H12537   7.961   3.687   2.110 -0.6973 -0.1107 -2.1438
  834MOL0     H12538   7.826   3.715   2.216  1.5654  1.1222  0.1206
  834MOL0     H12539   7.826   3.475   2.037  3.9495  0.5705  0.7179
  834MOL0     H12540   7.701   3.531   2.138 -1.1789  3.5125  1.3627
  834MOL0     H12541   7.652   3.515   1.813  1.1106  0.8064 -5.0307
  834MOL0     H12542   7.714   3.752   1.581  0.3963 -1.5024 -0.9768
  834MOL0     H12543   7.582   3.641   1.598  0.6726 -0.8537 -0.5400
  834MOL0     H12544   7.542   3.943   1.641  1.5698  0.8576 -2.6306
  834MOL0     H12545   7.477   3.833   1.515  1.5691 -0.8738 -0.6889
  834MOL0     H12546   7.309   3.891   1.684 -1.2677 -0.3842 -0.6707
  834MOL0     H12547   7.396   3.804   1.812  1.8173 -0.1585 -0.0219
  834MOL0     H12548   7.335   3.592   1.693  1.4605 -0.3321 -1.6897
  834MOL0     H12549   7.286   3.685   1.551  0.1582  2.1337  0.1617
  834MOL0     H12550   6.925   3.652   1.837  1.8497 -0.8402  0.0084
  834MOL0     H12551   6.721   3.738   1.755 -1.9136  2.3222 -1.8076
  834MOL0     H12552   6.549   3.887   1.277 -0.4336  0.3165 -2.5412
  834MOL0     H12553   6.336   3.966   1.166  0.9438  1.5444 -1.4993
  834MOL0     H12554   6.108   3.982   1.301  1.6695  1.4492  4.7924
  834MOL0     H12555   6.013   4.120   1.352 -0.3780 -2.1315  0.4513
  834MOL0     H12556   6.001   4.139   1.067  0.7725  0.1185  0.6480
  834MOL0     H12557   6.046   3.974   1.079 -1.1599 -0.1190 -1.1440
  834MOL0     H12558   5.852   3.940   1.239 -0.1589  0.9062  1.3009
  834MOL0     H12559   5.798   4.106   1.191  1.2528  0.9629 -1.6525
  834MOL0     H12560   5.852   3.871   1.006  2.5909  2.6547 -0.1636
  834MOL0     H12561   5.787   4.026   0.958  0.5928  0.5487  0.8014
  834MOL0     H12562   5.571   3.966   1.072 -0.6301 -0.1281 -0.5682
  834MOL0     H12563   5.637   3.819   1.136 -2.7087  0.3588  0.6835
  834MOL0     H12564   5.616   3.882   0.827 -1.0780 -0.8908 -0.2099
  834MOL0     H12565   5.633   3.724   0.903  0.0605  0.3651 -3.8404
  834MOL0     H12566   5.412   3.753   0.815  3.1297  1.3008 -0.8602
  834MOL0     H12567   5.393   3.899   0.919  2.4064  1.7951  1.5878
  834MOL0     H12568   5.405   3.605   1.016 -1.8631 -0.6551  1.2600
  834MOL0     H12569   5.433   3.728   1.125 -0.7476  0.3103  0.5330
  834MOL0     H12570   6.276   4.244   1.475  1.0935  0.5883  1.3497
  834MOL0     H12571   6.525   4.175   1.568 -0.7637 -1.2782  1.1870
  834MOL0     H12572   6.935   3.969   1.457  1.0500  3.4338  2.3481
  834MOL0     H12573   7.155   3.868   1.533 -0.6782 -1.3887 -1.4527
  834MOL0     H12574   8.181   3.163   3.039  1.3487  0.3181 -0.3760
  834MOL0     H12575   8.087   3.024   3.247 -2.6031 -0.1702  1.1050
  834MOL0     H12576   7.884   2.609   3.311 -0.1927  0.4702 -0.6030
  834MOL0     H12577   7.831   2.427   3.471 -2.5993 -1.3579 -1.0984
  834MOL0     H12578   7.744   2.290   3.666  1.2488  1.1313 -1.1314
  834MOL0     H12579   7.591   2.328   3.573  3.1464  1.3721 -1.8663
  834MOL0     H12580   7.534   2.173   3.735  0.0957 -0.5472  1.2923
  834MOL0     H12581   7.483   2.323   3.804  1.2366  1.2114  0.5167
  834MOL0     H12582   7.681   2.341   3.941 -1.1607  2.0949 -2.7824
  834MOL0     H12583   7.738   2.180   3.859  0.4913  1.2922 -2.4137
  834MOL0     H12584   7.485   2.211   4.024  1.7533  0.9580  0.3404
  834MOL0     H12585   7.530   2.069   3.928  0.0051  0.7772  0.7760
  834MOL0     H12586   7.719   2.028   4.297  0.6155 -2.1368 -1.0896
  834MOL0     H12587   7.541   2.699   3.648  1.4769 -2.1993  2.1911
  834MOL0     H12588   7.662   2.962   3.568 -1.4838  1.7944 -0.2967
  834MOL0     H12589   7.543   2.955   3.435 -1.5612  0.9070  0.7060
  834MOL0     H12590   7.510   2.902   3.599  0.4682  2.2429 -0.2117
  835MOL0     O12591   7.525   8.011  11.473 -0.0157 -0.5294 -0.3340
  835MOL0     C12592   7.468   7.901  11.486  0.1617 -0.3713  1.0286
  835MOL0     O12593   7.535   7.781  11.452 -1.0707  0.2224  0.5775
  835MOL0     C12594   7.668   7.774  11.409 -0.4856 -0.2181 -0.1420
  835MOL0     C12595   7.774   7.854  11.449 -0.5220 -0.1211 -0.0047
  835MOL0     C12596   7.901   7.852  11.400  0.9498 -0.6945  0.7199
  835MOL0     C12597   7.919   7.763  11.289  0.4474 -0.3295  0.0168
  835MOL0     O12598   8.045   7.752  11.231  0.4616 -0.1174  0.5906
  835MOL0     C12599   8.098   7.620  11.248  0.4644 -0.1057 -0.0834
  835MOL0     C12600   8.247   7.618  11.236 -0.1465 -0.3688 -0.0856
  835MOL0     C12601   8.304   7.482  11.271  0.0577 -0.7786  0.0049
  835MOL0     C12602   8.438   7.506  11.351  0.5876  0.7569  0.1552
  835MOL0     C12603   8.500   7.376  11.402  0.1181  0.0112 -0.4002
  835MOL0     C12604   8.519   7.277  11.291  0.2183  0.2976 -0.1993
  835MOL0     C12605   8.578   7.149  11.341 -0.8351  0.3556 -0.4037
  835MOL0     C12606   8.629   7.052  11.224 -0.6929 -0.2362 -0.2459
  835MOL0     N12607   8.534   6.945  11.194  0.7351  0.0891  0.0340
  835MOL0     C12608   8.502   6.850  11.292 -0.0180  0.5651 -0.6820
  835MOL0     C12609   8.444   6.756  11.219 -0.1635  0.0503 -0.7514
  835MOL0     C12610   8.370   6.635  11.276 -0.2882 -1.1366 -0.4079
  835MOL0     C12611   8.457   6.526  11.325  0.0631 -0.0320 -0.0286
  835MOL0     C12612   8.599   6.503  11.253 -0.3428  0.1403 -0.1507
  835MOL0     C12613   8.693   6.429  11.353  0.1649  0.3829  0.2506
  835MOL0     O12614   8.831   6.449  11.308 -0.1644  0.8214 -0.0828
  835MOL0     C12615   8.883   6.585  11.321 -0.4120  1.0095  0.6488
  835MOL0     C12616   8.982   6.637  11.241 -0.2243  0.8521  1.1008
  835MOL0     C12617   9.011   6.781  11.243 -0.5166  0.0512  0.2247
  835MOL0     C12618   8.949   6.868  11.333  0.2623 -0.0996  0.6414
  835MOL0     C12619   8.975   7.008  11.333 -0.0174 -0.0166 -0.4063
  835MOL0     O12620   9.031   7.066  11.220 -1.1374  0.4084 -0.0460
  835MOL0     C12621   9.041   7.201  11.218 -0.0798 -0.5093  0.6656
  835MOL0     C12622   9.165   7.266  11.249  0.3282 -0.6572 -1.1640
  835MOL0     C12623   9.180   7.407  11.232 -0.1714  0.8661 -0.3540
  835MOL0     C12624   9.075   7.489  11.182  0.0254 -0.6029  0.5070
  835MOL0     O12625   9.111   7.624  11.162 -0.6755 -0.3569  0.2959
  835MOL0     C12626   9.006   7.712  11.131 -0.4464  1.0132  0.5727
  835MOL0     C12627   9.034   7.841  11.200 -0.0527  0.4165  0.0288
  835MOL0     C12628   8.929   7.945  11.180  0.2127  0.2410 -0.1134
  835MOL0     C12629   8.964   8.067  11.242 -0.2179 -0.3054 -0.2973
  835MOL0     C12630   8.853   8.184  11.213 -0.0240  0.3876 -1.0104
  835MOL0     C12631   8.705   8.156  11.245 -0.1894  0.6058  0.3812
  835MOL0     C12632   8.611   8.269  11.214  0.0840  0.3218 -0.5452
  835MOL0     C12633   8.476   8.230  11.284 -0.6565 -0.0325  0.2008
  835MOL0    Cl12634   8.401   8.084  11.206 -0.2609 -0.0822  0.2300
  835MOL0     C12635   8.954   7.420  11.155 -1.2026 -0.7509  0.4716
  835MOL0     C12636   8.935   7.286  11.166 -0.3357  1.0982 -0.3781
  835MOL0     O12637   8.950   7.067  11.437  0.0116 -0.1188  0.7962
  835MOL0     C12638   8.859   6.804  11.418 -0.3195  0.1225 -0.4056
  835MOL0     C12639   8.829   6.665  11.421 -0.0256 -0.3677 -0.3818
  835MOL0     N12640   8.446   6.787  11.083  0.0717 -0.2453 -0.5971
  835MOL0     N12641   8.508   6.892  11.072 -0.8145 -0.2778  0.2449
  835MOL0     C12642   7.809   7.691  11.234  0.4161 -0.0965  0.9757
  835MOL0     C12643   7.689   7.694  11.299  0.1941 -0.8145 -0.4931
  835MOL0     C12644   7.337   7.880  11.566 -0.1512 -0.3835 -0.4337
  835MOL0     C12645   7.302   7.984  11.658 -0.5297 -0.0243  0.6385
  835MOL0     C12646   7.192   7.985  11.731  0.4305  0.4804  0.7974
  835MOL0     C12647   7.102   7.882  11.735  1.7075  0.5760  0.0899
  835MOL0     O12648   6.998   7.884  11.829 -0.0659  0.5555 -0.5953
  835MOL0     C12649   6.908   7.770  11.848 -0.2333  0.9581  0.4494
  835MOL0     C12650   6.792   7.792  11.955  0.0602  0.9070  0.1553
  835MOL0     C12651   6.674   7.854  11.885 -0.4286  0.3773 -0.4202
  835MOL0     C12652   6.545   7.842  11.966 -0.2988  0.2752  0.1769
  835MOL0     C12653   6.568   7.904  12.096  0.7661 -0.5362  0.4862
  835MOL0     C12654   6.600   7.950  12.203  0.5489  1.2316  0.0960
  835MOL0     C12655   7.126   7.787  11.639 -0.0267 -0.9933 -0.7558
  835MOL0     C12656   7.240   7.777  11.556  0.2892 -0.2727  0.2569
  835MOL0     C12657   7.261   7.665  11.464 -0.0150  1.1313 -0.3692
  835MOL0     H12658   7.758   7.914  11.538  3.1221  2.7785 -1.0380
  835MOL0     H12659   7.985   7.916  11.428 -1.8456  3.9234 -0.4294
  835MOL0     H12660   8.062   7.582  11.344  0.5073 -0.2418 -0.1217
  835MOL0     H12661   8.055   7.568  11.162 -2.0239 -1.3591  1.7802
  835MOL0     H12662   8.282   7.702  11.296 -1.6155  0.8604 -0.8707
  835MOL0     H12663   8.275   7.644  11.133 -0.2454 -0.1108 -0.0473
  835MOL0     H12664   8.312   7.413  11.186  3.4149 -0.3401 -0.1877
  835MOL0     H12665   8.235   7.441  11.345 -0.8785 -0.9062 -0.9203
  835MOL0     H12666   8.508   7.565  11.293  0.5072 -1.3561 -2.2865
  835MOL0     H12667   8.416   7.547  11.450  2.7844 -0.8641  1.3960
  835MOL0     H12668   8.602   7.402  11.431  0.8730 -1.5062 -1.5449
  835MOL0     H12669   8.452   7.331  11.490  2.1337 -1.1348  0.1811
  835MOL0     H12670   8.423   7.252  11.245 -1.1078  2.0938  1.4414
  835MOL0     H12671   8.580   7.326  11.214 -0.4834  3.6367  1.1631
  835MOL0     H12672   8.524   7.091  11.416 -0.5674 -0.1434 -0.5913
  835MOL0     H12673   8.670   7.191  11.382 -1.4962  0.9242  0.5487
  835MOL0     H12674   8.655   7.104  11.131  1.9862 -0.4480  0.3252
  835MOL0     H12675   8.722   7.004  11.253  0.1991  0.9280 -1.1108
  835MOL0     H12676   8.508   6.850  11.401  0.1138  0.2535 -0.6879
  835MOL0     H12677   8.309   6.672  11.358 -0.9876  0.9565 -1.7990
  835MOL0     H12678   8.306   6.603  11.193 -3.4342  0.2413  1.3168
  835MOL0     H12679   8.475   6.547  11.431  3.2498 -1.9525 -0.0435
  835MOL0     H12680   8.404   6.431  11.317 -2.1137  1.2245 -1.3475
  835MOL0     H12681   8.641   6.601  11.228 -2.2128  1.6186  2.0896
  835MOL0     H12682   8.601   6.445  11.161  1.5902  2.7942 -1.9490
  835MOL0     H12683   8.673   6.322  11.349  1.5933  0.1119 -0.1761
  835MOL0     H12684   8.682   6.454  11.459  0.9240 -2.2548  1.0360
  835MOL0     H12685   9.025   6.562  11.176 -1.9963  0.8911 -0.1928
  835MOL0     H12686   9.078   6.829  11.172 -0.1406  1.5203  1.5375
  835MOL0     H12687   9.254   7.211  11.280 -0.7295 -0.2913  3.0859
  835MOL0     H12688   9.279   7.443  11.257 -0.8679  2.2657  0.5123
  835MOL0     H12689   9.025   7.723  11.024 -0.2449  2.7723  0.7666
  835MOL0     H12690   8.907   7.669  11.148  0.0863  0.1170  1.5047
  835MOL0     H12691   9.047   7.823  11.307  0.1181 -3.4611 -0.5144
  835MOL0     H12692   9.133   7.865  11.161  2.2279 -4.6586  1.8548
  835MOL0     H12693   8.929   7.958  11.071 -1.2817  3.2147  0.1245
  835MOL0     H12694   8.836   7.905  11.219  1.8522 -2.2874  1.5020
  835MOL0     H12695   9.058   8.107  11.204 -1.0839  3.2110  0.8839
  835MOL0     H12696   8.988   8.060  11.349 -0.0248  1.4080 -0.2146
  835MOL0     H12697   8.876   8.226  11.115 -0.9775  2.6418 -0.3418
  835MOL0     H12698   8.876   8.270  11.276 -3.0950 -1.0705  2.5168
  835MOL0     H12699   8.679   8.068  11.185 -0.5312 -0.0183  1.4103
  835MOL0     H12700   8.692   8.124  11.348 -0.4505  1.7594  0.7208
  835MOL0     H12701   8.603   8.271  11.105  1.8088 -3.0977 -0.8912
  835MOL0     H12702   8.647   8.361  11.260 -4.3067  2.1088 -0.2268
  835MOL0     H12703   8.496   8.203  11.388  2.3706 -2.1225 -0.8008
  835MOL0     H12704   8.421   8.324  11.269  1.4953  1.1841 -0.4660
  835MOL0     H12705   8.878   7.476  11.101  0.0098 -0.6112 -1.1828
  835MOL0     H12706   8.849   7.247  11.112 -0.5966  0.7996  0.2566
  835MOL0     H12707   8.820   6.859  11.503 -0.3831 -1.4950  0.6556
  835MOL0     H12708   8.760   6.635  11.499  1.5379 -0.1562  1.1226
  835MOL0     H12709   7.801   7.628  11.147 -1.2116  0.5285  0.6295
  835MOL0     H12710   7.607   7.641  11.252  1.0804 -3.6733  0.9482
  835MOL0     H12711   7.364   8.073  11.660 -1.3913  0.7151 -1.5564
  835MOL0     H12712   7.187   8.062  11.807  2.3590 -1.8014  3.4345
  835MOL0     H12713   6.964   7.681  11.880  2.3709  0.7052 -3.9987
  835MOL0     H12714   6.858   7.737  11.757 -1.1111  0.3741  1.1233
  835MOL0     H12715   6.822   7.850  12.042  2.1746  0.1612 -0.0030
  835MOL0     H12716   6.769   7.695  11.998  1.7450  0.1538 -0.5247
  835MOL0     H12717   6.653   7.796  11.795 -6.4747 -0.5866  1.1772
  835MOL0     H12718   6.694   7.960  11.869 -3.2092  1.0020 -0.3195
  835MOL0     H12719   6.457   7.872  11.909 -2.1362 -3.5367  0.7339
  835MOL0     H12720   6.528   7.735  11.979  0.0559 -0.2874 -3.1133
  835MOL0     H12721   6.621   7.978  12.304 -0.6680 -1.1290  1.1064
  835MOL0     H12722   7.049   7.711  11.634 -1.1990  0.2120 -2.8924
  835MOL0     H12723   7.332   7.597  11.511 -2.1960 -1.5041 -0.6710
  835MOL0     H12724   7.166   7.615  11.446  0.8764 -1.9296  2.5257
  835MOL0     H12725   7.307   7.689  11.367 -0.5048 -1.0613 -1.1900
  836MOL0     O12726   0.492   8.288   8.385  0.8408  0.8508  0.0558
  836MOL0     C12727   0.422   8.197   8.443  0.1604  0.6156  0.7050
  836MOL0     O12728   0.284   8.202   8.464 -0.2646  0.1263  0.3911
  836MOL0     C12729   0.216   8.314   8.456 -0.3675 -0.7818 -0.4304
  836MOL0     C12730   0.120   8.330   8.562  0.2176 -0.1054  0.6425
  836MOL0     C12731   0.058   8.456   8.586 -1.0884 -0.9731  0.9383
  836MOL0     C12732   0.068   8.559   8.492 -0.7409  0.5042  0.1962
  836MOL0     O12733   0.008   8.682   8.492 -0.3367 -0.3323  0.9805
  836MOL0     C12734  -0.067   8.725   8.610 -0.5755  0.2685 -0.1866
  836MOL0     C12735  -0.137   8.846   8.565  0.8987  0.6746  0.0481
  836MOL0     C12736  -0.032   8.956   8.525  0.3138  1.1046  0.2680
  836MOL0     C12737  -0.091   9.095   8.546  0.5761 -0.4806  0.5299
  836MOL0     C12738  -0.170   9.148   8.432  0.1080 -0.0783 -0.1937
  836MOL0     C12739  -0.316   9.095   8.424 -0.0092 -0.9890  0.2438
  836MOL0     C12740  -0.420   9.210   8.382 -0.2893  0.2704 -0.6832
  836MOL0     C12741  -0.561   9.166   8.357 -0.0414  0.5396  0.8932
  836MOL0     N12742  -0.655   9.275   8.377 -0.6004 -0.1449  0.3210
  836MOL0     C12743  -0.660   9.380   8.299  0.4480 -0.1994 -0.1104
  836MOL0     C12744  -0.752   9.468   8.353 -0.4927  0.4536  0.6282
  836MOL0     C12745  -0.766   9.613   8.321 -0.1914  0.6648  0.7712
  836MOL0     C12746  -0.892   9.647   8.250  0.3367  0.3059  1.0815
  836MOL0     C12747  -0.939   9.788   8.268  0.0424 -0.1025 -0.8951
  836MOL0     C12748  -1.062   9.825   8.178 -0.9349 -0.3230  0.1614
  836MOL0     O12749  -1.113   9.955   8.208 -0.8179  0.0592  0.0477
  836MOL0     C12750  -1.220   9.988   8.296 -0.0977 -0.4487  0.9758
  836MOL0     C12751  -1.253  10.120   8.302 -0.2667 -0.4983 -0.2066
  836MOL0     C12752  -1.375  10.158   8.363 -0.0477 -0.5651 -0.3877
  836MOL0     C12753  -1.467  10.065   8.422 -0.2645 -0.4041 -0.2258
  836MOL0     C12754  -1.604  10.112   8.461  0.1639  0.7907  0.6521
  836MOL0     O12755  -1.641  10.193   8.366  0.8370  0.4696  1.0505
  836MOL0     C12756  -1.773  10.242   8.384  0.4279  0.1214 -0.3768
  836MOL0     C12757  -1.803  10.330   8.493  0.3909  0.2193 -0.3029
  836MOL0     C12758  -1.931  10.370   8.505 -0.9180 -0.4106  0.2099
  836MOL0     C12759  -2.032  10.347   8.412 -0.4641  0.2973 -0.0917
  836MOL0     O12760  -2.148  10.423   8.428  0.7502 -0.3720  0.2858
  836MOL0     C12761  -2.257  10.391   8.349  0.7278 -0.1628  0.2281
  836MOL0     C12762  -2.395  10.447   8.402 -0.4934  0.0429 -0.0982
  836MOL0     C12763  -2.410  10.597   8.432 -1.0692  0.1078 -0.3493
  836MOL0     C12764  -2.551  10.641   8.452  0.7518  0.3287 -0.1408
  836MOL0     C12765  -2.576  10.789   8.422  0.6691  0.5509  0.0564
  836MOL0     C12766  -2.507  10.891   8.517 -0.0990  0.4207  1.0570
  836MOL0     C12767  -2.528  10.858   8.658  0.0783  0.2465 -0.0328
  836MOL0     C12768  -2.458  10.966   8.752 -0.4080 -0.4032 -0.5651
  836MOL0    Cl12769  -2.501  10.912   8.915  0.2063 -0.0130 -0.2600
  836MOL0     C12770  -1.992  10.278   8.304  0.6794 -0.0948 -0.4029
  836MOL0     C12771  -1.866  10.225   8.286  0.7147 -0.5132 -0.2567
  836MOL0     O12772  -1.664  10.059   8.547  0.7386 -0.1538 -0.6895
  836MOL0     C12773  -1.419   9.937   8.430  0.4267 -0.3173 -0.6631
  836MOL0     C12774  -1.306   9.892   8.354  0.0641 -0.9458 -0.6288
  836MOL0     N12775  -0.812   9.401   8.463  0.6854 -0.2147 -0.0990
  836MOL0     N12776  -0.752   9.282   8.472  1.0972 -0.0665 -0.2531
  836MOL0     C12777   0.153   8.540   8.383 -0.9589  0.2855  0.1505
  836MOL0     C12778   0.230   8.417   8.361  0.7120 -0.3899  0.1907
  836MOL0     C12779   0.505   8.075   8.468  0.0553  0.4826 -0.9741
  836MOL0     C12780   0.434   7.951   8.478 -0.2498  0.4860  0.1160
  836MOL0     C12781   0.492   7.832   8.513 -0.6413  0.2215 -0.6960
  836MOL0     C12782   0.631   7.827   8.559  0.3474 -0.7001 -0.1750
  836MOL0     O12783   0.686   7.704   8.596  0.3928 -0.0904  0.7773
  836MOL0     C12784   0.824   7.704   8.629 -0.1426 -0.5397  0.0468
  836MOL0     C12785   0.863   7.560   8.628  0.5726  0.3524  0.4356
  836MOL0     C12786   1.004   7.529   8.689  0.7555  0.7746 -1.0133
  836MOL0     C12787   1.052   7.389   8.673 -0.3859  0.0355  0.3550
  836MOL0     C12788   0.966   7.301   8.744 -0.5719 -0.6402 -0.2184
  836MOL0     C12789   0.921   7.224   8.819 -0.1301  0.0216  0.4237
  836MOL0     C12790   0.704   7.950   8.558  0.4588 -0.3407  0.1314
  836MOL0     C12791   0.639   8.070   8.509 -0.2455 -0.0937 -0.9714
  836MOL0     C12792   0.717   8.197   8.519  0.1462 -0.3926 -0.1962
  836MOL0     H12793   0.101   8.248   8.630  0.1435 -1.4177 -0.9098
  836MOL0     H12794  -0.005   8.467   8.674  0.5656  0.4623  1.9995
  836MOL0     H12795  -0.136   8.645   8.637 -0.3940  0.7681  1.8513
  836MOL0     H12796   0.002   8.747   8.691  1.0784  0.6915 -1.6532
  836MOL0     H12797  -0.189   8.878   8.655 -0.1233  0.5469 -0.4753
  836MOL0     H12798  -0.221   8.826   8.497  1.5111  1.1905 -0.8846
  836MOL0     H12799  -0.005   8.944   8.419 -2.9845 -1.1439 -0.4918
  836MOL0     H12800   0.058   8.940   8.584  1.1950  0.9686 -1.0553
  836MOL0     H12801  -0.136   9.099   8.645 -0.0928  0.9923  0.1928
  836MOL0     H12802  -0.010   9.168   8.550  1.8721 -1.8914  1.4333
  836MOL0     H12803  -0.188   9.256   8.442 -4.5504 -0.7535  1.0434
  836MOL0     H12804  -0.112   9.145   8.340 -2.0787  0.0902 -1.6427
  836MOL0     H12805  -0.315   9.016   8.347  0.7992  0.0914 -0.8922
  836MOL0     H12806  -0.336   9.051   8.522  3.2410  1.4152  2.1436
  836MOL0     H12807  -0.375   9.262   8.296  0.8686  0.7389  0.1708
  836MOL0     H12808  -0.417   9.280   8.466 -1.6375 -1.3192  0.7479
  836MOL0     H12809  -0.556   9.122   8.257 -2.9971 -1.6117  1.5632
  836MOL0     H12810  -0.582   9.085   8.427  0.5057  0.0374  0.4970
  836MOL0     H12811  -0.603   9.392   8.208  0.3878  3.0360  0.1715
  836MOL0     H12812  -0.755   9.661   8.419  0.3321 -2.2211  2.2604
  836MOL0     H12813  -0.681   9.646   8.260 -0.5589 -0.0742 -0.1540
  836MOL0     H12814  -0.874   9.633   8.143 -3.3121 -2.1259  0.6019
  836MOL0     H12815  -0.977   9.584   8.277  0.9768  0.8061  4.6767
  836MOL0     H12816  -0.864   9.867   8.261  2.1653 -1.6195  2.4598
  836MOL0     H12817  -0.974   9.792   8.371 -0.7393  1.3229 -1.1866
  836MOL0     H12818  -1.140   9.749   8.183  0.6549 -2.1522 -1.0982
  836MOL0     H12819  -1.041   9.815   8.071 -1.3835 -0.1816  0.0633
  836MOL0     H12820  -1.180  10.189   8.260  1.7142 -2.0186  0.5633
  836MOL0     H12821  -1.401  10.261   8.343  0.4666 -0.5047 -0.7618
  836MOL0     H12822  -1.729  10.355   8.568 -1.0984  1.5224  0.7692
  836MOL0     H12823  -1.954  10.423   8.598 -0.2888  0.2192  0.0187
  836MOL0     H12824  -2.243  10.422   8.245 -2.1392  0.1537 -0.1559
  836MOL0     H12825  -2.262  10.283   8.365  1.3512 -0.0171  1.5353
  836MOL0     H12826  -2.469  10.420   8.327 -2.6892  3.8213  0.4536
  836MOL0     H12827  -2.403  10.397   8.499  2.5892  1.4808  1.0744
  836MOL0     H12828  -2.345  10.626   8.515  0.1474  0.5350 -1.4198
  836MOL0     H12829  -2.370  10.648   8.344  2.5536 -0.4694  0.7912
  836MOL0     H12830  -2.594  10.608   8.547 -0.5413 -1.5271 -1.2962
  836MOL0     H12831  -2.606  10.581   8.379 -3.9584  0.8836  2.5746
  836MOL0     H12832  -2.683  10.797   8.401  0.7952  0.3306 -0.7139
  836MOL0     H12833  -2.535  10.805   8.321 -0.3962 -1.6601 -0.7766
  836MOL0     H12834  -2.400  10.903   8.497 -0.7516  0.9172 -2.8088
  836MOL0     H12835  -2.550  10.990   8.503 -1.5477 -0.2991  0.1735
  836MOL0     H12836  -2.484  10.761   8.681  1.6144  0.5630 -1.3911
  836MOL0     H12837  -2.635  10.861   8.679  0.0808  1.4835 -0.0805
  836MOL0     H12838  -2.349  10.969   8.746 -0.2959 -0.3224  1.0674
  836MOL0     H12839  -2.492  11.068   8.731  0.4956 -0.0696 -0.4352
  836MOL0     H12840  -2.066  10.248   8.231 -0.4192 -1.1221  1.0647
  836MOL0     H12841  -1.843  10.151   8.211  0.7299 -2.0533  1.2184
  836MOL0     H12842  -1.484   9.865   8.479  3.1259 -1.3708  1.6509
  836MOL0     H12843  -1.280   9.788   8.371 -2.0747 -1.1066  2.6051
  836MOL0     H12844   0.153   8.619   8.307 -1.4934 -0.6744 -0.8746
  836MOL0     H12845   0.294   8.421   8.273  1.3192  0.3891  0.6524
  836MOL0     H12846   0.327   7.953   8.460 -0.2699 -2.0056 -0.3770
  836MOL0     H12847   0.450   7.733   8.502  1.4466 -0.5447 -2.7087
  836MOL0     H12848   0.827   7.759   8.724 -0.0606  1.8551 -1.2667
  836MOL0     H12849   0.882   7.760   8.555 -1.2020 -1.6994 -1.7312
  836MOL0     H12850   0.849   7.539   8.521  1.7132 -1.2260  0.5665
  836MOL0     H12851   0.795   7.497   8.686  2.4776 -1.5636  0.7240
  836MOL0     H12852   1.008   7.558   8.794  3.3088  1.2127 -1.1543
  836MOL0     H12853   1.071   7.599   8.637  0.9665 -0.0333 -1.8443
  836MOL0     H12854   1.057   7.361   8.568 -1.1118 -0.8575  0.5443
  836MOL0     H12855   1.155   7.391   8.712 -0.9037  4.2395  2.0493
  836MOL0     H12856   0.883   7.156   8.893  0.5118 -2.3732 -1.3194
  836MOL0     H12857   0.809   7.965   8.582  0.5483  1.1087 -1.0202
  836MOL0     H12858   0.817   8.173   8.557 -0.3816 -1.0795  0.8087
  836MOL0     H12859   0.729   8.228   8.415 -0.6843  2.5821  0.4818
  836MOL0     H12860   0.661   8.274   8.573 -0.0548 -0.3549 -0.4551
  837MOL0     O12861   7.200   3.215  10.827  0.0165  0.6074  0.0320
  837MOL0     C12862   7.126   3.226  10.922 -0.2267 -0.4884  0.5417
  837MOL0     O12863   7.072   3.115  10.982  0.3474  0.5764  0.6467
  837MOL0     C12864   7.049   3.002  10.905 -0.2199 -0.1559  0.3138
  837MOL0     C12865   6.993   3.004  10.775 -0.0907 -0.0977 -0.0468
  837MOL0     C12866   6.976   2.883  10.702 -0.3161  0.1481 -0.0183
  837MOL0     C12867   7.022   2.756  10.754 -0.4481 -0.0573  0.5575
  837MOL0     O12868   7.005   2.644  10.682  0.0084  0.8893 -0.3865
  837MOL0     C12869   7.067   2.512  10.717  0.8347 -0.5497  0.6235
  837MOL0     C12870   7.030   2.391  10.627 -0.1070  0.6310 -0.2594
  837MOL0     C12871   7.086   2.386  10.483 -0.0396  0.0713 -0.8416
  837MOL0     C12872   7.048   2.262  10.406  0.0689  0.4839  0.1649
  837MOL0     C12873   7.114   2.258  10.261 -0.8495 -0.4889 -0.2553
  837MOL0     C12874   7.006   2.233  10.156 -0.1319  0.1316 -0.3927
  837MOL0     C12875   7.066   2.196  10.022  0.3340  0.1501 -0.8590
  837MOL0     C12876   6.959   2.153   9.928 -0.8866 -0.3992  0.6641
  837MOL0     N12877   7.008   2.136   9.791 -0.4595  0.3230 -0.2172
  837MOL0     C12878   7.003   2.233   9.703 -0.3712  0.0516  0.6867
  837MOL0     C12879   7.063   2.180   9.591 -0.3178  0.6502 -0.4943
  837MOL0     C12880   7.087   2.269   9.470 -0.3105 -0.0360 -0.2592
  837MOL0     C12881   7.182   2.225   9.362  1.1208  0.3656 -0.1426
  837MOL0     C12882   7.108   2.121   9.275 -1.1919 -0.6117 -0.5334
  837MOL0     C12883   7.187   1.989   9.230 -0.5023 -0.6025 -0.4009
  837MOL0     O12884   7.129   1.945   9.106  0.0857  0.3421 -0.5433
  837MOL0     C12885   7.171   1.831   9.047  0.4288 -0.3758  0.1258
  837MOL0     C12886   7.233   1.722   9.118 -0.2311  0.7435  1.4427
  837MOL0     C12887   7.265   1.600   9.064 -0.5451  0.6755  0.3979
  837MOL0     C12888   7.225   1.579   8.928  0.5030 -0.2981 -0.0166
  837MOL0     C12889   7.251   1.451   8.864 -0.8575 -0.4265 -0.8273
  837MOL0     O12890   7.342   1.374   8.929  0.0580  0.1799  0.6258
  837MOL0     C12891   7.383   1.250   8.878 -0.3247 -0.2181 -0.4408
  837MOL0     C12892   7.414   1.212   8.746 -0.5104 -0.6416 -0.3487
  837MOL0     C12893   7.465   1.093   8.709 -0.3070 -0.2064  1.1224
  837MOL0     C12894   7.465   0.989   8.796 -0.6145  0.2633 -0.1595
  837MOL0     O12895   7.506   0.865   8.749  0.7625 -0.5590 -0.5498
  837MOL0     C12896   7.621   0.823   8.840 -0.3733 -0.0512  0.5810
  837MOL0     C12897   7.737   0.786   8.748 -0.5931  0.1341  0.1916
  837MOL0     C12898   7.863   0.765   8.818  0.9273  0.8363 -0.7423
  837MOL0     C12899   7.973   0.727   8.727 -0.4053  0.5527  0.0702
  837MOL0     C12900   8.080   0.650   8.799 -0.5104  0.0178  0.5887
  837MOL0     C12901   8.175   0.575   8.714  0.5767  0.3298 -0.4041
  837MOL0     C12902   8.271   0.484   8.796 -0.5593  0.5562  0.0834
  837MOL0     C12903   8.375   0.420   8.703 -0.6379 -0.0182  0.2953
  837MOL0    Cl12904   8.507   0.325   8.785 -0.3371 -0.0300 -0.0345
  837MOL0     C12905   7.425   1.014   8.928 -0.1084  0.6087 -0.0867
  837MOL0     C12906   7.399   1.149   8.967 -0.4014  1.0654 -0.8618
  837MOL0     O12907   7.205   1.427   8.757  0.4575 -0.4607  0.1693
  837MOL0     C12908   7.148   1.680   8.856  0.1405  0.6588 -0.3674
  837MOL0     C12909   7.129   1.801   8.917 -0.5137  0.9198 -0.9776
  837MOL0     N12910   7.109   2.053   9.616 -0.8317  0.1593 -0.4022
  837MOL0     N12911   7.073   2.027   9.734  0.0634  0.1132 -0.3171
  837MOL0     C12912   7.075   2.759  10.891 -0.3173 -0.2375  0.2967
  837MOL0     C12913   7.091   2.883  10.962  0.5091  0.7583  0.6000
  837MOL0     C12914   7.144   3.346  11.000  0.1513 -1.0659 -0.1982
  837MOL0     C12915   7.150   3.330  11.137  0.9510  0.0067 -0.9708
  837MOL0     C12916   7.181   3.446  11.217 -0.2688  0.0134  0.5898
  837MOL0     C12917   7.196   3.571  11.169  0.2043 -0.3261  0.9624
  837MOL0     O12918   7.235   3.671  11.261  0.0148 -0.1261 -0.3289
  837MOL0     C12919   7.294   3.793  11.211 -0.3901 -0.8081  0.7617
  837MOL0     C12920   7.193   3.914  11.210 -0.2008  0.1772 -0.8469
  837MOL0     C12921   7.265   4.042  11.150  0.7351  0.2413 -0.6055
  837MOL0     C12922   7.172   4.163  11.129 -0.1459  0.6122 -0.0716
  837MOL0     C12923   7.069   4.143  11.026 -0.1731  0.1586  1.1686
  837MOL0     C12924   6.987   4.103  10.941  0.3701 -0.5144  0.5346
  837MOL0     C12925   7.186   3.589  11.026 -0.8305 -0.2985 -0.2628
  837MOL0     C12926   7.162   3.477  10.946  0.4261 -0.4401  0.6922
  837MOL0     C12927   7.176   3.500  10.792 -0.2779 -0.0563 -0.6750
  837MOL0     H12928   6.956   3.095  10.728  2.2303  0.8431 -0.1687
  837MOL0     H12929   6.951   2.896  10.597  2.0638 -1.8758 -0.9507
  837MOL0     H12930   7.177   2.517  10.721  0.8008  0.2889  0.7289
  837MOL0     H12931   7.032   2.488  10.818  0.8956 -0.3874  0.6833
  837MOL0     H12932   6.921   2.396  10.626 -0.3613 -2.8501 -0.8033
  837MOL0     H12933   7.064   2.298  10.674  3.0134  1.0870 -1.3587
  837MOL0     H12934   7.194   2.403  10.469 -0.6774  1.9217 -4.8275
  837MOL0     H12935   7.034   2.466  10.431 -1.9538 -1.2722 -1.0945
  837MOL0     H12936   7.074   2.171  10.462 -4.1494 -2.3110 -1.8573
  837MOL0     H12937   6.939   2.252  10.395 -0.1317  0.2649  2.0697
  837MOL0     H12938   7.162   2.353  10.234  0.7834 -1.0639  0.5278
  837MOL0     H12939   7.200   2.191  10.257 -0.7531 -0.3863  0.0043
  837MOL0     H12940   6.947   2.148  10.191 -2.0394  1.1506 -0.9733
  837MOL0     H12941   6.941   2.321  10.147  2.7251  2.3039 -0.9621
  837MOL0     H12942   7.147   2.126  10.043  1.1340  1.8139  2.1986
  837MOL0     H12943   7.111   2.285   9.977  1.3648  0.4006  0.5656
  837MOL0     H12944   6.925   2.057   9.968  0.3986 -0.5059  1.5525
  837MOL0     H12945   6.865   2.210   9.923 -1.4815 -1.4347 -2.7359
  837MOL0     H12946   6.973   2.335   9.727 -0.4414  0.2286 -0.1232
  837MOL0     H12947   7.000   2.327   9.437  1.1876  2.1971 -0.5073
  837MOL0     H12948   7.138   2.356   9.511 -3.0243  1.7287 -0.3639
  837MOL0     H12949   7.216   2.307   9.299  1.6034  0.0741 -0.2659
  837MOL0     H12950   7.276   2.186   9.404  0.2026  0.1880  1.8786
  837MOL0     H12951   7.085   2.165   9.177  4.3162  0.7490 -1.5559
  837MOL0     H12952   7.010   2.100   9.320 -2.1408  1.8729 -1.2601
  837MOL0     H12953   7.183   1.916   9.311  2.6793 -1.0801 -0.5602
  837MOL0     H12954   7.293   2.013   9.227  0.3543 -3.9752 -1.7194
  837MOL0     H12955   7.265   1.741   9.220  2.2561 -0.1202  0.9061
  837MOL0     H12956   7.315   1.522   9.121  0.2554 -0.0036 -1.1920
  837MOL0     H12957   7.407   1.289   8.669 -0.5562 -1.1643 -0.8794
  837MOL0     H12958   7.507   1.073   8.611 -0.1204 -1.3729  1.4195
  837MOL0     H12959   7.638   0.902   8.914 -1.8467  0.1113  0.7734
  837MOL0     H12960   7.586   0.738   8.898 -2.4709  0.6279  0.4033
  837MOL0     H12961   7.709   0.694   8.696  0.0207 -1.1817  2.0947
  837MOL0     H12962   7.762   0.866   8.677  3.5203 -0.7914  0.3221
  837MOL0     H12963   7.887   0.850   8.882  0.7862  0.4628 -0.1928
  837MOL0     H12964   7.837   0.683   8.885  2.3115  0.2859 -0.8493
  837MOL0     H12965   8.031   0.810   8.685  0.4722  0.5399  1.2039
  837MOL0     H12966   7.931   0.669   8.644 -1.0364 -0.0578  0.8018
  837MOL0     H12967   8.039   0.567   8.858 -1.2330  1.1268  1.7100
  837MOL0     H12968   8.125   0.716   8.874 -0.4764  3.7797 -2.4558
  837MOL0     H12969   8.122   0.512   8.642 -0.4634 -1.3292  1.7070
  837MOL0     H12970   8.225   0.653   8.655  0.0829 -0.6061 -2.1453
  837MOL0     H12971   8.224   0.402   8.852  0.7546  0.4594  1.1130
  837MOL0     H12972   8.331   0.551   8.859 -0.3140  1.5953 -1.2254
  837MOL0     H12973   8.324   0.345   8.643 -4.9781 -1.8034  5.4264
  837MOL0     H12974   8.423   0.505   8.652 -0.3092 -0.9547 -1.0022
  837MOL0     H12975   7.428   0.930   8.997  1.0912 -0.1850 -1.0566
  837MOL0     H12976   7.372   1.170   9.069 -0.5477  2.5951 -1.1920
  837MOL0     H12977   7.125   1.671   8.750 -1.4479  2.6659 -0.2720
  837MOL0     H12978   7.070   1.879   8.871 -0.1521  2.4966  1.0579
  837MOL0     H12979   7.089   2.665  10.945  0.5656 -0.3204 -0.0664
  837MOL0     H12980   7.130   2.881  11.063  0.0753 -0.8227  0.7577
  837MOL0     H12981   7.156   3.235  11.189 -1.0559 -0.7058 -1.9526
  837MOL0     H12982   7.194   3.415  11.320 -0.7049 -0.6844  0.4431
  837MOL0     H12983   7.334   3.784  11.110 -0.7164  0.8157  0.4508
  837MOL0     H12984   7.379   3.821  11.273 -1.1262  0.3006  1.3036
  837MOL0     H12985   7.150   3.925  11.309 -1.3396 -1.1943 -1.1645
  837MOL0     H12986   7.104   3.893  11.150  1.3123 -1.7685 -2.5660
  837MOL0     H12987   7.323   4.013  11.062  1.7865 -1.2400  0.5197
  837MOL0     H12988   7.331   4.086  11.225 -2.1451  1.4002  1.4266
  837MOL0     H12989   7.120   4.179  11.224 -1.0622 -3.9501  0.4139
  837MOL0     H12990   7.231   4.251  11.104  0.3749  0.1747 -0.3913
  837MOL0     H12991   6.935   4.060  10.858 -1.9728  1.3979  0.8900
  837MOL0     H12992   7.203   3.687  10.982 -0.7858 -1.4158 -2.9354
  837MOL0     H12993   7.272   3.455  10.764  0.0043  1.5487 -2.4815
  837MOL0     H12994   7.087   3.460  10.743 -1.8192  0.5001  1.5252
  837MOL0     H12995   7.187   3.604  10.760  1.0146 -0.2196 -0.8222
  838MOL0     O12996   3.557   0.071   2.123  0.2402  1.4983  0.0186
  838MOL0     C12997   3.611  -0.030   2.083  0.7138  0.0033 -0.0523
  838MOL0     O12998   3.696  -0.038   1.983  0.0724 -0.2703  0.7185
  838MOL0     C12999   3.716   0.064   1.897  0.1039 -0.2788  0.2148
  838MOL0     C13000   3.606   0.100   1.818 -0.1856  0.2083  1.0793
  838MOL0     C13001   3.619   0.203   1.726 -0.2407  0.2294  0.7708
  838MOL0     C13002   3.741   0.262   1.707 -0.0366  0.0076 -0.5279
  838MOL0     O13003   3.737   0.363   1.619 -0.8517 -0.4754 -0.6926
  838MOL0     C13004   3.856   0.398   1.545 -0.0584 -0.0681  0.2425
  838MOL0     C13005   3.827   0.528   1.476  0.0920  0.2766 -0.4533
  838MOL0     C13006   3.960   0.585   1.411  0.0739 -0.1035 -0.0779
  838MOL0     C13007   4.036   0.473   1.338 -1.0160 -0.7067  0.1333
  838MOL0     C13008   4.152   0.515   1.255  1.1573  0.3828 -0.8667
  838MOL0     C13009   4.100   0.585   1.125  0.1875 -0.6990  0.9208
  838MOL0     C13010   4.114   0.502   1.001  0.7451 -0.2656  0.4952
  838MOL0     C13011   4.076   0.591   0.879  0.0771  0.0465  0.1550
  838MOL0     N13012   4.060   0.505   0.764  0.0809  0.5863  0.0966
  838MOL0     C13013   3.962   0.400   0.759 -0.4148 -0.0943  0.0132
  838MOL0     C13014   3.965   0.351   0.638 -0.4234 -0.2727 -0.3236
  838MOL0     C13015   3.859   0.256   0.594  0.4261 -0.0237  0.1645
  838MOL0     C13016   3.894   0.183   0.463 -0.1494 -0.3333  0.5122
  838MOL0     C13017   3.773   0.165   0.379  0.3584  0.1436  0.0278
  838MOL0     C13018   3.770   0.042   0.295 -0.3335  1.3323 -0.8500
  838MOL0     O13019   3.862   0.049   0.191  0.4332 -0.6752 -0.1193
  838MOL0     C13020   3.991   0.014   0.217 -0.3726  0.6494 -0.9173
  838MOL0     C13021   4.049  -0.064   0.321 -0.4635  0.0593  0.5425
  838MOL0     C13022   4.188  -0.096   0.323 -0.4147 -0.3414  0.8249
  838MOL0     C13023   4.266  -0.047   0.216 -0.4651 -0.2153 -0.3822
  838MOL0     C13024   4.410  -0.079   0.217 -0.2949 -0.1516 -0.0433
  838MOL0     O13025   4.459  -0.158   0.317  0.4150 -0.0512  0.1445
  838MOL0     C13026   4.600  -0.186   0.338  0.0275  0.1113  0.9975
  838MOL0     C13027   4.686  -0.232   0.240  0.9631 -0.3159 -0.6320
  838MOL0     C13028   4.827  -0.243   0.259 -0.4756 -1.3601  0.3172
  838MOL0     C13029   4.878  -0.222   0.397  0.1185 -0.3576 -0.3708
  838MOL0     O13030   5.013  -0.232   0.423 -0.2119 -0.6083  0.0378
  838MOL0     C13031   5.059  -0.144   0.520  0.5998 -0.1114  0.0127
  838MOL0     C13032   5.086  -0.188   0.666  0.3714  0.0626 -0.2578
  838MOL0     C13033   5.154  -0.317   0.691  0.3667  0.0839 -0.2793
  838MOL0     C13034   5.068  -0.436   0.707 -0.3332  0.1396 -0.1308
  838MOL0     C13035   5.007  -0.436   0.846 -0.0747  0.9098  0.7232
  838MOL0     C13036   4.934  -0.573   0.867  0.4758  0.4074 -1.1608
  838MOL0     C13037   4.822  -0.564   0.981  0.1982  0.9775 -0.7907
  838MOL0     C13038   4.676  -0.595   0.951  0.1148  0.1682  1.4632
  838MOL0    Cl13039   4.623  -0.473   0.831 -0.5693 -0.3332 -0.1267
  838MOL0     C13040   4.786  -0.197   0.500 -0.6383 -0.3660  0.2687
  838MOL0     C13041   4.649  -0.190   0.466  0.0642  0.1356 -0.6569
  838MOL0     O13042   4.482  -0.030   0.129 -0.4002 -0.1976  0.0079
  838MOL0     C13043   4.207   0.022   0.114 -0.4443  0.2544  0.0224
  838MOL0     C13044   4.073   0.050   0.117  0.3647 -1.0944  0.5686
  838MOL0     N13045   4.091   0.379   0.582 -0.2916 -0.1417  0.4676
  838MOL0     N13046   4.134   0.482   0.658 -0.1976 -0.8773  0.5313
  838MOL0     C13047   3.847   0.230   1.789  0.4779 -1.0697  0.1235
  838MOL0     C13048   3.842   0.127   1.879 -0.2447  0.5031  0.5255
  838MOL0     C13049   3.586  -0.162   2.153 -0.0673 -0.1642 -1.3854
  838MOL0     C13050   3.640  -0.283   2.107  0.0659  0.0806 -0.1604
  838MOL0     C13051   3.630  -0.404   2.181  0.5560 -0.1447 -0.1858
  838MOL0     C13052   3.569  -0.405   2.307  0.2763 -0.1423  0.5526
  838MOL0     O13053   3.561  -0.519   2.373 -0.1398  0.6880  0.0594
  838MOL0     C13054   3.432  -0.555   2.421  0.1888 -0.2558  0.1079
  838MOL0     C13055   3.436  -0.701   2.468  0.3393  0.6489  0.2022
  838MOL0     C13056   3.545  -0.735   2.574 -0.3441  0.7522  0.4824
  838MOL0     C13057   3.535  -0.889   2.608  0.5563 -0.3274 -0.2087
  838MOL0     C13058   3.671  -0.946   2.583  0.1278  0.3123  0.3057
  838MOL0     C13059   3.782  -0.987   2.593  0.7474  0.3215  0.3623
  838MOL0     C13060   3.523  -0.284   2.358  0.0827 -0.4381  0.2959
  838MOL0     C13061   3.531  -0.161   2.283 -0.8375  0.0643 -0.6923
  838MOL0     C13062   3.478  -0.035   2.353  0.2264  0.0340 -0.0359
  838MOL0     H13063   3.515   0.042   1.828 -0.6887  0.6993 -0.3452
  838MOL0     H13064   3.541   0.227   1.655  0.0663 -1.8296 -0.3333
  838MOL0     H13065   3.947   0.401   1.606 -0.9520 -3.1124  1.9976
  838MOL0     H13066   3.869   0.319   1.470 -0.5201  0.4151 -0.3495
  838MOL0     H13067   3.791   0.605   1.544  0.9536  1.7462 -1.5955
  838MOL0     H13068   3.756   0.509   1.395 -0.2440 -0.0455 -0.0898
  838MOL0     H13069   4.016   0.620   1.498  0.0559  0.0189 -0.1144
  838MOL0     H13070   3.943   0.673   1.349  1.2056  0.5073  0.4521
  838MOL0     H13071   4.067   0.396   1.409 -0.8668 -0.3748  0.4312
  838MOL0     H13072   3.972   0.408   1.278 -0.5683 -1.3851  0.3852
  838MOL0     H13073   4.215   0.579   1.318 -1.4601 -0.2599  2.7793
  838MOL0     H13074   4.212   0.424   1.239  4.2067  1.6768  1.8794
  838MOL0     H13075   4.003   0.626   1.151  0.7174  0.2928  1.3884
  838MOL0     H13076   4.161   0.676   1.122  0.5738 -0.8694 -3.3317
  838MOL0     H13077   4.042   0.420   1.001 -0.4534  0.6286 -2.4818
  838MOL0     H13078   4.218   0.473   0.985  0.9592  0.8313 -0.2532
  838MOL0     H13079   3.974   0.627   0.883 -0.1128 -0.3503 -0.7839
  838MOL0     H13080   4.135   0.677   0.847 -1.6575  1.6311  1.0311
  838MOL0     H13081   3.879   0.389   0.828 -0.5939  0.3780 -0.1201
  838MOL0     H13082   3.838   0.190   0.678  2.2437  0.9718  1.4676
  838MOL0     H13083   3.769   0.317   0.586 -1.2746 -1.5650  4.5179
  838MOL0     H13084   3.968   0.233   0.400 -1.1245 -3.0667 -3.1938
  838MOL0     H13085   3.930   0.085   0.495  1.2386 -0.4838 -1.3844
  838MOL0     H13086   3.772   0.257   0.319  1.7218 -0.6511 -1.3101
  838MOL0     H13087   3.681   0.161   0.437  0.4308  0.7820  0.1988
  838MOL0     H13088   3.670   0.031   0.253 -0.4325  1.8250 -0.7480
  838MOL0     H13089   3.794  -0.046   0.356 -0.4898  1.4828 -0.5710
  838MOL0     H13090   3.997  -0.116   0.401  2.0834  1.9568  3.6713
  838MOL0     H13091   4.221  -0.153   0.410  1.4204  0.0889  0.4419
  838MOL0     H13092   4.651  -0.251   0.139 -0.4825 -0.3356 -0.1419
  838MOL0     H13093   4.893  -0.273   0.179  0.2857 -0.6123  0.6540
  838MOL0     H13094   5.158  -0.111   0.487  1.3809 -2.9106 -0.7094
  838MOL0     H13095   4.999  -0.053   0.517  0.2035 -0.3893 -2.2231
  838MOL0     H13096   5.139  -0.109   0.720 -1.9456  0.7969  1.0821
  838MOL0     H13097   4.989  -0.194   0.715  1.6729 -3.3377  2.3320
  838MOL0     H13098   5.218  -0.332   0.603 -0.0913  1.9065 -0.9738
  838MOL0     H13099   5.222  -0.305   0.776  1.2704 -2.9117 -0.4708
  838MOL0     H13100   5.124  -0.524   0.675  1.8431  0.9040  1.3630
  838MOL0     H13101   4.977  -0.424   0.646 -2.6224 -1.0006  2.7912
  838MOL0     H13102   4.942  -0.348   0.854 -1.1356  0.4726 -2.0085
  838MOL0     H13103   5.082  -0.405   0.920  1.5943 -2.0832  0.4580
  838MOL0     H13104   4.881  -0.608   0.779 -0.8814 -0.1319 -0.1636
  838MOL0     H13105   5.011  -0.643   0.900  0.2467  0.9420  0.6159
  838MOL0     H13106   4.826  -0.464   1.025 -0.7011  1.5458 -1.9510
  838MOL0     H13107   4.849  -0.642   1.053 -0.3160 -0.6150 -2.2501
  838MOL0     H13108   4.668  -0.695   0.906  4.3895  0.7756 -1.2720
  838MOL0     H13109   4.612  -0.580   1.038 -1.5184 -0.4048  0.4134
  838MOL0     H13110   4.810  -0.178   0.604  0.5012 -0.3655  0.0224
  838MOL0     H13111   4.577  -0.182   0.547 -0.3156 -1.3655 -0.8265
  838MOL0     H13112   4.264   0.059   0.028  1.1633  0.4665  1.1328
  838MOL0     H13113   4.029   0.102   0.032  0.2806 -1.6155  0.2893
  838MOL0     H13114   3.937   0.290   1.777 -0.6093  0.9484  1.4386
  838MOL0     H13115   3.922   0.103   1.947  0.9762 -1.4089 -1.4725
  838MOL0     H13116   3.702  -0.280   2.018  0.7505  0.8988  0.3310
  838MOL0     H13117   3.673  -0.487   2.127 -0.4238  0.0067 -1.2260
  838MOL0     H13118   3.367  -0.532   2.335  1.3743  3.5608  0.0771
  838MOL0     H13119   3.405  -0.496   2.508  2.9771  1.2696  0.0539
  838MOL0     H13120   3.450  -0.772   2.386  2.4966  2.5073 -1.1628
  838MOL0     H13121   3.336  -0.724   2.506 -0.5647  1.7667 -1.3750
  838MOL0     H13122   3.531  -0.674   2.663  5.0773  3.7301 -0.2634
  838MOL0     H13123   3.645  -0.706   2.541 -0.0984  0.6035  1.0918
  838MOL0     H13124   3.506  -0.888   2.714 -0.1348  1.5017 -0.3762
  838MOL0     H13125   3.460  -0.953   2.561  3.3000 -1.3361 -3.6772
  838MOL0     H13126   3.879  -1.019   2.624  0.3234  0.6965  2.1773
  838MOL0     H13127   3.483  -0.258   2.455 -1.6090  1.6253 -0.8661
  838MOL0     H13128   3.444  -0.048   2.456  1.2769  3.1464  0.8125
  838MOL0     H13129   3.562   0.034   2.366  2.7911 -2.6440 -0.9223
  838MOL0     H13130   3.393   0.019   2.311 -0.5948  0.2345  1.7799
  839MOL0     O13131   3.324   5.472   7.443  0.5613  0.4500 -0.1064
  839MOL0     C13132   3.244   5.396   7.396  0.3823  0.8604  0.2997
  839MOL0     O13133   3.275   5.265   7.366  0.3678 -0.5830 -0.5904
  839MOL0     C13134   3.416   5.219   7.377  0.2510 -0.7681  0.3313
  839MOL0     C13135   3.472   5.187   7.507 -0.8261  0.2611 -0.2493
  839MOL0     C13136   3.603   5.143   7.509  0.4309 -0.8012 -0.2319
  839MOL0     C13137   3.688   5.144   7.397 -0.4393  0.1376  0.1277
  839MOL0     O13138   3.821   5.110   7.416  0.5139  0.4502  0.3921
  839MOL0     C13139   3.920   5.155   7.321  0.1969  0.0321  0.3500
  839MOL0     C13140   4.054   5.148   7.397 -0.0248 -0.4972  1.2449
  839MOL0     C13141   4.104   5.002   7.411  0.2979 -0.2399  0.1716
  839MOL0     C13142   4.226   4.980   7.495  0.5359 -0.3464  1.1013
  839MOL0     C13143   4.239   5.045   7.634 -0.8573 -0.4710 -0.4743
  839MOL0     C13144   4.364   4.981   7.710 -0.5172 -1.1391  0.4382
  839MOL0     C13145   4.365   5.004   7.861 -0.2639  0.1597 -0.2747
  839MOL0     C13146   4.478   5.114   7.886  0.2256 -0.5390 -0.0694
  839MOL0     N13147   4.619   5.065   7.866  0.0000 -0.2665 -1.0770
  839MOL0     C13148   4.669   4.936   7.891  0.5677  0.0352  1.0108
  839MOL0     C13149   4.798   4.945   7.841  0.6691 -0.1931  0.6648
  839MOL0     C13150   4.918   4.857   7.855 -0.5230  0.0149 -0.5777
  839MOL0     C13151   4.987   4.826   7.724 -0.9204  0.6207  0.0555
  839MOL0     C13152   4.903   4.725   7.632 -0.0189 -0.3387 -0.6612
  839MOL0     C13153   4.987   4.662   7.528  0.6954  0.3161  0.4069
  839MOL0     O13154   4.933   4.534   7.497  0.1906  0.6260 -0.0257
  839MOL0     C13155   4.999   4.459   7.402  0.4190  0.0296 -0.0748
  839MOL0     C13156   4.928   4.342   7.350 -0.0082 -0.8580  0.8254
  839MOL0     C13157   4.983   4.261   7.250  0.3477 -0.5510  0.2035
  839MOL0     C13158   5.122   4.293   7.206 -0.1550  0.2437 -0.0973
  839MOL0     C13159   5.199   4.202   7.120 -0.6551 -0.8067  0.0239
  839MOL0     O13160   5.188   4.068   7.139  0.1854 -0.4233  0.0747
  839MOL0     C13161   5.239   3.997   7.040  0.1976  0.0491  0.4016
  839MOL0     C13162   5.158   3.958   6.927 -0.5933  0.4279  0.0396
  839MOL0     C13163   5.210   3.887   6.823  0.4218 -0.6528  0.0762
  839MOL0     C13164   5.339   3.839   6.829 -1.6289 -0.4847 -0.3849
  839MOL0     O13165   5.381   3.753   6.729 -0.8795  0.0022  0.4775
  839MOL0     C13166   5.429   3.829   6.616  0.1938 -0.7965 -0.1402
  839MOL0     C13167   5.576   3.874   6.635 -0.3989  0.7743 -0.7729
  839MOL0     C13168   5.650   3.750   6.690 -0.0667  0.0203  0.0311
  839MOL0     C13169   5.792   3.753   6.643  0.1261 -0.4658 -1.1171
  839MOL0     C13170   5.857   3.882   6.699  0.4726  0.4057  0.6203
  839MOL0     C13171   6.012   3.866   6.730  0.7558 -0.1475 -0.3480
  839MOL0     C13172   6.084   3.850   6.607 -1.3957 -0.8812  0.4993
  839MOL0     C13173   6.243   3.873   6.631  0.2864 -0.0268  0.6921
  839MOL0    Cl13174   6.329   3.788   6.498  0.1541 -0.2503  0.1612
  839MOL0     C13175   5.416   3.869   6.940 -0.9013  0.3693  0.5560
  839MOL0     C13176   5.367   3.949   7.047 -0.8281  0.1548  0.6985
  839MOL0     O13177   5.263   4.257   7.029  0.1255 -1.1571  0.0203
  839MOL0     C13178   5.183   4.402   7.258 -0.8780 -0.0106 -0.6702
  839MOL0     C13179   5.129   4.484   7.355  0.3358 -0.0114 -0.2252
  839MOL0     N13180   4.807   5.064   7.772 -0.7384 -0.7178 -0.3711
  839MOL0     N13181   4.702   5.130   7.777 -0.3403  0.4181  1.0375
  839MOL0     C13182   3.640   5.182   7.274 -0.2986 -0.3814  0.2833
  839MOL0     C13183   3.501   5.225   7.262  0.1351  0.6135 -0.3537
  839MOL0     C13184   3.112   5.438   7.345 -0.1826  0.5813 -0.0159
  839MOL0     C13185   3.085   5.574   7.352  1.0956  0.5151 -0.6082
  839MOL0     C13186   2.966   5.629   7.302 -1.1113 -0.4422  0.4920
  839MOL0     C13187   2.863   5.550   7.253 -0.4494  0.1871  0.0540
  839MOL0     O13188   2.749   5.610   7.211 -0.0253 -0.1025 -0.2592
  839MOL0     C13189   2.748   5.599   7.068 -1.0781  0.3954  0.1335
  839MOL0     C13190   2.819   5.723   7.003  0.0788  0.9904 -0.3286
  839MOL0     C13191   2.754   5.861   7.032 -0.4454  0.6847 -0.3649
  839MOL0     C13192   2.607   5.849   7.041 -0.0346 -0.3702  0.3063
  839MOL0     C13193   2.544   5.983   7.024 -0.7642 -1.1751 -0.0576
  839MOL0     C13194   2.507   6.095   7.039  0.0291  0.2470 -0.0215
  839MOL0     C13195   2.883   5.414   7.248  1.2324  0.6887 -1.1095
  839MOL0     C13196   3.002   5.362   7.288  0.6554 -0.0515 -0.8734
  839MOL0     C13197   3.007   5.214   7.265 -0.1045 -0.0333  0.4464
  839MOL0     H13198   3.408   5.189   7.594 -1.5912 -1.2215 -0.7422
  839MOL0     H13199   3.648   5.117   7.604  1.3345  1.7691  0.1135
  839MOL0     H13200   3.922   5.083   7.238  2.6806 -0.3816  0.7144
  839MOL0     H13201   3.908   5.257   7.284  1.1749  0.9392  2.3882
  839MOL0     H13202   4.049   5.201   7.493  2.3740 -0.8245  1.5996
  839MOL0     H13203   4.128   5.196   7.332 -1.2600 -1.0099 -0.6290
  839MOL0     H13204   4.122   4.958   7.312 -1.2114 -2.1626  0.6923
  839MOL0     H13205   4.017   4.955   7.458 -0.4937  0.5458 -0.4658
  839MOL0     H13206   4.224   4.874   7.523 -0.2658 -0.3581  1.0281
  839MOL0     H13207   4.314   4.999   7.432 -0.2099  1.5045  0.5753
  839MOL0     H13208   4.266   5.150   7.621  2.2503 -1.2555 -1.0947
  839MOL0     H13209   4.154   5.040   7.703  0.1765  0.7844  0.9542
  839MOL0     H13210   4.355   4.874   7.686 -1.3812 -0.7535 -1.0888
  839MOL0     H13211   4.454   5.014   7.659 -2.1785  0.5494 -1.5692
  839MOL0     H13212   4.391   4.919   7.924  0.0169  0.5933  0.2091
  839MOL0     H13213   4.274   5.052   7.898 -0.1342  0.8352 -0.7936
  839MOL0     H13214   4.447   5.208   7.840 -0.2532 -1.2532 -1.2586
  839MOL0     H13215   4.479   5.126   7.995 -0.8162  2.9115 -0.3312
  839MOL0     H13216   4.611   4.864   7.947 -0.7048  0.7790  0.6858
  839MOL0     H13217   4.993   4.906   7.918 -0.4205  1.0723 -1.5028
  839MOL0     H13218   4.891   4.758   7.894 -0.1245  0.2824  0.4046
  839MOL0     H13219   5.013   4.915   7.666  2.0429  0.4793  1.0173
  839MOL0     H13220   5.076   4.781   7.768 -2.2319  0.5878  2.8807
  839MOL0     H13221   4.820   4.779   7.586 -0.4343 -1.0793 -0.7910
  839MOL0     H13222   4.861   4.651   7.700  1.2202 -0.6891 -0.2494
  839MOL0     H13223   5.093   4.660   7.552  0.9777 -1.8063 -0.7933
  839MOL0     H13224   4.982   4.724   7.437 -3.1145 -2.5067 -1.6171
  839MOL0     H13225   4.840   4.311   7.405  0.3164 -1.3016  1.0957
  839MOL0     H13226   4.927   4.176   7.213 -2.7138  1.4177  0.0483
  839MOL0     H13227   5.053   3.985   6.928 -1.4592 -2.4744  2.4546
  839MOL0     H13228   5.148   3.862   6.737 -0.6534 -0.0922  0.6669
  839MOL0     H13229   5.417   3.768   6.526 -0.1279  2.0215 -2.1240
  839MOL0     H13230   5.373   3.923   6.618  2.0410  0.4599  3.6900
  839MOL0     H13231   5.628   3.903   6.543  2.3834  2.6313  1.2355
  839MOL0     H13232   5.581   3.960   6.702 -1.0398  2.9555 -3.3430
  839MOL0     H13233   5.650   3.743   6.799 -1.1012  0.6456  0.0819
  839MOL0     H13234   5.612   3.654   6.652  2.2129 -0.6769 -0.6619
  839MOL0     H13235   5.798   3.765   6.535 -1.8338 -0.0783 -1.2124
  839MOL0     H13236   5.839   3.663   6.684  0.3160  0.2412  0.2977
  839MOL0     H13237   5.810   3.907   6.794  0.3796 -0.2609  0.7558
  839MOL0     H13238   5.854   3.966   6.628  2.3018  1.3456  1.5866
  839MOL0     H13239   6.044   3.960   6.777  2.5264 -0.2799 -1.2183
  839MOL0     H13240   6.031   3.787   6.802  2.6475 -2.1561 -2.8553
  839MOL0     H13241   6.053   3.928   6.536  0.7720 -0.5547 -0.1471
  839MOL0     H13242   6.085   3.753   6.557  0.7406 -1.2192  1.0992
  839MOL0     H13243   6.248   3.982   6.641 -0.6607  0.6700 -4.1032
  839MOL0     H13244   6.271   3.831   6.728 -1.6931 -1.5832  0.6383
  839MOL0     H13245   5.519   3.837   6.946 -1.1957 -0.5451  0.8175
  839MOL0     H13246   5.431   3.991   7.124  0.2972 -1.2700  0.5758
  839MOL0     H13247   5.277   4.431   7.213  0.4699 -3.4763 -0.4050
  839MOL0     H13248   5.191   4.564   7.393  0.9808 -0.6196  0.0324
  839MOL0     H13249   3.697   5.193   7.182 -1.4494  4.1648 -0.1447
  839MOL0     H13250   3.478   5.250   7.159  1.1072  1.3314 -0.4120
  839MOL0     H13251   3.165   5.629   7.401 -0.5269  0.9749  1.6738
  839MOL0     H13252   2.968   5.737   7.313  1.8651  0.0299 -2.8599
  839MOL0     H13253   2.645   5.592   7.032 -0.7989  0.7707 -0.7704
  839MOL0     H13254   2.802   5.510   7.033  0.3739  1.3140 -0.0249
  839MOL0     H13255   2.816   5.713   6.894 -2.0246 -1.2373 -0.1457
  839MOL0     H13256   2.920   5.725   7.044  0.7569  4.2594 -1.7887
  839MOL0     H13257   2.773   5.928   6.948 -0.8400  0.1133 -0.9179
  839MOL0     H13258   2.802   5.907   7.119  2.1492 -0.2472 -1.2128
  839MOL0     H13259   2.588   5.795   6.948  1.1607  3.7587 -2.5984
  839MOL0     H13260   2.568   5.799   7.131 -0.1842 -0.5070  0.1653
  839MOL0     H13261   2.484   6.199   7.046  0.6797  0.4889 -1.3287
  839MOL0     H13262   2.808   5.351   7.200  1.5777  0.4671 -1.3645
  839MOL0     H13263   3.039   5.166   7.359 -1.7985  1.6986  1.9949
  839MOL0     H13264   2.911   5.162   7.253  0.3751 -0.9723  0.5448
  839MOL0     H13265   3.079   5.187   7.187  3.4056 -0.4406  3.5245
  840MOL0     O13266   5.847   8.635  11.171 -0.1029  0.0683  0.0630
  840MOL0     C13267   5.966   8.683  11.168  0.7850  0.4689 -0.1824
  840MOL0     O13268   6.018   8.782  11.249  0.2452 -0.3262 -0.0521
  840MOL0     C13269   5.933   8.841  11.339  0.2921  1.6162  0.1456
  840MOL0     C13270   5.842   8.945  11.307 -0.6747  0.4121  1.2799
  840MOL0     C13271   5.753   9.006  11.395 -0.4588 -0.4058 -0.2264
  840MOL0     C13272   5.733   8.948  11.524  0.6308 -0.1586 -0.1423
  840MOL0     O13273   5.651   9.006  11.624 -0.1124 -0.6466 -0.0444
  840MOL0     C13274   5.533   9.073  11.595  0.1565 -0.0418  0.0879
  840MOL0     C13275   5.444   9.085  11.713  0.7761  0.4169  0.3573
  840MOL0     C13276   5.511   9.153  11.829  0.1555  0.2224 -0.9512
  840MOL0     C13277   5.542   9.301  11.803  0.2306 -0.8509  0.2081
  840MOL0     C13278   5.578   9.373  11.938 -0.0034 -0.3887 -1.0081
  840MOL0     C13279   5.732   9.337  11.981  0.6238 -0.2212 -0.5770
  840MOL0     C13280   5.827   9.428  11.906 -0.1293  0.2249 -0.2579
  840MOL0     C13281   5.974   9.368  11.899  0.1573 -0.5681  0.9353
  840MOL0     N13282   6.040   9.405  12.018 -0.0214  0.1509  0.4645
  840MOL0     C13283   6.111   9.319  12.089 -0.4253  0.4378  0.5599
  840MOL0     C13284   6.159   9.374  12.196 -0.6025 -0.4576 -0.3841
  840MOL0     C13285   6.233   9.304  12.305 -0.0596 -0.6290  0.0217
  840MOL0     C13286   6.206   9.146  12.313  0.5329 -0.3154  0.1992
  840MOL0     C13287   6.289   9.089  12.429 -0.7110 -0.1351 -0.5138
  840MOL0     C13288   6.240   9.107  12.575  0.2560 -0.6277  1.2648
  840MOL0     O13289   6.346   9.041  12.649  0.6900  0.0724  0.0498
  840MOL0     C13290   6.313   8.986  12.772 -0.3129  0.9815 -0.2736
  840MOL0     C13291   6.180   8.947  12.815  0.1638  0.3147  0.6794
  840MOL0     C13292   6.159   8.873  12.930  0.0382  0.3276 -0.1952
  840MOL0     C13293   6.269   8.826  12.996  0.2876  1.2028 -1.0531
  840MOL0     C13294   6.249   8.742  13.118  0.8398  0.2135  0.0394
  840MOL0     O13295   6.126   8.676  13.124 -0.5582  0.4209 -0.1748
  840MOL0     C13296   6.088   8.610  13.239 -0.1031 -0.2563 -0.0193
  840MOL0     C13297   5.955   8.594  13.228  0.4482  0.6059  0.4806
  840MOL0     C13298   5.882   8.527  13.324  0.2798  0.4855 -0.3636
  840MOL0     C13299   5.947   8.483  13.443  0.1621 -0.5753 -0.7392
  840MOL0     O13300   5.894   8.438  13.557  0.8163 -0.2159  0.3327
  840MOL0     C13301   5.767   8.362  13.537 -1.0016  0.0767  0.9199
  840MOL0     C13302   5.747   8.294  13.672 -0.0159  0.3253 -0.4871
  840MOL0     C13303   5.673   8.389  13.766  0.3714 -0.5363  0.1323
  840MOL0     C13304   5.685   8.349  13.913 -0.4692 -0.3173  0.1483
  840MOL0     C13305   5.598   8.423  14.009  0.3323  0.6648  0.2286
  840MOL0     C13306   5.648   8.385  14.150  0.6555 -0.1877 -0.2558
  840MOL0     C13307   5.556   8.456  14.252  0.2861 -0.5060  0.4611
  840MOL0     C13308   5.630   8.481  14.381  0.0594  0.6424 -0.3903
  840MOL0    Cl13309   5.507   8.457  14.507  0.3485 -0.4493 -0.0998
  840MOL0     C13310   6.086   8.516  13.455 -0.5483 -0.5030 -0.0778
  840MOL0     C13311   6.160   8.553  13.344 -0.2398  0.1701 -0.2324
  840MOL0     O13312   6.334   8.740  13.200  0.1357 -0.2324 -0.8139
  840MOL0     C13313   6.402   8.854  12.951 -0.2548  0.4664 -0.5444
  840MOL0     C13314   6.428   8.930  12.841  0.3520  0.2835 -0.2910
  840MOL0     N13315   6.128   9.507  12.181 -0.3041  0.1596  0.3044
  840MOL0     N13316   6.063   9.523  12.071  0.1436  0.2475  0.0047
  840MOL0     C13317   5.821   8.836  11.551 -0.1172 -0.0497 -0.2259
  840MOL0     C13318   5.919   8.782  11.460 -0.2154 -0.9498 -0.0699
  840MOL0     C13319   6.062   8.601  11.099  0.3852  1.1024 -0.1768
  840MOL0     C13320   6.190   8.593  11.150  1.7617  0.3108  0.0547
  840MOL0     C13321   6.277   8.510  11.084 -0.7761 -0.3403  0.4375
  840MOL0     C13322   6.255   8.458  10.957  0.3077 -0.5959 -1.1441
  840MOL0     O13323   6.357   8.392  10.890  0.6379  0.9668  0.4105
  840MOL0     C13324   6.491   8.437  10.895 -0.3555  0.2176  0.2019
  840MOL0     C13325   6.525   8.584  10.870 -0.8714  0.5792 -0.3028
  840MOL0     C13326   6.478   8.631  10.733  0.4266 -0.5459  0.0329
  840MOL0     C13327   6.533   8.552  10.615 -0.0050 -0.9185 -0.5673
  840MOL0     C13328   6.668   8.587  10.616  0.6088 -0.4103  0.7274
  840MOL0     C13329   6.784   8.626  10.609 -0.2318 -0.2691 -1.0041
  840MOL0     C13330   6.120   8.462  10.905 -1.1803 -0.8774  0.9512
  840MOL0     C13331   6.027   8.537  10.970 -0.0022  0.0715 -0.3828
  840MOL0     C13332   5.888   8.537  10.909 -0.0323 -1.1511 -0.6567
  840MOL0     H13333   5.867   9.001  11.217 -0.5284  0.0546  1.0940
  840MOL0     H13334   5.695   9.095  11.375 -3.0319 -1.7066  1.0143
  840MOL0     H13335   5.558   9.171  11.553  0.5535 -0.5384 -0.8733
  840MOL0     H13336   5.471   9.017  11.523 -1.9450  0.1728  1.6318
  840MOL0     H13337   5.404   8.988  11.744 -1.4033  1.6824  1.8062
  840MOL0     H13338   5.355   9.143  11.687 -1.2087 -2.9932 -1.2946
  840MOL0     H13339   5.602   9.097  11.851  0.6336  1.0694 -0.7525
  840MOL0     H13340   5.438   9.149  11.911 -0.0005 -0.2091 -1.1079
  840MOL0     H13341   5.624   9.295  11.731 -1.9349 -2.1448 -2.3292
  840MOL0     H13342   5.468   9.356  11.744  0.2595  0.4585  1.3249
  840MOL0     H13343   5.563   9.481  11.937 -1.8647 -0.4790  2.3814
  840MOL0     H13344   5.518   9.339  12.023  1.3284 -0.6396 -0.1262
  840MOL0     H13345   5.743   9.344  12.089 -0.7626 -0.6270 -0.3855
  840MOL0     H13346   5.755   9.235  11.947  1.2102 -1.1078  2.2167
  840MOL0     H13347   5.828   9.527  11.952 -2.4686  0.4222 -0.5207
  840MOL0     H13348   5.790   9.453  11.806  1.7347  0.6598 -0.8971
  840MOL0     H13349   5.969   9.261  11.877  2.3738 -0.4115 -0.6853
  840MOL0     H13350   6.032   9.415  11.819  1.9637  1.0930  3.1068
  840MOL0     H13351   6.118   9.214  12.060 -2.4535  0.4629 -0.1562
  840MOL0     H13352   6.339   9.315  12.280 -1.1404  2.2139 -4.4979
  840MOL0     H13353   6.218   9.349  12.404  0.8343  0.2524 -0.2331
  840MOL0     H13354   6.099   9.121  12.315  0.1262  1.3265  0.2710
  840MOL0     H13355   6.240   9.106  12.217 -1.2238 -1.1130 -0.1342
  840MOL0     H13356   6.383   9.145  12.426 -0.1460 -0.8296  2.1279
  840MOL0     H13357   6.302   8.982  12.410 -3.1055 -1.1486  2.7793
  840MOL0     H13358   6.142   9.058  12.583 -0.9332  0.8924 -2.0545
  840MOL0     H13359   6.230   9.211  12.608 -3.3498  0.6754 -2.8506
  840MOL0     H13360   6.091   8.978  12.761 -0.3860 -1.5458  0.4578
  840MOL0     H13361   6.062   8.860  12.977 -1.3526  1.2817 -2.6489
  840MOL0     H13362   5.893   8.621  13.143 -2.2898 -2.4176  1.3049
  840MOL0     H13363   5.775   8.515  13.317  0.3739  0.4117 -2.2002
  840MOL0     H13364   5.690   8.436  13.509 -0.0938  1.5650  2.1736
  840MOL0     H13365   5.763   8.292  13.453 -3.5043  2.6826 -1.3826
  840MOL0     H13366   5.700   8.199  13.647  0.9408 -0.1217 -0.6441
  840MOL0     H13367   5.843   8.273  13.722 -2.2509  1.0312  4.7939
  840MOL0     H13368   5.706   8.492  13.750  1.0499 -0.6685  0.6650
  840MOL0     H13369   5.568   8.388  13.735  0.3706 -1.9482  0.1345
  840MOL0     H13370   5.790   8.354  13.941 -0.2851  2.1829 -0.7143
  840MOL0     H13371   5.657   8.244  13.925  0.6660 -0.3317  3.5912
  840MOL0     H13372   5.495   8.399  13.981  0.9882 -0.1705 -1.6258
  840MOL0     H13373   5.617   8.530  13.997  3.2704 -0.0510 -3.0193
  840MOL0     H13374   5.655   8.277  14.159 -1.7687 -0.5451 -1.7809
  840MOL0     H13375   5.748   8.426  14.169  0.1809 -0.1238  2.3682
  840MOL0     H13376   5.472   8.388  14.268  1.6184 -1.6922  3.0044
  840MOL0     H13377   5.503   8.543  14.211 -1.4160 -0.8190  1.8577
  840MOL0     H13378   5.699   8.398  14.393  0.0542  0.2900 -2.5055
  840MOL0     H13379   5.675   8.581  14.383 -0.4172  0.9586  3.8041
  840MOL0     H13380   6.142   8.498  13.546  2.0144 -2.4611 -1.8498
  840MOL0     H13381   6.269   8.550  13.345 -0.2119  0.3505  2.3746
  840MOL0     H13382   6.494   8.816  12.995 -1.3745 -1.7539  0.0149
  840MOL0     H13383   6.527   8.960  12.810  0.6993  0.7362  1.1745
  840MOL0     H13384   5.807   8.804  11.654  1.7549 -2.1403 -0.5329
  840MOL0     H13385   5.992   8.705  11.484  3.2183  1.2903 -2.4549
  840MOL0     H13386   6.223   8.646  11.239  2.3220  1.4936 -0.8178
  840MOL0     H13387   6.373   8.503  11.133  0.2232  2.6887 -0.8301
  840MOL0     H13388   6.546   8.374  10.825 -0.2498  0.9859 -0.4222
  840MOL0     H13389   6.519   8.406  10.996 -1.6019 -2.1178 -0.0973
  840MOL0     H13390   6.634   8.590  10.877 -0.8792  0.5230 -0.1298
  840MOL0     H13391   6.475   8.637  10.951 -1.4827 -0.2209 -0.1409
  840MOL0     H13392   6.503   8.735  10.712  0.7789 -0.9347 -1.6048
  840MOL0     H13393   6.370   8.617  10.722  0.4384  0.2505 -1.1955
  840MOL0     H13394   6.534   8.445  10.636  4.1914 -1.5540 -2.9711
  840MOL0     H13395   6.480   8.580  10.523  0.8822 -4.6975 -2.4217
  840MOL0     H13396   6.891   8.636  10.607 -0.0648 -0.4071  2.1913
  840MOL0     H13397   6.090   8.408  10.816 -0.4863 -2.1260  1.4462
  840MOL0     H13398   5.850   8.640  10.904 -2.3071 -1.8786  0.1446
  840MOL0     H13399   5.897   8.496  10.808 -0.9568 -1.9060 -0.4408
  840MOL0     H13400   5.832   8.473  10.978  0.9230  0.7138  2.0592
  841MOL0     O13401   9.986   4.721   3.517  0.3481 -2.2389 -0.0360
  841MOL0     C13402   9.888   4.689   3.446 -0.6208  0.3275 -0.2934
  841MOL0     O13403   9.850   4.753   3.333 -0.9227  0.6295  0.1489
  841MOL0     C13404   9.925   4.866   3.307 -0.0821 -1.1870 -0.0232
  841MOL0     C13405  10.039   4.860   3.219  0.6607  0.1515 -0.1733
  841MOL0     C13406  10.104   4.978   3.201 -0.1845  0.6985 -0.5912
  841MOL0     C13407  10.071   5.100   3.256 -1.0704  0.7079  0.5124
  841MOL0     O13408  10.139   5.217   3.242 -0.3099 -0.0166  0.1767
  841MOL0     C13409  10.265   5.229   3.197 -0.1704 -0.3550 -0.0038
  841MOL0     C13410  10.338   5.329   3.282 -0.1545  0.3775 -0.4990
  841MOL0     C13411  10.478   5.293   3.289  0.0137  0.6667  1.6460
  841MOL0     C13412  10.554   5.394   3.374 -0.9812 -1.3074  0.7124
  841MOL0     C13413  10.712   5.396   3.377 -1.0869 -0.2714 -0.3531
  841MOL0     C13414  10.758   5.264   3.449  0.4892  0.1982  0.7992
  841MOL0     C13415  10.910   5.248   3.430 -0.0501 -0.6287  0.1664
  841MOL0     C13416  10.968   5.140   3.515  0.4128 -0.0676  0.3163
  841MOL0     N13417  11.116   5.152   3.538 -0.6676 -0.2509  0.6145
  841MOL0     C13418  11.208   5.165   3.435  0.6017 -0.7141  0.4164
  841MOL0     C13419  11.327   5.208   3.500  0.6677 -0.2108 -0.9259
  841MOL0     C13420  11.451   5.232   3.431 -0.5077  0.5626  0.2691
  841MOL0     C13421  11.581   5.206   3.511  0.2661  0.2735  0.6603
  841MOL0     C13422  11.705   5.244   3.425 -0.9753  0.0525 -0.7816
  841MOL0     C13423  11.824   5.239   3.515  0.2567 -0.6488  1.1666
  841MOL0     O13424  11.941   5.236   3.438  0.6294  0.4820 -0.4376
  841MOL0     C13425  12.058   5.210   3.507  0.8108 -0.8397 -0.2669
  841MOL0     C13426  12.081   5.251   3.645 -0.7645 -0.6714  0.4285
  841MOL0     C13427  12.202   5.219   3.703  0.5400  1.2136  0.1030
  841MOL0     C13428  12.313   5.164   3.633 -0.5477 -0.3474 -1.1127
  841MOL0     C13429  12.439   5.151   3.704 -0.7185 -0.4693 -0.9377
  841MOL0     O13430  12.537   5.069   3.648  0.0317 -0.1223 -0.2660
  841MOL0     C13431  12.642   5.031   3.715 -0.4692 -0.1734 -0.3494
  841MOL0     C13432  12.688   4.903   3.670  0.9653 -0.5139 -0.0814
  841MOL0     C13433  12.814   4.845   3.721 -0.1850 -0.1056 -0.0384
  841MOL0     C13434  12.882   4.915   3.817 -0.3171 -0.2382 -0.3578
  841MOL0     O13435  12.991   4.866   3.884  0.3901  0.0740  0.7004
  841MOL0     C13436  13.020   4.724   3.874  0.2716 -0.6323  0.1513
  841MOL0     C13437  13.123   4.675   3.972 -0.0100 -0.8786 -0.6433
  841MOL0     C13438  13.083   4.681   4.121 -0.3202  0.1253  0.6907
  841MOL0     C13439  13.205   4.640   4.202  0.3754  0.3774  0.3669
  841MOL0     C13440  13.191   4.622   4.358  0.2363 -0.8204  0.5514
  841MOL0     C13441  13.108   4.737   4.425 -0.2126  0.0312  0.6994
  841MOL0     C13442  13.073   4.694   4.564  0.3387 -0.1661  0.6040
  841MOL0     C13443  12.972   4.781   4.639 -0.1991  0.3805 -0.7351
  841MOL0    Cl13444  13.057   4.911   4.720  0.2549  0.5888 -0.3055
  841MOL0     C13445  12.838   5.046   3.857  0.3437  0.5910  0.3726
  841MOL0     C13446  12.721   5.101   3.804  0.6530 -0.1350 -0.1356
  841MOL0     O13447  12.451   5.208   3.816  0.2917 -0.3916  0.0472
  841MOL0     C13448  12.292   5.137   3.499 -0.0922  0.1510 -0.0020
  841MOL0     C13449  12.168   5.159   3.436  1.0788  0.9894  0.6010
  841MOL0     N13450  11.303   5.222   3.637  0.4463  0.1362  0.0490
  841MOL0     N13451  11.175   5.190   3.652 -1.2599  0.2670 -0.5570
  841MOL0     C13452   9.957   5.099   3.336  1.0398  0.4460  0.5761
  841MOL0     C13453   9.879   4.986   3.364 -0.5075 -0.2129  1.1921
  841MOL0     C13454   9.784   4.595   3.497  1.1142  0.6919  0.6332
  841MOL0     C13455   9.656   4.577   3.420  0.3465 -0.4586  0.7260
  841MOL0     C13456   9.557   4.503   3.475 -0.5014 -0.8889 -0.6802
  841MOL0     C13457   9.578   4.419   3.586 -0.4086  0.3121  0.0169
  841MOL0     O13458   9.488   4.324   3.607  0.2258 -0.4022 -0.5564
  841MOL0     C13459   9.494   4.246   3.725  0.2632 -0.0822  0.0627
  841MOL0     C13460   9.381   4.139   3.742  0.0343  0.3235  0.3315
  841MOL0     C13461   9.384   4.041   3.628 -0.0405  0.2770  0.1415
  841MOL0     C13462   9.364   3.897   3.659  0.0206 -0.8867  0.6931
  841MOL0     C13463   9.485   3.821   3.684 -0.6673  0.8137 -0.0582
  841MOL0     C13464   9.589   3.754   3.699  0.2168  0.0694  0.3554
  841MOL0     C13465   9.701   4.429   3.648  0.3388  0.1362 -0.8293
  841MOL0     C13466   9.797   4.526   3.617  0.3477  1.2612 -0.4188
  841MOL0     C13467   9.921   4.526   3.697 -0.2096 -0.0152  0.3248
  841MOL0     H13468  10.070   4.767   3.171 -0.3399 -0.5070  0.4028
  841MOL0     H13469  10.189   4.981   3.134  2.7778  0.9715  2.9016
  841MOL0     H13470  10.319   5.134   3.194  2.2596  0.9582 -2.4596
  841MOL0     H13471  10.271   5.263   3.093 -1.9969  0.9140  0.2386
  841MOL0     H13472  10.298   5.333   3.384 -1.5983  0.4595 -1.0489
  841MOL0     H13473  10.327   5.433   3.248  2.1396  0.8195 -0.0813
  841MOL0     H13474  10.524   5.290   3.189 -1.7220 -2.1062  0.8175
  841MOL0     H13475  10.499   5.195   3.333  0.9863  0.4752  0.8061
  841MOL0     H13476  10.525   5.489   3.329  2.3390 -0.9395 -0.9701
  841MOL0     H13477  10.515   5.398   3.476 -1.5737  2.3223  0.4449
  841MOL0     H13478  10.757   5.405   3.278 -2.1407  1.2874 -0.7303
  841MOL0     H13479  10.743   5.478   3.442 -1.2942 -1.7141  1.6732
  841MOL0     H13480  10.722   5.271   3.552  1.0833  0.1798  1.0119
  841MOL0     H13481  10.716   5.171   3.407  2.5157 -0.1989 -0.4701
  841MOL0     H13482  10.966   5.338   3.456 -1.3260  0.0518  0.6140
  841MOL0     H13483  10.936   5.223   3.327 -0.0905  0.6877 -0.1808
  841MOL0     H13484  10.912   5.135   3.610  2.4080 -2.6017  1.4701
  841MOL0     H13485  10.947   5.051   3.456 -0.5171  0.2620  0.1328
  841MOL0     H13486  11.185   5.155   3.329 -1.9723  0.0122  0.8160
  841MOL0     H13487  11.453   5.160   3.348  2.9651 -2.1804  2.4044
  841MOL0     H13488  11.444   5.328   3.380 -1.9838  0.0464 -0.5581
  841MOL0     H13489  11.584   5.250   3.611 -4.1107  3.3731 -0.2710
  841MOL0     H13490  11.579   5.098   3.530 -1.8921  0.4155  1.5022
  841MOL0     H13491  11.697   5.348   3.390  2.8496  1.8912  2.8424
  841MOL0     H13492  11.718   5.163   3.353  0.2076  1.8281 -2.6662
  841MOL0     H13493  11.828   5.139   3.559  3.5071 -2.1271 -1.9878
  841MOL0     H13494  11.805   5.323   3.583 -2.6095  0.3471 -0.6763
  841MOL0     H13495  11.998   5.297   3.698 -1.1272  0.9269 -1.4015
  841MOL0     H13496  12.222   5.257   3.803  0.9661  1.8500 -0.2255
  841MOL0     H13497  12.631   4.849   3.595 -0.3525  0.9441 -0.1976
  841MOL0     H13498  12.842   4.747   3.683 -1.8132 -0.9796  0.8503
  841MOL0     H13499  12.933   4.658   3.874  2.2584 -3.6921 -3.2637
  841MOL0     H13500  13.070   4.707   3.778  0.9653 -2.9207  0.8440
  841MOL0     H13501  13.151   4.571   3.953  0.2057 -1.2170  1.2853
  841MOL0     H13502  13.215   4.733   3.957  0.2371 -1.4594 -1.4463
  841MOL0     H13503  13.051   4.781   4.151  1.2530  0.7331  0.4269
  841MOL0     H13504  13.003   4.608   4.140  0.2979 -0.6416  0.4061
  841MOL0     H13505  13.290   4.706   4.182 -1.4941  1.6630 -5.0835
  841MOL0     H13506  13.243   4.546   4.163  4.6233  2.0235 -0.0645
  841MOL0     H13507  13.289   4.604   4.403 -0.0662 -0.4930  1.3545
  841MOL0     H13508  13.127   4.534   4.363 -0.0714 -0.6325  0.0062
  841MOL0     H13509  13.170   4.826   4.436  0.6257 -0.5232  0.5904
  841MOL0     H13510  13.025   4.769   4.362  1.1144 -3.2786 -3.1730
  841MOL0     H13511  13.162   4.692   4.629  1.0871 -0.6969 -0.4164
  841MOL0     H13512  13.044   4.589   4.557 -0.5169  0.1010  0.1071
  841MOL0     H13513  12.894   4.820   4.573  1.3405  1.2180 -2.1462
  841MOL0     H13514  12.926   4.713   4.711  0.8681 -1.3070 -1.5818
  841MOL0     H13515  12.905   5.097   3.925  0.5958 -1.5072  1.8181
  841MOL0     H13516  12.681   5.190   3.852 -0.0471 -0.5329  0.0312
  841MOL0     H13517  12.378   5.099   3.444 -0.7562 -0.6552 -0.5133
  841MOL0     H13518  12.131   5.136   3.337 -2.7134 -2.2315  2.4632
  841MOL0     H13519   9.927   5.192   3.381  0.2886 -0.3349  1.7191
  841MOL0     H13520   9.799   4.991   3.437 -2.0821 -1.4661 -0.3652
  841MOL0     H13521   9.643   4.642   3.334  1.9161  3.9898  3.4918
  841MOL0     H13522   9.456   4.498   3.438 -0.4374  1.7325 -1.4205
  841MOL0     H13523   9.485   4.317   3.809  0.5366  0.0824 -0.0468
  841MOL0     H13524   9.589   4.192   3.726  0.0875 -0.3999 -0.2453
  841MOL0     H13525   9.282   4.186   3.746 -0.0335  0.1156  1.3300
  841MOL0     H13526   9.397   4.091   3.839 -1.1020 -2.2576 -0.6529
  841MOL0     H13527   9.473   4.053   3.566 -0.2479  0.0571 -0.2053
  841MOL0     H13528   9.291   4.055   3.571 -2.4622 -0.1185  3.6305
  841MOL0     H13529   9.290   3.888   3.739  0.4400 -0.5556  1.1220
  841MOL0     H13530   9.314   3.863   3.568 -2.2421  1.0715  1.1111
  841MOL0     H13531   9.685   3.714   3.724  0.3032 -0.9546 -1.4592
  841MOL0     H13532   9.723   4.367   3.735 -0.1590 -1.1617 -1.5981
  841MOL0     H13533   9.931   4.626   3.741 -0.6953  0.1068  0.1655
  841MOL0     H13534   9.919   4.452   3.778  0.2783 -1.8731 -1.3007
  841MOL0     H13535  10.009   4.510   3.636 -1.4502  3.3329 -2.6756
  842MOL0     O13536   8.613   4.275   0.264  0.1544  0.4235 -0.3989
  842MOL0     C13537   8.628   4.159   0.297  0.1846  0.1845 -0.0805
  842MOL0     O13538   8.739   4.090   0.283 -0.1207 -0.1769  0.2369
  842MOL0     C13539   8.840   4.137   0.200  0.4170 -0.1242  0.3933
  842MOL0     C13540   8.917   4.250   0.230 -0.8810  0.1310  0.3107
  842MOL0     C13541   9.026   4.280   0.148 -1.3158 -0.8458  0.4314
  842MOL0     C13542   9.050   4.199   0.037 -0.5374 -0.6744  0.0040
  842MOL0     O13543   9.160   4.225  -0.037 -0.2601 -1.1618  0.4862
  842MOL0     C13544   9.284   4.188   0.018 -1.1104 -0.5876 -0.3646
  842MOL0     C13545   9.300   4.036   0.014 -0.1427 -0.9938  0.4101
  842MOL0     C13546   9.443   3.998   0.056 -1.2498  0.9112  0.1854
  842MOL0     C13547   9.448   3.843   0.054 -0.2055  0.3413  0.2826
  842MOL0     C13548   9.574   3.785   0.130 -0.5423  0.5220  0.6678
  842MOL0     C13549   9.566   3.636   0.129 -0.3464 -0.6827  0.1615
  842MOL0     C13550   9.678   3.557   0.205 -0.3857  1.0626 -0.1063
  842MOL0     C13551   9.788   3.485   0.106  0.3157  0.1903 -0.1885
  842MOL0     N13552   9.818   3.548  -0.023  0.0212  0.4920  0.0342
  842MOL0     C13553   9.748   3.518  -0.135 -1.0000  0.4104 -0.2257
  842MOL0     C13554   9.828   3.583  -0.231 -0.3885  0.5934  0.0263
  842MOL0     C13555   9.814   3.562  -0.375 -0.0972  0.4471 -0.0760
  842MOL0     C13556   9.799   3.414  -0.423 -0.6183  0.0463 -0.1276
  842MOL0     C13557   9.785   3.419  -0.579 -0.1462 -0.6545 -0.3486
  842MOL0     C13558   9.758   3.282  -0.637 -0.5877  0.1061 -0.5497
  842MOL0     O13559   9.845   3.280  -0.757  0.5672  0.1881  0.2507
  842MOL0     C13560   9.808   3.335  -0.873 -1.0726 -0.6421  0.1278
  842MOL0     C13561   9.684   3.395  -0.890 -0.2815  0.4130 -0.0983
  842MOL0     C13562   9.651   3.460  -1.011  0.0451  0.6114 -0.5596
  842MOL0     C13563   9.740   3.458  -1.117 -0.5778 -0.6005 -0.9557
  842MOL0     C13564   9.711   3.528  -1.237 -0.5769  0.4473  0.1486
  842MOL0     O13565   9.786   3.504  -1.349  0.5092  0.7149  0.4469
  842MOL0     C13566   9.749   3.545  -1.478 -0.2159 -0.8103 -0.4392
  842MOL0     C13567   9.859   3.560  -1.554  0.3878 -0.3723 -0.4043
  842MOL0     C13568   9.851   3.591  -1.690  0.3051 -0.2510  0.1183
  842MOL0     C13569   9.722   3.612  -1.744 -0.2418 -0.2144 -1.0970
  842MOL0     O13570   9.692   3.635  -1.878 -0.5098 -0.5553  0.0838
  842MOL0     C13571   9.762   3.554  -1.986  0.1409 -0.5701 -0.7338
  842MOL0     C13572   9.897   3.618  -2.028 -0.3337  0.8408 -0.6160
  842MOL0     C13573   9.888   3.651  -2.170 -0.7846  0.1462 -0.6030
  842MOL0     C13574  10.017   3.726  -2.211 -0.5060 -0.0538 -0.5143
  842MOL0     C13575  10.028   3.712  -2.368  0.9243 -1.0102 -0.4153
  842MOL0     C13576   9.911   3.787  -2.441 -0.1478  0.9674  1.1769
  842MOL0     C13577   9.910   3.752  -2.590  0.3558  0.6401  0.6575
  842MOL0     C13578   9.850   3.861  -2.676 -0.8161 -1.7171 -0.2638
  842MOL0    Cl13579   9.981   3.991  -2.678 -0.2641  0.0894 -0.5607
  842MOL0     C13580   9.615   3.627  -1.662 -0.0724 -0.1052  0.3851
  842MOL0     C13581   9.628   3.590  -1.526  0.9642 -0.4996 -0.0362
  842MOL0     O13582   9.620   3.607  -1.231  0.5747 -0.1420 -0.0354
  842MOL0     C13583   9.873   3.407  -1.100  0.2293 -0.9800  0.3748
  842MOL0     C13584   9.905   3.345  -0.976  0.5730  0.6822 -0.4968
  842MOL0     N13585   9.930   3.653  -0.170 -0.5597 -0.1265  0.3428
  842MOL0     N13586   9.921   3.637  -0.042 -0.3612  0.3045 -0.1266
  842MOL0     C13587   8.961   4.096  -0.002  0.1144 -0.1980  0.7874
  842MOL0     C13588   8.859   4.064   0.079  0.2259 -0.2141 -0.4411
  842MOL0     C13589   8.527   4.098   0.392  0.0480 -0.3163  0.1246
  842MOL0     C13590   8.557   3.976   0.455  0.5848  0.2799 -0.5597
  842MOL0     C13591   8.471   3.923   0.546  0.9465  0.4117 -0.7928
  842MOL0     C13592   8.354   3.992   0.582 -1.0818 -0.2455 -1.2297
  842MOL0     O13593   8.267   3.934   0.670  0.3758  0.3262  0.4562
  842MOL0     C13594   8.213   3.800   0.651  0.2903  0.1082  0.2381
  842MOL0     C13595   8.115   3.798   0.536 -0.4111  0.1245 -0.5451
  842MOL0     C13596   7.978   3.838   0.591 -1.2315 -0.3427  0.4998
  842MOL0     C13597   7.873   3.842   0.485  0.8078 -0.0363 -0.3197
  842MOL0     C13598   7.875   3.731   0.392 -0.7498 -0.0181 -0.2536
  842MOL0     C13599   7.898   3.641   0.307  0.2202 -0.4568  0.5256
  842MOL0     C13600   8.322   4.114   0.525  0.6447  0.1790  0.7511
  842MOL0     C13601   8.401   4.170   0.424  0.5345 -0.6836 -0.1276
  842MOL0     C13602   8.357   4.305   0.382  0.9594  0.0877 -0.1128
  842MOL0     H13603   8.898   4.309   0.319 -1.0979 -0.5513  0.7251
  842MOL0     H13604   9.102   4.353   0.174  0.4609 -1.6939 -2.0286
  842MOL0     H13605   9.374   4.235  -0.024 -0.8041 -1.9173 -1.2588
  842MOL0     H13606   9.288   4.208   0.125 -1.2026 -2.8916  0.0991
  842MOL0     H13607   9.251   3.990  -0.072 -0.5936  2.0503 -1.1084
  842MOL0     H13608   9.228   4.004   0.090 -1.3553  1.4156  0.3838
  842MOL0     H13609   9.474   4.024   0.158  0.3717  0.3341 -0.1224
  842MOL0     H13610   9.509   4.054  -0.011 -2.0223  1.8229  0.1608
  842MOL0     H13611   9.362   3.803   0.109  0.9998 -1.8092  0.6899
  842MOL0     H13612   9.450   3.821  -0.053 -4.1557 -1.5370  0.4321
  842MOL0     H13613   9.661   3.806   0.067 -0.9206 -0.6414 -0.2669
  842MOL0     H13614   9.582   3.821   0.233 -2.5295  1.7381  0.4634
  842MOL0     H13615   9.469   3.614   0.174 -0.6172 -0.6183 -0.3963
  842MOL0     H13616   9.553   3.589   0.032  1.3289 -0.2661 -0.2898
  842MOL0     H13617   9.648   3.475   0.271  3.5990 -0.0744  0.5505
  842MOL0     H13618   9.738   3.625   0.266  1.5615  1.8696 -2.7302
  842MOL0     H13619   9.871   3.494   0.177 -1.8671  6.5858  2.2820
  842MOL0     H13620   9.750   3.384   0.090  1.1128 -0.1563  0.0843
  842MOL0     H13621   9.661   3.455  -0.147 -0.6348 -0.0778 -0.3723
  842MOL0     H13622   9.728   3.612  -0.422 -0.2418 -0.5495 -0.9148
  842MOL0     H13623   9.902   3.599  -0.428 -0.9312 -0.9633 -2.6330
  842MOL0     H13624   9.884   3.356  -0.386  2.0209  1.1211 -3.9135
  842MOL0     H13625   9.709   3.371  -0.378 -0.3386 -1.8701 -1.2530
  842MOL0     H13626   9.876   3.460  -0.623 -1.1984  0.3683 -1.6321
  842MOL0     H13627   9.703   3.483  -0.611  0.3104  0.9772  1.5001
  842MOL0     H13628   9.650   3.264  -0.636 -0.6850  0.5219  1.8444
  842MOL0     H13629   9.796   3.205  -0.569  0.1694 -0.9063 -2.0508
  842MOL0     H13630   9.608   3.395  -0.813 -1.7398 -0.2917 -1.4736
  842MOL0     H13631   9.553   3.505  -1.016  0.0260  1.2237  2.8862
  842MOL0     H13632   9.961   3.558  -1.518 -0.7712  2.9704  3.9205
  842MOL0     H13633   9.938   3.578  -1.754  0.5806 -0.0832  0.4624
  842MOL0     H13634   9.787   3.455  -1.947  4.6564  0.5952 -0.1198
  842MOL0     H13635   9.685   3.550  -2.064 -0.9603  1.2933  0.1922
  842MOL0     H13636   9.914   3.707  -1.966 -0.7663 -0.6812  1.7958
  842MOL0     H13637   9.973   3.543  -2.006 -1.7941  0.2171  3.0645
  842MOL0     H13638   9.871   3.558  -2.224 -1.0570 -0.7397  0.9389
  842MOL0     H13639   9.805   3.721  -2.183 -2.9543 -1.9124  1.2484
  842MOL0     H13640  10.106   3.678  -2.169 -1.5569 -1.9824 -0.3782
  842MOL0     H13641  10.014   3.833  -2.185 -1.6117 -0.3170  0.5399
  842MOL0     H13642  10.025   3.603  -2.383 -1.2251 -1.7791  4.0131
  842MOL0     H13643  10.114   3.773  -2.398 -1.0044  0.2989 -3.8958
  842MOL0     H13644   9.810   3.757  -2.411 -0.6821  2.1479  0.6194
  842MOL0     H13645   9.929   3.893  -2.425 -1.9416  1.7277 -1.2003
  842MOL0     H13646   9.844   3.666  -2.602 -0.4242  1.4232 -0.8357
  842MOL0     H13647  10.009   3.722  -2.625 -1.1206 -2.2400 -1.4484
  842MOL0     H13648   9.837   3.825  -2.778  1.7221  0.8877 -1.6736
  842MOL0     H13649   9.763   3.916  -2.637  0.9838  2.2351 -1.2401
  842MOL0     H13650   9.523   3.672  -1.699 -1.5680 -1.4591  2.2021
  842MOL0     H13651   9.543   3.589  -1.458  2.0324 -1.8531  1.3495
  842MOL0     H13652   9.953   3.403  -1.173  3.1730  1.2760  3.1936
  842MOL0     H13653  10.007   3.311  -0.965  0.2254 -0.1244  0.3410
  842MOL0     H13654   8.970   4.041  -0.095  2.0875 -1.2977  1.5698
  842MOL0     H13655   8.803   3.973   0.058  0.6824 -1.2793  2.4051
  842MOL0     H13656   8.655   3.933   0.435  1.7329  1.6774  1.5679
  842MOL0     H13657   8.486   3.826   0.593  0.4680  1.6057  1.9923
  842MOL0     H13658   8.165   3.762   0.742 -1.4677  0.6512 -0.4069
  842MOL0     H13659   8.291   3.729   0.624 -0.4426 -0.1965 -1.1870
  842MOL0     H13660   8.114   3.694   0.504 -1.7889  0.5802 -2.1345
  842MOL0     H13661   8.141   3.853   0.445  1.6211 -0.9754 -0.6791
  842MOL0     H13662   7.984   3.940   0.631  0.5902 -1.6773  4.0627
  842MOL0     H13663   7.947   3.775   0.675  2.4996 -0.6398  1.8506
  842MOL0     H13664   7.772   3.839   0.526  0.5501 -0.0789 -0.9395
  842MOL0     H13665   7.868   3.934   0.426 -0.9576 -0.0991 -0.3176
  842MOL0     H13666   7.913   3.556   0.243 -3.4649 -1.5164  0.8137
  842MOL0     H13667   8.223   4.149   0.554  0.1324 -1.7783  1.5938
  842MOL0     H13668   8.250   4.325   0.393  0.9348 -0.2370  0.2996
  842MOL0     H13669   8.398   4.393   0.433 -0.4902  1.9885 -2.0397
  842MOL0     H13670   8.369   4.310   0.274 -0.0151  0.6921 -0.2119
  843MOL0     O13671  11.142   3.845   6.401 -0.7749 -0.8857  0.8238
  843MOL0     C13672  11.033   3.906   6.401 -0.5393  0.5277 -0.2196
  843MOL0     O13673  10.964   3.942   6.508  0.2541 -0.0905 -0.4620
  843MOL0     C13674  11.000   3.905   6.637  1.3451  0.4264  0.1407
  843MOL0     C13675  11.111   3.959   6.706 -0.3970  0.1514  0.6701
  843MOL0     C13676  11.132   3.927   6.837  0.1440 -0.0973  0.0802
  843MOL0     C13677  11.051   3.815   6.897  1.5177  0.2477 -0.3164
  843MOL0     O13678  11.069   3.761   7.023 -0.2732  0.3445  0.2891
  843MOL0     C13679  11.167   3.832   7.112 -0.0707  0.7970 -0.4910
  843MOL0     C13680  11.182   3.737   7.236  1.4441 -0.5093  0.4299
  843MOL0     C13681  11.285   3.629   7.220 -0.4904  0.6519 -0.8590
  843MOL0     C13682  11.240   3.484   7.233 -1.0157  0.0610 -1.2648
  843MOL0     C13683  11.360   3.397   7.280  0.4476 -0.4957 -0.2920
  843MOL0     C13684  11.337   3.255   7.308  0.7293 -0.5373 -0.0223
  843MOL0     C13685  11.464   3.183   7.360 -0.3644 -0.0782 -0.1027
  843MOL0     C13686  11.438   3.032   7.392 -0.6040  0.4348 -0.2434
  843MOL0     N13687  11.334   3.011   7.499 -0.4107  0.4161  0.6093
  843MOL0     C13688  11.242   2.912   7.511 -0.5586  0.2828  0.4555
  843MOL0     C13689  11.175   2.930   7.624  0.2548  0.3209  0.7983
  843MOL0     C13690  11.080   2.828   7.688  0.1925  0.2838 -0.9044
  843MOL0     C13691  11.122   2.794   7.829 -1.1820  0.3993 -0.2420
  843MOL0     C13692  11.075   2.650   7.879 -0.2982  0.2730 -0.5626
  843MOL0     C13693  10.950   2.660   7.962 -0.2900  0.2013 -0.1002
  843MOL0     O13694  10.993   2.697   8.095 -0.1714 -0.3603  0.4841
  843MOL0     C13695  10.908   2.698   8.202  0.4728 -0.1854  0.1625
  843MOL0     C13696  10.947   2.738   8.328 -1.1494  0.0672 -0.5672
  843MOL0     C13697  10.862   2.727   8.439  1.1702 -1.2175 -0.7286
  843MOL0     C13698  10.730   2.682   8.424  1.0585 -1.1138 -0.0514
  843MOL0     C13699  10.626   2.704   8.531  0.1348  0.1257  0.2225
  843MOL0     O13700  10.684   2.710   8.654 -0.6207  0.5940  0.5037
  843MOL0     C13701  10.600   2.733   8.760  0.1728  0.2286  0.2144
  843MOL0     C13702  10.523   2.851   8.770 -0.3788 -0.5365  0.0112
  843MOL0     C13703  10.439   2.868   8.873  0.3405  0.2560 -0.0103
  843MOL0     C13704  10.434   2.762   8.973 -0.6265 -0.2133 -0.1136
  843MOL0     O13705  10.339   2.763   9.070  0.7084 -0.2172 -0.0154
  843MOL0     C13706  10.217   2.834   9.044 -0.4493 -1.6023 -0.4326
  843MOL0     C13707  10.103   2.797   9.134  0.2921 -0.3389 -0.9762
  843MOL0     C13708  10.073   2.642   9.137 -0.8166 -0.0542 -0.3483
  843MOL0     C13709   9.933   2.602   9.179  0.0648  0.2654  0.1346
  843MOL0     C13710   9.927   2.534   9.315  0.4263 -0.3542 -0.3188
  843MOL0     C13711   9.964   2.623   9.429 -0.1836 -0.9333  0.3196
  843MOL0     C13712   9.943   2.564   9.567  0.3247 -0.6484  0.3158
  843MOL0     C13713  10.070   2.494   9.596 -0.9312  0.2952  0.4594
  843MOL0    Cl13714  10.053   2.391   9.741  0.0303 -0.3711  0.5655
  843MOL0     C13715  10.527   2.661   8.971  0.1365  0.7791 -0.1225
  843MOL0     C13716  10.607   2.640   8.857 -0.3789 -0.4145  0.1645
  843MOL0     O13717  10.506   2.718   8.500 -0.1135 -1.2241  0.2938
  843MOL0     C13718  10.684   2.652   8.295  0.1225  0.7994  0.1998
  843MOL0     C13719  10.782   2.649   8.189  0.8056 -1.4972 -0.2789
  843MOL0     N13720  11.231   3.045   7.686 -0.1714  0.1192  0.5543
  843MOL0     N13721  11.324   3.096   7.606 -0.4190  0.4949 -0.1564
  843MOL0     C13722  10.934   3.784   6.833  0.1137  0.6277 -0.9974
  843MOL0     C13723  10.905   3.829   6.703  0.1678  0.3446 -0.0515
  843MOL0     C13724  10.974   3.927   6.273  0.8197  0.0229 -0.8221
  843MOL0     C13725  10.842   3.881   6.263 -0.1936 -0.0226  1.0220
  843MOL0     C13726  10.788   3.879   6.139  0.4229 -0.5545 -0.0135
  843MOL0     C13727  10.851   3.935   6.025  0.6272 -0.0188 -0.3363
  843MOL0     O13728  10.791   3.922   5.903  0.7137 -0.4042 -0.6952
  843MOL0     C13729  10.857   3.833   5.811  0.0552  0.1768 -0.1471
  843MOL0     C13730  10.863   3.687   5.855 -0.1657 -0.3249  0.3370
  843MOL0     C13731  10.722   3.622   5.875  0.5918 -0.5637  0.2972
  843MOL0     C13732  10.725   3.483   5.947  0.2837  0.4792 -0.7752
  843MOL0     C13733  10.586   3.442   5.975  0.1132 -0.4709  0.5531
  843MOL0     C13734  10.465   3.443   6.006 -0.2285 -0.5814  0.1738
  843MOL0     C13735  10.977   3.998   6.042  0.1444  0.4670 -0.3168
  843MOL0     C13736  11.044   3.981   6.165  1.0122 -0.1732  1.2896
  843MOL0     C13737  11.183   4.031   6.172 -0.1181 -0.4790  0.6925
  843MOL0     H13738  11.169   4.033   6.651  0.6252 -0.4732  0.8784
  843MOL0     H13739  11.212   3.969   6.896 -1.0606  1.6636  0.5410
  843MOL0     H13740  11.266   3.850   7.070  1.7340 -2.4278  1.8683
  843MOL0     H13741  11.122   3.925   7.147 -0.9899 -0.5564  2.2664
  843MOL0     H13742  11.087   3.701   7.276  1.4115  0.2729  1.1040
  843MOL0     H13743  11.228   3.814   7.300  1.8755  1.3340 -1.9614
  843MOL0     H13744  11.357   3.647   7.301 -0.1225 -1.2764 -0.7030
  843MOL0     H13745  11.341   3.649   7.129  0.2839 -0.4304 -0.6411
  843MOL0     H13746  11.166   3.481   7.313  1.5930  4.1029  1.6564
  843MOL0     H13747  11.199   3.437   7.143  0.7635 -1.0781 -1.5441
  843MOL0     H13748  11.432   3.394   7.198  2.6584  1.4674  1.4848
  843MOL0     H13749  11.406   3.450   7.364 -2.0243 -1.6336  1.9518
  843MOL0     H13750  11.263   3.245   7.388 -2.3803  0.3648 -2.5759
  843MOL0     H13751  11.305   3.203   7.217 -0.7110 -0.5654  0.4791
  843MOL0     H13752  11.516   3.241   7.437  3.1071  2.7727 -4.1440
  843MOL0     H13753  11.533   3.173   7.276  1.4630  2.8138  0.8817
  843MOL0     H13754  11.394   2.986   7.303  1.8749  4.2174 -3.8392
  843MOL0     H13755  11.534   2.984   7.412 -0.1767 -0.0851 -3.1071
  843MOL0     H13756  11.235   2.840   7.430 -1.2808  0.2059  0.5793
  843MOL0     H13757  10.978   2.868   7.692  1.1519  2.7964  1.3453
  843MOL0     H13758  11.074   2.745   7.617 -4.1231  2.1860 -3.1349
  843MOL0     H13759  11.232   2.800   7.826 -1.2633  1.9757 -2.2111
  843MOL0     H13760  11.108   2.873   7.904  1.0849  1.2085 -0.5756
  843MOL0     H13761  11.159   2.606   7.933  2.9262  2.9057 -3.0430
  843MOL0     H13762  11.055   2.584   7.795 -0.6373  0.3280 -0.5262
  843MOL0     H13763  10.903   2.562   7.955  1.5537 -0.6724 -0.9259
  843MOL0     H13764  10.884   2.733   7.914 -0.2066  1.1106  1.1078
  843MOL0     H13765  11.047   2.777   8.342 -1.2202  0.4997 -1.2432
  843MOL0     H13766  10.892   2.761   8.538 -2.0271 -1.7302  0.5405
  843MOL0     H13767  10.498   2.923   8.692 -2.8873 -1.7220 -0.3718
  843MOL0     H13768  10.373   2.954   8.870 -1.9038 -1.3837 -1.0679
  843MOL0     H13769  10.239   2.941   9.052  0.4238 -1.8022 -0.0396
  843MOL0     H13770  10.182   2.836   8.940 -3.8141  1.5310  0.5585
  843MOL0     H13771  10.134   2.820   9.236 -0.9511 -3.6386  0.2818
  843MOL0     H13772  10.016   2.856   9.106  1.5992  1.1667 -2.0290
  843MOL0     H13773  10.085   2.600   9.036 -0.1595  0.5432 -0.5213
  843MOL0     H13774  10.148   2.602   9.206  0.0719  0.6175 -0.9015
  843MOL0     H13775   9.887   2.531   9.110 -1.9461  0.4405  1.1989
  843MOL0     H13776   9.875   2.695   9.179  1.0264  0.8766 -0.6061
  843MOL0     H13777   9.996   2.450   9.313 -0.3761 -1.1618  2.0579
  843MOL0     H13778   9.823   2.501   9.320 -1.8676  5.4719 -1.0656
  843MOL0     H13779  10.066   2.664   9.437 -0.8842  0.5683  2.2625
  843MOL0     H13780   9.893   2.705   9.422  1.4789  0.4892 -1.0824
  843MOL0     H13781   9.860   2.495   9.553  0.4263 -0.5746 -0.6858
  843MOL0     H13782   9.912   2.649   9.629 -0.7716  1.5114 -2.9606
  843MOL0     H13783  10.104   2.439   9.507  1.9386  2.4744  0.0510
  843MOL0     H13784  10.148   2.563   9.629 -2.6562  1.6280  1.9052
  843MOL0     H13785  10.517   2.575   9.037  1.0272  0.2703 -0.6207
  843MOL0     H13786  10.678   2.562   8.829 -1.3844 -2.0042  1.8007
  843MOL0     H13787  10.581   2.622   8.283 -0.1140  1.2065  1.0685
  843MOL0     H13788  10.745   2.613   8.093  0.0909 -1.5003 -0.0043
  843MOL0     H13789  10.864   3.720   6.885  2.3609 -0.2395  1.1472
  843MOL0     H13790  10.809   3.808   6.658 -0.5756  0.5835  1.3703
  843MOL0     H13791  10.794   3.833   6.347 -1.5312 -1.4168 -0.4708
  843MOL0     H13792  10.689   3.834   6.135  0.9562 -2.1322  2.3335
  843MOL0     H13793  10.958   3.873   5.795 -0.5707  2.8171  1.7085
  843MOL0     H13794  10.806   3.831   5.715  1.2632  0.2382 -0.8020
  843MOL0     H13795  10.914   3.678   5.951  1.7965  1.9412 -0.3962
  843MOL0     H13796  10.927   3.624   5.792  0.0067 -0.2778  0.4633
  843MOL0     H13797  10.661   3.615   5.784  3.3221 -2.4586 -1.5525
  843MOL0     H13798  10.660   3.688   5.936  0.8616 -0.3411  0.3378
  843MOL0     H13799  10.775   3.410   5.883  1.5251  0.8450 -0.2379
  843MOL0     H13800  10.782   3.494   6.040 -3.8361  0.7745  2.0336
  843MOL0     H13801  10.362   3.443   6.034 -0.1955  1.3985  0.4634
  843MOL0     H13802  11.031   4.052   5.964 -0.2026  1.9583  0.4500
  843MOL0     H13803  11.253   3.948   6.170  0.1768 -0.2380  0.8678
  843MOL0     H13804  11.203   4.112   6.102  0.2171 -0.5416  0.7148
  843MOL0     H13805  11.192   4.066   6.276 -1.8457  1.0015  0.4034
  844MOL0     O13806   6.983   2.439   0.163  0.4760 -0.2771  0.4519
  844MOL0     C13807   7.067   2.394   0.085  0.5473  0.5918  0.1169
  844MOL0     O13808   7.165   2.462   0.023 -0.2758  0.4692 -0.8591
  844MOL0     C13809   7.184   2.601   0.048 -0.0463 -0.4543  0.6060
  844MOL0     C13810   7.158   2.666   0.169  1.4477  0.3818 -0.1949
  844MOL0     C13811   7.160   2.806   0.170 -0.6186  0.7197  0.8634
  844MOL0     C13812   7.199   2.881   0.051  0.0701  1.0260 -0.1459
  844MOL0     O13813   7.214   3.020   0.050 -0.8011  0.0143  0.4471
  844MOL0     C13814   7.263   3.090   0.170  0.1857 -0.1192  0.5952
  844MOL0     C13815   7.303   3.220   0.111 -0.2587 -0.8223 -0.0918
  844MOL0     C13816   7.436   3.235   0.029  0.3874 -0.6746 -0.5774
  844MOL0     C13817   7.513   3.371   0.049 -0.4665  0.0008 -0.2442
  844MOL0     C13818   7.442   3.495  -0.022 -0.5782  0.3005  0.0470
  844MOL0     C13819   7.509   3.630  -0.001  0.1865 -0.2308 -0.1431
  844MOL0     C13820   7.525   3.667   0.141 -0.2222  0.8743 -0.5704
  844MOL0     C13821   7.529   3.815   0.186 -0.7467  0.2205  0.4997
  844MOL0     N13822   7.573   3.908   0.090 -1.0002 -0.2716  0.1428
  844MOL0     C13823   7.490   4.003   0.026 -0.6206  0.3387  0.2976
  844MOL0     C13824   7.574   4.079  -0.048  0.6139  0.1326  1.0018
  844MOL0     C13825   7.531   4.200  -0.137 -0.4047  0.4515  0.3295
  844MOL0     C13826   7.617   4.323  -0.092 -0.0811 -0.8094  1.1267
  844MOL0     C13827   7.638   4.330   0.064  0.1187  0.0446  0.3434
  844MOL0     C13828   7.737   4.435   0.095 -0.5569  0.8503  0.0135
  844MOL0     O13829   7.708   4.556   0.027  0.5793 -0.6660  0.1563
  844MOL0     C13830   7.603   4.639   0.071 -0.2642  0.9869  0.5628
  844MOL0     C13831   7.582   4.767   0.003 -0.7811  0.4489 -0.8623
  844MOL0     C13832   7.489   4.860   0.041 -0.1230  0.2275  0.0182
  844MOL0     C13833   7.404   4.836   0.159 -0.8307  0.1265  0.3264
  844MOL0     C13834   7.305   4.933   0.187  0.9314 -0.2342  1.3292
  844MOL0     O13835   7.293   5.045   0.094 -0.3707 -0.5055  0.0304
  844MOL0     C13836   7.206   5.146   0.127  0.1521  0.8818 -0.0782
  844MOL0     C13837   7.225   5.224   0.247 -0.8774  0.1581  0.7953
  844MOL0     C13838   7.127   5.318   0.282 -1.0447 -0.3208  0.0659
  844MOL0     C13839   7.025   5.348   0.199  0.4569  0.6119  1.1451
  844MOL0     O13840   6.945   5.448   0.254  0.5664 -0.1798  0.0260
  844MOL0     C13841   6.806   5.465   0.214  0.4297 -0.6894  0.2736
  844MOL0     C13842   6.740   5.577   0.296  1.3685 -0.8061 -0.7611
  844MOL0     C13843   6.796   5.715   0.259 -0.8947  0.2847  0.5180
  844MOL0     C13844   6.728   5.839   0.315  0.6431  0.9399  0.0518
  844MOL0     C13845   6.805   5.962   0.265  0.8188  0.3953 -0.3943
  844MOL0     C13846   6.726   6.072   0.328 -0.6898 -0.0335  0.0707
  844MOL0     C13847   6.740   6.214   0.277  0.3551  0.3552  0.1161
  844MOL0     C13848   6.875   6.275   0.276 -0.6521 -0.1678  0.4126
  844MOL0    Cl13849   6.970   6.240   0.135 -0.1672  0.0775 -0.3716
  844MOL0     C13850   7.011   5.280   0.072 -0.3918  0.3815 -0.2786
  844MOL0     C13851   7.103   5.176   0.042  0.4454  0.5593  0.2155
  844MOL0     O13852   7.238   4.910   0.286 -0.5411  0.8287  0.6824
  844MOL0     C13853   7.424   4.715   0.229  0.3957 -0.4012  0.8611
  844MOL0     C13854   7.511   4.621   0.178 -0.4094 -0.0376 -0.2130
  844MOL0     N13855   7.697   4.027  -0.033 -0.2982 -0.0487  1.3030
  844MOL0     N13856   7.702   3.928   0.043 -0.0619  0.6272  0.0396
  844MOL0     C13857   7.232   2.812  -0.063  0.8011  0.8193 -0.6399
  844MOL0     C13858   7.232   2.677  -0.063  0.4953  0.4150 -0.7448
  844MOL0     C13859   7.076   2.252   0.067  0.4438  0.9743 -0.0958
  844MOL0     C13860   7.209   2.191   0.047  0.3676 -0.6722  0.1429
  844MOL0     C13861   7.223   2.058   0.024 -0.5962 -0.4805 -0.0770
  844MOL0     C13862   7.121   1.976   0.032  0.0378 -0.4844  0.1502
  844MOL0     O13863   7.156   1.843   0.042 -0.5915  0.0870 -0.0484
  844MOL0     C13864   7.043   1.755   0.054 -0.3268 -0.8101  0.0893
  844MOL0     C13865   7.094   1.616   0.042  0.0591  0.3022  0.5415
  844MOL0     C13866   6.988   1.515   0.100 -0.6308  0.6047 -0.0115
  844MOL0     C13867   7.063   1.373   0.097  0.1106  0.2438 -0.0537
  844MOL0     C13868   6.992   1.291   0.197  0.3591  0.3086  1.0643
  844MOL0     C13869   6.960   1.222   0.287  0.0306 -0.0825 -0.3552
  844MOL0     C13870   6.987   2.025   0.046 -0.0000  0.5312  0.7402
  844MOL0     C13871   6.961   2.163   0.047  0.3591 -0.4989 -0.0112
  844MOL0     C13872   6.820   2.207   0.041 -0.6585  0.5348  0.1808
  844MOL0     H13873   7.126   2.605   0.252 -0.4689  0.6435 -0.7074
  844MOL0     H13874   7.156   2.861   0.264  1.9629 -0.9916  2.0942
  844MOL0     H13875   7.192   3.112   0.250 -0.7420 -1.2180  0.0997
  844MOL0     H13876   7.348   3.037   0.212  0.5308  0.6475  0.8841
  844MOL0     H13877   7.299   3.294   0.191  2.2422 -1.1318  0.4052
  844MOL0     H13878   7.217   3.248   0.050 -1.3259  0.6061  1.9622
  844MOL0     H13879   7.418   3.221  -0.077  1.1802  1.6589 -1.0821
  844MOL0     H13880   7.498   3.151   0.063 -1.5858 -2.4323 -1.1155
  844MOL0     H13881   7.512   3.387   0.157  1.6670 -0.3182 -0.1308
  844MOL0     H13882   7.617   3.361   0.018 -0.2514 -1.0785  0.7564
  844MOL0     H13883   7.445   3.477  -0.130 -1.6851  3.1561 -0.5512
  844MOL0     H13884   7.337   3.492   0.009 -0.9546  3.1147 -0.6280
  844MOL0     H13885   7.612   3.611  -0.035  0.3575 -2.9851  1.5604
  844MOL0     H13886   7.463   3.708  -0.062 -1.7616 -2.5456 -1.8149
  844MOL0     H13887   7.617   3.622   0.179 -0.4740  0.6466 -0.2297
  844MOL0     H13888   7.447   3.621   0.202 -0.0367  2.2853  0.8008
  844MOL0     H13889   7.422   3.823   0.205 -1.0279 -1.3138 -0.2447
  844MOL0     H13890   7.583   3.832   0.279 -0.1341 -1.6886  0.5471
  844MOL0     H13891   7.383   4.016   0.038 -0.5391  2.9371 -1.0654
  844MOL0     H13892   7.553   4.170  -0.240 -3.6048 -0.6966 -0.1347
  844MOL0     H13893   7.423   4.212  -0.122 -0.3687 -1.9164  3.8620
  844MOL0     H13894   7.711   4.340  -0.145 -0.3102  0.3449  1.0725
  844MOL0     H13895   7.555   4.403  -0.133 -0.4512 -2.1991 -1.1969
  844MOL0     H13896   7.672   4.236   0.109  2.8980  1.0520  0.5302
  844MOL0     H13897   7.537   4.355   0.098 -0.1442 -1.7390  1.0150
  844MOL0     H13898   7.843   4.408   0.100 -1.0058 -0.7650  3.2855
  844MOL0     H13899   7.716   4.447   0.202 -0.5670  1.6864 -0.0710
  844MOL0     H13900   7.658   4.802  -0.067  0.4138  1.7588  0.9903
  844MOL0     H13901   7.475   4.953  -0.014  2.2703  3.0006  3.6224
  844MOL0     H13902   7.306   5.197   0.313 -2.7013 -4.1819  1.5914
  844MOL0     H13903   7.124   5.358   0.383 -1.0790  0.7480 -0.3533
  844MOL0     H13904   6.803   5.498   0.110 -3.1449  0.2812  0.5669
  844MOL0     H13905   6.756   5.370   0.234  1.0890 -0.5013  3.4131
  844MOL0     H13906   6.635   5.576   0.267  0.9373 -0.3353  0.6958
  844MOL0     H13907   6.741   5.573   0.405 -0.7328  0.1710 -0.6489
  844MOL0     H13908   6.902   5.718   0.284  0.2565  0.8026 -3.7415
  844MOL0     H13909   6.787   5.722   0.150 -0.8252  2.4802  0.6017
  844MOL0     H13910   6.738   5.832   0.424  3.1134 -0.1159 -0.1774
  844MOL0     H13911   6.625   5.836   0.278  0.8887  2.2423 -0.7840
  844MOL0     H13912   6.825   5.956   0.158  2.1500 -1.3092 -0.0845
  844MOL0     H13913   6.908   5.954   0.300  0.9730 -0.5312 -1.0258
  844MOL0     H13914   6.623   6.039   0.309 -0.6373 -1.4934  2.0264
  844MOL0     H13915   6.723   6.070   0.438 -2.2515 -3.5120  0.0766
  844MOL0     H13916   6.683   6.279   0.343 -3.6053 -1.8847 -0.8051
  844MOL0     H13917   6.683   6.223   0.184  1.3884 -0.9763 -0.7025
  844MOL0     H13918   6.855   6.381   0.262 -2.4875 -0.9012 -4.0017
  844MOL0     H13919   6.938   6.254   0.364  2.6932 -1.6086 -2.0879
  844MOL0     H13920   6.931   5.315   0.007  0.6967  1.8763 -0.9006
  844MOL0     H13921   7.092   5.131  -0.057  0.7190  1.9057 -0.4490
  844MOL0     H13922   7.367   4.690   0.318 -1.6722 -2.6604 -0.9638
  844MOL0     H13923   7.517   4.528   0.234  0.8731  0.2642  0.1991
  844MOL0     H13924   7.261   2.858  -0.157  1.0538 -2.4137 -2.2989
  844MOL0     H13925   7.250   2.625  -0.156 -0.5788  0.8146 -1.1970
  844MOL0     H13926   7.298   2.252   0.060  1.7964 -2.3018 -1.3611
  844MOL0     H13927   7.318   2.012  -0.003  0.1467 -1.6675  3.8670
  844MOL0     H13928   6.970   1.764  -0.027 -0.8590 -0.2247  0.6224
  844MOL0     H13929   7.004   1.772   0.155  1.2793  2.7029  0.2654
  844MOL0     H13930   7.180   1.601   0.108  1.4933  0.8269 -1.1507
  844MOL0     H13931   7.119   1.598  -0.063 -0.6961  2.8154 -0.1456
  844MOL0     H13932   6.900   1.519   0.035  2.2828  1.3113 -4.3769
  844MOL0     H13933   6.963   1.549   0.200 -2.3086 -1.4569  0.3449
  844MOL0     H13934   7.062   1.312   0.006  4.0959 -0.0537 -0.0895
  844MOL0     H13935   7.171   1.387   0.110  0.1738  0.3604 -0.6572
  844MOL0     H13936   6.924   1.158   0.364 -1.2998  1.4226  0.3365
  844MOL0     H13937   6.902   1.960   0.064  0.5624  0.3410  2.9322
  844MOL0     H13938   6.794   2.202  -0.065  1.0347  0.2946 -0.2494
  844MOL0     H13939   6.741   2.160   0.100 -1.4105  1.6892  0.1412
  844MOL0     H13940   6.807   2.314   0.058 -2.2718  0.3643  0.2430
  845MOL0     O13941   8.770  10.622  10.219 -0.0598  0.2459 -0.3223
  845MOL0     C13942   8.828  10.736  10.197  0.9212 -0.2792 -0.2796
  845MOL0     O13943   8.811  10.809  10.079 -0.7191  0.2784 -0.0590
  845MOL0     C13944   8.814  10.731   9.967 -0.3130 -0.4355  0.6343
  845MOL0     C13945   8.872  10.606   9.955  0.0080  0.0626 -0.5788
  845MOL0     C13946   8.846  10.524   9.845  0.2060 -0.8324  0.7595
  845MOL0     C13947   8.771  10.572   9.736  0.3559  0.0989 -0.2519
  845MOL0     O13948   8.744  10.486   9.631 -0.7226 -0.2203 -0.0464
  845MOL0     C13949   8.795  10.523   9.506 -1.5092 -0.8845  0.3277
  845MOL0     C13950   8.803  10.413   9.403 -0.5471  0.0896  0.4225
  845MOL0     C13951   8.913  10.303   9.430 -0.0364  0.5563 -0.0282
  845MOL0     C13952   8.859  10.206   9.544  0.6334  0.1276 -0.0109
  845MOL0     C13953   8.946  10.096   9.593 -0.3714 -0.6897 -1.2539
  845MOL0     C13954   9.030  10.031   9.481 -1.0672 -0.0505 -0.0682
  845MOL0     C13955   9.063   9.880   9.523  0.4366 -1.0403 -0.3666
  845MOL0     C13956   8.935   9.806   9.482  0.1491  0.5288  0.2110
  845MOL0     N13957   8.920   9.683   9.551 -0.2596  0.2829 -0.2089
  845MOL0     C13958   8.890   9.661   9.680  0.0964 -0.6242 -0.4850
  845MOL0     C13959   8.894   9.528   9.693  0.2378 -0.2631 -0.1692
  845MOL0     C13960   8.891   9.472   9.834  0.0008  0.2083 -0.5066
  845MOL0     C13961   9.029   9.448   9.905  0.0932  0.3509 -0.7261
  845MOL0     C13962   9.142   9.533   9.876 -0.3204  0.5456  0.4322
  845MOL0     C13963   9.268   9.492   9.948  0.9897 -0.5621  0.1641
  845MOL0     O13964   9.354   9.610   9.945 -0.2671 -0.1606  0.5705
  845MOL0     C13965   9.462   9.612  10.027 -0.3309 -0.6727  0.8319
  845MOL0     C13966   9.498   9.516  10.127 -0.2635 -0.6984 -0.1095
  845MOL0     C13967   9.614   9.540  10.199 -0.5301  0.0272 -0.0832
  845MOL0     C13968   9.701   9.652  10.166  0.3020  0.0113  0.6091
  845MOL0     C13969   9.833   9.672  10.221  0.0039 -0.0197  0.1552
  845MOL0     O13970   9.912   9.762  10.164 -0.4120  0.0020  0.3579
  845MOL0     C13971  10.026   9.823  10.223 -0.0673 -0.1256 -0.1404
  845MOL0     C13972  10.117   9.751  10.302 -0.1731 -0.1038 -0.2512
  845MOL0     C13973  10.228   9.820  10.352 -0.1944  0.4435 -0.1158
  845MOL0     C13974  10.260   9.947  10.312 -1.2825 -0.2033  0.2437
  845MOL0     O13975  10.362  10.024  10.353  0.6763  0.4508 -0.3537
  845MOL0     C13976  10.459   9.958  10.444  0.0374 -0.7381 -0.1536
  845MOL0     C13977  10.557  10.068  10.503  0.6634 -0.0771 -0.7284
  845MOL0     C13978  10.689  10.002  10.553 -0.2073  0.6914  0.8687
  845MOL0     C13979  10.798  10.095  10.592 -0.4809  0.0918 -0.2911
  845MOL0     C13980  10.940  10.038  10.605  0.0469 -0.8888  0.2752
  845MOL0     C13981  10.962   9.939  10.710 -0.8572  1.3646  0.0710
  845MOL0     C13982  11.111   9.879  10.720  0.5673 -0.2543 -0.6691
  845MOL0     C13983  11.158   9.889  10.864 -1.7541 -0.0137 -1.2053
  845MOL0    Cl13984  11.059   9.806  10.990 -0.3272  0.0594  0.2263
  845MOL0     C13985  10.184  10.005  10.205  0.0328  1.0168  0.6325
  845MOL0     C13986  10.060   9.954  10.175 -0.1060  1.4738  0.0024
  845MOL0     O13987   9.846   9.639  10.336  0.3767 -0.3451 -0.1403
  845MOL0     C13988   9.656   9.736  10.068  0.2571  0.7976 -0.0585
  845MOL0     C13989   9.540   9.725   9.998  0.4380 -0.2060 -0.2366
  845MOL0     N13990   8.921   9.468   9.571 -0.5680 -0.0938  0.0826
  845MOL0     N13991   8.936   9.567   9.489 -0.0049 -0.5986  0.5300
  845MOL0     C13992   8.714  10.707   9.737 -0.6197 -0.5193 -0.7663
  845MOL0     C13993   8.747  10.786   9.846 -0.7980 -0.0077 -0.4404
  845MOL0     C13994   8.918  10.793  10.302 -0.8827 -0.1172  0.5597
  845MOL0     C13995   9.015  10.887  10.258  0.8418 -0.0823 -0.3501
  845MOL0     C13996   9.103  10.952  10.354  0.3307  0.5222  1.0150
  845MOL0     C13997   9.078  10.925  10.492  0.4139  0.9070  1.2381
  845MOL0     O13998   9.130  10.982  10.603  0.2760 -0.4372  0.1042
  845MOL0     C13999   9.241  11.076  10.584  0.4359  0.0738 -0.3625
  845MOL0     C14000   9.386  11.023  10.554  0.8722  0.1157  0.1287
  845MOL0     C14001   9.473  11.145  10.523 -0.4420 -0.1366 -0.2212
  845MOL0     C14002   9.624  11.093  10.514  0.3331 -0.9480  0.6892
  845MOL0     C14003   9.723  11.205  10.505 -0.2913  0.1458  0.0025
  845MOL0     C14004   9.809  11.292  10.500 -0.0094  0.8123 -1.2241
  845MOL0     C14005   8.985  10.831  10.528  0.5791  0.1303 -0.5493
  845MOL0     C14006   8.911  10.768  10.436 -1.0960  0.4140  0.9052
  845MOL0     C14007   8.811  10.666  10.492  0.1508 -0.9467 -0.5224
  845MOL0     H14008   8.944  10.568  10.027  0.5988 -4.8530 -3.3140
  845MOL0     H14009   8.876  10.420   9.841  1.6076 -0.7820  4.7831
  845MOL0     H14010   8.722  10.585   9.453  2.0582  1.3883 -2.4288
  845MOL0     H14011   8.881  10.592   9.506 -1.5758 -0.7411 -1.4961
  845MOL0     H14012   8.824  10.456   9.304 -0.9989 -1.9735 -0.6165
  845MOL0     H14013   8.707  10.363   9.392 -1.4989  2.3999 -4.4568
  845MOL0     H14014   9.009  10.348   9.454 -1.0737  3.8430 -1.4554
  845MOL0     H14015   8.935  10.246   9.339 -0.4710  0.0188  0.1958
  845MOL0     H14016   8.829  10.277   9.622  0.0646  0.6574 -0.6966
  845MOL0     H14017   8.759  10.170   9.516 -0.6382  0.8492  3.1775
  845MOL0     H14018   8.998  10.133   9.681  0.2639 -0.8268 -1.5649
  845MOL0     H14019   8.869  10.033   9.640  1.4868 -1.7099  0.5685
  845MOL0     H14020   8.981  10.035   9.384  0.7730 -0.1247 -1.0563
  845MOL0     H14021   9.129  10.078   9.479 -1.2231  0.3398  0.8417
  845MOL0     H14022   9.085   9.865   9.629 -3.0439  0.2986  0.6635
  845MOL0     H14023   9.149   9.849   9.462 -1.4809 -2.5010 -2.5022
  845MOL0     H14024   8.847   9.866   9.505  1.6742  3.2145 -0.5783
  845MOL0     H14025   8.929   9.787   9.374 -1.8807 -0.1822  0.4014
  845MOL0     H14026   8.871   9.732   9.760 -4.3416 -1.9745 -0.0250
  845MOL0     H14027   8.823   9.532   9.894  2.6416  0.7327  2.1884
  845MOL0     H14028   8.841   9.375   9.831  1.1152 -0.3921 -0.2142
  845MOL0     H14029   9.007   9.463  10.011 -3.0652 -1.8385 -0.9405
  845MOL0     H14030   9.061   9.344   9.890 -1.4231 -0.2743  0.1739
  845MOL0     H14031   9.118   9.632   9.916 -0.9734 -0.1083  1.6736
  845MOL0     H14032   9.157   9.533   9.767  0.8253  1.7953  0.5544
  845MOL0     H14033   9.309   9.403   9.900 -1.1009 -2.8093  2.2599
  845MOL0     H14034   9.248   9.460  10.050  1.3573 -0.5613  0.2402
  845MOL0     H14035   9.443   9.423  10.137  0.3332 -1.1326 -0.8301
  845MOL0     H14036   9.643   9.465  10.272 -1.4347  0.7700  1.0936
  845MOL0     H14037  10.113   9.648  10.335  1.3809 -0.1061  0.0463
  845MOL0     H14038  10.292   9.766  10.421 -1.9812 -2.8942 -0.8470
  845MOL0     H14039  10.407   9.912  10.527 -1.3792 -2.1840 -1.7741
  845MOL0     H14040  10.522   9.889  10.387 -0.4679 -0.7361 -0.7285
  845MOL0     H14041  10.582  10.144  10.429  1.7708  0.3645  0.0755
  845MOL0     H14042  10.507  10.118  10.587 -1.8889 -0.3075 -2.0165
  845MOL0     H14043  10.668   9.940  10.641 -5.1563 -1.6213 -1.5466
  845MOL0     H14044  10.739   9.936  10.481  2.7007 -1.0422  4.1747
  845MOL0     H14045  10.764  10.153  10.678 -1.1104 -2.1300  1.0616
  845MOL0     H14046  10.796  10.174  10.517  1.2850 -1.9505 -2.6968
  845MOL0     H14047  10.992  10.132  10.627 -1.5285  0.2775 -0.8221
  845MOL0     H14048  10.968  10.006  10.504 -0.2105 -1.1639  0.2914
  845MOL0     H14049  10.932   9.975  10.809  0.2013 -0.5980  1.1578
  845MOL0     H14050  10.898   9.852  10.695 -1.7831  1.8287  1.1702
  845MOL0     H14051  11.180   9.929  10.652 -0.3244  0.2256 -1.2430
  845MOL0     H14052  11.106   9.772  10.701  1.0474  0.0709 -2.8445
  845MOL0     H14053  11.261   9.853  10.874 -1.4185 -0.1464 -4.2402
  845MOL0     H14054  11.165   9.996  10.885  3.7124 -0.1538 -0.9495
  845MOL0     H14055  10.209  10.101  10.163  0.0175  0.4477 -0.7406
  845MOL0     H14056  10.004  10.006  10.098 -0.8313  2.2285  1.0153
  845MOL0     H14057   9.734   9.798  10.024  1.9842  0.2245  2.0137
  845MOL0     H14058   9.516   9.788   9.913  0.6873  0.4854  0.1976
  845MOL0     H14059   8.662  10.745   9.649  0.0376 -1.9534 -1.8171
  845MOL0     H14060   8.720  10.891   9.852  0.8716  0.3357  2.2403
  845MOL0     H14061   9.014  10.910  10.152  4.3206 -1.4494 -0.7956
  845MOL0     H14062   9.189  11.012  10.329  2.0562 -2.0166  0.4512
  845MOL0     H14063   9.258  11.130  10.677 -3.2629  0.3361  0.3147
  845MOL0     H14064   9.213  11.159  10.520  3.7722  1.1459 -0.6212
  845MOL0     H14065   9.380  10.963  10.463  0.8001 -2.7859  1.8950
  845MOL0     H14066   9.428  10.959  10.633 -0.7997 -2.8235 -1.1926
  845MOL0     H14067   9.458  11.225  10.597 -1.4517  0.5569 -1.1263
  845MOL0     H14068   9.449  11.188  10.425 -0.9042 -1.0588 -0.5221
  845MOL0     H14069   9.654  11.024  10.593  4.4908  1.5223  1.5544
  845MOL0     H14070   9.644  11.044  10.419 -1.9627  0.2170 -0.4976
  845MOL0     H14071   9.886  11.365  10.493  0.2807  0.3473 -3.3197
  845MOL0     H14072   8.977  10.815  10.635  0.9903 -3.8173 -0.9879
  845MOL0     H14073   8.712  10.692  10.453  0.5326  3.9109  1.0073
  845MOL0     H14074   8.839  10.565  10.461  0.8455 -1.8584  2.7434
  845MOL0     H14075   8.816  10.659  10.601 -1.0939 -0.5784 -0.4264
  846MOL0     O14076   1.764   6.546   5.881 -0.0220  0.6822  0.6791
  846MOL0     C14077   1.788   6.446   5.809 -0.4155 -0.4001 -0.2133
  846MOL0     O14078   1.727   6.427   5.687  0.5183  0.7059  0.3130
  846MOL0     C14079   1.643   6.508   5.617  1.2849 -0.1517  0.2523
  846MOL0     C14080   1.524   6.459   5.563  1.7128  0.2161 -0.6732
  846MOL0     C14081   1.434   6.549   5.516  1.1885 -0.3611  0.0805
  846MOL0     C14082   1.459   6.688   5.510  1.0182  1.5187  0.1922
  846MOL0     O14083   1.362   6.773   5.471  0.6669  0.2388 -0.8961
  846MOL0     C14084   1.376   6.913   5.468  0.3517  0.9037  0.6716
  846MOL0     C14085   1.383   6.985   5.604  0.8349  0.4512  0.5598
  846MOL0     C14086   1.269   6.941   5.694 -0.2803  0.0056 -0.0153
  846MOL0     C14087   1.311   6.951   5.846  0.0808 -1.4896  0.2894
  846MOL0     C14088   1.412   6.852   5.907 -1.0418  0.3505  0.1217
  846MOL0     C14089   1.351   6.717   5.920  0.5951 -0.4662  0.2219
  846MOL0     C14090   1.449   6.603   5.943 -1.0326  0.6274  0.5246
  846MOL0     C14091   1.390   6.456   5.923 -0.8009  0.2632 -0.5442
  846MOL0     N14092   1.311   6.427   6.049 -0.3745  0.7189  0.4609
  846MOL0     C14093   1.346   6.346   6.157  0.2602 -0.1490  0.9689
  846MOL0     C14094   1.237   6.358   6.245  0.2722  0.0784  0.0742
  846MOL0     C14095   1.229   6.285   6.385 -0.2316  0.4420  0.6768
  846MOL0     C14096   1.236   6.130   6.364  1.1628 -0.4244  0.1917
  846MOL0     C14097   1.239   6.061   6.503 -0.2516  0.5669  0.3817
  846MOL0     C14098   1.094   6.027   6.555  0.5870 -0.6623 -0.8709
  846MOL0     O14099   1.025   6.132   6.635  0.2818  0.3804  0.7965
  846MOL0     C14100   1.090   6.192   6.740 -0.0434  0.0144 -0.0551
  846MOL0     C14101   1.106   6.328   6.738 -0.2403  0.5887 -0.0491
  846MOL0     C14102   1.157   6.387   6.855  0.1393 -0.4156 -0.0239
  846MOL0     C14103   1.193   6.315   6.962 -0.7265 -0.3392 -0.0577
  846MOL0     C14104   1.253   6.392   7.069 -0.1027 -1.1166 -0.0354
  846MOL0     O14105   1.241   6.533   7.078  0.0034  0.4984 -0.1942
  846MOL0     C14106   1.295   6.586   7.192 -0.3072  0.9902 -0.2411
  846MOL0     C14107   1.207   6.644   7.281 -0.1108  0.6826  0.5523
  846MOL0     C14108   1.258   6.700   7.405 -0.2757  1.4717  0.7088
  846MOL0     C14109   1.395   6.698   7.434  0.4510 -0.3552  0.2826
  846MOL0     O14110   1.438   6.759   7.551  0.5375 -0.4289 -0.0857
  846MOL0     C14111   1.556   6.713   7.617  0.2287  0.0829  0.7012
  846MOL0     C14112   1.552   6.751   7.769 -0.6405 -0.3518 -0.0086
  846MOL0     C14113   1.682   6.710   7.837 -0.4133  0.2271 -0.4259
  846MOL0     C14114   1.684   6.691   7.986 -0.1564  0.4674 -0.4306
  846MOL0     C14115   1.816   6.663   8.041  0.1477 -0.0627 -0.3668
  846MOL0     C14116   1.865   6.528   7.991  0.4319 -0.0319  0.1415
  846MOL0     C14117   1.991   6.469   8.072 -0.0436  1.1056 -0.0271
  846MOL0     C14118   2.008   6.321   8.040  0.7904  0.9121  0.8343
  846MOL0    Cl14119   1.935   6.268   7.881 -0.7187  0.0982 -0.4251
  846MOL0     C14120   1.480   6.650   7.336 -0.4674 -0.9783  1.1415
  846MOL0     C14121   1.433   6.584   7.221  0.9011 -0.3887 -0.1152
  846MOL0     O14122   1.301   6.321   7.159  0.6931  0.8221 -0.7229
  846MOL0     C14123   1.196   6.184   6.958  0.6687  0.0928 -0.3158
  846MOL0     C14124   1.147   6.119   6.848  0.0540 -0.2646  1.0535
  846MOL0     N14125   1.134   6.429   6.179 -0.4517 -1.0340 -0.1962
  846MOL0     N14126   1.181   6.465   6.062 -0.6034  0.9887  0.1243
  846MOL0     C14127   1.582   6.723   5.552  0.1314 -1.0884  0.5883
  846MOL0     C14128   1.671   6.645   5.614 -0.0588  0.0898  0.1626
  846MOL0     C14129   1.886   6.338   5.869  0.1560 -0.4875 -0.9760
  846MOL0     C14130   1.919   6.347   6.000  0.4734 -1.2816  0.3079
  846MOL0     C14131   2.012   6.263   6.046 -0.8153  0.3359 -0.3236
  846MOL0     C14132   2.090   6.168   5.967  0.4234 -0.6871 -0.1618
  846MOL0     O14133   2.176   6.095   6.036  0.3112 -0.7749 -0.2419
  846MOL0     C14134   2.279   6.043   5.948 -0.4004  0.4366 -0.1161
  846MOL0     C14135   2.255   5.897   5.897  0.2356 -0.7049 -0.0493
  846MOL0     C14136   2.341   5.865   5.771  0.6875 -0.2021  0.3175
  846MOL0     C14137   2.336   5.713   5.737 -0.2594  0.3408 -0.2248
  846MOL0     C14138   2.427   5.675   5.637 -0.1019 -0.3012 -0.9622
  846MOL0     C14139   2.500   5.667   5.546  0.3762  0.8601 -1.0608
  846MOL0     C14140   2.050   6.153   5.835 -0.3057  0.4272  0.5934
  846MOL0     C14141   1.943   6.230   5.788 -1.0005  0.3570  0.5830
  846MOL0     C14142   1.917   6.216   5.638  0.1740 -0.8121  0.7670
  846MOL0     H14143   1.494   6.355   5.562 -0.4062  0.7610  0.1254
  846MOL0     H14144   1.344   6.499   5.484  1.0657 -1.0562  1.4433
  846MOL0     H14145   1.460   6.951   5.410  0.5407 -2.4268 -1.5052
  846MOL0     H14146   1.301   6.961   5.404  0.5469  3.7625  2.4266
  846MOL0     H14147   1.385   7.094   5.594  0.9921  0.5528  1.5963
  846MOL0     H14148   1.478   6.953   5.648  0.2476  0.8079  2.1281
  846MOL0     H14149   1.238   6.837   5.685 -2.6612  0.4323  2.2089
  846MOL0     H14150   1.181   7.002   5.674 -0.1185  0.6383  1.1336
  846MOL0     H14151   1.359   7.049   5.850  1.4375 -2.0189 -1.5317
  846MOL0     H14152   1.222   6.943   5.908 -1.0582 -0.1680 -1.0912
  846MOL0     H14153   1.510   6.841   5.858 -0.2494  2.3052  1.1799
  846MOL0     H14154   1.430   6.898   6.004 -3.5061  0.3347  0.6235
  846MOL0     H14155   1.281   6.720   6.004 -0.7978 -0.8604 -0.8821
  846MOL0     H14156   1.286   6.701   5.833 -0.5232  0.0287  0.9520
  846MOL0     H14157   1.514   6.610   6.031  0.4318  1.2324 -0.5484
  846MOL0     H14158   1.520   6.621   5.861 -1.7254  1.7728  0.1561
  846MOL0     H14159   1.330   6.446   5.833 -0.3289 -3.2972 -0.5902
  846MOL0     H14160   1.471   6.383   5.911  1.2253  2.3487 -0.4599
  846MOL0     H14161   1.439   6.298   6.186 -1.1135 -2.1725  2.4134
  846MOL0     H14162   1.317   6.322   6.438  0.4635 -2.3048  1.5658
  846MOL0     H14163   1.141   6.318   6.440 -2.2363  1.5939 -2.8579
  846MOL0     H14164   1.144   6.106   6.309  0.3070  0.5478  1.1383
  846MOL0     H14165   1.319   6.112   6.295  0.3900 -1.4712 -0.4939
  846MOL0     H14166   1.296   6.131   6.566 -0.8722  0.0135  1.5843
  846MOL0     H14167   1.296   5.969   6.492  0.0778  0.8004  0.1284
  846MOL0     H14168   1.093   5.928   6.601 -1.1421 -0.1535  0.3015
  846MOL0     H14169   1.033   6.009   6.467 -1.9803  2.8494 -0.0357
  846MOL0     H14170   1.061   6.398   6.668  1.0560  1.0720 -0.4411
  846MOL0     H14171   1.158   6.496   6.863 -0.7383 -0.5135  1.9631
  846MOL0     H14172   1.102   6.646   7.255  0.7321 -1.9220 -4.2710
  846MOL0     H14173   1.194   6.771   7.457  0.3250  3.2134 -0.8163
  846MOL0     H14174   1.570   6.605   7.613  3.4800  0.4094  0.5271
  846MOL0     H14175   1.646   6.750   7.566  0.4198 -3.2368 -1.7064
  846MOL0     H14176   1.555   6.860   7.774 -3.4223 -0.2038  0.2473
  846MOL0     H14177   1.465   6.722   7.828  1.3324  0.6853  3.7273
  846MOL0     H14178   1.713   6.619   7.786  0.6738  1.8835 -2.9385
  846MOL0     H14179   1.756   6.788   7.819  1.9574 -1.7881  0.1064
  846MOL0     H14180   1.617   6.613   8.025 -0.7953 -0.0478 -2.4313
  846MOL0     H14181   1.645   6.784   8.029 -2.0883 -0.4095 -0.1537
  846MOL0     H14182   1.827   6.668   8.150  1.1711 -0.4257 -0.4489
  846MOL0     H14183   1.886   6.743   8.014 -1.1391  1.7589  1.4124
  846MOL0     H14184   1.779   6.462   7.979 -1.5430  2.3067  0.6349
  846MOL0     H14185   1.910   6.546   7.893  1.6617  0.7460  0.8201
  846MOL0     H14186   1.976   6.482   8.179 -2.7271  0.8353 -0.2923
  846MOL0     H14187   2.085   6.522   8.054  1.1576 -0.0565  2.4056
  846MOL0     H14188   2.115   6.301   8.027  0.6527 -0.2503  1.2884
  846MOL0     H14189   1.957   6.253   8.110  0.8779 -1.8032 -1.5438
  846MOL0     H14190   1.587   6.664   7.342  0.1643 -2.4450 -3.3427
  846MOL0     H14191   1.500   6.556   7.140  3.2037 -0.6656  1.7861
  846MOL0     H14192   1.258   6.125   7.025  1.6571  0.9472 -0.4501
  846MOL0     H14193   1.151   6.013   6.822 -1.5368  0.3571 -2.2889
  846MOL0     H14194   1.608   6.829   5.548 -3.3529 -0.1444 -0.3543
  846MOL0     H14195   1.771   6.667   5.650  0.3744 -3.3905  1.4609
  846MOL0     H14196   1.867   6.409   6.073 -3.6363 -3.0562 -0.8173
  846MOL0     H14197   2.047   6.267   6.148  0.8311 -0.6517 -0.8029
  846MOL0     H14198   2.361   6.043   6.020 -0.5249  2.8475  0.1061
  846MOL0     H14199   2.316   6.104   5.864  0.6750  1.3965  1.0263
  846MOL0     H14200   2.147   5.906   5.882 -0.0388 -0.8087  1.6651
  846MOL0     H14201   2.274   5.818   5.970  0.6210 -2.7730 -2.2631
  846MOL0     H14202   2.444   5.897   5.786  0.9493 -0.9257  0.1118
  846MOL0     H14203   2.296   5.927   5.693 -2.3513 -1.5337  0.8668
  846MOL0     H14204   2.357   5.655   5.828 -2.1468  1.8538  1.2531
  846MOL0     H14205   2.234   5.681   5.714 -0.5294  1.6703 -0.9826
  846MOL0     H14206   2.566   5.674   5.462  2.3266 -0.1245  0.3112
  846MOL0     H14207   2.089   6.083   5.763 -2.7363  1.0601 -1.4715
  846MOL0     H14208   1.915   6.306   5.576  1.0328 -1.4632 -0.2576
  846MOL0     H14209   2.002   6.154   5.607 -0.2971 -1.0092 -0.1708
  846MOL0     H14210   1.831   6.160   5.601  0.9231 -1.1985 -0.4632
  847MOL0     O14211   8.062   3.303   0.554  0.4962 -0.3164  0.1901
  847MOL0     C14212   8.164   3.366   0.586  0.2538 -0.1869 -0.5512
  847MOL0     O14213   8.273   3.382   0.508  0.1075 -0.3824 -0.3098
  847MOL0     C14214   8.259   3.329   0.381 -0.9780 -0.7144  0.0580
  847MOL0     C14215   8.291   3.204   0.344  0.2088  0.3394  0.2611
  847MOL0     C14216   8.243   3.148   0.225  0.1176 -0.2859 -0.3299
  847MOL0     C14217   8.168   3.224   0.138 -0.3641 -0.4148  0.0580
  847MOL0     O14218   8.097   3.166   0.031  0.2211  0.0862 -0.1551
  847MOL0     C14219   7.962   3.135   0.064  0.7284 -0.1670  0.5910
  847MOL0     C14220   7.865   3.115  -0.050 -0.3658 -0.2382  0.7203
  847MOL0     C14221   7.896   3.219  -0.158 -0.0769 -0.6965  0.2775
  847MOL0     C14222   7.866   3.362  -0.118 -0.3476  0.5506  0.8391
  847MOL0     C14223   7.927   3.463  -0.210  0.0856  0.0110  0.1769
  847MOL0     C14224   7.943   3.595  -0.133  0.1942 -0.2276  0.2854
  847MOL0     C14225   7.985   3.699  -0.237 -0.8488 -0.1906  0.0095
  847MOL0     C14226   7.876   3.726  -0.349  0.5147  0.3694  0.4670
  847MOL0     N14227   7.911   3.850  -0.416 -0.0491  0.2727 -0.2063
  847MOL0     C14228   7.864   3.978  -0.385 -0.3403  0.4046 -0.0387
  847MOL0     C14229   7.898   4.060  -0.489  0.9922 -0.8398 -0.3080
  847MOL0     C14230   7.891   4.210  -0.483 -0.4133  0.7614  1.1554
  847MOL0     C14231   7.997   4.270  -0.394  0.5492  0.1347 -0.3222
  847MOL0     C14232   8.140   4.229  -0.436  0.1460  0.4155  0.8709
  847MOL0     C14233   8.248   4.326  -0.381 -0.6187 -0.7093 -1.1487
  847MOL0     O14234   8.279   4.423  -0.485 -0.6119 -0.2226  0.1199
  847MOL0     C14235   8.360   4.395  -0.592  0.2495  0.5642  0.5385
  847MOL0     C14236   8.350   4.482  -0.704 -0.3629  0.0823  0.7439
  847MOL0     C14237   8.422   4.452  -0.820 -0.2595  0.7198 -0.6981
  847MOL0     C14238   8.526   4.348  -0.822 -0.8389 -0.6879 -0.1604
  847MOL0     C14239   8.623   4.340  -0.923  0.0419 -0.2127  0.4769
  847MOL0     O14240   8.737   4.272  -0.895 -0.1741 -0.2213 -0.1219
  847MOL0     C14241   8.845   4.289  -0.980  0.1910 -0.6058  1.5274
  847MOL0     C14242   8.935   4.184  -0.969  1.0321  1.0516  0.4350
  847MOL0     C14243   9.063   4.177  -1.030 -0.2730  0.2065 -0.7798
  847MOL0     C14244   9.091   4.284  -1.116 -0.9616 -0.5817 -0.1163
  847MOL0     O14245   9.218   4.291  -1.172 -0.2107  0.3654 -0.6929
  847MOL0     C14246   9.251   4.175  -1.257  0.5320 -0.1220  0.0740
  847MOL0     C14247   9.377   4.101  -1.213 -0.2959  0.3603  1.1961
  847MOL0     C14248   9.498   4.202  -1.195  0.0616 -0.6634  0.4166
  847MOL0     C14249   9.627   4.127  -1.161 -0.1164 -0.5429  0.0915
  847MOL0     C14250   9.698   4.053  -1.269 -0.8497  0.2121 -0.7666
  847MOL0     C14251   9.804   3.959  -1.206  0.4598  0.3881 -0.8585
  847MOL0     C14252   9.877   3.869  -1.312 -1.9888  0.3573  0.3988
  847MOL0     C14253  10.005   3.815  -1.239  0.5103 -1.2434 -0.4464
  847MOL0    Cl14254  10.110   3.932  -1.173 -0.3952  0.2381  0.1221
  847MOL0     C14255   9.001   4.398  -1.129  0.3077 -0.1670  0.2203
  847MOL0     C14256   8.876   4.404  -1.065  0.3072  0.3547 -0.3270
  847MOL0     O14257   8.606   4.414  -1.022 -0.0177  0.3823  0.4009
  847MOL0     C14258   8.536   4.257  -0.719 -0.3899 -0.2530 -0.8267
  847MOL0     C14259   8.448   4.279  -0.603 -1.3644 -0.1188 -0.3799
  847MOL0     N14260   7.976   3.987  -0.570 -0.4864 -0.0012 -0.4521
  847MOL0     N14261   7.990   3.865  -0.523 -0.4413 -0.2674  0.0984
  847MOL0     C14262   8.153   3.360   0.167  0.6237  0.1060  0.8092
  847MOL0     C14263   8.192   3.413   0.289  0.7721  0.1191 -0.0751
  847MOL0     C14264   8.172   3.448   0.708 -1.1174  0.3803  0.3728
  847MOL0     C14265   8.301   3.455   0.776  0.6413 -0.7807  0.4833
  847MOL0     C14266   8.324   3.517   0.890  0.1022 -1.1433  0.5969
  847MOL0     C14267   8.213   3.580   0.961  0.1723  0.2209  0.2214
  847MOL0     O14268   8.249   3.663   1.071  0.1632  0.3396  0.2824
  847MOL0     C14269   8.148   3.652   1.176 -0.7004 -0.2121  0.2394
  847MOL0     C14270   8.221   3.704   1.307  0.1766 -0.0536  0.7117
  847MOL0     C14271   8.360   3.655   1.342  0.4161  0.8454  0.0703
  847MOL0     C14272   8.422   3.526   1.295  0.0519  0.3091  0.6570
  847MOL0     C14273   8.334   3.413   1.343  0.1827  0.0505 -0.2071
  847MOL0     C14274   8.258   3.328   1.383  0.5125 -0.6238  0.4306
  847MOL0     C14275   8.089   3.567   0.901 -0.5020 -0.4978 -0.6524
  847MOL0     C14276   8.063   3.499   0.786 -0.3334 -0.3227  0.4120
  847MOL0     C14277   7.926   3.515   0.729 -0.6053 -1.0709 -0.7212
  847MOL0     H14278   8.353   3.151   0.415  0.4394  0.7860  0.3966
  847MOL0     H14279   8.242   3.043   0.200  0.2751 -0.2114 -0.6444
  847MOL0     H14280   7.968   3.047   0.129  0.6678  1.5179  3.0663
  847MOL0     H14281   7.911   3.216   0.118  0.7382 -0.1879  0.6312
  847MOL0     H14282   7.765   3.130  -0.009  0.4167  0.5598  2.4623
  847MOL0     H14283   7.879   3.016  -0.093  0.1703 -0.9742  2.5183
  847MOL0     H14284   7.831   3.196  -0.243 -1.2218 -1.2439  1.2593
  847MOL0     H14285   8.001   3.219  -0.187 -0.1428  0.4230 -0.0089
  847MOL0     H14286   7.757   3.368  -0.114 -0.7018 -2.4687 -1.1143
  847MOL0     H14287   7.906   3.375  -0.017 -2.2724 -3.1188  2.2537
  847MOL0     H14288   8.030   3.437  -0.236  1.2803  3.2614  1.2064
  847MOL0     H14289   7.864   3.470  -0.299 -0.1052 -2.0607  0.0986
  847MOL0     H14290   7.855   3.632  -0.080  1.0282  2.1575  0.1506
  847MOL0     H14291   8.026   3.592  -0.062 -1.0268 -0.9886  1.7253
  847MOL0     H14292   8.075   3.669  -0.292  1.8135 -1.7599  4.6525
  847MOL0     H14293   8.018   3.792  -0.190  1.8589 -1.1494  0.1964
  847MOL0     H14294   7.853   3.638  -0.409 -3.6282  1.7018 -0.2132
  847MOL0     H14295   7.781   3.733  -0.296  0.8796  0.6674  1.1027
  847MOL0     H14296   7.819   4.015  -0.294  2.6644 -0.6958  2.0535
  847MOL0     H14297   7.910   4.240  -0.586 -2.5999  1.7691  0.9941
  847MOL0     H14298   7.789   4.234  -0.452 -0.9840  2.4205 -1.7394
  847MOL0     H14299   7.984   4.379  -0.395 -0.6977  0.0965  2.1008
  847MOL0     H14300   7.966   4.243  -0.292 -2.0709 -1.0766 -1.3420
  847MOL0     H14301   8.158   4.222  -0.544  0.1776 -0.2964  0.9171
  847MOL0     H14302   8.151   4.127  -0.399  2.0994 -0.0824 -0.8614
  847MOL0     H14303   8.337   4.274  -0.344  0.2090  2.8527  2.5919
  847MOL0     H14304   8.217   4.383  -0.293 -1.0832  1.8928 -2.9092
  847MOL0     H14305   8.287   4.570  -0.715  0.9220  0.9727  0.2156
  847MOL0     H14306   8.412   4.518  -0.905  5.4942  0.1137 -2.2764
  847MOL0     H14307   8.903   4.099  -0.911 -0.2878  1.8417  0.8968
  847MOL0     H14308   9.119   4.085  -1.017 -0.2462  0.1997 -0.9349
  847MOL0     H14309   9.172   4.100  -1.259  0.0756  0.3548 -1.9091
  847MOL0     H14310   9.262   4.218  -1.357 -1.1606 -0.9372 -0.4912
  847MOL0     H14311   9.356   4.054  -1.117  2.6418  1.2362  2.3652
  847MOL0     H14312   9.397   4.015  -1.277  1.3196  1.3196  0.3435
  847MOL0     H14313   9.513   4.269  -1.280  3.8792  2.2027  3.0439
  847MOL0     H14314   9.475   4.267  -1.110 -5.6873 -0.8894 -0.5601
  847MOL0     H14315   9.611   4.060  -1.076 -1.0282  1.3541  1.5070
  847MOL0     H14316   9.694   4.205  -1.122  0.4171 -0.5967 -0.6876
  847MOL0     H14317   9.748   4.126  -1.334 -2.4289  1.6183 -0.4789
  847MOL0     H14318   9.625   3.997  -1.328 -2.2771  2.5359 -1.3676
  847MOL0     H14319   9.876   4.021  -1.151  0.7486 -0.9069  0.2793
  847MOL0     H14320   9.764   3.891  -1.130  1.0207  1.7844  0.7433
  847MOL0     H14321   9.909   3.916  -1.405  1.0904 -1.2721  0.5164
  847MOL0     H14322   9.810   3.786  -1.338  1.0748 -1.1602 -3.6727
  847MOL0     H14323   9.975   3.768  -1.145  1.4162  1.0677  1.0689
  847MOL0     H14324  10.058   3.745  -1.304 -1.0975 -3.2954  0.3202
  847MOL0     H14325   9.029   4.478  -1.196  0.4468 -0.0744  0.3904
  847MOL0     H14326   8.817   4.492  -1.084  1.0183  1.0505  0.5864
  847MOL0     H14327   8.614   4.181  -0.719  2.0298  2.0776 -1.3615
  847MOL0     H14328   8.473   4.212  -0.521  0.1057  3.9298  2.8263
  847MOL0     H14329   8.114   3.415   0.082 -1.3526 -1.1965  0.7849
  847MOL0     H14330   8.183   3.513   0.329 -1.2247 -0.6077  1.4861
  847MOL0     H14331   8.383   3.394   0.739 -1.1202 -2.3425 -1.0738
  847MOL0     H14332   8.418   3.541   0.939 -0.8234 -0.0004  1.9010
  847MOL0     H14333   8.104   3.552   1.188 -0.6488 -0.2490  0.1190
  847MOL0     H14334   8.061   3.716   1.162 -0.9259 -0.0547  2.0461
  847MOL0     H14335   8.147   3.685   1.385 -1.3042 -1.6372 -0.9809
  847MOL0     H14336   8.235   3.812   1.302 -0.4944  0.0264  0.4579
  847MOL0     H14337   8.356   3.654   1.452 -5.4062  0.3166  0.1424
  847MOL0     H14338   8.419   3.743   1.313 -0.0647  2.1348  2.6658
  847MOL0     H14339   8.431   3.540   1.187 -1.0268  5.4871  0.9442
  847MOL0     H14340   8.524   3.524   1.335  0.9787  1.4383 -1.4823
  847MOL0     H14341   8.192   3.259   1.430 -0.1052 -1.8758 -2.0958
  847MOL0     H14342   8.020   3.641   0.940  0.1885  1.3969 -2.8056
  847MOL0     H14343   7.868   3.423   0.739 -4.1354  1.2342  3.2586
  847MOL0     H14344   7.871   3.588   0.790  2.5866 -2.0853  3.9105
  847MOL0     H14345   7.919   3.536   0.622 -1.2271 -2.2252 -0.9237
  848MOL0     O14346   1.860   9.495   8.619  0.4331  0.4204  0.8825
  848MOL0     C14347   1.815   9.521   8.507  0.2663 -0.6058  0.2451
  848MOL0     O14348   1.862   9.624   8.424 -0.6928 -0.4125 -0.5039
  848MOL0     C14349   1.959   9.701   8.469 -0.1114 -0.2396  0.6130
  848MOL0     C14350   1.972   9.759   8.598 -0.1798  0.2223  0.3785
  848MOL0     C14351   2.073   9.854   8.616 -0.2055 -1.2183  0.4786
  848MOL0     C14352   2.173   9.869   8.524 -0.6483 -0.0537  0.2096
  848MOL0     O14353   2.281   9.959   8.535  0.0448  0.2272 -0.1873
  848MOL0     C14354   2.363   9.933   8.658  0.1642  0.1425  0.8880
  848MOL0     C14355   2.485  10.025   8.659  0.0692  0.0897  0.0571
  848MOL0     C14356   2.434  10.174   8.669  0.3162 -1.0406  0.0820
  848MOL0     C14357   2.565  10.260   8.667  0.3014  0.4248 -0.4510
  848MOL0     C14358   2.535  10.412   8.660 -0.1919 -0.0722 -0.6066
  848MOL0     C14359   2.675  10.483   8.678 -0.3263 -0.3530  0.0716
  848MOL0     C14360   2.677  10.630   8.653  0.2631  0.8179  0.3371
  848MOL0     C14361   2.818  10.687   8.650  0.1486 -0.7703 -0.2943
  848MOL0     N14362   2.919  10.606   8.573  1.1495 -0.2318  0.2333
  848MOL0     C14363   3.047  10.595   8.617 -0.4487 -0.1025  0.2465
  848MOL0     C14364   3.125  10.549   8.514 -0.5114  1.5547 -0.0717
  848MOL0     C14365   3.259  10.494   8.555  0.1436 -0.9321  0.8160
  848MOL0     C14366   3.368  10.486   8.436  0.2948  0.3533  0.2086
  848MOL0     C14367   3.507  10.413   8.454 -0.1804 -0.3269  0.1311
  848MOL0     C14368   3.484  10.276   8.509 -0.0761  0.6547 -0.3911
  848MOL0     O14369   3.607  10.217   8.541 -0.8539 -0.3938  0.0216
  848MOL0     C14370   3.621  10.084   8.517  0.5893  0.2335  0.0828
  848MOL0     C14371   3.750  10.034   8.489 -0.1669  1.1535 -0.5589
  848MOL0     C14372   3.781   9.903   8.513 -0.2111  0.5308  0.2303
  848MOL0     C14373   3.681   9.801   8.533 -0.8452  0.3455 -0.2434
  848MOL0     C14374   3.715   9.660   8.526  0.3256 -0.4467 -0.6760
  848MOL0     O14375   3.834   9.620   8.487 -0.1468  0.3086 -0.8073
  848MOL0     C14376   3.836   9.492   8.427 -0.2299  0.3039 -0.9697
  848MOL0     C14377   3.830   9.377   8.504 -0.1438 -0.1937  0.2068
  848MOL0     C14378   3.837   9.253   8.445  0.2547 -0.8127 -0.3371
  848MOL0     C14379   3.834   9.234   8.313 -0.2181  0.2532  0.7714
  848MOL0     O14380   3.845   9.114   8.259  0.2190 -0.4948  0.1777
  848MOL0     C14381   3.978   9.073   8.211 -0.3445 -0.3855 -0.1771
  848MOL0     C14382   4.040   8.967   8.307 -0.0979  0.1561  0.5820
  848MOL0     C14383   3.971   8.828   8.307 -0.6480  0.9151  0.0444
  848MOL0     C14384   3.994   8.750   8.437 -0.6795  0.4708  0.4945
  848MOL0     C14385   3.936   8.612   8.439 -0.1656  0.3597  0.1321
  848MOL0     C14386   3.927   8.541   8.564  0.4554 -0.5024 -0.1565
  848MOL0     C14387   4.032   8.571   8.668 -0.1496 -0.1492 -0.6198
  848MOL0     C14388   4.162   8.506   8.637 -0.7593  0.0127 -0.2263
  848MOL0    Cl14389   4.276   8.505   8.774 -0.0320  0.6837  0.1473
  848MOL0     C14390   3.839   9.351   8.228  0.4553 -0.1680 -0.4866
  848MOL0     C14391   3.838   9.477   8.291 -0.6122  0.1092  0.8527
  848MOL0     O14392   3.618   9.589   8.540 -0.8282  0.2665  0.2815
  848MOL0     C14393   3.549   9.851   8.545 -0.3570 -0.7098  0.5083
  848MOL0     C14394   3.515   9.986   8.541 -1.1965 -0.3359 -0.4300
  848MOL0     N14395   3.039  10.521   8.410  0.5174 -1.0361  0.3594
  848MOL0     N14396   2.921  10.576   8.434  0.5902  0.2001 -0.3040
  848MOL0     C14397   2.158   9.826   8.396 -0.6167 -0.9914 -0.6194
  848MOL0     C14398   2.048   9.743   8.368  0.7534  1.2967 -0.1354
  848MOL0     C14399   1.724   9.419   8.449 -0.3558 -0.3519  0.5941
  848MOL0     C14400   1.717   9.296   8.509 -0.1290 -0.1683  0.4159
  848MOL0     C14401   1.654   9.190   8.456  0.8069  1.0454 -0.3004
  848MOL0     C14402   1.590   9.210   8.328 -0.9965 -0.5427  0.0912
  848MOL0     O14403   1.534   9.099   8.273  0.4514  0.1119  0.6281
  848MOL0     C14404   1.545   9.085   8.133 -0.6383 -0.0148  0.0688
  848MOL0     C14405   1.423   9.000   8.092  0.2300 -0.6750  0.3371
  848MOL0     C14406   1.288   9.077   8.120 -0.6562  0.5559  0.1249
  848MOL0     C14407   1.172   9.026   8.038 -0.2604  0.5752  0.3721
  848MOL0     C14408   1.183   9.055   7.890  0.1568 -0.4994 -0.9999
  848MOL0     C14409   1.197   9.067   7.770 -1.0121 -0.4460 -0.5533
  848MOL0     C14410   1.589   9.339   8.272 -0.1111 -0.1400 -0.0033
  848MOL0     C14411   1.644   9.454   8.334  0.0757  0.6714 -0.0460
  848MOL0     C14412   1.638   9.587   8.259  0.0055  0.5032 -0.2060
  848MOL0     H14413   1.906   9.736   8.681 -1.8890  2.4667 -0.2698
  848MOL0     H14414   2.070   9.910   8.709 -2.8813  2.8217 -1.7126
  848MOL0     H14415   2.298   9.948   8.746 -0.5586  2.6289  0.0253
  848MOL0     H14416   2.406   9.833   8.665 -1.7737 -1.0469 -2.0791
  848MOL0     H14417   2.541  10.017   8.566 -1.4807  1.6535 -1.0687
  848MOL0     H14418   2.544   9.990   8.744 -0.8020  3.1071  2.0517
  848MOL0     H14419   2.387  10.193   8.765  2.7651  0.2860  1.1139
  848MOL0     H14420   2.370  10.212   8.589  1.2096  0.0794 -0.1347
  848MOL0     H14421   2.613  10.242   8.763 -2.1469 -0.0101  0.7836
  848MOL0     H14422   2.633  10.228   8.587 -1.7774 -1.9084 -1.4325
  848MOL0     H14423   2.485  10.451   8.571 -1.4687  0.2035  0.2013
  848MOL0     H14424   2.467  10.427   8.745  1.7229 -2.1128  1.4189
  848MOL0     H14425   2.690  10.472   8.785 -2.2648  0.9478  0.5245
  848MOL0     H14426   2.754  10.425   8.629 -0.7764 -3.0792  2.2978
  848MOL0     H14427   2.623  10.682   8.733 -0.7898  2.0210 -1.0941
  848MOL0     H14428   2.626  10.646   8.558  1.8474 -1.3070 -0.9600
  848MOL0     H14429   2.811  10.788   8.608  2.3197 -0.1956  0.6062
  848MOL0     H14430   2.862  10.706   8.748 -0.4368  2.3453 -0.5271
  848MOL0     H14431   3.091  10.625   8.712  1.3837  0.1915 -0.6545
  848MOL0     H14432   3.293  10.569   8.627 -0.5931 -2.4037  2.8008
  848MOL0     H14433   3.247  10.401   8.610  0.2456 -0.1052  2.2932
  848MOL0     H14434   3.319  10.433   8.354 -4.5824  2.0650  1.7200
  848MOL0     H14435   3.377  10.585   8.391  2.8090 -1.1805 -3.1803
  848MOL0     H14436   3.566  10.476   8.522 -0.0243  0.9958 -1.1873
  848MOL0     H14437   3.555  10.415   8.356 -4.8765  3.1391 -2.4706
  848MOL0     H14438   3.426  10.219   8.435 -1.0935 -0.6604  1.3467
  848MOL0     H14439   3.414  10.266   8.592 -1.7727  0.1640 -1.8042
  848MOL0     H14440   3.830  10.106   8.473  1.9385 -0.6473  1.3921
  848MOL0     H14441   3.884   9.868   8.506 -0.0473  0.7905  1.1694
  848MOL0     H14442   3.820   9.390   8.612 -3.4992 -0.1658 -0.0023
  848MOL0     H14443   3.856   9.159   8.497 -1.3587 -2.9451 -3.2562
  848MOL0     H14444   3.980   9.027   8.112  2.7298 -2.9070  0.8861
  848MOL0     H14445   4.043   9.161   8.212  2.1342 -2.0439  3.2200
  848MOL0     H14446   4.144   8.951   8.276 -0.1578 -0.3236  0.6266
  848MOL0     H14447   4.024   9.005   8.409 -2.7456  1.4111 -0.2200
  848MOL0     H14448   3.864   8.844   8.287 -0.7244  1.4335  0.8512
  848MOL0     H14449   4.009   8.770   8.222 -0.5828 -0.9382  1.2797
  848MOL0     H14450   3.956   8.806   8.523  0.5227  0.0972  1.2998
  848MOL0     H14451   4.101   8.754   8.461 -0.8976 -0.3167  1.7054
  848MOL0     H14452   3.986   8.559   8.358 -0.3663 -0.9499  0.8467
  848MOL0     H14453   3.830   8.617   8.410 -0.2437  0.9508  0.4927
  848MOL0     H14454   3.834   8.570   8.614 -0.3251 -2.9958 -0.0154
  848MOL0     H14455   3.924   8.432   8.554 -2.9576 -0.4137 -0.9567
  848MOL0     H14456   3.996   8.526   8.760 -0.4244  0.4979 -0.4078
  848MOL0     H14457   4.042   8.678   8.686 -0.1790  0.1946 -2.4034
  848MOL0     H14458   4.149   8.403   8.603 -2.3524  0.1948 -0.2225
  848MOL0     H14459   4.210   8.573   8.565  2.1827 -2.9313 -1.2436
  848MOL0     H14460   3.837   9.329   8.122  0.6768 -0.4478 -0.4354
  848MOL0     H14461   3.857   9.575   8.249 -0.1001  0.0266  0.8838
  848MOL0     H14462   3.466   9.784   8.565 -2.1394  1.1335 -0.3387
  848MOL0     H14463   3.418  10.010   8.583  0.6274  1.2400  3.3734
  848MOL0     H14464   2.245   9.834   8.331  0.1008 -1.1702  0.2982
  848MOL0     H14465   2.037   9.689   8.275 -2.0754 -0.9346  1.3515
  848MOL0     H14466   1.788   9.277   8.589 -1.4531 -0.5560  1.5524
  848MOL0     H14467   1.647   9.093   8.503 -0.7511  1.4698  0.4227
  848MOL0     H14468   1.643   9.038   8.120 -0.2142  0.3243  1.7875
  848MOL0     H14469   1.536   9.182   8.085 -1.9768 -0.6588 -1.0589
  848MOL0     H14470   1.431   8.910   8.154  1.1423  1.0460  2.8865
  848MOL0     H14471   1.437   8.976   7.986  1.9845 -0.6737  0.5444
  848MOL0     H14472   1.294   9.183   8.098 -0.2263  0.6282  0.5797
  848MOL0     H14473   1.263   9.069   8.227 -0.0503  2.6856  0.4636
  848MOL0     H14474   1.154   8.918   8.043 -2.4056  0.5773 -3.2027
  848MOL0     H14475   1.082   9.071   8.082 -1.2058  1.3490 -2.1954
  848MOL0     H14476   1.222   9.060   7.666 -0.0142 -0.1277 -0.3458
  848MOL0     H14477   1.541   9.347   8.175  0.3907 -1.5462 -0.3921
  848MOL0     H14478   1.575   9.578   8.170  2.3753  0.2325 -1.9883
  848MOL0     H14479   1.600   9.643   8.344  0.8046 -0.9619  1.1679
  848MOL0     H14480   1.729   9.646   8.242 -2.0367  3.5644 -1.2549
  849MOL0     O14481   5.170   8.986   7.269  0.3776 -0.5334 -0.4891
  849MOL0     C14482   5.236   8.915   7.348 -0.6858  1.0970 -0.2654
  849MOL0     O14483   5.184   8.839   7.453  0.2378 -0.1173  0.8608
  849MOL0     C14484   5.060   8.868   7.507  0.7008  1.2135 -0.3890
  849MOL0     C14485   4.996   8.999   7.502 -0.5854  0.6508 -0.4599
  849MOL0     C14486   4.869   9.018   7.560  0.6528 -0.4922  0.4719
  849MOL0     C14487   4.802   8.918   7.630  0.3189  0.3113 -0.1099
  849MOL0     O14488   4.667   8.926   7.663 -0.5140  0.0690 -0.2585
  849MOL0     C14489   4.632   8.934   7.797  0.0702 -0.8370  0.9058
  849MOL0     C14490   4.504   9.012   7.805  0.2066 -0.5340 -0.6736
  849MOL0     C14491   4.477   9.153   7.748  0.2986  1.0589  0.8587
  849MOL0     C14492   4.357   9.199   7.828  0.9233 -1.3716 -0.0323
  849MOL0     C14493   4.389   9.235   7.977  0.6528 -0.5581  0.5991
  849MOL0     C14494   4.269   9.329   8.029  1.2524  1.1597 -0.8903
  849MOL0     C14495   4.306   9.427   8.141  0.8109 -0.9866  0.4255
  849MOL0     C14496   4.166   9.485   8.192  0.0003  0.6266 -0.6169
  849MOL0     N14497   4.118   9.596   8.109 -0.1875  0.4698 -0.7062
  849MOL0     C14498   4.130   9.719   8.161 -0.3904  0.5555  0.3680
  849MOL0     C14499   4.047   9.799   8.087  0.6903  0.7795  1.0232
  849MOL0     C14500   4.017   9.944   8.099  0.3794  0.5069 -0.4137
  849MOL0     C14501   3.875   9.972   8.144  0.7952 -0.2768 -1.2847
  849MOL0     C14502   3.844  10.113   8.191 -1.0656 -0.4188 -0.3391
  849MOL0     C14503   3.852  10.215   8.071  0.6844 -0.9993 -0.0976
  849MOL0     O14504   3.819  10.338   8.130  0.3643  0.0910 -0.1894
  849MOL0     C14505   3.893  10.452   8.098  0.5385 -0.0217 -1.1068
  849MOL0     C14506   3.994  10.468   8.001 -0.2699  0.1012  0.0452
  849MOL0     C14507   4.056  10.595   7.981  0.4698  0.5429 -0.1111
  849MOL0     C14508   4.014  10.714   8.054  0.4883  0.2836 -0.1678
  849MOL0     C14509   4.087  10.839   8.037  0.2548 -0.2922 -0.8243
  849MOL0     O14510   4.228  10.829   8.019  0.2976 -0.4744  0.8194
  849MOL0     C14511   4.304  10.942   8.002  0.1714  0.2634 -0.5185
  849MOL0     C14512   4.308  11.037   8.103 -0.2257  0.4027 -0.0298
  849MOL0     C14513   4.373  11.158   8.070  0.2783 -0.5287 -0.2401
  849MOL0     C14514   4.458  11.174   7.958 -0.3485 -0.7456 -0.3899
  849MOL0     O14515   4.527  11.296   7.951  0.5310 -0.2289  0.1990
  849MOL0     C14516   4.549  11.337   7.819 -0.6976  0.1473  0.1608
  849MOL0     C14517   4.415  11.358   7.738 -0.3233 -0.2850 -0.0283
  849MOL0     C14518   4.454  11.431   7.609  1.3024  0.0619 -0.6874
  849MOL0     C14519   4.327  11.450   7.513 -0.9226 -0.1344  0.1935
  849MOL0     C14520   4.342  11.532   7.381 -0.7744  0.4444  0.4396
  849MOL0     C14521   4.456  11.480   7.279  0.6122  1.2493 -0.5652
  849MOL0     C14522   4.418  11.352   7.206  0.6518 -0.0829  0.3724
  849MOL0     C14523   4.529  11.245   7.214  0.2535 -0.4544 -0.4803
  849MOL0    Cl14524   4.690  11.295   7.136  0.4069 -0.2900 -0.1208
  849MOL0     C14525   4.485  11.064   7.881 -0.1413  0.6547  0.3469
  849MOL0     C14526   4.400  10.955   7.894  0.5189 -0.4317  0.0282
  849MOL0     O14527   4.023  10.941   8.030  0.2087 -0.7380 -0.3626
  849MOL0     C14528   3.902  10.693   8.136  0.1058 -0.1553 -0.8570
  849MOL0     C14529   3.843  10.566   8.163 -0.2556 -0.6655  0.2315
  849MOL0     N14530   3.974   9.714   8.001  0.1975  0.2236  0.1210
  849MOL0     N14531   4.013   9.591   8.014 -0.3120 -0.5457 -0.1073
  849MOL0     C14532   4.880   8.806   7.657 -0.1213 -0.1808  0.1067
  849MOL0     C14533   5.008   8.779   7.602  0.3621  0.3479  0.0074
  849MOL0     C14534   5.381   8.918   7.322 -0.2180  0.2057 -0.8409
  849MOL0     C14535   5.438   9.030   7.265 -0.7496  0.8573  0.8320
  849MOL0     C14536   5.572   9.023   7.229 -0.0363 -0.1122 -0.7470
  849MOL0     C14537   5.651   8.908   7.262  1.4725  0.0334  0.2178
  849MOL0     O14538   5.786   8.930   7.229  0.0758  0.0615 -0.0387
  849MOL0     C14539   5.881   8.842   7.287 -0.3391 -0.2890  0.4889
  849MOL0     C14540   6.029   8.885   7.275  0.4774 -0.8017  0.7673
  849MOL0     C14541   6.074   8.900   7.125 -0.6038  0.5163  0.1101
  849MOL0     C14542   6.228   8.919   7.110 -0.1208  0.9546 -0.9064
  849MOL0     C14543   6.288   8.791   7.149  0.3776  0.1643  0.1108
  849MOL0     C14544   6.339   8.701   7.202  0.2830 -0.0581 -0.7122
  849MOL0     C14545   5.601   8.797   7.315 -0.1944  0.0786 -0.4414
  849MOL0     C14546   5.459   8.796   7.342  0.8515  0.3494  0.2685
  849MOL0     C14547   5.403   8.661   7.379  0.1878 -0.0311  0.9633
  849MOL0     H14548   5.029   9.074   7.431  4.2530 -3.9469 -3.8945
  849MOL0     H14549   4.819   9.112   7.539  0.0303 -0.5830  1.5077
  849MOL0     H14550   4.635   8.839   7.851  2.5472 -1.5814 -0.3769
  849MOL0     H14551   4.705   8.997   7.848 -1.7498  5.8959 -3.5188
  849MOL0     H14552   4.477   9.001   7.910  0.7675 -1.0376 -0.5801
  849MOL0     H14553   4.444   8.940   7.749 -0.5569 -0.2238 -0.2753
  849MOL0     H14554   4.456   9.136   7.642 -1.1467 -0.1900  1.3016
  849MOL0     H14555   4.563   9.217   7.768  2.9392 -2.3228  1.3157
  849MOL0     H14556   4.334   9.294   7.779 -0.7665 -1.1212  1.1561
  849MOL0     H14557   4.278   9.124   7.818 -1.5884  1.0042  0.7337
  849MOL0     H14558   4.383   9.144   8.038  0.0243  1.0577  3.0809
  849MOL0     H14559   4.484   9.286   7.990  0.8022  0.1179 -2.4586
  849MOL0     H14560   4.235   9.383   7.940 -2.7116  0.0908 -0.1986
  849MOL0     H14561   4.190   9.262   8.064  1.2103  1.7656  0.2052
  849MOL0     H14562   4.371   9.505   8.101 -0.4575 -0.1625 -0.0640
  849MOL0     H14563   4.361   9.371   8.218 -2.9811 -1.3209  3.1669
  849MOL0     H14564   4.095   9.403   8.186  1.6347 -1.0714  1.6508
  849MOL0     H14565   4.172   9.510   8.298  0.2112  2.9344 -1.1211
  849MOL0     H14566   4.190   9.753   8.245  4.0016 -0.9459 -1.8510
  849MOL0     H14567   4.092   9.984   8.168  2.5134 -1.9175 -1.1672
  849MOL0     H14568   4.027   9.990   8.001 -1.1104 -2.8176 -2.3163
  849MOL0     H14569   3.811   9.936   8.063 -0.7957  2.9317 -1.5964
  849MOL0     H14570   3.856   9.909   8.232  2.2070  4.1201  2.5964
  849MOL0     H14571   3.913  10.130   8.274 -1.7259 -2.0475  0.5897
  849MOL0     H14572   3.737  10.114   8.215 -1.0542 -0.1471 -0.2997
  849MOL0     H14573   3.791  10.188   7.984 -0.4424 -2.9642  1.2357
  849MOL0     H14574   3.953  10.210   8.028  0.3005  0.2799 -1.2514
  849MOL0     H14575   4.029  10.386   7.939  1.2892  2.5916 -2.6185
  849MOL0     H14576   4.137  10.618   7.913  2.3380 -1.1856  1.4045
  849MOL0     H14577   4.247  11.048   8.193  0.1324  4.5544 -0.0785
  849MOL0     H14578   4.369  11.249   8.130  0.0389  0.2286 -1.3597
  849MOL0     H14579   4.609  11.429   7.810 -1.9437  0.8285 -2.0272
  849MOL0     H14580   4.605  11.260   7.764 -1.4370  0.2663 -0.7909
  849MOL0     H14581   4.361  11.271   7.700 -2.8901  2.2886 -2.8827
  849MOL0     H14582   4.347  11.416   7.801  0.3265  0.7860 -0.2818
  849MOL0     H14583   4.496  11.530   7.629 -0.0294  0.6341 -0.5943
  849MOL0     H14584   4.516  11.373   7.541 -1.8867 -4.0940 -0.4649
  849MOL0     H14585   4.249  11.489   7.579 -2.0102 -0.4108 -0.8818
  849MOL0     H14586   4.305  11.349   7.477 -1.1691  0.1839 -0.5680
  849MOL0     H14587   4.367  11.636   7.404 -0.9732  0.5565  0.1615
  849MOL0     H14588   4.244  11.535   7.331 -1.9240  1.6066  2.6403
  849MOL0     H14589   4.460  11.553   7.198 -2.7290 -0.8598 -2.9049
  849MOL0     H14590   4.559  11.476   7.317  0.9770 -2.9727 -1.4988
  849MOL0     H14591   4.399  11.381   7.103  0.8198  0.8202  0.5869
  849MOL0     H14592   4.324  11.314   7.246 -0.3724  1.4905 -0.4654
  849MOL0     H14593   4.541  11.216   7.319 -3.1529 -0.1701  0.0937
  849MOL0     H14594   4.497  11.156   7.159  0.5199 -1.4442  0.8929
  849MOL0     H14595   4.564  11.072   7.807  0.3580  1.9399  0.9873
  849MOL0     H14596   4.418  10.877   7.821 -1.7633 -0.3225 -0.7222
  849MOL0     H14597   3.858  10.784   8.175 -0.8221  0.1804 -2.5983
  849MOL0     H14598   3.752  10.567   8.221 -1.2635 -0.9361 -1.2767
  849MOL0     H14599   4.836   8.740   7.731 -4.2238 -0.9634 -2.7314
  849MOL0     H14600   5.065   8.688   7.617  0.4386  0.2755 -0.6814
  849MOL0     H14601   5.381   9.115   7.231 -3.8320 -0.9435  1.0928
  849MOL0     H14602   5.622   9.110   7.187  0.2048  0.1029 -0.0274
  849MOL0     H14603   5.887   8.736   7.261  0.7663 -0.6895  2.1978
  849MOL0     H14604   5.858   8.850   7.393 -3.1370  0.2716 -0.0934
  849MOL0     H14605   6.087   8.811   7.330  3.8015  2.5368  2.1392
  849MOL0     H14606   6.050   8.977   7.330  1.6196 -0.7467  0.2596
  849MOL0     H14607   6.034   8.990   7.077  2.0576  2.0061  0.4168
  849MOL0     H14608   6.044   8.812   7.069 -0.0242  0.7267 -0.5381
  849MOL0     H14609   6.275   8.951   7.017  2.4176 -0.0885 -0.0586
  849MOL0     H14610   6.256   8.990   7.189 -0.7863  0.5998 -0.3472
  849MOL0     H14611   6.382   8.614   7.247 -0.4908 -0.5879 -0.9700
  849MOL0     H14612   5.658   8.706   7.335 -0.2229  0.1250 -0.1458
  849MOL0     H14613   5.475   8.589   7.420 -0.3423 -2.1043 -1.5159
  849MOL0     H14614   5.332   8.665   7.462 -0.8992 -2.0922  0.1992
  849MOL0     H14615   5.349   8.618   7.294 -0.6168  0.3571  1.2710
  850MOL0     O14616  11.377   2.318   6.858  1.0409 -0.2493  0.1549
  850MOL0     C14617  11.418   2.320   6.971  0.6002 -1.1587 -0.6233
  850MOL0     O14618  11.352   2.279   7.090 -0.3268  0.1099 -0.3357
  850MOL0     C14619  11.241   2.199   7.074  0.6431 -0.1078  0.3324
  850MOL0     C14620  11.121   2.247   7.035 -1.2448  0.5205  0.6026
  850MOL0     C14621  11.007   2.165   7.022 -1.1059 -0.1896 -0.0270
  850MOL0     C14622  11.004   2.037   7.075 -0.5337 -0.2055 -0.2293
  850MOL0     O14623  10.886   1.964   7.050  0.2280  0.1898 -0.2518
  850MOL0     C14624  10.920   1.847   6.979 -0.2390  0.2886 -0.3115
  850MOL0     C14625  10.799   1.750   6.959 -0.3168 -0.0156  0.3029
  850MOL0     C14626  10.763   1.646   7.067  0.3756  0.4648  0.4736
  850MOL0     C14627  10.735   1.701   7.208 -0.0998 -0.0327 -0.7464
  850MOL0     C14628  10.698   1.589   7.307  0.3022  0.3620  0.0004
  850MOL0     C14629  10.571   1.505   7.287  0.5845  0.3649 -0.3667
  850MOL0     C14630  10.557   1.408   7.409  0.4899 -0.2002  0.4257
  850MOL0     C14631  10.446   1.434   7.508  0.4731  0.1181 -0.6542
  850MOL0     N14632  10.438   1.322   7.604 -0.2993  0.1652  0.5487
  850MOL0     C14633  10.367   1.329   7.723 -0.1323 -0.6306  0.3855
  850MOL0     C14634  10.379   1.208   7.789  0.2513  1.0356 -1.1404
  850MOL0     C14635  10.307   1.153   7.909 -0.6569  0.2697  0.6784
  850MOL0     C14636  10.159   1.102   7.882  0.2356  0.3425  0.0483
  850MOL0     C14637  10.087   1.038   7.999 -0.6024  1.1035  0.0012
  850MOL0     C14638   9.953   0.975   7.957  0.3449  0.8823  0.2466
  850MOL0     O14639   9.852   1.072   7.913  0.4064 -0.1736  0.4438
  850MOL0     C14640   9.739   1.023   7.847  0.5761  0.1054  1.0353
  850MOL0     C14641   9.696   0.888   7.866 -0.0201 -0.1383  0.7847
  850MOL0     C14642   9.595   0.837   7.778 -0.1450 -0.3266 -0.7286
  850MOL0     C14643   9.523   0.918   7.689  0.0096 -0.2990  0.1125
  850MOL0     C14644   9.396   0.879   7.614 -0.2181 -0.3597  0.2212
  850MOL0     O14645   9.306   0.974   7.579 -0.1486  0.5531  0.0983
  850MOL0     C14646   9.206   0.936   7.490 -0.2002  0.1768  0.7075
  850MOL0     C14647   9.159   1.049   7.430 -0.0007 -0.5037  0.2455
  850MOL0     C14648   9.058   1.047   7.333 -0.1058 -0.4071  0.0231
  850MOL0     C14649   8.999   0.928   7.283  0.5484  0.2666 -0.2816
  850MOL0     O14650   8.873   0.915   7.222 -0.2101  0.5345 -0.6697
  850MOL0     C14651   8.766   0.983   7.303  0.4583 -0.3040  0.8807
  850MOL0     C14652   8.635   0.958   7.218 -0.5179 -0.6918 -0.2640
  850MOL0     C14653   8.516   1.043   7.278 -0.1855  0.4244  0.1507
  850MOL0     C14654   8.529   1.197   7.262 -0.2740  0.5395  0.4773
  850MOL0     C14655   8.541   1.263   7.397  0.6976  0.8784 -0.2182
  850MOL0     C14656   8.540   1.419   7.389  0.5395  0.3433  0.6433
  850MOL0     C14657   8.648   1.487   7.307  0.3372  0.4655 -0.4440
  850MOL0     C14658   8.790   1.455   7.345 -0.3575 -1.2802  0.9604
  850MOL0    Cl14659   8.888   1.594   7.293 -0.5258  0.0358 -0.0453
  850MOL0     C14660   9.051   0.809   7.338  0.3725  0.6234 -0.0084
  850MOL0     C14661   9.147   0.810   7.445 -0.0237 -0.3664 -0.6608
  850MOL0     O14662   9.397   0.760   7.579 -0.1186  0.5238  0.0829
  850MOL0     C14663   9.564   1.061   7.685 -0.5986  0.5724 -0.5074
  850MOL0     C14664   9.673   1.101   7.751 -0.0151  0.2931 -0.1741
  850MOL0     N14665  10.451   1.125   7.699 -0.3645  0.8942 -0.7057
  850MOL0     N14666  10.484   1.189   7.598 -0.2691  0.1203  0.3904
  850MOL0     C14667  11.129   1.987   7.121  0.6842 -0.2205 -0.1273
  850MOL0     C14668  11.238   2.070   7.127  0.0116  0.1234  0.5885
  850MOL0     C14669  11.555   2.385   6.996  0.6918 -0.1072 -0.8326
  850MOL0     C14670  11.579   2.428   7.131 -0.0321  0.9342 -0.6301
  850MOL0     C14671  11.702   2.492   7.156  0.4095 -0.0867 -0.4486
  850MOL0     C14672  11.793   2.510   7.060  0.4134 -0.3091  0.7984
  850MOL0     O14673  11.904   2.590   7.097 -0.5299  0.1892 -0.8086
  850MOL0     C14674  12.028   2.510   7.087 -0.0233  0.9378 -0.7054
  850MOL0     C14675  12.064   2.431   7.217  1.2263 -0.1289 -0.1127
  850MOL0     C14676  12.195   2.363   7.212 -0.7051 -0.4936  0.3181
  850MOL0     C14677  12.201   2.246   7.124  0.4483  0.1912 -0.2359
  850MOL0     C14678  12.095   2.140   7.127  0.7426  0.3708  0.4898
  850MOL0     C14679  12.007   2.053   7.128 -0.5214 -0.9536  0.1936
  850MOL0     C14680  11.772   2.458   6.930  0.2664 -0.2666  1.0133
  850MOL0     C14681  11.646   2.403   6.895  0.2927  0.0031 -0.1175
  850MOL0     C14682  11.625   2.360   6.755 -0.1617  0.5312  0.4651
  850MOL0     H14683  11.113   2.350   7.001  1.1521 -0.0423 -2.0139
  850MOL0     H14684  10.911   2.199   6.985 -0.7270  0.7988 -0.1501
  850MOL0     H14685  10.933   1.886   6.878 -1.9281  2.7970  0.3372
  850MOL0     H14686  11.008   1.790   7.009 -0.0871 -0.2450 -1.6903
  850MOL0     H14687  10.820   1.687   6.872 -1.3915 -0.9188  0.6707
  850MOL0     H14688  10.717   1.813   6.923  0.1133 -0.8848 -2.4189
  850MOL0     H14689  10.851   1.580   7.072  2.4850  2.5495 -3.6487
  850MOL0     H14690  10.669   1.603   7.031  0.0668  2.9663 -2.0283
  850MOL0     H14691  10.824   1.755   7.242 -1.8589  3.6006 -1.4108
  850MOL0     H14692  10.655   1.775   7.208  0.3095  0.5104 -3.5218
  850MOL0     H14693  10.792   1.532   7.310  0.3483  0.2927 -1.8140
  850MOL0     H14694  10.680   1.636   7.403  2.3590  0.1034  0.5764
  850MOL0     H14695  10.482   1.565   7.266  0.7364  0.1791 -1.6292
  850MOL0     H14696  10.595   1.451   7.195 -0.3069 -2.1652  0.7995
  850MOL0     H14697  10.650   1.411   7.467 -1.5501  0.2172  3.9400
  850MOL0     H14698  10.553   1.309   7.363  0.3487  1.2442 -2.9623
  850MOL0     H14699  10.464   1.535   7.547 -3.4203  2.3307 -3.7732
  850MOL0     H14700  10.348   1.448   7.462 -0.0822  4.2335  1.2745
  850MOL0     H14701  10.311   1.419   7.747 -1.0498 -0.3678 -2.3948
  850MOL0     H14702  10.363   1.067   7.948 -0.9682 -0.2405  0.0205
  850MOL0     H14703  10.311   1.230   7.987  1.1158 -1.2515  2.1949
  850MOL0     H14704  10.097   1.175   7.830 -0.5944 -0.5707 -0.2770
  850MOL0     H14705  10.151   1.020   7.810 -1.5866 -1.7461  2.4286
  850MOL0     H14706  10.072   1.105   8.085 -0.2635 -1.4010  2.1327
  850MOL0     H14707  10.152   0.959   8.039 -1.4000  0.5814  0.2856
  850MOL0     H14708   9.923   0.932   8.053  1.8773  0.9243  0.7734
  850MOL0     H14709   9.973   0.894   7.886  1.0708 -0.8052  2.2604
  850MOL0     H14710   9.740   0.821   7.939  1.0488 -0.5697 -0.2232
  850MOL0     H14711   9.583   0.729   7.775  2.0719 -0.6161 -3.0758
  850MOL0     H14712   9.209   1.139   7.467 -0.5350  0.3998 -1.1286
  850MOL0     H14713   9.011   1.139   7.300 -2.0726 -1.8535 -1.4219
  850MOL0     H14714   8.748   0.939   7.402 -1.8340 -1.3389  0.0770
  850MOL0     H14715   8.783   1.091   7.310 -1.7208  0.1258  0.3309
  850MOL0     H14716   8.658   0.988   7.115  2.5696  1.2096  0.8212
  850MOL0     H14717   8.598   0.855   7.211 -2.2255 -0.3307  2.2605
  850MOL0     H14718   8.421   0.999   7.248 -0.5199  2.1718 -1.5521
  850MOL0     H14719   8.514   1.031   7.387 -1.1408  2.5698  0.4243
  850MOL0     H14720   8.432   1.220   7.216  0.1813  0.4716 -0.5424
  850MOL0     H14721   8.605   1.228   7.191 -0.3168  0.0620  0.2163
  850MOL0     H14722   8.627   1.217   7.447 -0.4923 -0.6194  0.5506
  850MOL0     H14723   8.454   1.224   7.450  3.3213 -3.1975  1.6479
  850MOL0     H14724   8.439   1.447   7.356  2.0653  0.5950 -4.7358
  850MOL0     H14725   8.539   1.466   7.487  1.4106  0.4365  0.6098
  850MOL0     H14726   8.649   1.595   7.326  1.0574  0.8516 -2.3869
  850MOL0     H14727   8.639   1.462   7.201  0.1272  3.0188 -1.0995
  850MOL0     H14728   8.799   1.440   7.453  0.9153  1.5609  1.3403
  850MOL0     H14729   8.812   1.368   7.283 -1.9684  0.1861 -1.8954
  850MOL0     H14730   9.000   0.714   7.326  1.6729 -0.4565  2.3313
  850MOL0     H14731   9.169   0.719   7.500 -0.7363 -1.6011 -2.3661
  850MOL0     H14732   9.499   1.129   7.632 -2.0220  0.1397  0.6088
  850MOL0     H14733   9.703   1.205   7.743  0.7367  0.1763  0.8584
  850MOL0     H14734  11.145   1.887   7.159 -0.8418 -0.4016  0.1072
  850MOL0     H14735  11.328   2.047   7.184 -0.5484  2.2316  2.4710
  850MOL0     H14736  11.520   2.403   7.218  1.1302  0.9794  0.1888
  850MOL0     H14737  11.697   2.530   7.258  0.7494 -2.9288  0.7145
  850MOL0     H14738  12.109   2.581   7.063  1.3853 -0.8487 -1.4923
  850MOL0     H14739  12.020   2.455   6.993  2.1187  1.2233 -1.1100
  850MOL0     H14740  11.990   2.366   7.264  1.0602  1.4562  1.9864
  850MOL0     H14741  12.073   2.518   7.282 -1.7307  0.1705  0.0538
  850MOL0     H14742  12.235   2.341   7.311 -2.6300  1.9519  1.7456
  850MOL0     H14743  12.271   2.436   7.181 -0.2732 -1.2580 -0.4618
  850MOL0     H14744  12.208   2.288   7.023 -0.1151  0.5476 -0.1306
  850MOL0     H14745  12.298   2.198   7.137  0.7967  1.0789  0.4999
  850MOL0     H14746  11.922   1.989   7.144 -3.1501  2.1461 -0.1981
  850MOL0     H14747  11.848   2.466   6.853 -2.5637  1.9328 -1.8518
  850MOL0     H14748  11.719   2.352   6.700 -1.1988  0.9711 -1.4563
  850MOL0     H14749  11.584   2.259   6.760  2.1580 -0.4561  0.7094
  850MOL0     H14750  11.556   2.412   6.688  0.1313  0.5149  0.1504
  851MOL0     O14751   8.827   5.107  10.384  0.6269  0.1597  0.7215
  851MOL0     C14752   8.944   5.129  10.406 -0.1189  0.3729  0.3113
  851MOL0     O14753   9.038   5.149  10.316 -0.2101  0.2288  0.1317
  851MOL0     C14754   9.001   5.210  10.198  0.3557 -0.2521 -0.1405
  851MOL0     C14755   9.017   5.154  10.078  0.5055  0.2861 -0.4396
  851MOL0     C14756   8.986   5.217   9.959 -0.4320 -0.3896 -0.3742
  851MOL0     C14757   8.940   5.351   9.960  0.2416 -0.2118 -0.2358
  851MOL0     O14758   8.897   5.430   9.857  0.3829 -0.1042  0.6107
  851MOL0     C14759   8.991   5.502   9.770  0.8402 -0.1619  0.6078
  851MOL0     C14760   8.976   5.652   9.778 -1.3344 -0.6102  0.3344
  851MOL0     C14761   8.857   5.720   9.707  1.0514 -0.8735  0.6028
  851MOL0     C14762   8.776   5.815   9.802 -0.1608  0.1204  0.3538
  851MOL0     C14763   8.656   5.880   9.735 -0.2979  0.2639  0.7939
  851MOL0     C14764   8.564   5.945   9.837 -0.6110  0.0936  0.7250
  851MOL0     C14765   8.612   6.082   9.879  0.0127  0.5186  0.7140
  851MOL0     C14766   8.516   6.140   9.989  0.7825  0.6927 -0.1726
  851MOL0     N14767   8.460   6.263   9.928 -0.4059 -0.1988  0.1166
  851MOL0     C14768   8.534   6.383   9.943 -0.1931  0.7805  0.0468
  851MOL0     C14769   8.446   6.473   9.903  0.4035  0.4963  0.4472
  851MOL0     C14770   8.454   6.619   9.888  0.3982  0.4977 -0.3947
  851MOL0     C14771   8.509   6.676   9.757 -0.0502  0.3782  0.2417
  851MOL0     C14772   8.487   6.816   9.753  0.7969 -0.8061 -0.3952
  851MOL0     C14773   8.536   6.883   9.624 -0.2653  0.3421 -0.8271
  851MOL0     O14774   8.444   6.995   9.607 -0.7565  1.1115  0.5524
  851MOL0     C14775   8.427   7.055   9.482 -0.5812  0.3531  0.1202
  851MOL0     C14776   8.504   7.025   9.367  0.9859 -0.1106 -0.5647
  851MOL0     C14777   8.479   7.090   9.244  0.1938 -0.1500  0.1280
  851MOL0     C14778   8.378   7.198   9.237 -0.6963 -0.0222 -0.4415
  851MOL0     C14779   8.360   7.275   9.118 -0.8890  1.2816  0.8586
  851MOL0     O14780   8.454   7.248   9.019  0.5959 -0.0611 -0.1139
  851MOL0     C14781   8.429   7.317   8.909  0.4559  0.1369 -0.0851
  851MOL0     C14782   8.373   7.261   8.793 -0.6266  0.3332 -0.2010
  851MOL0     C14783   8.396   7.323   8.671 -0.6314 -1.0363  0.7249
  851MOL0     C14784   8.456   7.457   8.671 -0.1369  0.6745 -0.9299
  851MOL0     O14785   8.449   7.527   8.550  0.5023 -0.0967  0.7924
  851MOL0     C14786   8.496   7.657   8.555 -0.0012 -0.6995 -0.2205
  851MOL0     C14787   8.514   7.710   8.415 -0.7019  0.6682 -0.2386
  851MOL0     C14788   8.379   7.731   8.343  0.5819  0.0695 -0.0956
  851MOL0     C14789   8.373   7.836   8.225 -0.4585  0.5867  0.3778
  851MOL0     C14790   8.317   7.779   8.098  0.1847  0.8417 -0.2057
  851MOL0     C14791   8.160   7.797   8.090 -0.4742 -0.0837  0.5847
  851MOL0     C14792   8.105   7.710   7.970  0.8094  0.5148 -0.4539
  851MOL0     C14793   7.959   7.737   7.940  0.6623  0.5854 -0.6526
  851MOL0    Cl14794   7.854   7.768   8.093 -0.1835 -0.1830 -0.1888
  851MOL0     C14795   8.514   7.504   8.790 -0.0208  0.8560  0.3840
  851MOL0     C14796   8.503   7.435   8.904 -0.3131 -0.4203  0.2617
  851MOL0     O14797   8.272   7.347   9.105  0.2314 -0.3383  0.2249
  851MOL0     C14798   8.302   7.228   9.356 -0.1506  0.9064 -0.3615
  851MOL0     C14799   8.319   7.150   9.471  0.0598  0.1177  0.9769
  851MOL0     N14800   8.324   6.411   9.874  0.2282  0.7539 -0.2810
  851MOL0     N14801   8.336   6.290   9.883  0.6200 -0.2217 -0.5563
  851MOL0     C14802   8.926   5.409  10.083 -0.2342  0.1775 -0.6205
  851MOL0     C14803   8.958   5.339  10.203 -0.7861 -0.1409 -1.1476
  851MOL0     C14804   9.005   5.102  10.539  0.5758  0.2922  0.6092
  851MOL0     C14805   9.146   5.086  10.564 -0.2775  0.0336  0.7394
  851MOL0     C14806   9.205   5.050  10.691 -0.3046 -0.1980  0.1878
  851MOL0     C14807   9.125   5.045  10.799 -0.3971 -0.1418  0.2070
  851MOL0     O14808   9.168   5.008  10.921  0.5371 -0.6936  0.1727
  851MOL0     C14809   9.113   4.889  10.972 -0.4663 -0.1667  0.0498
  851MOL0     C14810   9.113   4.902  11.118 -0.1231  0.1992 -1.0871
  851MOL0     C14811   9.057   4.780  11.191  0.6581  0.0624  0.3080
  851MOL0     C14812   9.127   4.647  11.148  0.2837 -0.2395  0.7140
  851MOL0     C14813   9.267   4.628  11.187  0.1194 -0.4305 -0.9001
  851MOL0     C14814   9.372   4.569  11.211  0.1735 -0.2714  0.7703
  851MOL0     C14815   8.989   5.072  10.778 -0.7542 -0.6634 -0.2721
  851MOL0     C14816   8.923   5.094  10.659 -0.6355  0.8015  0.3288
  851MOL0     C14817   8.769   5.093  10.652 -0.4571 -1.3999  0.5768
  851MOL0     H14818   9.074   5.063  10.063  3.1770  1.4386  1.9113
  851MOL0     H14819   9.015   5.180   9.861 -0.8761  0.1789 -0.7229
  851MOL0     H14820   9.095   5.471   9.783  2.0308  1.5042 -3.3575
  851MOL0     H14821   8.969   5.486   9.664  1.0798 -1.5564  0.7435
  851MOL0     H14822   9.059   5.688   9.716 -3.9426  1.8659 -2.0468
  851MOL0     H14823   8.993   5.683   9.882  0.8411 -2.2764  0.5299
  851MOL0     H14824   8.795   5.634   9.679  2.8759 -1.7422 -0.9620
  851MOL0     H14825   8.880   5.783   9.621 -0.8650 -0.8801  0.0306
  851MOL0     H14826   8.742   5.768   9.895  2.8374  0.6215  1.8310
  851MOL0     H14827   8.843   5.896   9.834  1.9802 -0.9155 -1.2579
  851MOL0     H14828   8.696   5.954   9.666  1.1978 -2.2683 -1.2619
  851MOL0     H14829   8.594   5.807   9.681  1.3958 -0.4839 -0.2197
  851MOL0     H14830   8.462   5.950   9.799  0.5086  2.7118 -2.4272
  851MOL0     H14831   8.542   5.877   9.920 -1.9959  0.6263  0.8163
  851MOL0     H14832   8.632   6.153   9.798 -1.2593 -1.1001 -1.1002
  851MOL0     H14833   8.705   6.070   9.934 -0.1845  1.7536  1.3723
  851MOL0     H14834   8.437   6.067  10.011 -0.2665  0.7901 -3.2043
  851MOL0     H14835   8.561   6.178  10.081  0.0990  2.6997 -0.6190
  851MOL0     H14836   8.637   6.400   9.973 -0.7949  2.2480  1.3638
  851MOL0     H14837   8.348   6.646   9.898  0.8354  1.9453  0.7001
  851MOL0     H14838   8.509   6.654   9.975 -1.5675 -2.8345  2.4583
  851MOL0     H14839   8.615   6.648   9.756 -0.0824  0.1875  1.1076
  851MOL0     H14840   8.456   6.633   9.671  2.4498  1.0473 -1.7504
  851MOL0     H14841   8.545   6.856   9.837 -0.5207  0.3714 -0.0207
  851MOL0     H14842   8.381   6.837   9.769  1.0529 -1.7079  3.6541
  851MOL0     H14843   8.521   6.816   9.539 -0.2773 -0.3744 -0.2646
  851MOL0     H14844   8.641   6.913   9.635  0.0957 -1.2275  0.4525
  851MOL0     H14845   8.582   6.950   9.361  2.3857  1.4013 -2.9171
  851MOL0     H14846   8.541   7.053   9.162  0.5848  1.2586 -0.2382
  851MOL0     H14847   8.317   7.168   8.782  0.7906 -0.2655 -3.2335
  851MOL0     H14848   8.346   7.291   8.580 -1.2728  0.6129  0.4597
  851MOL0     H14849   8.445   7.724   8.625  0.8749 -3.5262  3.4277
  851MOL0     H14850   8.600   7.643   8.587  0.3171 -1.8429 -1.6351
  851MOL0     H14851   8.558   7.811   8.413 -2.1587  1.3186 -2.2608
  851MOL0     H14852   8.582   7.649   8.355  0.7013  1.1499  0.8026
  851MOL0     H14853   8.353   7.629   8.312  1.6165 -0.3612  0.4076
  851MOL0     H14854   8.304   7.772   8.411  3.8319  2.2564  2.4829
  851MOL0     H14855   8.476   7.869   8.211  0.8529 -2.8641  0.7195
  851MOL0     H14856   8.303   7.917   8.245  0.8545  1.3880  1.9017
  851MOL0     H14857   8.334   7.672   8.081 -0.9329  0.7995 -1.1472
  851MOL0     H14858   8.353   7.848   8.021  1.1087  0.6317  0.0263
  851MOL0     H14859   8.101   7.774   8.179  1.2142  0.6870  1.9418
  851MOL0     H14860   8.143   7.903   8.069 -0.8674  0.4026  3.0906
  851MOL0     H14861   8.101   7.603   7.990  2.0080  0.7977  1.6633
  851MOL0     H14862   8.169   7.713   7.881  2.4155 -3.3704  0.4092
  851MOL0     H14863   7.938   7.826   7.879  1.4963  2.5253  1.7086
  851MOL0     H14864   7.909   7.656   7.887 -2.0899 -1.7754  4.8257
  851MOL0     H14865   8.567   7.599   8.785  3.1308 -0.8322 -2.4509
  851MOL0     H14866   8.550   7.477   8.992  0.3487 -2.2916  0.8479
  851MOL0     H14867   8.231   7.309   9.346 -1.1670 -0.0840 -1.4715
  851MOL0     H14868   8.270   7.158   9.567  0.7189 -3.2050  1.7292
  851MOL0     H14869   8.901   5.513  10.097 -0.9949 -0.2281  1.3770
  851MOL0     H14870   8.956   5.396  10.295  1.5900 -2.0160  0.1921
  851MOL0     H14871   9.210   5.095  10.477  3.4233  1.5049  3.3537
  851MOL0     H14872   9.310   5.025  10.707 -1.7518 -6.0925  3.1245
  851MOL0     H14873   9.178   4.806  10.945  0.2281  0.3067  0.2280
  851MOL0     H14874   9.010   4.871  10.942 -1.3650 -1.9705  3.6117
  851MOL0     H14875   9.050   4.989  11.143 -3.2899 -1.8440 -1.3896
  851MOL0     H14876   9.214   4.919  11.156 -1.0145  2.4337  0.5181
  851MOL0     H14877   8.952   4.776  11.162  1.2059 -1.4338 -1.6982
  851MOL0     H14878   9.061   4.780  11.301  0.3713  0.6892  0.3192
  851MOL0     H14879   9.064   4.574  11.200 -3.9390  3.4400  1.3747
  851MOL0     H14880   9.108   4.628  11.042  1.6689  1.1789  0.1744
  851MOL0     H14881   9.461   4.511  11.216 -0.2938 -1.3955 -2.1020
  851MOL0     H14882   8.930   5.073  10.869  0.0756  2.9921  0.3714
  851MOL0     H14883   8.734   5.109  10.754 -1.9210 -4.1119  0.6002
  851MOL0     H14884   8.729   5.174  10.590 -2.0365 -1.8197  1.0101
  851MOL0     H14885   8.744   4.996  10.609 -0.7149 -0.1564 -2.3226
  852MOL0     O14886   9.709  11.315   1.317 -0.1963 -0.6169  0.2576
  852MOL0     C14887   9.744  11.258   1.209 -0.2310 -0.4196 -0.6859
  852MOL0     O14888   9.695  11.136   1.176  0.5108  0.5732  0.5126
  852MOL0     C14889   9.712  11.033   1.271  0.6359  0.0647 -0.0832
  852MOL0     C14890   9.759  11.048   1.404 -0.4324  0.6839  0.1233
  852MOL0     C14891   9.768  10.930   1.482  0.1704 -0.2485  0.1274
  852MOL0     C14892   9.715  10.808   1.444 -0.0272  0.3480  0.1846
  852MOL0     O14893   9.728  10.703   1.540 -0.0244  0.2010 -0.3548
  852MOL0     C14894   9.645  10.585   1.534 -0.3968 -0.3589 -0.6913
  852MOL0     C14895   9.659  10.494   1.657 -0.0625 -1.4954  0.1195
  852MOL0     C14896   9.633  10.573   1.781  0.4004  0.6067 -0.5696
  852MOL0     C14897   9.600  10.468   1.898 -0.4214 -0.2707 -0.0949
  852MOL0     C14898   9.475  10.393   1.892  0.6790  0.8049 -0.1817
  852MOL0     C14899   9.446  10.332   2.031  0.9285  0.1813 -0.1821
  852MOL0     C14900   9.340  10.218   2.036  0.5142 -0.0280  0.3855
  852MOL0     C14901   9.292  10.183   2.181  0.3178 -0.5080  0.3258
  852MOL0     N14902   9.234  10.294   2.250  0.1592  0.3345  0.4262
  852MOL0     C14903   9.107  10.342   2.233 -0.5785 -0.3021  1.1947
  852MOL0     C14904   9.101  10.447   2.323 -0.1236 -0.8771  0.1701
  852MOL0     C14905   8.974  10.533   2.325  0.6585 -0.2428  0.5467
  852MOL0     C14906   8.885  10.501   2.448 -0.1813  0.4461  0.3508
  852MOL0     C14907   8.755  10.593   2.439 -0.1372 -0.0669  0.1426
  852MOL0     C14908   8.668  10.604   2.561  0.2275  0.2790  0.5487
  852MOL0     O14909   8.550  10.525   2.554  0.2735  0.4181 -0.4759
  852MOL0     C14910   8.436  10.562   2.619 -0.2037 -0.1608 -0.1622
  852MOL0     C14911   8.322  10.492   2.590 -0.8971  0.6629  0.5771
  852MOL0     C14912   8.200  10.515   2.636  0.5972 -0.4219 -0.2464
  852MOL0     C14913   8.174  10.626   2.717 -0.5129  0.1415  0.3603
  852MOL0     C14914   8.041  10.667   2.768 -0.7937  0.4020  0.0772
  852MOL0     O14915   8.045  10.733   2.881 -0.0600  0.4465 -0.3993
  852MOL0     C14916   7.932  10.731   2.964 -0.5279 -0.1682  0.1708
  852MOL0     C14917   7.920  10.646   3.069  0.0540 -0.2356  0.3702
  852MOL0     C14918   7.822  10.657   3.160 -0.7913 -0.7662  0.9349
  852MOL0     C14919   7.718  10.750   3.140  0.4416 -0.5917  0.7194
  852MOL0     O14920   7.620  10.790   3.229  0.2011 -1.0533  0.2150
  852MOL0     C14921   7.542  10.703   3.314  0.1439 -0.4878 -0.1798
  852MOL0     C14922   7.453  10.603   3.243  0.4913 -0.5728 -1.1446
  852MOL0     C14923   7.350  10.525   3.323 -0.3106 -0.0801  0.0808
  852MOL0     C14924   7.422  10.458   3.449  0.6514  0.0780  0.0595
  852MOL0     C14925   7.336  10.366   3.531  1.2889  0.5463 -0.0335
  852MOL0     C14926   7.417  10.300   3.643  0.0507 -0.2481  0.4859
  852MOL0     C14927   7.428  10.397   3.759  0.0028 -0.2014 -0.1225
  852MOL0     C14928   7.296  10.457   3.819 -0.3996 -0.6988  0.3403
  852MOL0    Cl14929   7.192  10.317   3.843  0.2129  0.1742 -0.1500
  852MOL0     C14930   7.722  10.822   3.022 -0.0185 -0.4101 -0.4477
  852MOL0     C14931   7.824  10.811   2.932  1.1545  0.1150  0.5771
  852MOL0     O14932   7.939  10.621   2.714  0.0748  0.0400 -0.5983
  852MOL0     C14933   8.286  10.710   2.743  0.1656 -0.7557  0.4786
  852MOL0     C14934   8.419  10.677   2.706  0.3637 -0.0700 -0.5873
  852MOL0     N14935   9.222  10.462   2.389 -0.9229 -0.7835  0.5894
  852MOL0     N14936   9.303  10.366   2.346 -0.4887  0.2584 -0.7948
  852MOL0     C14937   9.677  10.797   1.315 -0.3429 -0.2031  0.5766
  852MOL0     C14938   9.671  10.908   1.236  0.3108 -0.5221  0.3743
  852MOL0     C14939   9.821  11.339   1.109  0.2914  0.0509 -0.5236
  852MOL0     C14940   9.765  11.444   1.038  0.7082  0.1384  0.2000
  852MOL0     C14941   9.836  11.529   0.957  0.2178 -1.0211 -0.2638
  852MOL0     C14942   9.972  11.511   0.947  0.5961  0.0175 -1.1719
  852MOL0     O14943  10.036  11.604   0.878 -0.2208  0.1327 -0.1653
  852MOL0     C14944  10.177  11.623   0.897 -1.1260 -0.1095  0.4539
  852MOL0     C14945  10.215  11.760   0.945  0.4902  0.6455 -0.7659
  852MOL0     C14946  10.154  11.858   0.846  1.1267  0.8196  0.1004
  852MOL0     C14947  10.212  11.997   0.855  0.2525  0.7942 -0.2307
  852MOL0     C14948  10.176  12.072   0.731  0.1794  0.2159  0.0149
  852MOL0     C14949  10.143  12.132   0.627 -0.8683 -0.3658  0.0400
  852MOL0     C14950  10.033  11.403   1.014 -0.6436 -0.8522 -0.2786
  852MOL0     C14951   9.956  11.315   1.093 -0.7784 -0.1046 -0.3091
  852MOL0     C14952  10.024  11.205   1.161  0.1783 -0.0703  0.5423
  852MOL0     H14953   9.794  11.147   1.432  0.4580  0.6496 -0.7716
  852MOL0     H14954   9.815  10.937   1.579 -2.5867  0.6543  1.5030
  852MOL0     H14955   9.545  10.629   1.538 -0.3951 -0.4108  0.0004
  852MOL0     H14956   9.654  10.527   1.442 -0.2320 -1.6262  0.1132
  852MOL0     H14957   9.759  10.450   1.651  0.2445 -0.6442 -2.8275
  852MOL0     H14958   9.585  10.414   1.648 -3.0647  0.0976  5.7559
  852MOL0     H14959   9.548  10.639   1.759  0.9432  2.6140  2.6735
  852MOL0     H14960   9.721  10.634   1.805 -1.9461  3.2900  2.1367
  852MOL0     H14961   9.685  10.399   1.908 -2.3039 -2.3641  3.3812
  852MOL0     H14962   9.589  10.524   1.992  2.0125 -0.0213  0.1165
  852MOL0     H14963   9.393  10.454   1.853  0.9084 -0.2632 -2.4507
  852MOL0     H14964   9.486  10.313   1.819 -1.1764 -0.5372  0.9074
  852MOL0     H14965   9.541  10.297   2.073 -0.3742  0.0149  2.8667
  852MOL0     H14966   9.423  10.410   2.103  2.8098  0.5658  0.0673
  852MOL0     H14967   9.380  10.123   2.000  0.2305  0.3723 -1.0523
  852MOL0     H14968   9.243  10.233   1.988  1.1826 -2.0457 -1.8077
  852MOL0     H14969   9.212  10.113   2.156  0.9583 -0.4924 -2.0281
  852MOL0     H14970   9.366  10.130   2.242  1.0961 -1.2435 -1.1880
  852MOL0     H14971   9.033  10.306   2.162 -0.6907  1.8778  0.1369
  852MOL0     H14972   8.985  10.642   2.335 -3.2104  0.2378  1.0451
  852MOL0     H14973   8.912  10.507   2.239  0.4739  2.1673 -0.1210
  852MOL0     H14974   8.863  10.394   2.445  2.8150 -0.2336 -1.1481
  852MOL0     H14975   8.941  10.509   2.542  2.1207 -1.5944 -0.7505
  852MOL0     H14976   8.695  10.563   2.352  1.3687 -0.1094 -0.9350
  852MOL0     H14977   8.785  10.694   2.407  0.5838  0.3388  1.9822
  852MOL0     H14978   8.640  10.709   2.565  1.2097  0.6559 -1.3638
  852MOL0     H14979   8.723  10.587   2.654 -1.9259  0.2887  1.8838
  852MOL0     H14980   8.326  10.409   2.520  1.9870  1.2837 -0.1584
  852MOL0     H14981   8.110  10.455   2.624  1.9553 -2.4911 -0.6193
  852MOL0     H14982   8.004  10.580   3.093  0.7241 -0.0718 -1.3520
  852MOL0     H14983   7.833  10.605   3.254 -0.2587  2.0268  2.5470
  852MOL0     H14984   7.612  10.656   3.383  1.5201 -1.3993 -2.1050
  852MOL0     H14985   7.478  10.775   3.367  1.6090  0.7615 -0.0391
  852MOL0     H14986   7.413  10.667   3.164  1.5438  0.4654 -0.8645
  852MOL0     H14987   7.525  10.536   3.194 -0.6980 -0.3043 -3.4302
  852MOL0     H14988   7.273  10.595   3.358  0.3661 -0.0877  1.6546
  852MOL0     H14989   7.293  10.450   3.268 -1.2765  0.0170  0.9195
  852MOL0     H14990   7.461  10.534   3.518 -1.4578  0.1174  1.2722
  852MOL0     H14991   7.508  10.408   3.402  0.4127 -1.4967  1.2340
  852MOL0     H14992   7.296  10.289   3.464  2.5455  1.0254 -1.3955
  852MOL0     H14993   7.254  10.431   3.564  2.4527  1.9692  0.1211
  852MOL0     H14994   7.355  10.212   3.664 -1.2965 -0.0953 -2.3553
  852MOL0     H14995   7.511  10.256   3.609 -1.9797 -4.7206 -0.0515
  852MOL0     H14996   7.501  10.476   3.742 -0.9888  0.3146 -2.3095
  852MOL0     H14997   7.489  10.342   3.832  1.2907 -1.7808 -2.2883
  852MOL0     H14998   7.306  10.506   3.916  0.4821 -0.7846  0.3020
  852MOL0     H14999   7.251  10.522   3.743 -1.3530 -2.6910 -0.8717
  852MOL0     H15000   7.639  10.886   2.993 -0.8118 -0.5763  1.3683
  852MOL0     H15001   7.805  10.855   2.835  1.2505 -2.0299 -0.4810
  852MOL0     H15002   8.270  10.797   2.806  2.5158  1.2428 -1.4558
  852MOL0     H15003   8.502  10.743   2.730  0.0818  0.6713 -1.5752
  852MOL0     H15004   9.634  10.703   1.283  0.6196  0.1275 -1.9346
  852MOL0     H15005   9.653  10.867   1.137 -0.2144 -0.7093  0.5459
  852MOL0     H15006   9.661  11.474   1.049  0.0702 -2.4563  2.1118
  852MOL0     H15007   9.788  11.617   0.915 -2.1928 -3.2217 -2.4177
  852MOL0     H15008  10.232  11.608   0.804 -1.8867 -4.1729  0.4821
  852MOL0     H15009  10.225  11.557   0.969  2.5873  1.5920 -0.2483
  852MOL0     H15010  10.323  11.776   0.945  0.3899  1.4592  0.4240
  852MOL0     H15011  10.184  11.778   1.048  0.3865  3.0453 -1.1528
  852MOL0     H15012  10.049  11.867   0.872  0.9952 -0.2522 -0.0135
  852MOL0     H15013  10.149  11.821   0.743  1.0960 -0.3447  0.5030
  852MOL0     H15014  10.189  12.046   0.950  0.5103 -0.1947  0.3602
  852MOL0     H15015  10.320  11.977   0.856 -0.0260 -0.8622 -0.6744
  852MOL0     H15016  10.131  12.178   0.531 -0.6410  1.1671  0.7165
  852MOL0     H15017  10.137  11.389   0.986 -0.3260 -1.2247  1.0587
  852MOL0     H15018   9.962  11.116   1.144 -2.9473  2.4487 -2.7128
  852MOL0     H15019  10.119  11.181   1.111  0.1113 -0.0972  0.4282
  852MOL0     H15020  10.058  11.223   1.263 -1.2393  2.8770  0.5758
  853MOL0     O15021   1.556   6.192   5.047 -0.6049  1.4621 -0.3634
  853MOL0     C15022   1.662   6.156   5.095 -0.8102  0.0951  0.4198
  853MOL0     O15023   1.757   6.235   5.144 -0.1876  0.3927  0.1930
  853MOL0     C15024   1.745   6.369   5.138  0.3100  0.4836  1.0043
  853MOL0     C15025   1.827   6.444   5.053  0.2059 -0.4811  0.5340
  853MOL0     C15026   1.815   6.588   5.046  0.4685  0.3251  0.3220
  853MOL0     C15027   1.728   6.664   5.123  0.0718 -0.5270  0.9555
  853MOL0     O15028   1.703   6.797   5.125 -0.4086 -0.0124  0.1486
  853MOL0     C15029   1.741   6.871   5.003 -0.3216  0.2114 -0.0171
  853MOL0     C15030   1.849   6.978   5.027  0.0930 -0.5711  0.5144
  853MOL0     C15031   1.860   7.082   4.905 -0.4360 -0.3267  0.2953
  853MOL0     C15032   1.971   7.179   4.949 -0.1735 -0.3836  0.2378
  853MOL0     C15033   2.013   7.277   4.845  1.0334 -0.3292  0.2008
  853MOL0     C15034   1.925   7.403   4.859  0.6905  0.8450  0.1355
  853MOL0     C15035   1.939   7.501   4.750 -0.3300  0.1435  0.5168
  853MOL0     C15036   2.091   7.537   4.723  0.2503 -0.6285 -0.7207
  853MOL0     N15037   2.139   7.596   4.852  0.3575  0.3202 -0.0853
  853MOL0     C15038   2.121   7.718   4.903  0.3028  0.4796  1.3954
  853MOL0     C15039   2.163   7.705   5.024 -0.9539  0.4749  0.2286
  853MOL0     C15040   2.169   7.816   5.127  0.1872  0.8657 -0.9335
  853MOL0     C15041   2.276   7.927   5.101 -0.7446 -0.1039  0.2224
  853MOL0     C15042   2.423   7.880   5.137 -0.6350 -0.0730 -0.3200
  853MOL0     C15043   2.518   7.922   5.023 -0.7876 -0.4397  0.0764
  853MOL0     O15044   2.512   8.073   5.010 -0.3912  0.0864 -0.2463
  853MOL0     C15045   2.617   8.142   5.066  0.3026 -1.0673  0.5638
  853MOL0     C15046   2.631   8.272   5.008 -0.0317  0.6443  0.0559
  853MOL0     C15047   2.733   8.358   5.049 -0.3556 -0.7523 -0.0680
  853MOL0     C15048   2.837   8.313   5.137 -0.0566 -0.0230 -0.2044
  853MOL0     C15049   2.963   8.401   5.162  1.0075  0.7657 -0.5030
  853MOL0     O15050   2.945   8.523   5.105 -0.3819 -0.1679 -0.0439
  853MOL0     C15051   3.044   8.623   5.104  0.0471  0.2247  0.0263
  853MOL0     C15052   2.994   8.747   5.069 -0.2373 -0.1155  0.4703
  853MOL0     C15053   3.076   8.853   5.078 -0.2509  0.6794  0.8665
  853MOL0     C15054   3.216   8.837   5.102  0.1260 -0.2879  0.3257
  853MOL0     O15055   3.299   8.946   5.130  0.8490 -0.1682 -0.2034
  853MOL0     C15056   3.238   9.067   5.107  0.7580 -0.0784  0.3865
  853MOL0     C15057   3.318   9.181   5.167 -0.0807  0.7467 -0.3730
  853MOL0     C15058   3.238   9.293   5.217  0.6407 -0.0932 -0.3755
  853MOL0     C15059   3.163   9.367   5.106  0.0020 -0.7189  0.5721
  853MOL0     C15060   3.052   9.465   5.161  0.4056 -0.0840  1.0010
  853MOL0     C15061   2.941   9.397   5.238  0.1683 -0.5759 -0.6920
  853MOL0     C15062   2.882   9.490   5.343  0.1365  1.0013  0.2299
  853MOL0     C15063   2.765   9.439   5.436 -0.7742 -0.1124  0.3983
  853MOL0    Cl15064   2.641   9.341   5.347  0.2223 -0.2194  0.1759
  853MOL0     C15065   3.270   8.711   5.126  1.0248 -0.2032  0.1571
  853MOL0     C15066   3.182   8.605   5.130  0.2346  0.5552 -0.4420
  853MOL0     O15067   3.054   8.361   5.240 -0.0979 -0.3767 -0.5259
  853MOL0     C15068   2.826   8.174   5.178  1.1639 -0.2071 -0.3965
  853MOL0     C15069   2.710   8.093   5.149 -0.5380 -0.9011 -0.6256
  853MOL0     N15070   2.225   7.583   5.045  0.2029 -0.1713 -0.1114
  853MOL0     N15071   2.208   7.517   4.941  0.3967 -0.2774 -0.5391
  853MOL0     C15072   1.652   6.577   5.212 -0.6500  0.6054 -0.3826
  853MOL0     C15073   1.656   6.436   5.218  0.0644 -0.6569  0.3892
  853MOL0     C15074   1.699   6.017   5.069 -0.1697  0.6380  0.3197
  853MOL0     C15075   1.831   5.987   5.029  1.0341  0.7752  0.1055
  853MOL0     C15076   1.880   5.865   4.981 -0.3929 -0.0646 -0.4157
  853MOL0     C15077   1.792   5.751   4.968  0.6735  0.2693  0.1908
  853MOL0     O15078   1.825   5.623   4.928  0.1682  1.0735  0.2874
  853MOL0     C15079   1.945   5.565   4.965 -0.5895  0.1162 -0.4918
  853MOL0     C15080   1.903   5.445   5.057  0.0633  0.0081 -0.1283
  853MOL0     C15081   2.019   5.371   5.127  0.2403  0.3269  0.2370
  853MOL0     C15082   2.126   5.317   5.022 -0.5058 -0.5785 -0.9087
  853MOL0     C15083   2.214   5.216   5.086  0.6400 -0.7148  0.7159
  853MOL0     C15084   2.296   5.134   5.126  0.5102 -0.7770 -0.2479
  853MOL0     C15085   1.667   5.768   5.021  0.6979 -1.0843  0.1516
  853MOL0     C15086   1.621   5.898   5.067 -0.6519  0.2040 -0.0606
  853MOL0     C15087   1.487   5.910   5.132 -0.2667  0.2453  0.6349
  853MOL0     H15088   1.902   6.390   4.995  0.5389 -0.7584  1.2153
  853MOL0     H15089   1.879   6.642   4.978 -0.1451 -1.6778 -1.9813
  853MOL0     H15090   1.773   6.798   4.928  0.0942 -1.5528  1.7714
  853MOL0     H15091   1.649   6.914   4.965  0.1270  1.3968  0.1982
  853MOL0     H15092   1.950   6.937   5.040  0.7016  1.0362  1.2006
  853MOL0     H15093   1.829   7.033   5.120  0.9961 -0.0416  0.4103
  853MOL0     H15094   1.762   7.128   4.886  0.1592  1.6441  1.6558
  853MOL0     H15095   1.887   7.034   4.811 -4.7981 -0.8922 -0.8800
  853MOL0     H15096   1.938   7.242   5.032  0.6153 -0.5868  0.7211
  853MOL0     H15097   2.059   7.126   4.988  0.3033  0.9560  1.0769
  853MOL0     H15098   2.112   7.314   4.874  0.5457 -2.2187  5.5432
  853MOL0     H15099   2.015   7.229   4.747 -0.2600 -1.5190  0.7218
  853MOL0     H15100   1.819   7.376   4.856  0.8914 -0.2960  2.0501
  853MOL0     H15101   1.948   7.464   4.946  0.6346 -2.3152  2.5407
  853MOL0     H15102   1.887   7.597   4.759  0.0276  0.6146 -1.9051
  853MOL0     H15103   1.903   7.452   4.659 -1.7246 -2.0099  2.1128
  853MOL0     H15104   2.156   7.457   4.686  0.9660  1.5040 -4.6062
  853MOL0     H15105   2.102   7.604   4.637  0.9101 -1.5747 -1.4043
  853MOL0     H15106   2.061   7.799   4.861 -1.5162 -1.1341  0.6946
  853MOL0     H15107   2.071   7.865   5.120 -0.1562  0.1405 -1.3083
  853MOL0     H15108   2.175   7.779   5.230  0.3116  1.7117 -0.6357
  853MOL0     H15109   2.277   7.934   4.992  2.3257  1.9896  0.2311
  853MOL0     H15110   2.255   8.025   5.145  0.9124 -0.4731  1.9821
  853MOL0     H15111   2.435   7.772   5.130  1.1442  0.1612 -1.6718
  853MOL0     H15112   2.458   7.922   5.232  0.5298 -0.1134 -0.7234
  853MOL0     H15113   2.489   7.883   4.925 -1.2742 -0.6642  0.3090
  853MOL0     H15114   2.619   7.890   5.050 -0.4002 -0.5164 -1.4024
  853MOL0     H15115   2.551   8.302   4.941  0.3434  3.1062  0.5786
  853MOL0     H15116   2.740   8.462   5.021 -0.9142 -0.6727  0.0798
  853MOL0     H15117   2.886   8.751   5.065 -0.2152  0.0059 -2.5933
  853MOL0     H15118   3.019   8.946   5.082 -0.5123  0.5815 -0.1864
  853MOL0     H15119   3.222   9.087   5.000 -0.7221  1.3124  0.8230
  853MOL0     H15120   3.145   9.077   5.163 -1.6651 -2.7876 -2.7889
  853MOL0     H15121   3.360   9.130   5.255  0.1225  0.0661 -0.8578
  853MOL0     H15122   3.402   9.210   5.103  1.2812 -1.3513  0.3430
  853MOL0     H15123   3.177   9.242   5.292  1.6517 -1.7319 -0.6024
  853MOL0     H15124   3.300   9.359   5.279 -0.1313 -0.7413  1.1390
  853MOL0     H15125   3.115   9.296   5.039 -0.6515 -0.4212  0.7160
  853MOL0     H15126   3.232   9.430   5.050 -2.5059  0.0875 -1.8124
  853MOL0     H15127   3.012   9.513   5.071 -0.1797  0.3090  1.4657
  853MOL0     H15128   3.105   9.537   5.224  2.1215  1.1587 -1.6898
  853MOL0     H15129   2.854   9.365   5.180 -0.5325 -2.5686  1.3031
  853MOL0     H15130   2.982   9.310   5.291 -0.3170 -1.8208 -2.2585
  853MOL0     H15131   2.846   9.567   5.274  1.7283 -0.2391 -2.1155
  853MOL0     H15132   2.950   9.544   5.409 -1.8460  1.7769  1.7732
  853MOL0     H15133   2.810   9.378   5.516  1.7227 -2.7136 -2.7148
  853MOL0     H15134   2.705   9.520   5.478 -3.6518 -0.8763 -1.9090
  853MOL0     H15135   3.372   8.685   5.153  0.2336 -1.1237  2.4394
  853MOL0     H15136   3.238   8.514   5.148  0.6360  0.7353 -0.7621
  853MOL0     H15137   2.900   8.130   5.243  1.5992  0.1314 -0.6598
  853MOL0     H15138   2.709   8.003   5.210 -0.4338 -0.2798  0.3091
  853MOL0     H15139   1.578   6.628   5.273  0.3513  1.4168  0.1833
  853MOL0     H15140   1.592   6.389   5.292  2.2385 -1.3965  1.9003
  853MOL0     H15141   1.892   6.074   5.008  1.9488 -0.7853 -5.2398
  853MOL0     H15142   1.985   5.861   4.952 -0.5021  2.2753 -1.2932
  853MOL0     H15143   2.011   5.632   5.021 -1.2583 -1.3944  2.3298
  853MOL0     H15144   1.995   5.533   4.873  1.2284 -0.2625  0.5753
  853MOL0     H15145   1.853   5.374   4.991  0.9842 -0.0163 -0.8156
  853MOL0     H15146   1.836   5.466   5.141  1.0759 -0.3081  0.7959
  853MOL0     H15147   1.983   5.287   5.186 -0.1050  0.5250  0.3099
  853MOL0     H15148   2.058   5.445   5.198 -2.3181 -1.3101  3.6158
  853MOL0     H15149   2.080   5.263   4.938  1.9944  0.3496 -2.9928
  853MOL0     H15150   2.187   5.400   4.984  2.8905 -2.7265 -0.5352
  853MOL0     H15151   2.365   5.065   5.170  0.9306  0.3715  0.9577
  853MOL0     H15152   1.612   5.676   5.039 -0.4866  0.0716  3.0041
  853MOL0     H15153   1.423   5.967   5.065 -0.0640 -1.1487 -0.7992
  853MOL0     H15154   1.447   5.808   5.135  1.5841 -0.5950 -1.0921
  853MOL0     H15155   1.499   5.958   5.230  0.2281  0.6521  0.3778
  854MOL0     O15156   8.502   0.936  10.262  0.7835  0.0902  0.5370
  854MOL0     C15157   8.393   0.985  10.256 -0.1629 -0.8387  1.2728
  854MOL0     O15158   8.318   0.997  10.140 -0.2350  0.1379  0.1592
  854MOL0     C15159   8.342   0.918  10.035  0.0506  0.3802 -0.1838
  854MOL0     C15160   8.223   0.878   9.983 -0.9356  0.7273  0.1588
  854MOL0     C15161   8.225   0.803   9.862  0.1432  0.0840  0.5136
  854MOL0     C15162   8.343   0.783   9.792 -0.0708  0.0309 -0.9760
  854MOL0     O15163   8.329   0.724   9.663  0.1931 -0.1417  0.0116
  854MOL0     C15164   8.399   0.785   9.554 -0.0131 -0.7240  0.0326
  854MOL0     C15165   8.392   0.699   9.424  0.8725 -0.9577  0.4368
  854MOL0     C15166   8.517   0.612   9.418 -0.2229 -0.3705  0.1311
  854MOL0     C15167   8.518   0.528   9.285 -0.1300  0.0535  0.9896
  854MOL0     C15168   8.655   0.482   9.226  0.1122 -0.3707  0.2084
  854MOL0     C15169   8.749   0.602   9.193  0.1798  0.3613  0.0062
  854MOL0     C15170   8.900   0.557   9.129  0.0983  0.1542  0.1602
  854MOL0     C15171   8.912   0.604   8.986  0.1416  0.4240 -0.5032
  854MOL0     N15172   9.027   0.541   8.923  0.6027 -0.9674 -0.1179
  854MOL0     C15173   9.042   0.417   8.863  0.0929 -0.2112 -0.1271
  854MOL0     C15174   9.173   0.421   8.815 -0.2348 -0.0099  0.3095
  854MOL0     C15175   9.222   0.319   8.720 -0.1673 -0.0397 -0.4438
  854MOL0     C15176   9.321   0.360   8.611  0.4366  1.2661 -0.7488
  854MOL0     C15177   9.359   0.234   8.528 -1.0336  0.3077  0.2260
  854MOL0     C15178   9.414   0.267   8.391 -0.2718  0.5392 -0.1049
  854MOL0     O15179   9.409   0.142   8.313 -0.2163  0.3441 -0.2321
  854MOL0     C15180   9.280   0.110   8.265  0.0404  0.1868 -0.2330
  854MOL0     C15181   9.285  -0.012   8.199 -0.4172  0.5401 -1.1051
  854MOL0     C15182   9.169  -0.066   8.144 -1.0438 -0.6053  0.7460
  854MOL0     C15183   9.042  -0.001   8.156  0.0962 -0.2525  0.1334
  854MOL0     C15184   8.920  -0.043   8.075 -0.1939 -0.5627 -1.1757
  854MOL0     O15185   8.935  -0.151   7.996  0.5938  0.8964 -0.3431
  854MOL0     C15186   8.831  -0.205   7.921 -0.0161 -0.2512 -0.0286
  854MOL0     C15187   8.820  -0.342   7.915 -0.6117 -0.7339  0.7346
  854MOL0     C15188   8.709  -0.401   7.856  0.2509  0.9567 -0.4392
  854MOL0     C15189   8.620  -0.329   7.785  0.4395 -0.2635 -0.5139
  854MOL0     O15190   8.513  -0.409   7.731 -0.2503  0.4044  0.3934
  854MOL0     C15191   8.387  -0.354   7.706 -0.6574  0.8312 -0.5223
  854MOL0     C15192   8.321  -0.432   7.585  1.0622 -0.4057 -0.0943
  854MOL0     C15193   8.304  -0.577   7.622  1.2434  0.0990  0.4814
  854MOL0     C15194   8.185  -0.627   7.536 -0.8850 -0.1217  0.7838
  854MOL0     C15195   8.150  -0.779   7.562 -0.4251  0.3288 -0.1923
  854MOL0     C15196   8.050  -0.834   7.456  0.1620  0.3676 -0.7511
  854MOL0     C15197   8.107  -0.838   7.313  0.4195  0.6806  0.7636
  854MOL0     C15198   8.007  -0.907   7.215  0.1717 -0.7065  0.0545
  854MOL0    Cl15199   7.837  -0.844   7.200 -0.2110 -0.1071  0.8621
  854MOL0     C15200   8.630  -0.188   7.775 -0.6394 -0.0780 -0.7463
  854MOL0     C15201   8.729  -0.127   7.850  0.1215 -0.1145  0.0117
  854MOL0     O15202   8.819   0.032   8.084  0.3695  0.8250 -0.2365
  854MOL0     C15203   9.034   0.128   8.222 -0.0257  0.0345 -0.6970
  854MOL0     C15204   9.159   0.183   8.278 -0.3918 -0.4457  1.2003
  854MOL0     N15205   9.217   0.553   8.833 -0.4190  0.2255  0.7140
  854MOL0     N15206   9.142   0.605   8.930  0.4083 -0.1227  0.4767
  854MOL0     C15207   8.468   0.821   9.854 -1.1105 -0.3412  0.4783
  854MOL0     C15208   8.474   0.886   9.975  1.2872  0.2018 -0.1041
  854MOL0     C15209   8.337   1.050  10.382  1.1785  0.1323  0.7033
  854MOL0     C15210   8.228   1.137  10.382 -1.2918  0.3681 -0.0212
  854MOL0     C15211   8.179   1.207  10.496  0.3297  0.1992 -0.3462
  854MOL0     C15212   8.218   1.173  10.623  0.5306  1.3261 -0.2416
  854MOL0     O15213   8.178   1.221  10.750 -0.1854 -0.7738  0.0792
  854MOL0     C15214   8.057   1.289  10.765  0.3648 -0.2785  0.4373
  854MOL0     C15215   7.950   1.192  10.821 -0.2865 -0.1590  0.6691
  854MOL0     C15216   7.799   1.247  10.816 -0.1304 -0.7565  0.9794
  854MOL0     C15217   7.696   1.151  10.892  0.2374 -0.4560 -0.4204
  854MOL0     C15218   7.570   1.223  10.890  0.1607 -0.2218 -0.5099
  854MOL0     C15219   7.467   1.285  10.895  0.2060  0.3017 -0.0072
  854MOL0     C15220   8.323   1.081  10.630 -0.4905 -0.8704  0.2783
  854MOL0     C15221   8.387   1.027  10.508  0.4236 -0.2476 -0.5075
  854MOL0     C15222   8.497   0.936  10.556  0.1497  0.4775  0.6575
  854MOL0     H15223   8.130   0.909  10.030 -1.2109 -0.3463  0.3420
  854MOL0     H15224   8.124   0.777   9.830 -0.1593 -0.3094  1.7255
  854MOL0     H15225   8.366   0.888   9.536 -1.4368 -1.2396 -0.5171
  854MOL0     H15226   8.502   0.800   9.586 -0.1209  0.6911 -0.1904
  854MOL0     H15227   8.381   0.772   9.343  1.8946  1.2996  2.2229
  854MOL0     H15228   8.307   0.630   9.431 -0.0234  0.0942  0.3119
  854MOL0     H15229   8.512   0.533   9.493 -2.8078 -0.4728 -0.0365
  854MOL0     H15230   8.605   0.676   9.424  0.1238 -0.5518 -2.3129
  854MOL0     H15231   8.464   0.436   9.312  0.7036 -1.5388 -2.2341
  854MOL0     H15232   8.457   0.574   9.207 -0.4880 -1.2295  0.4837
  854MOL0     H15233   8.722   0.419   9.285  2.0859 -1.1980 -2.6432
  854MOL0     H15234   8.639   0.430   9.130  0.7948 -0.3258  0.0594
  854MOL0     H15235   8.696   0.654   9.114 -0.6542 -2.9753 -1.7972
  854MOL0     H15236   8.768   0.658   9.286  3.3456 -2.7272  1.4868
  854MOL0     H15237   8.904   0.447   9.134 -0.3190  0.1760  1.0961
  854MOL0     H15238   8.974   0.603   9.194  0.4263  0.0260 -0.1159
  854MOL0     H15239   8.821   0.580   8.930  0.8304  0.2359 -1.5706
  854MOL0     H15240   8.926   0.712   8.982 -0.6337  0.6088  0.9776
  854MOL0     H15241   8.972   0.337   8.844  1.5598 -0.8758 -3.4744
  854MOL0     H15242   9.257   0.231   8.775 -2.7178  0.7908  2.8117
  854MOL0     H15243   9.139   0.278   8.661 -0.6207 -0.4852  0.4807
  854MOL0     H15244   9.278   0.437   8.546  3.2346  2.0409 -1.8519
  854MOL0     H15245   9.410   0.405   8.655  0.1864  4.0598 -2.8138
  854MOL0     H15246   9.275   0.164   8.518 -0.4506 -0.2426 -0.9099
  854MOL0     H15247   9.439   0.174   8.572 -0.6827 -0.9728 -2.0464
  854MOL0     H15248   9.513   0.311   8.398 -0.3523  0.4469  3.3519
  854MOL0     H15249   9.354   0.343   8.341 -0.7256  1.4175  1.7076
  854MOL0     H15250   9.376  -0.071   8.206 -0.9731 -0.1586  2.0606
  854MOL0     H15251   9.163  -0.164   8.097  1.3716 -1.0186  1.1969
  854MOL0     H15252   8.896  -0.401   7.967  1.2410  0.6745 -0.2701
  854MOL0     H15253   8.708  -0.510   7.857 -0.3507  0.8984 -2.7396
  854MOL0     H15254   8.327  -0.351   7.798 -0.1463 -1.1414 -0.0825
  854MOL0     H15255   8.391  -0.248   7.677  0.6725  0.4328 -1.9044
  854MOL0     H15256   8.226  -0.382   7.561 -0.0505 -2.3144  0.1436
  854MOL0     H15257   8.386  -0.419   7.498 -0.2531 -1.5946 -1.3011
  854MOL0     H15258   8.398  -0.620   7.586 -0.6801 -1.9367 -2.6271
  854MOL0     H15259   8.283  -0.578   7.729 -2.8825  3.7519  0.0087
  854MOL0     H15260   8.211  -0.596   7.435 -0.5490  1.5782  1.3581
  854MOL0     H15261   8.095  -0.570   7.562 -0.7219  0.2414  0.5614
  854MOL0     H15262   8.109  -0.784   7.663 -3.1278  2.1797 -1.0665
  854MOL0     H15263   8.240  -0.841   7.562 -0.1346  0.6831  1.9489
  854MOL0     H15264   8.024  -0.936   7.484  2.4627  0.1306  0.6983
  854MOL0     H15265   7.957  -0.776   7.454 -0.4127 -0.3858  1.4522
  854MOL0     H15266   8.202  -0.892   7.312 -0.3392 -0.8542 -2.6235
  854MOL0     H15267   8.132  -0.738   7.276  1.6951 -0.4176 -1.6338
  854MOL0     H15268   8.040  -0.899   7.111 -2.7706 -0.9799 -0.9990
  854MOL0     H15269   7.997  -1.013   7.243 -1.5765  0.0013  2.4828
  854MOL0     H15270   8.552  -0.135   7.721  1.3324  2.6854 -1.0811
  854MOL0     H15271   8.727  -0.019   7.861 -1.9054 -0.3243  2.9270
  854MOL0     H15272   8.942   0.187   8.224  0.5178  0.9406  2.0473
  854MOL0     H15273   9.154   0.278   8.331 -1.5924  0.4592 -0.4523
  854MOL0     H15274   8.564   0.814   9.804 -0.1275 -1.5107  2.4066
  854MOL0     H15275   8.570   0.926  10.006  0.1270  1.9233  1.4942
  854MOL0     H15276   8.174   1.161  10.292 -2.8174  0.9895  1.0201
  854MOL0     H15277   8.094   1.275  10.491 -0.4111 -0.5588  1.3697
  854MOL0     H15278   8.006   1.318  10.673 -1.4331 -1.4977  0.9916
  854MOL0     H15279   8.058   1.377  10.830 -0.4655 -0.0698  0.1889
  854MOL0     H15280   7.983   1.165  10.921  0.3907 -1.5387  0.0901
  854MOL0     H15281   7.937   1.090  10.784 -1.3528 -0.8411  2.7650
  854MOL0     H15282   7.768   1.250  10.711 -0.2858 -2.2752  0.9583
  854MOL0     H15283   7.806   1.343  10.867  4.8138  0.3545 -1.1669
  854MOL0     H15284   7.687   1.063  10.827 -2.2120  0.0739 -0.9122
  854MOL0     H15285   7.739   1.131  10.990  2.4435  2.5669 -0.6210
  854MOL0     H15286   7.378   1.344  10.900  0.8683  1.4252 -0.9334
  854MOL0     H15287   8.368   1.055  10.725  2.5978 -0.9491 -1.0786
  854MOL0     H15288   8.561   1.001  10.616  0.2447  0.1777  0.8828
  854MOL0     H15289   8.454   0.854  10.614  0.7937  1.6378  2.8857
  854MOL0     H15290   8.557   0.889  10.478  0.5509  5.9853 -2.8872
  855MOL0     O15291   2.187   7.989   4.586  0.2246 -0.5514  0.2697
  855MOL0     C15292   2.117   8.061   4.522  0.9006  0.3867  0.1872
  855MOL0     O15293   2.137   8.082   4.397  0.2171  0.9809 -0.2038
  855MOL0     C15294   2.249   8.036   4.324  0.0954  0.9801 -0.3611
  855MOL0     C15295   2.233   8.000   4.194 -0.3807  0.3419 -0.0535
  855MOL0     C15296   2.345   7.970   4.112  0.0247 -0.0115  0.7380
  855MOL0     C15297   2.471   7.967   4.170  0.2322 -0.1248  0.8674
  855MOL0     O15298   2.576   7.931   4.088 -0.5483 -0.3863 -0.1946
  855MOL0     C15299   2.635   7.800   4.093  0.2253  0.2567 -0.9998
  855MOL0     C15300   2.743   7.791   4.203  0.1062 -0.3840 -0.8747
  855MOL0     C15301   2.804   7.655   4.201 -0.0309  0.1462 -0.5355
  855MOL0     C15302   2.871   7.612   4.333  0.6296  0.0526  0.4734
  855MOL0     C15303   2.932   7.472   4.332  0.9322  0.1316  0.2588
  855MOL0     C15304   3.036   7.448   4.435 -0.3464 -0.1611 -0.0549
  855MOL0     C15305   3.056   7.298   4.445  0.3306 -0.6481 -0.7919
  855MOL0     C15306   2.954   7.239   4.542  0.3781 -0.6580 -0.0426
  855MOL0     N15307   2.930   7.096   4.516  0.5459 -0.5126 -0.0585
  855MOL0     C15308   3.004   7.016   4.437 -0.4823  0.6534  1.0045
  855MOL0     C15309   2.955   6.892   4.452 -0.3782  0.7659 -0.9175
  855MOL0     C15310   3.034   6.770   4.412 -0.5682 -0.0351 -0.1776
  855MOL0     C15311   3.035   6.734   4.264  0.2551 -0.2091  0.2842
  855MOL0     C15312   2.887   6.725   4.213 -0.5673  0.0168  0.0196
  855MOL0     C15313   2.906   6.679   4.072 -0.8493  0.5128 -0.1966
  855MOL0     O15314   2.925   6.790   3.984 -0.5310  0.2478 -0.1105
  855MOL0     C15315   2.839   6.814   3.879 -0.6262  0.0918  0.5476
  855MOL0     C15316   2.825   6.947   3.829  0.4101  0.1918 -0.8158
  855MOL0     C15317   2.736   6.976   3.727 -0.1065  0.9750  0.1875
  855MOL0     C15318   2.653   6.874   3.666  0.3294  0.6420 -0.3423
  855MOL0     C15319   2.550   6.889   3.557  0.3703 -0.0800 -0.4436
  855MOL0     O15320   2.522   7.016   3.519  0.1799  0.1064  0.5232
  855MOL0     C15321   2.434   7.034   3.414 -0.6042 -0.1029 -0.4635
  855MOL0     C15322   2.306   7.088   3.445  1.1864  0.9716 -0.2834
  855MOL0     C15323   2.219   7.124   3.341  0.0956  0.2767  1.8360
  855MOL0     C15324   2.251   7.101   3.203  1.3518  0.8254  0.3416
  855MOL0     O15325   2.175   7.140   3.100  0.0610 -0.1074 -0.2508
  855MOL0     C15326   2.092   7.027   3.045 -1.3714 -0.6593  0.2081
  855MOL0     C15327   2.051   7.036   2.899 -0.0244  0.2013  1.1540
  855MOL0     C15328   1.934   7.136   2.874 -0.0440 -0.3417 -0.2145
  855MOL0     C15329   1.978   7.220   2.743 -0.5843  0.9078 -0.1463
  855MOL0     C15330   1.865   7.302   2.690  0.3875 -0.6061 -0.3233
  855MOL0     C15331   1.745   7.233   2.634  0.0494 -0.7723  0.6435
  855MOL0     C15332   1.637   7.330   2.575  0.2337 -0.2008 -0.4564
  855MOL0     C15333   1.535   7.266   2.488  0.1711  0.1004  0.1655
  855MOL0    Cl15334   1.585   7.240   2.323  0.0221 -0.0718 -0.0975
  855MOL0     C15335   2.376   7.047   3.175 -0.6507  0.9693 -0.0883
  855MOL0     C15336   2.464   7.029   3.279  0.5766  0.7045  0.6094
  855MOL0     O15337   2.497   6.785   3.520 -0.0249 -0.2444  0.6471
  855MOL0     C15338   2.672   6.741   3.711 -0.0843  0.1912  0.6624
  855MOL0     C15339   2.768   6.713   3.809  1.1105  0.2555 -0.6127
  855MOL0     N15340   2.862   6.898   4.556  0.3680 -0.1837 -0.0901
  855MOL0     N15341   2.838   7.021   4.583  0.0888 -0.3521 -0.6044
  855MOL0     C15342   2.494   8.010   4.302  1.7571 -0.4991 -0.4440
  855MOL0     C15343   2.379   8.038   4.376 -0.1571 -0.4874 -0.4121
  855MOL0     C15344   1.993   8.105   4.585  0.4521  0.0107 -0.0293
  855MOL0     C15345   1.877   8.083   4.500  0.1317 -0.3634  0.0841
  855MOL0     C15346   1.750   8.107   4.544  0.0968 -0.4300 -0.2844
  855MOL0     C15347   1.728   8.142   4.682 -0.0001  0.2293  0.6943
  855MOL0     O15348   1.607   8.141   4.749 -0.4756  0.3200  0.2467
  855MOL0     C15349   1.518   8.203   4.663  0.6630 -0.2013  1.1290
  855MOL0     C15350   1.408   8.236   4.759  0.0789  0.5874  0.4232
  855MOL0     C15351   1.352   8.094   4.808 -0.0127  1.0020 -0.3707
  855MOL0     C15352   1.196   8.093   4.770  0.2551 -0.1640  0.6600
  855MOL0     C15353   1.193   8.100   4.623  0.4301 -0.5286  0.0123
  855MOL0     C15354   1.190   8.111   4.497 -0.8502 -0.1542 -0.5597
  855MOL0     C15355   1.840   8.142   4.762  0.8369 -0.3589  1.7075
  855MOL0     C15356   1.971   8.137   4.716 -0.3622  0.1490 -0.2608
  855MOL0     C15357   2.074   8.149   4.829  0.0334  0.5822 -0.0854
  855MOL0     H15358   2.139   7.976   4.145  0.1500 -2.4665  0.1693
  855MOL0     H15359   2.328   7.930   4.012 -2.0903 -0.9478  1.4260
  855MOL0     H15360   2.556   7.726   4.107  0.4833  0.1838  0.2331
  855MOL0     H15361   2.668   7.779   3.991 -2.3707  2.0283 -2.3222
  855MOL0     H15362   2.690   7.811   4.296 -0.5549  1.3772 -1.5931
  855MOL0     H15363   2.815   7.869   4.176 -1.6232  1.4414 -0.4125
  855MOL0     H15364   2.867   7.642   4.113 -0.0573  0.8833 -0.6678
  855MOL0     H15365   2.724   7.583   4.187 -2.0573  2.1614  0.0697
  855MOL0     H15366   2.959   7.677   4.334 -1.0900  2.5438  1.1820
  855MOL0     H15367   2.804   7.635   4.417 -0.1281  0.4310 -0.2209
  855MOL0     H15368   2.847   7.405   4.342  1.7235 -1.4121 -2.2904
  855MOL0     H15369   2.969   7.453   4.230 -3.3012  0.6092 -1.5491
  855MOL0     H15370   3.134   7.492   4.411  0.6001 -1.6071  0.9763
  855MOL0     H15371   3.010   7.499   4.528 -1.0160 -0.2937 -0.1687
  855MOL0     H15372   3.154   7.270   4.485  0.5838 -0.5527 -1.3328
  855MOL0     H15373   3.053   7.255   4.344  1.6764  1.3811 -1.7527
  855MOL0     H15374   2.976   7.260   4.647  0.1254  1.9321 -0.4456
  855MOL0     H15375   2.863   7.298   4.529 -1.0213 -1.1994  4.9069
  855MOL0     H15376   3.089   7.036   4.373  1.4149 -3.4690  1.8546
  855MOL0     H15377   3.141   6.788   4.423 -0.1470 -2.4596  0.3122
  855MOL0     H15378   2.998   6.689   4.477 -0.6572  0.4772  0.4159
  855MOL0     H15379   3.094   6.809   4.211 -1.9017  1.4212  0.0489
  855MOL0     H15380   3.091   6.640   4.256 -0.2469 -0.3865 -1.4981
  855MOL0     H15381   2.831   6.819   4.218 -2.7479 -1.2513  4.3411
  855MOL0     H15382   2.830   6.645   4.260 -2.8073 -0.1267 -2.6500
  855MOL0     H15383   2.826   6.611   4.040 -2.3818  1.9344  0.5131
  855MOL0     H15384   2.990   6.609   4.066 -3.2441 -2.6520  0.2846
  855MOL0     H15385   2.882   7.029   3.872 -1.7499  0.1303  2.4750
  855MOL0     H15386   2.707   7.075   3.695 -2.9352  0.9524  2.2306
  855MOL0     H15387   2.274   7.107   3.547  2.0564  0.9577  0.0006
  855MOL0     H15388   2.120   7.166   3.353 -1.0961 -2.1535  1.2035
  855MOL0     H15389   2.153   6.937   3.058 -1.1358 -0.3470  1.3964
  855MOL0     H15390   2.005   7.005   3.107 -1.2891 -2.7606 -0.3404
  855MOL0     H15391   2.142   7.075   2.852 -2.4569  0.3643 -4.1026
  855MOL0     H15392   2.018   6.941   2.857 -1.8496 -0.0665  2.9989
  855MOL0     H15393   1.835   7.092   2.857  0.2556 -1.7587  1.4243
  855MOL0     H15394   1.920   7.199   2.962  0.3623  0.2551 -0.5746
  855MOL0     H15395   2.008   7.159   2.657 -1.3913 -0.1204  0.2782
  855MOL0     H15396   2.066   7.284   2.757  2.3798 -3.2933  2.8195
  855MOL0     H15397   1.915   7.354   2.608  0.6221  1.2612  0.9381
  855MOL0     H15398   1.841   7.376   2.767  1.6010  0.3565 -0.8383
  855MOL0     H15399   1.778   7.167   2.553  1.4286 -0.3173  0.8086
  855MOL0     H15400   1.700   7.175   2.715  1.2490 -0.2460  1.7305
  855MOL0     H15401   1.695   7.418   2.543  3.1149 -2.1100 -0.8445
  855MOL0     H15402   1.589   7.364   2.667  0.5663 -1.9150  0.3831
  855MOL0     H15403   1.510   7.168   2.530  1.5011 -0.3189  0.0285
  855MOL0     H15404   1.444   7.326   2.480  0.0182 -0.2151 -0.5231
  855MOL0     H15405   2.411   7.047   3.072 -0.1715 -0.0021  0.0606
  855MOL0     H15406   2.567   7.004   3.258  0.0447 -1.0952  0.0140
  855MOL0     H15407   2.610   6.657   3.678 -1.0486  1.4836 -0.9554
  855MOL0     H15408   2.781   6.609   3.835 -4.4565 -0.3122  1.2208
  855MOL0     H15409   2.591   8.023   4.348  0.5373  1.3358  1.8392
  855MOL0     H15410   2.389   8.071   4.479 -1.7149 -0.9188 -0.0924
  855MOL0     H15411   1.878   8.047   4.397  0.3680  1.3205 -0.5330
  855MOL0     H15412   1.667   8.088   4.476  1.1071  0.3517 -1.7997
  855MOL0     H15413   1.473   8.138   4.587  1.1531  1.3714 -0.5663
  855MOL0     H15414   1.555   8.296   4.620 -2.6777  1.2488  1.0741
  855MOL0     H15415   1.324   8.297   4.724  0.1224  2.0889  2.6604
  855MOL0     H15416   1.458   8.292   4.839  0.0617  2.5700 -0.8806
  855MOL0     H15417   1.368   8.074   4.914  1.9032  1.1063 -0.6152
  855MOL0     H15418   1.405   8.011   4.760 -0.8440  0.7262 -0.8343
  855MOL0     H15419   1.152   7.998   4.803  0.9845 -1.0557 -0.8287
  855MOL0     H15420   1.157   8.171   4.836  1.5233  2.5355 -1.5631
  855MOL0     H15421   1.205   8.134   4.394  1.4418 -0.7519 -0.4015
  855MOL0     H15422   1.825   8.143   4.869 -3.6298 -1.8127  1.2772
  855MOL0     H15423   2.034   8.234   4.885 -1.8842  0.0796 -0.6182
  855MOL0     H15424   2.081   8.063   4.896  0.1061  1.3062  0.8529
  855MOL0     H15425   2.173   8.176   4.791 -0.9206  2.3136 -1.4866
  856MOL0     O15426   7.963   0.125   9.832  0.7277 -0.6241 -0.2393
  856MOL0     C15427   7.902   0.102   9.730 -0.3023 -1.1304  0.0055
  856MOL0     O15428   7.836   0.197   9.659  0.2242 -0.3228  0.0189
  856MOL0     C15429   7.864   0.331   9.667 -0.3526 -0.0990 -0.2684
  856MOL0     C15430   7.989   0.386   9.649 -0.8984  0.2909  0.6430
  856MOL0     C15431   8.010   0.530   9.668  1.2564 -0.1044  0.2720
  856MOL0     C15432   7.905   0.616   9.688  0.3560 -1.1102  0.1804
  856MOL0     O15433   7.912   0.747   9.734  0.5707  0.1595  0.3470
  856MOL0     C15434   7.854   0.857   9.661 -1.1185 -0.4153  0.0468
  856MOL0     C15435   7.828   0.976   9.750  0.5510  0.4559 -0.7008
  856MOL0     C15436   7.953   1.049   9.787  0.2448  0.1368 -0.4838
  856MOL0     C15437   7.919   1.161   9.884  0.5699  0.4028  0.7417
  856MOL0     C15438   8.021   1.264   9.914 -0.1298  0.2945  0.3095
  856MOL0     C15439   7.953   1.375   9.987  0.5074 -0.9742 -0.8454
  856MOL0     C15440   8.052   1.478  10.036 -0.7971 -0.5787  1.1264
  856MOL0     C15441   7.980   1.600  10.094  0.0517 -0.5565 -0.4816
  856MOL0     N15442   7.894   1.563  10.211 -0.8314 -0.1989  1.0173
  856MOL0     C15443   7.760   1.582  10.220 -0.6374  0.3588  0.3316
  856MOL0     C15444   7.715   1.513  10.322 -0.3424 -0.1682  0.8946
  856MOL0     C15445   7.563   1.506  10.364 -0.0254 -1.0853 -0.1961
  856MOL0     C15446   7.545   1.606  10.481 -0.2379 -0.1535 -0.0039
  856MOL0     C15447   7.576   1.558  10.623 -0.3330 -0.7457 -0.3336
  856MOL0     C15448   7.545   1.661  10.723 -0.5505 -0.3083  0.3495
  856MOL0     O15449   7.585   1.623  10.854 -0.4876  0.2092  0.0059
  856MOL0     C15450   7.629   1.716  10.935  1.1171 -0.3764 -0.7805
  856MOL0     C15451   7.726   1.679  11.034 -0.3391 -0.3570  0.1214
  856MOL0     C15452   7.790   1.773  11.112 -0.3239 -0.1498  0.1304
  856MOL0     C15453   7.753   1.912  11.107  0.1426  1.1055  0.8559
  856MOL0     C15454   7.825   2.011  11.199 -0.5219 -0.9740  0.4913
  856MOL0     O15455   7.925   1.955  11.281 -0.8196 -0.5511  0.1657
  856MOL0     C15456   8.008   2.019  11.373 -0.0794 -1.0408 -0.2286
  856MOL0     C15457   8.139   1.973  11.381  0.2898  1.0900  0.2650
  856MOL0     C15458   8.226   2.023  11.470 -0.6118 -0.8224  0.2159
  856MOL0     C15459   8.185   2.130  11.562  0.3711 -0.2650  0.8780
  856MOL0     O15460   8.280   2.175  11.650  0.0466 -0.5945  0.5161
  856MOL0     C15461   8.288   2.315  11.691  0.2967 -0.0775  0.0384
  856MOL0     C15462   8.261   2.336  11.841  1.5106  0.0626  0.1621
  856MOL0     C15463   8.286   2.480  11.870 -0.2461 -0.0742 -0.6905
  856MOL0     C15464   8.271   2.521  12.019 -0.0692  0.3639  0.2689
  856MOL0     C15465   8.380   2.457  12.100 -0.5671  0.6303 -0.2849
  856MOL0     C15466   8.524   2.484  12.074 -0.3220  0.3751 -0.0035
  856MOL0     C15467   8.618   2.366  12.125  0.0832 -0.5091  1.3385
  856MOL0     C15468   8.640   2.388  12.270 -0.2493  0.3324 -0.2035
  856MOL0    Cl15469   8.776   2.282  12.331 -0.1459 -0.3429  0.0966
  856MOL0     C15470   8.056   2.188  11.542 -0.7368  0.1557 -0.2827
  856MOL0     C15471   7.969   2.131  11.445 -0.3646 -1.2150  0.2764
  856MOL0     O15472   7.804   2.134  11.192  0.3485  0.1822  0.0607
  856MOL0     C15473   7.641   1.946  11.028  0.1305  0.4865 -0.1219
  856MOL0     C15474   7.582   1.848  10.948 -0.5351 -0.0695 -1.2398
  856MOL0     N15475   7.826   1.448  10.375 -0.7663 -0.1218  0.0558
  856MOL0     N15476   7.940   1.479  10.312  0.8179  0.0779  0.4210
  856MOL0     C15477   7.779   0.565   9.689 -0.5247 -0.0901  0.6882
  856MOL0     C15478   7.757   0.426   9.679  0.8229  0.0365  0.4424
  856MOL0     C15479   7.906  -0.038   9.671 -0.2427 -0.3602  0.4500
  856MOL0     C15480   7.846  -0.045   9.542 -0.1981  0.2043  0.4494
  856MOL0     C15481   7.837  -0.172   9.471  0.6640 -0.1212 -0.0690
  856MOL0     C15482   7.909  -0.279   9.526  0.6188 -0.3560  0.4992
  856MOL0     O15483   7.931  -0.393   9.452  0.7386  0.8133 -0.4336
  856MOL0     C15484   7.899  -0.521   9.521 -0.6743 -2.0492 -0.0460
  856MOL0     C15485   7.807  -0.597   9.428 -0.1054 -0.8109 -0.2562
  856MOL0     C15486   7.855  -0.734   9.380 -0.4751 -0.2661  0.6390
  856MOL0     C15487   7.982  -0.731   9.312 -0.0556 -0.7846  0.5797
  856MOL0     C15488   7.965  -0.695   9.164  0.1597 -1.5372 -0.2756
  856MOL0     C15489   7.956  -0.635   9.055  0.7622  0.2986  0.5112
  856MOL0     C15490   7.983  -0.263   9.644 -0.5718 -0.8280 -0.8023
  856MOL0     C15491   7.981  -0.145   9.717 -0.3354  0.3863 -0.3829
  856MOL0     C15492   8.057  -0.146   9.854  0.2646  0.0572  0.4504
  856MOL0     H15493   8.080   0.327   9.638 -0.1919  1.6528 -1.5281
  856MOL0     H15494   8.107   0.575   9.685  0.4282  1.9772 -0.1691
  856MOL0     H15495   7.929   0.883   9.586  1.5329  0.1095  2.6697
  856MOL0     H15496   7.759   0.837   9.611 -1.1260  0.2516 -0.2198
  856MOL0     H15497   7.778   0.941   9.840  1.3324  1.4317  0.1325
  856MOL0     H15498   7.759   1.043   9.698  0.8469  1.1063 -0.2552
  856MOL0     H15499   8.000   1.086   9.695  1.4889 -1.7711 -0.6625
  856MOL0     H15500   8.034   0.990   9.831  0.2637  0.6653  0.2157
  856MOL0     H15501   7.830   1.210   9.843  1.1274 -0.3937 -1.5851
  856MOL0     H15502   7.885   1.106   9.972 -0.4941 -1.7124 -0.8886
  856MOL0     H15503   8.110   1.212   9.948 -0.2833 -4.0875 -4.6415
  856MOL0     H15504   8.049   1.317   9.822 -1.2346  2.6554  1.2404
  856MOL0     H15505   7.871   1.419   9.929 -1.7433  0.0409  2.7571
  856MOL0     H15506   7.906   1.333  10.077 -1.3419  2.1792 -0.1768
  856MOL0     H15507   8.111   1.510   9.950 -1.6037  2.3071  1.5078
  856MOL0     H15508   8.127   1.434  10.102 -0.8177 -0.5745  1.1525
  856MOL0     H15509   8.052   1.677  10.123 -0.7523 -0.3198  1.0026
  856MOL0     H15510   7.916   1.652  10.023 -0.1792  0.0251  0.1326
  856MOL0     H15511   7.699   1.641  10.151  0.3459 -0.5355 -1.3829
  856MOL0     H15512   7.504   1.542  10.280  1.6511  0.8346 -0.6374
  856MOL0     H15513   7.532   1.405  10.391 -0.9990 -1.4872 -2.6141
  856MOL0     H15514   7.592   1.699  10.446 -3.1017  1.6546  0.6030
  856MOL0     H15515   7.440   1.626  10.504  0.4176  0.4132  2.8809
  856MOL0     H15516   7.683   1.537  10.632  0.3503  1.9599 -1.3179
  856MOL0     H15517   7.517   1.468  10.643  2.3573 -2.3133  1.0538
  856MOL0     H15518   7.439   1.686  10.729 -1.6153 -4.3939  2.7044
  856MOL0     H15519   7.597   1.748  10.683 -0.4483  0.6465  2.4495
  856MOL0     H15520   7.755   1.574  11.041  0.9523  0.0922  2.5149
  856MOL0     H15521   7.859   1.730  11.184 -0.6413  2.0663  1.8715
  856MOL0     H15522   8.163   1.888  11.318 -3.1604 -0.2840  0.5841
  856MOL0     H15523   8.331   1.994  11.478 -0.1264  0.1925 -1.6164
  856MOL0     H15524   8.386   2.352  11.659 -0.8926  1.4558 -2.0834
  856MOL0     H15525   8.221   2.362  11.618 -0.0690 -2.1658 -1.0610
  856MOL0     H15526   8.165   2.303  11.882  2.0388 -0.9938  0.5929
  856MOL0     H15527   8.341   2.275  11.886  0.8178 -2.6651 -2.0430
  856MOL0     H15528   8.389   2.497  11.838 -0.9216  0.0809 -2.9729
  856MOL0     H15529   8.218   2.541  11.810 -0.5625 -1.6112 -1.9738
  856MOL0     H15530   8.174   2.492  12.059 -0.0911 -1.0997 -0.7602
  856MOL0     H15531   8.270   2.631  12.025 -1.2671  0.3609  0.3881
  856MOL0     H15532   8.359   2.349  12.096  0.8830  0.2411  1.5445
  856MOL0     H15533   8.362   2.485  12.204 -0.0139 -0.8509  0.2393
  856MOL0     H15534   8.533   2.500  11.966 -3.8196  0.7057 -0.3602
  856MOL0     H15535   8.538   2.575  12.134 -1.9143 -0.9543  2.5818
  856MOL0     H15536   8.713   2.370  12.071 -2.1139  3.4628 -2.9529
  856MOL0     H15537   8.569   2.271  12.102  1.0195 -0.9324  1.0211
  856MOL0     H15538   8.668   2.493  12.278  4.0123 -0.7265  1.6616
  856MOL0     H15539   8.542   2.374  12.316 -0.4861 -0.8931 -1.0227
  856MOL0     H15540   8.022   2.265  11.611  0.0196  0.1329  0.1323
  856MOL0     H15541   7.869   2.173  11.440 -1.4343 -3.6937 -1.0363
  856MOL0     H15542   7.609   2.050  11.039 -2.0505 -0.0946 -0.4645
  856MOL0     H15543   7.492   1.870  10.889 -1.5567 -2.7307 -0.7919
  856MOL0     H15544   7.703   0.642   9.678 -1.2790 -0.7929  0.8746
  856MOL0     H15545   7.659   0.380   9.686 -0.4439  2.1020 -2.0086
  856MOL0     H15546   7.792   0.036   9.494  0.1125 -0.3799 -0.9482
  856MOL0     H15547   7.777  -0.189   9.383  2.1861  1.2306 -1.4237
  856MOL0     H15548   7.858  -0.510   9.622  3.1356  0.0999  1.4759
  856MOL0     H15549   7.991  -0.578   9.534 -0.9026 -2.0763  1.6529
  856MOL0     H15550   7.785  -0.536   9.340  3.2983 -2.3666 -2.3816
  856MOL0     H15551   7.709  -0.603   9.476  0.5626  1.7051  1.5973
  856MOL0     H15552   7.771  -0.765   9.317  0.3784 -2.2812  0.4147
  856MOL0     H15553   7.857  -0.815   9.453 -3.3994 -2.2126 -1.2192
  856MOL0     H15554   8.052  -0.659   9.354  1.8293  0.2197 -3.7239
  856MOL0     H15555   8.014  -0.835   9.326 -1.3927 -1.4253 -0.8224
  856MOL0     H15556   7.959  -0.582   8.962  1.3143  1.8967  1.3898
  856MOL0     H15557   8.041  -0.348   9.677 -0.2767 -0.0910  0.6421
  856MOL0     H15558   7.990  -0.099   9.927  0.7120 -0.2731  1.0826
  856MOL0     H15559   8.084  -0.249   9.878 -2.1137 -1.1549 -1.5966
  856MOL0     H15560   8.149  -0.088   9.843  1.6032 -1.7364  1.7352
  857MOL0     O15561  10.980   9.324   3.211 -0.3579 -0.6483  0.0167
  857MOL0     C15562  11.000   9.219   3.158  0.2169  0.1853 -0.2577
  857MOL0     O15563  10.977   9.204   3.023 -0.3072  0.1871  0.1133
  857MOL0     C15564  10.970   9.312   2.939 -0.6716 -0.7143 -0.1132
  857MOL0     C15565  10.877   9.414   2.946 -0.9234 -0.0902 -0.0102
  857MOL0     C15566  10.893   9.518   2.860  0.7438  0.2530  0.6994
  857MOL0     C15567  10.990   9.520   2.754  0.1665  0.7834 -0.5142
  857MOL0     O15568  11.008   9.622   2.655 -0.3537  0.4231  0.3730
  857MOL0     C15569  10.906   9.723   2.657 -0.8701 -0.0509  0.6288
  857MOL0     C15570  10.941   9.823   2.533  0.0258  0.5956  0.1297
  857MOL0     C15571  11.089   9.866   2.534 -0.2227  0.0521  0.5008
  857MOL0     C15572  11.107   9.976   2.642 -0.1153  0.2284  0.2459
  857MOL0     C15573  11.259   9.988   2.668  0.3563  1.0594  0.5877
  857MOL0     C15574  11.298  10.099   2.768  0.5274 -0.6225 -0.0071
  857MOL0     C15575  11.450  10.119   2.781 -0.3969  0.7243 -0.1832
  857MOL0     C15576  11.478  10.243   2.870 -0.2109 -0.6137 -0.7782
  857MOL0     N15577  11.425  10.227   3.016 -0.6355 -0.1730  0.4146
  857MOL0     C15578  11.310  10.278   3.063 -0.2295 -1.1321  0.4695
  857MOL0     C15579  11.318  10.245   3.192  0.4926 -0.4663 -1.0432
  857MOL0     C15580  11.220  10.287   3.296  0.1496  0.2203  0.2965
  857MOL0     C15581  11.152  10.157   3.335  1.1463  0.3737  0.4220
  857MOL0     C15582  11.057  10.182   3.455 -1.0923  0.0306  0.1678
  857MOL0     C15583  11.009  10.061   3.518  0.7933  0.4362 -0.9637
  857MOL0     O15584  10.908  10.086   3.621 -0.7244  1.1478 -1.1657
  857MOL0     C15585  10.950  10.159   3.727 -0.1553 -0.2828 -0.4035
  857MOL0     C15586  10.907  10.293   3.739  0.4675  0.6513  0.3948
  857MOL0     C15587  10.968  10.380   3.837 -0.8344  0.1188  0.4015
  857MOL0     C15588  11.063  10.331   3.921 -0.2516  0.0980 -0.1819
  857MOL0     C15589  11.123  10.422   4.018 -0.4483 -0.6994  0.0073
  857MOL0     O15590  11.055  10.541   4.045 -0.0934  0.6853  0.1588
  857MOL0     C15591  11.098  10.619   4.152  0.6743 -0.9332 -0.6571
  857MOL0     C15592  11.120  10.568   4.284  0.1353 -0.6661  0.5046
  857MOL0     C15593  11.150  10.643   4.389  0.7188  0.0151 -0.2823
  857MOL0     C15594  11.162  10.784   4.381  0.0496 -0.2886 -0.1649
  857MOL0     O15595  11.182  10.875   4.478  0.2035  0.0591 -0.2967
  857MOL0     C15596  11.256  10.839   4.592 -0.1236  0.9793  0.3538
  857MOL0     C15597  11.267  10.953   4.699 -0.4569  0.9865  0.5748
  857MOL0     C15598  11.372  10.895   4.796 -0.3992 -0.6509 -0.5322
  857MOL0     C15599  11.408  11.015   4.892 -0.2588 -0.2343  0.3562
  857MOL0     C15600  11.506  10.976   4.997 -0.1433  0.0169  0.1496
  857MOL0     C15601  11.481  11.063   5.120 -0.5398  0.2609 -0.4941
  857MOL0     C15602  11.349  11.023   5.192  0.5118 -0.2541 -1.2517
  857MOL0     C15603  11.319  11.108   5.307  0.2162  0.2493 -0.2878
  857MOL0    Cl15604  11.184  11.046   5.394 -0.1352  0.6090  0.5076
  857MOL0     C15605  11.130  10.831   4.254  0.1250 -0.9769 -0.0750
  857MOL0     C15606  11.108  10.756   4.138 -0.5427 -0.3524 -0.6473
  857MOL0     O15607  11.234  10.396   4.053  0.4694  0.1387  0.3256
  857MOL0     C15608  11.105  10.193   3.907 -0.8793 -0.3107  0.4687
  857MOL0     C15609  11.054  10.116   3.810 -0.1784 -0.2727  0.8329
  857MOL0     N15610  11.432  10.175   3.220 -0.0006  0.7965  0.4732
  857MOL0     N15611  11.508  10.173   3.118 -0.2467 -0.5713  0.2950
  857MOL0     C15612  11.072   9.406   2.744  0.0570 -0.1461 -0.0619
  857MOL0     C15613  11.070   9.304   2.839  0.2416 -0.1838 -0.4009
  857MOL0     C15614  11.053   9.100   3.240  0.3344 -0.1853 -1.2294
  857MOL0     C15615  11.076   9.131   3.376  0.0799  0.2070 -1.0301
  857MOL0     C15616  11.112   9.032   3.469  0.7071  1.1910  0.5222
  857MOL0     C15617  11.125   8.903   3.437 -0.2493  0.2545 -0.0352
  857MOL0     O15618  11.155   8.814   3.532  0.9762 -0.6129 -0.3569
  857MOL0     C15619  11.291   8.793   3.540 -0.5909 -0.4520  0.5230
  857MOL0     C15620  11.322   8.655   3.589  0.6244 -0.3319 -0.3703
  857MOL0     C15621  11.251   8.603   3.706 -0.0641 -0.1648 -0.4696
  857MOL0     C15622  11.231   8.694   3.822 -0.6327 -0.7210 -0.2802
  857MOL0     C15623  11.188   8.615   3.938  0.6494 -0.2127 -0.2724
  857MOL0     C15624  11.165   8.559   4.036  0.2775  0.0521 -0.2705
  857MOL0     C15625  11.092   8.863   3.311 -0.0019  0.8210  0.9979
  857MOL0     C15626  11.060   8.961   3.205  0.1726 -0.5904  0.2001
  857MOL0     C15627  11.022   8.905   3.067  0.5305  0.9363  0.4091
  857MOL0     H15628  10.803   9.401   3.024 -1.0664 -1.2850 -0.3260
  857MOL0     H15629  10.840   9.611   2.881 -1.2177 -0.1136 -2.2254
  857MOL0     H15630  10.807   9.675   2.658  1.0964 -4.6142  1.3920
  857MOL0     H15631  10.919   9.785   2.746  1.5019 -1.0028  1.0068
  857MOL0     H15632  10.885   9.917   2.531  0.3466  0.7815 -0.0693
  857MOL0     H15633  10.900   9.771   2.446 -0.2878 -0.2126  0.7502
  857MOL0     H15634  11.119   9.905   2.437  0.8772 -0.5965  0.5655
  857MOL0     H15635  11.148   9.774   2.541 -0.5897 -0.4872 -2.3773
  857MOL0     H15636  11.063  10.068   2.603  0.7085  0.6543  0.3178
  857MOL0     H15637  11.057   9.937   2.732  1.5368 -1.9095  0.3284
  857MOL0     H15638  11.294   9.891   2.704  0.3101  1.7475  2.6185
  857MOL0     H15639  11.305  10.010   2.572 -0.6860 -0.3086 -0.2574
  857MOL0     H15640  11.256  10.196   2.738  1.2546 -0.3619 -0.2183
  857MOL0     H15641  11.270  10.083   2.872  0.7801  0.4100  0.2327
  857MOL0     H15642  11.503  10.126   2.686 -0.1838 -2.4929 -0.4226
  857MOL0     H15643  11.502  10.040   2.837  2.3057  4.3180  2.8819
  857MOL0     H15644  11.587  10.256   2.875 -0.4470  1.3700  0.5327
  857MOL0     H15645  11.433  10.334   2.830 -2.0504 -0.9304  0.4520
  857MOL0     H15646  11.227  10.327   3.012  0.0461 -1.7742 -0.6075
  857MOL0     H15647  11.281  10.320   3.381 -0.1879  0.0024  0.6274
  857MOL0     H15648  11.153  10.364   3.256 -0.9484 -0.0185  1.5965
  857MOL0     H15649  11.098  10.133   3.243 -1.5275  1.0744  1.7143
  857MOL0     H15650  11.219  10.071   3.350  0.6871 -0.0879 -0.1173
  857MOL0     H15651  10.972  10.238   3.415  1.1457  2.4883 -1.5132
  857MOL0     H15652  11.103  10.234   3.539  0.4106 -0.4440 -0.3325
  857MOL0     H15653  11.093  10.009   3.566  0.8098  0.8572 -0.5263
  857MOL0     H15654  10.955   9.996   3.448 -1.5935  4.1096 -2.8369
  857MOL0     H15655  10.832  10.321   3.666  2.2911  0.8379 -1.4788
  857MOL0     H15656  10.941  10.484   3.825 -0.9373  0.2757  1.8224
  857MOL0     H15657  11.106  10.461   4.272 -2.7483 -0.2762 -0.4088
  857MOL0     H15658  11.159  10.605   4.491  0.9837  0.9056  0.0348
  857MOL0     H15659  11.197  10.759   4.638  0.1442 -1.7849 -3.6039
  857MOL0     H15660  11.355  10.802   4.564  0.0404  1.4698  0.2618
  857MOL0     H15661  11.317  11.038   4.651  3.3783 -0.3844  1.7274
  857MOL0     H15662  11.176  10.975   4.754 -1.2653 -0.0397 -0.2984
  857MOL0     H15663  11.329  10.811   4.851 -2.8504 -0.9493 -2.7118
  857MOL0     H15664  11.466  10.879   4.743  0.2643  2.4457 -0.4774
  857MOL0     H15665  11.316  11.052   4.939  0.7658  1.0623  1.3904
  857MOL0     H15666  11.445  11.094   4.825  0.5044 -0.5710  0.3770
  857MOL0     H15667  11.607  10.999   4.963  0.4063 -3.5555 -1.0324
  857MOL0     H15668  11.500  10.871   5.025  1.4366  0.1645  1.1764
  857MOL0     H15669  11.564  11.036   5.186  0.6154 -2.0598 -2.7408
  857MOL0     H15670  11.489  11.170   5.100 -1.2405  0.0721 -1.9154
  857MOL0     H15671  11.354  10.920   5.230 -2.6029 -0.8642 -2.2159
  857MOL0     H15672  11.263  11.024   5.123  0.0192  0.8143 -0.6336
  857MOL0     H15673  11.394  11.108   5.386 -1.9803 -0.3291  1.9176
  857MOL0     H15674  11.297  11.211   5.276 -1.2213 -0.1896 -0.8423
  857MOL0     H15675  11.141  10.939   4.243 -1.2737 -0.6220  1.5408
  857MOL0     H15676  11.105  10.798   4.038  2.4421  1.6383 -0.0199
  857MOL0     H15677  11.181  10.169   3.981 -1.5474 -4.3221  0.0898
  857MOL0     H15678  11.091  10.017   3.787  1.8329  0.6467 -0.1823
  857MOL0     H15679  11.135   9.400   2.656  1.9814  1.2084  1.1244
  857MOL0     H15680  11.133   9.216   2.839  0.5806  0.0372 -1.6940
  857MOL0     H15681  11.061   9.233   3.410  1.5496  0.5505 -1.3205
  857MOL0     H15682  11.136   9.048   3.574  1.8470  1.5754  0.2182
  857MOL0     H15683  11.337   8.862   3.612  1.2349 -0.4023 -0.6349
  857MOL0     H15684  11.337   8.819   3.444  0.0964  4.3819  1.8900
  857MOL0     H15685  11.430   8.650   3.606  0.7942  2.2443 -0.3673
  857MOL0     H15686  11.291   8.599   3.500 -3.8775  0.4643  0.5072
  857MOL0     H15687  11.331   8.534   3.736  3.1018  2.7316 -1.5276
  857MOL0     H15688  11.159   8.552   3.677  1.0158 -1.1566 -2.3710
  857MOL0     H15689  11.327   8.741   3.846 -1.5224  0.4046  1.3062
  857MOL0     H15690  11.150   8.765   3.803  3.0238  3.6344 -1.4789
  857MOL0     H15691  11.142   8.525   4.135 -0.3698  0.7729 -0.1669
  857MOL0     H15692  11.088   8.755   3.298 -1.6567  0.6681  2.3321
  857MOL0     H15693  11.074   8.963   2.990  1.6400  2.8541  2.4730
  857MOL0     H15694  11.061   8.803   3.061  0.0771  0.6253  2.1860
  857MOL0     H15695  10.919   8.899   3.032  0.2543  2.7509  0.8251
  858MOL0     O15696   6.390  10.963  11.123 -1.0542 -0.8523  0.2450
  858MOL0     C15697   6.497  11.017  11.125 -0.9170  0.2846  0.6930
  858MOL0     O15698   6.528  11.100  11.232 -0.3450  0.1919 -0.2686
  858MOL0     C15699   6.430  11.120  11.330  0.6139 -0.5108  0.4778
  858MOL0     C15700   6.396  11.024  11.433  0.0634 -0.8015  0.9905
  858MOL0     C15701   6.285  11.052  11.518  0.1172  0.3771  0.0237
  858MOL0     C15702   6.222  11.176  11.519 -0.4462 -0.2233  0.2986
  858MOL0     O15703   6.136  11.200  11.619  1.2104 -0.0997 -0.7976
  858MOL0     C15704   6.198  11.301  11.708  0.2825  0.9185  0.2906
  858MOL0     C15705   6.105  11.316  11.831 -0.0044  0.3134  0.3336
  858MOL0     C15706   6.001  11.435  11.813  0.5269  1.0423 -0.2544
  858MOL0     C15707   5.868  11.418  11.879 -0.0330  1.2319 -0.2023
  858MOL0     C15708   5.820  11.539  11.960  0.0971 -0.0850  0.5850
  858MOL0     C15709   5.909  11.567  12.083  1.9072  0.3521 -0.3183
  858MOL0     C15710   5.927  11.713  12.121 -0.5027 -0.2066 -1.1776
  858MOL0     C15711   5.997  11.784  12.006 -0.1882  0.5357  0.0781
  858MOL0     N15712   6.038  11.921  12.038 -0.2780  0.2448 -0.4799
  858MOL0     C15713   6.152  11.960  12.121  0.3482 -0.3806  0.4911
  858MOL0     C15714   6.145  12.096  12.097 -0.5604 -0.4198 -0.6481
  858MOL0     C15715   6.230  12.202  12.164 -0.5127  0.5347  0.1453
  858MOL0     C15716   6.154  12.287  12.273 -0.2796  0.8658  0.9128
  858MOL0     C15717   6.141  12.207  12.402  0.7722 -0.0306 -0.6156
  858MOL0     C15718   6.038  12.272  12.497 -0.5663  0.2632  0.2088
  858MOL0     O15719   6.109  12.387  12.565 -0.1172 -0.1699  0.0553
  858MOL0     C15720   6.048  12.472  12.662  0.4088  0.3043  0.3077
  858MOL0     C15721   5.914  12.495  12.668 -0.2749 -0.4983 -0.6685
  858MOL0     C15722   5.852  12.579  12.748  0.1425 -0.6622  0.2343
  858MOL0     C15723   5.924  12.681  12.820  1.4559  0.2318 -0.6997
  858MOL0     C15724   5.850  12.800  12.880 -0.6681 -0.1203 -0.5285
  858MOL0     O15725   5.713  12.795  12.889  0.9170 -0.2612  0.2687
  858MOL0     C15726   5.641  12.897  12.950 -0.8103  0.4834 -0.3213
  858MOL0     C15727   5.634  13.023  12.894 -0.6910 -0.2190  1.1015
  858MOL0     C15728   5.556  13.124  12.947 -0.3832  0.2191  0.2897
  858MOL0     C15729   5.499  13.109  13.077 -0.6134  0.0975 -0.1626
  858MOL0     O15730   5.447  13.210  13.149  1.0076  0.4329 -0.4877
  858MOL0     C15731   5.320  13.258  13.098 -0.6593  0.5683  0.4346
  858MOL0     C15732   5.267  13.346  13.207  0.6704  0.2215  0.6493
  858MOL0     C15733   5.182  13.457  13.134  0.1530  0.0275  0.7850
  858MOL0     C15734   5.091  13.530  13.230  0.4084 -1.3596 -0.2976
  858MOL0     C15735   5.026  13.658  13.176  0.4001 -0.2199 -0.3009
  858MOL0     C15736   4.877  13.633  13.154 -0.3284  0.2161  0.1762
  858MOL0     C15737   4.786  13.752  13.132  0.1766  0.2075 -0.0954
  858MOL0     C15738   4.729  13.802  13.260  0.3503 -0.0842 -0.5388
  858MOL0    Cl15739   4.682  13.971  13.250  0.0577  0.4321  0.0064
  858MOL0     C15740   5.498  12.977  13.138  1.0967 -0.1279 -0.1356
  858MOL0     C15741   5.571  12.875  13.070 -0.2756  0.6210 -1.3490
  858MOL0     O15742   5.923  12.873  12.946  0.1975 -0.0434  0.1483
  858MOL0     C15743   6.066  12.657  12.820 -0.4697 -0.1245  0.2269
  858MOL0     C15744   6.132  12.552  12.747 -0.2201  0.2422 -0.4382
  858MOL0     N15745   6.040  12.132  12.020 -0.1085  1.0089  0.4073
  858MOL0     N15746   5.974  12.028  11.984  0.3047 -0.0785 -0.2493
  858MOL0     C15747   6.266  11.282  11.428  0.1954  0.4662 -0.8348
  858MOL0     C15748   6.363  11.244  11.334  0.5594 -0.8198 -1.2177
  858MOL0     C15749   6.613  10.996  11.023 -0.4461  0.6987  0.3206
  858MOL0     C15750   6.734  11.057  11.041  0.0599  0.8580 -0.8483
  858MOL0     C15751   6.841  11.032  10.963 -0.2854 -0.7090 -0.0242
  858MOL0     C15752   6.840  10.941  10.863  0.7306 -0.8024  0.0121
  858MOL0     O15753   6.947  10.893  10.789  0.7950 -0.7259  0.0805
  858MOL0     C15754   7.081  10.928  10.821  0.4579  0.5079  0.4821
  858MOL0     C15755   7.177  10.863  10.724 -0.4522 -0.3411  0.6558
  858MOL0     C15756   7.299  10.957  10.711 -0.1961 -0.7533  0.2483
  858MOL0     C15757   7.412  10.901  10.636  0.4185 -0.0096 -0.1012
  858MOL0     C15758   7.386  10.834  10.507  0.1190  0.2787 -0.8380
  858MOL0     C15759   7.368  10.781  10.397 -0.4579  1.2164 -0.5583
  858MOL0     C15760   6.718  10.878  10.837 -0.4792 -0.3548  0.1637
  858MOL0     C15761   6.602  10.906  10.910  1.4025  0.1460 -0.2194
  858MOL0     C15762   6.471  10.830  10.875  0.0274  0.4281  0.0512
  858MOL0     H15763   6.435  10.923  11.431  0.0767 -0.9640 -4.4286
  858MOL0     H15764   6.243  10.970  11.576 -0.5942  0.5329 -0.2663
  858MOL0     H15765   6.297  11.274  11.746  0.9958 -0.2701 -2.2073
  858MOL0     H15766   6.218  11.396  11.659  0.1906  0.6824 -0.2057
  858MOL0     H15767   6.159  11.337  11.924 -0.5872  1.0084  0.5250
  858MOL0     H15768   6.054  11.221  11.848 -0.2394  0.0649 -1.5471
  858MOL0     H15769   5.977  11.467  11.712  0.1341 -0.6097 -0.7111
  858MOL0     H15770   6.062  11.509  11.866  0.7444 -0.4725  1.7593
  858MOL0     H15771   5.790  11.383  11.810  0.1105 -4.0536  1.8920
  858MOL0     H15772   5.878  11.327  11.938  1.9609  1.2823 -0.3973
  858MOL0     H15773   5.821  11.633  11.905  0.4242 -0.5232 -0.1648
  858MOL0     H15774   5.715  11.525  11.989  0.5850 -0.3440  2.3790
  858MOL0     H15775   5.856  11.521  12.166  1.8131 -0.0869 -0.6207
  858MOL0     H15776   6.006  11.517  12.085  2.5704  1.5929 -0.1576
  858MOL0     H15777   5.985  11.724  12.213 -2.2820 -0.0501 -0.0176
  858MOL0     H15778   5.834  11.769  12.131  0.6847  1.6364  0.4022
  858MOL0     H15779   6.087  11.724  11.993 -0.1581 -0.4870  3.8864
  858MOL0     H15780   5.933  11.787  11.917  0.8952 -1.2772 -0.7959
  858MOL0     H15781   6.226  11.900  12.174  0.8182  0.0219  0.3000
  858MOL0     H15782   6.326  12.167  12.203 -0.7517 -0.5139 -0.1786
  858MOL0     H15783   6.252  12.267  12.079  0.0037 -2.3647 -2.0731
  858MOL0     H15784   6.203  12.384  12.284  1.9056  0.3271 -2.4542
  858MOL0     H15785   6.058  12.301  12.222  0.7130 -0.1275 -1.3690
  858MOL0     H15786   6.238  12.217  12.452 -1.1145  2.7919  2.9346
  858MOL0     H15787   6.131  12.098  12.393  0.1351  0.0619 -1.0485
  858MOL0     H15788   6.005  12.209  12.580 -2.7475  1.9528  0.7098
  858MOL0     H15789   5.954  12.307  12.437  0.9204 -1.9450 -3.5286
  858MOL0     H15790   5.859  12.423  12.609  0.8733 -2.5567  0.6358
  858MOL0     H15791   5.744  12.590  12.749  0.3012  2.1840  2.7553
  858MOL0     H15792   5.688  13.050  12.804  1.6502 -1.1254  2.1584
  858MOL0     H15793   5.558  13.222  12.900  4.3439  1.6835  2.9251
  858MOL0     H15794   5.337  13.308  13.002  0.3989 -2.7052 -1.2359
  858MOL0     H15795   5.253  13.172  13.088  0.5072 -0.8932  3.8209
  858MOL0     H15796   5.213  13.286  13.280 -1.2207 -0.2880 -1.1011
  858MOL0     H15797   5.360  13.391  13.243  2.6047 -2.1413 -1.0223
  858MOL0     H15798   5.254  13.530  13.095  0.0408 -0.3093 -0.0762
  858MOL0     H15799   5.116  13.419  13.055 -0.8769  2.1852  0.5347
  858MOL0     H15800   5.147  13.548  13.322 -2.5726 -0.3689  1.4883
  858MOL0     H15801   5.019  13.455  13.265  3.0385 -2.8629  2.2656
  858MOL0     H15802   5.074  13.701  13.087 -1.7514  0.1945 -1.3089
  858MOL0     H15803   5.026  13.738  13.251 -0.6674 -0.1000 -0.4236
  858MOL0     H15804   4.863  13.581  13.059 -0.9482  0.1384  0.3024
  858MOL0     H15805   4.843  13.573  13.240 -2.0202  1.0736  0.1423
  858MOL0     H15806   4.699  13.731  13.068  0.2560  1.1704 -0.5373
  858MOL0     H15807   4.838  13.837  13.086  0.2347 -0.7379 -1.8506
  858MOL0     H15808   4.645  13.735  13.282  1.6388 -1.4571  0.4239
  858MOL0     H15809   4.808  13.790  13.334 -0.5971  1.8592  0.8693
  858MOL0     H15810   5.452  12.952  13.234  0.5470  0.4185 -0.2535
  858MOL0     H15811   5.575  12.785  13.131 -2.6120  2.1325  1.2442
  858MOL0     H15812   6.130  12.728  12.872 -0.6841  1.4048 -1.4612
  858MOL0     H15813   6.240  12.542  12.734  0.0354  1.4860  0.5283
  858MOL0     H15814   6.208  11.372  11.442 -3.7428 -1.7726 -1.1693
  858MOL0     H15815   6.388  11.300  11.245  4.0124 -0.7146 -0.3248
  858MOL0     H15816   6.753  11.093  11.141 -0.3963 -0.2782 -0.3292
  858MOL0     H15817   6.936  11.073  10.993 -0.8680  0.1546  0.6838
  858MOL0     H15818   7.110  10.907  10.924  3.1238 -1.7022 -0.6039
  858MOL0     H15819   7.093  11.037  10.815 -1.4528  0.8315  1.6676
  858MOL0     H15820   7.126  10.851  10.628  0.0311  0.2254  0.3310
  858MOL0     H15821   7.203  10.763  10.760  4.5671  1.1428  1.9260
  858MOL0     H15822   7.327  10.986  10.813 -0.1728  0.8743 -0.1979
  858MOL0     H15823   7.276  11.051  10.661  2.4356 -0.1762 -0.0090
  858MOL0     H15824   7.472  10.989  10.613  0.0974 -0.0606 -1.1961
  858MOL0     H15825   7.468  10.827  10.694  1.0282 -0.9425 -1.8038
  858MOL0     H15826   7.322  10.728  10.316  3.1276  0.6806 -2.4636
  858MOL0     H15827   6.722  10.804  10.759 -0.1220  1.1092 -1.2659
  858MOL0     H15828   6.382  10.890  10.897  0.2392  1.5804 -2.0049
  858MOL0     H15829   6.465  10.807  10.769 -2.9921  2.6357 -0.3810
  858MOL0     H15830   6.464  10.735  10.928 -0.0985 -1.9052 -3.8333
  859MOL0     O15831   3.183   1.845   8.103 -0.1844  0.2217  0.1071
  859MOL0     C15832   3.286   1.778   8.127 -0.6830 -0.3200  0.4177
  859MOL0     O15833   3.361   1.804   8.236  0.1883 -0.0395  0.0413
  859MOL0     C15834   3.307   1.853   8.355  0.4753 -0.2665 -1.2074
  859MOL0     C15835   3.327   1.783   8.472  0.2785  0.3520  0.1220
  859MOL0     C15836   3.273   1.822   8.595 -0.5098  0.5173  1.4113
  859MOL0     C15837   3.211   1.945   8.607 -0.2536  0.5773  0.1452
  859MOL0     O15838   3.166   1.991   8.725  0.4780  0.4112 -0.5516
  859MOL0     C15839   3.029   2.034   8.741 -0.3020  0.3790  0.8893
  859MOL0     C15840   3.001   2.037   8.888 -0.1442 -0.2785 -0.5363
  859MOL0     C15841   3.086   2.147   8.955  0.3534  1.2084 -0.5395
  859MOL0     C15842   3.041   2.222   9.079 -0.0168  0.0893  0.3655
  859MOL0     C15843   3.098   2.367   9.071 -1.3522 -0.2261 -0.1680
  859MOL0     C15844   3.251   2.363   9.102 -0.1222  1.0204  0.6446
  859MOL0     C15845   3.294   2.511   9.114  0.2864 -0.6212  0.4187
  859MOL0     C15846   3.244   2.596   9.002  0.1368 -0.2762  0.6478
  859MOL0     N15847   3.336   2.713   8.998 -0.4568 -0.1218 -0.0487
  859MOL0     C15848   3.342   2.811   9.091  0.0715  0.1076 -1.0384
  859MOL0     C15849   3.426   2.896   9.033  0.7347  0.1851  1.0305
  859MOL0     C15850   3.465   3.030   9.090 -0.1098  0.2631 -0.2880
  859MOL0     C15851   3.394   3.155   9.046  0.3485  0.3774 -0.2573
  859MOL0     C15852   3.241   3.153   9.032 -0.2671  0.5346 -1.0185
  859MOL0     C15853   3.162   3.104   9.160  1.2414  0.6851 -0.4111
  859MOL0     O15854   3.030   3.164   9.140 -0.5446 -0.6880  0.1210
  859MOL0     C15855   2.950   3.187   9.247  0.8179  0.9544 -0.9924
  859MOL0     C15856   2.951   3.104   9.363  0.4530  0.3495 -0.3449
  859MOL0     C15857   2.842   3.108   9.458 -0.0089 -0.0663  0.2252
  859MOL0     C15858   2.726   3.174   9.419  0.0459 -0.1574 -0.5538
  859MOL0     C15859   2.599   3.147   9.489 -0.5235 -0.9724  0.9086
  859MOL0     O15860   2.589   3.040   9.573 -0.5072 -0.2946 -0.0486
  859MOL0     C15861   2.465   3.040   9.630 -1.1103  0.6821 -0.2235
  859MOL0     C15862   2.377   2.944   9.586 -0.4813 -1.0765  0.0197
  859MOL0     C15863   2.251   2.934   9.638  0.3059 -0.3310 -0.6163
  859MOL0     C15864   2.203   3.020   9.737 -0.5113 -0.1219 -0.8854
  859MOL0     O15865   2.080   3.026   9.795  0.6715 -0.2457 -0.7845
  859MOL0     C15866   1.973   2.944   9.730 -0.6096  0.3173  0.0764
  859MOL0     C15867   1.907   3.008   9.609  0.7183  0.4636 -0.4019
  859MOL0     C15868   1.862   3.152   9.641  0.2241 -0.0421  0.9115
  859MOL0     C15869   1.727   3.175   9.705  0.7827 -0.5001  0.4079
  859MOL0     C15870   1.708   3.332   9.726  0.2855 -0.1495  0.1319
  859MOL0     C15871   1.562   3.355   9.773 -0.6089 -0.0954  0.0889
  859MOL0     C15872   1.535   3.287   9.906 -0.1084  0.0155  0.2098
  859MOL0     C15873   1.401   3.331   9.978 -0.3494  0.6422  0.5434
  859MOL0    Cl15874   1.267   3.215   9.956  0.0273  0.0148 -0.2068
  859MOL0     C15875   2.287   3.108   9.788 -1.4286 -0.3889 -0.2204
  859MOL0     C15876   2.425   3.113   9.743 -0.1183 -0.5776 -1.1941
  859MOL0     O15877   2.504   3.231   9.458  0.5496  0.1656  0.3549
  859MOL0     C15878   2.736   3.265   9.313  0.6646 -0.1481  0.2806
  859MOL0     C15879   2.843   3.269   9.219 -1.1924 -0.1311 -0.4335
  859MOL0     N15880   3.474   2.850   8.907  0.1776  0.6669 -0.3057
  859MOL0     N15881   3.425   2.725   8.886  0.8838  0.0172 -0.5007
  859MOL0     C15882   3.194   2.027   8.492  0.6635 -1.0237  0.5556
  859MOL0     C15883   3.234   1.972   8.367  0.9597 -0.2169  0.1134
  859MOL0     C15884   3.344   1.686   8.017 -0.5248  0.8532 -0.7533
  859MOL0     C15885   3.462   1.610   8.049  0.0852 -0.0908 -0.6690
  859MOL0     C15886   3.512   1.511   7.973 -0.2019 -0.2410 -0.5914
  859MOL0     C15887   3.436   1.467   7.856  0.1815 -0.0851  0.1774
  859MOL0     O15888   3.486   1.359   7.778  0.0083  0.2303 -0.1813
  859MOL0     C15889   3.408   1.299   7.671 -0.7038 -0.5397 -0.5630
  859MOL0     C15890   3.402   1.143   7.692  0.3964  0.6474  0.6531
  859MOL0     C15891   3.379   1.053   7.562 -0.5393  0.7107  0.2584
  859MOL0     C15892   3.252   0.958   7.559  0.0745 -0.4376 -0.4707
  859MOL0     C15893   3.227   0.905   7.433 -0.1122  1.5076 -1.1784
  859MOL0     C15894   3.217   0.876   7.318 -0.0798  0.2307 -0.3274
  859MOL0     C15895   3.324   1.547   7.824  1.0802 -0.3203 -0.1636
  859MOL0     C15896   3.274   1.653   7.901 -0.6957  0.5305  0.2158
  859MOL0     C15897   3.161   1.729   7.845  0.2969 -0.3319  0.3959
  859MOL0     H15898   3.383   1.691   8.470 -0.1915  0.0606  0.2193
  859MOL0     H15899   3.265   1.764   8.686 -0.4591 -2.0988 -0.1296
  859MOL0     H15900   3.017   2.129   8.689  0.1236  0.0168  0.1195
  859MOL0     H15901   2.981   1.947   8.696  2.5349 -1.3440  0.9623
  859MOL0     H15902   3.027   1.943   8.937 -0.1733 -1.0422 -1.9336
  859MOL0     H15903   2.896   2.054   8.915  0.3834 -1.6102  2.8379
  859MOL0     H15904   3.105   2.229   8.884 -4.2151  2.8641 -0.1966
  859MOL0     H15905   3.185   2.108   8.983  0.4240 -1.1125 -3.5107
  859MOL0     H15906   2.932   2.230   9.091 -0.4423 -1.1012 -2.0619
  859MOL0     H15907   3.083   2.168   9.164 -1.9362 -1.7614  0.2282
  859MOL0     H15908   3.066   2.400   8.971 -0.9529 -1.0235 -0.5682
  859MOL0     H15909   3.043   2.433   9.138 -2.4002 -0.5564 -0.6757
  859MOL0     H15910   3.258   2.306   9.195 -0.8770  1.1694  0.7976
  859MOL0     H15911   3.304   2.314   9.020  1.3561  1.3350  1.3698
  859MOL0     H15912   3.403   2.505   9.116  0.4632  0.8377 -1.6675
  859MOL0     H15913   3.255   2.546   9.210 -0.5427 -4.8590  1.8476
  859MOL0     H15914   3.248   2.536   8.910 -3.3217 -2.4483  1.7109
  859MOL0     H15915   3.139   2.624   9.013 -0.9584 -3.8719  0.9424
  859MOL0     H15916   3.286   2.808   9.184  2.4286 -0.0122  0.4438
  859MOL0     H15917   3.460   3.023   9.199  0.3912  0.1807 -0.2676
  859MOL0     H15918   3.568   3.039   9.055 -0.4463 -1.0744 -1.7371
  859MOL0     H15919   3.437   3.238   9.102  1.4998  0.6394 -1.4813
  859MOL0     H15920   3.442   3.167   8.949  2.5590  0.1892  0.7677
  859MOL0     H15921   3.209   3.083   8.955 -1.9933 -3.3266  2.7956
  859MOL0     H15922   3.203   3.253   9.009  0.3198  0.8489 -0.6789
  859MOL0     H15923   3.217   3.132   9.250  3.4632 -1.2967 -1.0520
  859MOL0     H15924   3.148   2.996   9.157  1.9572  0.5690  0.2834
  859MOL0     H15925   3.028   3.028   9.369 -1.6647 -1.9466 -0.7731
  859MOL0     H15926   2.847   3.035   9.538  0.6068 -1.4227 -0.9978
  859MOL0     H15927   2.405   2.880   9.503 -2.9368 -2.1016 -0.1025
  859MOL0     H15928   2.176   2.877   9.585  0.1821 -1.7123  0.9705
  859MOL0     H15929   1.997   2.837   9.723  0.7084  0.5723  0.5627
  859MOL0     H15930   1.893   2.933   9.804 -0.3338 -1.3760  0.1830
  859MOL0     H15931   1.971   3.010   9.520  1.5818  0.0417  0.2039
  859MOL0     H15932   1.805   2.969   9.603  0.7807  0.0280  1.0967
  859MOL0     H15933   1.932   3.209   9.703 -0.9109 -0.2014  2.3773
  859MOL0     H15934   1.855   3.210   9.548 -2.5985 -1.5320  0.0791
  859MOL0     H15935   1.722   3.124   9.801  0.4376 -0.2488  0.5286
  859MOL0     H15936   1.652   3.137   9.634  1.1791  2.8687 -2.0670
  859MOL0     H15937   1.723   3.389   9.634 -3.3274 -2.4751 -2.1664
  859MOL0     H15938   1.777   3.380   9.796  0.0140  2.6982 -1.4252
  859MOL0     H15939   1.561   3.462   9.797  0.9892  0.2507 -1.1978
  859MOL0     H15940   1.499   3.327   9.688 -2.2220  1.3077  0.7565
  859MOL0     H15941   1.618   3.318   9.970  0.5126 -0.0240 -0.5653
  859MOL0     H15942   1.545   3.179   9.902 -1.4472 -0.1530  0.8323
  859MOL0     H15943   1.436   3.338  10.081  2.5181 -3.1733  0.0408
  859MOL0     H15944   1.376   3.436   9.957 -1.3837  0.4607  0.8470
  859MOL0     H15945   2.256   3.176   9.867  1.1083  0.7508 -0.1287
  859MOL0     H15946   2.477   3.199   9.785 -0.7475 -0.8467  0.1615
  859MOL0     H15947   2.650   3.329   9.293  0.3083 -1.1806 -1.8031
  859MOL0     H15948   2.824   3.338   9.137  0.2086  3.7151  2.1992
  859MOL0     H15949   3.143   2.122   8.500 -1.0050 -2.0291  3.9226
  859MOL0     H15950   3.217   2.022   8.273  0.0920  1.5194  1.1323
  859MOL0     H15951   3.509   1.640   8.142 -3.6797  1.2087  1.0266
  859MOL0     H15952   3.603   1.456   7.994  0.5788 -0.8834 -4.6962
  859MOL0     H15953   3.458   1.329   7.580 -2.2300  1.6429 -0.7545
  859MOL0     H15954   3.306   1.339   7.670 -0.5086  0.0196  0.5649
  859MOL0     H15955   3.329   1.116   7.768  0.4987 -1.2635  0.1132
  859MOL0     H15956   3.498   1.111   7.735  0.4935 -0.3973 -0.3123
  859MOL0     H15957   3.468   0.992   7.540 -1.3498  0.4403 -2.6962
  859MOL0     H15958   3.361   1.128   7.485 -0.2789 -0.6145 -1.1428
  859MOL0     H15959   3.266   0.879   7.633 -0.3438  1.0342  1.2339
  859MOL0     H15960   3.171   1.027   7.585  0.5823  0.6809 -1.7411
  859MOL0     H15961   3.194   0.833   7.223  1.3977  0.2816 -0.7320
  859MOL0     H15962   3.268   1.533   7.732 -2.0308 -5.5408  2.0749
  859MOL0     H15963   3.151   1.830   7.886 -1.2891  0.5026 -1.8309
  859MOL0     H15964   3.171   1.741   7.737 -0.5340  0.8359  0.4206
  859MOL0     H15965   3.075   1.664   7.864  0.0392  0.3130  1.5356
  860MOL0     O15966  10.112   0.259   1.997 -0.2802 -0.4254  0.0478
  860MOL0     C15967  10.233   0.299   2.004  0.3061  0.5953 -0.8528
  860MOL0     O15968  10.338   0.229   1.975  0.0712 -0.1889  0.2290
  860MOL0     C15969  10.329   0.087   1.977  0.3679 -0.4442 -0.4543
  860MOL0     C15970  10.304   0.006   1.870  0.2822  0.3438  0.1636
  860MOL0     C15971  10.322  -0.133   1.883 -0.0131 -0.0025 -0.8705
  860MOL0     C15972  10.352  -0.200   2.004  0.2469  0.7815 -0.1430
  860MOL0     O15973  10.326  -0.331   2.021  0.7230 -0.5521 -0.2731
  860MOL0     C15974  10.381  -0.434   1.933  0.6786  0.4378  0.0683
  860MOL0     C15975  10.355  -0.572   1.985  0.2963  0.7703 -0.3233
  860MOL0     C15976  10.404  -0.593   2.127 -0.9951  0.2268  0.6539
  860MOL0     C15977  10.545  -0.612   2.131 -0.1860  0.2048 -0.4346
  860MOL0     C15978  10.590  -0.610   2.274  0.2356  0.5002 -0.2166
  860MOL0     C15979  10.743  -0.583   2.283 -0.1296  0.2593 -0.3112
  860MOL0     C15980  10.800  -0.580   2.424 -0.0091  0.6393  0.4497
  860MOL0     C15981  10.950  -0.554   2.420  1.3971  0.0441  0.2946
  860MOL0     N15982  11.006  -0.518   2.548 -0.3816 -0.8841 -0.3055
  860MOL0     C15983  11.038  -0.605   2.645  0.5418  0.7139  0.2348
  860MOL0     C15984  11.146  -0.564   2.716  0.6292 -0.2243 -0.1626
  860MOL0     C15985  11.221  -0.641   2.823  1.1314 -0.6478  0.2461
  860MOL0     C15986  11.296  -0.744   2.757  0.5283  0.3941  0.0139
  860MOL0     C15987  11.404  -0.805   2.831 -0.4043 -0.1497 -1.2823
  860MOL0     C15988  11.369  -0.857   2.970  0.2811  0.2875 -0.5213
  860MOL0     O15989  11.455  -0.939   3.044 -0.7574  0.2966 -0.6434
  860MOL0     C15990  11.549  -0.872   3.119  0.5129 -0.0797 -0.2680
  860MOL0     C15991  11.570  -0.732   3.132  0.4312  0.4039  0.3341
  860MOL0     C15992  11.661  -0.678   3.218  0.5262 -0.0430  0.4670
  860MOL0     C15993  11.724  -0.766   3.305 -0.9387 -0.4844 -0.1797
  860MOL0     C15994  11.806  -0.702   3.417 -1.0392 -0.5775  0.8831
  860MOL0     O15995  11.777  -0.568   3.440  0.4907  1.0519  0.5851
  860MOL0     C15996  11.804  -0.503   3.560  0.1401 -0.3150 -0.2628
  860MOL0     C15997  11.855  -0.556   3.678  1.1651  0.3156 -0.2220
  860MOL0     C15998  11.868  -0.472   3.786  0.3036 -0.4255  0.9102
  860MOL0     C15999  11.845  -0.338   3.792 -0.0810 -0.2564 -0.9520
  860MOL0     O16000  11.849  -0.263   3.907  0.4102 -0.3756 -0.1066
  860MOL0     C16001  11.844  -0.320   4.038  0.1934  0.2398  0.8762
  860MOL0     C16002  11.994  -0.347   4.080  0.0565  0.1116 -0.1597
  860MOL0     C16003  12.006  -0.411   4.217  0.7976 -0.3707 -0.3698
  860MOL0     C16004  12.160  -0.449   4.232  0.0010 -0.4156 -0.3626
  860MOL0     C16005  12.208  -0.452   4.380 -0.0071  0.2871 -0.5479
  860MOL0     C16006  12.129  -0.560   4.457  0.6086  0.0820 -0.1794
  860MOL0     C16007  12.211  -0.602   4.581  0.3760  0.7347  0.6733
  860MOL0     C16008  12.127  -0.696   4.663 -0.2448 -0.2934 -0.9231
  860MOL0    Cl16009  12.236  -0.766   4.793 -0.0681  0.0443  0.1096
  860MOL0     C16010  11.795  -0.284   3.675  0.4776 -0.9951 -0.1885
  860MOL0     C16011  11.775  -0.361   3.556  0.0834 -0.5632 -0.7495
  860MOL0     O16012  11.884  -0.770   3.476  0.2425  0.8917  0.1864
  860MOL0     C16013  11.709  -0.904   3.291 -0.2096 -0.1140  0.4737
  860MOL0     C16014  11.630  -0.955   3.189 -0.7538 -0.7189  0.1070
  860MOL0     N16015  11.170  -0.434   2.665 -0.7293  0.0970 -0.3596
  860MOL0     N16016  11.094  -0.413   2.562  0.1201 -0.1746 -0.3577
  860MOL0     C16017  10.364  -0.117   2.111 -0.1792  0.0983  0.5989
  860MOL0     C16018  10.360   0.029   2.103  0.2100 -0.1956  0.0033
  860MOL0     C16019  10.252   0.431   2.059 -0.6904  0.7775 -0.0846
  860MOL0     C16020  10.384   0.466   2.096  0.1599 -0.8477 -0.2545
  860MOL0     C16021  10.417   0.597   2.135 -0.1552 -0.5653 -0.0984
  860MOL0     C16022  10.321   0.691   2.157  0.1351 -0.7105  0.0399
  860MOL0     O16023  10.366   0.812   2.213 -1.1760  0.9539  0.1902
  860MOL0     C16024  10.285   0.929   2.210 -0.4911  0.3102 -1.1629
  860MOL0     C16025  10.351   1.031   2.304  0.6683  0.0370 -0.7348
  860MOL0     C16026  10.315   1.011   2.448  0.0414 -0.0564  0.2475
  860MOL0     C16027  10.373   1.112   2.546  1.1215  0.7553  0.3846
  860MOL0     C16028  10.364   1.055   2.684  1.0142  0.2161  0.0337
  860MOL0     C16029  10.354   1.003   2.792  0.4358  0.0013 -0.7463
  860MOL0     C16030  10.190   0.666   2.127  1.0887 -0.2462 -0.3918
  860MOL0     C16031  10.153   0.540   2.063 -0.4832  0.5210 -0.0501
  860MOL0     C16032  10.011   0.530   2.006 -0.1865  0.0939  0.0223
  860MOL0     H16033  10.289   0.057   1.776 -0.9155  0.0682  0.1961
  860MOL0     H16034  10.290  -0.196   1.800  0.7350  0.4839 -1.5455
  860MOL0     H16035  10.338  -0.430   1.832 -1.5362 -0.6274  0.8993
  860MOL0     H16036  10.489  -0.426   1.918  0.6003 -0.0358 -0.8060
  860MOL0     H16037  10.398  -0.644   1.915  0.1762  1.4524 -1.1131
  860MOL0     H16038  10.245  -0.572   1.986  0.2263  0.4735  2.8382
  860MOL0     H16039  10.339  -0.674   2.161  0.1540 -0.8972  0.2467
  860MOL0     H16040  10.374  -0.510   2.193  1.6934 -0.2060  2.5763
  860MOL0     H16041  10.571  -0.711   2.092 -0.8367 -0.7964  1.5926
  860MOL0     H16042  10.603  -0.541   2.070 -0.0193 -0.1780 -0.7338
  860MOL0     H16043  10.548  -0.529   2.334  0.5865  1.8694 -1.7388
  860MOL0     H16044  10.560  -0.707   2.312  0.3496 -0.3834 -2.2610
  860MOL0     H16045  10.801  -0.659   2.232  2.0783 -0.1646  2.5662
  860MOL0     H16046  10.778  -0.489   2.239  4.6221 -0.2047  1.8514
  860MOL0     H16047  10.783  -0.674   2.477  1.7777 -0.9940 -1.6847
  860MOL0     H16048  10.758  -0.494   2.477 -0.0976 -0.5204  2.3622
  860MOL0     H16049  11.001  -0.650   2.404  0.8583 -0.7476  2.7484
  860MOL0     H16050  10.984  -0.481   2.347  2.6184 -1.2152 -0.4311
  860MOL0     H16051  10.992  -0.702   2.661 -0.8549  1.3729  0.3762
  860MOL0     H16052  11.287  -0.577   2.882 -0.6061  1.8853 -0.4135
  860MOL0     H16053  11.138  -0.688   2.877 -2.1882  1.3635 -2.6985
  860MOL0     H16054  11.225  -0.818   2.718  2.7207 -2.5137  1.1732
  860MOL0     H16055  11.347  -0.691   2.676 -1.3510 -0.9974 -2.2248
  860MOL0     H16056  11.481  -0.728   2.846  0.4098 -1.2112  0.1339
  860MOL0     H16057  11.467  -0.875   2.775  1.1227  0.3952 -0.3216
  860MOL0     H16058  11.277  -0.916   2.977 -1.4540  2.2001 -4.4492
  860MOL0     H16059  11.348  -0.771   3.033 -0.0372  0.5183 -0.9420
  860MOL0     H16060  11.514  -0.667   3.065  0.3768  0.1651  0.1491
  860MOL0     H16061  11.682  -0.572   3.213  0.7485 -0.0383  1.2954
  860MOL0     H16062  11.879  -0.662   3.685  1.2570  0.2954 -0.7584
  860MOL0     H16063  11.907  -0.521   3.875  0.0096 -1.5163  0.4579
  860MOL0     H16064  11.790  -0.263   4.114 -2.9495 -1.7221  0.2981
  860MOL0     H16065  11.772  -0.402   4.035  0.3017  0.1062  1.6783
  860MOL0     H16066  12.036  -0.424   4.014  3.1818  1.5336  0.0214
  860MOL0     H16067  12.057  -0.258   4.069  1.3971 -0.7984 -0.1845
  860MOL0     H16068  11.984  -0.334   4.291 -0.5913  0.3447 -1.4840
  860MOL0     H16069  11.941  -0.499   4.217 -1.4264  1.1826 -0.0393
  860MOL0     H16070  12.209  -0.374   4.171  0.0237 -0.8129 -0.8395
  860MOL0     H16071  12.168  -0.550   4.191  0.8548 -0.2151 -0.7034
  860MOL0     H16072  12.206  -0.352   4.425 -1.2202 -0.1570  0.4474
  860MOL0     H16073  12.315  -0.476   4.377 -0.0575 -0.9737  2.8328
  860MOL0     H16074  12.038  -0.507   4.488  1.1448  0.2496  1.2082
  860MOL0     H16075  12.106  -0.647   4.396  1.4770 -0.8745  0.7950
  860MOL0     H16076  12.246  -0.517   4.640  1.7831  1.2637 -0.8548
  860MOL0     H16077  12.298  -0.648   4.534 -1.4023 -3.0462  0.7024
  860MOL0     H16078  12.042  -0.638   4.702 -1.0089 -0.3724 -2.3812
  860MOL0     H16079  12.097  -0.778   4.597 -2.3914 -1.9058  1.8431
  860MOL0     H16080  11.768  -0.179   3.666  1.8986 -0.5701  0.3034
  860MOL0     H16081  11.747  -0.321   3.459  0.2153  1.8888  0.1691
  860MOL0     H16082  11.747  -0.978   3.361 -2.5179 -4.0302 -2.0430
  860MOL0     H16083  11.622  -1.062   3.174 -1.6955 -0.9265  1.8288
  860MOL0     H16084  10.375  -0.150   2.213  1.1078 -0.7145  0.2265
  860MOL0     H16085  10.390   0.084   2.192 -2.5742 -0.3596  1.1346
  860MOL0     H16086  10.466   0.395   2.099 -0.7660 -1.9234  1.6716
  860MOL0     H16087  10.514   0.620   2.178 -0.3216  2.1953 -1.0080
  860MOL0     H16088  10.181   0.904   2.234  0.2847 -2.9602 -0.6394
  860MOL0     H16089  10.280   0.967   2.108 -1.5398  2.2995 -0.4287
  860MOL0     H16090  10.322   1.130   2.268 -1.9918  0.0444  1.1281
  860MOL0     H16091  10.458   1.033   2.280 -0.0173  0.8526 -4.2675
  860MOL0     H16092  10.331   0.909   2.485 -0.3883 -0.4535 -0.6214
  860MOL0     H16093  10.206   1.022   2.444 -0.1720 -0.2743  3.1093
  860MOL0     H16094  10.475   1.131   2.511  0.7530 -1.5254 -2.3159
  860MOL0     H16095  10.307   1.199   2.546  0.7185  0.4583 -0.0621
  860MOL0     H16096  10.361   0.958   2.889 -2.5107 -2.4009 -1.5231
  860MOL0     H16097  10.106   0.734   2.136 -1.8778 -3.8040  1.5668
  860MOL0     H16098   9.951   0.463   2.068  0.3012 -1.2377 -0.9013
  860MOL0     H16099   9.963   0.628   1.996 -0.7701  0.1046  2.4149
  860MOL0     H16100  10.021   0.481   1.909  0.4157  1.6428 -0.7421
  861MOL0     O16101   9.267   2.716   3.642  0.2478  0.2363 -0.0280
  861MOL0     C16102   9.246   2.838   3.608 -0.3727 -0.5888  0.1818
  861MOL0     O16103   9.227   2.943   3.695 -0.0801  0.8604  0.0650
  861MOL0     C16104   9.264   2.915   3.826  1.5514 -0.6070 -0.3997
  861MOL0     C16105   9.181   2.831   3.906 -0.4944 -0.1789  0.0707
  861MOL0     C16106   9.206   2.805   4.034 -0.1190 -0.1459 -0.9638
  861MOL0     C16107   9.320   2.861   4.098 -0.6056  0.6363 -0.0381
  861MOL0     O16108   9.370   2.832   4.228 -0.2748 -0.4273  0.0831
  861MOL0     C16109   9.271   2.772   4.308  0.1427 -0.6297  0.4608
  861MOL0     C16110   9.344   2.702   4.429  0.7531  0.4412  0.8449
  861MOL0     C16111   9.397   2.558   4.385  0.0859  0.5972 -0.1901
  861MOL0     C16112   9.550   2.553   4.387  1.1146  0.4128  0.4829
  861MOL0     C16113   9.601   2.407   4.385 -0.2577  0.3630 -0.3186
  861MOL0     C16114   9.584   2.336   4.523 -0.0090 -0.3405 -0.2531
  861MOL0     C16115   9.619   2.189   4.506  0.3689 -0.8928 -0.0587
  861MOL0     C16116   9.652   2.139   4.642 -0.8690  0.7125 -0.6340
  861MOL0     N16117   9.803   2.149   4.664  0.1590 -0.8908 -0.4176
  861MOL0     C16118   9.873   2.081   4.764  0.0384  0.3659  0.8249
  861MOL0     C16119   9.993   2.134   4.764 -0.4342 -0.0871 -0.1876
  861MOL0     C16120  10.096   2.086   4.865 -1.0538  0.4572  1.3712
  861MOL0     C16121  10.221   2.003   4.824  0.1152  0.3939  0.1583
  861MOL0     C16122  10.275   2.034   4.679  0.1284 -1.3020 -0.0819
  861MOL0     C16123  10.414   1.969   4.656 -0.0249 -0.7439  0.2044
  861MOL0     O16124  10.411   1.835   4.668  0.6083  0.7854  0.4030
  861MOL0     C16125  10.519   1.776   4.713 -1.3985  0.5729  0.2570
  861MOL0     C16126  10.652   1.841   4.719  0.4952  0.6828 -0.2288
  861MOL0     C16127  10.768   1.765   4.751 -0.2098 -1.1640 -0.3810
  861MOL0     C16128  10.768   1.621   4.761  0.3631 -0.0452 -0.0423
  861MOL0     C16129  10.888   1.535   4.777  0.1308 -0.7291 -1.2353
  861MOL0     O16130  10.864   1.402   4.758 -0.9279 -0.6992 -0.7070
  861MOL0     C16131  10.961   1.321   4.704 -0.4571  1.1102 -0.0146
  861MOL0     C16132  10.950   1.183   4.724  0.1886  0.9585  1.0374
  861MOL0     C16133  11.033   1.094   4.652 -0.7609  1.0717  0.8470
  861MOL0     C16134  11.144   1.139   4.570  0.5130 -0.7979  0.1995
  861MOL0     O16135  11.216   1.048   4.500  0.0287  0.8833  0.5975
  861MOL0     C16136  11.279   0.940   4.575  0.7004  0.1282 -0.4396
  861MOL0     C16137  11.432   0.953   4.608 -0.0409  0.0028 -0.9916
  861MOL0     C16138  11.524   0.996   4.498 -0.0263 -0.1318  0.4056
  861MOL0     C16139  11.487   0.911   4.366 -0.1633 -0.2970 -0.5017
  861MOL0     C16140  11.594   0.907   4.256  0.4390  0.3633 -0.3947
  861MOL0     C16141  11.542   0.825   4.132  0.2129 -1.6505 -0.0514
  861MOL0     C16142  11.653   0.800   4.036 -0.8240 -0.6980  0.7077
  861MOL0     C16143  11.737   0.676   4.070  0.2186  0.0658  0.8619
  861MOL0    Cl16144  11.638   0.533   4.034 -0.1933 -0.1061 -0.0167
  861MOL0     C16145  11.162   1.275   4.562  0.2247  0.0245  0.1207
  861MOL0     C16146  11.069   1.368   4.614 -0.2312  0.0292 -0.2419
  861MOL0     O16147  10.995   1.593   4.787 -0.4579 -1.4761 -0.6017
  861MOL0     C16148  10.632   1.566   4.766 -0.4847 -0.0169 -0.1724
  861MOL0     C16149  10.520   1.649   4.743 -0.2326  0.7419  0.9575
  861MOL0     N16150  10.006   2.233   4.671 -0.2026  0.3165  0.7774
  861MOL0     N16151   9.894   2.238   4.606  0.4873  0.4293 -0.0408
  861MOL0     C16152   9.399   2.946   4.019 -0.8583  0.5860 -0.6521
  861MOL0     C16153   9.371   2.972   3.882 -0.0596 -0.5022 -0.1193
  861MOL0     C16154   9.247   2.876   3.459  0.6275  0.1478  0.6092
  861MOL0     C16155   9.160   2.977   3.414 -0.5468  0.0946  0.5718
  861MOL0     C16156   9.165   3.011   3.279 -0.2953  0.1554 -0.5579
  861MOL0     C16157   9.223   2.927   3.187 -0.0331  0.4088 -0.2069
  861MOL0     O16158   9.180   2.931   3.054 -0.6063  0.2778  0.8150
  861MOL0     C16159   9.266   2.892   2.942 -0.1405 -0.0923 -0.7632
  861MOL0     C16160   9.203   2.942   2.805  0.0777 -0.0923 -1.0103
  861MOL0     C16161   9.228   3.094   2.793  0.1524  0.2179  0.6872
  861MOL0     C16162   9.133   3.165   2.686 -0.2630 -0.1591 -0.4394
  861MOL0     C16163   9.169   3.134   2.548 -0.2513 -0.3459 -0.2062
  861MOL0     C16164   9.225   3.094   2.447 -1.0241  0.1916 -0.2923
  861MOL0     C16165   9.307   2.824   3.228 -0.1276 -0.2066 -0.7801
  861MOL0     C16166   9.321   2.797   3.363 -0.9429 -0.3550  0.7337
  861MOL0     C16167   9.415   2.692   3.399 -0.8566  0.0139 -1.0155
  861MOL0     H16168   9.094   2.789   3.857 -0.6287  0.3512 -0.1558
  861MOL0     H16169   9.125   2.764   4.094  0.6246 -0.6806 -0.2993
  861MOL0     H16170   9.202   2.850   4.341 -0.0958 -0.9197  0.6642
  861MOL0     H16171   9.201   2.699   4.267 -1.3609 -0.0993  1.9600
  861MOL0     H16172   9.279   2.684   4.515  1.5424 -0.3087  1.3028
  861MOL0     H16173   9.428   2.769   4.449 -0.0240  1.4572  0.7520
  861MOL0     H16174   9.365   2.540   4.282  1.3424  1.0806 -0.6902
  861MOL0     H16175   9.346   2.481   4.443 -0.0573 -0.0253 -1.1188
  861MOL0     H16176   9.598   2.618   4.314  2.8309  2.7878  3.4539
  861MOL0     H16177   9.589   2.598   4.479  1.4876  1.0059  0.0474
  861MOL0     H16178   9.547   2.351   4.308  1.0773  1.7037 -2.3209
  861MOL0     H16179   9.706   2.413   4.358 -0.2089 -2.6035 -1.1128
  861MOL0     H16180   9.647   2.383   4.599  2.1146 -1.1152 -1.4387
  861MOL0     H16181   9.478   2.334   4.548 -0.0364 -3.0007 -0.3540
  861MOL0     H16182   9.704   2.190   4.436 -0.2573  3.1208 -0.9989
  861MOL0     H16183   9.540   2.126   4.465 -2.6494  1.0791  2.2872
  861MOL0     H16184   9.594   2.193   4.717 -0.9917  0.4964 -0.5725
  861MOL0     H16185   9.625   2.035   4.662  1.4647  0.5761  2.4380
  861MOL0     H16186   9.826   2.010   4.831 -0.6700  2.6447  2.9149
  861MOL0     H16187  10.133   2.176   4.914 -3.4633  2.4983 -0.3526
  861MOL0     H16188  10.043   2.035   4.947  0.0290 -1.1508  1.1137
  861MOL0     H16189  10.303   2.030   4.890  0.2967  2.8370 -0.9742
  861MOL0     H16190  10.207   1.896   4.842 -0.7631  0.7618  1.8721
  861MOL0     H16191  10.279   2.141   4.657 -5.3066 -0.5563  1.1426
  861MOL0     H16192  10.200   2.005   4.605 -1.1288  1.6856 -0.1259
  861MOL0     H16193  10.477   2.013   4.734  2.1552 -1.4868 -1.0632
  861MOL0     H16194  10.461   1.996   4.561 -2.6845 -1.7833 -1.5418
  861MOL0     H16195  10.671   1.947   4.703 -1.6687  0.9624 -1.2430
  861MOL0     H16196  10.863   1.816   4.760  1.0129 -2.2942 -4.7353
  861MOL0     H16197  10.875   1.142   4.790 -0.0942  1.8780  1.2954
  861MOL0     H16198  11.019   0.987   4.663 -1.3011  0.8019 -1.8429
  861MOL0     H16199  11.230   0.922   4.671 -2.4957 -2.9674 -2.4230
  861MOL0     H16200  11.270   0.854   4.509 -0.6434  1.9701 -2.8314
  861MOL0     H16201  11.444   1.038   4.676  1.0583  0.7173 -2.0476
  861MOL0     H16202  11.465   0.862   4.659 -0.2250  0.7747  0.5801
  861MOL0     H16203  11.505   1.104   4.493 -1.3082 -0.3754 -0.5647
  861MOL0     H16204  11.629   0.969   4.515  0.2557 -1.2360 -2.5559
  861MOL0     H16205  11.395   0.958   4.331 -1.3458 -0.6972  1.8674
  861MOL0     H16206  11.448   0.812   4.391  2.0373 -1.3084 -0.8923
  861MOL0     H16207  11.690   0.866   4.291 -1.0445 -2.5029  0.6216
  861MOL0     H16208  11.616   1.013   4.236  1.5609  0.4250  1.0352
  861MOL0     H16209  11.479   0.742   4.167 -1.5394  0.0312  1.0065
  861MOL0     H16210  11.471   0.891   4.080 -0.1894 -1.1407  1.1228
  861MOL0     H16211  11.712   0.892   4.044 -0.5993 -1.0465  4.3878
  861MOL0     H16212  11.605   0.784   3.938 -2.1444  0.5067  1.1142
  861MOL0     H16213  11.832   0.676   4.015  2.1877 -0.5316  3.9810
  861MOL0     H16214  11.775   0.676   4.173 -0.2900  0.8779  1.0566
  861MOL0     H16215  11.249   1.309   4.508 -0.8044 -0.6584 -2.0763
  861MOL0     H16216  11.093   1.469   4.581 -1.6281  1.2070  2.1094
  861MOL0     H16217  10.629   1.460   4.788  1.1097  0.0898  0.7332
  861MOL0     H16218  10.424   1.599   4.753  1.3689 -2.8796  0.0219
  861MOL0     H16219   9.486   2.991   4.065  0.8013 -0.4946 -2.6175
  861MOL0     H16220   9.436   3.033   3.819 -4.0042  4.1453 -0.3213
  861MOL0     H16221   9.084   3.018   3.480 -0.1043 -1.0881  1.8697
  861MOL0     H16222   9.109   3.099   3.251 -0.6567  0.1816  0.2129
  861MOL0     H16223   9.275   2.783   2.947  0.7735  0.0355  1.8965
  861MOL0     H16224   9.368   2.924   2.962 -0.9840  1.8698  0.6956
  861MOL0     H16225   9.098   2.923   2.829  0.5107  2.0779  3.7095
  861MOL0     H16226   9.230   2.888   2.714 -3.0003 -2.8541 -0.4700
  861MOL0     H16227   9.333   3.117   2.775  1.2578 -2.9356  2.4526
  861MOL0     H16228   9.210   3.137   2.892 -2.0612  0.0947  0.3998
  861MOL0     H16229   9.030   3.142   2.717 -0.2413  2.6021  2.1763
  861MOL0     H16230   9.123   3.272   2.705  0.6666 -0.4953  2.4696
  861MOL0     H16231   9.273   3.049   2.363 -0.4219  0.7496 -0.2582
  861MOL0     H16232   9.357   2.755   3.160  1.4199  2.4544 -2.5383
  861MOL0     H16233   9.485   2.728   3.475 -1.6181  0.0879 -0.3413
  861MOL0     H16234   9.352   2.613   3.441 -0.3272  0.9500  1.7407
  861MOL0     H16235   9.471   2.657   3.312  1.2875  0.5966  0.0654
  862MOL0     O16236   1.994   6.726   4.620 -0.0485 -0.2457 -0.5405
  862MOL0     C16237   2.067   6.669   4.538 -0.1350 -0.0094  0.9318
  862MOL0     O16238   2.138   6.735   4.436 -0.3424  0.5979 -0.2854
  862MOL0     C16239   2.082   6.862   4.413  0.0343  0.8146  1.1165
  862MOL0     C16240   2.101   6.977   4.499  0.1806  0.5332 -0.1857
  862MOL0     C16241   2.052   7.106   4.465 -0.0439 -0.0901 -0.1409
  862MOL0     C16242   2.009   7.118   4.332 -0.6894 -0.2034 -0.4553
  862MOL0     O16243   1.976   7.241   4.276 -0.0542  0.6151 -0.0046
  862MOL0     C16244   2.046   7.358   4.329  0.2864 -0.0873 -0.9964
  862MOL0     C16245   2.004   7.467   4.242  0.6937 -0.0320  0.2605
  862MOL0     C16246   2.086   7.600   4.265  0.1099 -0.2641 -0.0080
  862MOL0     C16247   1.993   7.713   4.192 -0.1840  0.0649  0.4262
  862MOL0     C16248   1.872   7.760   4.265  1.2613  0.0884 -0.0536
  862MOL0     C16249   1.769   7.835   4.173  0.0616  1.0155 -0.1070
  862MOL0     C16250   1.613   7.846   4.227 -0.9207  0.2149 -0.4267
  862MOL0     C16251   1.528   7.956   4.165  0.3575  0.5364 -0.2408
  862MOL0     N16252   1.536   8.094   4.198 -0.3414 -0.5486 -0.3847
  862MOL0     C16253   1.650   8.178   4.193 -0.5895  0.8910  0.7739
  862MOL0     C16254   1.622   8.291   4.266  0.5026  0.7402  0.8180
  862MOL0     C16255   1.715   8.412   4.250 -0.1654  0.0753 -0.1239
  862MOL0     C16256   1.718   8.509   4.373  1.1639 -0.0923 -0.3829
  862MOL0     C16257   1.786   8.452   4.502  0.8900 -0.0118 -0.5810
  862MOL0     C16258   1.937   8.450   4.494  0.3216 -1.4955  0.4841
  862MOL0     O16259   1.994   8.367   4.392  0.6354  0.1898 -0.2685
  862MOL0     C16260   2.119   8.399   4.339  0.8057  0.7852  0.0390
  862MOL0     C16261   2.154   8.329   4.224  0.5410  0.0860  0.0298
  862MOL0     C16262   2.276   8.338   4.162 -0.3948  0.6886  1.0932
  862MOL0     C16263   2.371   8.413   4.230  0.0453 -0.5055 -1.0602
  862MOL0     C16264   2.496   8.429   4.163  0.2756  0.9994  0.3050
  862MOL0     O16265   2.524   8.355   4.047 -0.3240 -1.3722 -0.1026
  862MOL0     C16266   2.654   8.369   3.999 -0.6915 -0.5948  0.2502
  862MOL0     C16267   2.722   8.253   3.958  0.6961  0.0245  0.2501
  862MOL0     C16268   2.852   8.251   3.913 -0.4314  0.0888 -0.6760
  862MOL0     C16269   2.916   8.372   3.880 -0.0310  0.8668 -0.6876
  862MOL0     O16270   3.042   8.361   3.834 -0.4002  0.9758 -0.4300
  862MOL0     C16271   3.120   8.475   3.790 -0.7842  0.3844  0.4774
  862MOL0     C16272   3.124   8.472   3.640 -0.5296  0.4005 -0.9655
  862MOL0     C16273   3.198   8.583   3.578  0.3767 -0.6912 -0.6981
  862MOL0     C16274   3.350   8.566   3.591 -0.7725 -0.1685  0.1924
  862MOL0     C16275   3.422   8.666   3.497 -0.7347 -0.0643 -0.8280
  862MOL0     C16276   3.578   8.631   3.498 -0.6005 -0.6658  0.0670
  862MOL0     C16277   3.648   8.697   3.376 -0.4419  0.4242  0.4246
  862MOL0     C16278   3.667   8.847   3.387  0.3237  0.5877 -0.1559
  862MOL0    Cl16279   3.714   8.903   3.229  0.5159 -0.2774 -0.3920
  862MOL0     C16280   2.854   8.494   3.914 -0.0907 -0.4611  0.1224
  862MOL0     C16281   2.726   8.490   3.969 -0.6177  0.1601  0.0120
  862MOL0     O16282   2.570   8.520   4.209  1.1291  0.3050  0.1993
  862MOL0     C16283   2.343   8.480   4.347  0.1758  0.4155  0.4110
  862MOL0     C16284   2.215   8.465   4.407 -0.3922  0.2189  0.0471
  862MOL0     N16285   1.499   8.277   4.313 -0.1032 -0.4129 -1.1551
  862MOL0     N16286   1.449   8.168   4.273 -0.7830  0.3302 -0.7160
  862MOL0     C16287   1.986   7.009   4.247  0.3547 -0.3500  0.4124
  862MOL0     C16288   2.017   6.876   4.290 -0.8611 -0.0100  0.3102
  862MOL0     C16289   2.088   6.519   4.548 -0.0022  0.8182  0.0753
  862MOL0     C16290   2.188   6.467   4.469  0.0548  0.1029 -0.0292
  862MOL0     C16291   2.208   6.329   4.455  0.6598 -0.2600 -0.0674
  862MOL0     C16292   2.122   6.243   4.522  0.1294  0.0436  0.2945
  862MOL0     O16293   2.143   6.109   4.495 -0.1137  0.2231  0.5722
  862MOL0     C16294   2.134   6.057   4.363 -0.4909 -0.4416 -0.2265
  862MOL0     C16295   2.266   5.997   4.320 -0.0646  0.4534 -0.2648
  862MOL0     C16296   2.248   5.899   4.193 -0.2318 -0.3152 -0.3038
  862MOL0     C16297   2.340   5.771   4.189 -0.5869  0.0539  0.1875
  862MOL0     C16298   2.477   5.804   4.213  0.6887  0.7043 -0.3984
  862MOL0     C16299   2.587   5.794   4.241 -0.0481 -0.9225 -0.5633
  862MOL0     C16300   2.013   6.288   4.601  0.0845 -0.3192  0.1807
  862MOL0     C16301   1.991   6.425   4.609 -1.0178  0.1287 -1.0050
  862MOL0     C16302   1.869   6.457   4.681 -0.3662  0.3545 -0.9399
  862MOL0     H16303   2.166   6.954   4.582 -0.9330 -2.6692 -0.0551
  862MOL0     H16304   2.068   7.175   4.546 -1.9230  0.4340 -0.1828
  862MOL0     H16305   2.032   7.370   4.437  3.7818 -2.0782 -0.1755
  862MOL0     H16306   2.152   7.338   4.315  0.3632  0.5664 -1.3959
  862MOL0     H16307   1.899   7.483   4.267  1.4962  1.2955  3.2466
  862MOL0     H16308   2.025   7.432   4.140  2.8533  0.6761  0.4130
  862MOL0     H16309   2.183   7.588   4.215 -0.0844 -2.9328  0.1185
  862MOL0     H16310   2.090   7.626   4.371 -1.4428 -1.0878  0.2824
  862MOL0     H16311   2.050   7.806   4.195 -0.0074 -0.0099 -0.3814
  862MOL0     H16312   1.976   7.686   4.087 -0.5130 -0.1522  0.5322
  862MOL0     H16313   1.818   7.673   4.304  2.1688  0.1394  1.3624
  862MOL0     H16314   1.895   7.821   4.352  1.2394 -0.1154  0.0942
  862MOL0     H16315   1.821   7.929   4.149  0.4764  1.2451  1.5824
  862MOL0     H16316   1.749   7.790   4.075 -4.1519 -1.0299  1.4319
  862MOL0     H16317   1.604   7.867   4.334  1.3681  4.1514 -0.8120
  862MOL0     H16318   1.570   7.747   4.208 -2.7237  0.7007  0.8470
  862MOL0     H16319   1.537   7.946   4.057 -2.1205  1.1764 -0.5562
  862MOL0     H16320   1.427   7.929   4.196  0.9887  0.9535  2.4751
  862MOL0     H16321   1.731   8.156   4.125 -2.5127  2.1972 -2.1497
  862MOL0     H16322   1.817   8.383   4.225  0.2552  1.2455  0.1448
  862MOL0     H16323   1.672   8.462   4.163 -0.8264 -0.7933 -0.3018
  862MOL0     H16324   1.755   8.606   4.340  1.8165 -0.0439  0.4450
  862MOL0     H16325   1.615   8.531   4.404  1.4738  0.6358  0.1434
  862MOL0     H16326   1.759   8.347   4.515 -0.5632  0.5942  2.1225
  862MOL0     H16327   1.737   8.493   4.591 -1.2144  2.0228 -2.5321
  862MOL0     H16328   1.978   8.408   4.587  3.8753 -0.2770 -0.3638
  862MOL0     H16329   1.978   8.550   4.477  1.7380 -1.9613  1.0147
  862MOL0     H16330   2.080   8.272   4.168 -0.9721  1.2071  0.8069
  862MOL0     H16331   2.280   8.302   4.060 -1.3733 -1.0191  1.6130
  862MOL0     H16332   2.664   8.161   3.957 -1.5943  1.2320  3.6644
  862MOL0     H16333   2.916   8.164   3.901  1.6036  1.4040  0.0203
  862MOL0     H16334   3.093   8.572   3.830  0.4931  1.4021 -1.0119
  862MOL0     H16335   3.226   8.460   3.815 -0.5081 -0.3091 -0.9529
  862MOL0     H16336   3.159   8.373   3.611 -5.1698 -1.8096  0.0753
  862MOL0     H16337   3.018   8.464   3.615  0.0296 -1.1587 -3.1354
  862MOL0     H16338   3.179   8.590   3.471  1.1985  1.1708 -0.7720
  862MOL0     H16339   3.177   8.675   3.634 -0.5240 -1.1375 -0.2864
  862MOL0     H16340   3.389   8.464   3.584  2.2267  0.7850  1.6618
  862MOL0     H16341   3.378   8.606   3.688 -0.3650  2.5834 -0.9643
  862MOL0     H16342   3.402   8.771   3.516 -1.9157 -0.4340  0.0699
  862MOL0     H16343   3.388   8.641   3.396  0.9564  2.6712 -2.2024
  862MOL0     H16344   3.623   8.661   3.593 -0.8233  0.7397 -0.2353
  862MOL0     H16345   3.599   8.525   3.486  0.8122 -0.1966 -2.3966
  862MOL0     H16346   3.591   8.674   3.286 -1.0790  2.6142  0.2048
  862MOL0     H16347   3.748   8.656   3.363 -0.0101  1.9534 -1.3945
  862MOL0     H16348   3.570   8.893   3.410  1.2291  2.8770 -0.6788
  862MOL0     H16349   3.736   8.877   3.466  0.1387  0.9860 -0.1415
  862MOL0     H16350   2.904   8.590   3.904  4.4759 -2.5628  0.2939
  862MOL0     H16351   2.680   8.582   4.002 -2.3468 -0.3818 -0.7582
  862MOL0     H16352   2.415   8.537   4.405  0.1864  1.7251 -0.8196
  862MOL0     H16353   2.193   8.495   4.509  1.1995  1.6658  0.0073
  862MOL0     H16354   1.945   7.019   4.147  0.9265 -0.5773  0.1533
  862MOL0     H16355   2.004   6.791   4.224  3.4871  0.1363 -1.0641
  862MOL0     H16356   2.253   6.528   4.407  1.7433 -1.1360  0.4590
  862MOL0     H16357   2.292   6.283   4.404  1.6109  1.3718 -0.0374
  862MOL0     H16358   2.104   6.138   4.296 -2.4161 -1.2398 -0.4095
  862MOL0     H16359   2.051   5.986   4.365  0.1583 -1.2712 -1.4469
  862MOL0     H16360   2.313   5.953   4.408 -0.0337  0.2334 -0.3895
  862MOL0     H16361   2.331   6.078   4.283  4.1787 -1.1390  2.8665
  862MOL0     H16362   2.267   5.959   4.104 -2.0842  0.4746 -0.2062
  862MOL0     H16363   2.142   5.873   4.189 -1.6385  4.5421 -0.4317
  862MOL0     H16364   2.314   5.700   4.268  1.9512 -0.7889  0.3645
  862MOL0     H16365   2.335   5.722   4.091  1.3708  0.6847 -0.2752
  862MOL0     H16366   2.682   5.781   4.290  1.2952  0.3459 -2.6417
  862MOL0     H16367   1.950   6.216   4.652  0.3214 -0.6672 -0.0054
  862MOL0     H16368   1.811   6.529   4.622  0.6644  0.6362 -1.6416
  862MOL0     H16369   1.801   6.375   4.703  3.2738 -1.7950  4.8383
  862MOL0     H16370   1.903   6.507   4.772 -1.5269 -0.5006 -0.0003
  863MOL0     O16371   5.096   3.462   3.899  0.0513  1.1300 -1.0277
  863MOL0     C16372   5.049   3.402   3.809  0.1182 -0.0629  0.6814
  863MOL0     O16373   5.118   3.374   3.695 -0.6426 -0.3641 -0.1954
  863MOL0     C16374   5.243   3.434   3.678  0.0574 -0.3193  0.1589
  863MOL0     C16375   5.357   3.386   3.750  0.7437 -0.5066 -0.7905
  863MOL0     C16376   5.471   3.472   3.756 -0.9025 -0.0099  0.6018
  863MOL0     C16377   5.478   3.582   3.674 -0.4161 -0.2221  0.9753
  863MOL0     O16378   5.605   3.646   3.692 -0.0337 -0.5272 -0.4416
  863MOL0     C16379   5.597   3.791   3.691  0.4866  0.4880  0.1407
  863MOL0     C16380   5.733   3.850   3.697 -0.2797  0.6177 -0.7790
  863MOL0     C16381   5.742   4.004   3.706  0.2129 -0.4097  0.3304
  863MOL0     C16382   5.878   4.063   3.673  0.1680  0.0260 -0.1070
  863MOL0     C16383   5.871   4.217   3.678  0.7432  0.7058 -0.0841
  863MOL0     C16384   5.868   4.275   3.827  0.5769  0.2712  0.2150
  863MOL0     C16385   5.779   4.401   3.839 -0.5679 -0.0630  0.1583
  863MOL0     C16386   5.824   4.516   3.752 -0.1799 -0.1151 -0.4471
  863MOL0     N16387   5.712   4.572   3.675  0.1405 -0.4170  0.7050
  863MOL0     C16388   5.660   4.696   3.698 -0.3421 -0.7596  0.1894
  863MOL0     C16389   5.549   4.698   3.624 -0.7502  0.3531  0.5237
  863MOL0     C16390   5.453   4.810   3.605  0.0656  0.1539 -0.5765
  863MOL0     C16391   5.480   4.880   3.469  0.1685 -0.3449  0.1578
  863MOL0     C16392   5.403   5.014   3.440  0.4439 -0.5222  0.0956
  863MOL0     C16393   5.457   5.147   3.503 -0.1263  0.8330 -0.6658
  863MOL0     O16394   5.577   5.181   3.426 -0.6565 -0.1697  0.2681
  863MOL0     C16395   5.638   5.307   3.439 -0.4727  0.8151  0.5575
  863MOL0     C16396   5.727   5.351   3.333  0.5475 -0.3832 -0.5017
  863MOL0     C16397   5.792   5.476   3.349  1.0965  0.1671  0.8207
  863MOL0     C16398   5.784   5.557   3.457  0.8882 -0.2920 -0.2217
  863MOL0     C16399   5.858   5.686   3.453  0.9526 -0.9820  0.3549
  863MOL0     O16400   5.920   5.718   3.328 -0.5197 -0.8539  0.0972
  863MOL0     C16401   6.013   5.820   3.333  0.5484 -0.6574 -0.0365
  863MOL0     C16402   6.132   5.808   3.414  0.1345  0.5612  0.7190
  863MOL0     C16403   6.232   5.906   3.397  0.7583  0.6999 -0.6014
  863MOL0     C16404   6.207   6.014   3.315  0.2575 -0.7163  0.6232
  863MOL0     O16405   6.289   6.121   3.295 -0.3416 -0.3779  0.9938
  863MOL0     C16406   6.384   6.164   3.386 -1.0844  0.3656  0.1272
  863MOL0     C16407   6.340   6.308   3.414  0.3929 -0.3811  0.1417
  863MOL0     C16408   6.430   6.364   3.529 -0.0334 -0.3088  0.1479
  863MOL0     C16409   6.395   6.512   3.536 -0.8132  0.4527 -0.3897
  863MOL0     C16410   6.457   6.573   3.674 -0.6291 -0.4507  0.4048
  863MOL0     C16411   6.472   6.720   3.673  0.2868 -0.3696 -1.4492
  863MOL0     C16412   6.582   6.773   3.578  0.7986 -0.4005  0.1478
  863MOL0     C16413   6.607   6.923   3.604  0.2128 -0.3103  0.1334
  863MOL0    Cl16414   6.733   6.972   3.493 -0.0155 -0.3400 -0.1044
  863MOL0     C16415   6.099   6.016   3.231 -0.0205 -0.0180 -0.2293
  863MOL0     C16416   5.999   5.918   3.237  0.0839  0.6417 -0.2062
  863MOL0     O16417   5.888   5.736   3.565 -0.4306  1.0316  0.4454
  863MOL0     C16418   5.696   5.520   3.555  0.6470 -0.3745 -0.5089
  863MOL0     C16419   5.626   5.395   3.550 -0.6177  0.2350 -0.5551
  863MOL0     N16420   5.544   4.580   3.552  0.8663  0.2274  0.3023
  863MOL0     N16421   5.646   4.500   3.578  0.5626  0.4497 -0.6686
  863MOL0     C16422   5.376   3.621   3.589 -0.7039 -0.3574 -0.6131
  863MOL0     C16423   5.257   3.547   3.592  0.0032  0.6040 -0.1804
  863MOL0     C16424   4.903   3.363   3.817 -0.6306 -0.0565  0.6339
  863MOL0     C16425   4.856   3.303   3.942 -0.9076 -0.0694 -0.2667
  863MOL0     C16426   4.720   3.263   3.955 -0.1050 -0.1089  0.7357
  863MOL0     C16427   4.624   3.289   3.857 -0.4272 -0.5808 -0.2243
  863MOL0     O16428   4.493   3.276   3.901  0.2366  0.2722 -0.1472
  863MOL0     C16429   4.390   3.345   3.824 -1.2603 -0.1035 -0.6053
  863MOL0     C16430   4.273   3.375   3.902  0.6887 -0.3308 -0.3033
  863MOL0     C16431   4.301   3.430   4.047 -0.6100  0.4080  0.3312
  863MOL0     C16432   4.178   3.513   4.099  0.1325  0.6217  0.3922
  863MOL0     C16433   4.183   3.533   4.245 -0.1942  0.7812  0.5413
  863MOL0     C16434   4.183   3.565   4.365  0.1236  0.9699  0.9711
  863MOL0     C16435   4.669   3.334   3.731  0.1820 -0.3510 -0.1243
  863MOL0     C16436   4.810   3.368   3.710 -0.2618  0.4012 -0.2066
  863MOL0     C16437   4.853   3.429   3.573  0.6859  0.0913 -0.6157
  863MOL0     H16438   5.344   3.311   3.827  0.4559 -1.1542 -1.4544
  863MOL0     H16439   5.543   3.448   3.833  0.3648 -0.6604 -0.7386
  863MOL0     H16440   5.556   3.833   3.598  3.0598  2.4766 -0.2143
  863MOL0     H16441   5.533   3.821   3.775  1.4559 -0.0151  1.0744
  863MOL0     H16442   5.782   3.825   3.602  3.4768 -2.9315  1.7390
  863MOL0     H16443   5.786   3.802   3.780  2.3820 -0.1402 -2.7671
  863MOL0     H16444   5.702   4.044   3.800 -1.5915  1.9992 -1.3345
  863MOL0     H16445   5.671   4.057   3.642 -0.7706  0.3028  1.9475
  863MOL0     H16446   5.957   4.026   3.740 -0.5202 -3.0725 -0.8343
  863MOL0     H16447   5.913   4.015   3.581 -0.8153 -1.3897  0.2141
  863MOL0     H16448   5.962   4.270   3.647 -0.2629  2.1047 -0.7404
  863MOL0     H16449   5.791   4.252   3.613 -0.9723 -1.9195  0.4588
  863MOL0     H16450   5.826   4.204   3.899  1.9657  2.7455  3.7466
  863MOL0     H16451   5.967   4.284   3.872  0.9119 -1.0828 -0.2225
  863MOL0     H16452   5.785   4.427   3.945  0.0296 -1.4426  0.4879
  863MOL0     H16453   5.675   4.373   3.817 -1.6309  1.2496  3.1006
  863MOL0     H16454   5.875   4.589   3.816  3.4909 -2.4135 -0.4367
  863MOL0     H16455   5.889   4.476   3.674  0.0465  1.0931 -0.8973
  863MOL0     H16456   5.688   4.763   3.778 -2.5489 -1.9798  2.0952
  863MOL0     H16457   5.351   4.772   3.605 -0.7451  2.1838 -0.2557
  863MOL0     H16458   5.458   4.879   3.690 -2.8099  1.1070 -1.0630
  863MOL0     H16459   5.587   4.889   3.450  0.2951 -1.2399  0.3986
  863MOL0     H16460   5.434   4.807   3.402 -3.9706  0.2046  2.0451
  863MOL0     H16461   5.306   5.002   3.489  0.0604  1.1907 -0.1911
  863MOL0     H16462   5.394   5.033   3.333  0.3760  1.1079  0.3744
  863MOL0     H16463   5.485   5.134   3.608  1.5701  1.8772 -0.9630
  863MOL0     H16464   5.380   5.224   3.491  0.1845  0.7403 -5.1061
  863MOL0     H16465   5.755   5.288   3.249  3.3389  1.4981 -1.1444
  863MOL0     H16466   5.852   5.505   3.263  0.0745  1.5299  0.5187
  863MOL0     H16467   6.159   5.714   3.461  0.0609 -2.4304 -4.5223
  863MOL0     H16468   6.329   5.890   3.443  1.1091  2.1097 -0.8234
  863MOL0     H16469   6.373   6.099   3.472  0.2653  0.5688  0.4759
  863MOL0     H16470   6.485   6.153   3.345 -1.1757 -0.1395  0.0342
  863MOL0     H16471   6.351   6.374   3.328  1.9850 -2.9141 -1.7109
  863MOL0     H16472   6.237   6.311   3.450 -1.9616 -1.6080 -5.4860
  863MOL0     H16473   6.412   6.313   3.625  0.9655 -0.4258  0.2846
  863MOL0     H16474   6.537   6.350   3.510 -0.4392 -0.7479 -2.0112
  863MOL0     H16475   6.289   6.535   3.544 -0.9239 -0.3728  0.8370
  863MOL0     H16476   6.435   6.554   3.443  1.3089 -1.8122 -0.6100
  863MOL0     H16477   6.551   6.521   3.693  1.0284 -0.0462 -4.9069
  863MOL0     H16478   6.383   6.538   3.746 -1.5790 -0.7408 -0.6741
  863MOL0     H16479   6.377   6.766   3.645  1.4313  2.6177 -0.8555
  863MOL0     H16480   6.481   6.754   3.777 -3.5872 -1.3976 -0.6000
  863MOL0     H16481   6.558   6.752   3.474 -2.8547 -1.0996  0.9835
  863MOL0     H16482   6.683   6.735   3.598  1.5499  1.2924 -0.2530
  863MOL0     H16483   6.523   6.990   3.585  1.4566  0.9525 -1.1066
  863MOL0     H16484   6.625   6.927   3.712 -3.4497  2.3532  0.8312
  863MOL0     H16485   6.090   6.082   3.145 -4.2478 -2.7206 -2.2119
  863MOL0     H16486   5.912   5.931   3.174  0.0915  0.4390 -0.2596
  863MOL0     H16487   5.684   5.573   3.649 -2.1958 -2.4447  0.4365
  863MOL0     H16488   5.563   5.363   3.632  0.5908  0.0598  0.3200
  863MOL0     H16489   5.391   3.704   3.522 -0.6425 -0.5380 -0.8225
  863MOL0     H16490   5.181   3.589   3.527  1.1425  1.5447 -0.9344
  863MOL0     H16491   4.925   3.297   4.025  3.3696  0.0710 -3.4535
  863MOL0     H16492   4.703   3.238   4.059  1.7789 -1.6754  0.7243
  863MOL0     H16493   4.366   3.273   3.745 -2.2139  1.5853 -1.9205
  863MOL0     H16494   4.425   3.434   3.771  0.5059 -1.1120 -1.2259
  863MOL0     H16495   4.224   3.282   3.931 -1.7493 -0.0153 -2.9933
  863MOL0     H16496   4.203   3.439   3.848 -0.2727 -1.1417 -0.0487
  863MOL0     H16497   4.393   3.489   4.045 -0.5797  0.4122  1.3093
  863MOL0     H16498   4.326   3.340   4.105  1.2765  0.2129 -0.6885
  863MOL0     H16499   4.179   3.609   4.046  2.2434  0.5129  0.1617
  863MOL0     H16500   4.080   3.471   4.072 -0.2785  1.7570  0.0389
  863MOL0     H16501   4.175   3.582   4.471 -0.1283  2.6586  0.7125
  863MOL0     H16502   4.591   3.354   3.658 -1.9110  0.2698  2.1749
  863MOL0     H16503   4.939   3.367   3.546  1.2399 -0.2895  1.7461
  863MOL0     H16504   4.776   3.415   3.498 -0.1227  1.5170 -0.0901
  863MOL0     H16505   4.887   3.533   3.581 -0.0528  0.4803 -2.1573
  864MOL0     O16506  10.412   6.673   0.059  0.4631 -0.9790 -0.1465
  864MOL0     C16507  10.417   6.588   0.157  0.3314  0.0814  0.1367
  864MOL0     O16508  10.373   6.601   0.284 -0.5164  0.1088 -0.8302
  864MOL0     C16509  10.275   6.693   0.301  0.0623 -0.3422  0.6161
  864MOL0     C16510  10.148   6.654   0.350 -0.0590 -0.4679  1.1377
  864MOL0     C16511  10.049   6.754   0.369 -0.4615  0.0679  0.5475
  864MOL0     C16512  10.075   6.889   0.356 -0.2940 -1.1083 -1.9668
  864MOL0     O16513   9.965   6.971   0.385  0.1918  0.5276  0.2167
  864MOL0     C16514   9.983   7.114   0.378 -0.1507  0.8138  0.0733
  864MOL0     C16515   9.880   7.178   0.466  1.0110  0.4279  0.4657
  864MOL0     C16516   9.854   7.116   0.606  0.3646 -0.1197  0.1992
  864MOL0     C16517   9.751   7.218   0.665 -0.2776 -1.1728  0.0752
  864MOL0     C16518   9.729   7.162   0.813  0.5493  0.1264  0.2162
  864MOL0     C16519   9.812   7.233   0.921 -0.8779  0.5544 -0.1124
  864MOL0     C16520   9.783   7.182   1.065 -0.1611  0.4383 -0.4429
  864MOL0     C16521   9.877   7.243   1.173 -0.6952  0.5187 -0.0825
  864MOL0     N16522   9.854   7.386   1.192 -0.1148  0.6217 -0.4311
  864MOL0     C16523   9.781   7.440   1.295 -0.5556  0.6660  0.3297
  864MOL0     C16524   9.799   7.575   1.270  1.6444  1.0254 -0.9072
  864MOL0     C16525   9.749   7.684   1.364  0.6224 -0.1804  0.6016
  864MOL0     C16526   9.850   7.755   1.454 -0.8129 -0.2074  0.4484
  864MOL0     C16527   9.798   7.886   1.504 -0.0266  0.0151 -0.6183
  864MOL0     C16528   9.805   8.006   1.407 -0.9757  0.8903  0.1462
  864MOL0     O16529   9.716   8.107   1.460  0.0459 -0.0828 -0.5960
  864MOL0     C16530   9.670   8.202   1.377  0.8042  0.3162  0.2124
  864MOL0     C16531   9.674   8.204   1.237 -0.1390  0.9507  0.3560
  864MOL0     C16532   9.609   8.301   1.166 -0.2193  0.1407  0.7340
  864MOL0     C16533   9.525   8.393   1.241 -0.0954  0.0840  0.0810
  864MOL0     C16534   9.467   8.508   1.170 -0.3021  0.1034 -0.0840
  864MOL0     O16535   9.450   8.623   1.246  0.7554  0.3226  0.2913
  864MOL0     C16536   9.378   8.722   1.176 -1.4889 -0.9916 -0.6915
  864MOL0     C16537   9.243   8.748   1.213  0.0518 -0.0647  0.6144
  864MOL0     C16538   9.188   8.859   1.153 -0.6578  0.3169 -0.6801
  864MOL0     C16539   9.267   8.945   1.077  1.1102  0.5131 -0.4263
  864MOL0     O16540   9.199   9.052   1.028  0.1596 -0.5678  0.4071
  864MOL0     C16541   9.120   9.025   0.909 -1.0579 -0.7138  0.2396
  864MOL0     C16542   9.072   9.153   0.857  0.1353  0.5202 -0.0447
  864MOL0     C16543   8.991   9.149   0.723 -0.1895  0.2115  0.2818
  864MOL0     C16544   8.902   9.268   0.697 -0.9557  0.7336 -0.3026
  864MOL0     C16545   8.827   9.247   0.575 -0.3106 -0.7828  0.4119
  864MOL0     C16546   8.723   9.362   0.537  0.1766 -0.0334 -1.2710
  864MOL0     C16547   8.779   9.462   0.436 -0.7404  0.1236  0.9048
  864MOL0     C16548   8.663   9.542   0.385 -0.1146 -0.3889  0.8144
  864MOL0    Cl16549   8.553   9.442   0.288 -0.0645 -0.4844  0.3681
  864MOL0     C16550   9.404   8.931   1.057  0.0401  0.8978  0.0531
  864MOL0     C16551   9.462   8.810   1.105  0.1042 -0.2307  0.3867
  864MOL0     O16552   9.458   8.494   1.051  0.0878  0.8188 -0.1906
  864MOL0     C16553   9.514   8.384   1.384  0.1943  0.1220 -0.3424
  864MOL0     C16554   9.582   8.285   1.447  0.1724  0.3181  0.5656
  864MOL0     N16555   9.865   7.597   1.156 -0.5053  0.2495  0.8010
  864MOL0     N16556   9.898   7.487   1.102 -0.5426 -0.0595  0.0694
  864MOL0     C16557  10.188   6.931   0.302  0.6990 -0.3351  0.2090
  864MOL0     C16558  10.288   6.831   0.279 -0.4068  0.0553  0.3245
  864MOL0     C16559  10.502   6.469   0.128  1.4311  0.5367 -0.8403
  864MOL0     C16560  10.599   6.490   0.025 -0.0592  0.7964  0.7185
  864MOL0     C16561  10.684   6.389  -0.013 -0.6458  0.3186  0.2929
  864MOL0     C16562  10.675   6.264   0.064 -0.3728  0.7399  1.1197
  864MOL0     O16563  10.773   6.169   0.034 -0.4195  0.1675  0.3835
  864MOL0     C16564  10.811   6.092   0.144 -0.3920  0.1369 -0.5426
  864MOL0     C16565  10.952   6.029   0.142  0.3366  0.7645  0.3683
  864MOL0     C16566  11.069   6.125   0.116  0.4715 -0.6446  0.0047
  864MOL0     C16567  11.210   6.053   0.100 -0.1654 -0.4863  0.9077
  864MOL0     C16568  11.206   5.917   0.038  0.7119 -0.2718 -0.2528
  864MOL0     C16569  11.203   5.805  -0.004 -0.8678  0.1066  0.4709
  864MOL0     C16570  10.576   6.241   0.160  0.4251 -0.3751 -0.6611
  864MOL0     C16571  10.490   6.347   0.191  0.5805 -0.1657 -0.5192
  864MOL0     C16572  10.376   6.311   0.290  0.7655  0.6718  0.7214
  864MOL0     H16573  10.131   6.548   0.364  2.3599 -0.9661  0.7164
  864MOL0     H16574   9.950   6.720   0.398  0.7885 -2.4483  2.1994
  864MOL0     H16575  10.081   7.150   0.411  0.5267  0.5989 -1.6373
  864MOL0     H16576   9.962   7.141   0.274  2.1424 -0.1705 -0.7063
  864MOL0     H16577   9.782   7.181   0.418 -0.1287  1.2043  2.7059
  864MOL0     H16578   9.912   7.281   0.480 -1.1339  0.9583  1.8118
  864MOL0     H16579   9.945   7.128   0.665  1.7513  0.5324 -1.9494
  864MOL0     H16580   9.814   7.014   0.608 -0.1457  0.0097 -1.3351
  864MOL0     H16581   9.776   7.324   0.673 -2.5607 -0.6606  1.5670
  864MOL0     H16582   9.670   7.183   0.600 -0.1878 -2.2570  0.5129
  864MOL0     H16583   9.621   7.171   0.831  0.8033  3.8633  0.6372
  864MOL0     H16584   9.743   7.054   0.823  0.0801  0.2029  2.0430
  864MOL0     H16585   9.920   7.217   0.915 -1.0319 -0.1032 -1.5342
  864MOL0     H16586   9.789   7.340   0.919  0.1897  0.8763  1.8449
  864MOL0     H16587   9.792   7.073   1.062  0.1346  0.4727 -1.2730
  864MOL0     H16588   9.677   7.199   1.088 -1.1479 -4.2330 -0.5554
  864MOL0     H16589   9.882   7.200   1.273  0.5345  0.3895 -0.1835
  864MOL0     H16590   9.978   7.231   1.131 -0.6449 -0.3827  0.2758
  864MOL0     H16591   9.735   7.391   1.380  0.9601 -0.0198  0.7903
  864MOL0     H16592   9.707   7.754   1.291 -0.5765 -0.4479  1.0154
  864MOL0     H16593   9.653   7.661   1.411 -0.2763  1.3229 -0.3967
  864MOL0     H16594   9.888   7.684   1.529  2.7667 -0.4032 -1.3297
  864MOL0     H16595   9.942   7.766   1.396 -2.0017  1.4364 -1.2268
  864MOL0     H16596   9.869   7.911   1.584 -0.1641 -0.2330 -0.4195
  864MOL0     H16597   9.705   7.870   1.559  0.1252 -1.9492 -0.8961
  864MOL0     H16598   9.780   7.973   1.306  0.1645  3.2069 -0.9663
  864MOL0     H16599   9.909   8.039   1.412 -0.5528 -0.5607  1.8963
  864MOL0     H16600   9.744   8.135   1.191  0.3679  2.0105 -0.4806
  864MOL0     H16601   9.606   8.295   1.057  1.4493 -3.2513  0.7278
  864MOL0     H16602   9.201   8.682   1.287  0.2020  0.8841  1.5788
  864MOL0     H16603   9.086   8.885   1.179 -0.8671 -0.2576 -0.9099
  864MOL0     H16604   9.188   8.990   0.830 -0.0796  2.1238 -0.3023
  864MOL0     H16605   9.042   8.949   0.918 -3.4415  1.5232 -0.2836
  864MOL0     H16606   9.016   9.208   0.932 -0.7057 -0.7551  0.2865
  864MOL0     H16607   9.158   9.217   0.835  0.1610 -0.3866 -3.0066
  864MOL0     H16608   9.058   9.139   0.637 -1.3614  0.1254 -0.6448
  864MOL0     H16609   8.923   9.064   0.724  0.0499 -0.0971 -2.3454
  864MOL0     H16610   8.949   9.367   0.700  1.6183 -0.4385  0.1633
  864MOL0     H16611   8.832   9.269   0.782 -2.3291 -0.4885 -1.3625
  864MOL0     H16612   8.773   9.155   0.598 -0.4210 -0.8494 -0.0983
  864MOL0     H16613   8.895   9.229   0.491 -2.2563 -1.9722 -1.0147
  864MOL0     H16614   8.628   9.318   0.507  0.3759 -0.2826 -1.5480
  864MOL0     H16615   8.707   9.412   0.633  2.4548  0.1249 -0.9117
  864MOL0     H16616   8.810   9.395   0.354 -1.5989  2.9224 -1.9000
  864MOL0     H16617   8.860   9.528   0.468  1.4882 -1.6980 -0.5880
  864MOL0     H16618   8.619   9.594   0.471 -2.3635 -0.4855 -0.2237
  864MOL0     H16619   8.690   9.629   0.324 -0.3201 -2.0335 -1.7702
  864MOL0     H16620   9.470   9.008   1.020  2.1438 -0.5371  0.6750
  864MOL0     H16621   9.568   8.797   1.089 -0.1246  0.9661 -3.2512
  864MOL0     H16622   9.445   8.445   1.442  0.4649 -0.2695  0.4104
  864MOL0     H16623   9.569   8.280   1.554 -5.5811 -0.5781  0.1333
  864MOL0     H16624  10.214   7.037   0.299  0.6150 -0.2098  2.1502
  864MOL0     H16625  10.384   6.854   0.234 -1.2677 -3.4952 -4.0389
  864MOL0     H16626  10.612   6.582  -0.031  2.5282 -0.4634 -0.9396
  864MOL0     H16627  10.767   6.413  -0.079 -0.0444 -2.9922 -0.3399
  864MOL0     H16628  10.738   6.012   0.156  1.7792 -2.1537 -1.7536
  864MOL0     H16629  10.808   6.144   0.240  0.0991 -3.6576  1.7415
  864MOL0     H16630  10.953   5.957   0.059  0.4153  1.4212 -0.2174
  864MOL0     H16631  10.965   5.971   0.233 -1.4469  2.0727  1.5324
  864MOL0     H16632  11.075   6.202   0.193 -2.2678 -1.8508  1.5317
  864MOL0     H16633  11.041   6.174   0.022 -3.7070 -1.6148  0.5631
  864MOL0     H16634  11.272   6.117   0.036 -3.4443  0.8256 -1.2434
  864MOL0     H16635  11.260   6.038   0.196  0.2228 -0.9208  0.6416
  864MOL0     H16636  11.195   5.706  -0.044  4.1326 -0.5129  0.4304
  864MOL0     H16637  10.562   6.153   0.223 -0.9188 -1.7626 -2.7827
  864MOL0     H16638  10.396   6.333   0.395  1.2264 -0.5005  0.8911
  864MOL0     H16639  10.281   6.357   0.262 -1.5098 -3.9530 -0.1340
  864MOL0     H16640  10.363   6.203   0.293 -1.1528  0.8044 -0.8158
  865MOL0     O16641   9.595   3.463   6.240 -0.1367  0.3537 -0.1266
  865MOL0     C16642   9.656   3.409   6.340 -0.2342 -1.5532  0.2700
  865MOL0     O16643   9.795   3.409   6.355 -0.1708  0.3996 -0.2273
  865MOL0     C16644   9.876   3.378   6.245 -0.1402  0.2236 -0.4036
  865MOL0     C16645  10.012   3.420   6.260 -0.7748 -0.5514  0.3088
  865MOL0     C16646  10.103   3.386   6.155 -0.5141  0.4390  0.8849
  865MOL0     C16647  10.065   3.321   6.034  0.0450  0.0274  0.4086
  865MOL0     O16648  10.160   3.295   5.940 -0.1399  0.1286  0.4906
  865MOL0     C16649  10.117   3.220   5.828  0.7518  0.1483  0.5087
  865MOL0     C16650  10.229   3.198   5.737  0.0663  0.5442 -0.3220
  865MOL0     C16651  10.272   3.324   5.664 -0.0153 -0.3159  0.0283
  865MOL0     C16652  10.401   3.303   5.585  0.1163 -0.1115 -0.5452
  865MOL0     C16653  10.443   3.411   5.484  0.5454  0.1020 -0.0294
  865MOL0     C16654  10.360   3.427   5.360  0.1477 -0.1871  0.7385
  865MOL0     C16655  10.377   3.311   5.267  0.3898  0.7417  0.7054
  865MOL0     C16656  10.282   3.320   5.134  1.2974  0.2631  0.5629
  865MOL0     N16657  10.334   3.427   5.033 -1.3412  0.8999  0.0823
  865MOL0     C16658  10.275   3.542   4.977  0.1611  0.3665 -0.1705
  865MOL0     C16659  10.352   3.575   4.864  0.7289 -0.5570 -1.7811
  865MOL0     C16660  10.349   3.689   4.764 -0.8348  0.0953 -0.5975
  865MOL0     C16661  10.306   3.830   4.807  0.6235 -0.5596 -0.3191
  865MOL0     C16662  10.242   3.899   4.695 -0.4082  0.5121 -0.3572
  865MOL0     C16663  10.165   4.017   4.774 -1.0712  0.7276  0.1710
  865MOL0     O16664  10.119   4.100   4.668 -0.6975 -0.2262  0.3145
  865MOL0     C16665  10.099   4.234   4.697  0.7868 -0.3360 -0.4083
  865MOL0     C16666  10.070   4.321   4.592  0.0433  0.4163  0.0703
  865MOL0     C16667  10.030   4.451   4.617  0.1055  0.3708 -0.2930
  865MOL0     C16668  10.008   4.501   4.746  0.7899  0.5290  0.8536
  865MOL0     C16669   9.959   4.640   4.760  0.2547  0.2532 -0.6491
  865MOL0     O16670   9.945   4.719   4.643  0.6184 -0.5555  0.0455
  865MOL0     C16671   9.904   4.851   4.655  0.1997 -0.5706  0.3878
  865MOL0     C16672   9.819   4.895   4.563 -0.4642 -0.2219  0.3255
  865MOL0     C16673   9.791   5.032   4.541 -0.2243  0.2714  0.2640
  865MOL0     C16674   9.836   5.126   4.632  0.2248  0.6750  0.3586
  865MOL0     O16675   9.808   5.258   4.608 -0.9492 -0.7002 -0.5997
  865MOL0     C16676   9.922   5.345   4.608  0.1083 -0.3124  0.0592
  865MOL0     C16677   9.863   5.489   4.580 -0.2061  0.0078 -0.6144
  865MOL0     C16678   9.861   5.585   4.704  0.7711  0.8836  0.2391
  865MOL0     C16679   9.795   5.721   4.665  0.1099  0.1551  0.5698
  865MOL0     C16680   9.816   5.818   4.779  0.5554  0.5811 -0.4881
  865MOL0     C16681   9.735   5.943   4.748 -0.2097  1.0824 -0.1370
  865MOL0     C16682   9.745   6.049   4.854 -0.3682 -0.1402 -0.6918
  865MOL0     C16683   9.790   6.188   4.806 -0.3247  0.6164  0.5144
  865MOL0    Cl16684   9.978   6.193   4.777  0.4524 -0.2801  0.0111
  865MOL0     C16685   9.904   5.077   4.755 -0.1841 -2.0906 -0.3459
  865MOL0     C16686   9.943   4.944   4.762 -0.1550  0.7535 -0.0767
  865MOL0     O16687   9.937   4.676   4.874 -0.5149  0.5202 -0.6942
  865MOL0     C16688  10.031   4.409   4.844 -0.0510 -0.2053  0.1373
  865MOL0     C16689  10.089   4.283   4.827  0.5619 -0.1842  0.3269
  865MOL0     N16690  10.452   3.485   4.862 -0.3096 -0.3257  0.5372
  865MOL0     N16691  10.443   3.398   4.952 -0.4867 -0.1200 -0.2037
  865MOL0     C16692   9.929   3.282   6.031 -0.0202  0.6166 -0.3116
  865MOL0     C16693   9.834   3.309   6.133  0.1272 -0.0618 -0.2287
  865MOL0     C16694   9.579   3.396   6.472  0.1309 -0.2949 -0.3496
  865MOL0     C16695   9.645   3.383   6.596 -0.4023 -0.2569  0.8786
  865MOL0     C16696   9.575   3.379   6.717  0.0696 -0.6089  0.3330
  865MOL0     C16697   9.435   3.381   6.721 -0.4759 -1.5532 -0.0493
  865MOL0     O16698   9.351   3.372   6.829  0.1920  0.5042 -1.0141
  865MOL0     C16699   9.351   3.239   6.891  0.2559 -0.1941  0.2361
  865MOL0     C16700   9.435   3.238   7.026 -0.7327 -0.0196  0.0252
  865MOL0     C16701   9.479   3.098   7.069 -0.3861  0.9179  0.1165
  865MOL0     C16702   9.595   3.088   7.175 -0.1533  0.0068  0.6921
  865MOL0     C16703   9.538   3.121   7.307 -0.0399 -0.4668 -0.3363
  865MOL0     C16704   9.496   3.152   7.417  0.2164  0.4090  0.8338
  865MOL0     C16705   9.363   3.393   6.603 -0.1290  1.0852  0.5968
  865MOL0     C16706   9.431   3.393   6.477 -0.3790  0.2502 -0.4702
  865MOL0     C16707   9.344   3.386   6.347  0.0543 -0.0886  0.3476
  865MOL0     H16708  10.040   3.463   6.355 -3.0634  1.0122  0.3572
  865MOL0     H16709  10.207   3.414   6.168  0.6734 -3.5935  1.3765
  865MOL0     H16710  10.070   3.129   5.865  0.5688 -0.9928 -2.2704
  865MOL0     H16711  10.044   3.276   5.769 -0.5874  0.6845  2.5848
  865MOL0     H16712  10.191   3.126   5.663 -1.0185 -0.5764  1.2632
  865MOL0     H16713  10.313   3.156   5.792  0.2976  2.0383  0.5191
  865MOL0     H16714  10.277   3.408   5.734 -1.4599  0.2544 -0.5132
  865MOL0     H16715  10.186   3.341   5.599  1.3264 -1.1146 -2.0297
  865MOL0     H16716  10.484   3.299   5.656 -2.7860 -0.7905  3.1375
  865MOL0     H16717  10.393   3.207   5.532  0.7358  1.2104 -3.1526
  865MOL0     H16718  10.435   3.507   5.536  0.9634 -1.2703  2.6937
  865MOL0     H16719  10.550   3.402   5.465  0.8119  2.1825  0.2038
  865MOL0     H16720  10.255   3.436   5.391 -1.2967  2.0418 -3.8895
  865MOL0     H16721  10.399   3.518   5.313 -0.6541 -0.4516 -0.4720
  865MOL0     H16722  10.341   3.227   5.327 -0.5151 -0.5671 -1.4989
  865MOL0     H16723  10.479   3.295   5.231 -1.0980 -1.3285 -3.3274
  865MOL0     H16724  10.277   3.221   5.089 -1.4990 -1.9589  5.0876
  865MOL0     H16725  10.179   3.347   5.158  1.0570  2.3572 -2.2836
  865MOL0     H16726  10.189   3.596   5.017  2.4066  2.5241  2.1101
  865MOL0     H16727  10.445   3.698   4.711  0.8024 -4.2643  1.1841
  865MOL0     H16728  10.271   3.649   4.699  0.4660  0.1145 -2.2586
  865MOL0     H16729  10.228   3.817   4.883 -0.6172  3.5147 -0.6324
  865MOL0     H16730  10.387   3.885   4.855 -0.8487  0.8189  0.6977
  865MOL0     H16731  10.160   3.836   4.659 -0.1754  1.0644 -1.9009
  865MOL0     H16732  10.311   3.927   4.616 -0.1675 -0.6600 -0.5922
  865MOL0     H16733  10.244   4.076   4.823  1.0431 -1.3773 -0.4871
  865MOL0     H16734  10.091   3.987   4.848  0.0865 -0.1450  1.0318
  865MOL0     H16735  10.064   4.284   4.491 -3.2776 -0.8636  0.6252
  865MOL0     H16736  10.007   4.523   4.539  3.2028  1.7381 -0.1124
  865MOL0     H16737   9.792   4.824   4.485  4.5059 -0.4995 -1.5100
  865MOL0     H16738   9.733   5.057   4.453  1.3253 -1.1104 -1.2189
  865MOL0     H16739   9.983   5.337   4.698  1.5747 -2.9260 -1.0668
  865MOL0     H16740   9.981   5.331   4.517 -1.4157  1.5369 -1.3058
  865MOL0     H16741   9.915   5.533   4.494  0.6670 -0.2242 -0.2151
  865MOL0     H16742   9.762   5.461   4.548 -0.0453 -2.7124  1.0017
  865MOL0     H16743   9.797   5.543   4.783 -1.0454  1.7658 -0.7009
  865MOL0     H16744   9.965   5.589   4.739  0.1916 -2.5055  2.8906
  865MOL0     H16745   9.689   5.694   4.656 -0.7816  2.2406  3.4867
  865MOL0     H16746   9.836   5.763   4.573 -0.5740  0.7564  0.5297
  865MOL0     H16747   9.918   5.855   4.792  0.3578  1.4207 -1.1728
  865MOL0     H16748   9.791   5.762   4.869 -1.9381  2.4604  0.1090
  865MOL0     H16749   9.771   5.986   4.655 -1.2703  2.9038  0.2417
  865MOL0     H16750   9.630   5.912   4.745 -0.4675  0.9987  3.7677
  865MOL0     H16751   9.811   6.033   4.939  2.7304 -1.2131 -3.1198
  865MOL0     H16752   9.646   6.065   4.897  0.1939 -0.5034  0.7675
  865MOL0     H16753   9.739   6.213   4.713 -1.3873  1.0746  1.2029
  865MOL0     H16754   9.769   6.259   4.887 -0.1287 -2.2259  3.2414
  865MOL0     H16755   9.928   5.139   4.841 -0.5820  3.3227 -3.6734
  865MOL0     H16756  10.007   4.907   4.842  0.8773  0.8171 -0.8506
  865MOL0     H16757  10.001   4.438   4.944  3.9048  2.9536  0.6390
  865MOL0     H16758  10.107   4.223   4.916  0.7184 -0.0097  0.4112
  865MOL0     H16759   9.888   3.220   5.952  3.3674 -0.1203 -1.6712
  865MOL0     H16760   9.738   3.259   6.120  1.2563 -1.5553 -4.0436
  865MOL0     H16761   9.753   3.382   6.605 -0.4832 -1.9012  2.3359
  865MOL0     H16762   9.633   3.381   6.809 -3.2143  0.8579  2.5933
  865MOL0     H16763   9.381   3.158   6.824 -0.4071  0.6712 -1.1630
  865MOL0     H16764   9.246   3.215   6.912 -0.0404 -0.3922 -1.3512
  865MOL0     H16765   9.379   3.291   7.104 -1.0063 -2.7652  1.8745
  865MOL0     H16766   9.522   3.300   7.002 -1.4493  1.1606  0.3819
  865MOL0     H16767   9.512   3.051   6.977 -2.9781  1.9227 -1.4420
  865MOL0     H16768   9.386   3.051   7.104  0.2304  0.1915  0.8164
  865MOL0     H16769   9.619   2.981   7.185  1.3746  0.4715  2.5649
  865MOL0     H16770   9.689   3.140   7.153 -1.0166  0.0333 -4.3140
  865MOL0     H16771   9.473   3.180   7.518  0.3541  0.6560  0.7956
  865MOL0     H16772   9.256   3.414   6.604 -0.1706  0.9385 -0.1075
  865MOL0     H16773   9.376   3.316   6.269 -0.4185 -1.4176  1.3097
  865MOL0     H16774   9.240   3.355   6.364 -0.8107  1.6468 -1.3089
  865MOL0     H16775   9.339   3.487   6.306 -1.8662 -0.4025 -0.3102
  866MOL0     O16776   9.975   7.783   7.277  0.0389  0.2879  0.3664
  866MOL0     C16777   9.911   7.698   7.339  0.1758  0.7753 -0.2181
  866MOL0     O16778   9.942   7.567   7.353  0.0295 -0.3558  0.6970
  866MOL0     C16779  10.043   7.526   7.264  0.1632 -0.9530 -0.3287
  866MOL0     C16780  10.016   7.525   7.129  0.5054 -0.6247 -0.4518
  866MOL0     C16781  10.125   7.494   7.043  0.1911  1.0639  0.0269
  866MOL0     C16782  10.249   7.443   7.091 -0.1377 -0.1817 -0.4871
  866MOL0     O16783  10.326   7.383   6.997  0.3344  0.3431 -0.4219
  866MOL0     C16784  10.464   7.384   7.015 -0.2738  0.1974  0.7748
  866MOL0     C16785  10.533   7.316   6.896  0.0988 -0.5333  0.2956
  866MOL0     C16786  10.514   7.374   6.758 -0.1480 -0.3415 -0.6331
  866MOL0     C16787  10.589   7.310   6.642  0.6493  0.3302 -0.2187
  866MOL0     C16788  10.553   7.370   6.510  0.7553  0.1463  0.1122
  866MOL0     C16789  10.430   7.298   6.458  0.0314 -0.4771  0.3681
  866MOL0     C16790  10.412   7.348   6.312 -0.5305  0.3151 -0.2326
  866MOL0     C16791  10.359   7.494   6.302  0.0926 -0.1614  0.2567
  866MOL0     N16792  10.352   7.531   6.156  0.2130  0.5820 -1.2498
  866MOL0     C16793  10.460   7.549   6.079 -0.4366  0.5032  0.5945
  866MOL0     C16794  10.435   7.504   5.956  1.2425 -0.6661 -1.1582
  866MOL0     C16795  10.529   7.505   5.835  0.4766  0.2759  0.0738
  866MOL0     C16796  10.583   7.636   5.776  0.3408 -0.3963 -0.1550
  866MOL0     C16797  10.471   7.732   5.743  0.8809 -1.2496 -0.3358
  866MOL0     C16798  10.533   7.865   5.713  0.3566 -0.7746  0.2143
  866MOL0     O16799  10.607   7.850   5.593  0.9783 -0.2171 -0.0056
  866MOL0     C16800  10.642   7.961   5.527  0.0703 -0.4968 -0.9103
  866MOL0     C16801  10.719   8.062   5.582  0.8465 -0.7528 -0.0674
  866MOL0     C16802  10.753   8.173   5.509  0.2452 -0.4677  0.7256
  866MOL0     C16803  10.703   8.188   5.378  1.0525  0.2534 -0.0745
  866MOL0     C16804  10.720   8.304   5.300 -0.3479 -0.2686  0.2248
  866MOL0     O16805  10.736   8.429   5.363  0.3598 -0.0669  0.8178
  866MOL0     C16806  10.725   8.540   5.283  0.4781 -0.1331 -0.2757
  866MOL0     C16807  10.841   8.614   5.255 -0.2790 -0.3177 -0.2512
  866MOL0     C16808  10.829   8.731   5.175  1.0714  0.2055  0.6561
  866MOL0     C16809  10.705   8.757   5.115 -0.0966  0.2699  0.5024
  866MOL0     O16810  10.674   8.863   5.037 -0.9786  0.4314 -1.3332
  866MOL0     C16811  10.757   8.982   5.049  0.2929 -0.1032 -0.1693
  866MOL0     C16812  10.724   9.079   5.168  0.5321 -1.1490  0.0937
  866MOL0     C16813  10.580   9.139   5.148  0.2142 -0.8970  0.5319
  866MOL0     C16814  10.570   9.253   5.043  0.3739 -0.5486 -0.3619
  866MOL0     C16815  10.431   9.322   5.034 -0.3279 -0.0471  1.2108
  866MOL0     C16816  10.446   9.458   4.962 -0.2042 -0.1255 -0.1399
  866MOL0     C16817  10.503   9.576   5.041 -0.1020 -0.5055 -0.3344
  866MOL0     C16818  10.389   9.681   5.074  0.6227 -0.0720  0.2138
  866MOL0    Cl16819  10.327   9.764   4.926  0.0419  0.3906 -0.1146
  866MOL0     C16820  10.604   8.663   5.129 -0.3807  0.2442  0.7932
  866MOL0     C16821  10.608   8.557   5.217  0.9264  0.2437 -0.7167
  866MOL0     O16822  10.736   8.281   5.182 -0.2330  0.2305 -0.3451
  866MOL0     C16823  10.625   8.083   5.327 -0.6801  0.6805 -0.4199
  866MOL0     C16824  10.599   7.969   5.397 -0.2532  0.8257 -0.0460
  866MOL0     N16825  10.313   7.444   5.972  0.0654  0.1360  0.3905
  866MOL0     N16826  10.256   7.464   6.082 -0.4511 -0.0196 -0.1032
  866MOL0     C16827  10.261   7.435   7.229  0.6254 -0.3438 -0.2384
  866MOL0     C16828  10.168   7.493   7.317 -1.0966 -0.1589  0.0385
  866MOL0     C16829   9.793   7.747   7.416 -0.1519  0.7601  0.3155
  866MOL0     C16830   9.696   7.661   7.461 -0.2984  0.0040 -0.4186
  866MOL0     C16831   9.601   7.693   7.555 -0.0763 -0.3452 -0.1838
  866MOL0     C16832   9.588   7.828   7.582 -0.2827 -0.2336  0.1360
  866MOL0     O16833   9.464   7.865   7.641 -0.2541 -0.4618 -0.5417
  866MOL0     C16834   9.423   7.797   7.759 -0.8420 -0.1622 -0.5503
  866MOL0     C16835   9.344   7.905   7.834  0.7664  1.3588  0.1832
  866MOL0     C16836   9.419   7.993   7.917  0.0498  1.0166  0.1120
  866MOL0     C16837   9.460   8.130   7.844  0.1383 -0.7708  0.2494
  866MOL0     C16838   9.599   8.162   7.879  0.2004 -0.0733 -0.6533
  866MOL0     C16839   9.715   8.193   7.902 -0.1174  0.6430  0.1875
  866MOL0     C16840   9.676   7.923   7.539 -0.0913 -0.6724 -0.5904
  866MOL0     C16841   9.786   7.886   7.459 -0.6132  0.7701  0.1723
  866MOL0     C16842   9.892   7.993   7.429  0.0621  0.2807  0.0133
  866MOL0     H16843   9.913   7.532   7.093  0.5563  1.8478 -0.2405
  866MOL0     H16844  10.102   7.490   6.937 -0.8910  3.6318  0.0872
  866MOL0     H16845  10.499   7.487   7.000 -2.0366  0.8792  1.1364
  866MOL0     H16846  10.495   7.336   7.108 -0.2487 -2.1633 -0.3869
  866MOL0     H16847  10.504   7.211   6.894 -1.3150 -0.1558 -0.6654
  866MOL0     H16848  10.638   7.329   6.921  0.0982  0.0802 -0.0115
  866MOL0     H16849  10.539   7.480   6.757  0.9177 -0.5164 -3.6270
  866MOL0     H16850  10.409   7.362   6.730  0.1869 -1.3611 -1.4912
  866MOL0     H16851  10.697   7.324   6.653  0.7445 -0.7420  0.2518
  866MOL0     H16852  10.572   7.203   6.633  2.0397 -0.2161  2.6549
  866MOL0     H16853  10.551   7.479   6.514  1.5924  0.1561  0.3014
  866MOL0     H16854  10.645   7.338   6.460  0.6307  0.3284 -0.2363
  866MOL0     H16855  10.453   7.191   6.465  0.4174 -0.3594  0.9133
  866MOL0     H16856  10.337   7.312   6.515 -1.5338 -2.6224 -1.4611
  866MOL0     H16857  10.339   7.283   6.263 -1.9848 -0.0331  2.2112
  866MOL0     H16858  10.511   7.337   6.267  0.9863 -2.0763  3.2052
  866MOL0     H16859  10.259   7.490   6.344 -0.6036  3.0648 -0.7715
  866MOL0     H16860  10.426   7.564   6.354  0.8308 -0.7521  0.1244
  866MOL0     H16861  10.550   7.600   6.114  2.4782 -2.3419 -2.1111
  866MOL0     H16862  10.611   7.434   5.849  0.3612  0.6066  3.1401
  866MOL0     H16863  10.462   7.463   5.760  2.2413  0.0621 -1.4493
  866MOL0     H16864  10.642   7.681   5.857 -0.0092 -0.4703  0.1436
  866MOL0     H16865  10.652   7.622   5.692  1.8654  0.5121  0.8843
  866MOL0     H16866  10.394   7.738   5.821  0.4960 -3.7822 -0.4241
  866MOL0     H16867  10.427   7.673   5.661  2.8538 -2.1818 -0.7950
  866MOL0     H16868  10.599   7.904   5.791  0.5859  0.3836 -0.5223
  866MOL0     H16869  10.454   7.940   5.703  0.2917 -1.0679 -2.0966
  866MOL0     H16870  10.765   8.054   5.680 -1.3280 -0.6387  1.0229
  866MOL0     H16871  10.818   8.254   5.540 -0.8253  0.6852  0.0557
  866MOL0     H16872  10.927   8.569   5.305 -2.8650 -4.0459  1.2987
  866MOL0     H16873  10.923   8.781   5.154  1.4410 -0.1301  1.4424
  866MOL0     H16874  10.863   8.959   5.056 -0.0343 -1.2826  1.6583
  866MOL0     H16875  10.720   9.025   4.955 -0.0122 -1.4267 -0.6870
  866MOL0     H16876  10.725   9.027   5.264  1.8148 -0.3036  0.5771
  866MOL0     H16877  10.799   9.159   5.165  0.6609 -1.2459 -2.8306
  866MOL0     H16878  10.520   9.058   5.106 -0.2470  0.7294 -2.2661
  866MOL0     H16879  10.544   9.171   5.246  0.2556  2.1406 -0.3215
  866MOL0     H16880  10.589   9.202   4.948 -3.4045 -0.6974 -1.1990
  866MOL0     H16881  10.644   9.328   5.073 -2.1483  1.9058  0.2265
  866MOL0     H16882  10.395   9.338   5.136 -0.4588  2.4048  0.8287
  866MOL0     H16883  10.369   9.257   4.972  1.2345 -0.5601  0.1237
  866MOL0     H16884  10.505   9.453   4.870 -1.5250  3.4454 -1.3353
  866MOL0     H16885  10.344   9.484   4.933 -0.5846 -1.4361 -0.0343
  866MOL0     H16886  10.593   9.623   5.001 -0.0551  1.4495  1.8384
  866MOL0     H16887  10.527   9.551   5.144  0.1401  3.0631  0.6126
  866MOL0     H16888  10.309   9.635   5.133  1.3229 -1.9708 -0.2790
  866MOL0     H16889  10.438   9.757   5.136 -3.0908  3.2436 -0.4650
  866MOL0     H16890  10.520   8.692   5.067 -0.0735 -2.0045 -0.8031
  866MOL0     H16891  10.530   8.483   5.230 -2.8994  3.2823 -3.8239
  866MOL0     H16892  10.563   8.097   5.239  0.5959  0.8954 -1.3109
  866MOL0     H16893  10.538   7.891   5.351  2.7989 -1.3142 -0.7268
  866MOL0     H16894  10.352   7.383   7.261  0.3989 -0.1031  0.8283
  866MOL0     H16895  10.192   7.494   7.423 -2.7774 -0.3758  0.4576
  866MOL0     H16896   9.711   7.556   7.441 -1.7514 -0.2365 -0.3426
  866MOL0     H16897   9.524   7.618   7.569 -0.8609  0.1183 -1.8700
  866MOL0     H16898   9.504   7.762   7.825  0.4160 -0.9742 -2.4307
  866MOL0     H16899   9.370   7.707   7.730  2.0834 -2.2179  0.0183
  866MOL0     H16900   9.262   7.854   7.886 -0.4927  1.3363 -1.7282
  866MOL0     H16901   9.296   7.968   7.758  0.4221  0.4698 -0.3467
  866MOL0     H16902   9.505   7.935   7.951 -0.7151 -0.9538 -1.1660
  866MOL0     H16903   9.361   8.018   8.006 -0.1559 -0.5862  0.4466
  866MOL0     H16904   9.452   8.112   7.737  3.9979 -0.4649 -0.2366
  866MOL0     H16905   9.396   8.218   7.857  1.3287  0.5874 -2.2923
  866MOL0     H16906   9.819   8.216   7.900  0.0234  0.1768  1.3992
  866MOL0     H16907   9.663   8.030   7.550 -0.6375 -0.6088 -1.6844
  866MOL0     H16908   9.858   8.087   7.475  1.9621  1.2570 -0.4806
  866MOL0     H16909   9.983   7.954   7.473 -2.2555 -2.2666  3.0032
  866MOL0     H16910   9.919   8.004   7.324  0.6021 -1.9663 -0.1236
  867MOL0     O16911   9.994   0.963  11.231  0.3223  0.1069  0.0294
  867MOL0     C16912  10.065   0.890  11.305  0.0093  0.1040  1.5800
  867MOL0     O16913  10.019   0.762  11.350  0.3286  0.4579 -0.3106
  867MOL0     C16914   9.890   0.723  11.337 -0.3746  0.0236  0.6474
  867MOL0     C16915   9.780   0.813  11.360 -0.3852  0.2869  0.0925
  867MOL0     C16916   9.650   0.772  11.335  0.6381  0.8526 -0.8429
  867MOL0     C16917   9.631   0.633  11.308 -0.9326 -0.2989  1.4916
  867MOL0     O16918   9.507   0.569  11.295  0.4880 -0.0526 -0.3905
  867MOL0     C16919   9.392   0.646  11.256 -0.1525 -0.0583  0.2498
  867MOL0     C16920   9.277   0.557  11.210 -0.2885  2.0870  0.3357
  867MOL0     C16921   9.136   0.620  11.219 -0.6401  0.6583  0.2160
  867MOL0     C16922   9.128   0.745  11.130  0.7927  0.1459 -0.5465
  867MOL0     C16923   8.984   0.794  11.102 -0.2196  0.3424 -0.1417
  867MOL0     C16924   8.975   0.908  11.000 -0.3029 -0.1374 -0.5791
  867MOL0     C16925   8.976   1.050  11.054 -0.1058 -0.3217 -0.2917
  867MOL0     C16926   8.853   1.091  11.122  0.2823 -0.3867  0.3622
  867MOL0     N16927   8.761   1.169  11.030 -0.1791  0.5572  0.3468
  867MOL0     C16928   8.653   1.262  11.060 -0.1717  0.8754  0.2440
  867MOL0     C16929   8.577   1.249  10.946 -0.1755  0.0374  0.3304
  867MOL0     C16930   8.435   1.291  10.937  0.8154 -0.2304 -0.9416
  867MOL0     C16931   8.430   1.448  10.930 -0.8008 -0.1143 -0.0471
  867MOL0     C16932   8.479   1.504  10.795 -0.2780 -0.0426  0.5368
  867MOL0     C16933   8.473   1.660  10.798  0.3729 -0.2523  0.0118
  867MOL0     O16934   8.531   1.714  10.681 -0.3511 -0.2188 -0.6347
  867MOL0     C16935   8.508   1.845  10.658  0.3487 -0.0240 -0.9340
  867MOL0     C16936   8.417   1.932  10.729  0.0324  1.0032  0.8596
  867MOL0     C16937   8.413   2.064  10.706  0.5709 -0.2428  0.9441
  867MOL0     C16938   8.493   2.127  10.602 -0.4805  0.3148 -0.7302
  867MOL0     C16939   8.516   2.271  10.581  0.1605  0.5962 -0.6204
  867MOL0     O16940   8.525   2.301  10.447 -0.1069 -0.8343  0.4026
  867MOL0     C16941   8.561   2.430  10.407 -0.4467 -0.2703 -1.1613
  867MOL0     C16942   8.463   2.515  10.351 -1.3179 -0.5760 -0.2657
  867MOL0     C16943   8.501   2.641  10.307  0.9232 -0.4269  0.7946
  867MOL0     C16944   8.635   2.687  10.313  0.8588  0.4085 -0.4953
  867MOL0     O16945   8.689   2.814  10.272  0.2956 -0.8121 -0.6230
  867MOL0     C16946   8.609   2.917  10.211 -0.2635 -0.1749  0.7607
  867MOL0     C16947   8.705   3.027  10.152 -0.3885  0.2958  0.1809
  867MOL0     C16948   8.744   3.140  10.248  0.5098  0.0734 -0.6065
  867MOL0     C16949   8.839   3.239  10.200 -0.1996 -0.5405  0.3094
  867MOL0     C16950   8.900   3.324  10.313 -0.9779 -0.3155  0.9883
  867MOL0     C16951   9.018   3.396  10.251 -0.0076 -1.0325 -0.9132
  867MOL0     C16952   9.055   3.511  10.339 -0.2099  0.1058 -0.5177
  867MOL0     C16953   9.164   3.593  10.278  1.0779  0.1881 -0.4104
  867MOL0    Cl16954   9.197   3.751  10.350  0.0961  0.2531  0.2049
  867MOL0     C16955   8.728   2.604  10.379 -0.3977  0.3669 -0.3586
  867MOL0     C16956   8.695   2.473  10.435  0.1876 -0.3544 -0.1978
  867MOL0     O16957   8.522   2.361  10.672  0.3824  1.0247  0.2554
  867MOL0     C16958   8.574   2.044  10.524  0.8486  0.2852 -0.2148
  867MOL0     C16959   8.571   1.907  10.548 -0.1636  0.0552  0.1970
  867MOL0     N16960   8.643   1.168  10.852  0.4903  0.5339  0.2635
  867MOL0     N16961   8.745   1.110  10.907 -0.5900 -0.3937 -0.3823
  867MOL0     C16962   9.747   0.552  11.278  0.2619 -0.4043  0.5195
  867MOL0     C16963   9.875   0.597  11.297 -0.1054  0.9926  0.2061
  867MOL0     C16964  10.194   0.937  11.360 -0.0664  0.2005 -0.1517
  867MOL0     C16965  10.236   0.879  11.478  0.7468 -0.8024 -0.1082
  867MOL0     C16966  10.340   0.930  11.565  0.6140  0.4110 -0.1645
  867MOL0     C16967  10.399   1.044  11.509 -0.1509 -0.0792 -0.3292
  867MOL0     O16968  10.479   1.121  11.592 -0.8917 -0.1469 -0.1285
  867MOL0     C16969  10.522   1.249  11.543  0.3656 -0.8341 -0.4892
  867MOL0     C16970  10.572   1.337  11.661  0.8618  0.3801  0.3247
  867MOL0     C16971  10.607   1.476  11.608 -0.6265 -0.6553  0.2842
  867MOL0     C16972  10.724   1.532  11.698 -0.2474 -0.5670  0.9334
  867MOL0     C16973  10.779   1.659  11.629 -0.6564 -0.2432  0.1037
  867MOL0     C16974  10.843   1.752  11.593  1.2242  0.1752 -0.0399
  867MOL0     C16975  10.371   1.090  11.379 -0.1102 -1.0619 -0.5369
  867MOL0     C16976  10.276   1.040  11.306  0.9095 -0.4750  1.3072
  867MOL0     C16977  10.252   1.090  11.167 -0.4618  0.4106 -0.4696
  867MOL0     H16978   9.789   0.918  11.383 -4.1826  0.4884  1.3537
  867MOL0     H16979   9.564   0.831  11.365  2.2842  1.4551  3.2179
  867MOL0     H16980   9.361   0.707  11.341 -1.8218  0.6120 -0.7884
  867MOL0     H16981   9.423   0.711  11.174 -2.4596 -1.9879 -2.3518
  867MOL0     H16982   9.277   0.475  11.281  0.6732 -0.4341 -2.3643
  867MOL0     H16983   9.279   0.519  11.107  1.5651  0.3570  0.9650
  867MOL0     H16984   9.119   0.632  11.327  2.4940 -0.0152  0.8897
  867MOL0     H16985   9.061   0.548  11.183 -0.8479  1.8606 -1.8475
  867MOL0     H16986   9.191   0.816  11.184  2.0995 -0.4076 -1.2938
  867MOL0     H16987   9.168   0.720  11.032  1.7443  1.5198 -0.5301
  867MOL0     H16988   8.943   0.713  11.042 -0.3722  1.2318 -1.2671
  867MOL0     H16989   8.936   0.818  11.198  2.3071  0.4763  1.1874
  867MOL0     H16990   9.056   0.899  10.927  0.8205  0.0948  0.5981
  867MOL0     H16991   8.885   0.897  10.939 -0.6927  1.4655 -0.3392
  867MOL0     H16992   8.988   1.123  10.974  2.0673  1.6270  1.6638
  867MOL0     H16993   9.057   1.065  11.126 -2.5305  1.5508  2.2942
  867MOL0     H16994   8.797   1.008  11.166  1.6498 -1.4070  0.2387
  867MOL0     H16995   8.896   1.150  11.203  3.8163 -0.6477 -1.1459
  867MOL0     H16996   8.627   1.316  11.150  2.2850  1.7312  0.4866
  867MOL0     H16997   8.390   1.235  10.855 -2.6207  1.6543 -0.5012
  867MOL0     H16998   8.383   1.247  11.023 -2.2105  0.2615 -2.4011
  867MOL0     H16999   8.335   1.499  10.946  0.3064  2.3093 -0.7865
  867MOL0     H17000   8.496   1.468  11.014 -0.3402 -0.4295 -0.3295
  867MOL0     H17001   8.408   1.465  10.721 -1.1395  1.3974  0.5661
  867MOL0     H17002   8.578   1.465  10.771  1.1868  1.3799  3.6432
  867MOL0     H17003   8.534   1.686  10.885  1.0178 -2.9502  0.4624
  867MOL0     H17004   8.368   1.686  10.810  0.5098  1.4530 -1.9204
  867MOL0     H17005   8.361   1.894  10.815  0.3886  0.3185  0.7947
  867MOL0     H17006   8.352   2.128  10.769  1.7238  0.8530  0.9912
  867MOL0     H17007   8.364   2.480  10.323 -2.1724 -0.0118  1.8799
  867MOL0     H17008   8.425   2.698  10.255  0.6143 -2.9775 -1.7846
  867MOL0     H17009   8.560   2.874  10.123 -2.9532 -1.1646  2.5934
  867MOL0     H17010   8.528   2.954  10.275 -1.6009  1.2464 -1.6221
  867MOL0     H17011   8.803   2.990  10.121  0.4463  1.6278  1.0998
  867MOL0     H17012   8.656   3.070  10.064  2.6306  1.3112 -1.1440
  867MOL0     H17013   8.649   3.188  10.273  0.4114  0.5097 -1.7666
  867MOL0     H17014   8.778   3.105  10.346  0.7252 -2.2898 -1.4594
  867MOL0     H17015   8.782   3.307  10.136  1.6264  2.2573  1.4886
  867MOL0     H17016   8.920   3.197  10.140  1.0464 -0.4673  1.8991
  867MOL0     H17017   8.946   3.263  10.391  2.8071  1.0813  0.0394
  867MOL0     H17018   8.820   3.387  10.354 -1.3530 -0.0562 -0.0866
  867MOL0     H17019   9.107   3.332  10.258  0.0168 -0.8811  0.7306
  867MOL0     H17020   8.998   3.433  10.151  1.8295 -2.7762 -2.0046
  867MOL0     H17021   9.085   3.477  10.439  2.4265 -1.1403 -1.6199
  867MOL0     H17022   8.971   3.579  10.351  1.0469  1.9994 -1.8490
  867MOL0     H17023   9.254   3.534  10.260  1.4106  1.0799 -1.8079
  867MOL0     H17024   9.124   3.620  10.180 -0.6801 -0.8422 -0.0225
  867MOL0     H17025   8.835   2.622  10.378 -0.1356 -1.0260  0.2257
  867MOL0     H17026   8.770   2.413  10.485  1.1521 -0.2210 -1.4407
  867MOL0     H17027   8.627   2.083  10.438 -0.3663 -0.1919 -1.2043
  867MOL0     H17028   8.619   1.838  10.478 -0.3639 -0.7960  0.8764
  867MOL0     H17029   9.726   0.447  11.261  2.7563 -0.7461 -0.8315
  867MOL0     H17030   9.971   0.547  11.289  0.0066  1.3045 -0.4614
  867MOL0     H17031  10.174   0.804  11.525 -2.4641  0.4713 -1.9642
  867MOL0     H17032  10.354   0.897  11.668 -3.5312  0.8944  0.7050
  867MOL0     H17033  10.443   1.309  11.496  1.4350  2.8682  1.9646
  867MOL0     H17034  10.609   1.230  11.480  2.1307  2.6215  0.6568
  867MOL0     H17035  10.659   1.286  11.704  0.6778  1.6480  2.3336
  867MOL0     H17036  10.497   1.342  11.740  0.0221  3.0980 -0.5194
  867MOL0     H17037  10.525   1.548  11.612  2.9521  3.9659 -0.5398
  867MOL0     H17038  10.627   1.469  11.501 -0.0814 -0.3513  0.3578
  867MOL0     H17039  10.677   1.557  11.794  0.1892  3.1889  0.3169
  867MOL0     H17040  10.800   1.454  11.710  1.5850  0.4521 -2.6176
  867MOL0     H17041  10.911   1.826  11.555 -1.4082  1.1609 -3.4174
  867MOL0     H17042  10.405   1.182  11.332 -4.1471 -1.0546 -4.0195
  867MOL0     H17043  10.154   1.135  11.148 -0.3271  0.8918 -0.0632
  867MOL0     H17044  10.323   1.168  11.136  3.4431 -3.3929 -2.0451
  867MOL0     H17045  10.270   1.000  11.108 -2.0251 -2.6797  3.3580
  868MOL0     O17046   7.399   9.496   1.950 -0.2159  0.2960 -1.1133
  868MOL0     C17047   7.316   9.427   1.895  0.0466 -0.0341  0.1759
  868MOL0     O17048   7.340   9.336   1.805 -0.4501  0.1662 -0.0156
  868MOL0     C17049   7.470   9.305   1.769  0.1603  0.3079  0.5448
  868MOL0     C17050   7.588   9.316   1.849 -0.7707 -1.1777  0.0307
  868MOL0     C17051   7.708   9.265   1.800  0.5803  0.3017  0.8610
  868MOL0     C17052   7.717   9.217   1.670 -1.0989  0.0091 -0.1066
  868MOL0     O17053   7.822   9.149   1.613  0.4973  0.1027 -0.9370
  868MOL0     C17054   7.953   9.194   1.666  0.6834 -0.5083 -0.2146
  868MOL0     C17055   8.060   9.100   1.614  0.7006 -0.1994 -0.4037
  868MOL0     C17056   8.056   8.954   1.666 -0.2795 -0.0353 -0.1964
  868MOL0     C17057   8.205   8.906   1.675  0.2906 -0.4737  0.1108
  868MOL0     C17058   8.287   8.919   1.812 -0.7891  0.1216 -0.3131
  868MOL0     C17059   8.223   8.822   1.917 -0.2331  0.1503 -0.1242
  868MOL0     C17060   8.314   8.815   2.036 -0.2102  0.6528 -0.7470
  868MOL0     C17061   8.246   8.766   2.165  0.2274 -0.2077 -0.3924
  868MOL0     N17062   8.147   8.647   2.142 -0.1619 -0.3218 -0.5525
  868MOL0     C17063   8.179   8.520   2.094 -0.0097 -0.4830 -0.2689
  868MOL0     C17064   8.066   8.470   2.042 -0.0424  1.1802 -0.7365
  868MOL0     C17065   8.056   8.345   1.959  0.4205  0.2614  0.3430
  868MOL0     C17066   7.911   8.308   1.924  0.7752 -0.5362  0.9209
  868MOL0     C17067   7.883   8.166   1.865 -0.8573  1.5049 -0.1704
  868MOL0     C17068   7.733   8.124   1.876 -0.4001  0.6923  0.6005
  868MOL0     O17069   7.672   8.150   2.004 -0.5605  0.2708  0.7815
  868MOL0     C17070   7.666   8.060   2.101  0.7145 -0.5595 -0.3186
  868MOL0     C17071   7.782   8.000   2.160 -0.0484  0.0550  0.5228
  868MOL0     C17072   7.764   7.912   2.269 -0.1170 -0.3824  0.4632
  868MOL0     C17073   7.639   7.880   2.319 -0.4808  0.6081  0.0400
  868MOL0     C17074   7.623   7.792   2.438 -0.7424 -0.3151  0.1994
  868MOL0     O17075   7.731   7.715   2.464 -0.2136 -1.1793 -0.4967
  868MOL0     C17076   7.724   7.597   2.538  0.2496 -1.1723 -0.7554
  868MOL0     C17077   7.603   7.539   2.592 -0.8175 -0.3253  0.2805
  868MOL0     C17078   7.615   7.440   2.690  0.0433  0.6535  0.6918
  868MOL0     C17079   7.737   7.375   2.721 -1.1491  0.7937  0.4847
  868MOL0     O17080   7.733   7.262   2.806 -0.6316  0.3770 -0.5195
  868MOL0     C17081   7.796   7.140   2.773  0.4662 -0.1639 -0.2939
  868MOL0     C17082   7.864   7.066   2.882 -0.4544  0.3136  0.3131
  868MOL0     C17083   7.953   7.162   2.975  0.3670 -0.5459  0.3262
  868MOL0     C17084   8.009   7.089   3.098 -0.5385  0.8753  0.4683
  868MOL0     C17085   8.099   7.180   3.183  1.4992 -0.4226  0.2103
  868MOL0     C17086   8.009   7.261   3.283 -0.7475 -0.5673  0.3055
  868MOL0     C17087   8.097   7.344   3.378 -0.4019  0.0856  0.4176
  868MOL0     C17088   8.181   7.253   3.471 -0.0221 -0.5008  0.5444
  868MOL0    Cl17089   8.243   7.335   3.619 -0.4659 -0.2773  0.0220
  868MOL0     C17090   7.850   7.424   2.652  0.0880 -0.5760  0.0589
  868MOL0     C17091   7.841   7.532   2.567  0.8005  0.0267  0.2786
  868MOL0     O17092   7.525   7.807   2.516  0.2768 -0.1856 -0.6627
  868MOL0     C17093   7.527   7.942   2.257  0.4062 -1.1603 -0.1347
  868MOL0     C17094   7.542   8.030   2.152 -0.0496 -0.5730  1.1840
  868MOL0     N17095   7.961   8.548   2.078  0.0644 -0.6460 -0.4953
  868MOL0     N17096   8.008   8.658   2.128 -1.3082  0.7087  0.1153
  868MOL0     C17097   7.609   9.213   1.597 -0.4392  0.6909  0.8576
  868MOL0     C17098   7.493   9.274   1.638  0.6872 -0.0451 -0.2064
  868MOL0     C17099   7.173   9.463   1.918  0.6302  0.2392 -0.8511
  868MOL0     C17100   7.073   9.399   1.849  0.0658  0.7436 -0.4319
  868MOL0     C17101   6.937   9.432   1.867  0.4963 -0.1474  0.5946
  868MOL0     C17102   6.893   9.530   1.961  0.8272  1.1752  0.1718
  868MOL0     O17103   6.758   9.572   1.984  0.1096  0.4732  0.5789
  868MOL0     C17104   6.643   9.511   1.930  0.9296  0.5272 -0.6814
  868MOL0     C17105   6.630   9.367   1.978  0.2534  0.6967  0.4400
  868MOL0     C17106   6.666   9.322   2.125  0.3894  0.4648  0.0972
  868MOL0     C17107   6.610   9.416   2.227  0.3404 -0.1889 -0.7055
  868MOL0     C17108   6.639   9.353   2.370  0.2878 -0.7475  0.7905
  868MOL0     C17109   6.664   9.309   2.478  0.6545  0.2005 -0.1641
  868MOL0     C17110   6.996   9.594   2.024  0.1584  0.1068  0.1229
  868MOL0     C17111   7.133   9.565   2.001  0.7744 -0.3699 -0.1614
  868MOL0     C17112   7.217   9.663   2.077  0.3855  1.3099  0.1675
  868MOL0     H17113   7.581   9.344   1.954 -0.7846 -1.0580 -0.0029
  868MOL0     H17114   7.785   9.245   1.873 -0.9507 -1.1832  2.1542
  868MOL0     H17115   7.973   9.293   1.624  0.5743 -1.5325 -2.8743
  868MOL0     H17116   7.953   9.194   1.776  2.4989 -1.1984 -0.1808
  868MOL0     H17117   8.159   9.133   1.646  1.7361 -1.7763 -1.8155
  868MOL0     H17118   8.061   9.102   1.504  2.4824 -0.7142 -0.4251
  868MOL0     H17119   7.997   8.900   1.591 -1.8753 -1.8049  2.2008
  868MOL0     H17120   8.007   8.947   1.763 -1.9261  0.2937 -0.9731
  868MOL0     H17121   8.210   8.800   1.647 -0.7113 -0.4868 -0.0554
  868MOL0     H17122   8.259   8.953   1.592 -0.7858 -0.3276 -0.5324
  868MOL0     H17123   8.388   8.883   1.790 -0.9361  0.6417 -2.0421
  868MOL0     H17124   8.312   9.020   1.847  2.3060 -0.8212  0.4604
  868MOL0     H17125   8.124   8.861   1.941 -0.5003 -0.1888 -0.6526
  868MOL0     H17126   8.195   8.720   1.889 -2.0681  0.7810 -0.7289
  868MOL0     H17127   8.352   8.915   2.062 -1.9174  1.2434 -0.3894
  868MOL0     H17128   8.398   8.750   2.013 -1.8290 -1.0466 -2.1493
  868MOL0     H17129   8.312   8.737   2.247 -1.6761  0.2908  1.4077
  868MOL0     H17130   8.173   8.844   2.188 -1.0753 -0.2201 -3.8396
  868MOL0     H17131   8.277   8.473   2.097  0.0813 -0.3201  3.5189
  868MOL0     H17132   8.106   8.355   1.862 -0.2277  2.7253  0.1953
  868MOL0     H17133   8.090   8.253   2.007 -1.1122 -2.1441 -2.8180
  868MOL0     H17134   7.847   8.306   2.013 -1.5304 -0.0934 -0.6339
  868MOL0     H17135   7.892   8.390   1.854  1.6998  0.7408  2.1168
  868MOL0     H17136   7.951   8.093   1.909 -0.2235  0.5921 -2.5138
  868MOL0     H17137   7.911   8.156   1.760 -5.0316 -2.7734 -1.2304
  868MOL0     H17138   7.732   8.018   1.850  1.8378  1.3038 -2.4695
  868MOL0     H17139   7.673   8.187   1.809 -0.6156  1.8541  1.8343
  868MOL0     H17140   7.876   8.034   2.119 -0.6429  2.0504  0.6683
  868MOL0     H17141   7.852   7.867   2.313  2.5478  4.4554  0.7147
  868MOL0     H17142   7.515   7.591   2.555 -0.6781 -1.3047 -1.5755
  868MOL0     H17143   7.531   7.402   2.746  1.3142 -1.6309  1.1913
  868MOL0     H17144   7.731   7.071   2.718  0.4829  1.6572 -2.7470
  868MOL0     H17145   7.865   7.157   2.690 -1.2883 -2.5587 -2.3709
  868MOL0     H17146   7.781   7.034   2.947 -1.4311  0.9990 -0.5606
  868MOL0     H17147   7.923   6.985   2.839 -2.1781 -1.5968  1.3159
  868MOL0     H17148   8.031   7.209   2.913 -0.3030  1.5507  0.9986
  868MOL0     H17149   7.893   7.247   3.007  0.9755  0.6206 -1.4788
  868MOL0     H17150   8.076   7.007   3.071 -1.2052  0.7100 -0.7343
  868MOL0     H17151   7.928   7.050   3.160  1.2111 -0.3409  2.1509
  868MOL0     H17152   8.169   7.234   3.119 -0.2487 -1.8701 -3.1484
  868MOL0     H17153   8.160   7.115   3.246  1.9854 -0.6897 -0.5237
  868MOL0     H17154   7.945   7.331   3.229 -1.6200 -1.3681  0.2930
  868MOL0     H17155   7.949   7.190   3.341  2.4412 -2.7125  1.2634
  868MOL0     H17156   8.036   7.414   3.436 -1.1442  1.2670 -1.6766
  868MOL0     H17157   8.167   7.395   3.311  0.1454 -0.6388  0.4312
  868MOL0     H17158   8.128   7.160   3.495 -1.1721  0.2697  1.0805
  868MOL0     H17159   8.268   7.232   3.408  0.5717 -0.9919  1.5063
  868MOL0     H17160   7.948   7.381   2.671  0.8335  1.7694  1.9527
  868MOL0     H17161   7.925   7.572   2.510 -0.7452  2.8496 -0.1919
  868MOL0     H17162   7.427   7.931   2.297 -0.0330  4.1573  1.0213
  868MOL0     H17163   7.454   8.057   2.094 -0.3385  0.4449  2.0681
  868MOL0     H17164   7.601   9.174   1.496  0.7845 -1.5705  1.5670
  868MOL0     H17165   7.409   9.290   1.570  1.6099 -1.0189 -1.6337
  868MOL0     H17166   7.101   9.331   1.769  0.2868  2.2835 -1.7177
  868MOL0     H17167   6.860   9.375   1.815  0.0894 -1.2504  2.3222
  868MOL0     H17168   6.650   9.503   1.821  0.0392 -2.6993 -0.6013
  868MOL0     H17169   6.554   9.567   1.961  0.4122 -0.8718  0.4971
  868MOL0     H17170   6.684   9.310   1.901 -5.0222 -2.4028 -1.5220
  868MOL0     H17171   6.528   9.338   1.952  1.5491 -1.0034 -3.7253
  868MOL0     H17172   6.774   9.307   2.132  0.4139  0.3608 -0.4407
  868MOL0     H17173   6.633   9.220   2.145 -0.1190  0.0831 -2.2986
  868MOL0     H17174   6.651   9.516   2.211  2.1087 -0.9227 -1.0907
  868MOL0     H17175   6.502   9.413   2.217  0.1909 -0.8850  0.7945
  868MOL0     H17176   6.685   9.275   2.577  5.5407  2.8696  0.0048
  868MOL0     H17177   6.958   9.672   2.090 -2.7370  1.5318 -2.9468
  868MOL0     H17178   7.283   9.716   2.007  1.6137 -1.1728 -0.6629
  868MOL0     H17179   7.156   9.724   2.145 -0.5690 -1.6026  2.0788
  868MOL0     H17180   7.286   9.611   2.143  0.9195  0.6826 -0.8696
  869MOL0     O17181  11.469  10.093   9.999  0.1116 -0.8165 -0.3796
  869MOL0     C17182  11.364  10.042   9.954 -0.2935  0.4480 -0.8006
  869MOL0     O17183  11.236  10.087   9.969  0.3562 -0.3353  0.6804
  869MOL0     C17184  11.222  10.215  10.022 -0.7244  0.0493  0.6056
  869MOL0     C17185  11.275  10.324   9.960  0.2179 -1.1849  0.6325
  869MOL0     C17186  11.254  10.448  10.024  1.1415 -0.4625  0.4093
  869MOL0     C17187  11.179  10.460  10.144  0.4647 -0.0889 -0.2868
  869MOL0     O17188  11.159  10.578  10.217  0.1400  0.4735  0.0391
  869MOL0     C17189  11.269  10.648  10.273  0.9249 -0.5827 -1.0421
  869MOL0     C17190  11.250  10.679  10.418 -0.4379  0.0448 -0.8447
  869MOL0     C17191  11.136  10.783  10.453  0.3843  0.9246 -0.4720
  869MOL0     C17192  11.137  10.899  10.367 -0.4035  0.2481 -0.1560
  869MOL0     C17193  11.084  11.023  10.445 -0.0520 -0.0617 -0.2765
  869MOL0     C17194  10.930  11.008  10.456 -0.9247 -0.6560  0.2253
  869MOL0     C17195  10.881  11.056  10.599  0.6794  1.3803  0.6449
  869MOL0     C17196  10.766  11.155  10.606 -0.5757  0.3131  0.1335
  869MOL0     N17197  10.643  11.111  10.530  0.7227 -0.2370 -0.0299
  869MOL0     C17198  10.629  11.093  10.400  0.3926 -0.0876  0.5148
  869MOL0     C17199  10.524  11.008  10.390  0.0875 -0.3497  0.2291
  869MOL0     C17200  10.481  10.969  10.249  0.0056 -0.5002  0.0991
  869MOL0     C17201  10.586  10.871  10.193 -0.9476 -0.7332 -1.0276
  869MOL0     C17202  10.548  10.817  10.049 -1.1134 -0.1886  0.5145
  869MOL0     C17203  10.634  10.693  10.008  0.0903 -0.5116  0.2336
  869MOL0     O17204  10.604  10.668   9.869  0.4419  0.1340 -0.7920
  869MOL0     C17205  10.634  10.539   9.816  0.6739 -0.1260 -0.6699
  869MOL0     C17206  10.606  10.505   9.682 -0.3260 -0.3332  0.2521
  869MOL0     C17207  10.647  10.377   9.621 -0.0878 -0.7259 -0.1732
  869MOL0     C17208  10.717  10.285   9.694 -0.4400  0.9805 -0.3617
  869MOL0     C17209  10.745  10.147   9.641  0.2767  0.1007  0.4115
  869MOL0     O17210  10.707  10.132   9.509  0.2732  0.0527 -0.8023
  869MOL0     C17211  10.705  10.003   9.454  0.1463  0.3910 -0.4495
  869MOL0     C17212  10.740   9.999   9.315  0.4842  0.2346 -0.4720
  869MOL0     C17213  10.753   9.876   9.248  0.2564 -0.0845  0.7848
  869MOL0     C17214  10.746   9.762   9.317 -0.5292  0.1358  0.1129
  869MOL0     O17215  10.748   9.639   9.255  0.2807 -0.2455 -0.8523
  869MOL0     C17216  10.771   9.624   9.116  0.1075  0.4082 -0.0183
  869MOL0     C17217  10.752   9.476   9.086  0.1963 -0.0392 -0.0486
  869MOL0     C17218  10.721   9.463   8.935 -0.7777  0.7139  0.9788
  869MOL0     C17219  10.570   9.442   8.898 -0.8075  0.2472 -0.8997
  869MOL0     C17220  10.524   9.388   8.763 -0.2931  0.5621 -0.4013
  869MOL0     C17221  10.379   9.368   8.742  0.9404  0.2995  0.4158
  869MOL0     C17222  10.348   9.361   8.589  0.2472 -0.4288 -0.0771
  869MOL0     C17223  10.373   9.497   8.521 -0.9521  0.0932 -0.1425
  869MOL0    Cl17224  10.301   9.472   8.365 -0.8401 -0.3936  0.3040
  869MOL0     C17225  10.715   9.760   9.453 -1.3196 -1.0972  0.4105
  869MOL0     C17226  10.686   9.878   9.519  0.3569  0.0793  0.5054
  869MOL0     O17227  10.807  10.064   9.708  0.2437 -0.6767  0.3888
  869MOL0     C17228  10.749  10.324   9.821 -0.4689 -0.3587 -0.3624
  869MOL0     C17229  10.724  10.449   9.876  0.3097 -0.1636  0.2854
  869MOL0     N17230  10.470  10.982  10.514 -0.9834  0.3204  0.2975
  869MOL0     N17231  10.545  11.033  10.595 -0.5220  0.2039  0.0439
  869MOL0     C17232  11.111  10.348  10.191  0.0729 -1.0842  1.0290
  869MOL0     C17233  11.143  10.225  10.134  0.0483  0.0623 -0.6701
  869MOL0     C17234  11.392   9.906   9.882  0.3502  0.0325  0.3038
  869MOL0     C17235  11.277   9.841   9.833 -0.1882 -0.1585 -0.1877
  869MOL0     C17236  11.291   9.713   9.775 -0.4997  0.5139 -0.2489
  869MOL0     C17237  11.415   9.651   9.747 -0.1650  0.7666  0.0846
  869MOL0     O17238  11.404   9.524   9.707  0.0356  0.2996  0.2073
  869MOL0     C17239  11.503   9.427   9.735  0.2454  0.0798 -0.5612
  869MOL0     C17240  11.486   9.304   9.660 -0.1862 -0.0020  1.3519
  869MOL0     C17241  11.602   9.211   9.694  0.1034  0.3007  0.4015
  869MOL0     C17242  11.598   9.069   9.630  0.7728  0.1471 -0.0551
  869MOL0     C17243  11.633   9.087   9.494  0.1537 -0.2770 -0.3057
  869MOL0     C17244  11.644   9.116   9.381 -0.2008 -0.5820 -0.0439
  869MOL0     C17245  11.527   9.725   9.782 -0.1279  0.0461  0.4276
  869MOL0     C17246  11.519   9.844   9.856 -0.3830  0.1490  0.3518
  869MOL0     C17247  11.656   9.905   9.889 -1.0986 -0.0673  0.8453
  869MOL0     H17248  11.325  10.321   9.864  0.2880 -1.3599  0.6726
  869MOL0     H17249  11.303  10.540   9.991  0.7473  0.8844  3.3052
  869MOL0     H17250  11.359  10.587  10.279  0.6655 -0.8015  1.8216
  869MOL0     H17251  11.300  10.733  10.210  3.7030 -0.9941 -0.3679
  869MOL0     H17252  11.341  10.728  10.456 -0.0813 -1.7512  0.7796
  869MOL0     H17253  11.255  10.589  10.481  0.4011  0.2099 -0.6545
  869MOL0     H17254  11.144  10.812  10.558  2.0132  0.8565 -0.5431
  869MOL0     H17255  11.045  10.724  10.440  2.5811 -2.5272 -1.3283
  869MOL0     H17256  11.237  10.933  10.337  0.2968  0.7084  2.3985
  869MOL0     H17257  11.081  10.885  10.275  0.4312  1.5652 -0.9010
  869MOL0     H17258  11.142  11.034  10.538  2.6670 -0.1901 -1.8561
  869MOL0     H17259  11.100  11.109  10.379  4.6842 -0.0461  0.5008
  869MOL0     H17260  10.886  11.061  10.371 -2.0075  0.4537  1.4250
  869MOL0     H17261  10.887  10.908  10.447  0.0711 -1.0317 -0.5156
  869MOL0     H17262  10.971  11.091  10.650  0.4617  0.1916  1.8789
  869MOL0     H17263  10.843  10.974  10.659  2.1253 -1.6616 -2.2868
  869MOL0     H17264  10.748  11.171  10.712  1.2473 -2.7176  1.0434
  869MOL0     H17265  10.801  11.244  10.552 -3.0883  0.1282 -2.0092
  869MOL0     H17266  10.684  11.149  10.324 -1.8715  2.5279  0.6276
  869MOL0     H17267  10.381  10.925  10.256 -1.1071  1.3009 -2.5891
  869MOL0     H17268  10.475  11.053  10.180  0.7464  1.4980  2.3369
  869MOL0     H17269  10.679  10.923  10.169 -0.8987 -0.3568 -0.0616
  869MOL0     H17270  10.603  10.788  10.263 -3.5875 -0.5421 -0.0410
  869MOL0     H17271  10.567  10.901   9.981  2.0715  0.8597  2.4303
  869MOL0     H17272  10.441  10.800  10.056 -1.6944  2.6052 -0.1741
  869MOL0     H17273  10.582  10.614  10.063 -0.5930  0.1343  0.5306
  869MOL0     H17274  10.742  10.707  10.010  0.3651  0.3772 -5.3386
  869MOL0     H17275  10.550  10.576   9.621  2.9300 -0.1017 -2.8156
  869MOL0     H17276  10.609  10.364   9.520  0.0217  0.5219 -0.3918
  869MOL0     H17277  10.741  10.090   9.257  0.0256 -1.0250 -2.5544
  869MOL0     H17278  10.763   9.894   9.141 -1.6879  0.6540  0.6742
  869MOL0     H17279  10.687   9.680   9.074 -1.1150 -0.9441  0.5457
  869MOL0     H17280  10.867   9.653   9.074 -0.3834  0.4292 -1.1583
  869MOL0     H17281  10.838   9.415   9.115  0.7799  1.1480  0.7834
  869MOL0     H17282  10.663   9.441   9.138  1.9846  0.2899  3.4862
  869MOL0     H17283  10.756   9.549   8.878 -1.9243  0.2175 -0.5401
  869MOL0     H17284  10.773   9.378   8.891 -1.0615  0.4276  1.1894
  869MOL0     H17285  10.524   9.539   8.918  2.1182  1.4924  0.3609
  869MOL0     H17286  10.535   9.372   8.974 -0.6105  0.3909 -0.6741
  869MOL0     H17287  10.577   9.294   8.744  0.0123  0.7806 -0.6540
  869MOL0     H17288  10.551   9.468   8.694 -1.9340  0.0693 -1.6840
  869MOL0     H17289  10.349   9.272   8.784 -1.2315  0.0369 -1.5538
  869MOL0     H17290  10.320   9.438   8.802 -3.2564  0.5341 -3.4863
  869MOL0     H17291  10.240   9.343   8.580 -0.1896  0.8029  2.0072
  869MOL0     H17292  10.392   9.280   8.532 -2.5677 -1.9217 -0.3353
  869MOL0     H17293  10.324   9.582   8.569  3.6635  2.7551  0.4482
  869MOL0     H17294  10.480   9.517   8.512 -1.3260  1.8202 -1.0146
  869MOL0     H17295  10.709   9.677   9.522 -1.2054  0.4456  2.3621
  869MOL0     H17296  10.666   9.874   9.626 -0.5749  2.6490  0.4987
  869MOL0     H17297  10.821  10.266   9.878  0.1867  0.1346 -0.6704
  869MOL0     H17298  10.772  10.485   9.967 -2.0884  0.4909  1.3539
  869MOL0     H17299  11.036  10.363  10.268 -0.9882  0.2323 -0.1987
  869MOL0     H17300  11.096  10.130  10.158 -2.4318  0.6026 -2.9945
  869MOL0     H17301  11.176   9.878   9.848  0.4888  2.0062 -0.6123
  869MOL0     H17302  11.199   9.659   9.754  1.0169 -2.4446  0.1225
  869MOL0     H17303  11.486   9.409   9.841 -1.0328 -0.3966 -0.8319
  869MOL0     H17304  11.607   9.459   9.733  0.6103 -0.8882  1.3639
  869MOL0     H17305  11.471   9.327   9.554 -0.3808  5.2388  2.2027
  869MOL0     H17306  11.399   9.250   9.698  0.2757  0.4776  3.2450
  869MOL0     H17307  11.597   9.206   9.803 -1.4035  4.6407  0.7353
  869MOL0     H17308  11.697   9.255   9.662 -0.0595 -0.3352 -1.0184
  869MOL0     H17309  11.676   9.002   9.667  0.3604 -1.2494 -1.5810
  869MOL0     H17310  11.495   9.032   9.637  0.4943  1.2788  3.0743
  869MOL0     H17311  11.670   9.158   9.285  2.1932  2.4052  1.7214
  869MOL0     H17312  11.626   9.680   9.781  0.0261  0.3331  1.5674
  869MOL0     H17313  11.679   9.896   9.996 -0.3437  3.0382  1.0310
  869MOL0     H17314  11.740   9.870   9.828 -1.2925  2.6287 -1.1633
  869MOL0     H17315  11.665  10.005   9.846  2.4543 -1.2676 -1.6913
  870MOL0     O17316   8.087   4.662   8.895 -0.2031 -0.1181  0.2393
  870MOL0     C17317   7.996   4.666   8.975  0.6244 -0.5651  0.7487
  870MOL0     O17318   8.000   4.599   9.094  0.3450  0.2020  0.0681
  870MOL0     C17319   8.080   4.496   9.094 -0.9659 -0.2359  0.6549
  870MOL0     C17320   8.032   4.372   9.047  0.3468 -0.1485  0.5014
  870MOL0     C17321   8.119   4.262   9.037 -0.2666  0.7106  0.0882
  870MOL0     C17322   8.254   4.265   9.072 -0.4518  0.3482  0.4022
  870MOL0     O17323   8.347   4.161   9.092  0.6394 -1.0066  0.0371
  870MOL0     C17324   8.312   4.027   9.051 -0.6894 -0.1878  0.1481
  870MOL0     C17325   8.377   3.998   8.917 -0.0385 -0.3154  0.3850
  870MOL0     C17326   8.317   4.085   8.799 -0.3264 -0.1567 -0.8409
  870MOL0     C17327   8.351   4.036   8.668 -0.9329 -0.3455 -0.3378
  870MOL0     C17328   8.306   4.133   8.553  0.1945  0.8070  0.0168
  870MOL0     C17329   8.321   4.087   8.409  0.4565  0.2099  0.3461
  870MOL0     C17330   8.447   4.018   8.376 -0.2161  0.6643  0.6336
  870MOL0     C17331   8.426   3.980   8.216 -0.1833  0.0049 -1.6988
  870MOL0     N17332   8.533   3.892   8.159  0.6175 -0.7024 -0.6810
  870MOL0     C17333   8.658   3.882   8.202  0.4702  0.1422 -0.1479
  870MOL0     C17334   8.721   3.798   8.117 -0.7370 -0.8092 -1.3518
  870MOL0     C17335   8.872   3.765   8.121  0.2044  0.7298  0.7729
  870MOL0     C17336   8.893   3.614   8.174 -0.0077 -0.9498 -0.4848
  870MOL0     C17337   8.860   3.609   8.317 -0.1095  0.3986 -0.4947
  870MOL0     C17338   8.790   3.485   8.367 -0.1549 -0.1044 -0.5548
  870MOL0     O17339   8.734   3.513   8.501  0.4857 -0.3198 -0.4969
  870MOL0     C17340   8.609   3.560   8.522 -0.1861 -0.1183  0.0979
  870MOL0     C17341   8.505   3.575   8.426  1.0022  0.2821  0.8150
  870MOL0     C17342   8.379   3.612   8.460  0.2191  0.4380 -0.6305
  870MOL0     C17343   8.339   3.648   8.593 -0.1758  0.8033  0.0725
  870MOL0     C17344   8.202   3.683   8.641  0.4064 -0.5275 -0.0300
  870MOL0     O17345   8.197   3.687   8.777  0.0537  0.2719 -0.8769
  870MOL0     C17346   8.098   3.754   8.843  0.6072 -0.8392 -0.7817
  870MOL0     C17347   7.995   3.835   8.789  0.1878  0.0669 -0.7966
  870MOL0     C17348   7.884   3.879   8.861 -0.5296 -0.1675 -0.1243
  870MOL0     C17349   7.863   3.833   8.990 -0.1946 -0.8274 -1.0870
  870MOL0     O17350   7.740   3.848   9.048  0.7703  0.0864 -0.1570
  870MOL0     C17351   7.708   3.837   9.187  0.5313 -0.0242  0.5590
  870MOL0     C17352   7.771   3.941   9.274  0.0338  0.3031  0.0751
  870MOL0     C17353   7.699   4.075   9.268  0.3210 -0.7874 -0.0231
  870MOL0     C17354   7.743   4.169   9.384  0.3243  0.6723  1.2492
  870MOL0     C17355   7.728   4.320   9.354  0.5137  0.1757  0.5412
  870MOL0     C17356   7.814   4.404   9.458  0.6028 -0.5773 -0.3568
  870MOL0     C17357   7.808   4.555   9.458  0.6065  0.2707  0.1237
  870MOL0     C17358   7.898   4.622   9.564  0.4567  0.3185  0.3673
  870MOL0    Cl17359   7.786   4.667   9.697 -0.1762  0.2041 -0.3004
  870MOL0     C17360   7.951   3.748   9.049  0.1623  1.3152 -0.4187
  870MOL0     C17361   8.070   3.711   8.979 -0.4009 -0.3307  0.6730
  870MOL0     O17362   8.111   3.694   8.558  0.1759 -0.2176  0.1142
  870MOL0     C17363   8.450   3.647   8.679 -0.3151 -0.8947 -0.0988
  870MOL0     C17364   8.582   3.608   8.644  0.2845 -0.0799 -0.1683
  870MOL0     N17365   8.632   3.766   8.020 -1.4753 -0.6136  0.0280
  870MOL0     N17366   8.520   3.814   8.046  0.7328 -0.2265  0.4369
  870MOL0     C17367   8.308   4.387   9.109  0.2997  0.4771 -1.0193
  870MOL0     C17368   8.222   4.501   9.122 -0.5924  0.1484  0.6687
  870MOL0     C17369   7.892   4.775   8.972  0.4359 -0.4400  0.1211
  870MOL0     C17370   7.816   4.800   9.085  0.4490 -0.9784  0.0450
  870MOL0     C17371   7.718   4.902   9.092 -0.1823  0.4797 -0.1769
  870MOL0     C17372   7.717   5.003   9.001 -0.1931  0.5714  1.2007
  870MOL0     O17373   7.646   5.119   8.998 -0.3046  0.3164  1.0273
  870MOL0     C17374   7.604   5.171   9.128  1.4320  0.4928  1.1804
  870MOL0     C17375   7.561   5.311   9.098  0.4049  0.8315  0.7599
  870MOL0     C17376   7.423   5.321   9.031  0.6828  0.0814  0.6570
  870MOL0     C17377   7.411   5.462   8.968  0.0339  0.0176  0.5640
  870MOL0     C17378   7.281   5.477   8.916  0.2004  0.3001  0.6752
  870MOL0     C17379   7.168   5.509   8.888 -0.4627 -0.6070 -0.4310
  870MOL0     C17380   7.780   4.978   8.878 -0.1622  1.2501  0.2304
  870MOL0     C17381   7.868   4.860   8.866 -0.1196  0.0086  1.4673
  870MOL0     C17382   7.910   4.817   8.724 -1.5393  1.1447  0.1030
  870MOL0     H17383   7.929   4.360   9.016  0.2662  0.8349  0.3528
  870MOL0     H17384   8.056   4.177   9.011  0.8047 -0.8879  2.4058
  870MOL0     H17385   8.344   3.966   9.136  0.9841  2.1931  1.3355
  870MOL0     H17386   8.207   3.997   9.045 -0.5782 -1.6677  3.2423
  870MOL0     H17387   8.360   3.893   8.891 -1.7199 -0.3774  1.5863
  870MOL0     H17388   8.485   4.018   8.925 -0.0904 -0.8714  3.9421
  870MOL0     H17389   8.354   4.186   8.820 -0.5431 -0.5321  1.6929
  870MOL0     H17390   8.208   4.084   8.806 -0.4819 -0.8734 -2.8515
  870MOL0     H17391   8.460   4.033   8.662 -0.5948  2.3808  2.2613
  870MOL0     H17392   8.320   3.932   8.653  0.3044 -0.7267 -0.3835
  870MOL0     H17393   8.199   4.145   8.572 -0.0123  0.1341 -0.6650
  870MOL0     H17394   8.368   4.221   8.568  3.2572 -0.8394 -1.9691
  870MOL0     H17395   8.232   4.027   8.387  0.8231 -0.3037  0.2589
  870MOL0     H17396   8.316   4.180   8.351  2.0482 -0.6411 -1.2573
  870MOL0     H17397   8.445   3.923   8.431 -1.1377  2.4325  3.9220
  870MOL0     H17398   8.541   4.067   8.401  0.2337  0.9388 -1.4755
  870MOL0     H17399   8.327   3.937   8.198  0.3753 -2.3420  0.2577
  870MOL0     H17400   8.430   4.081   8.175  2.6855  2.0540  2.8100
  870MOL0     H17401   8.696   3.929   8.292 -1.2598  0.7933  0.2919
  870MOL0     H17402   8.918   3.764   8.021 -1.6559  0.9410 -0.1246
  870MOL0     H17403   8.918   3.840   8.185  0.7468  1.1845 -0.1382
  870MOL0     H17404   8.836   3.548   8.108 -0.6561 -1.7982  0.8932
  870MOL0     H17405   8.999   3.592   8.154  0.6610  3.0213 -2.3421
  870MOL0     H17406   8.788   3.686   8.346  0.7071  0.7631  0.6617
  870MOL0     H17407   8.948   3.625   8.380 -0.9757  0.9688  0.6294
  870MOL0     H17408   8.848   3.392   8.361 -1.0728 -0.6690 -1.1193
  870MOL0     H17409   8.712   3.459   8.295  0.3248 -1.9148 -0.4913
  870MOL0     H17410   8.511   3.527   8.329 -1.5647 -1.5727  1.4624
  870MOL0     H17411   8.305   3.607   8.381  0.9595 -0.8124 -1.2843
  870MOL0     H17412   7.986   3.858   8.683 -2.1563  1.6734 -0.3119
  870MOL0     H17413   7.815   3.933   8.797 -0.7021 -1.8715 -1.4485
  870MOL0     H17414   7.600   3.833   9.197  0.2899 -0.7799 -1.7266
  870MOL0     H17415   7.730   3.741   9.235 -1.4952 -0.2443  1.1101
  870MOL0     H17416   7.748   3.906   9.375 -2.6033  0.9578 -0.2422
  870MOL0     H17417   7.880   3.948   9.269  0.2134 -1.4397  0.7599
  870MOL0     H17418   7.708   4.121   9.169 -1.2661 -2.0415 -0.7974
  870MOL0     H17419   7.590   4.071   9.279  0.1351 -0.0353 -1.3567
  870MOL0     H17420   7.847   4.155   9.414  1.2253  0.5953 -1.6377
  870MOL0     H17421   7.676   4.143   9.467 -0.1195  1.5357  1.1750
  870MOL0     H17422   7.622   4.342   9.362  0.3162 -0.5186 -0.1037
  870MOL0     H17423   7.752   4.349   9.251  3.2160 -0.6240  0.8548
  870MOL0     H17424   7.783   4.376   9.559 -0.4188  0.9044 -0.2160
  870MOL0     H17425   7.917   4.378   9.434  0.6999 -0.3514 -0.1928
  870MOL0     H17426   7.701   4.571   9.473  0.6119  0.7251 -0.2983
  870MOL0     H17427   7.845   4.603   9.367 -3.1788  0.7570 -1.3315
  870MOL0     H17428   7.964   4.550   9.614 -0.3391 -1.4499 -1.0216
  870MOL0     H17429   7.951   4.706   9.520  2.0953 -1.5534 -1.4844
  870MOL0     H17430   7.924   3.703   9.143  1.3766  1.1899 -0.1044
  870MOL0     H17431   8.137   3.642   9.029 -1.9360 -1.8991  0.7135
  870MOL0     H17432   8.439   3.673   8.783  0.8886  1.4609 -0.4947
  870MOL0     H17433   8.666   3.613   8.713  1.5595  5.3557 -1.6180
  870MOL0     H17434   8.412   4.394   9.139 -0.4886 -0.8524  2.5796
  870MOL0     H17435   8.268   4.589   9.166 -1.7116  0.0226  2.1346
  870MOL0     H17436   7.835   4.740   9.174 -0.3813  1.1476  1.7444
  870MOL0     H17437   7.663   4.919   9.184 -1.9888 -0.6794 -0.9878
  870MOL0     H17438   7.694   5.173   9.191  0.5869  1.5684  2.4162
  870MOL0     H17439   7.527   5.115   9.182  0.3596 -0.0534 -0.8446
  870MOL0     H17440   7.643   5.347   9.036 -1.0609  3.0133 -0.0540
  870MOL0     H17441   7.547   5.373   9.188 -1.3978  3.2029 -0.9934
  870MOL0     H17442   7.349   5.301   9.109  1.6260 -0.5155  1.4349
  870MOL0     H17443   7.419   5.258   8.942  1.9265  0.2853  0.4363
  870MOL0     H17444   7.434   5.549   9.029  0.9540  0.6459 -0.6255
  870MOL0     H17445   7.479   5.454   8.882  1.0774  0.3965  1.3436
  870MOL0     H17446   7.067   5.539   8.866 -0.7589 -1.6146 -0.5034
  870MOL0     H17447   7.785   5.054   8.801  2.2045 -0.1247 -1.0760
  870MOL0     H17448   7.880   4.712   8.716 -0.9056  0.8082  1.8350
  870MOL0     H17449   7.855   4.882   8.656  0.5035  2.4030 -0.4266
  870MOL0     H17450   8.019   4.818   8.723 -1.4869 -0.7247 -0.6482
  871MOL0     O17451   6.949   6.426  10.445 -0.8291  0.0222  0.6811
  871MOL0     C17452   6.912   6.374  10.342 -0.1095 -0.5355 -0.5985
  871MOL0     O17453   6.783   6.365  10.310  0.4010  0.3671  0.0838
  871MOL0     C17454   6.689   6.390  10.411  0.0930  0.0916  0.5720
  871MOL0     C17455   6.568   6.448  10.367  0.7004  0.9089  0.2506
  871MOL0     C17456   6.461   6.477  10.449  0.1100 -1.1635 -0.3889
  871MOL0     C17457   6.477   6.450  10.588  0.6570  0.0508 -0.2517
  871MOL0     O17458   6.377   6.471  10.684  0.2571 -0.7332  0.3213
  871MOL0     C17459   6.352   6.619  10.712 -0.1859  1.2483  0.4144
  871MOL0     C17460   6.234   6.642  10.816 -0.5790  0.5006  0.5264
  871MOL0     C17461   6.100   6.610  10.750 -1.6105 -0.7041  0.5250
  871MOL0     C17462   6.081   6.464  10.712 -0.2318 -0.1991  0.0548
  871MOL0     C17463   6.075   6.364  10.824  0.1261 -0.1378 -0.5239
  871MOL0     C17464   6.032   6.223  10.783 -0.3743 -0.7152  0.0059
  871MOL0     C17465   5.965   6.163  10.901  1.4835  0.6603 -0.2322
  871MOL0     C17466   5.819   6.206  10.893  0.5955  0.5782  0.4181
  871MOL0     N17467   5.764   6.259  11.024 -0.0170 -0.4339  0.5010
  871MOL0     C17468   5.780   6.196  11.147 -0.5778 -0.5573 -0.3297
  871MOL0     C17469   5.723   6.280  11.243  0.5482  0.1209 -0.5709
  871MOL0     C17470   5.727   6.249  11.386 -0.2875  0.0585  0.4999
  871MOL0     C17471   5.622   6.319  11.468  1.1075  0.2163  0.0958
  871MOL0     C17472   5.469   6.274  11.451  0.7001 -0.0098 -0.2421
  871MOL0     C17473   5.473   6.117  11.453 -1.7177  0.4683  0.2455
  871MOL0     O17474   5.551   6.045  11.547  0.1386  0.5030  0.0120
  871MOL0     C17475   5.554   5.907  11.547  0.3537  0.5237  0.4771
  871MOL0     C17476   5.504   5.835  11.438 -0.2166  0.1397 -0.2238
  871MOL0     C17477   5.481   5.702  11.456  0.3401 -0.3729  0.3151
  871MOL0     C17478   5.515   5.634  11.575 -0.8876  0.0912 -1.0111
  871MOL0     C17479   5.471   5.502  11.603  0.1714 -0.4009 -0.8137
  871MOL0     O17480   5.495   5.450  11.728  0.4779 -0.1870  0.8415
  871MOL0     C17481   5.518   5.322  11.760  0.9326  0.0439  0.0908
  871MOL0     C17482   5.569   5.292  11.890  0.3632  0.0609  0.4399
  871MOL0     C17483   5.580   5.163  11.943 -0.7520 -0.2862  0.3560
  871MOL0     C17484   5.540   5.055  11.854 -0.0865  0.1045 -0.1903
  871MOL0     O17485   5.539   4.932  11.913  0.3488  0.0976  0.1166
  871MOL0     C17486   5.535   4.818  11.834  0.5749 -0.4081  0.3471
  871MOL0     C17487   5.561   4.698  11.927 -0.5830 -0.5954  0.5958
  871MOL0     C17488   5.459   4.685  12.041  0.5584 -0.7564 -0.5951
  871MOL0     C17489   5.456   4.537  12.092 -0.5051 -0.8845  0.2614
  871MOL0     C17490   5.584   4.493  12.166  0.2625 -0.4424  0.7337
  871MOL0     C17491   5.574   4.364  12.241  0.1882  0.5714 -0.1202
  871MOL0     C17492   5.715   4.320  12.294  0.0564 -0.8084 -0.1625
  871MOL0     C17493   5.808   4.258  12.195  0.5106 -0.8326 -0.6352
  871MOL0    Cl17494   5.957   4.191  12.272 -0.2425 -0.0036 -0.7239
  871MOL0     C17495   5.493   5.082  11.726 -0.0056 -0.3994  0.0356
  871MOL0     C17496   5.489   5.211  11.683 -0.7759  0.4967  0.6660
  871MOL0     O17497   5.417   5.447  11.510  0.1832 -0.9558  0.8308
  871MOL0     C17498   5.575   5.706  11.678  0.4869  0.9683 -0.3677
  871MOL0     C17499   5.589   5.837  11.664  0.1351 -0.3912  0.5201
  871MOL0     N17500   5.682   6.392  11.171 -0.4231  0.3946 -1.1449
  871MOL0     N17501   5.706   6.381  11.046  0.0503  0.0841  0.7892
  871MOL0     C17502   6.583   6.377  10.629  0.3357  0.2027 -1.0664
  871MOL0     C17503   6.689   6.339  10.545 -0.6928 -0.0981  0.0637
  871MOL0     C17504   7.021   6.348  10.238 -0.6662  0.0209  0.4656
  871MOL0     C17505   6.982   6.260  10.144 -0.0517  0.0638 -0.3058
  871MOL0     C17506   7.068   6.224  10.033 -0.2494 -1.1574 -0.2231
  871MOL0     C17507   7.192   6.290  10.017  0.9387  0.6548 -0.3519
  871MOL0     O17508   7.270   6.233   9.921 -0.1503  0.0478 -0.6317
  871MOL0     C17509   7.403   6.275   9.910 -0.3648  0.6494 -0.0689
  871MOL0     C17510   7.504   6.197  10.000  0.6859 -0.0949 -0.1925
  871MOL0     C17511   7.492   6.040  10.002 -0.8776 -0.6523 -0.3784
  871MOL0     C17512   7.596   5.975  10.112  0.7174  0.4384  0.6242
  871MOL0     C17513   7.547   5.850  10.169  0.1071 -0.3707  0.1602
  871MOL0     C17514   7.534   5.740  10.221  0.5784  0.6073 -0.0878
  871MOL0     C17515   7.232   6.376  10.128 -0.0408 -0.6924  0.4776
  871MOL0     C17516   7.149   6.409  10.230 -0.3636 -0.0021  0.4628
  871MOL0     C17517   7.202   6.519  10.326 -0.1875 -0.0616 -0.2763
  871MOL0     H17518   6.566   6.463  10.260 -0.1721 -4.3876 -0.7211
  871MOL0     H17519   6.376   6.539  10.422 -0.3813 -1.6836 -0.0535
  871MOL0     H17520   6.437   6.650  10.773 -1.7755  1.4953  2.6379
  871MOL0     H17521   6.334   6.677  10.621 -0.1532 -1.8614 -1.7635
  871MOL0     H17522   6.225   6.745  10.851  0.8458  1.3313 -1.3755
  871MOL0     H17523   6.260   6.568  10.892 -1.9938 -0.4995  0.0847
  871MOL0     H17524   6.105   6.676  10.663  2.1909 -2.9300 -1.2369
  871MOL0     H17525   6.017   6.643  10.812 -0.7002  2.5580  0.1947
  871MOL0     H17526   5.977   6.461  10.678 -0.0959 -0.6136 -0.3266
  871MOL0     H17527   6.144   6.437  10.627  0.1380  2.9043 -0.7781
  871MOL0     H17528   6.178   6.360  10.862  0.9871  0.6261 -2.6142
  871MOL0     H17529   6.007   6.411  10.895 -0.1037 -0.5673 -0.4550
  871MOL0     H17530   5.957   6.234  10.704 -0.3509  2.0724  0.2801
  871MOL0     H17531   6.113   6.158  10.750 -0.3515 -0.8521  0.3292
  871MOL0     H17532   6.008   6.181  11.001 -1.4095 -2.1887  1.7045
  871MOL0     H17533   5.970   6.054  10.896  4.2524  0.7044  0.0311
  871MOL0     H17534   5.801   6.282  10.816 -4.5532 -1.9126 -1.3146
  871MOL0     H17535   5.765   6.122  10.848  0.0924  0.9489  0.3294
  871MOL0     H17536   5.820   6.097  11.163 -1.6783 -1.1574 -1.2026
  871MOL0     H17537   5.741   6.141  11.401 -0.0807  0.1987  1.3491
  871MOL0     H17538   5.822   6.297  11.408  0.7183  0.6494 -4.1083
  871MOL0     H17539   5.649   6.308  11.573 -1.2224 -0.9829  0.6276
  871MOL0     H17540   5.635   6.425  11.444 -1.4150  0.4723 -0.3810
  871MOL0     H17541   5.416   6.305  11.360 -1.5432 -5.7120 -1.2823
  871MOL0     H17542   5.401   6.317  11.526  1.1583  0.0574  0.1388
  871MOL0     H17543   5.504   6.082  11.354  1.9542 -1.4235  1.8609
  871MOL0     H17544   5.368   6.097  11.478 -1.1783 -0.4145  1.9787
  871MOL0     H17545   5.484   5.882  11.342 -0.8072 -0.8962 -0.6308
  871MOL0     H17546   5.409   5.660  11.386 -0.1843  0.4878  0.3221
  871MOL0     H17547   5.589   5.390  11.933  0.5962  0.2355 -0.0580
  871MOL0     H17548   5.622   5.156  12.043  0.9691  1.2578 -0.1893
  871MOL0     H17549   5.444   4.801  11.776  0.0304  1.0820  0.7190
  871MOL0     H17550   5.618   4.832  11.765  1.3736  0.8049  1.5240
  871MOL0     H17551   5.540   4.609  11.867 -0.7909  0.6225 -1.2014
  871MOL0     H17552   5.664   4.693  11.965 -0.2124 -0.3166 -0.3542
  871MOL0     H17553   5.469   4.754  12.125 -2.9614  0.9126 -1.3499
  871MOL0     H17554   5.363   4.711  11.995 -1.2066  1.2113  3.7112
  871MOL0     H17555   5.453   4.478  12.001  0.7702  1.7825 -1.6373
  871MOL0     H17556   5.363   4.533  12.150 -1.4747  0.9057 -1.0707
  871MOL0     H17557   5.612   4.580  12.226  0.9362  1.1213 -1.7006
  871MOL0     H17558   5.656   4.481  12.086 -1.7145 -0.3506 -1.1578
  871MOL0     H17559   5.501   4.388  12.319  1.1695  0.7194  0.7771
  871MOL0     H17560   5.539   4.284  12.174  3.5562  1.6400 -3.5071
  871MOL0     H17561   5.689   4.248  12.372  0.8144 -2.1240 -1.0739
  871MOL0     H17562   5.755   4.415  12.329 -1.1535 -0.0570 -0.7507
  871MOL0     H17563   5.747   4.178  12.150  2.2532 -2.6120  0.0171
  871MOL0     H17564   5.825   4.334  12.119 -0.7610 -0.5149 -0.6229
  871MOL0     H17565   5.456   5.011  11.652  0.4413  0.5773 -1.1517
  871MOL0     H17566   5.448   5.241  11.587 -0.9965  2.8144  1.4407
  871MOL0     H17567   5.625   5.642  11.751 -0.7851 -1.9770 -1.8925
  871MOL0     H17568   5.649   5.890  11.737  1.4783  3.7328 -3.1723
  871MOL0     H17569   6.580   6.339  10.731 -0.7924  0.9145 -0.8124
  871MOL0     H17570   6.761   6.263  10.575 -2.5290 -3.0311 -2.3576
  871MOL0     H17571   6.883   6.214  10.144 -0.2300  0.3675  1.5565
  871MOL0     H17572   7.035   6.156   9.955  1.5345 -0.2393 -1.8509
  871MOL0     H17573   7.410   6.384   9.915  2.5698  0.7369 -3.1228
  871MOL0     H17574   7.439   6.238   9.814  1.0792 -0.9973  1.0423
  871MOL0     H17575   7.488   6.235  10.102  1.7924  1.4603 -0.5602
  871MOL0     H17576   7.604   6.218   9.962  1.6534 -0.9501  1.7127
  871MOL0     H17577   7.514   6.003   9.901 -0.5534 -4.2987  0.8900
  871MOL0     H17578   7.392   6.012  10.033 -1.4717  1.5075 -0.1496
  871MOL0     H17579   7.697   5.952  10.076  0.1875 -2.5521  0.7647
  871MOL0     H17580   7.602   6.042  10.198 -1.9303 -0.5865  1.7318
  871MOL0     H17581   7.519   5.643  10.263  3.0485 -0.1352 -0.7567
  871MOL0     H17582   7.337   6.402  10.119 -0.0992 -0.5394  0.2524
  871MOL0     H17583   7.131   6.602  10.330 -0.3927 -0.2699  0.4123
  871MOL0     H17584   7.201   6.481  10.428  0.2144  2.0761  0.5786
  871MOL0     H17585   7.302   6.556  10.303  0.0727  0.6970  1.8840
  872MOL0     O17586   4.590   4.397  10.399  0.6614  0.0208  0.4548
  872MOL0     C17587   4.607   4.365  10.514  0.6414  0.4237 -1.3911
  872MOL0     O17588   4.603   4.245  10.570  0.2805  0.2045 -0.2197
  872MOL0     C17589   4.571   4.138  10.489 -0.5111 -1.8339  0.7517
  872MOL0     C17590   4.675   4.046  10.469 -0.3595  1.1901 -0.5978
  872MOL0     C17591   4.658   3.929  10.385  0.1880 -0.5841 -0.8260
  872MOL0     C17592   4.528   3.911  10.326  0.6858  0.6996 -0.5211
  872MOL0     O17593   4.514   3.796  10.248  0.3415  0.2196  0.1805
  872MOL0     C17594   4.618   3.761  10.149  0.5038  0.0520  0.2648
  872MOL0     C17595   4.603   3.617  10.109 -0.6944 -0.2103 -0.1344
  872MOL0     C17596   4.730   3.561  10.033 -0.0162 -0.0744  0.4436
  872MOL0     C17597   4.706   3.452   9.918  0.6891 -0.4318  0.5178
  872MOL0     C17598   4.637   3.503   9.790  0.1872 -0.2993  0.5771
  872MOL0     C17599   4.601   3.392   9.685  0.2530  0.0639 -0.1927
  872MOL0     C17600   4.456   3.353   9.687  0.0040 -0.4888 -0.7678
  872MOL0     C17601   4.424   3.242   9.585 -0.4209 -0.1482 -0.5145
  872MOL0     N17602   4.470   3.101   9.614 -0.5107 -0.1120 -0.6085
  872MOL0     C17603   4.473   2.998   9.530 -0.2058 -0.0691  0.2287
  872MOL0     C17604   4.547   2.905   9.588  0.6416  0.0879  1.3743
  872MOL0     C17605   4.562   2.763   9.534 -0.9798 -0.1761 -0.2258
  872MOL0     C17606   4.677   2.741   9.435 -0.0242  0.1597  0.6921
  872MOL0     C17607   4.677   2.830   9.322  0.2203  0.0838  0.1012
  872MOL0     C17608   4.589   2.798   9.199  0.9992  0.9960  0.2572
  872MOL0     O17609   4.451   2.772   9.232 -0.2906  0.5221 -0.0923
  872MOL0     C17610   4.382   2.662   9.169 -0.8184 -0.8407 -0.2991
  872MOL0     C17611   4.267   2.618   9.228 -0.2232  0.3478  0.1615
  872MOL0     C17612   4.180   2.538   9.153  0.4410 -0.3492 -0.3945
  872MOL0     C17613   4.211   2.482   9.030 -0.0811 -0.5375  0.0173
  872MOL0     C17614   4.122   2.381   8.969  0.1222 -0.0446 -0.5364
  872MOL0     O17615   4.179   2.306   8.882 -0.0679  0.8470 -0.0758
  872MOL0     C17616   4.121   2.201   8.812  0.5765 -1.0014  0.6646
  872MOL0     C17617   3.993   2.178   8.772  0.3613 -1.0406  0.5672
  872MOL0     C17618   3.950   2.074   8.688  0.0628  0.6982 -0.4761
  872MOL0     C17619   4.044   1.977   8.643  0.0251 -0.1088  0.0238
  872MOL0     O17620   4.012   1.865   8.572  0.4951 -0.0917  0.3130
  872MOL0     C17621   3.878   1.854   8.516 -0.3299  0.4495  0.0845
  872MOL0     C17622   3.883   1.705   8.477 -1.0179 -0.4925 -0.1109
  872MOL0     C17623   3.971   1.693   8.347  0.4181  0.7889  0.8382
  872MOL0     C17624   3.925   1.772   8.227  0.7748 -0.9267 -0.1023
  872MOL0     C17625   3.981   1.736   8.095 -0.0021  0.2286 -0.2529
  872MOL0     C17626   4.126   1.777   8.076  0.6745 -0.2579  0.6194
  872MOL0     C17627   4.196   1.682   7.987 -0.4752 -0.3778  0.7920
  872MOL0     C17628   4.283   1.568   8.058 -0.2063 -0.4825 -0.6943
  872MOL0    Cl17629   4.424   1.498   7.965  0.2140  0.8196 -0.4934
  872MOL0     C17630   4.168   1.996   8.701 -0.0345  0.0606  0.4406
  872MOL0     C17631   4.212   2.105   8.780  0.2310 -0.1444 -0.1238
  872MOL0     O17632   4.010   2.368   9.013  0.4081  0.3547 -1.1816
  872MOL0     C17633   4.342   2.511   8.985 -0.3959 -0.0919 -0.3116
  872MOL0     C17634   4.430   2.598   9.053  0.3171  0.7236  0.3055
  872MOL0     N17635   4.597   2.949   9.714 -0.6591 -0.1718 -0.2139
  872MOL0     N17636   4.552   3.068   9.728 -0.9310 -0.2705  0.3851
  872MOL0     C17637   4.420   3.993  10.357 -0.2749  0.9143 -0.1071
  872MOL0     C17638   4.438   4.104  10.439 -0.6405 -0.2692 -0.0335
  872MOL0     C17639   4.617   4.477  10.614  0.3906  0.0502 -0.2925
  872MOL0     C17640   4.743   4.524  10.651  0.8292 -0.9522  0.1755
  872MOL0     C17641   4.759   4.617  10.751  0.7562  0.4056 -0.8755
  872MOL0     C17642   4.648   4.659  10.832  0.6580  0.1247 -0.7325
  872MOL0     O17643   4.665   4.761  10.926 -0.8174 -0.6149  0.1907
  872MOL0     C17644   4.779   4.748  11.015  0.1080  0.1734  0.2992
  872MOL0     C17645   4.756   4.816  11.154  0.3384 -0.4275 -0.0523
  872MOL0     C17646   4.689   4.720  11.260  0.1772 -0.2026  0.4406
  872MOL0     C17647   4.663   4.782  11.398  0.0134  0.3100  0.5278
  872MOL0     C17648   4.633   4.681  11.502  1.3107 -0.0815 -0.2508
  872MOL0     C17649   4.611   4.592  11.577  0.0595 -0.2237 -0.2641
  872MOL0     C17650   4.518   4.606  10.803 -0.0622  0.7352  0.4169
  872MOL0     C17651   4.501   4.516  10.688 -0.7890 -0.2422 -0.5885
  872MOL0     C17652   4.368   4.460  10.650 -0.5201  0.7969 -0.4198
  872MOL0     H17653   4.768   4.062  10.524  1.2078 -3.3065 -1.5019
  872MOL0     H17654   4.744   3.865  10.366  0.7873  0.3844 -1.4562
  872MOL0     H17655   4.590   3.809  10.054 -0.7521  1.6422  1.3831
  872MOL0     H17656   4.721   3.783  10.175  1.4819 -1.4990 -1.9638
  872MOL0     H17657   4.512   3.596  10.050  0.6028  0.3507 -2.4714
  872MOL0     H17658   4.605   3.554  10.199 -0.3796 -2.0759 -1.3762
  872MOL0     H17659   4.795   3.513  10.107  0.8923 -1.0972 -0.9765
  872MOL0     H17660   4.790   3.644   9.995  3.4841 -1.6480  2.0418
  872MOL0     H17661   4.796   3.396   9.890  0.5102 -0.7088  0.5057
  872MOL0     H17662   4.643   3.380   9.971  0.2097 -1.2489 -1.0984
  872MOL0     H17663   4.550   3.567   9.808  1.2834  2.1492 -2.0935
  872MOL0     H17664   4.701   3.576   9.740 -2.2351  2.4680  1.2573
  872MOL0     H17665   4.635   3.431   9.588  2.7336 -1.9161 -0.2077
  872MOL0     H17666   4.660   3.310   9.725 -2.9795 -2.4001 -0.0407
  872MOL0     H17667   4.395   3.438   9.656  0.9983 -0.2363 -2.1196
  872MOL0     H17668   4.435   3.318   9.788  1.0910 -0.7688 -0.6207
  872MOL0     H17669   4.315   3.240   9.593 -0.4326 -0.8992 -0.8164
  872MOL0     H17670   4.453   3.271   9.484 -0.9099 -0.6581 -0.8074
  872MOL0     H17671   4.428   2.977   9.433  1.9555 -3.3334 -0.2270
  872MOL0     H17672   4.574   2.691   9.615 -2.8794 -0.5354 -0.2224
  872MOL0     H17673   4.474   2.742   9.472  0.0400  0.1448 -1.8403
  872MOL0     H17674   4.766   2.762   9.494  1.6810 -0.9137 -1.3428
  872MOL0     H17675   4.670   2.636   9.403  1.0570  0.3740 -0.3239
  872MOL0     H17676   4.781   2.834   9.289  0.3592  3.0361  0.7033
  872MOL0     H17677   4.651   2.929   9.359 -0.8406 -0.5515  1.1650
  872MOL0     H17678   4.631   2.711   9.147  0.4277 -1.3468  3.3737
  872MOL0     H17679   4.577   2.880   9.128 -3.9085 -0.0130 -0.4682
  872MOL0     H17680   4.233   2.657   9.323 -0.8454 -1.0839  0.5590
  872MOL0     H17681   4.085   2.529   9.204  0.3266  2.1532 -0.0260
  872MOL0     H17682   3.924   2.259   8.795 -1.2708 -1.9757 -0.8485
  872MOL0     H17683   3.843   2.069   8.674 -0.0752 -2.4296  0.7803
  872MOL0     H17684   3.796   1.856   8.588  0.6401  1.6109  1.2076
  872MOL0     H17685   3.861   1.923   8.433 -0.6380  1.1635  0.7279
  872MOL0     H17686   3.920   1.632   8.550 -2.3934 -0.7097  0.3932
  872MOL0     H17687   3.780   1.674   8.459 -2.1010  1.4042  2.3718
  872MOL0     H17688   4.079   1.704   8.364  0.5130 -2.0417  2.7977
  872MOL0     H17689   3.979   1.587   8.321 -1.4918  1.0096 -0.7908
  872MOL0     H17690   3.952   1.877   8.243 -1.0376 -0.4496  0.0296
  872MOL0     H17691   3.816   1.767   8.215  0.8306 -1.6668 -0.3593
  872MOL0     H17692   3.917   1.782   8.019 -3.6148 -0.5611  2.0515
  872MOL0     H17693   3.971   1.627   8.088  0.2894  0.1413  0.6073
  872MOL0     H17694   4.126   1.876   8.029  0.4704 -1.0474 -1.1005
  872MOL0     H17695   4.175   1.792   8.173  0.1845  2.8148  0.5085
  872MOL0     H17696   4.278   1.739   7.941  2.6781 -4.7083  0.4321
  872MOL0     H17697   4.131   1.637   7.912 -0.3833 -0.0483  0.5110
  872MOL0     H17698   4.322   1.602   8.154  1.0885 -3.1288 -0.1874
  872MOL0     H17699   4.222   1.483   8.088  0.1541 -0.7135 -0.6011
  872MOL0     H17700   4.225   1.907   8.675 -0.1655  0.5685 -1.7638
  872MOL0     H17701   4.316   2.113   8.810 -0.0232 -2.2000  1.5814
  872MOL0     H17702   4.381   2.449   8.905  0.7152 -2.4123  1.8822
  872MOL0     H17703   4.524   2.629   9.008  0.2171 -0.2440 -0.6129
  872MOL0     H17704   4.321   3.972  10.319 -1.8300  2.6363  2.6843
  872MOL0     H17705   4.351   4.168  10.449 -0.4588 -0.2102  1.4796
  872MOL0     H17706   4.824   4.475  10.598  0.6508 -1.3575  0.2760
  872MOL0     H17707   4.862   4.650  10.756  0.3222  1.6595  1.6177
  872MOL0     H17708   4.858   4.812  10.977  1.6762 -0.1222  2.8344
  872MOL0     H17709   4.823   4.648  11.020  2.9570  1.3497  0.0574
  872MOL0     H17710   4.687   4.900  11.144  1.9121  1.1341  1.5086
  872MOL0     H17711   4.849   4.842  11.205  0.8757 -1.1341 -0.6423
  872MOL0     H17712   4.759   4.637  11.278  0.8555  0.5332  1.2781
  872MOL0     H17713   4.601   4.673  11.216  0.9430 -0.4598 -0.8695
  872MOL0     H17714   4.764   4.817  11.421 -0.2895  3.1523 -1.9228
  872MOL0     H17715   4.588   4.861  11.394  1.4067  1.6383 -1.3859
  872MOL0     H17716   4.612   4.499  11.630  3.7935  1.2461  2.7138
  872MOL0     H17717   4.432   4.635  10.863 -0.8742  3.1135 -1.7007
  872MOL0     H17718   4.365   4.351  10.640  0.5543  0.7471 -0.3638
  872MOL0     H17719   4.290   4.492  10.720 -2.4804 -1.4603 -1.4095
  872MOL0     H17720   4.347   4.500  10.550  0.7460 -3.6606 -2.7327
  873MOL0     O17721   5.783   1.784  10.817 -0.1221 -0.4187 -0.0589
  873MOL0     C17722   5.718   1.881  10.776 -0.0117  0.2364 -0.4743
  873MOL0     O17723   5.582   1.874  10.742 -0.0636 -0.1170  0.2355
  873MOL0     C17724   5.522   1.750  10.748  0.8338  0.4124 -0.9429
  873MOL0     C17725   5.457   1.705  10.869 -0.0323  0.3800  0.1441
  873MOL0     C17726   5.361   1.600  10.865  0.1641  0.7028  0.3519
  873MOL0     C17727   5.322   1.530  10.742 -0.7649 -0.7996  0.6790
  873MOL0     O17728   5.197   1.467  10.725  0.5754 -0.0596  0.0335
  873MOL0     C17729   5.151   1.388  10.833  1.1675 -0.0767 -0.8304
  873MOL0     C17730   5.228   1.260  10.862  0.3643 -1.0218 -0.2941
  873MOL0     C17731   5.161   1.188  10.978  0.7600  0.1274  0.1692
  873MOL0     C17732   5.230   1.067  11.017 -0.9322 -0.6444 -0.3980
  873MOL0     C17733   5.176   0.997  11.142 -0.1771 -1.2695  0.3676
  873MOL0     C17734   5.282   0.899  11.195  0.1684 -0.0284 -0.2560
  873MOL0     C17735   5.222   0.833  11.309 -0.8584 -0.5325  0.0071
  873MOL0     C17736   5.346   0.776  11.387 -0.3426  0.5547 -0.4027
  873MOL0     N17737   5.301   0.703  11.509  0.8411  0.6472  0.6785
  873MOL0     C17738   5.236   0.584  11.506  0.4493  0.9301 -0.7394
  873MOL0     C17739   5.182   0.572  11.626  0.8601  1.2235  1.3335
  873MOL0     C17740   5.101   0.455  11.676 -0.1493  0.1258  0.5066
  873MOL0     C17741   5.184   0.325  11.699 -0.1028 -0.1688 -0.2689
  873MOL0     C17742   5.091   0.206  11.756 -0.2302 -0.8076 -0.6403
  873MOL0     C17743   5.036   0.227  11.890 -0.1814  0.6062 -0.9055
  873MOL0     O17744   5.154   0.219  11.973  0.3304  0.4136  0.1398
  873MOL0     C17745   5.148   0.245  12.106  0.4755 -0.0221 -0.1353
  873MOL0     C17746   5.265   0.236  12.182 -0.1972 -0.0809 -0.4883
  873MOL0     C17747   5.271   0.283  12.309 -0.3554 -1.0499  0.8990
  873MOL0     C17748   5.169   0.328  12.381  0.6966  0.0719 -0.0492
  873MOL0     C17749   5.196   0.394  12.513  0.0734 -0.4078 -0.3220
  873MOL0     O17750   5.090   0.414  12.590 -0.3369 -0.1273 -0.8222
  873MOL0     C17751   5.118   0.450  12.721  0.9345 -0.6227  0.8696
  873MOL0     C17752   5.129   0.586  12.743  1.2682  0.7704  0.0517
  873MOL0     C17753   5.165   0.635  12.871 -0.4161 -0.5377 -0.4354
  873MOL0     C17754   5.200   0.560  12.978 -0.1812 -0.5321  0.1331
  873MOL0     O17755   5.264   0.607  13.084 -0.1165 -0.1568 -0.1128
  873MOL0     C17756   5.321   0.743  13.097 -0.1112 -0.5386  1.2652
  873MOL0     C17757   5.402   0.737  13.224 -0.6082  1.5000 -1.4436
  873MOL0     C17758   5.502   0.621  13.225  1.1478 -0.0791 -0.5554
  873MOL0     C17759   5.601   0.644  13.328 -0.0843 -0.0343  0.5717
  873MOL0     C17760   5.682   0.520  13.365  0.9626 -0.8216  0.7039
  873MOL0     C17761   5.809   0.508  13.286 -0.3397 -0.0541  0.0467
  873MOL0     C17762   5.872   0.379  13.316  0.4304  1.2218 -0.2886
  873MOL0     C17763   5.993   0.351  13.228 -0.0184  0.3547  0.3071
  873MOL0    Cl17764   6.040   0.183  13.192 -0.0585 -0.0711 -0.0178
  873MOL0     C17765   5.178   0.420  12.958 -0.9294 -0.9427 -0.3307
  873MOL0     C17766   5.133   0.369  12.832 -0.5496  0.5833  0.4122
  873MOL0     O17767   5.308   0.443  12.534  0.4438 -0.2887 -0.2779
  873MOL0     C17768   5.043   0.340  12.310 -0.7755 -0.1407 -0.3424
  873MOL0     C17769   5.039   0.289  12.180  0.5899  0.4757  0.1072
  873MOL0     N17770   5.208   0.677  11.703  0.4066 -1.1060  0.3391
  873MOL0     N17771   5.280   0.752  11.635 -0.4880 -0.1738  0.8764
  873MOL0     C17772   5.396   1.576  10.626  0.1923 -0.7520 -0.7573
  873MOL0     C17773   5.489   1.681  10.626 -0.5144 -0.2972 -0.1815
  873MOL0     C17774   5.765   2.027  10.786 -0.3604  0.2666  0.2929
  873MOL0     C17775   5.674   2.124  10.750  0.3906 -0.5614 -0.1166
  873MOL0     C17776   5.704   2.263  10.728  0.0232  0.2410  0.1980
  873MOL0     C17777   5.840   2.289  10.743 -0.3158  0.4233  0.2791
  873MOL0     O17778   5.891   2.413  10.712 -0.1331 -0.4524  0.1676
  873MOL0     C17779   5.818   2.532  10.760 -0.0599 -0.4743 -0.6214
  873MOL0     C17780   5.818   2.655  10.669  0.5403  0.0476 -0.1587
  873MOL0     C17781   5.959   2.706  10.649 -0.6764 -0.3047 -0.6604
  873MOL0     C17782   6.012   2.808  10.750  1.1144  0.6068  0.9905
  873MOL0     C17783   6.033   2.762  10.885 -0.4816 -1.0940 -0.1814
  873MOL0     C17784   6.072   2.729  10.996  1.4518 -0.3175 -0.7518
  873MOL0     C17785   5.923   2.193  10.792  0.4314 -0.6569 -0.0562
  873MOL0     C17786   5.889   2.063  10.809  0.2349  0.5999  1.2722
  873MOL0     C17787   6.003   1.968  10.845  0.9102 -0.7286  0.0010
  873MOL0     H17788   5.469   1.765  10.959  1.1938 -0.9211  0.8851
  873MOL0     H17789   5.311   1.584  10.959 -0.6410 -1.1958 -0.3410
  873MOL0     H17790   5.159   1.451  10.922 -0.5057 -0.0376 -0.6928
  873MOL0     H17791   5.044   1.370  10.827  0.5362  2.2009  1.6829
  873MOL0     H17792   5.331   1.279  10.892  0.2539 -1.6887  0.5437
  873MOL0     H17793   5.225   1.198  10.771  0.1752  0.2798 -1.2089
  873MOL0     H17794   5.058   1.177  10.946  0.7820  2.6783 -1.0232
  873MOL0     H17795   5.164   1.247  11.071 -1.4339 -0.7271  0.8326
  873MOL0     H17796   5.218   0.997  10.934  3.4360  0.2972 -2.0646
  873MOL0     H17797   5.337   1.081  11.032 -1.1228 -0.4065  0.8564
  873MOL0     H17798   5.156   1.071  11.219 -1.1470  4.3162 -4.5206
  873MOL0     H17799   5.079   0.952  11.120 -0.1162 -0.0228 -3.1555
  873MOL0     H17800   5.303   0.823  11.119  0.4982 -0.1581 -0.0352
  873MOL0     H17801   5.370   0.954  11.230  0.7079 -1.0182 -0.0355
  873MOL0     H17802   5.153   0.753  11.282  0.4188 -1.8156  0.4137
  873MOL0     H17803   5.164   0.908  11.364 -2.1730 -0.2532 -1.6784
  873MOL0     H17804   5.403   0.711  11.320 -1.8248 -1.8870  0.5942
  873MOL0     H17805   5.415   0.848  11.433  1.2239 -1.9979  1.5190
  873MOL0     H17806   5.221   0.512  11.427 -1.7705 -1.0713  1.3600
  873MOL0     H17807   5.065   0.485  11.776  2.1539  1.7619  0.9175
  873MOL0     H17808   5.016   0.444  11.608 -0.4597  2.5902  0.3900
  873MOL0     H17809   5.226   0.280  11.608  2.1873  0.5173  0.3650
  873MOL0     H17810   5.263   0.357  11.769 -2.4366  0.0191  2.4536
  873MOL0     H17811   5.154   0.117  11.754 -1.0282 -1.3795 -1.6605
  873MOL0     H17812   5.006   0.182  11.691 -1.3031  2.6280 -0.7309
  873MOL0     H17813   4.966   0.146  11.914  1.9371 -0.5664  1.9596
  873MOL0     H17814   4.976   0.315  11.912  0.1379 -0.4830  8.0714
  873MOL0     H17815   5.354   0.208  12.128 -0.6136 -0.8273 -0.8087
  873MOL0     H17816   5.360   0.301  12.368  0.5027  1.3898 -0.9872
  873MOL0     H17817   5.114   0.658  12.663  5.2197  1.1551 -0.5388
  873MOL0     H17818   5.177   0.743  12.873  1.6682 -0.6645 -2.5353
  873MOL0     H17819   5.399   0.749  13.020 -1.3338 -2.8211 -0.2640
  873MOL0     H17820   5.249   0.825  13.098  1.3955  1.0556 -2.2637
  873MOL0     H17821   5.467   0.825  13.214  0.8924  0.5048 -0.8991
  873MOL0     H17822   5.341   0.742  13.315 -0.7566 -0.9063 -1.3439
  873MOL0     H17823   5.458   0.521  13.226  3.7272 -1.3117  1.5239
  873MOL0     H17824   5.572   0.624  13.141  2.1195 -0.0682  0.2244
  873MOL0     H17825   5.549   0.657  13.423 -0.1081 -1.0936  0.7154
  873MOL0     H17826   5.662   0.730  13.299  1.1371 -1.4846 -1.4190
  873MOL0     H17827   5.620   0.431  13.361 -0.6554  0.2300  1.2637
  873MOL0     H17828   5.711   0.536  13.469 -1.4011  1.6643  1.0991
  873MOL0     H17829   5.776   0.519  13.182 -2.8526  0.5995  0.8261
  873MOL0     H17830   5.869   0.596  13.310 -0.5777  0.3187 -0.6912
  873MOL0     H17831   5.797   0.306  13.285  4.2903 -2.0048 -3.1035
  873MOL0     H17832   5.899   0.364  13.421 -1.5604 -0.6466  0.0287
  873MOL0     H17833   5.958   0.385  13.130 -1.2033 -1.8398 -0.1001
  873MOL0     H17834   6.073   0.417  13.263 -1.2675  1.6558  0.7947
  873MOL0     H17835   5.200   0.348  13.036 -2.9585  2.2663  3.6317
  873MOL0     H17836   5.106   0.270  12.796 -1.0569  1.1784 -0.9399
  873MOL0     H17837   4.951   0.385  12.347  1.0409  2.3543  1.4484
  873MOL0     H17838   4.939   0.272  12.141  1.6300 -2.2248 -1.7002
  873MOL0     H17839   5.370   1.536  10.528 -0.6814  3.6735 -2.5977
  873MOL0     H17840   5.541   1.727  10.542 -0.9094 -2.0881 -1.4575
  873MOL0     H17841   5.566   2.115  10.737  0.2294 -0.8825  1.2934
  873MOL0     H17842   5.632   2.334  10.690 -1.2916 -1.0785  0.1147
  873MOL0     H17843   5.857   2.563  10.857 -4.2029 -1.5775  1.6693
  873MOL0     H17844   5.712   2.505  10.765 -0.5334  1.2185 -1.0436
  873MOL0     H17845   5.763   2.741  10.708  0.3147 -0.4742  0.7147
  873MOL0     H17846   5.778   2.622  10.573  1.3874 -1.9449  0.1243
  873MOL0     H17847   5.959   2.753  10.551  3.3305  1.7634  0.1155
  873MOL0     H17848   6.021   2.615  10.649 -2.2728 -1.4797  0.7433
  873MOL0     H17849   6.104   2.841  10.702  1.8648 -3.8991 -1.1717
  873MOL0     H17850   5.942   2.893  10.746 -1.6557 -1.4575 -3.7105
  873MOL0     H17851   6.105   2.691  11.090  1.6528 -1.7748 -1.3788
  873MOL0     H17852   6.022   2.233  10.810  0.3253  0.7968 -2.3595
  873MOL0     H17853   6.036   1.922  10.752 -2.1339 -3.1082 -0.0507
  873MOL0     H17854   6.083   2.018  10.902  1.2296 -2.4368  1.1117
  873MOL0     H17855   5.971   1.891  10.916  1.6040  1.8313  3.3507
  874MOL0     O17856   9.970   1.474   8.434  0.5785 -0.1022  1.1229
  874MOL0     C17857  10.049   1.560   8.391  0.0359  0.6701 -0.1448
  874MOL0     O17858  10.133   1.626   8.467  0.6673  0.5344  0.3949
  874MOL0     C17859  10.146   1.581   8.593  0.2774  0.3177 -0.6483
  874MOL0     C17860  10.035   1.576   8.679  0.3826  0.6851  0.6953
  874MOL0     C17861  10.054   1.536   8.813 -0.8397 -0.4015  0.9081
  874MOL0     C17862  10.174   1.471   8.850  0.0960  0.1320 -0.0807
  874MOL0     O17863  10.182   1.414   8.975 -0.3701  0.8723 -0.2518
  874MOL0     C17864  10.285   1.310   8.990  0.2112  0.1171  0.9574
  874MOL0     C17865  10.251   1.224   9.117  0.3694  0.7559  0.3696
  874MOL0     C17866  10.326   1.086   9.121  0.8956  0.4832 -0.3417
  874MOL0     C17867  10.352   1.043   9.264  0.8019 -0.6151 -0.3591
  874MOL0     C17868  10.389   0.892   9.285  0.0878 -1.2696 -0.1608
  874MOL0     C17869  10.421   0.851   9.426  0.2113  0.2115 -0.0787
  874MOL0     C17870  10.459   0.700   9.417  1.2643  0.5360  0.8873
  874MOL0     C17871  10.589   0.677   9.351 -0.4160  0.5484 -0.0715
  874MOL0     N17872  10.680   0.594   9.431 -0.1351  0.7916 -0.3694
  874MOL0     C17873  10.795   0.621   9.505  0.9634 -1.4486  0.1149
  874MOL0     C17874  10.820   0.510   9.580  0.8045  0.3403 -0.2153
  874MOL0     C17875  10.939   0.481   9.659  0.2204 -1.0838  0.0776
  874MOL0     C17876  11.027   0.391   9.579 -0.6065 -0.0334 -0.0345
  874MOL0     C17877  11.163   0.373   9.662 -0.1616  0.3295 -0.1327
  874MOL0     C17878  11.278   0.312   9.584 -0.3014 -0.8395  0.6652
  874MOL0     O17879  11.313   0.411   9.490  0.0488  0.7333  0.5682
  874MOL0     C17880  11.385   0.382   9.375 -0.4557  0.5159 -0.0246
  874MOL0     C17881  11.429   0.255   9.336 -0.4244  0.1426 -0.2588
  874MOL0     C17882  11.501   0.238   9.219  1.5546  0.0681 -1.0013
  874MOL0     C17883  11.520   0.337   9.117  0.3194  0.3318 -0.1573
  874MOL0     C17884  11.575   0.309   8.980 -0.5535 -0.8143  0.8008
  874MOL0     O17885  11.662   0.203   8.946 -0.0942  1.2747 -0.0980
  874MOL0     C17886  11.706   0.185   8.820  0.8083 -0.1963 -0.4132
  874MOL0     C17887  11.833   0.129   8.800 -0.0602 -1.0350 -0.1557
  874MOL0     C17888  11.887   0.101   8.675  0.2861 -0.1994 -0.2094
  874MOL0     C17889  11.810   0.117   8.565  0.4830 -1.1105  0.3158
  874MOL0     O17890  11.855   0.098   8.435 -0.0518 -0.4677 -0.4400
  874MOL0     C17891  11.997   0.116   8.403 -0.0129 -0.5540 -0.3681
  874MOL0     C17892  12.015   0.119   8.253  0.1881 -0.5393  1.0481
  874MOL0     C17893  11.962  -0.019   8.197  0.8623 -1.3719  0.1895
  874MOL0     C17894  11.970  -0.036   8.044 -1.4055 -0.1826 -0.0217
  874MOL0     C17895  11.948   0.091   7.962 -1.4316 -0.4200  0.7156
  874MOL0     C17896  11.921   0.051   7.811  0.3470 -0.0928 -0.7035
  874MOL0     C17897  11.938   0.176   7.718 -0.0639 -0.1981  0.0372
  874MOL0     C17898  11.982   0.157   7.576 -0.5301  0.1079  0.5094
  874MOL0    Cl17899  11.890   0.017   7.498 -0.0985  0.2736 -0.1565
  874MOL0     C17900  11.689   0.184   8.574  0.7850 -0.0911  0.4655
  874MOL0     C17901  11.635   0.208   8.700  0.2030  0.3164  0.0872
  874MOL0     O17902  11.536   0.397   8.897  0.0546  0.4506 -1.5984
  874MOL0     C17903  11.475   0.466   9.152  0.7234  0.4319 -0.8310
  874MOL0     C17904  11.405   0.479   9.278  0.8485 -0.0120 -0.7733
  874MOL0     N17905  10.719   0.422   9.544 -1.6310 -0.4172  0.2218
  874MOL0     N17906  10.651   0.463   9.450  0.1384  0.2484  0.2347
  874MOL0     C17907  10.279   1.458   8.755 -0.0676  0.1561 -1.1265
  874MOL0     C17908  10.267   1.527   8.638  0.4731 -0.9297  0.4669
  874MOL0     C17909  10.070   1.571   8.241 -1.3187 -0.0086  0.3338
  874MOL0     C17910  10.178   1.660   8.199 -0.2690  0.0870 -0.1966
  874MOL0     C17911  10.219   1.671   8.062  0.0706  0.6552 -0.3962
  874MOL0     C17912  10.157   1.604   7.963  0.6168  0.1124 -0.6046
  874MOL0     O17913  10.194   1.627   7.834  0.7080 -0.4018  0.1989
  874MOL0     C17914  10.125   1.742   7.771  1.4084 -0.0826 -0.3779
  874MOL0     C17915  10.150   1.745   7.619  0.2942  0.0743 -0.4120
  874MOL0     C17916  10.081   1.614   7.562 -0.8226  0.0788  0.4385
  874MOL0     C17917   9.932   1.624   7.553  1.2722 -0.7447 -0.3682
  874MOL0     C17918   9.904   1.687   7.424 -0.1286 -0.2760  0.1024
  874MOL0     C17919   9.883   1.744   7.322  1.3897  0.4192  0.6415
  874MOL0     C17920  10.062   1.505   8.000  0.1390 -1.3320  0.3020
  874MOL0     C17921  10.013   1.494   8.135  0.1691  0.2587 -0.4519
  874MOL0     C17922   9.896   1.406   8.149  0.2471  0.3704  0.2064
  874MOL0     H17923   9.941   1.622   8.651 -0.8995 -2.1698 -0.0212
  874MOL0     H17924   9.981   1.560   8.890 -0.9621  0.7372  0.4565
  874MOL0     H17925  10.275   1.246   8.902 -1.4643  1.7725 -0.1292
  874MOL0     H17926  10.381   1.363   8.995 -0.0977  1.0678 -1.5928
  874MOL0     H17927  10.143   1.217   9.105  0.5221 -1.8172 -0.2729
  874MOL0     H17928  10.278   1.284   9.205 -1.9391  0.0280  1.6706
  874MOL0     H17929  10.419   1.098   9.066  0.7357  1.4436 -0.4219
  874MOL0     H17930  10.269   1.010   9.067  1.3237 -0.2400  0.2052
  874MOL0     H17931  10.414   1.113   9.320  2.6949 -2.4119 -0.0825
  874MOL0     H17932  10.253   1.053   9.309 -0.1264 -0.1096 -2.3985
  874MOL0     H17933  10.306   0.824   9.264 -1.7219 -0.2143  3.0116
  874MOL0     H17934  10.476   0.873   9.221  0.2221  2.6899 -1.3819
  874MOL0     H17935  10.502   0.910   9.469 -0.4799 -0.3621  2.1534
  874MOL0     H17936  10.335   0.874   9.490  0.9698  0.1954  0.9763
  874MOL0     H17937  10.383   0.638   9.370 -1.7773  2.8019  2.4157
  874MOL0     H17938  10.464   0.663   9.520 -1.5656  0.4093  1.0405
  874MOL0     H17939  10.576   0.626   9.255 -0.1183 -1.0404  0.7080
  874MOL0     H17940  10.649   0.768   9.343 -0.3548  0.9182  3.1771
  874MOL0     H17941  10.856   0.710   9.512  2.2662 -2.3803  1.0600
  874MOL0     H17942  10.996   0.574   9.664 -0.5924 -0.5510 -0.2910
  874MOL0     H17943  10.912   0.454   9.762 -2.3928  4.0063  1.0750
  874MOL0     H17944  10.987   0.290   9.565 -0.6157 -0.1160  0.5349
  874MOL0     H17945  11.050   0.427   9.479 -3.7894 -1.0831 -1.2639
  874MOL0     H17946  11.143   0.312   9.751  5.1920 -3.1790 -0.8835
  874MOL0     H17947  11.196   0.468   9.705  0.2664  0.5637 -0.9592
  874MOL0     H17948  11.244   0.229   9.520  1.3088  0.3514 -1.8995
  874MOL0     H17949  11.356   0.270   9.648 -0.6899  1.2278  2.6191
  874MOL0     H17950  11.423   0.168   9.401 -1.5174 -1.3278 -2.2117
  874MOL0     H17951  11.559   0.148   9.204 -2.0130 -2.7039  0.3781
  874MOL0     H17952  11.884   0.091   8.889  1.3571  1.0770  0.0208
  874MOL0     H17953  11.979   0.043   8.670 -0.9460 -2.1658 -2.5758
  874MOL0     H17954  12.010   0.218   8.441 -3.2225 -0.9073  2.1569
  874MOL0     H17955  12.056   0.039   8.453 -0.4970 -1.3236 -0.9448
  874MOL0     H17956  11.968   0.208   8.210  2.3805  0.1519 -0.0649
  874MOL0     H17957  12.123   0.129   8.239 -0.1854  2.7351 -0.3745
  874MOL0     H17958  12.005  -0.101   8.256  0.9401  0.0604  2.2423
  874MOL0     H17959  11.853  -0.021   8.204  0.7334 -2.6452 -1.5236
  874MOL0     H17960  11.905  -0.114   8.003 -1.9272  1.0032 -1.5772
  874MOL0     H17961  12.071  -0.074   8.032 -0.2044  2.7102 -0.0296
  874MOL0     H17962  12.046   0.140   7.967 -1.7400  0.2857  0.0245
  874MOL0     H17963  11.878   0.164   8.004  0.2857 -0.8953  4.8619
  874MOL0     H17964  11.995  -0.023   7.781  2.1334  2.3246 -2.7514
  874MOL0     H17965  11.820   0.009   7.806 -0.3844  1.2293  1.4258
  874MOL0     H17966  12.013   0.241   7.764 -1.8329  1.7382  0.3395
  874MOL0     H17967  11.842   0.229   7.718  0.4162  0.6944  0.0086
  874MOL0     H17968  11.958   0.246   7.518 -1.7849 -0.4713  0.0873
  874MOL0     H17969  12.089   0.140   7.566 -0.1310  2.1372  0.9867
  874MOL0     H17970  11.623   0.197   8.489  2.4730 -2.3457 -1.3127
  874MOL0     H17971  11.540   0.258   8.692 -0.1398 -0.6085 -2.7149
  874MOL0     H17972  11.484   0.555   9.090  1.3707  2.4595  1.9792
  874MOL0     H17973  11.371   0.578   9.308  0.9134  0.4406 -2.1070
  874MOL0     H17974  10.372   1.404   8.770 -0.9197 -0.4400  3.0426
  874MOL0     H17975  10.345   1.525   8.562 -0.6654  3.9704 -1.2034
  874MOL0     H17976  10.222   1.726   8.272  1.3167  2.0942 -2.7705
  874MOL0     H17977  10.294   1.742   8.031  1.7821  0.0426  2.0085
  874MOL0     H17978  10.179   1.827   7.814 -1.4792  1.4961  0.4120
  874MOL0     H17979  10.021   1.748   7.806  2.0977 -2.7336  2.5977
  874MOL0     H17980  10.259   1.748   7.604  0.5347  2.4195  1.2257
  874MOL0     H17981  10.101   1.833   7.578  2.8767  1.9301  0.1953
  874MOL0     H17982  10.102   1.537   7.637 -0.0546  0.8297  1.0118
  874MOL0     H17983  10.132   1.580   7.472  0.9792 -0.1817  1.5090
  874MOL0     H17984   9.891   1.523   7.550  0.0517 -0.3902  1.9415
  874MOL0     H17985   9.897   1.681   7.639  1.1571  0.8176 -1.3945
  874MOL0     H17986   9.852   1.778   7.226  0.9299 -1.5707  0.0470
  874MOL0     H17987  10.013   1.458   7.916 -0.0731  0.3399 -0.5485
  874MOL0     H17988   9.921   1.303   8.173 -0.6171  0.3613  1.1377
  874MOL0     H17989   9.841   1.449   8.234  0.5150  2.8888 -0.8110
  874MOL0     H17990   9.828   1.413   8.064  2.0982  0.7209 -1.3057
  875MOL0     O17991   6.960  11.315   1.173 -0.5239 -0.6578 -0.5873
  875MOL0     C17992   6.974  11.210   1.218  0.0575 -0.3769 -0.1368
  875MOL0     O17993   7.086  11.163   1.267 -0.1408  0.6641  0.0045
  875MOL0     C17994   7.190  11.252   1.298  0.9863 -0.7006  0.3122
  875MOL0     C17995   7.313  11.212   1.252 -0.7355 -0.6228  1.1466
  875MOL0     C17996   7.433  11.281   1.285 -0.7116 -0.4034  0.2503
  875MOL0     C17997   7.419  11.402   1.356 -0.4412  0.5113 -1.0887
  875MOL0     O17998   7.534  11.475   1.375 -0.2107 -0.1010  0.8349
  875MOL0     C17999   7.557  11.541   1.504  0.1679 -0.7100 -0.0107
  875MOL0     C18000   7.585  11.689   1.497 -0.3877 -0.9203  0.7181
  875MOL0     C18001   7.549  11.778   1.615  1.3318  0.4025  0.5744
  875MOL0     C18002   7.588  11.925   1.602 -1.0049  0.1466 -0.3380
  875MOL0     C18003   7.555  12.002   1.722  0.3352  0.2553 -0.1728
  875MOL0     C18004   7.627  12.142   1.718 -0.0506  1.0496 -0.1179
  875MOL0     C18005   7.544  12.239   1.811 -0.0436  0.0088 -0.1050
  875MOL0     C18006   7.463  12.342   1.725  0.2481  0.0984 -0.2229
  875MOL0     N18007   7.396  12.431   1.822  0.5344  0.9886  0.2525
  875MOL0     C18008   7.280  12.393   1.896  0.0867 -1.1623 -0.2515
  875MOL0     C18009   7.270  12.492   1.991 -0.3728 -0.1403 -0.4575
  875MOL0     C18010   7.162  12.504   2.093  0.5264 -0.1054  0.3402
  875MOL0     C18011   7.059  12.607   2.042  0.2394 -0.6364  0.3577
  875MOL0     C18012   6.923  12.630   2.103  0.1196  0.0772  0.5743
  875MOL0     C18013   6.919  12.646   2.254  0.2787  0.4122 -0.1147
  875MOL0     O18014   6.918  12.789   2.297  0.2981  0.5413 -0.1301
  875MOL0     C18015   6.904  12.816   2.434  0.0666  0.7202 -0.0093
  875MOL0     C18016   6.876  12.946   2.474 -0.6120 -0.1294 -1.2218
  875MOL0     C18017   6.865  12.969   2.615 -0.1683 -0.5621  0.3903
  875MOL0     C18018   6.855  12.863   2.701 -0.6465 -0.4250 -0.7777
  875MOL0     C18019   6.812  12.879   2.837  0.0308 -0.0865 -1.3010
  875MOL0     O18020   6.756  12.763   2.896  0.4772  0.4441  0.2814
  875MOL0     C18021   6.715  12.736   3.031 -0.6434 -1.4385 -0.2076
  875MOL0     C18022   6.681  12.838   3.129  0.3493 -0.1412 -0.2458
  875MOL0     C18023   6.646  12.788   3.257  0.1480  0.2758 -0.1574
  875MOL0     C18024   6.638  12.657   3.288  0.0601  0.2324  0.7252
  875MOL0     O18025   6.624  12.608   3.421  0.5121 -0.5798 -0.4922
  875MOL0     C18026   6.683  12.686   3.527 -0.7216  0.6937 -0.1902
  875MOL0     C18027   6.672  12.618   3.667  0.5432 -0.0051  0.5366
  875MOL0     C18028   6.663  12.713   3.781  0.3757 -0.2902  0.0915
  875MOL0     C18029   6.684  12.658   3.920  0.0619 -0.8284 -0.0859
  875MOL0     C18030   6.575  12.564   3.983 -0.1967  0.8225 -0.9459
  875MOL0     C18031   6.433  12.618   4.005 -0.2653  0.6907 -0.6739
  875MOL0     C18032   6.333  12.502   4.029 -0.4861  1.3521 -0.9214
  875MOL0     C18033   6.379  12.417   4.154 -0.0359  0.5209 -0.5091
  875MOL0    Cl18034   6.230  12.392   4.254  0.1014 -0.8314 -0.1343
  875MOL0     C18035   6.658  12.561   3.190 -0.3654  0.1287  0.0927
  875MOL0     C18036   6.703  12.599   3.061 -0.6657  0.6869  0.5894
  875MOL0     O18037   6.816  12.990   2.893 -0.3927 -0.0017  0.5938
  875MOL0     C18038   6.892  12.742   2.664 -0.3733 -1.0630  0.5549
  875MOL0     C18039   6.914  12.716   2.529 -0.4555 -0.3766  0.1659
  875MOL0     N18040   7.376  12.583   1.978 -0.2134  0.3339  0.1392
  875MOL0     N18041   7.452  12.535   1.881  0.0413 -0.1148 -0.2088
  875MOL0     C18042   7.292  11.445   1.397  0.2233  0.0523 -0.8826
  875MOL0     C18043   7.178  11.369   1.379 -0.7858 -0.3184  1.1899
  875MOL0     C18044   6.857  11.120   1.235 -0.8435 -0.3988 -0.5318
  875MOL0     C18045   6.881  10.982   1.215 -0.4924 -0.2201  1.5032
  875MOL0     C18046   6.779  10.890   1.211 -0.0841  0.5364 -0.1559
  875MOL0     C18047   6.646  10.929   1.248 -0.3413  0.1721  0.4818
  875MOL0     O18048   6.536  10.848   1.265 -0.5432  0.0380 -0.3240
  875MOL0     C18049   6.561  10.710   1.229  0.1265  0.0830 -0.7786
  875MOL0     C18050   6.562  10.704   1.073 -0.6667 -0.3637 -0.0663
  875MOL0     C18051   6.415  10.700   1.013 -0.0225 -0.0275 -0.4920
  875MOL0     C18052   6.337  10.834   1.034  0.5783 -0.4437 -0.7993
  875MOL0     C18053   6.216  10.822   0.955  0.2730 -0.0029 -0.4691
  875MOL0     C18054   6.103  10.819   0.916 -0.4505  0.5802 -0.7040
  875MOL0     C18055   6.618  11.063   1.260 -0.6735  0.3244  0.6068
  875MOL0     C18056   6.724  11.158   1.255  0.2450 -1.2406 -1.3112
  875MOL0     C18057   6.678  11.298   1.255  0.0392  0.6088 -0.3264
  875MOL0     H18058   7.317  11.122   1.192 -0.9503  0.1353 -0.0599
  875MOL0     H18059   7.535  11.254   1.260 -0.6603  0.5288 -0.5867
  875MOL0     H18060   7.471  11.519   1.567 -1.0449 -1.4460 -1.8177
  875MOL0     H18061   7.638  11.487   1.553  1.4781  1.2775  0.1434
  875MOL0     H18062   7.529  11.726   1.410  0.1423 -0.0702  0.7256
  875MOL0     H18063   7.693  11.695   1.481 -0.4097  1.8952  1.0576
  875MOL0     H18064   7.597  11.733   1.702 -0.8020 -1.0690  1.0746
  875MOL0     H18065   7.441  11.769   1.628  1.1322 -0.3777 -1.2515
  875MOL0     H18066   7.698  11.921   1.599 -0.8963  1.0798  1.1995
  875MOL0     H18067   7.557  11.966   1.506  0.9185 -1.6481 -1.8092
  875MOL0     H18068   7.447  12.014   1.718  0.0463 -2.0578 -3.4199
  875MOL0     H18069   7.588  11.953   1.815 -2.5241 -3.1064 -0.7417
  875MOL0     H18070   7.732  12.130   1.747 -0.4381 -1.3811  0.4941
  875MOL0     H18071   7.622  12.178   1.615 -3.2197  3.1752  0.6375
  875MOL0     H18072   7.614  12.299   1.871 -1.0846  1.0397  0.1030
  875MOL0     H18073   7.482  12.184   1.881  0.6104 -0.2894  0.2463
  875MOL0     H18074   7.515  12.415   1.662  1.5669  1.8710  2.6961
  875MOL0     H18075   7.377  12.296   1.677 -0.5185  1.5774 -0.3228
  875MOL0     H18076   7.221  12.302   1.890  0.4683 -1.6699  2.3954
  875MOL0     H18077   7.118  12.408   2.122 -1.5398 -0.2800 -2.8765
  875MOL0     H18078   7.215  12.542   2.181  0.4799  1.6773 -0.3547
  875MOL0     H18079   7.104  12.707   2.044  0.5194 -0.7655  2.1106
  875MOL0     H18080   7.063  12.575   1.938 -1.1743 -1.2169  0.4670
  875MOL0     H18081   6.863  12.545   2.070  0.9783 -0.0468 -0.7491
  875MOL0     H18082   6.879  12.721   2.062 -2.2312 -1.3243 -0.2373
  875MOL0     H18083   6.998  12.583   2.296  0.2110  0.0601 -0.5004
  875MOL0     H18084   6.823  12.599   2.276  0.6609 -2.7600 -4.0590
  875MOL0     H18085   6.871  13.030   2.405  1.2293  1.9213  0.9766
  875MOL0     H18086   6.848  13.074   2.640  2.5242  0.3516 -1.1053
  875MOL0     H18087   6.690  12.946   3.114  5.7271  0.3089  3.3433
  875MOL0     H18088   6.609  12.855   3.335 -1.3113  1.2766 -1.6464
  875MOL0     H18089   6.792  12.690   3.520 -0.7051  2.2497  0.4836
  875MOL0     H18090   6.647  12.789   3.532  0.7187  1.3533 -2.0917
  875MOL0     H18091   6.580  12.559   3.661  1.4194 -1.4167  0.4875
  875MOL0     H18092   6.750  12.544   3.688 -0.5963 -0.9874  1.4466
  875MOL0     H18093   6.734  12.793   3.758  0.4435 -0.3805 -0.0143
  875MOL0     H18094   6.563  12.756   3.773 -0.4679 -2.4641 -2.5804
  875MOL0     H18095   6.692  12.743   3.989 -0.6484  0.0523 -1.0526
  875MOL0     H18096   6.778  12.603   3.927 -1.2731 -3.0964  1.4505
  875MOL0     H18097   6.629  12.533   4.073  1.9221 -0.2455 -2.4972
  875MOL0     H18098   6.557  12.475   3.922 -1.4776  0.5112 -0.1483
  875MOL0     H18099   6.431  12.684   4.092 -2.5555 -0.4153  0.1865
  875MOL0     H18100   6.402  12.668   3.913 -2.6119 -1.0044 -0.8852
  875MOL0     H18101   6.325  12.429   3.948 -3.4503  0.2056  0.2768
  875MOL0     H18102   6.238  12.554   4.041  0.2879  2.3163  1.8238
  875MOL0     H18103   6.430  12.325   4.125 -1.4094 -0.4627  0.0548
  875MOL0     H18104   6.445  12.481   4.214 -0.2606  3.5148 -3.2425
  875MOL0     H18105   6.653  12.457   3.222 -0.0609  0.0308 -0.1759
  875MOL0     H18106   6.719  12.517   2.992  0.1378 -0.9746  2.6840
  875MOL0     H18107   6.905  12.663   2.737 -1.0587 -1.1733  0.5589
  875MOL0     H18108   6.955  12.622   2.493  0.2823 -0.1206  0.3034
  875MOL0     H18109   7.283  11.542   1.445  5.0747  1.5160 -2.3741
  875MOL0     H18110   7.080  11.401   1.415 -1.2093 -0.4079  0.1572
  875MOL0     H18111   6.978  10.953   1.176 -0.8021  1.4988 -0.7278
  875MOL0     H18112   6.805  10.793   1.170  1.5315  1.6176 -1.8236
  875MOL0     H18113   6.481  10.642   1.263  1.6652 -1.9180 -0.9601
  875MOL0     H18114   6.652  10.661   1.264 -0.1892  0.0992  0.1184
  875MOL0     H18115   6.621  10.617   1.042 -2.0728 -0.5709 -2.3404
  875MOL0     H18116   6.610  10.788   1.024 -1.1635 -1.0396 -1.7795
  875MOL0     H18117   6.351  10.623   1.058 -0.3449 -0.4017 -1.5711
  875MOL0     H18118   6.427  10.676   0.907 -1.2595 -2.5300 -0.1331
  875MOL0     H18119   6.307  10.842   1.139 -2.6191 -2.5573 -1.3999
  875MOL0     H18120   6.389  10.925   1.002 -1.9684  0.5524 -2.3478
  875MOL0     H18121   6.003  10.827   0.879 -0.3507  1.5225 -0.8111
  875MOL0     H18122   6.521  11.112   1.260 -0.7089  0.3397  2.5497
  875MOL0     H18123   6.747  11.362   1.311  0.6243  1.1047 -1.5752
  875MOL0     H18124   6.656  11.338   1.155  0.5903  2.2550  0.1718
  875MOL0     H18125   6.581  11.299   1.304  1.1815 -3.6045  2.5501
  876MOL0     O18126  10.981   1.244   5.713 -0.6992  0.1393  0.0035
  876MOL0     C18127  10.978   1.361   5.732  0.6178 -0.5070 -0.4931
  876MOL0     O18128  10.989   1.430   5.844 -0.1266 -0.0702  1.0042
  876MOL0     C18129  11.001   1.373   5.963  0.2212 -0.4514 -0.2016
  876MOL0     C18130  10.898   1.295   6.021 -0.3717  1.1995  0.5132
  876MOL0     C18131  10.899   1.273   6.159 -0.5166 -0.0149 -0.1496
  876MOL0     C18132  11.013   1.312   6.239 -0.5705 -1.3124  1.0858
  876MOL0     O18133  11.022   1.265   6.360 -0.3588 -1.3755  0.1250
  876MOL0     C18134  11.086   1.136   6.359  0.6046  0.0742 -0.2846
  876MOL0     C18135  11.182   1.136   6.483 -0.0269  0.1381 -0.5343
  876MOL0     C18136  11.309   1.222   6.457  0.2747 -1.5374 -0.6072
  876MOL0     C18137  11.419   1.174   6.371 -0.3827  0.8528 -0.4200
  876MOL0     C18138  11.519   1.275   6.353 -0.6070 -0.2480 -0.2919
  876MOL0     C18139  11.577   1.349   6.482  0.2467 -1.0017  0.3366
  876MOL0     C18140  11.652   1.259   6.579 -0.3380 -0.2215 -0.9560
  876MOL0     C18141  11.685   1.352   6.708  0.8267  0.1077  0.7523
  876MOL0     N18142  11.797   1.303   6.781 -0.8694 -0.7401 -0.3877
  876MOL0     C18143  11.822   1.191   6.864  0.8929  0.4043  0.2866
  876MOL0     C18144  11.949   1.202   6.901  0.0660  0.3844 -0.3664
  876MOL0     C18145  12.019   1.121   7.014  0.2195 -0.2400 -0.0280
  876MOL0     C18146  11.945   1.003   7.091  0.1363 -0.4160  0.1268
  876MOL0     C18147  12.043   0.965   7.210  0.8572  0.1020 -0.1947
  876MOL0     C18148  12.003   0.833   7.274  0.9337  0.3514 -0.4677
  876MOL0     O18149  11.890   0.862   7.354  0.3205  0.1138 -0.3447
  876MOL0     C18150  11.808   0.755   7.385 -0.6765 -0.2237  0.3631
  876MOL0     C18151  11.855   0.654   7.459  0.3807 -0.9560  0.7214
  876MOL0     C18152  11.761   0.555   7.502 -0.1061  1.0358 -0.0595
  876MOL0     C18153  11.632   0.554   7.455  0.7049 -0.1621 -0.3073
  876MOL0     C18154  11.535   0.449   7.511 -0.3051 -0.6208  0.7813
  876MOL0     O18155  11.408   0.481   7.488  0.6307  0.3639  0.6083
  876MOL0     C18156  11.297   0.404   7.510 -0.5663  0.6623 -0.8295
  876MOL0     C18157  11.177   0.467   7.479 -1.0779 -0.0334  0.9838
  876MOL0     C18158  11.057   0.400   7.490 -0.2592 -0.6115  0.6358
  876MOL0     C18159  11.051   0.273   7.549  0.5372  0.4321  0.0991
  876MOL0     O18160  10.927   0.217   7.583  0.8164  0.3931  0.2896
  876MOL0     C18161  10.918   0.079   7.618  1.0364 -0.0101  0.8960
  876MOL0     C18162  10.941   0.039   7.763 -0.1798 -0.5204  0.7662
  876MOL0     C18163  10.959  -0.119   7.793 -0.9690 -0.2229 -0.4020
  876MOL0     C18164  11.104  -0.167   7.774  0.3415  0.1085 -0.4220
  876MOL0     C18165  11.125  -0.311   7.805  0.5636 -0.4753  0.1131
  876MOL0     C18166  11.180  -0.322   7.949 -0.3230 -0.0704 -0.2394
  876MOL0     C18167  11.213  -0.459   7.995 -1.0503 -0.0495  0.6999
  876MOL0     C18168  11.270  -0.561   7.890  0.0996 -0.0373 -0.1443
  876MOL0    Cl18169  11.419  -0.510   7.803  0.0943  0.5362 -0.3482
  876MOL0     C18170  11.167   0.208   7.583 -0.0695 -0.5253 -0.1160
  876MOL0     C18171  11.288   0.271   7.558 -0.9119  0.8359  0.1827
  876MOL0     O18172  11.575   0.353   7.572  0.2316 -0.2857 -0.8396
  876MOL0     C18173  11.595   0.648   7.363  0.5075 -0.4193 -0.6189
  876MOL0     C18174  11.679   0.754   7.339 -0.1904 -0.4340  0.8600
  876MOL0     N18175  12.003   1.319   6.842 -0.0670  0.4122 -0.1809
  876MOL0     N18176  11.917   1.370   6.764 -0.0820 -0.4379  0.1673
  876MOL0     C18177  11.113   1.394   6.181 -0.4295 -0.5220 -0.9707
  876MOL0     C18178  11.104   1.426   6.051 -0.0244  0.0518  0.4409
  876MOL0     C18179  10.961   1.445   5.607 -0.1910 -0.6337 -1.4464
  876MOL0     C18180  10.880   1.389   5.508 -0.8315 -0.6261 -0.2207
  876MOL0     C18181  10.872   1.459   5.384 -0.0276 -1.3053 -0.2775
  876MOL0     C18182  10.934   1.582   5.362 -0.2705  1.6314  0.6551
  876MOL0     O18183  10.910   1.652   5.246  0.9853  0.3998  1.0202
  876MOL0     C18184  10.821   1.615   5.145  0.3808  0.4956  0.4834
  876MOL0     C18185  10.678   1.671   5.172  0.6512  0.4613  0.3876
  876MOL0     C18186  10.675   1.799   5.107  1.1599 -0.6472  0.4644
  876MOL0     C18187  10.536   1.869   5.122 -0.1442  0.5297 -0.5732
  876MOL0     C18188  10.428   1.790   5.059  1.3175  0.8009 -0.3408
  876MOL0     C18189  10.321   1.747   5.015  0.1117 -0.2706  0.9625
  876MOL0     C18190  11.014   1.634   5.470  0.4864  0.0035 -0.6116
  876MOL0     C18191  11.031   1.565   5.592  0.4070 -0.1327 -0.7721
  876MOL0     C18192  11.133   1.617   5.685  0.0224 -0.4758  0.0053
  876MOL0     H18193  10.803   1.294   5.968 -0.2494  2.4129  0.2434
  876MOL0     H18194  10.811   1.233   6.208  0.1849  0.0354  1.1777
  876MOL0     H18195  11.002   1.067   6.373 -0.3274  1.2460  0.0391
  876MOL0     H18196  11.132   1.110   6.263 -2.4413  3.1083 -2.7634
  876MOL0     H18197  11.215   1.034   6.501 -0.5318 -0.2224 -1.6032
  876MOL0     H18198  11.122   1.172   6.567 -0.4465  1.4976 -1.3771
  876MOL0     H18199  11.340   1.236   6.560 -0.4811 -0.9851 -0.4472
  876MOL0     H18200  11.282   1.321   6.419  0.8303 -0.1062  2.4549
  876MOL0     H18201  11.476   1.091   6.414  2.2328  1.5284 -2.3181
  876MOL0     H18202  11.376   1.143   6.275 -1.3746 -1.6732  0.7455
  876MOL0     H18203  11.597   1.232   6.289 -1.4982  1.7965 -2.9168
  876MOL0     H18204  11.474   1.350   6.288  1.3343  1.2579  0.0278
  876MOL0     H18205  11.643   1.431   6.451 -1.2372 -0.0979 -0.5498
  876MOL0     H18206  11.494   1.395   6.538  0.3885 -1.7218  1.1651
  876MOL0     H18207  11.742   1.229   6.525  0.8729  1.5781 -0.0418
  876MOL0     H18208  11.615   1.159   6.601 -1.9028  0.1732 -1.6477
  876MOL0     H18209  11.703   1.452   6.669  1.6372 -0.8910 -1.6782
  876MOL0     H18210  11.604   1.358   6.781  2.4537  2.0962  2.5246
  876MOL0     H18211  11.763   1.107   6.901 -0.9127  2.3757  2.1808
  876MOL0     H18212  12.104   1.072   6.966  1.5706  2.6208 -0.7431
  876MOL0     H18213  12.073   1.180   7.088  2.9027  1.5684 -3.2119
  876MOL0     H18214  11.845   1.015   7.133  0.5944  1.1616  0.8385
  876MOL0     H18215  11.941   0.919   7.021  0.8805 -1.0359  0.8080
  876MOL0     H18216  12.040   1.036   7.294  0.9242 -1.7067  1.3925
  876MOL0     H18217  12.150   0.961   7.185  0.8770 -0.3948 -0.0335
  876MOL0     H18218  12.087   0.798   7.335  2.6249  3.4793 -0.7609
  876MOL0     H18219  11.978   0.755   7.202 -1.0933  1.1805 -0.7275
  876MOL0     H18220  11.959   0.654   7.490  1.2050  1.9281 -1.5592
  876MOL0     H18221  11.792   0.474   7.567 -1.7072  1.3531  1.1808
  876MOL0     H18222  11.187   0.561   7.426  2.2018 -1.1864 -0.7435
  876MOL0     H18223  10.962   0.447   7.463  0.5977  0.9206  0.1749
  876MOL0     H18224  10.817   0.045   7.594  0.4409  0.9487  1.9252
  876MOL0     H18225  10.987   0.024   7.555  1.1071  0.4894  0.5308
  876MOL0     H18226  11.026   0.092   7.807 -1.8716  0.9657  2.4009
  876MOL0     H18227  10.850   0.073   7.813 -1.7761 -0.2360 -2.0972
  876MOL0     H18228  10.935  -0.126   7.899 -1.7131  0.8997 -0.4828
  876MOL0     H18229  10.886  -0.172   7.731 -1.9887  2.0348 -1.2311
  876MOL0     H18230  11.173  -0.105   7.832 -1.1188  0.1992  1.2779
  876MOL0     H18231  11.121  -0.156   7.666 -0.8469 -2.3179 -0.9213
  876MOL0     H18232  11.201  -0.356   7.741  1.5311  1.1162  0.1090
  876MOL0     H18233  11.035  -0.373   7.797 -0.5973  1.3869 -2.4244
  876MOL0     H18234  11.265  -0.254   7.947 -0.7267  0.4831  0.9053
  876MOL0     H18235  11.114  -0.273   8.020  0.8941  0.9501  0.2131
  876MOL0     H18236  11.124  -0.504   8.039 -0.8603  0.7475  1.9404
  876MOL0     H18237  11.290  -0.471   8.072  1.7122 -2.8932 -2.1910
  876MOL0     H18238  11.283  -0.655   7.944  2.5207  0.8087  0.8563
  876MOL0     H18239  11.187  -0.583   7.822 -0.2043 -0.2925  0.3051
  876MOL0     H18240  11.171   0.107   7.621  2.0962 -1.1047 -1.6978
  876MOL0     H18241  11.374   0.220   7.599  3.4832  3.8645 -4.0926
  876MOL0     H18242  11.497   0.641   7.316 -1.3703  1.3724  2.6604
  876MOL0     H18243  11.657   0.827   7.262  0.7088  0.2775  1.2574
  876MOL0     H18244  11.194   1.425   6.246  0.6004 -1.0383 -1.9762
  876MOL0     H18245  11.185   1.480   6.003 -0.2794 -0.4546 -0.6061
  876MOL0     H18246  10.824   1.297   5.518  1.8941 -2.6166 -1.9687
  876MOL0     H18247  10.800   1.417   5.314 -1.4985  1.1411 -0.3391
  876MOL0     H18248  10.807   1.507   5.134 -2.7413  0.7790  0.7539
  876MOL0     H18249  10.867   1.652   5.053 -0.4671 -0.5102 -0.3800
  876MOL0     H18250  10.670   1.689   5.279  1.9831  1.0326  0.4044
  876MOL0     H18251  10.597   1.610   5.130  1.3481  1.0096 -1.9154
  876MOL0     H18252  10.687   1.794   4.999  0.5585 -1.7782  0.4348
  876MOL0     H18253  10.747   1.861   5.161  0.3787  1.0904 -0.4180
  876MOL0     H18254  10.503   1.899   5.222  2.0222  0.9695  0.0600
  876MOL0     H18255  10.539   1.969   5.079  3.3842  0.4278 -0.8701
  876MOL0     H18256  10.235   1.709   4.964  0.3338  0.8836 -0.3045
  876MOL0     H18257  11.066   1.728   5.456 -0.0306  0.6361  1.4760
  876MOL0     H18258  11.077   1.643   5.776  0.5918 -2.2066  0.9032
  876MOL0     H18259  11.210   1.545   5.714 -1.6411 -1.0061  3.6707
  876MOL0     H18260  11.171   1.711   5.647 -2.6174  0.8388  0.3512
  877MOL0     O18261   8.364  10.374   1.778  0.3689 -0.4588  0.3254
  877MOL0     C18262   8.463  10.369   1.842 -0.7995 -1.1770  0.9619
  877MOL0     O18263   8.584  10.414   1.802 -0.1981  0.1070 -0.3266
  877MOL0     C18264   8.612  10.468   1.681 -0.0750  0.5227  0.3919
  877MOL0     C18265   8.646  10.390   1.567  0.5429  0.9505 -0.7811
  877MOL0     C18266   8.680  10.461   1.445 -0.9661 -0.1436 -0.6033
  877MOL0     C18267   8.683  10.601   1.437 -0.1987  0.3547 -0.7894
  877MOL0     O18268   8.721  10.660   1.321 -0.3271 -0.4148  0.3245
  877MOL0     C18269   8.702  10.803   1.299  1.1331  0.1422 -0.1472
  877MOL0     C18270   8.721  10.837   1.153 -0.4314  0.1611  0.2978
  877MOL0     C18271   8.872  10.808   1.119  0.4901 -1.2644 -0.2894
  877MOL0     C18272   8.883  10.823   0.962  0.2171 -0.1197 -0.3334
  877MOL0     C18273   9.022  10.772   0.910 -0.5117  0.4585 -0.0514
  877MOL0     C18274   9.136  10.868   0.944 -0.0054  0.7077 -0.1799
  877MOL0     C18275   9.276  10.807   0.897  0.7046  0.3031  0.1589
  877MOL0     C18276   9.392  10.849   0.983  0.5594 -0.0862  0.0998
  877MOL0     N18277   9.517  10.803   0.919 -0.3433 -0.6026  0.8900
  877MOL0     C18278   9.563  10.675   0.939  0.1300  0.5909 -1.0235
  877MOL0     C18279   9.687  10.667   0.868  0.4256 -0.4265  0.3861
  877MOL0     C18280   9.775  10.543   0.878 -0.1693 -0.7426  0.4200
  877MOL0     C18281   9.793  10.501   1.025  0.3194 -0.2991 -0.6644
  877MOL0     C18282   9.904  10.395   1.040 -0.0246  0.2509  0.3422
  877MOL0     C18283   9.900  10.320   1.174  0.7003 -0.3475 -0.3969
  877MOL0     O18284   9.777  10.266   1.204  0.8910  1.0994  0.6777
  877MOL0     C18285   9.747  10.232   1.331 -0.3157  0.4955 -0.4159
  877MOL0     C18286   9.847  10.193   1.427  0.7334 -0.2256  0.1423
  877MOL0     C18287   9.812  10.132   1.546  0.2147  0.1161 -0.4232
  877MOL0     C18288   9.676  10.120   1.579 -0.5090 -0.5518 -0.5804
  877MOL0     C18289   9.639  10.049   1.702  0.1355 -0.5279  0.5459
  877MOL0     O18290   9.745  10.038   1.785 -0.2585  0.3250 -1.0166
  877MOL0     C18291   9.723   9.953   1.888  0.9368 -0.1813  0.1313
  877MOL0     C18292   9.651  10.006   2.000 -0.7434  0.5180  1.0353
  877MOL0     C18293   9.640   9.926   2.118  0.1347 -0.3752  0.5974
  877MOL0     C18294   9.680   9.789   2.122  0.2912 -0.0163 -0.8274
  877MOL0     O18295   9.668   9.710   2.235  0.1220  0.9546 -0.7211
  877MOL0     C18296   9.792   9.664   2.284  0.9341  0.2026 -0.3899
  877MOL0     C18297   9.838   9.778   2.376  0.6767  0.0282 -0.1151
  877MOL0     C18298   9.930   9.728   2.498  0.4585 -0.8365  1.3799
  877MOL0     C18299  10.061   9.672   2.439 -0.6984  0.2414 -0.5477
  877MOL0     C18300  10.155   9.591   2.535  0.5586  0.0607 -0.9793
  877MOL0     C18301  10.270   9.509   2.475 -0.7284 -0.6323  0.2792
  877MOL0     C18302  10.378   9.444   2.566 -0.0445  0.2312 -0.6728
  877MOL0     C18303  10.512   9.388   2.505 -0.2030 -1.5613  0.2526
  877MOL0    Cl18304  10.543   9.235   2.577 -0.1619 -0.4300  0.6068
  877MOL0     C18305   9.739   9.735   2.008  0.3471 -0.1918  0.2298
  877MOL0     C18306   9.754   9.819   1.895 -0.7019  0.1065  0.1907
  877MOL0     O18307   9.521  10.016   1.727 -0.4351 -0.2840  0.1404
  877MOL0     C18308   9.580  10.166   1.493  0.9739  0.0656  0.2261
  877MOL0     C18309   9.616  10.225   1.366 -0.1658 -0.0021 -0.0792
  877MOL0     N18310   9.716  10.796   0.817 -0.3038 -1.0600 -0.0483
  877MOL0     N18311   9.617  10.875   0.862  0.0363  0.6205 -0.3100
  877MOL0     C18312   8.660  10.670   1.555  0.6865  0.4308 -1.7528
  877MOL0     C18313   8.636  10.604   1.684 -0.4772  1.1128  0.4048
  877MOL0     C18314   8.448  10.317   1.983 -0.9812 -0.5539 -0.4491
  877MOL0     C18315   8.320  10.275   2.018 -0.1270 -0.2701 -0.0839
  877MOL0     C18316   8.292  10.220   2.147  0.5515 -0.2453 -0.0147
  877MOL0     C18317   8.390  10.232   2.251  1.0411  1.0128 -0.0022
  877MOL0     O18318   8.366  10.202   2.382  0.8678  0.4821  0.3303
  877MOL0     C18319   8.279  10.092   2.425  0.0976  1.2118  0.6610
  877MOL0     C18320   8.170  10.133   2.521  0.8070 -0.4358 -0.6117
  877MOL0     C18321   8.033  10.057   2.519  0.8620  1.0420 -0.2642
  877MOL0     C18322   7.929  10.135   2.602 -0.3629  0.2663 -0.4287
  877MOL0     C18323   7.798  10.073   2.577 -0.0026  0.0786  0.7756
  877MOL0     C18324   7.696  10.015   2.562  0.3970  0.0879  0.5425
  877MOL0     C18325   8.511  10.285   2.223 -0.5152  0.1951  0.3533
  877MOL0     C18326   8.550  10.320   2.089  0.0619 -1.3837  0.4395
  877MOL0     C18327   8.698  10.352   2.082  0.3696  0.7109 -0.3188
  877MOL0     H18328   8.645  10.281   1.572  0.8834  0.8959 -1.7014
  877MOL0     H18329   8.704  10.412   1.351  2.2246 -0.6645  0.3505
  877MOL0     H18330   8.600  10.823   1.335  1.3163 -0.6684  0.8782
  877MOL0     H18331   8.776  10.854   1.362  2.7777 -0.6770 -1.3504
  877MOL0     H18332   8.696  10.942   1.136  2.2132  0.9752  1.0261
  877MOL0     H18333   8.648  10.779   1.095 -3.0840  3.1099  0.4045
  877MOL0     H18334   8.890  10.704   1.149 -0.8127 -2.0147 -1.9857
  877MOL0     H18335   8.943  10.878   1.164 -2.6096  0.8540  1.7035
  877MOL0     H18336   8.803  10.766   0.914  3.7768 -4.8671 -1.4291
  877MOL0     H18337   8.866  10.930   0.946 -0.4853 -0.2184 -0.2724
  877MOL0     H18338   9.056  10.682   0.962  2.1122 -0.4352 -2.9888
  877MOL0     H18339   9.022  10.758   0.801 -1.7190 -3.3976  0.3054
  877MOL0     H18340   9.112  10.969   0.910 -0.0482  0.2206 -1.6615
  877MOL0     H18341   9.156  10.877   1.051  4.1901 -2.6757 -0.4383
  877MOL0     H18342   9.299  10.811   0.791 -1.5391  1.0720 -0.3571
  877MOL0     H18343   9.258  10.699   0.908  0.9711  0.0467 -1.7171
  877MOL0     H18344   9.387  10.957   0.973  0.2241 -0.3140 -3.4241
  877MOL0     H18345   9.373  10.804   1.081  1.9292  0.2599  0.5505
  877MOL0     H18346   9.510  10.592   0.984 -1.3106  3.4702  3.1477
  877MOL0     H18347   9.744  10.461   0.812 -0.0046 -1.3376  1.0709
  877MOL0     H18348   9.871  10.570   0.833  0.3973 -2.9623  0.1732
  877MOL0     H18349   9.827  10.579   1.094  0.9907 -0.4034 -0.8772
  877MOL0     H18350   9.698  10.456   1.054 -0.3093 -0.2139 -2.4410
  877MOL0     H18351   9.987  10.459   1.010 -0.6647 -0.5348 -3.6697
  877MOL0     H18352   9.894  10.327   0.955 -1.5679 -2.0757  2.2786
  877MOL0     H18353   9.923  10.392   1.253 -0.1101 -1.7635  1.1795
  877MOL0     H18354   9.988  10.256   1.181 -0.8252 -2.3221  2.1681
  877MOL0     H18355   9.954  10.209   1.417  0.6040  0.6048  0.0282
  877MOL0     H18356   9.885  10.088   1.613  0.3079 -0.4882 -0.9064
  877MOL0     H18357   9.601  10.102   1.995  1.5337  1.7036 -1.0448
  877MOL0     H18358   9.589   9.978   2.199 -0.8002  2.9954 -1.8844
  877MOL0     H18359   9.775   9.575   2.345  0.5003 -0.6324 -1.6741
  877MOL0     H18360   9.854   9.643   2.196  0.3288  2.2709 -1.3783
  877MOL0     H18361   9.890   9.856   2.320  3.7682 -0.5853  1.6966
  877MOL0     H18362   9.748   9.815   2.426 -0.8359  0.3816 -2.8712
  877MOL0     H18363   9.958   9.816   2.557 -2.9662 -0.5872  2.8598
  877MOL0     H18364   9.875   9.663   2.566 -2.1445  0.3337  0.5043
  877MOL0     H18365  10.124   9.751   2.396  0.1177 -1.1158 -1.9237
  877MOL0     H18366  10.039   9.601   2.359  2.6831 -2.5163  0.7180
  877MOL0     H18367  10.095   9.507   2.572  3.0476 -1.3601  0.0637
  877MOL0     H18368  10.187   9.662   2.612 -4.3410  0.5867  1.0007
  877MOL0     H18369  10.238   9.433   2.403  2.2232  0.0161 -1.9187
  877MOL0     H18370  10.324   9.590   2.426 -0.9107 -0.7095 -0.0518
  877MOL0     H18371  10.337   9.359   2.621  2.5204 -0.9084 -0.3954
  877MOL0     H18372  10.410   9.503   2.652  2.2694 -1.1417 -0.5210
  877MOL0     H18373  10.511   9.387   2.395  1.7785  2.1475  0.0240
  877MOL0     H18374  10.600   9.446   2.536  0.3706 -3.3840  2.2592
  877MOL0     H18375   9.759   9.628   2.002 -3.4563 -0.9726 -2.5135
  877MOL0     H18376   9.791   9.773   1.803  2.1577 -1.8364  2.1433
  877MOL0     H18377   9.475  10.144   1.509  0.9598 -0.3666 -0.4036
  877MOL0     H18378   9.550  10.261   1.288 -0.2692 -0.3279 -0.1399
  877MOL0     H18379   8.681  10.776   1.559 -0.2188  0.6352 -2.2842
  877MOL0     H18380   8.618  10.661   1.775 -1.9374  3.2274 -1.1102
  877MOL0     H18381   8.243  10.266   1.942 -0.1636 -2.5116  0.1513
  877MOL0     H18382   8.191  10.186   2.167  1.2658 -1.9186  0.9034
  877MOL0     H18383   8.333  10.022   2.489 -1.8774 -0.7414  0.2984
  877MOL0     H18384   8.242  10.042   2.336 -0.8033  2.9028  0.0440
  877MOL0     H18385   8.146  10.239   2.503 -3.6228 -0.9777  0.9527
  877MOL0     H18386   8.207  10.125   2.623  0.2634 -0.9355 -0.4522
  877MOL0     H18387   8.038   9.954   2.556  2.2993  1.2439  0.1676
  877MOL0     H18388   8.009  10.048   2.413 -1.9384 -0.8529  0.4299
  877MOL0     H18389   7.965  10.130   2.705 -2.6828  1.3060  0.4957
  877MOL0     H18390   7.924  10.240   2.573  1.8197  0.8007  0.9353
  877MOL0     H18391   7.595   9.989   2.538  0.1224  1.9259 -0.4822
  877MOL0     H18392   8.584  10.290   2.303 -4.4325 -1.0534  4.4088
  877MOL0     H18393   8.737  10.337   1.981  1.2726 -3.5819  0.5017
  877MOL0     H18394   8.707  10.452   2.126 -2.6455  0.9714 -0.0549
  877MOL0     H18395   8.748  10.276   2.142 -3.2693 -1.3867  0.3894
  878MOL0     O18396   0.074   9.566   5.870  0.1952  0.0830  0.1096
  878MOL0     C18397   0.032   9.452   5.909 -0.3621 -0.6188  0.0282
  878MOL0     O18398  -0.058   9.377   5.840  0.7032  0.8115  0.5136
  878MOL0     C18399  -0.070   9.372   5.700  0.9846  0.0400 -0.4098
  878MOL0     C18400  -0.174   9.320   5.632 -0.7722 -0.6878 -0.0850
  878MOL0     C18401  -0.180   9.298   5.496  0.4254 -0.5186  0.5795
  878MOL0     C18402  -0.072   9.328   5.414  0.1744 -0.1482 -0.7415
  878MOL0     O18403  -0.070   9.306   5.276  0.0967 -0.2737  0.1816
  878MOL0     C18404  -0.077   9.169   5.247  0.5422  1.2702 -0.3109
  878MOL0     C18405  -0.037   9.138   5.097 -0.3931  0.0746  0.6252
  878MOL0     C18406  -0.081   9.259   5.007 -1.1900  0.9055 -0.4671
  878MOL0     C18407  -0.076   9.216   4.856 -0.0290  1.0692 -1.1817
  878MOL0     C18408  -0.020   9.331   4.779 -0.3718 -0.6027  0.2790
  878MOL0     C18409  -0.107   9.453   4.760  0.5560 -0.1666 -1.2119
  878MOL0     C18410  -0.249   9.445   4.695  0.1044 -0.1298 -0.0791
  878MOL0     C18411  -0.232   9.422   4.544  0.0387  0.2357 -0.2128
  878MOL0     N18412  -0.348   9.484   4.474  0.0389  0.2691  0.3207
  878MOL0     C18413  -0.353   9.512   4.347 -1.0257 -0.1200  0.7091
  878MOL0     C18414  -0.468   9.562   4.316  0.5752 -0.0564  0.4530
  878MOL0     C18415  -0.527   9.600   4.188  0.0414 -0.7126 -0.1180
  878MOL0     C18416  -0.578   9.743   4.184 -0.1477 -0.5776 -0.6996
  878MOL0     C18417  -0.461   9.839   4.213  0.8825 -0.2927  1.5432
  878MOL0     C18418  -0.505   9.948   4.306 -0.4326 -0.2222  0.3952
  878MOL0     O18419  -0.386  10.025   4.335  0.6653  0.1129 -0.9338
  878MOL0     C18420  -0.401  10.120   4.428  0.4632 -0.2710 -0.9365
  878MOL0     C18421  -0.288  10.208   4.449  0.4969  1.1637  0.3556
  878MOL0     C18422  -0.300  10.302   4.551 -0.0678  0.1811 -0.1877
  878MOL0     C18423  -0.421  10.321   4.632 -0.2774  0.4196 -0.1148
  878MOL0     C18424  -0.425  10.420   4.749 -0.0606  0.0699  0.1403
  878MOL0     O18425  -0.525  10.405   4.838 -0.6627 -0.3491  0.0362
  878MOL0     C18426  -0.508  10.461   4.959 -0.5503  0.4720  0.5193
  878MOL0     C18427  -0.606  10.548   5.014 -0.3787 -0.2594  0.2843
  878MOL0     C18428  -0.583  10.600   5.142  0.8750  0.4798  0.0082
  878MOL0     C18429  -0.470  10.574   5.219  0.1172 -0.4616  0.3316
  878MOL0     O18430  -0.454  10.648   5.340  0.6728 -0.0771  0.6031
  878MOL0     C18431  -0.400  10.569   5.443 -0.7573 -0.2107  0.2598
  878MOL0     C18432  -0.405  10.655   5.575 -1.1151  0.4976  0.0127
  878MOL0     C18433  -0.354  10.578   5.699  0.5408 -0.3867 -0.0662
  878MOL0     C18434  -0.201  10.575   5.711 -0.5353 -0.4715 -0.9711
  878MOL0     C18435  -0.168  10.498   5.835 -0.6378 -0.2547 -0.8721
  878MOL0     C18436  -0.024  10.511   5.876 -1.4393  0.3935 -0.2165
  878MOL0     C18437   0.012  10.478   6.020 -0.5708 -0.3705 -0.9436
  878MOL0     C18438   0.031  10.326   6.055  1.5219 -0.4099 -0.5424
  878MOL0    Cl18439   0.032  10.320   6.228  0.1698 -0.3625 -0.3555
  878MOL0     C18440  -0.376  10.486   5.161 -0.1163 -0.1760  0.0013
  878MOL0     C18441  -0.393  10.439   5.030 -0.8813 -0.5850 -0.5114
  878MOL0     O18442  -0.336  10.502   4.753 -0.3213 -0.3103  0.6697
  878MOL0     C18443  -0.526  10.243   4.597  0.7892  0.4037 -0.1191
  878MOL0     C18444  -0.521  10.142   4.499  0.1632  0.3929  0.0339
  878MOL0     N18445  -0.532   9.576   4.439 -0.7151  0.1891  0.5202
  878MOL0     N18446  -0.471   9.518   4.530 -0.0722 -0.0342  0.5926
  878MOL0     C18447   0.037   9.388   5.475  1.1856 -0.4810 -0.0700
  878MOL0     C18448   0.031   9.421   5.614  0.0946 -1.1106  0.1456
  878MOL0     C18449   0.067   9.403   6.053  0.2266 -1.1721  0.3000
  878MOL0     C18450  -0.006   9.296   6.105 -0.8696  0.5187 -1.1344
  878MOL0     C18451   0.014   9.245   6.236  0.3478  1.5150 -0.3481
  878MOL0     C18452   0.125   9.289   6.306  0.5191 -0.4391  0.5371
  878MOL0     O18453   0.160   9.225   6.421 -0.7704  0.4427 -0.7989
  878MOL0     C18454   0.054   9.243   6.523  0.7360 -0.3567  0.5804
  878MOL0     C18455   0.101   9.225   6.670 -0.2940 -0.2551  0.7938
  878MOL0     C18456   0.210   9.120   6.683  1.3703 -0.0541 -0.5432
  878MOL0     C18457   0.240   9.062   6.822 -0.0130 -0.2187  0.0699
  878MOL0     C18458   0.289   9.153   6.932 -0.2037 -0.4654 -0.6212
  878MOL0     C18459   0.354   9.231   7.002 -0.1483  0.7854  0.5792
  878MOL0     C18460   0.203   9.398   6.256 -0.2105 -0.5300 -0.0033
  878MOL0     C18461   0.173   9.460   6.129  0.0438 -0.3593  0.8863
  878MOL0     C18462   0.255   9.575   6.089  0.3276 -0.6673  0.5552
  878MOL0     H18463  -0.253   9.300   5.704 -0.0423  1.6661  1.5135
  878MOL0     H18464  -0.276   9.261   5.460 -1.2037  1.9533  2.0394
  878MOL0     H18465  -0.014   9.105   5.309 -2.0967  0.8067  2.0945
  878MOL0     H18466  -0.176   9.139   5.282 -0.2120  2.0610 -1.6664
  878MOL0     H18467  -0.079   9.042   5.065  0.5658 -1.2779  3.1496
  878MOL0     H18468   0.071   9.147   5.083 -0.4336  3.0918  1.6260
  878MOL0     H18469  -0.012   9.342   5.026 -0.6987  1.0645 -2.6360
  878MOL0     H18470  -0.178   9.304   5.029 -0.7846  2.0293 -0.8784
  878MOL0     H18471  -0.014   9.129   4.832 -0.3120  0.7930 -0.9353
  878MOL0     H18472  -0.177   9.194   4.820  0.7026 -0.5967 -2.3572
  878MOL0     H18473   0.075   9.361   4.825 -0.1870  0.3538 -0.6855
  878MOL0     H18474   0.003   9.295   4.678  0.3503 -1.5778  0.7671
  878MOL0     H18475  -0.124   9.481   4.865  0.0164 -0.5538 -1.1938
  878MOL0     H18476  -0.056   9.536   4.711  3.0802 -2.1269 -2.1308
  878MOL0     H18477  -0.311   9.527   4.732 -1.0673 -1.4869  1.0884
  878MOL0     H18478  -0.311   9.362   4.731  1.8754 -1.8876 -0.8679
  878MOL0     H18479  -0.137   9.458   4.503 -0.8173  1.6880 -1.0218
  878MOL0     H18480  -0.242   9.314   4.530  1.1590  0.3217 -1.9260
  878MOL0     H18481  -0.275   9.497   4.273 -0.1669  1.2209  1.3176
  878MOL0     H18482  -0.450   9.580   4.114  2.8855 -3.7223  3.2648
  878MOL0     H18483  -0.608   9.531   4.160 -1.0298 -1.0428  3.3270
  878MOL0     H18484  -0.613   9.767   4.083 -0.3359 -0.1033 -0.5259
  878MOL0     H18485  -0.664   9.764   4.249  0.7870  2.3007 -0.2126
  878MOL0     H18486  -0.427   9.877   4.116  0.5686 -0.7268  1.2608
  878MOL0     H18487  -0.367   9.793   4.247 -0.0492 -0.6778  3.7099
  878MOL0     H18488  -0.560   9.912   4.393 -3.2633 -0.0270 -1.1907
  878MOL0     H18489  -0.576  10.013   4.255 -2.5327 -2.6275  0.0479
  878MOL0     H18490  -0.192  10.212   4.399  0.1819 -0.7510 -0.4749
  878MOL0     H18491  -0.219  10.374   4.567  0.3250  0.4364 -2.8638
  878MOL0     H18492  -0.696  10.573   4.960  0.2553  2.8730  0.4819
  878MOL0     H18493  -0.651  10.672   5.186 -0.5846 -1.5165  1.2080
  878MOL0     H18494  -0.464  10.481   5.456  0.9910 -1.4035  1.2305
  878MOL0     H18495  -0.298  10.534   5.425 -0.5577  1.2791 -1.9002
  878MOL0     H18496  -0.353  10.751   5.561 -2.4681  1.2945  0.2564
  878MOL0     H18497  -0.512  10.671   5.590 -1.1046 -0.3458  1.0624
  878MOL0     H18498  -0.388  10.629   5.789 -0.1843 -0.4945 -0.2721
  878MOL0     H18499  -0.394  10.476   5.695 -0.7426  0.0574  0.6920
  878MOL0     H18500  -0.166  10.678   5.723  0.6474 -0.8812 -0.8646
  878MOL0     H18501  -0.152  10.540   5.621  2.2635  0.7753 -0.0421
  878MOL0     H18502  -0.198  10.393   5.835  0.8897 -0.7232 -0.5566
  878MOL0     H18503  -0.227  10.540   5.917  1.5838  0.0770  0.6390
  878MOL0     H18504   0.029  10.445   5.807 -0.2026 -0.3093  1.3284
  878MOL0     H18505  -0.000  10.616   5.858  1.0220  0.1357  1.1157
  878MOL0     H18506  -0.071  10.517   6.079  3.0344  2.2200  3.0774
  878MOL0     H18507   0.095  10.543   6.050  0.0351 -1.9763  1.0670
  878MOL0     H18508  -0.056  10.268   6.023 -2.5828  4.8554 -0.3766
  878MOL0     H18509   0.127  10.298   6.011  2.1395 -1.5105  1.3886
  878MOL0     H18510  -0.289  10.452   5.216  1.3844  3.3831  0.1146
  878MOL0     H18511  -0.320  10.377   4.979 -1.0220 -0.2732 -1.1116
  878MOL0     H18512  -0.611  10.255   4.664  0.0013 -0.3847 -0.9494
  878MOL0     H18513  -0.613  10.096   4.465 -1.6883  5.1226 -2.1128
  878MOL0     H18514   0.117   9.425   5.411 -1.4212  0.7625 -2.8953
  878MOL0     H18515   0.118   9.465   5.660 -0.2300  1.5939 -1.5569
  878MOL0     H18516  -0.097   9.264   6.055 -2.6807  1.1138  1.5640
  878MOL0     H18517  -0.048   9.164   6.273  0.5521  1.6254  0.2525
  878MOL0     H18518  -0.034   9.182   6.499 -1.8880  3.9533 -2.0895
  878MOL0     H18519   0.002   9.340   6.519 -0.1968 -0.8791 -0.5093
  878MOL0     H18520   0.010   9.201   6.726 -3.5798  3.9259 -2.0530
  878MOL0     H18521   0.149   9.318   6.702  0.1640 -0.3498  0.3861
  878MOL0     H18522   0.298   9.166   6.636 -0.3566  4.1231 -0.1898
  878MOL0     H18523   0.168   9.036   6.627 -1.0857  1.4779 -1.1566
  878MOL0     H18524   0.145   9.027   6.864  0.2498  0.8056  1.6144
  878MOL0     H18525   0.306   8.977   6.804  0.3027  0.1394 -0.5177
  878MOL0     H18526   0.415   9.296   7.061 -2.8186  3.3138  0.8113
  878MOL0     H18527   0.291   9.439   6.305 -0.1086  1.5845 -1.8345
  878MOL0     H18528   0.316   9.541   6.005  2.4012 -1.8297  2.3962
  878MOL0     H18529   0.199   9.663   6.058  2.4883  0.3081 -0.8158
  878MOL0     H18530   0.323   9.623   6.161 -0.5294  2.4886 -0.5758
  879MOL0     O18531   4.043   5.088   6.009 -0.0273  0.1653  0.0388
  879MOL0     C18532   4.025   5.092   6.133  1.2528 -0.1312  0.1513
  879MOL0     O18533   4.082   5.175   6.218 -0.1515  0.5395  0.0369
  879MOL0     C18534   4.128   5.299   6.178 -0.2126  1.6507  0.4879
  879MOL0     C18535   4.219   5.346   6.273 -0.0735  0.3864  0.0177
  879MOL0     C18536   4.291   5.468   6.252  0.0945 -0.4686  0.0969
  879MOL0     C18537   4.266   5.544   6.138 -0.0247 -0.0338  0.6610
  879MOL0     O18538   4.310   5.678   6.113 -1.3108  0.1288  0.3720
  879MOL0     C18539   4.410   5.740   6.194  2.0060 -0.3363 -0.3412
  879MOL0     C18540   4.552   5.696   6.160  0.0792 -0.3767  0.7720
  879MOL0     C18541   4.616   5.746   6.030  0.7178 -0.4505  0.9984
  879MOL0     C18542   4.561   5.873   5.973  0.6882  0.4674 -0.2125
  879MOL0     C18543   4.640   5.926   5.853 -0.2150 -0.6611 -0.1170
  879MOL0     C18544   4.559   6.047   5.789  0.2349  0.2498 -0.3901
  879MOL0     C18545   4.638   6.162   5.733  0.1316 -0.0676  0.6634
  879MOL0     C18546   4.559   6.261   5.645  0.3596  0.9332  0.0409
  879MOL0     N18547   4.642   6.359   5.575  0.7430 -0.6070  0.2453
  879MOL0     C18548   4.600   6.493   5.547 -0.2036 -0.3474  0.4244
  879MOL0     C18549   4.710   6.548   5.479  0.1863  0.5694  0.1140
  879MOL0     C18550   4.695   6.701   5.435 -0.0411  0.6621  0.1043
  879MOL0     C18551   4.738   6.727   5.293  0.2951  0.0806 -0.9010
  879MOL0     C18552   4.709   6.877   5.264  0.2672 -0.5454  0.2960
  879MOL0     C18553   4.765   6.908   5.128 -0.0826 -1.0094 -0.1071
  879MOL0     O18554   4.715   7.036   5.085  0.3400 -0.0200 -0.2809
  879MOL0     C18555   4.787   7.084   4.984  0.2417 -0.6028  0.1793
  879MOL0     C18556   4.882   7.180   5.013 -0.5378  0.5091 -0.7522
  879MOL0     C18557   4.942   7.246   4.909  0.9694 -0.5542 -0.0385
  879MOL0     C18558   4.898   7.234   4.772 -0.0056 -0.4147 -0.0516
  879MOL0     C18559   4.953   7.325   4.671  0.0525 -0.1727 -0.5088
  879MOL0     O18560   4.917   7.304   4.546 -0.3501 -1.0616  0.4517
  879MOL0     C18561   4.976   7.371   4.450  0.3215  0.6693 -0.0731
  879MOL0     C18562   4.900   7.442   4.361  0.7375 -0.2820  0.4227
  879MOL0     C18563   4.950   7.501   4.246  0.2071 -0.3358 -0.2352
  879MOL0     C18564   5.082   7.499   4.222 -0.1227 -0.0920 -0.5511
  879MOL0     O18565   5.124   7.521   4.090  0.1334 -0.0132  0.0503
  879MOL0     C18566   5.261   7.530   4.066  0.4594 -0.0816  0.3186
  879MOL0     C18567   5.287   7.593   3.928  0.8045 -0.4848 -0.1384
  879MOL0     C18568   5.251   7.736   3.935  0.3717 -0.7679 -0.6985
  879MOL0     C18569   5.277   7.809   3.807 -0.2594  0.5747  0.3364
  879MOL0     C18570   5.427   7.820   3.747 -0.3511  0.7409  0.7317
  879MOL0     C18571   5.431   7.931   3.643  0.3822  1.0605  0.2146
  879MOL0     C18572   5.568   7.946   3.581 -0.4545 -0.7406 -0.2407
  879MOL0     C18573   5.554   7.960   3.431 -0.2932 -0.2827 -0.3825
  879MOL0    Cl18574   5.717   7.970   3.365  0.1967 -0.0618  0.2390
  879MOL0     C18575   5.166   7.450   4.317  0.0652  0.2263 -0.0243
  879MOL0     C18576   5.116   7.380   4.421 -0.7694  0.0522 -0.1724
  879MOL0     O18577   5.030   7.419   4.711  0.5058  0.6460 -0.5897
  879MOL0     C18578   4.794   7.144   4.741 -0.0232 -0.1483 -0.3245
  879MOL0     C18579   4.746   7.070   4.850  1.2409 -0.3715 -0.2410
  879MOL0     N18580   4.795   6.437   5.444 -0.8525  0.2557  0.5941
  879MOL0     N18581   4.751   6.339   5.508 -0.4395 -0.0216 -0.0593
  879MOL0     C18582   4.163   5.495   6.049 -0.5852 -1.0302  0.3947
  879MOL0     C18583   4.094   5.379   6.069  0.2506  0.2406  0.3795
  879MOL0     C18584   3.928   4.990   6.199  0.3872 -0.2026  1.0729
  879MOL0     C18585   3.940   4.972   6.339 -0.1991 -0.5540  0.4442
  879MOL0     C18586   3.859   4.892   6.419  0.2951  0.5620  0.3239
  879MOL0     C18587   3.763   4.814   6.358  0.3660 -0.1112 -1.0547
  879MOL0     O18588   3.678   4.719   6.423  0.8748 -0.7033  0.3679
  879MOL0     C18589   3.661   4.725   6.568 -0.1865  0.0861  0.9076
  879MOL0     C18590   3.565   4.605   6.605  0.0048 -0.1864  0.6695
  879MOL0     C18591   3.531   4.630   6.750 -0.3991 -0.3920 -0.5734
  879MOL0     C18592   3.654   4.581   6.842 -0.3772  0.2899 -0.4065
  879MOL0     C18593   3.677   4.435   6.819 -0.8446 -0.2157  1.1872
  879MOL0     C18594   3.711   4.321   6.796 -0.0400 -0.6007 -0.5375
  879MOL0     C18595   3.749   4.832   6.224 -0.6333 -0.4933 -1.6406
  879MOL0     C18596   3.831   4.908   6.141 -0.3597  0.5826  0.4092
  879MOL0     C18597   3.829   4.892   5.993 -0.3419  0.0293 -0.7806
  879MOL0     H18598   4.236   5.295   6.368  0.4821  3.7834  1.9245
  879MOL0     H18599   4.359   5.510   6.325 -0.5640  0.9337 -0.0521
  879MOL0     H18600   4.402   5.843   6.158 -0.8711 -0.7711 -1.2043
  879MOL0     H18601   4.394   5.736   6.302  4.5868  2.9610  0.3284
  879MOL0     H18602   4.549   5.589   6.182  2.4496 -0.8179 -0.6613
  879MOL0     H18603   4.605   5.755   6.235 -1.2106  1.1380  0.5288
  879MOL0     H18604   4.604   5.669   5.954 -4.5499  0.4370  0.5843
  879MOL0     H18605   4.721   5.778   6.040  0.1002  3.8591 -2.8101
  879MOL0     H18606   4.461   5.844   5.939  0.0839  1.9755  0.1878
  879MOL0     H18607   4.550   5.947   6.053 -0.3678 -1.0205  1.0718
  879MOL0     H18608   4.735   5.968   5.887 -0.3579  1.9118 -2.4818
  879MOL0     H18609   4.669   5.850   5.780 -0.8757 -0.3495 -0.7187
  879MOL0     H18610   4.509   6.003   5.702 -2.0230  0.0041  0.9605
  879MOL0     H18611   4.481   6.070   5.862  0.9651 -2.4330  1.3878
  879MOL0     H18612   4.725   6.128   5.676  0.6195  0.6161  0.9826
  879MOL0     H18613   4.686   6.219   5.813 -0.8203  2.3461 -0.4058
  879MOL0     H18614   4.526   6.188   5.570 -1.3284  1.4686  0.2178
  879MOL0     H18615   4.477   6.304   5.703 -0.8371 -0.2458 -0.7341
  879MOL0     H18616   4.505   6.537   5.576 -1.1560 -0.8642 -1.7234
  879MOL0     H18617   4.588   6.720   5.443 -0.2038 -0.5679  1.3645
  879MOL0     H18618   4.742   6.765   5.511 -1.3621  0.8928  0.7588
  879MOL0     H18619   4.836   6.682   5.279 -0.4115 -1.0434 -2.6567
  879MOL0     H18620   4.662   6.673   5.235 -0.0268  1.8771 -2.2700
  879MOL0     H18621   4.750   6.950   5.334 -1.4682  0.7688  0.0292
  879MOL0     H18622   4.603   6.904   5.264  1.0318  2.9832 -0.1433
  879MOL0     H18623   4.734   6.835   5.053 -0.9830  1.8046 -2.6832
  879MOL0     H18624   4.874   6.912   5.128 -0.1165  0.5312  0.6139
  879MOL0     H18625   4.915   7.191   5.116 -0.0801 -1.0406 -0.6988
  879MOL0     H18626   5.029   7.306   4.937 -0.3957  0.5508  2.1159
  879MOL0     H18627   4.796   7.461   4.387 -0.1884 -1.0962 -2.3957
  879MOL0     H18628   4.888   7.554   4.174  0.2494  0.0090 -0.0205
  879MOL0     H18629   5.323   7.582   4.140 -1.2283  2.1280  0.2631
  879MOL0     H18630   5.307   7.431   4.052 -3.2157 -1.6437 -2.2763
  879MOL0     H18631   5.395   7.586   3.911  0.4201  0.4306 -3.7319
  879MOL0     H18632   5.243   7.542   3.842  2.2779 -1.5424 -0.3090
  879MOL0     H18633   5.142   7.739   3.946  0.3999 -0.9541 -0.3534
  879MOL0     H18634   5.300   7.794   4.014  0.6022 -3.6314  1.3788
  879MOL0     H18635   5.244   7.913   3.809 -3.6292 -0.4022  1.3334
  879MOL0     H18636   5.224   7.754   3.729  2.7604  0.1176 -1.5662
  879MOL0     H18637   5.458   7.727   3.698 -0.1725  0.5389  1.2217
  879MOL0     H18638   5.504   7.837   3.822  1.0279  0.7805 -0.6436
  879MOL0     H18639   5.358   7.910   3.564 -3.2810 -1.8640  3.8963
  879MOL0     H18640   5.395   8.026   3.684 -0.5679  2.3321 -3.2385
  879MOL0     H18641   5.633   7.858   3.591  1.1977  0.6342  1.7774
  879MOL0     H18642   5.624   8.031   3.619 -0.5432 -0.8431  0.1176
  879MOL0     H18643   5.491   7.878   3.397 -0.2854 -0.8625  0.9492
  879MOL0     H18644   5.490   8.048   3.418 -1.8000 -1.4013 -0.7429
  879MOL0     H18645   5.272   7.429   4.304  0.2544  2.6859 -4.8876
  879MOL0     H18646   5.172   7.321   4.493 -0.9601  0.8297  0.6303
  879MOL0     H18647   4.755   7.138   4.640 -0.6654 -0.1135 -0.0805
  879MOL0     H18648   4.683   6.983   4.836 -1.1197  0.9593  1.5194
  879MOL0     H18649   4.126   5.557   5.968  0.0424 -0.1930  0.7233
  879MOL0     H18650   4.017   5.350   5.999  1.4159 -1.4678 -0.2731
  879MOL0     H18651   4.025   5.023   6.384  0.8317 -2.3122  0.5785
  879MOL0     H18652   3.875   4.883   6.526 -2.3121 -1.5989  0.6240
  879MOL0     H18653   3.607   4.817   6.589  1.5200  1.4167 -0.2458
  879MOL0     H18654   3.756   4.728   6.621  0.5466  0.5839 -0.3720
  879MOL0     H18655   3.610   4.507   6.584 -2.5539 -1.1376 -0.9810
  879MOL0     H18656   3.477   4.602   6.539  1.0142  3.4185 -1.0787
  879MOL0     H18657   3.442   4.581   6.790 -1.5768 -1.0905 -3.7899
  879MOL0     H18658   3.515   4.737   6.770 -2.4190 -0.4399 -1.6981
  879MOL0     H18659   3.749   4.635   6.837  1.0021 -1.7318  1.8445
  879MOL0     H18660   3.624   4.587   6.948  0.9527 -0.7620  0.0617
  879MOL0     H18661   3.739   4.219   6.784  2.6463  0.2360 -2.3371
  879MOL0     H18662   3.659   4.786   6.183 -1.9574 -1.2890  1.7814
  879MOL0     H18663   3.934   4.873   5.969  0.4452  2.0219  0.7089
  879MOL0     H18664   3.783   4.795   5.973  0.7327 -0.5272 -0.6048
  879MOL0     H18665   3.785   4.971   5.932 -2.9908 -1.9962 -1.6982
  880MOL0     O18666  10.554   7.324   0.884 -0.2348  0.1576 -0.6481
  880MOL0     C18667  10.626   7.224   0.891 -0.2387 -0.8788 -0.2292
  880MOL0     O18668  10.583   7.099   0.924 -0.5893 -0.9030  0.2457
  880MOL0     C18669  10.453   7.072   0.956  0.1199  0.1866  0.6551
  880MOL0     C18670  10.446   6.945   1.019 -0.7256 -0.5188 -0.0663
  880MOL0     C18671  10.323   6.894   1.046  0.7326 -1.0998 -0.0393
  880MOL0     C18672  10.205   6.972   1.020 -0.0569 -0.3598  1.1161
  880MOL0     O18673  10.080   6.908   1.031  0.4178  0.4006  0.9071
  880MOL0     C18674  10.062   6.806   0.934  0.8886 -0.0466 -0.6870
  880MOL0     C18675   9.942   6.728   0.986  0.4521  0.4602  0.0843
  880MOL0     C18676   9.888   6.625   0.888 -0.3402 -0.0869 -0.2742
  880MOL0     C18677   9.833   6.685   0.754  0.9067 -0.2681  0.2472
  880MOL0     C18678   9.761   6.595   0.660 -0.7201 -0.6637 -0.1370
  880MOL0     C18679   9.856   6.483   0.619 -0.2759  0.4178 -0.0284
  880MOL0     C18680   9.778   6.389   0.522  0.9113 -0.4221 -0.1660
  880MOL0     C18681   9.864   6.305   0.438 -0.6077 -0.4235 -0.1254
  880MOL0     N18682   9.946   6.224   0.532  0.1128  0.6704  0.7835
  880MOL0     C18683   9.892   6.134   0.612  0.2550 -0.7038  0.2265
  880MOL0     C18684   9.983   6.087   0.697 -0.1700  0.1794  0.0458
  880MOL0     C18685   9.951   5.989   0.813  0.1756  0.2714  0.6909
  880MOL0     C18686   9.995   6.038   0.950  0.1262  0.0560  1.1224
  880MOL0     C18687   9.927   6.143   1.027  0.9853 -0.5981  0.0141
  880MOL0     C18688  10.006   6.167   1.155 -0.4878 -0.6484  0.0110
  880MOL0     O18689   9.955   6.294   1.213  0.2423 -0.1679 -0.4490
  880MOL0     C18690   9.960   6.300   1.355  0.5021 -0.6318  0.2877
  880MOL0     C18691   9.883   6.399   1.415 -0.6185 -0.6888  0.2810
  880MOL0     C18692   9.868   6.401   1.553  0.6393  0.3677  0.9056
  880MOL0     C18693   9.935   6.314   1.638 -0.5717  0.4369  0.4040
  880MOL0     C18694   9.926   6.311   1.785  0.0790 -0.7930  0.4762
  880MOL0     O18695   9.999   6.213   1.846  0.5090 -0.3432 -0.7588
  880MOL0     C18696  10.007   6.197   1.980  0.1367 -0.6236 -1.0768
  880MOL0     C18697  10.046   6.063   2.017 -0.0807 -0.7981 -0.0681
  880MOL0     C18698  10.047   6.020   2.146 -0.6661 -0.8248 -0.0961
  880MOL0     C18699  10.013   6.114   2.244 -0.0117 -0.3509  0.4481
  880MOL0     O18700  10.025   6.098   2.380 -0.1460 -0.1008 -0.8783
  880MOL0     C18701  10.015   5.965   2.428 -0.4218  1.0679  0.7665
  880MOL0     C18702   9.984   5.940   2.575 -0.1878 -1.1378 -1.7509
  880MOL0     C18703   9.907   6.054   2.636 -0.2004 -0.4298  0.2583
  880MOL0     C18704   9.878   6.034   2.784  0.5124  0.9970  0.5833
  880MOL0     C18705   9.806   6.159   2.824 -1.0813 -0.5868 -0.3307
  880MOL0     C18706   9.898   6.288   2.853  0.1474 -0.3007 -0.4260
  880MOL0     C18707   9.796   6.402   2.870  0.0602 -0.6293 -0.0621
  880MOL0     C18708   9.866   6.541   2.841 -0.8334 -0.5322 -0.6629
  880MOL0    Cl18709   9.755   6.679   2.919  0.6039 -0.0773  0.4533
  880MOL0     C18710   9.986   6.252   2.205  0.4741  0.4213  0.3399
  880MOL0     C18711   9.985   6.294   2.075 -0.3028 -0.0936  0.7512
  880MOL0     O18712   9.839   6.380   1.834 -0.1809  0.0199  0.9033
  880MOL0     C18713  10.032   6.221   1.571 -0.0183 -0.8311 -0.1982
  880MOL0     C18714  10.038   6.216   1.437 -0.1512 -0.1732 -0.2418
  880MOL0     N18715  10.098   6.143   0.645  0.3028  0.2037 -0.3341
  880MOL0     N18716  10.076   6.234   0.560 -0.3057 -0.0605 -1.0866
  880MOL0     C18717  10.217   7.100   0.952  0.5623  0.2322  0.2475
  880MOL0     C18718  10.340   7.146   0.911 -0.3558  0.2681 -0.4566
  880MOL0     C18719  10.773   7.233   0.865  0.1798 -0.9277  0.4059
  880MOL0     C18720  10.828   7.346   0.921  0.6206 -0.6003 -0.0237
  880MOL0     C18721  10.969   7.376   0.930 -0.2378  1.4350  0.2377
  880MOL0     C18722  11.060   7.282   0.877  0.1825 -0.7079 -0.0328
  880MOL0     O18723  11.197   7.297   0.862 -0.5126  0.3346 -0.4054
  880MOL0     C18724  11.256   7.395   0.938 -0.6094  0.0583 -0.6818
  880MOL0     C18725  11.411   7.389   0.900 -0.1724 -0.2271  0.2272
  880MOL0     C18726  11.477   7.510   0.973 -0.0191  0.2065  0.1973
  880MOL0     C18727  11.514   7.490   1.128  0.3587  0.6943 -0.9124
  880MOL0     C18728  11.402   7.519   1.221  0.3452  0.0188 -0.0461
  880MOL0     C18729  11.315   7.536   1.300 -0.9122 -0.3554 -0.7307
  880MOL0     C18730  11.001   7.172   0.814 -0.3311  0.0916  0.1699
  880MOL0     C18731  10.863   7.148   0.810  0.6981  0.2220  0.5383
  880MOL0     C18732  10.830   7.018   0.744 -0.3517  0.2442  0.3852
  880MOL0     H18733  10.534   6.886   1.043  0.1288  0.4342 -0.7040
  880MOL0     H18734  10.308   6.791   1.076  1.0586 -0.9201  0.7802
  880MOL0     H18735  10.027   6.847   0.839  1.2259  1.5686 -0.1341
  880MOL0     H18736  10.150   6.742   0.928  3.6855  2.9660  3.0778
  880MOL0     H18737   9.861   6.797   1.014 -1.2571 -1.1484 -0.7039
  880MOL0     H18738   9.972   6.681   1.080 -2.2403 -1.2969  0.1477
  880MOL0     H18739   9.806   6.580   0.944  0.7207  0.4179  1.8058
  880MOL0     H18740   9.968   6.552   0.871  0.8289  0.9132  0.7007
  880MOL0     H18741   9.767   6.769   0.779  1.5940 -0.7283  4.3219
  880MOL0     H18742   9.918   6.729   0.701  1.3248  0.2740  1.3446
  880MOL0     H18743   9.665   6.558   0.696 -0.3029 -0.7529  0.9237
  880MOL0     H18744   9.755   6.651   0.566 -1.5226 -1.5366 -0.6221
  880MOL0     H18745   9.947   6.517   0.569  0.7334 -1.6618  0.3165
  880MOL0     H18746   9.886   6.431   0.711  0.4305 -0.5966 -0.8063
  880MOL0     H18747   9.724   6.445   0.446  0.3342 -1.8248 -0.8400
  880MOL0     H18748   9.706   6.333   0.583  0.2951 -0.9044 -1.3015
  880MOL0     H18749   9.815   6.239   0.367  3.5470 -3.9235 -0.1188
  880MOL0     H18750   9.931   6.368   0.378 -2.0810  1.1769 -0.1849
  880MOL0     H18751   9.786   6.110   0.609  0.5817 -2.5379  1.3914
  880MOL0     H18752   9.843   5.970   0.813  0.3618 -1.0468 -1.0312
  880MOL0     H18753   9.996   5.894   0.783  0.1281  0.8729 -1.4382
  880MOL0     H18754  10.005   5.951   1.015  1.0647  0.7413  1.9266
  880MOL0     H18755  10.093   6.083   0.929  0.5976 -1.3265  0.1701
  880MOL0     H18756   9.822   6.119   1.049 -0.1998  2.8168 -1.2143
  880MOL0     H18757   9.938   6.239   0.975  1.8640 -1.0518 -0.6664
  880MOL0     H18758  10.115   6.161   1.141 -0.0113  2.1332  1.6707
  880MOL0     H18759   9.993   6.086   1.228 -1.2190  1.7250  2.6824
  880MOL0     H18760   9.830   6.456   1.339 -0.2856 -0.3202  0.3248
  880MOL0     H18761   9.811   6.485   1.592  2.1350  2.8621 -1.8522
  880MOL0     H18762  10.065   5.993   1.936  0.1713 -0.9403  0.1142
  880MOL0     H18763  10.082   5.925   2.183  1.2764  0.3296  1.2141
  880MOL0     H18764   9.939   5.914   2.368 -2.0022  2.4333  1.5301
  880MOL0     H18765  10.112   5.914   2.419 -1.0605  0.1794 -2.0650
  880MOL0     H18766   9.910   5.860   2.584 -0.8548 -0.4558 -1.0450
  880MOL0     H18767  10.080   5.916   2.621 -0.2704  1.5621  0.0307
  880MOL0     H18768   9.965   6.144   2.614  0.0671 -0.5637  0.4013
  880MOL0     H18769   9.816   6.057   2.576  0.8861  1.3194 -1.4301
  880MOL0     H18770   9.965   6.007   2.845 -1.4977 -0.0640  3.2277
  880MOL0     H18771   9.806   5.952   2.793 -1.6710  2.6079 -1.0278
  880MOL0     H18772   9.741   6.149   2.912  0.2234  0.4195  0.7967
  880MOL0     H18773   9.732   6.179   2.746 -1.9825  1.4902  0.9504
  880MOL0     H18774   9.957   6.278   2.944 -1.9568 -0.2754  1.0145
  880MOL0     H18775   9.957   6.317   2.766 -0.2908  2.3227  0.0701
  880MOL0     H18776   9.755   6.401   2.972  1.1643 -0.5134  0.3891
  880MOL0     H18777   9.718   6.402   2.794 -0.5372  2.6828  0.3907
  880MOL0     H18778   9.964   6.543   2.889 -1.1487  1.3386 -0.0160
  880MOL0     H18779   9.873   6.565   2.735  0.2866 -0.1224 -0.5068
  880MOL0     H18780   9.966   6.320   2.287 -3.9492 -2.0238  1.5899
  880MOL0     H18781   9.957   6.397   2.058 -0.9095 -0.1902  1.1204
  880MOL0     H18782  10.089   6.153   1.633 -2.1600 -1.3576  1.3502
  880MOL0     H18783  10.101   6.135   1.402 -1.7864 -1.4161 -0.4132
  880MOL0     H18784  10.123   7.145   0.920 -0.7152 -3.8855 -2.7266
  880MOL0     H18785  10.349   7.244   0.865  0.4849  2.1039  3.2383
  880MOL0     H18786  10.767   7.415   0.978 -0.1449 -0.0361 -1.4840
  880MOL0     H18787  11.005   7.472   0.967  1.6619  1.2683 -0.9928
  880MOL0     H18788  11.235   7.361   1.040  1.0727 -0.7879 -0.5783
  880MOL0     H18789  11.220   7.496   0.916 -1.4133 -0.3727 -1.4146
  880MOL0     H18790  11.422   7.397   0.791  1.7003  2.5498  0.5056
  880MOL0     H18791  11.462   7.301   0.940 -0.6928 -1.9948 -2.7053
  880MOL0     H18792  11.410   7.596   0.980  2.7072  2.3782  2.7474
  880MOL0     H18793  11.566   7.538   0.916 -0.2448  1.7693  0.5701
  880MOL0     H18794  11.551   7.390   1.148  2.1315  1.6135  0.6681
  880MOL0     H18795  11.596   7.555   1.159 -0.3463 -0.1216  3.2393
  880MOL0     H18796  11.229   7.549   1.362 -0.4875  2.6839 -0.6321
  880MOL0     H18797  11.068   7.097   0.772  0.7393  2.2977 -2.4085
  880MOL0     H18798  10.771   6.968   0.821 -0.0281 -1.6990 -0.5603
  880MOL0     H18799  10.775   7.033   0.650 -1.4691 -1.2415  0.7584
  880MOL0     H18800  10.923   6.964   0.723  0.6582  2.8083 -2.5915
  881MOL0     O18801   1.360   6.116   0.467 -0.2876  0.6592 -0.1110
  881MOL0     C18802   1.445   6.032   0.449  0.2970  1.2151  0.0092
  881MOL0     O18803   1.550   6.037   0.357  0.1518 -0.3447  0.1843
  881MOL0     C18804   1.535   6.127   0.245 -0.3037 -0.6435  0.2387
  881MOL0     C18805   1.407   6.163   0.193 -0.8977 -0.5623  0.5721
  881MOL0     C18806   1.386   6.259   0.094 -1.5061  0.5067  0.3090
  881MOL0     C18807   1.507   6.303   0.026 -0.0100  0.1408 -0.0643
  881MOL0     O18808   1.484   6.381  -0.088 -0.3293 -0.7330 -0.7419
  881MOL0     C18809   1.595   6.434  -0.158  0.2778  0.3749 -0.7791
  881MOL0     C18810   1.693   6.341  -0.234  0.0930 -0.3969 -0.1541
  881MOL0     C18811   1.634   6.276  -0.359  0.9607 -0.0109 -0.3734
  881MOL0     C18812   1.750   6.201  -0.433  1.1700 -0.7309  0.7325
  881MOL0     C18813   1.723   6.223  -0.590 -0.5756 -0.4193  0.2598
  881MOL0     C18814   1.839   6.274  -0.670  0.6249 -0.5297 -0.6947
  881MOL0     C18815   1.828   6.234  -0.818 -0.4549  0.3138  0.6728
  881MOL0     C18816   1.951   6.287  -0.892  0.4625 -0.4446  0.9806
  881MOL0     N18817   1.973   6.240  -1.036 -0.2065  0.3192 -0.5040
  881MOL0     C18818   2.029   6.119  -1.064 -0.2720 -0.5657  0.5266
  881MOL0     C18819   1.993   6.102  -1.197  1.3155 -0.7790  1.2504
  881MOL0     C18820   2.008   5.988  -1.294 -0.8855 -0.0109  0.7548
  881MOL0     C18821   2.151   5.956  -1.333 -0.7033 -0.2197 -0.5187
  881MOL0     C18822   2.200   6.069  -1.417 -0.1403  0.2448 -0.9447
  881MOL0     C18823   2.258   6.190  -1.349  0.4317 -0.5503 -0.0452
  881MOL0     O18824   2.335   6.166  -1.224  0.7980  0.6216 -0.7413
  881MOL0     C18825   2.463   6.119  -1.225 -0.7361  0.7013  0.8138
  881MOL0     C18826   2.515   6.066  -1.107 -0.1420 -0.1214 -1.2716
  881MOL0     C18827   2.651   6.030  -1.102 -0.0807 -0.3908 -1.4989
  881MOL0     C18828   2.731   6.032  -1.208 -0.2477  0.4949  0.5412
  881MOL0     C18829   2.878   5.978  -1.199  0.8631  1.0950 -1.2677
  881MOL0     O18830   2.962   5.981  -1.311  1.1177  0.0907 -0.5037
  881MOL0     C18831   3.090   5.936  -1.276 -0.2367  0.2351  0.0401
  881MOL0     C18832   3.198   6.025  -1.270 -0.5668 -0.6638  0.3790
  881MOL0     C18833   3.336   5.978  -1.255  0.7961 -0.0935 -0.0110
  881MOL0     C18834   3.360   5.839  -1.256 -0.2580  0.2934  0.7690
  881MOL0     O18835   3.488   5.791  -1.255 -0.1801  0.1552  0.0928
  881MOL0     C18836   3.517   5.693  -1.151  0.4452 -0.0696  0.1182
  881MOL0     C18837   3.662   5.658  -1.186  0.6263  0.2294 -0.3230
  881MOL0     C18838   3.752   5.777  -1.171  0.5381 -0.7191  0.2613
  881MOL0     C18839   3.766   5.850  -1.037  0.4230 -0.1363 -1.0730
  881MOL0     C18840   3.866   5.961  -1.019  0.1894 -0.2882 -0.3433
  881MOL0     C18841   3.913   5.984  -0.871  0.8617 -0.1458  0.3562
  881MOL0     C18842   3.791   5.958  -0.758 -0.2127  0.2583 -0.3524
  881MOL0     C18843   3.828   6.012  -0.622  0.1558  0.2339  0.1963
  881MOL0    Cl18844   3.960   5.926  -0.536 -0.1486  0.9542  0.1646
  881MOL0     C18845   3.250   5.753  -1.265 -0.4434 -0.4407  0.0474
  881MOL0     C18846   3.117   5.801  -1.274  0.2331  0.3582 -1.0516
  881MOL0     O18847   2.911   5.941  -1.087 -0.4161  0.3806 -0.0805
  881MOL0     C18848   2.680   6.078  -1.329 -0.0542  0.0224  0.4244
  881MOL0     C18849   2.551   6.122  -1.341  0.6028  0.5488 -0.2389
  881MOL0     N18850   1.917   6.222  -1.240  0.2292  0.2239  0.4897
  881MOL0     N18851   1.909   6.298  -1.139  0.6756 -0.0134 -0.0547
  881MOL0     C18852   1.637   6.265   0.072  1.3366  0.2014  0.3438
  881MOL0     C18853   1.647   6.180   0.184  0.2300 -0.1304 -0.4203
  881MOL0     C18854   1.433   5.919   0.547  0.3666 -0.2254  0.0145
  881MOL0     C18855   1.360   5.940   0.665 -0.1734 -0.4573 -0.2493
  881MOL0     C18856   1.360   5.833   0.767  0.3009  0.6104 -0.0512
  881MOL0     C18857   1.425   5.713   0.753  0.8623 -0.1388  0.3689
  881MOL0     O18858   1.405   5.605   0.831 -0.5774  0.0383  0.3677
  881MOL0     C18859   1.273   5.549   0.841 -0.0188 -0.3878 -0.4219
  881MOL0     C18860   1.258   5.429   0.757 -0.2245 -0.2256 -0.3247
  881MOL0     C18861   1.296   5.300   0.823  0.1262 -0.5626 -0.9158
  881MOL0     C18862   1.445   5.281   0.833 -0.0826  0.0203  0.2984
  881MOL0     C18863   1.500   5.257   0.701  0.2929  1.3524 -1.1694
  881MOL0     C18864   1.538   5.229   0.586 -0.8951 -0.0605  0.1278
  881MOL0     C18865   1.498   5.703   0.633 -0.0111  0.2125 -0.8933
  881MOL0     C18866   1.505   5.799   0.534  1.1320 -0.4244  0.7043
  881MOL0     C18867   1.596   5.776   0.422 -0.0398 -0.7677 -0.3731
  881MOL0     H18868   1.312   6.130   0.234 -2.0149  2.0897  0.3308
  881MOL0     H18869   1.284   6.290   0.076 -2.5525 -2.1998  1.1227
  881MOL0     H18870   1.548   6.496  -0.234 -1.9708 -1.4560 -0.9760
  881MOL0     H18871   1.656   6.504  -0.100  1.5639  0.5093 -2.2253
  881MOL0     H18872   1.708   6.256  -0.166 -0.7691  0.8068  1.6104
  881MOL0     H18873   1.786   6.391  -0.262 -0.0743 -0.2976 -0.5360
  881MOL0     H18874   1.585   6.350  -0.422 -0.6098 -1.4108 -0.8643
  881MOL0     H18875   1.549   6.213  -0.332  1.4802 -0.5518  0.0222
  881MOL0     H18876   1.852   6.231  -0.408  1.3862 -1.9662  1.4016
  881MOL0     H18877   1.743   6.095  -0.406  2.6635 -1.1767 -0.5087
  881MOL0     H18878   1.687   6.127  -0.628 -0.8071 -0.4020  0.4376
  881MOL0     H18879   1.646   6.301  -0.597  0.8248  1.1904  1.7468
  881MOL0     H18880   1.836   6.383  -0.656  0.0166 -0.4332 -1.4752
  881MOL0     H18881   1.935   6.241  -0.631  1.1025 -0.6721 -1.9442
  881MOL0     H18882   1.738   6.272  -0.867 -2.3713 -1.8824  2.2710
  881MOL0     H18883   1.828   6.124  -0.825  0.8294  0.4002 -1.6041
  881MOL0     H18884   1.941   6.396  -0.897 -1.7961 -0.6570 -0.1884
  881MOL0     H18885   2.040   6.274  -0.829 -0.8403 -2.1717  2.5388
  881MOL0     H18886   2.096   6.054  -1.008  3.6641  1.6687 -1.2060
  881MOL0     H18887   1.962   5.901  -1.247  1.4724 -0.6131  2.0889
  881MOL0     H18888   1.959   6.007  -1.390  2.2827  0.4502 -0.9225
  881MOL0     H18889   2.224   5.945  -1.252  0.5931  2.9657 -1.1206
  881MOL0     H18890   2.154   5.850  -1.360  0.5767 -0.1523 -0.7024
  881MOL0     H18891   2.125   6.100  -1.491  0.8224 -1.1093 -2.5692
  881MOL0     H18892   2.281   6.023  -1.474 -0.2013  0.2305 -1.0205
  881MOL0     H18893   2.174   6.255  -1.320  1.5559  1.6841 -1.4781
  881MOL0     H18894   2.313   6.261  -1.412  1.5802 -0.7144  0.7543
  881MOL0     H18895   2.454   6.070  -1.017 -1.5577 -2.0035 -2.0887
  881MOL0     H18896   2.698   5.990  -1.012 -1.9100  0.1364 -0.2568
  881MOL0     H18897   3.175   6.130  -1.252  0.6813 -0.4577  0.9113
  881MOL0     H18898   3.419   6.048  -1.253  1.1637 -0.5029  2.2630
  881MOL0     H18899   3.505   5.737  -1.052 -0.0519 -1.9149  0.9313
  881MOL0     H18900   3.461   5.599  -1.151  2.7788 -1.5671  1.4928
  881MOL0     H18901   3.706   5.575  -1.131  2.7606  3.5123  3.4718
  881MOL0     H18902   3.644   5.633  -1.291 -1.8538 -4.2407  0.9293
  881MOL0     H18903   3.853   5.746  -1.200  0.0250  0.4559 -3.2810
  881MOL0     H18904   3.731   5.846  -1.253  0.1206 -0.7084  0.3775
  881MOL0     H18905   3.797   5.778  -0.960  0.8111  3.0058  1.9309
  881MOL0     H18906   3.669   5.889  -1.006 -0.5962 -4.0996  1.5598
  881MOL0     H18907   3.813   6.047  -1.060  1.4283 -0.2534 -1.9883
  881MOL0     H18908   3.949   5.936  -1.086  0.3234  0.6685 -0.5489
  881MOL0     H18909   3.992   5.911  -0.853 -0.1140 -1.5644 -0.8951
  881MOL0     H18910   3.956   6.084  -0.859 -1.6107  1.4504 -2.6083
  881MOL0     H18911   3.785   5.851  -0.738  3.0027 -0.2060 -1.1847
  881MOL0     H18912   3.702   6.007  -0.798 -0.5874  0.2401  0.4490
  881MOL0     H18913   3.866   6.113  -0.638  2.9036 -1.1589 -3.3734
  881MOL0     H18914   3.738   6.010  -0.560  0.2520  0.1966  0.3343
  881MOL0     H18915   3.276   5.650  -1.287  0.9460 -0.3484  1.1072
  881MOL0     H18916   3.045   5.722  -1.292  1.6334 -1.3494  0.5207
  881MOL0     H18917   2.742   6.083  -1.418 -1.1090 -0.2524 -0.3515
  881MOL0     H18918   2.518   6.156  -1.438  1.4821 -2.4807 -1.7324
  881MOL0     H18919   1.728   6.308   0.031 -1.4595  2.9970 -3.6628
  881MOL0     H18920   1.747   6.166   0.223  0.6793  2.2414 -0.6031
  881MOL0     H18921   1.305   6.034   0.671  0.5374  0.0556 -1.4688
  881MOL0     H18922   1.289   5.845   0.849 -2.9038 -0.3218 -2.4915
  881MOL0     H18923   1.200   5.622   0.804  2.2463  1.6939 -1.0549
  881MOL0     H18924   1.245   5.532   0.945  1.2662  3.5603  0.7385
  881MOL0     H18925   1.317   5.447   0.666  1.2933 -0.2067  0.6358
  881MOL0     H18926   1.151   5.424   0.733  0.0028 -1.6210 -1.1834
  881MOL0     H18927   1.250   5.211   0.779 -0.9949 -1.7009  2.2679
  881MOL0     H18928   1.268   5.313   0.928  3.1246  2.6740 -0.3520
  881MOL0     H18929   1.480   5.373   0.881  2.2230 -0.4259 -0.3886
  881MOL0     H18930   1.476   5.198   0.898  1.0293 -0.8166 -1.2459
  881MOL0     H18931   1.559   5.224   0.481  0.8243  1.2281  0.3652
  881MOL0     H18932   1.546   5.607   0.616  0.0499  0.3115 -1.2886
  881MOL0     H18933   1.601   5.668   0.404 -3.5714 -0.5879 -3.7218
  881MOL0     H18934   1.564   5.815   0.325 -2.2989 -0.4627  0.4258
  881MOL0     H18935   1.692   5.820   0.450  0.2489 -1.3530 -0.4370
  882MOL0     O18936   0.847  10.630   8.518 -0.4539 -0.1234 -0.1979
  882MOL0     C18937   0.820  10.708   8.424  0.4951 -0.7136 -0.5202
  882MOL0     O18938   0.890  10.821   8.400 -0.4332 -0.7925 -0.5179
  882MOL0     C18939   1.002  10.850   8.467 -0.5418  0.6286  0.9315
  882MOL0     C18940   1.119  10.774   8.435 -0.3525 -0.9812 -0.4268
  882MOL0     C18941   1.231  10.801   8.518 -0.3599 -0.7780 -0.3642
  882MOL0     C18942   1.239  10.905   8.610  1.4064 -1.4919  0.9198
  882MOL0     O18943   1.337  10.922   8.689 -0.7521  0.8929 -0.0972
  882MOL0     C18944   1.341  10.824   8.796  0.1964  0.4758  0.4411
  882MOL0     C18945   1.468  10.750   8.772  1.2844 -0.1898 -0.4056
  882MOL0     C18946   1.599  10.804   8.826  0.0410 -0.8836 -0.5301
  882MOL0     C18947   1.716  10.718   8.890  0.0476 -0.2555  0.5133
  882MOL0     C18948   1.686  10.632   9.012  0.7486 -0.0664 -0.5059
  882MOL0     C18949   1.677  10.704   9.148  0.1713  0.0747  0.3017
  882MOL0     C18950   1.709  10.612   9.266  1.2368 -0.6649 -0.6025
  882MOL0     C18951   1.642  10.684   9.391 -0.2834  0.0971  1.3542
  882MOL0     N18952   1.725  10.806   9.421  0.3963 -0.1793  0.0547
  882MOL0     C18953   1.838  10.783   9.499  0.3822 -0.4721  1.1341
  882MOL0     C18954   1.899  10.908   9.496 -0.3155  0.2069 -1.0250
  882MOL0     C18955   2.031  10.941   9.550  0.3452  0.7135 -0.2399
  882MOL0     C18956   2.150  10.934   9.454  1.4167 -0.0202 -0.4256
  882MOL0     C18957   2.141  11.023   9.327  0.7830 -0.8441 -0.9714
  882MOL0     C18958   2.108  11.170   9.348 -0.0240  0.0334  0.0064
  882MOL0     O18959   2.154  11.250   9.233 -0.4679 -0.3961 -0.1616
  882MOL0     C18960   2.106  11.226   9.111  0.1123 -0.7958 -0.2829
  882MOL0     C18961   2.196  11.243   9.010 -0.1634 -0.3264  0.0127
  882MOL0     C18962   2.163  11.225   8.873  0.4057  0.2513 -0.3757
  882MOL0     C18963   2.039  11.161   8.841 -0.5875 -0.4959 -0.4027
  882MOL0     C18964   2.010  11.125   8.700  0.7830  0.1067 -0.5934
  882MOL0     O18965   1.896  11.053   8.675  0.1383 -0.5485 -0.5597
  882MOL0     C18966   1.861  10.996   8.553  0.2314 -1.4118  0.6012
  882MOL0     C18967   1.741  11.039   8.492 -0.3468  0.4892  0.3930
  882MOL0     C18968   1.697  10.982   8.380  0.3664  0.0032  0.3552
  882MOL0     C18969   1.778  10.876   8.317  0.2075  0.1186  0.0418
  882MOL0     O18970   1.740  10.836   8.194  0.3358 -0.1038 -1.1483
  882MOL0     C18971   1.678  10.699   8.192 -0.2008 -0.4680  0.6598
  882MOL0     C18972   1.522  10.713   8.197  0.2325 -0.0025 -0.1775
  882MOL0     C18973   1.470  10.565   8.175 -0.4685  0.1311  0.7361
  882MOL0     C18974   1.321  10.573   8.161  0.4371 -0.9286  0.1575
  882MOL0     C18975   1.261  10.428   8.151  0.8685 -0.0445 -0.7058
  882MOL0     C18976   1.113  10.426   8.205  0.4584 -0.0134  1.1366
  882MOL0     C18977   1.045  10.301   8.183 -0.0538 -0.0258 -0.1392
  882MOL0     C18978   0.944  10.265   8.286 -0.7774 -0.3563 -0.5994
  882MOL0    Cl18979   0.804  10.361   8.306  0.1709 -0.3755  0.1445
  882MOL0     C18980   1.889  10.831   8.382  0.4036  0.4819 -0.0400
  882MOL0     C18981   1.928  10.887   8.502 -0.0323 -0.0483 -0.1457
  882MOL0     O18982   2.092  11.152   8.616 -0.3761  0.7064 -0.5933
  882MOL0     C18983   1.957  11.129   8.948 -0.1099 -0.7419 -0.3988
  882MOL0     C18984   1.982  11.163   9.077  0.1810  0.4769 -0.2680
  882MOL0     N18985   1.818  10.987   9.419  0.4641 -0.3673  0.8572
  882MOL0     N18986   1.717  10.928   9.373  0.6693 -0.4386  0.0788
  882MOL0     C18987   1.128  10.989   8.632 -0.6819 -0.0955  0.1199
  882MOL0     C18988   1.005  10.955   8.565 -0.2949  0.0512 -0.1959
  882MOL0     C18989   0.700  10.679   8.345  0.5355 -0.8896  0.6675
  882MOL0     C18990   0.609  10.584   8.391 -0.1944  0.6329  0.6377
  882MOL0     C18991   0.507  10.539   8.311 -0.4425  0.1225 -0.3690
  882MOL0     C18992   0.475  10.598   8.189 -0.0145  0.6072  0.6249
  882MOL0     O18993   0.363  10.545   8.116  0.4308 -0.5040 -0.8552
  882MOL0     C18994   0.282  10.630   8.039 -0.0716  0.4730  0.6310
  882MOL0     C18995   0.227  10.738   8.117 -0.5144  0.0321  0.2932
  882MOL0     C18996   0.155  10.848   8.028  0.1072  0.9884 -0.0872
  882MOL0     C18997   0.098  10.960   8.112 -0.5157  0.3920  1.0735
  882MOL0     C18998  -0.015  10.906   8.180  1.1021  0.6459 -1.1202
  882MOL0     C18999  -0.119  10.864   8.237 -0.7424 -0.4437  0.2868
  882MOL0     C19000   0.556  10.715   8.146 -0.7241  0.7931 -0.2062
  882MOL0     C19001   0.672  10.748   8.229  0.2237 -0.5541 -0.0737
  882MOL0     C19002   0.764  10.859   8.167  0.0192 -0.0248 -0.1452
  882MOL0     H19003   1.117  10.697   8.358  0.6519 -1.7626  0.3007
  882MOL0     H19004   1.322  10.743   8.522  1.8215  2.4260  3.3049
  882MOL0     H19005   1.349  10.874   8.893 -0.5636 -0.2014  0.8656
  882MOL0     H19006   1.249  10.765   8.802 -1.5549  2.7143 -1.9714
  882MOL0     H19007   1.475  10.730   8.664 -1.3347  0.5126 -0.7701
  882MOL0     H19008   1.438  10.659   8.823 -1.1984  0.4239 -0.6759
  882MOL0     H19009   1.569  10.883   8.895  1.2487  0.4947 -1.5159
  882MOL0     H19010   1.642  10.848   8.735 -0.1768 -1.3381 -0.8550
  882MOL0     H19011   1.752  10.649   8.814 -0.2022 -1.9962  1.9220
  882MOL0     H19012   1.802  10.782   8.912  0.3956 -1.2716  2.3259
  882MOL0     H19013   1.596  10.570   9.005  0.8616 -0.5455  1.6313
  882MOL0     H19014   1.763  10.555   9.020  0.6981  0.0956  4.5824
  882MOL0     H19015   1.746  10.788   9.138  0.1068 -0.1600 -3.4911
  882MOL0     H19016   1.577  10.745   9.163 -1.2536 -2.2774 -1.8597
  882MOL0     H19017   1.813  10.583   9.280  1.0842 -0.0259  2.4717
  882MOL0     H19018   1.646  10.528   9.236  0.0048 -0.1745  0.5154
  882MOL0     H19019   1.541  10.721   9.368  0.0859  2.2341  2.8777
  882MOL0     H19020   1.649  10.614   9.475  5.2602  0.1669  1.3195
  882MOL0     H19021   1.880  10.687   9.528  0.3558 -0.5109  1.0434
  882MOL0     H19022   2.014  11.038   9.597 -1.0778  1.5239 -2.3225
  882MOL0     H19023   2.056  10.862   9.623 -1.1381  2.6625  2.5315
  882MOL0     H19024   2.237  10.946   9.519 -0.3110  1.7077  1.7293
  882MOL0     H19025   2.154  10.835   9.409  1.7249  0.3069 -1.1373
  882MOL0     H19026   2.062  10.975   9.269 -4.8375  1.6960  3.5499
  882MOL0     H19027   2.232  11.011   9.268  3.2767  0.7437  2.2529
  882MOL0     H19028   2.168  11.196   9.436 -1.4685 -0.5209  1.1940
  882MOL0     H19029   2.000  11.177   9.364 -0.1106  0.5020 -0.7487
  882MOL0     H19030   2.297  11.276   9.027  0.2220 -0.3664 -1.9683
  882MOL0     H19031   2.231  11.235   8.790  2.1520 -1.4419  0.7738
  882MOL0     H19032   1.689  11.119   8.543 -1.6496 -1.4210  2.2362
  882MOL0     H19033   1.612  11.020   8.324  1.9994  2.4800 -0.6090
  882MOL0     H19034   1.700  10.648   8.098  3.2699 -0.0782  1.1095
  882MOL0     H19035   1.718  10.631   8.268 -0.1232  0.3475  1.3698
  882MOL0     H19036   1.489  10.750   8.294 -0.0639 -1.0859  0.1349
  882MOL0     H19037   1.479  10.780   8.121 -0.9675 -1.2719 -0.6603
  882MOL0     H19038   1.509  10.529   8.079 -6.0765 -3.4181 -0.6584
  882MOL0     H19039   1.500  10.506   8.262 -0.7571 -0.8434  0.1903
  882MOL0     H19040   1.295  10.621   8.067  2.8340  2.6042  1.0886
  882MOL0     H19041   1.275  10.623   8.247  0.4169 -1.9571  0.7714
  882MOL0     H19042   1.319  10.374   8.226 -1.4019 -3.3402 -1.1178
  882MOL0     H19043   1.279  10.379   8.055  0.9203 -2.7810  0.6204
  882MOL0     H19044   1.110  10.445   8.313  0.2488  2.1540  0.8096
  882MOL0     H19045   1.059  10.514   8.167 -2.1426 -0.7110  2.9329
  882MOL0     H19046   1.119  10.221   8.182 -0.8545 -0.7766 -0.0900
  882MOL0     H19047   0.991  10.289   8.088  1.5987 -2.4782 -0.8806
  882MOL0     H19048   0.914  10.162   8.264 -1.6946  0.1105 -1.6934
  882MOL0     H19049   0.992  10.266   8.384  2.3516 -0.6653 -2.0275
  882MOL0     H19050   1.962  10.766   8.334 -1.2816 -0.8116 -0.9891
  882MOL0     H19051   2.025  10.870   8.549 -0.5462  1.3580  1.5193
  882MOL0     H19052   1.859  11.089   8.922  0.7957 -1.4020 -3.1193
  882MOL0     H19053   1.916  11.133   9.158 -0.7580  1.0767 -0.7970
  882MOL0     H19054   1.125  11.072   8.702 -0.1810 -2.0479  2.6017
  882MOL0     H19055   0.911  11.005   8.585 -1.0421 -1.0596 -0.8173
  882MOL0     H19056   0.631  10.546   8.490 -0.6118 -1.0439  0.1207
  882MOL0     H19057   0.448  10.453   8.341 -1.1986  0.4741 -0.8376
  882MOL0     H19058   0.201  10.567   7.999  2.2716 -2.8502  0.6659
  882MOL0     H19059   0.348  10.657   7.956 -1.1186  0.5205 -0.2051
  882MOL0     H19060   0.310  10.778   8.177 -0.1273 -0.2274 -0.0654
  882MOL0     H19061   0.163  10.689   8.191 -0.2764  0.3534  0.7186
  882MOL0     H19062   0.074  10.814   7.963  1.6258  0.1896 -1.6325
  882MOL0     H19063   0.222  10.896   7.956 -2.3788  4.7375 -0.1836
  882MOL0     H19064   0.170  10.993   8.187 -0.0921 -2.1172  1.8566
  882MOL0     H19065   0.056  11.044   8.057 -0.4320  1.2580  2.2774
  882MOL0     H19066  -0.203  10.834   8.297 -0.7460  1.4030  1.2625
  882MOL0     H19067   0.544  10.773   8.055  2.2762  0.4112 -0.9455
  882MOL0     H19068   0.729  10.883   8.066 -3.2204 -0.9140  0.6298
  882MOL0     H19069   0.769  10.948   8.230  3.6076 -2.6437  3.8795
  882MOL0     H19070   0.868  10.828   8.157  1.1960  1.9573  3.9818
  883MOL0     O19071  10.803   8.916   6.513  0.2037 -0.7441 -0.3025
  883MOL0     C19072  10.697   8.934   6.464 -0.4590  0.4237  1.4349
  883MOL0     O19073  10.605   9.033   6.516  0.2497  0.6571 -0.0190
  883MOL0     C19074  10.642   9.130   6.607  0.5493  0.7811 -0.2382
  883MOL0     C19075  10.660   9.263   6.593 -0.7647 -0.5011  0.0278
  883MOL0     C19076  10.700   9.353   6.696  0.2462 -0.3697  0.2390
  883MOL0     C19077  10.710   9.302   6.834 -0.1773  0.1248  1.3091
  883MOL0     O19078  10.751   9.394   6.929  0.0823 -0.3142  0.7353
  883MOL0     C19079  10.718   9.363   7.064 -0.4676  0.1980  0.7921
  883MOL0     C19080  10.710   9.496   7.149 -0.4857  0.1704  0.1070
  883MOL0     C19081  10.561   9.553   7.144 -0.3405 -0.2667  0.3754
  883MOL0     C19082  10.532   9.655   7.247 -0.7944 -0.0803  0.5451
  883MOL0     C19083  10.496   9.795   7.196  0.8079  0.9311  0.5616
  883MOL0     C19084  10.480   9.900   7.308 -0.0157 -0.2860  0.9119
  883MOL0     C19085  10.426  10.040   7.270  0.7007 -0.2697  0.8826
  883MOL0     C19086  10.506  10.118   7.171 -0.1592 -0.4916  0.0237
  883MOL0     N19087  10.628  10.165   7.228 -0.1491 -0.3901  0.4375
  883MOL0     C19088  10.642  10.190   7.361 -0.6399 -0.2719  1.0309
  883MOL0     C19089  10.779  10.194   7.362  0.5496  0.4170  1.1850
  883MOL0     C19090  10.849  10.230   7.490 -0.2061  0.5805  0.3152
  883MOL0     C19091  11.008  10.214   7.497  0.4200 -0.2374 -0.2371
  883MOL0     C19092  11.086  10.290   7.599  0.9985 -0.3640 -0.4397
  883MOL0     C19093  11.232  10.283   7.573 -0.3987 -0.2330 -0.1304
  883MOL0     O19094  11.276  10.151   7.544 -0.5593 -0.0013  0.2463
  883MOL0     C19095  11.410  10.130   7.512  0.9563  0.1000  0.7048
  883MOL0     C19096  11.432  10.026   7.420 -0.2513  0.2328 -0.3560
  883MOL0     C19097  11.558   9.996   7.366  0.3561 -0.1302  0.0514
  883MOL0     C19098  11.664  10.083   7.411 -0.2126 -0.1304  0.2323
  883MOL0     C19099  11.800  10.082   7.355  0.6250 -0.5177  0.7042
  883MOL0     O19100  11.890  10.174   7.399  0.6958  0.6997  0.4863
  883MOL0     C19101  12.017  10.173   7.353  0.1844  0.7702 -0.3639
  883MOL0     C19102  12.073  10.258   7.261  0.1649  0.5587  0.4001
  883MOL0     C19103  12.213  10.260   7.244 -1.1365 -0.1154  0.3747
  883MOL0     C19104  12.297  10.174   7.321 -0.1767 -0.4458 -0.7335
  883MOL0     O19105  12.432  10.167   7.312  0.0946 -0.2789  0.2449
  883MOL0     C19106  12.491  10.231   7.204  0.7808 -0.5396  0.9236
  883MOL0     C19107  12.643  10.241   7.218 -0.2219  0.4351  0.1386
  883MOL0     C19108  12.709  10.106   7.211 -1.1798  0.4879 -0.0611
  883MOL0     C19109  12.860  10.129   7.208 -0.3867 -1.0961 -0.5692
  883MOL0     C19110  12.939  10.044   7.312  0.0127  0.3931  1.3048
  883MOL0     C19111  12.932   9.904   7.293 -0.2921  0.0511  0.0648
  883MOL0     C19112  13.008   9.838   7.407 -0.1671 -0.4700  0.2180
  883MOL0     C19113  13.042   9.690   7.360 -0.0822  0.1077 -0.0377
  883MOL0    Cl19114  13.169   9.708   7.237  0.2773  0.3067 -0.6069
  883MOL0     C19115  12.235  10.074   7.401 -0.6194 -0.5252 -0.4335
  883MOL0     C19116  12.096  10.075   7.415 -0.6758 -0.1033 -0.8386
  883MOL0     O19117  11.802  10.026   7.246  0.3315 -0.6331  0.2717
  883MOL0     C19118  11.639  10.183   7.512  0.9816  0.1685 -0.2388
  883MOL0     C19119  11.508  10.216   7.561  0.3716 -0.4832 -0.3123
  883MOL0     N19120  10.834  10.192   7.237 -0.0682 -0.2573 -0.5324
  883MOL0     N19121  10.743  10.172   7.153 -0.3326 -0.0584  0.5409
  883MOL0     C19122  10.684   9.170   6.853  0.2846  0.0968 -0.0381
  883MOL0     C19123  10.647   9.080   6.744  0.9464 -0.4609  0.0959
  883MOL0     C19124  10.641   8.860   6.346 -0.9420 -0.3631  1.1126
  883MOL0     C19125  10.501   8.871   6.329  0.5345 -0.1394 -0.8385
  883MOL0     C19126  10.432   8.792   6.238 -0.0796 -0.6427  0.5365
  883MOL0     C19127  10.508   8.705   6.151 -0.3627 -0.0832  0.3467
  883MOL0     O19128  10.445   8.613   6.067  0.0705  0.6951 -0.1340
  883MOL0     C19129  10.301   8.612   6.042 -0.2270  0.2546 -0.2338
  883MOL0     C19130  10.277   8.530   5.911  0.2326 -0.9738  0.0628
  883MOL0     C19131  10.127   8.559   5.859  0.0537 -0.1449 -0.9633
  883MOL0     C19132  10.022   8.464   5.931 -0.1523  0.3969  1.0715
  883MOL0     C19133   9.986   8.499   6.070 -0.0188  0.3185 -0.1371
  883MOL0     C19134   9.970   8.549   6.180 -0.4618  0.1453  0.2471
  883MOL0     C19135  10.647   8.698   6.170 -1.3752 -0.2322 -0.1075
  883MOL0     C19136  10.711   8.765   6.268  0.1652 -0.5049  0.2185
  883MOL0     C19137  10.865   8.746   6.280  0.7163  0.1781  0.1912
  883MOL0     H19138  10.659   9.293   6.489  2.1673  1.0949  0.3657
  883MOL0     H19139  10.730   9.454   6.673 -0.5380 -0.4385 -1.2070
  883MOL0     H19140  10.624   9.308   7.065  0.0586 -0.7498  0.2518
  883MOL0     H19141  10.800   9.313   7.117  1.2946  1.6641 -0.4026
  883MOL0     H19142  10.764   9.582   7.109 -2.4982  1.1223 -0.6770
  883MOL0     H19143  10.741   9.470   7.251 -3.0108  0.1445  0.9225
  883MOL0     H19144  10.491   9.470   7.154 -3.0350  1.7128 -0.6942
  883MOL0     H19145  10.549   9.596   7.044  2.8942  1.6816  0.6640
  883MOL0     H19146  10.447   9.620   7.306 -1.1009  1.0761  0.8131
  883MOL0     H19147  10.613   9.659   7.320 -1.0166  1.3398  0.7338
  883MOL0     H19148  10.567   9.827   7.119  0.4445  1.2875  0.3697
  883MOL0     H19149  10.402   9.788   7.139  0.6230  1.3416  0.8096
  883MOL0     H19150  10.420   9.867   7.393  1.0860  1.2269  2.3358
  883MOL0     H19151  10.582   9.917   7.344 -0.7925  3.6350  1.6652
  883MOL0     H19152  10.401  10.091   7.364  0.9380 -2.9223  2.4895
  883MOL0     H19153  10.329  10.019   7.224  0.9823  0.9601 -0.3270
  883MOL0     H19154  10.531  10.056   7.084  1.8305 -0.8850  0.8365
  883MOL0     H19155  10.451  10.205   7.133 -2.2152  0.2230  4.1598
  883MOL0     H19156  10.570  10.190   7.443 -0.4044 -0.0715  1.2357
  883MOL0     H19157  10.823  10.333   7.514 -2.2604  0.2290 -0.2308
  883MOL0     H19158  10.805  10.175   7.574 -1.2209  3.1219  1.5699
  883MOL0     H19159  11.018  10.107   7.520 -0.6086 -0.6053 -1.3598
  883MOL0     H19160  11.050  10.239   7.399 -0.7390  0.1541 -0.6503
  883MOL0     H19161  11.066  10.262   7.703 -1.9846  1.3467 -0.4420
  883MOL0     H19162  11.062  10.396   7.582 -1.0632 -0.7513 -0.1119
  883MOL0     H19163  11.283  10.317   7.663  2.5211 -1.5388 -1.1819
  883MOL0     H19164  11.254  10.357   7.496 -1.9480  0.9792  0.5443
  883MOL0     H19165  11.353   9.959   7.390  3.2353 -4.3501 -0.3859
  883MOL0     H19166  11.583   9.933   7.281  2.1359  2.8366 -1.8128
  883MOL0     H19167  12.015  10.333   7.208  2.0036  1.2476 -0.7493
  883MOL0     H19168  12.259  10.325   7.170  2.3049 -3.0453 -0.3250
  883MOL0     H19169  12.487  10.177   7.109  0.1876 -2.3557  1.9416
  883MOL0     H19170  12.451  10.333   7.199 -1.5733 -1.4999 -1.5203
  883MOL0     H19171  12.677  10.302   7.134 -1.2008  1.0051  0.1442
  883MOL0     H19172  12.670  10.290   7.312  0.4566  0.4017 -0.0347
  883MOL0     H19173  12.683  10.044   7.297  3.6751  0.9420  2.0436
  883MOL0     H19174  12.678  10.043   7.127 -0.2006 -0.6344  0.3944
  883MOL0     H19175  12.878  10.235   7.223 -1.0068 -1.3103  2.2827
  883MOL0     H19176  12.895  10.088   7.112  0.3947 -3.2472  0.5537
  883MOL0     H19177  12.905  10.070   7.413 -1.3740  1.7848  0.5064
  883MOL0     H19178  13.044  10.076   7.319  0.5929 -0.5478 -1.5861
  883MOL0     H19179  12.829   9.865   7.295  1.2630 -4.6711  1.2605
  883MOL0     H19180  12.976   9.872   7.198  0.5454 -0.6894  0.6943
  883MOL0     H19181  12.943   9.839   7.495  0.3133 -1.6844  0.6144
  883MOL0     H19182  13.087   9.911   7.427 -1.9242  1.9047 -1.0302
  883MOL0     H19183  13.064   9.629   7.448 -0.9097  0.6608  0.5612
  883MOL0     H19184  12.952   9.647   7.315 -0.4732 -1.3430  2.0065
  883MOL0     H19185  12.289   9.991   7.445  0.2169  0.0165 -0.4280
  883MOL0     H19186  12.048  10.018   7.494  0.8921  2.5572  2.2532
  883MOL0     H19187  11.727  10.236   7.548 -0.8634  1.4381  2.7198
  883MOL0     H19188  11.498  10.289   7.641  1.7749 -3.0905  2.4216
  883MOL0     H19189  10.706   9.138   6.954  2.0667  0.2445 -0.3438
  883MOL0     H19190  10.624   8.978   6.773 -3.7158 -0.1848 -1.7895
  883MOL0     H19191  10.432   8.932   6.387 -0.2785 -2.7937  1.2076
  883MOL0     H19192  10.324   8.800   6.226 -0.0089  2.2630  0.9817
  883MOL0     H19193  10.258   8.710   6.019 -0.2894  0.3764  0.3934
  883MOL0     H19194  10.250   8.572   6.130 -0.8134  0.6908 -0.3659
  883MOL0     H19195  10.309   8.427   5.932 -1.3671 -1.1119  2.0871
  883MOL0     H19196  10.342   8.565   5.830 -1.1678  2.3109  0.1948
  883MOL0     H19197  10.101   8.558   5.753 -1.5323  0.7467 -0.6132
  883MOL0     H19198  10.107   8.663   5.885 -2.1933 -0.2624 -1.9619
  883MOL0     H19199   9.929   8.476   5.874  0.6415  0.2877 -0.2901
  883MOL0     H19200  10.051   8.360   5.913  2.0504  1.2159 -0.5214
  883MOL0     H19201   9.948   8.593   6.275  0.1792 -1.9868  1.4617
  883MOL0     H19202  10.689   8.622   6.105 -1.2594 -0.2217 -0.0460
  883MOL0     H19203  10.915   8.824   6.223 -2.4026  2.1387 -0.0419
  883MOL0     H19204  10.889   8.746   6.387 -0.5073  1.7045  0.5003
  883MOL0     H19205  10.899   8.652   6.236 -0.0321  1.3774 -3.1819
  884MOL0     O19206   4.589  10.117   8.507 -0.1116 -0.3760 -0.5717
  884MOL0     C19207   4.654  10.080   8.596  1.4153  0.7742 -0.0932
  884MOL0     O19208   4.717   9.964   8.593  0.8580  0.1615  0.9519
  884MOL0     C19209   4.744   9.896   8.471  0.1373  0.6148 -1.0080
  884MOL0     C19210   4.723   9.757   8.475 -0.6009 -0.3895 -1.2468
  884MOL0     C19211   4.755   9.686   8.361 -0.2682 -0.1978  0.3245
  884MOL0     C19212   4.810   9.744   8.243  0.1735 -0.7271  0.8679
  884MOL0     O19213   4.837   9.672   8.131  0.0597  1.0367 -0.2636
  884MOL0     C19214   4.778   9.542   8.117 -0.8886 -0.2154 -0.3992
  884MOL0     C19215   4.783   9.502   7.966  0.2435  0.3880 -0.7213
  884MOL0     C19216   4.903   9.413   7.930 -0.4023 -0.3929 -0.0795
  884MOL0     C19217   4.871   9.264   7.915 -0.1573 -0.0566 -0.7921
  884MOL0     C19218   4.989   9.168   7.911  0.1182 -0.4288  1.0845
  884MOL0     C19219   5.122   9.227   7.867  0.7710  1.0191  0.7968
  884MOL0     C19220   5.242   9.132   7.867 -0.1013  1.0360 -0.0234
  884MOL0     C19221   5.223   9.021   7.753 -0.3970 -0.3169 -0.9190
  884MOL0     N19222   5.360   8.956   7.735  0.2204  0.7063  0.4345
  884MOL0     C19223   5.474   9.007   7.689 -0.3160  0.0820  0.4426
  884MOL0     C19224   5.558   8.902   7.659 -0.3922 -0.3457  0.0339
  884MOL0     C19225   5.703   8.929   7.608 -1.2093  0.4648  0.7263
  884MOL0     C19226   5.797   8.977   7.716  0.3328  0.3862  0.6115
  884MOL0     C19227   5.829   8.860   7.810 -0.3494 -0.6094 -0.5105
  884MOL0     C19228   5.925   8.910   7.928  1.0398 -0.6726 -0.0928
  884MOL0     O19229   5.878   9.032   7.991  0.5516  0.2660 -0.0964
  884MOL0     C19230   5.752   9.029   8.047  0.1440  0.5909  0.1591
  884MOL0     C19231   5.686   8.916   8.083 -0.1954  0.0056 -0.9370
  884MOL0     C19232   5.568   8.933   8.147  0.0974 -0.4051 -0.5033
  884MOL0     C19233   5.510   9.071   8.172 -0.5611  0.4792 -0.4274
  884MOL0     C19234   5.368   9.079   8.228  0.1757  0.6698 -0.4540
  884MOL0     O19235   5.312   9.196   8.220 -0.0864 -0.1024 -0.7014
  884MOL0     C19236   5.185   9.226   8.258 -0.1291 -0.2625 -0.2152
  884MOL0     C19237   5.157   9.354   8.312 -0.0405  0.1911 -0.8012
  884MOL0     C19238   5.031   9.395   8.358  0.4030  0.2331  0.1508
  884MOL0     C19239   4.932   9.300   8.361  0.1561  0.1797 -0.4644
  884MOL0     O19240   4.806   9.344   8.414 -0.8447 -0.2084 -0.6812
  884MOL0     C19241   4.691   9.256   8.401  0.1397  1.1779 -0.7660
  884MOL0     C19242   4.557   9.332   8.420  0.4459  0.6664 -1.2184
  884MOL0     C19243   4.533   9.360   8.568 -0.1385 -0.5371  0.3115
  884MOL0     C19244   4.398   9.447   8.607 -0.4611  0.2545 -0.6149
  884MOL0     C19245   4.405   9.489   8.754 -1.2189 -0.0955  0.3742
  884MOL0     C19246   4.506   9.605   8.771 -0.3917 -0.7949  0.3557
  884MOL0     C19247   4.536   9.629   8.911 -1.3312  0.3978 -0.8042
  884MOL0     C19248   4.590   9.767   8.956  0.8300  0.2937  0.0786
  884MOL0    Cl19249   4.444   9.880   8.980  0.3474 -0.3587 -0.0156
  884MOL0     C19250   4.952   9.166   8.321  0.0866 -0.5649 -0.0537
  884MOL0     C19251   5.080   9.132   8.262  0.3124  0.5241 -0.8199
  884MOL0     O19252   5.331   8.984   8.292  0.1308  0.3118  0.2663
  884MOL0     C19253   5.583   9.180   8.134  0.3754  0.6066  0.1922
  884MOL0     C19254   5.702   9.157   8.071 -1.3221  0.3427  0.8146
  884MOL0     N19255   5.491   8.785   7.694 -0.3305 -0.1436  0.8982
  884MOL0     N19256   5.369   8.819   7.730 -0.2371 -0.1537 -0.3888
  884MOL0     C19257   4.827   9.882   8.242 -0.1136  1.6613 -0.0355
  884MOL0     C19258   4.779   9.954   8.349 -0.6359  0.1003  0.6947
  884MOL0     C19259   4.639  10.144   8.733  0.2119 -0.1077  0.4525
  884MOL0     C19260   4.748  10.124   8.827  0.5126 -0.1456 -0.8481
  884MOL0     C19261   4.737  10.186   8.956  1.0519  0.3978 -0.4636
  884MOL0     C19262   4.645  10.277   8.988  0.3585 -1.0725  0.1467
  884MOL0     O19263   4.653  10.329   9.116  0.2739 -0.4669 -0.3449
  884MOL0     C19264   4.569  10.437   9.163 -0.8222 -0.2712 -0.7435
  884MOL0     C19265   4.434  10.397   9.221 -0.4009 -0.7753 -0.2009
  884MOL0     C19266   4.445  10.297   9.344 -0.8931 -0.1304 -1.3028
  884MOL0     C19267   4.310  10.241   9.392  0.4526  0.0483  0.4175
  884MOL0     C19268   4.213  10.347   9.434 -0.3253 -0.1218  0.0760
  884MOL0     C19269   4.142  10.426   9.500  0.7199 -0.0922  0.1593
  884MOL0     C19270   4.541  10.294   8.896 -1.0251 -0.1651  0.0392
  884MOL0     C19271   4.540  10.227   8.773 -0.1122 -0.1642 -0.1045
  884MOL0     C19272   4.408  10.251   8.698 -0.7303 -0.4496  0.7390
  884MOL0     H19273   4.706   9.701   8.566  3.6210 -2.0499 -1.2821
  884MOL0     H19274   4.762   9.577   8.356  1.0028 -0.1941  1.3321
  884MOL0     H19275   4.828   9.486   8.197  0.2246  3.7588  2.0360
  884MOL0     H19276   4.672   9.555   8.141 -0.4491 -0.0468  1.6236
  884MOL0     H19277   4.767   9.587   7.900 -0.7205  0.7921  0.0093
  884MOL0     H19278   4.689   9.446   7.957  2.1652 -2.9754 -1.7670
  884MOL0     H19279   4.977   9.420   8.010 -0.9843 -0.5332  0.4790
  884MOL0     H19280   4.956   9.447   7.840  1.6546 -3.2609 -0.0830
  884MOL0     H19281   4.794   9.224   7.981  1.8632 -3.4862 -0.3050
  884MOL0     H19282   4.816   9.266   7.820  0.9234  1.7947 -1.4490
  884MOL0     H19283   5.002   9.118   8.008  1.1900 -4.4318 -0.8760
  884MOL0     H19284   4.959   9.089   7.842 -1.2927 -1.4560  2.7813
  884MOL0     H19285   5.119   9.273   7.768  2.1502  1.4499  0.9410
  884MOL0     H19286   5.140   9.307   7.939 -1.2134  1.5639  0.7535
  884MOL0     H19287   5.253   9.099   7.971 -1.5241 -0.2029 -0.2348
  884MOL0     H19288   5.333   9.184   7.835  0.8728 -1.3819 -1.4690
  884MOL0     H19289   5.138   8.961   7.788  0.3535 -0.6581  0.4028
  884MOL0     H19290   5.191   9.063   7.658 -1.1416 -1.0927 -1.0257
  884MOL0     H19291   5.484   9.115   7.677 -0.2295 -0.1190 -1.8488
  884MOL0     H19292   5.754   8.841   7.569 -3.5377 -0.1276 -1.2277
  884MOL0     H19293   5.701   9.007   7.530 -1.2155 -1.7072 -1.5682
  884MOL0     H19294   5.887   9.004   7.660 -0.0471  2.3756  0.9108
  884MOL0     H19295   5.753   9.064   7.765 -1.5967  0.4132 -1.0490
  884MOL0     H19296   5.898   8.793   7.757 -0.3775 -1.8836  0.9862
  884MOL0     H19297   5.745   8.794   7.832 -0.5378  0.6279  3.1831
  884MOL0     H19298   6.023   8.944   7.891  0.2951  6.1530  2.7795
  884MOL0     H19299   5.953   8.827   7.994  1.7266 -1.7473 -1.6538
  884MOL0     H19300   5.729   8.817   8.067 -0.5437 -0.4225  0.5680
  884MOL0     H19301   5.512   8.844   8.175  3.0850 -1.9047  1.2097
  884MOL0     H19302   5.230   9.434   8.312 -0.2089  0.4266  1.7994
  884MOL0     H19303   5.020   9.495   8.397  3.0327  0.3092  0.9155
  884MOL0     H19304   4.689   9.208   8.302 -1.4382  0.6477 -0.5084
  884MOL0     H19305   4.693   9.172   8.470  1.7043  1.9798  0.1908
  884MOL0     H19306   4.554   9.423   8.359  0.9143  0.8321 -1.0060
  884MOL0     H19307   4.489   9.254   8.385 -0.4089  1.4535 -1.3659
  884MOL0     H19308   4.519   9.261   8.612  0.2477 -0.5747  0.3494
  884MOL0     H19309   4.625   9.393   8.618  1.7260 -2.3455 -1.7565
  884MOL0     H19310   4.304   9.391   8.597  0.1645 -1.5225  2.3629
  884MOL0     H19311   4.395   9.540   8.550 -0.3339  2.4467  2.7254
  884MOL0     H19312   4.448   9.408   8.813  3.3409  2.2246  0.7459
  884MOL0     H19313   4.303   9.514   8.785 -2.2573 -1.8890 -1.4137
  884MOL0     H19314   4.596   9.569   8.720 -0.2126  1.5975 -1.1706
  884MOL0     H19315   4.478   9.698   8.720  1.3575 -0.3803  0.0980
  884MOL0     H19316   4.608   9.560   8.956 -2.9589 -0.2778  0.9203
  884MOL0     H19317   4.445   9.606   8.968 -1.2036 -3.7553 -1.9628
  884MOL0     H19318   4.655   9.780   9.043 -0.7258  4.0545  0.9200
  884MOL0     H19319   4.649   9.811   8.875 -2.1763  0.0832 -2.4017
  884MOL0     H19320   4.873   9.092   8.309  0.0840 -0.3990 -1.0821
  884MOL0     H19321   5.084   9.026   8.238 -1.2623  0.4159 -0.7182
  884MOL0     H19322   5.544   9.280   8.155 -0.3325  0.3338  0.2059
  884MOL0     H19323   5.765   9.244   8.053 -2.9452  1.7342  1.4609
  884MOL0     H19324   4.863   9.939   8.157 -1.2722  1.5699 -0.6066
  884MOL0     H19325   4.778  10.063   8.341  3.7427  0.3447  0.6437
  884MOL0     H19326   4.829  10.053   8.814  0.9204  0.2823 -0.6714
  884MOL0     H19327   4.825  10.182   9.020 -0.0266 -0.2030  1.0356
  884MOL0     H19328   4.565  10.505   9.077  0.2165  1.7516  0.7286
  884MOL0     H19329   4.629  10.485   9.241 -0.8487 -1.0129 -0.2571
  884MOL0     H19330   4.364  10.360   9.146  0.9445  0.1515 -2.0080
  884MOL0     H19331   4.383  10.490   9.249  1.1412  1.0396 -2.9407
  884MOL0     H19332   4.515  10.326   9.422  0.2871 -1.6868 -1.7421
  884MOL0     H19333   4.490  10.207   9.301  2.8532  0.2237  1.3564
  884MOL0     H19334   4.262  10.183   9.313 -0.6237  0.7137  0.5721
  884MOL0     H19335   4.322  10.175   9.478 -3.1977 -1.3190  0.0289
  884MOL0     H19336   4.087  10.489   9.566  1.6550 -1.3266  2.2351
  884MOL0     H19337   4.458  10.359   8.922 -1.8449 -1.9920  2.5029
  884MOL0     H19338   4.435  10.321   8.619  0.7435  1.5495  2.8855
  884MOL0     H19339   4.370  10.160   8.651 -1.5039  0.6633 -0.8803
  884MOL0     H19340   4.323  10.279   8.762 -1.1694 -1.4252  0.5930
  885MOL0     O19341   1.288   8.476  10.785  0.2886  0.2130  0.6198
  885MOL0     C19342   1.377   8.438  10.706  0.0076 -0.5423  1.1245
  885MOL0     O19343   1.512   8.428  10.725 -0.8279  0.2668 -0.4727
  885MOL0     C19344   1.578   8.499  10.819 -0.1927  0.1987 -0.1969
  885MOL0     C19345   1.712   8.511  10.795 -0.8198 -0.5092  0.4042
  885MOL0     C19346   1.794   8.593  10.873  0.3631 -0.5996  0.0098
  885MOL0     C19347   1.742   8.667  10.981  0.9466  0.2038 -0.4045
  885MOL0     O19348   1.809   8.759  11.061  0.0254  0.2417 -0.0808
  885MOL0     C19349   1.909   8.707  11.153 -0.5911 -0.3982 -0.0201
  885MOL0     C19350   1.958   8.813  11.245  0.5078  0.5917  0.2130
  885MOL0     C19351   2.028   8.937  11.167  0.3064 -0.7222 -0.3242
  885MOL0     C19352   2.100   9.022  11.272  0.2532 -0.0025  0.1354
  885MOL0     C19353   2.013   9.117  11.352 -0.6356 -0.0382 -0.3924
  885MOL0     C19354   2.101   9.221  11.418  0.1914  0.1928 -0.1053
  885MOL0     C19355   2.043   9.302  11.534  0.1012  0.0718  0.8632
  885MOL0     C19356   2.027   9.209  11.656 -0.1110  0.3544 -0.6125
  885MOL0     N19357   2.144   9.158  11.723 -0.4201 -0.6850  0.5718
  885MOL0     C19358   2.248   9.246  11.760 -0.2811  0.4276 -0.1080
  885MOL0     C19359   2.349   9.160  11.795  0.0149 -0.5722 -0.3651
  885MOL0     C19360   2.489   9.199  11.814 -0.1290  0.4395 -0.2196
  885MOL0     C19361   2.586   9.146  11.710  0.3687 -1.1481 -0.3551
  885MOL0     C19362   2.593   9.239  11.580 -0.5414 -0.2439 -0.7614
  885MOL0     C19363   2.737   9.242  11.540  0.1549  0.0857 -0.5177
  885MOL0     O19364   2.782   9.109  11.511  0.0038 -0.3337 -0.4530
  885MOL0     C19365   2.911   9.103  11.459  0.6306 -0.6461  0.8980
  885MOL0     C19366   2.987   8.992  11.487  0.3977  0.2268  0.4940
  885MOL0     C19367   3.117   8.971  11.430 -0.3308  0.1833  0.0479
  885MOL0     C19368   3.176   9.077  11.361 -0.6975  0.3077 -0.0218
  885MOL0     C19369   3.317   9.060  11.311  0.1946 -0.3542  0.3362
  885MOL0     O19370   3.393   8.944  11.340 -0.4655  0.9933  0.1174
  885MOL0     C19371   3.525   8.946  11.286 -0.8160 -1.0514  0.3457
  885MOL0     C19372   3.631   8.957  11.387  0.0065  0.1061  0.6593
  885MOL0     C19373   3.764   8.970  11.326  0.3268 -0.5969  0.9376
  885MOL0     C19374   3.786   8.981  11.183  0.6378  0.2172 -0.0512
  885MOL0     O19375   3.910   8.972  11.126 -1.3164 -1.2000  0.0748
  885MOL0     C19376   3.999   9.085  11.169 -0.0250  0.7094  0.6165
  885MOL0     C19377   3.955   9.212  11.094  0.5237 -1.0451 -0.9008
  885MOL0     C19378   4.045   9.258  10.980 -0.8933  0.8785  0.4025
  885MOL0     C19379   4.047   9.142  10.875 -0.5559 -0.3272 -0.1787
  885MOL0     C19380   4.140   9.180  10.754  0.2949  0.6995 -0.9699
  885MOL0     C19381   4.181   9.074  10.660  0.8524  0.3115 -1.0907
  885MOL0     C19382   4.244   9.119  10.529 -0.2183 -0.0083 -0.3183
  885MOL0     C19383   4.276   9.012  10.414  0.3004  0.2618 -0.8608
  885MOL0    Cl19384   4.139   8.892  10.386 -0.0172 -0.2187 -0.2378
  885MOL0     C19385   3.677   8.990  11.103  1.0265  0.5345 -0.0012
  885MOL0     C19386   3.546   8.967  11.153  0.1374  0.2112  0.1296
  885MOL0     O19387   3.356   9.155  11.239 -0.4315  0.2218 -0.7218
  885MOL0     C19388   3.095   9.185  11.320  0.1384 -0.3592  0.1437
  885MOL0     C19389   2.966   9.200  11.363  0.1026 -0.0028 -0.5735
  885MOL0     N19390   2.297   9.035  11.791 -0.3586 -0.7733 -0.1600
  885MOL0     N19391   2.176   9.034  11.752 -0.3388 -0.4000  1.1845
  885MOL0     C19392   1.603   8.649  11.014  0.1081  0.4531 -0.1394
  885MOL0     C19393   1.515   8.575  10.929  0.1473 -0.1837  0.7319
  885MOL0     C19394   1.336   8.391  10.567  0.1922 -0.1419  0.1560
  885MOL0     C19395   1.282   8.261  10.549 -0.3483  0.0046 -0.1728
  885MOL0     C19396   1.258   8.214  10.416  0.0792 -0.0482 -0.2229
  885MOL0     C19397   1.260   8.302  10.308 -0.7264  0.6833  0.7449
  885MOL0     O19398   1.217   8.260  10.185  0.8667 -0.4722 -0.8245
  885MOL0     C19399   1.176   8.363  10.088  0.0510  0.8543 -1.1946
  885MOL0     C19400   1.100   8.291   9.970  1.0575 -1.4678 -0.4419
  885MOL0     C19401   0.951   8.326   9.974  0.1838  0.2693 -0.6449
  885MOL0     C19402   0.853   8.285  10.090 -0.5211  0.4054 -0.1679
  885MOL0     C19403   0.877   8.140  10.120  0.1382 -0.1024  0.3621
  885MOL0     C19404   0.912   8.030  10.152 -0.5218 -0.8397  0.4706
  885MOL0     C19405   1.298   8.433  10.336 -0.8154 -0.1229  0.4278
  885MOL0     C19406   1.327   8.480  10.461  0.4913  0.0455  0.0812
  885MOL0     C19407   1.366   8.615  10.479 -0.0420  0.8552 -0.2441
  885MOL0     H19408   1.754   8.459  10.710  0.9168  2.2971 -0.6253
  885MOL0     H19409   1.900   8.593  10.851  0.4637 -2.2945  0.3885
  885MOL0     H19410   1.872   8.616  11.201  2.3687 -1.0291  1.2794
  885MOL0     H19411   1.993   8.670  11.093 -0.8242 -0.5326 -0.2659
  885MOL0     H19412   2.016   8.774  11.329 -1.2861  1.7545  2.1105
  885MOL0     H19413   1.860   8.849  11.278 -0.4103  2.5337 -3.9993
  885MOL0     H19414   1.959   8.987  11.099  0.9320 -1.2913 -1.4169
  885MOL0     H19415   2.107   8.895  11.103 -0.0303 -0.6514 -0.7877
  885MOL0     H19416   2.160   8.964  11.342  1.0844 -0.1540 -0.6867
  885MOL0     H19417   2.165   9.094  11.220 -0.5564  1.4711  1.0777
  885MOL0     H19418   1.934   9.158  11.289 -1.8547  0.7281  1.5401
  885MOL0     H19419   1.972   9.059  11.436  1.8845  1.1015  1.7667
  885MOL0     H19420   2.189   9.170  11.458 -0.4552 -0.7807  0.1175
  885MOL0     H19421   2.133   9.284  11.335  0.4356  0.5637  0.2617
  885MOL0     H19422   1.942   9.332  11.504 -1.0164 -4.0398 -0.2072
  885MOL0     H19423   2.099   9.390  11.566 -1.7131  1.6508 -0.0738
  885MOL0     H19424   1.960   9.271  11.716  0.3482  1.6966 -1.4361
  885MOL0     H19425   1.967   9.120  11.636  1.0485 -0.9558  1.4619
  885MOL0     H19426   2.248   9.354  11.754 -2.8089  0.5338  0.6291
  885MOL0     H19427   2.507   9.306  11.828 -0.4608  0.4348  0.2923
  885MOL0     H19428   2.510   9.137  11.902  1.4268 -2.1557 -2.2923
  885MOL0     H19429   2.684   9.141  11.759  0.2349  1.4288  0.2999
  885MOL0     H19430   2.557   9.046  11.677 -1.1069 -1.6600  2.2172
  885MOL0     H19431   2.544   9.334  11.604  0.1901 -0.4370  1.7515
  885MOL0     H19432   2.549   9.181  11.499  3.3027 -1.6705 -2.0535
  885MOL0     H19433   2.797   9.292  11.617 -2.4227 -1.7294  2.9279
  885MOL0     H19434   2.729   9.302  11.449 -4.6598 -2.9820 -2.5115
  885MOL0     H19435   2.951   8.915  11.553 -1.3397 -1.0221 -1.7386
  885MOL0     H19436   3.171   8.879  11.451 -1.7359 -0.4722  0.9706
  885MOL0     H19437   3.614   8.950  11.494  0.0378  1.2427  0.7500
  885MOL0     H19438   3.848   8.967  11.395  1.6212  1.7784 -0.4236
  885MOL0     H19439   3.993   9.104  11.276  0.8547  2.6151  0.3688
  885MOL0     H19440   4.105   9.059  11.154 -0.7101 -0.9922 -2.1145
  885MOL0     H19441   3.853   9.206  11.054  0.4932  1.1115 -1.2471
  885MOL0     H19442   3.944   9.292  11.167 -0.1359  0.6216 -2.7455
  885MOL0     H19443   4.004   9.349  10.935  3.2721  2.4964 -0.6282
  885MOL0     H19444   4.150   9.274  11.007  0.3728 -4.4298 -0.1899
  885MOL0     H19445   3.950   9.125  10.827  0.7318 -2.2037 -2.3405
  885MOL0     H19446   4.069   9.044  10.917  0.1228 -0.3440 -0.5529
  885MOL0     H19447   4.231   9.218  10.801 -0.6988  0.4274  1.3233
  885MOL0     H19448   4.103   9.269  10.703 -0.0906  0.8808 -0.3848
  885MOL0     H19449   4.244   9.003  10.713 -0.4064  0.9695  1.4450
  885MOL0     H19450   4.092   9.023  10.621  0.4783  0.5116 -0.5225
  885MOL0     H19451   4.336   9.158  10.575  0.3637 -0.6274 -0.9414
  885MOL0     H19452   4.188   9.207  10.495 -2.5261 -1.9896 -1.9660
  885MOL0     H19453   4.303   9.076  10.329 -2.2802  1.4398 -0.8984
  885MOL0     H19454   4.366   8.962  10.452 -0.2594 -0.2855 -0.2352
  885MOL0     H19455   3.685   9.005  10.996  0.0670  0.6336 -0.0658
  885MOL0     H19456   3.469   8.968  11.076 -0.0780 -1.1354  0.3080
  885MOL0     H19457   3.134   9.268  11.262 -2.8857  2.0475  1.3118
  885MOL0     H19458   2.902   9.283  11.333 -1.0440 -0.6470  0.0133
  885MOL0     H19459   1.561   8.706  11.096  2.8388  0.5072  1.3498
  885MOL0     H19460   1.410   8.576  10.958 -0.6373 -5.0922 -0.9148
  885MOL0     H19461   1.255   8.192  10.628 -1.6054 -1.6976 -2.0040
  885MOL0     H19462   1.250   8.107  10.399  0.5405 -0.0237 -0.6163
  885MOL0     H19463   1.263   8.408  10.040  3.6884 -4.8848 -0.8882
  885MOL0     H19464   1.109   8.427  10.147  0.1563  0.5090 -0.6895
  885MOL0     H19465   1.103   8.182   9.980 -2.5661 -1.6023  0.6649
  885MOL0     H19466   1.139   8.321   9.872 -0.4396 -0.2800 -0.6935
  885MOL0     H19467   0.908   8.278   9.886  1.2483  2.5502 -2.5017
  885MOL0     H19468   0.935   8.433   9.961  1.2155  0.7025  1.2296
  885MOL0     H19469   0.868   8.348  10.179 -3.3175 -1.6824  1.9513
  885MOL0     H19470   0.749   8.304  10.062 -0.5859  1.5469  0.7356
  885MOL0     H19471   0.951   7.936  10.186 -1.1406 -1.1604  0.3067
  885MOL0     H19472   1.303   8.504  10.253  1.7797  0.4235  0.9598
  885MOL0     H19473   1.392   8.656  10.381  2.1678  0.4401  0.1190
  885MOL0     H19474   1.275   8.663  10.518 -0.1135  0.9487 -0.5207
  885MOL0     H19475   1.459   8.626  10.534 -0.0360 -1.4767  0.2989
  886MOL0     O19476   4.972   5.651   2.801  0.0939  0.1264 -0.2385
  886MOL0     C19477   4.861   5.679   2.847  0.5170 -0.5434  0.2828
  886MOL0     O19478   4.789   5.603   2.921  0.4415  0.4470  0.2516
  886MOL0     C19479   4.823   5.469   2.954 -0.0481  0.4868  0.9174
  886MOL0     C19480   4.924   5.388   2.894 -0.4594 -0.1739 -0.3046
  886MOL0     C19481   4.930   5.249   2.920  0.7239  0.0064 -0.8830
  886MOL0     C19482   4.855   5.198   3.025  0.4457 -0.2198 -0.5958
  886MOL0     O19483   4.876   5.068   3.053 -0.3221  0.3946  0.2301
  886MOL0     C19484   4.801   5.008   3.157 -0.5296  0.0604 -1.1399
  886MOL0     C19485   4.838   4.860   3.176  1.0310  0.6736 -0.3664
  886MOL0     C19486   4.993   4.861   3.208 -0.0050 -0.0673  0.1735
  886MOL0     C19487   5.049   4.718   3.208  0.2405 -0.0567 -0.4225
  886MOL0     C19488   5.202   4.720   3.219  0.1038  0.0377  0.9461
  886MOL0     C19489   5.245   4.572   3.263 -0.2591 -1.0709 -0.3164
  886MOL0     C19490   5.391   4.537   3.228  0.4389  0.3080 -0.4864
  886MOL0     C19491   5.428   4.395   3.261 -0.3920 -0.6830 -0.6517
  886MOL0     N19492   5.331   4.301   3.198 -0.2652 -0.2262  0.2426
  886MOL0     C19493   5.319   4.277   3.061  0.5667 -0.4599 -0.6429
  886MOL0     C19494   5.223   4.175   3.052 -0.0387 -0.6777  0.0303
  886MOL0     C19495   5.185   4.088   2.928 -0.2604  0.0906 -0.3449
  886MOL0     C19496   5.111   4.163   2.828 -0.7671  0.2479 -0.1113
  886MOL0     C19497   5.101   4.083   2.696 -1.1876  0.8387 -1.0651
  886MOL0     C19498   5.042   4.173   2.588  0.6108  0.0897 -0.7398
  886MOL0     O19499   4.903   4.194   2.610  0.7354  0.7962  0.1297
  886MOL0     C19500   4.827   4.274   2.531 -0.6597 -0.1221 -0.2015
  886MOL0     C19501   4.838   4.288   2.389 -0.0653  0.4576 -0.2921
  886MOL0     C19502   4.758   4.368   2.312  0.5299 -0.1918  0.1931
  886MOL0     C19503   4.675   4.461   2.377 -0.1280 -0.3916  0.0053
  886MOL0     C19504   4.584   4.565   2.303  0.0538  0.8555 -0.1101
  886MOL0     O19505   4.586   4.692   2.360  1.3103  0.6108 -0.2675
  886MOL0     C19506   4.503   4.791   2.322  0.4588  0.2777  0.3754
  886MOL0     C19507   4.395   4.783   2.232 -0.4279 -0.0846  0.2197
  886MOL0     C19508   4.324   4.901   2.201 -0.0298 -0.5547  0.3572
  886MOL0     C19509   4.361   5.028   2.251  0.1868 -0.3255 -0.4587
  886MOL0     O19510   4.288   5.129   2.203 -0.2502 -0.4638 -0.5268
  886MOL0     C19511   4.298   5.255   2.258  0.0938 -0.3835 -0.0421
  886MOL0     C19512   4.195   5.351   2.199  0.2611 -0.0563 -0.2896
  886MOL0     C19513   4.049   5.317   2.228 -0.2690 -0.0308 -0.6972
  886MOL0     C19514   3.957   5.429   2.190  0.0718  0.2498  0.4752
  886MOL0     C19515   3.814   5.378   2.195  0.4016  0.9771 -0.0057
  886MOL0     C19516   3.746   5.361   2.338  0.4559 -0.2774  0.1217
  886MOL0     C19517   3.596   5.319   2.320  0.3161  0.0415  0.0230
  886MOL0     C19518   3.509   5.313   2.453  0.4890  0.7824 -0.1478
  886MOL0    Cl19519   3.497   5.473   2.515 -0.2629 -0.3246 -0.6590
  886MOL0     C19520   4.464   5.034   2.351 -0.9594 -0.0575  0.4501
  886MOL0     C19521   4.531   4.916   2.389  0.0772  0.4456 -0.0046
  886MOL0     O19522   4.530   4.533   2.194 -0.1508 -0.7744  0.2481
  886MOL0     C19523   4.671   4.462   2.519  0.6464  0.4332  0.0625
  886MOL0     C19524   4.742   4.373   2.590  0.2555 -0.1747 -0.2219
  886MOL0     N19525   5.198   4.136   3.181  0.7450  0.2678  0.2218
  886MOL0     N19526   5.246   4.221   3.260  0.7130 -0.2216  0.0316
  886MOL0     C19527   4.754   5.277   3.084  0.2438  0.0811 -0.6148
  886MOL0     C19528   4.736   5.407   3.041 -0.4297 -0.1136 -0.3775
  886MOL0     C19529   4.842   5.825   2.830 -0.2078 -0.3877 -0.5059
  886MOL0     C19530   4.860   5.886   2.712 -0.6250  1.6053 -0.3102
  886MOL0     C19531   4.839   6.025   2.703  0.5869  0.5360  0.3995
  886MOL0     C19532   4.799   6.104   2.812 -0.8233  0.2072 -0.4118
  886MOL0     O19533   4.782   6.246   2.801  0.2814  0.6161  0.7171
  886MOL0     C19534   4.650   6.288   2.835  0.1096 -0.4320 -1.1278
  886MOL0     C19535   4.616   6.408   2.755  0.0947 -0.3476  0.1236
  886MOL0     C19536   4.478   6.477   2.781 -0.1597  0.2892  0.3980
  886MOL0     C19537   4.475   6.545   2.918  1.2402 -0.0805 -0.1676
  886MOL0     C19538   4.348   6.616   2.927  0.2398 -0.1963  0.0367
  886MOL0     C19539   4.245   6.688   2.916 -0.6045  0.3399  0.5326
  886MOL0     C19540   4.793   6.042   2.935  0.8951  0.7538 -0.0737
  886MOL0     C19541   4.806   5.903   2.946 -0.7567  0.4421 -0.0231
  886MOL0     C19542   4.815   5.856   3.093  0.0511 -0.5885  1.1155
  886MOL0     H19543   5.004   5.422   2.829 -1.4449 -0.1574 -1.5508
  886MOL0     H19544   5.000   5.177   2.880 -1.4262 -2.4087 -0.5976
  886MOL0     H19545   4.833   5.051   3.252  1.7806 -1.3568 -1.1841
  886MOL0     H19546   4.693   5.020   3.141 -0.5815  1.8346  0.2849
  886MOL0     H19547   4.806   4.798   3.093 -2.2974  1.9501 -0.1788
  886MOL0     H19548   4.793   4.804   3.258 -5.1534  1.6048 -2.6370
  886MOL0     H19549   5.026   4.920   3.294  2.1202  0.9666 -1.2828
  886MOL0     H19550   5.046   4.916   3.130 -2.9980  3.1111  0.0948
  886MOL0     H19551   5.018   4.663   3.298  0.6246 -0.1029 -0.3197
  886MOL0     H19552   5.011   4.661   3.123  2.6896 -2.4735 -0.0162
  886MOL0     H19553   5.240   4.737   3.118 -0.8668  0.8228  0.6983
  886MOL0     H19554   5.246   4.798   3.282 -1.8356  1.6280  0.4169
  886MOL0     H19555   5.217   4.569   3.369  1.0578  4.6677  0.5186
  886MOL0     H19556   5.187   4.508   3.196  0.7778 -2.6121  0.2156
  886MOL0     H19557   5.455   4.600   3.290 -0.2106  1.2526 -0.7583
  886MOL0     H19558   5.412   4.541   3.120 -0.8609  0.4504 -0.7496
  886MOL0     H19559   5.526   4.370   3.219  1.5264 -1.4293  3.7877
  886MOL0     H19560   5.442   4.374   3.367 -0.4087 -0.2915 -0.5718
  886MOL0     H19561   5.386   4.317   2.986  0.7119 -0.5729 -0.5750
  886MOL0     H19562   5.279   4.059   2.879  1.3135  2.1108  1.2564
  886MOL0     H19563   5.135   3.996   2.959 -2.2522  1.4237  0.5733
  886MOL0     H19564   5.007   4.162   2.862 -0.3611  0.9018  1.2145
  886MOL0     H19565   5.158   4.255   2.795 -0.7180 -0.3895 -1.9258
  886MOL0     H19566   5.030   4.001   2.714  1.3396 -0.8819  2.1605
  886MOL0     H19567   5.195   4.037   2.664 -1.3179  0.2225 -0.5917
  886MOL0     H19568   5.047   4.125   2.490  0.4465 -0.5265 -0.4550
  886MOL0     H19569   5.088   4.270   2.571 -1.4743  0.7983 -2.8739
  886MOL0     H19570   4.908   4.213   2.352  1.4361  1.4853  0.3311
  886MOL0     H19571   4.778   4.366   2.206  3.3658  2.9912  0.5016
  886MOL0     H19572   4.374   4.681   2.200 -0.0842  0.5297 -2.1523
  886MOL0     H19573   4.247   4.896   2.126  0.3408  2.0623 -0.2817
  886MOL0     H19574   4.285   5.253   2.367 -2.5754 -1.2718 -0.3181
  886MOL0     H19575   4.396   5.304   2.249 -0.3976  0.9512  1.3228
  886MOL0     H19576   4.214   5.445   2.251 -0.2010 -0.3778  0.4934
  886MOL0     H19577   4.205   5.365   2.091 -3.4114  1.6615 -0.5626
  886MOL0     H19578   4.018   5.222   2.183  0.0541 -0.7478  0.5645
  886MOL0     H19579   4.042   5.294   2.334  2.5670 -2.0582 -0.8507
  886MOL0     H19580   3.980   5.471   2.091 -3.4667  0.0489 -0.5663
  886MOL0     H19581   3.969   5.512   2.260 -0.6790  0.5551  0.2468
  886MOL0     H19582   3.809   5.283   2.141  4.7552  2.7144 -4.1377
  886MOL0     H19583   3.746   5.439   2.134  1.1462  2.4765  0.6108
  886MOL0     H19584   3.802   5.292   2.402 -3.4620 -0.6752  3.5761
  886MOL0     H19585   3.736   5.459   2.385  0.3171  0.2997 -1.0800
  886MOL0     H19586   3.597   5.221   2.271  3.5802  0.7439 -1.6308
  886MOL0     H19587   3.546   5.383   2.246 -3.1671  0.5896  2.6148
  886MOL0     H19588   3.408   5.273   2.440  0.6663 -1.3141  3.7010
  886MOL0     H19589   3.549   5.242   2.526 -0.6266 -0.5352 -0.7571
  886MOL0     H19590   4.509   5.128   2.384  2.5224 -1.1998 -0.6302
  886MOL0     H19591   4.607   4.928   2.465 -0.8407  2.4054  0.6727
  886MOL0     H19592   4.612   4.535   2.573 -1.2305 -0.3864 -0.8008
  886MOL0     H19593   4.745   4.369   2.699 -1.0248 -2.0369 -0.2198
  886MOL0     H19594   4.683   5.251   3.162 -2.2097  1.0406 -2.3800
  886MOL0     H19595   4.658   5.458   3.097  1.4154  0.0491  2.1838
  886MOL0     H19596   4.901   5.837   2.624  3.7981  0.1207  2.2737
  886MOL0     H19597   4.855   6.067   2.604 -2.9444 -3.4387 -2.2575
  886MOL0     H19598   4.642   6.311   2.942 -3.2626  1.5755 -1.6741
  886MOL0     H19599   4.576   6.208   2.827  0.1563 -0.5354 -0.5903
  886MOL0     H19600   4.620   6.390   2.648 -1.3146 -0.2475  0.0345
  886MOL0     H19601   4.702   6.473   2.774 -0.6913  0.0267  2.8519
  886MOL0     H19602   4.400   6.400   2.778  0.9062 -1.2203  4.7983
  886MOL0     H19603   4.468   6.556   2.706  0.1796 -1.0746 -1.1677
  886MOL0     H19604   4.490   6.475   3.001  0.0391  1.3860  1.3672
  886MOL0     H19605   4.554   6.620   2.920 -0.4371  1.7758  1.2151
  886MOL0     H19606   4.158   6.745   2.893  1.7083  3.2524 -1.7291
  886MOL0     H19607   4.764   6.104   3.019 -0.5397 -0.1838  0.1537
  886MOL0     H19608   4.917   5.864   3.131  0.2522  2.5583  0.1872
  886MOL0     H19609   4.756   5.926   3.152 -1.1962  2.5320 -3.3022
  886MOL0     H19610   4.793   5.751   3.117 -0.2581 -0.6388  0.6286
  887MOL0     O19611   3.418   9.377   0.018  0.5815 -0.2642  0.0580
  887MOL0     C19612   3.410   9.284   0.096 -0.3259  0.4859  0.1480
  887MOL0     O19613   3.514   9.214   0.141 -0.2891  0.1642  0.7255
  887MOL0     C19614   3.643   9.208   0.086  0.2967  0.3649 -0.8501
  887MOL0     C19615   3.746   9.168   0.176 -0.1977 -0.2668 -0.6433
  887MOL0     C19616   3.885   9.192   0.134  0.9867 -0.4446  0.9305
  887MOL0     C19617   3.912   9.249   0.010 -0.8999  0.3553 -0.7240
  887MOL0     O19618   4.042   9.244  -0.031  0.1605  0.7660 -0.2567
  887MOL0     C19619   4.093   9.355  -0.105  0.1832  0.0384 -0.9738
  887MOL0     C19620   4.236   9.332  -0.122  0.7588 -0.4098 -0.7550
  887MOL0     C19621   4.288   9.431  -0.221  0.5003 -0.9528  0.1871
  887MOL0     C19622   4.438   9.419  -0.233  1.1894 -1.1414 -0.2020
  887MOL0     C19623   4.470   9.358  -0.375 -0.1885 -0.8417 -0.6714
  887MOL0     C19624   4.621   9.322  -0.391 -0.2688  0.2116 -1.1085
  887MOL0     C19625   4.656   9.284  -0.534  0.1374 -0.2406 -0.4374
  887MOL0     C19626   4.626   9.388  -0.648 -0.0722 -0.0350 -0.4827
  887MOL0     N19627   4.703   9.342  -0.758 -0.4843  0.1465  0.7171
  887MOL0     C19628   4.840   9.338  -0.781  0.2523 -0.0631 -1.5691
  887MOL0     C19629   4.857   9.278  -0.899 -0.2639  0.8010 -0.3864
  887MOL0     C19630   5.002   9.252  -0.942  0.5711 -0.2510  0.3535
  887MOL0     C19631   5.043   9.333  -1.069  0.0721 -0.0844 -0.6502
  887MOL0     C19632   5.062   9.488  -1.034 -1.1826  0.4955 -0.3660
  887MOL0     C19633   5.194   9.506  -0.963  0.3051 -1.3879  0.7698
  887MOL0     O19634   5.316   9.446  -1.011  0.0920 -0.9732 -0.8193
  887MOL0     C19635   5.349   9.456  -1.143  0.4045  0.1904  0.7840
  887MOL0     C19636   5.428   9.352  -1.192 -0.5951  0.2053 -0.3039
  887MOL0     C19637   5.467   9.354  -1.320 -0.3532 -0.6312 -0.3745
  887MOL0     C19638   5.449   9.467  -1.396  0.0032 -0.5276  0.5426
  887MOL0     C19639   5.500   9.458  -1.535  0.0056  0.5662 -0.6097
  887MOL0     O19640   5.583   9.355  -1.555  0.2589 -0.2096  0.6046
  887MOL0     C19641   5.618   9.319  -1.685  0.8590 -0.0247 -0.7277
  887MOL0     C19642   5.520   9.288  -1.783 -0.2722 -0.0360  0.2842
  887MOL0     C19643   5.549   9.232  -1.912  0.3588  0.1448  0.6983
  887MOL0     C19644   5.679   9.199  -1.933  0.1978 -0.1926  0.4428
  887MOL0     O19645   5.718   9.136  -2.045 -0.4129  0.5498  0.0197
  887MOL0     C19646   5.795   9.220  -2.132 -0.1156  0.7234 -0.1181
  887MOL0     C19647   5.708   9.326  -2.196 -0.0528 -1.0096  0.5002
  887MOL0     C19648   5.763   9.386  -2.323 -0.1678 -0.0269  0.9400
  887MOL0     C19649   5.677   9.508  -2.368 -0.7421 -0.1015 -0.1390
  887MOL0     C19650   5.560   9.456  -2.449 -0.5878  0.2931 -0.0686
  887MOL0     C19651   5.460   9.568  -2.469  0.0394  0.5407  0.0005
  887MOL0     C19652   5.502   9.652  -2.584 -0.3660  0.1944 -0.7035
  887MOL0     C19653   5.455   9.590  -2.717 -0.7754  0.0287 -0.4199
  887MOL0    Cl19654   5.277   9.553  -2.720  0.1877 -0.0539  0.5413
  887MOL0     C19655   5.771   9.211  -1.836  0.5800 -0.0961 -1.2373
  887MOL0     C19656   5.744   9.274  -1.720 -0.7530 -0.2997  0.0749
  887MOL0     O19657   5.448   9.533  -1.618  0.2862  0.1456  0.1198
  887MOL0     C19658   5.383   9.578  -1.347 -0.1107 -0.0939 -0.1920
  887MOL0     C19659   5.325   9.571  -1.223 -0.2151 -0.3327 -0.8214
  887MOL0     N19660   4.734   9.248  -0.955  0.5797 -0.2128 -0.1808
  887MOL0     N19661   4.647   9.286  -0.869  0.0004  0.3188 -1.2667
  887MOL0     C19662   3.803   9.276  -0.078 -0.7061 -0.6395 -0.2603
  887MOL0     C19663   3.670   9.254  -0.045 -0.3487  0.9172 -0.4259
  887MOL0     C19664   3.277   9.256   0.156 -0.6892  0.4965  0.0034
  887MOL0     C19665   3.178   9.357   0.152 -0.5013 -0.1780  1.2331
  887MOL0     C19666   3.050   9.343   0.213 -0.0847 -0.1788 -0.2353
  887MOL0     C19667   3.019   9.229   0.289 -1.0295  0.0004 -0.4825
  887MOL0     O19668   2.902   9.214   0.354  0.1039  1.0331  0.5286
  887MOL0     C19669   2.885   9.135   0.471  0.4100  0.1005  0.0734
  887MOL0     C19670   2.997   9.174   0.570  0.7876  0.1961 -1.1389
  887MOL0     C19671   2.963   9.127   0.718 -0.1348  0.3524  0.0809
  887MOL0     C19672   3.094   9.113   0.798 -0.5286  0.1470 -0.4708
  887MOL0     C19673   3.201   9.036   0.731 -0.1988 -0.4970 -0.6361
  887MOL0     C19674   3.280   8.962   0.688  0.2418 -0.0846  1.3139
  887MOL0     C19675   3.105   9.122   0.277 -0.5760  1.3722  0.6596
  887MOL0     C19676   3.234   9.129   0.210 -0.1275 -0.3047  0.6836
  887MOL0     C19677   3.309   9.005   0.194 -0.4161 -0.1927  0.1947
  887MOL0     H19678   3.721   9.135   0.276  4.0541 -1.3208  0.2955
  887MOL0     H19679   3.970   9.155   0.190  1.0031 -3.2108 -0.7144
  887MOL0     H19680   4.044   9.353  -0.202  0.4868 -1.5865 -1.1274
  887MOL0     H19681   4.079   9.448  -0.049 -0.3807 -1.0108  0.7411
  887MOL0     H19682   4.252   9.227  -0.147  0.8205 -0.8018  0.8374
  887MOL0     H19683   4.285   9.352  -0.026  2.9714  0.0628 -1.9108
  887MOL0     H19684   4.258   9.528  -0.181  2.6894 -0.8886  1.8757
  887MOL0     H19685   4.240   9.428  -0.319  3.1469  0.1590 -1.2397
  887MOL0     H19686   4.484   9.518  -0.230  0.3300 -0.7451  0.0933
  887MOL0     H19687   4.480   9.357  -0.153  0.9178 -1.9228 -0.6620
  887MOL0     H19688   4.421   9.261  -0.383  1.2008 -1.7360  0.9872
  887MOL0     H19689   4.441   9.432  -0.451 -1.5138  0.4095  0.9715
  887MOL0     H19690   4.675   9.407  -0.348 -1.3586 -0.3921  1.6739
  887MOL0     H19691   4.658   9.238  -0.330 -0.1567  1.2955  0.3701
  887MOL0     H19692   4.605   9.189  -0.552 -0.8811  0.2734 -0.3269
  887MOL0     H19693   4.760   9.251  -0.535 -0.0914 -1.1589  1.3379
  887MOL0     H19694   4.522   9.416  -0.662 -0.8509 -1.9517  1.0591
  887MOL0     H19695   4.675   9.479  -0.611  3.9727 -2.3674  0.4899
  887MOL0     H19696   4.914   9.384  -0.717  0.6344  2.2155 -3.5086
  887MOL0     H19697   5.078   9.274  -0.866  0.2715  0.9679  0.3282
  887MOL0     H19698   5.003   9.147  -0.972  1.9759  0.1939 -1.3013
  887MOL0     H19699   5.133   9.296  -1.118  1.1086 -0.3942  1.3884
  887MOL0     H19700   4.975   9.335  -1.155  0.0322 -0.0572 -0.6180
  887MOL0     H19701   4.987   9.529  -0.965 -0.7484  1.4889 -0.4629
  887MOL0     H19702   5.068   9.546  -1.126 -0.0235  0.7270 -0.1591
  887MOL0     H19703   5.187   9.450  -0.869  1.2153 -3.3136 -0.2619
  887MOL0     H19704   5.209   9.611  -0.936  0.6494 -1.3296  0.3493
  887MOL0     H19705   5.457   9.271  -1.126  2.3611  1.6320  0.2848
  887MOL0     H19706   5.526   9.270  -1.357 -1.4400 -0.6885 -2.0973
  887MOL0     H19707   5.416   9.314  -1.765 -1.0610 -2.2776 -0.7274
  887MOL0     H19708   5.482   9.206  -1.994  1.8121 -0.5125 -0.3309
  887MOL0     H19709   5.876   9.268  -2.076 -1.1407  0.5020  1.6120
  887MOL0     H19710   5.833   9.154  -2.211 -1.4867 -1.4179  0.9018
  887MOL0     H19711   5.605   9.293  -2.216 -0.0394  0.2999 -2.1535
  887MOL0     H19712   5.690   9.403  -2.120 -0.9780  1.1362 -1.7554
  887MOL0     H19713   5.869   9.414  -2.322  1.0231 -4.0326  1.2150
  887MOL0     H19714   5.757   9.322  -2.411  1.9932 -0.7295  1.2447
  887MOL0     H19715   5.727   9.568  -2.444  0.1637 -2.4491 -1.4972
  887MOL0     H19716   5.639   9.563  -2.281  0.9221 -1.1049  1.2867
  887MOL0     H19717   5.511   9.373  -2.399  2.9798 -0.8122  1.9171
  887MOL0     H19718   5.588   9.405  -2.542 -3.5995 -2.1476  0.2131
  887MOL0     H19719   5.366   9.513  -2.484  1.4107 -2.2150  0.7901
  887MOL0     H19720   5.434   9.627  -2.381 -0.6867  0.8039 -0.3839
  887MOL0     H19721   5.609   9.674  -2.590 -0.2011 -0.5351 -0.5492
  887MOL0     H19722   5.458   9.751  -2.571  1.4877  1.2017 -1.6410
  887MOL0     H19723   5.454   9.660  -2.801 -1.6231 -3.0098 -3.1292
  887MOL0     H19724   5.505   9.500  -2.754 -0.3398  0.2401 -0.3528
  887MOL0     H19725   5.869   9.171  -1.861  1.0023  0.9866 -1.3634
  887MOL0     H19726   5.813   9.281  -1.637 -2.9574  1.1752  1.9130
  887MOL0     H19727   5.369   9.665  -1.409 -0.0329 -0.7553 -1.1550
  887MOL0     H19728   5.269   9.653  -1.178  1.1560 -0.8872  2.0653
  887MOL0     H19729   3.827   9.320  -0.175  0.9612  2.3035  1.3503
  887MOL0     H19730   3.591   9.285  -0.112  0.4157  1.6899 -1.0041
  887MOL0     H19731   3.198   9.446   0.093  0.7210 -2.4235 -2.0425
  887MOL0     H19732   2.983   9.428   0.207 -1.5430 -1.3114 -0.5022
  887MOL0     H19733   2.872   9.029   0.445  0.0863  0.3270 -0.7330
  887MOL0     H19734   2.798   9.173   0.525 -3.0394 -1.3677 -3.9262
  887MOL0     H19735   3.014   9.282   0.566 -0.2301  0.6004  2.1542
  887MOL0     H19736   3.090   9.131   0.534  2.2624  0.1066  2.3988
  887MOL0     H19737   2.904   9.035   0.716 -0.2707  0.4383 -2.6301
  887MOL0     H19738   2.903   9.207   0.762 -0.3547  0.3470 -0.2083
  887MOL0     H19739   3.120   9.214   0.832  1.1641 -1.0616  2.1868
  887MOL0     H19740   3.069   9.063   0.893  3.8119  0.1273  0.8835
  887MOL0     H19741   3.334   8.888   0.632 -0.8943  2.3790 -3.4963
  887MOL0     H19742   3.065   9.030   0.319  0.6914  1.2076  1.5518
  887MOL0     H19743   3.401   8.995   0.252  0.2221 -3.1526 -1.1324
  887MOL0     H19744   3.243   8.921   0.218 -0.0780 -0.4204  0.3356
  887MOL0     H19745   3.343   9.009   0.090  2.1522 -0.7756  0.9413
  888MOL0     O19746   2.492   0.452   1.595 -0.4489 -0.6876 -0.6243
  888MOL0     C19747   2.489   0.412   1.482  0.0860 -0.5417 -1.1511
  888MOL0     O19748   2.487   0.286   1.446 -1.1999  1.3451  1.0179
  888MOL0     C19749   2.501   0.190   1.538  0.5919  0.9962 -1.4463
  888MOL0     C19750   2.625   0.140   1.575 -0.3756  0.1416 -1.1119
  888MOL0     C19751   2.648   0.038   1.661  0.1344  0.2684 -0.5601
  888MOL0     C19752   2.539  -0.021   1.725  0.6565  0.0733  0.8610
  888MOL0     O19753   2.546  -0.130   1.809 -0.0463 -0.9125  0.0087
  888MOL0     C19754   2.681  -0.176   1.850 -0.4889 -0.3283 -0.3342
  888MOL0     C19755   2.665  -0.245   1.987 -0.8280  0.2727 -0.1646
  888MOL0     C19756   2.621  -0.402   1.983  0.0223 -0.2716  0.5586
  888MOL0     C19757   2.597  -0.464   2.116 -0.9540 -0.1555  0.2633
  888MOL0     C19758   2.479  -0.552   2.119  0.5897 -1.1896  0.5352
  888MOL0     C19759   2.489  -0.661   2.019 -0.6313  0.1651  0.5336
  888MOL0     C19760   2.363  -0.748   2.021 -0.2687  0.0616 -0.2764
  888MOL0     C19761   2.248  -0.674   1.948  0.3725  0.2890  0.0979
  888MOL0     N19762   2.130  -0.753   1.922  0.2454 -0.2108 -1.2104
  888MOL0     C19763   2.007  -0.721   1.995  0.2647 -0.3013 -0.3159
  888MOL0     C19764   1.917  -0.819   1.953  0.3173 -0.5595 -0.2598
  888MOL0     C19765   1.775  -0.853   1.995 -0.3067  0.0131 -0.6507
  888MOL0     C19766   1.786  -0.969   2.106 -0.5840  0.0815  0.6028
  888MOL0     C19767   1.662  -1.042   2.133  0.1790  0.5147 -0.6876
  888MOL0     C19768   1.554  -0.958   2.204 -0.6344 -0.5660 -0.9317
  888MOL0     O19769   1.474  -1.042   2.287  0.4876 -0.2403  0.8317
  888MOL0     C19770   1.352  -1.094   2.241 -0.4221  0.0885 -0.0187
  888MOL0     C19771   1.280  -1.183   2.324  0.2565  1.4427  0.6574
  888MOL0     C19772   1.165  -1.252   2.269 -0.3701 -0.3170  0.1768
  888MOL0     C19773   1.103  -1.216   2.142 -0.1056 -0.1395 -0.2809
  888MOL0     C19774   0.975  -1.282   2.095 -0.9174  1.0424  0.4340
  888MOL0     O19775   0.924  -1.258   1.973  0.3714  0.4953  0.2926
  888MOL0     C19776   0.812  -1.337   1.935  0.1837  0.7524 -0.3992
  888MOL0     C19777   0.693  -1.323   2.003 -0.2748  0.1472 -0.8398
  888MOL0     C19778   0.584  -1.393   1.965 -0.0008 -0.6349  0.3765
  888MOL0     C19779   0.590  -1.471   1.857 -0.4390  0.5263  0.5353
  888MOL0     O19780   0.472  -1.545   1.847 -0.7646 -0.6576 -0.1874
  888MOL0     C19781   0.451  -1.620   1.730 -0.3735 -0.8601 -0.3639
  888MOL0     C19782   0.533  -1.751   1.723  0.1072 -0.6347  0.4379
  888MOL0     C19783   0.523  -1.853   1.841 -0.1935 -0.1391  0.0643
  888MOL0     C19784   0.376  -1.889   1.875  1.2878 -0.0493  0.0980
  888MOL0     C19785   0.357  -2.015   1.954  1.0061 -0.7480 -0.2424
  888MOL0     C19786   0.345  -1.996   2.105 -0.1789 -0.3043 -0.2108
  888MOL0     C19787   0.346  -2.124   2.176 -0.4759  0.3209 -0.0494
  888MOL0     C19788   0.344  -2.091   2.327 -0.8431 -0.0867  0.3453
  888MOL0    Cl19789   0.402  -2.230   2.421 -0.1378  0.0184 -0.3644
  888MOL0     C19790   0.696  -1.471   1.762  0.4919  0.5720 -0.8139
  888MOL0     C19791   0.808  -1.409   1.814 -0.6933 -1.1145  0.6915
  888MOL0     O19792   0.928  -1.365   2.184 -0.5836  0.9206  0.0395
  888MOL0     C19793   1.164  -1.111   2.071  0.7913 -0.1632  0.4305
  888MOL0     C19794   1.284  -1.059   2.119  0.0398  0.3186 -0.4823
  888MOL0     N19795   1.981  -0.908   1.864 -0.7914  0.2801 -0.2396
  888MOL0     N19796   2.110  -0.859   1.850 -0.2599 -0.4332 -0.1410
  888MOL0     C19797   2.408   0.039   1.701 -0.4680 -0.3693 -0.1439
  888MOL0     C19798   2.392   0.145   1.614  0.9306 -0.4078 -1.0060
  888MOL0     C19799   2.493   0.513   1.378  0.0245 -0.4094  0.0142
  888MOL0     C19800   2.454   0.467   1.249  0.5052  0.3737 -0.0392
  888MOL0     C19801   2.475   0.551   1.141  0.2695  0.5225  0.4596
  888MOL0     C19802   2.527   0.680   1.143 -0.0023  0.3692 -0.9213
  888MOL0     O19803   2.544   0.747   1.033 -0.4723  0.5456  0.5956
  888MOL0     C19804   2.582   0.886   1.045  0.7877  0.4993 -0.2832
  888MOL0     C19805   2.631   0.951   0.922  0.1330 -0.0041 -0.0951
  888MOL0     C19806   2.738   0.889   0.831  0.7035  0.4474  0.8466
  888MOL0     C19807   2.795   1.003   0.736 -0.9651  0.1826 -0.8025
  888MOL0     C19808   2.897   1.084   0.804  0.6411 -0.7843 -0.8492
  888MOL0     C19809   2.972   1.153   0.876 -0.8287 -0.6784 -0.0300
  888MOL0     C19810   2.550   0.725   1.278 -0.3214 -0.2150  0.4426
  888MOL0     C19811   2.543   0.646   1.386 -1.0100  0.4982  0.7702
  888MOL0     C19812   2.580   0.712   1.520 -0.5103  0.5008  0.1594
  888MOL0     H19813   2.709   0.197   1.537  1.2434 -1.0587  0.4750
  888MOL0     H19814   2.751   0.024   1.692  0.5077  3.1106 -0.2255
  888MOL0     H19815   2.725  -0.237   1.771 -3.0674 -0.8846 -1.4629
  888MOL0     H19816   2.757  -0.098   1.856 -2.4283  1.6370 -0.0550
  888MOL0     H19817   2.610  -0.184   2.058  0.0874  1.2946 -0.3009
  888MOL0     H19818   2.766  -0.254   2.027 -0.9295 -1.9991 -0.2969
  888MOL0     H19819   2.696  -0.460   1.929  0.9823  0.6299  0.8734
  888MOL0     H19820   2.526  -0.407   1.928  0.7085  0.1779 -0.6940
  888MOL0     H19821   2.692  -0.509   2.147  0.5373  0.5540 -2.8981
  888MOL0     H19822   2.581  -0.384   2.189 -0.7853  1.5314 -1.4615
  888MOL0     H19823   2.465  -0.595   2.219  0.2172  0.7364  1.3457
  888MOL0     H19824   2.396  -0.482   2.107  1.1301 -0.4369  1.1107
  888MOL0     H19825   2.507  -0.619   1.919 -5.1410  1.3035 -0.0411
  888MOL0     H19826   2.565  -0.733   2.049 -1.8780 -1.2518  0.4155
  888MOL0     H19827   2.333  -0.780   2.121  1.1562  0.1847  0.2062
  888MOL0     H19828   2.362  -0.841   1.962 -1.5554 -0.6927  0.8650
  888MOL0     H19829   2.220  -0.585   2.005  0.8210  2.3818 -2.7428
  888MOL0     H19830   2.265  -0.615   1.858 -0.2483 -1.0136 -0.9046
  888MOL0     H19831   1.993  -0.645   2.071 -3.6000  0.6871 -1.7783
  888MOL0     H19832   1.731  -0.763   2.038  2.5784  0.3710  1.9733
  888MOL0     H19833   1.723  -0.880   1.903 -0.6714  1.0931 -0.7647
  888MOL0     H19834   1.853  -1.039   2.056 -1.1382  1.5869 -2.5447
  888MOL0     H19835   1.840  -0.955   2.200 -0.9854 -1.9044  1.1632
  888MOL0     H19836   1.685  -1.123   2.202  1.6568  1.9677  0.6275
  888MOL0     H19837   1.624  -1.097   2.047  2.0123  1.0563 -1.8945
  888MOL0     H19838   1.506  -0.887   2.137 -0.9873 -1.9278 -2.1902
  888MOL0     H19839   1.594  -0.891   2.280 -2.5677 -1.9462  1.4912
  888MOL0     H19840   1.322  -1.210   2.420  1.4972 -1.6584 -0.6196
  888MOL0     H19841   1.128  -1.322   2.343  1.2618  1.3097  2.6757
  888MOL0     H19842   0.664  -1.257   2.084  2.2328 -0.5139  0.7120
  888MOL0     H19843   0.491  -1.377   2.017 -0.0541  0.4754 -0.0278
  888MOL0     H19844   0.350  -1.661   1.740 -0.3245 -0.5250  2.0474
  888MOL0     H19845   0.454  -1.563   1.637  1.6131  1.2408  0.8889
  888MOL0     H19846   0.496  -1.798   1.632 -0.4427  0.9039 -0.1582
  888MOL0     H19847   0.637  -1.736   1.691  1.1266 -4.6488  1.2416
  888MOL0     H19848   0.563  -1.951   1.816 -0.3171 -0.6809  1.8380
  888MOL0     H19849   0.576  -1.813   1.928  0.6373 -1.4723  0.1866
  888MOL0     H19850   0.313  -1.890   1.785 -1.2103 -0.7675  1.7696
  888MOL0     H19851   0.341  -1.806   1.937  0.6963  0.3650 -0.7686
  888MOL0     H19852   0.437  -2.085   1.925  3.0495  0.8645  1.1702
  888MOL0     H19853   0.261  -2.056   1.922  1.0571 -1.2714  0.2568
  888MOL0     H19854   0.433  -1.939   2.138 -0.4136 -0.6870  1.1251
  888MOL0     H19855   0.244  -1.959   2.125 -1.2351 -2.4876 -1.2151
  888MOL0     H19856   0.442  -2.170   2.149 -0.5317  0.5096 -0.5881
  888MOL0     H19857   0.258  -2.187   2.167  1.1322 -2.3865  1.7792
  888MOL0     H19858   0.397  -2.001   2.360 -0.3207  0.9602 -3.0312
  888MOL0     H19859   0.237  -2.085   2.348 -1.1103 -1.6878 -0.4337
  888MOL0     H19860   0.700  -1.523   1.667  0.7333 -0.1255 -0.4300
  888MOL0     H19861   0.902  -1.408   1.760 -0.4495 -2.0825  1.0807
  888MOL0     H19862   1.116  -1.065   1.985  1.6014 -1.5711 -0.8256
  888MOL0     H19863   1.332  -0.986   2.055 -1.2983 -0.0311 -1.9397
  888MOL0     H19864   2.325  -0.012   1.749 -1.8665  0.7347 -1.3171
  888MOL0     H19865   2.292   0.188   1.621  0.6280 -1.2790  0.3606
  888MOL0     H19866   2.412   0.368   1.235 -0.4160  0.9441 -1.5926
  888MOL0     H19867   2.450   0.510   1.044  2.6707 -1.1852  0.4787
  888MOL0     H19868   2.661   0.893   1.120  0.2422  0.0917  0.3407
  888MOL0     H19869   2.493   0.940   1.079 -1.2647 -2.0636 -1.2560
  888MOL0     H19870   2.649   1.056   0.944 -0.3608  0.6037 -2.3372
  888MOL0     H19871   2.546   0.947   0.853 -3.1002  1.0761  3.4776
  888MOL0     H19872   2.710   0.796   0.780  1.2098 -0.8167  2.7833
  888MOL0     H19873   2.813   0.852   0.902 -0.9538  2.3161  3.7726
  888MOL0     H19874   2.849   0.963   0.649 -1.5507 -3.1048  0.2241
  888MOL0     H19875   2.716   1.067   0.696  0.3028 -0.2941 -4.4494
  888MOL0     H19876   3.044   1.210   0.931 -1.9327  0.0678  0.6875
  888MOL0     H19877   2.577   0.828   1.299 -0.2341 -0.1631  0.0936
  888MOL0     H19878   2.626   0.810   1.505 -1.5081  0.9537  0.0337
  888MOL0     H19879   2.491   0.723   1.582  0.0358  0.1612  1.0354
  888MOL0     H19880   2.662   0.659   1.570 -0.0419 -0.2491 -1.3351
  889MOL0     O19881   4.847   6.517   1.111 -0.0550 -0.7159 -0.2469
  889MOL0     C19882   4.814   6.562   1.001 -0.1128  0.4715  0.2336
  889MOL0     O19883   4.741   6.671   0.976 -0.9340  0.2322 -1.3063
  889MOL0     C19884   4.658   6.721   1.072  0.4727  0.2547  0.3049
  889MOL0     C19885   4.520   6.680   1.074  0.3546 -0.8695 -0.4269
  889MOL0     C19886   4.427   6.751   1.148 -0.3194 -0.3731  0.1433
  889MOL0     C19887   4.472   6.854   1.227 -0.2224  0.5815 -0.6544
  889MOL0     O19888   4.380   6.914   1.312  0.0484  0.1077 -0.3465
  889MOL0     C19889   4.292   6.986   1.234 -0.8719 -0.6042  0.1011
  889MOL0     C19890   4.240   7.115   1.290 -0.1424  0.6209  0.4525
  889MOL0     C19891   4.189   7.099   1.437 -0.9677 -0.6825  0.2729
  889MOL0     C19892   4.157   7.236   1.504  0.4399  0.0478  0.4835
  889MOL0     C19893   4.172   7.238   1.653  0.1291 -0.6364 -0.1615
  889MOL0     C19894   4.044   7.280   1.727 -0.2042  0.5035 -0.7927
  889MOL0     C19895   3.918   7.196   1.688  0.0675 -0.4974  0.0609
  889MOL0     C19896   3.804   7.235   1.786  0.0357  0.9192  0.6839
  889MOL0     N19897   3.758   7.367   1.784  0.4667  0.2791  0.0884
  889MOL0     C19898   3.686   7.419   1.679 -0.3605 -0.5773  1.0674
  889MOL0     C19899   3.642   7.542   1.719 -0.0808 -0.4196 -0.1796
  889MOL0     C19900   3.548   7.637   1.648  0.4432  0.2295  1.8835
  889MOL0     C19901   3.507   7.581   1.514 -0.6161  0.0035 -0.2046
  889MOL0     C19902   3.425   7.672   1.418  0.2563 -0.8811  0.0942
  889MOL0     C19903   3.446   7.641   1.266 -0.1805  0.8958  0.8637
  889MOL0     O19904   3.421   7.506   1.233  0.0821  0.2646 -0.4804
  889MOL0     C19905   3.290   7.464   1.240 -0.7407 -0.0442 -0.9494
  889MOL0     C19906   3.181   7.546   1.235  0.3303  0.1752  0.0503
  889MOL0     C19907   3.050   7.501   1.229  0.0159  0.9497  0.2597
  889MOL0     C19908   3.029   7.361   1.249  0.3339  0.3355  0.4386
  889MOL0     C19909   2.887   7.315   1.255 -0.0451 -0.1570  0.1233
  889MOL0     O19910   2.865   7.188   1.251 -0.0272 -0.1202 -0.2133
  889MOL0     C19911   2.729   7.147   1.238  0.3227 -0.1573 -0.0011
  889MOL0     C19912   2.698   7.028   1.160 -0.1014 -1.0498 -0.7261
  889MOL0     C19913   2.567   6.970   1.157 -0.3255 -0.1527 -0.2522
  889MOL0     C19914   2.469   7.025   1.244 -0.5059  0.3950  0.0179
  889MOL0     O19915   2.342   6.978   1.251 -1.0505 -0.4037  0.3362
  889MOL0     C19916   2.325   6.834   1.245 -0.1129  0.5313  0.4149
  889MOL0     C19917   2.257   6.792   1.117 -0.0101 -0.7561 -0.2969
  889MOL0     C19918   2.246   6.637   1.103  0.1392 -0.4922 -0.1841
  889MOL0     C19919   2.110   6.577   1.147  0.8237 -0.3595 -0.7049
  889MOL0     C19920   2.085   6.435   1.101  0.0471  1.0306 -0.0221
  889MOL0     C19921   2.045   6.420   0.952  0.2040 -0.4543  0.6661
  889MOL0     C19922   1.966   6.526   0.874 -0.0494 -0.6957 -0.0536
  889MOL0     C19923   1.943   6.483   0.729  0.1407  0.8968 -0.7440
  889MOL0    Cl19924   1.843   6.605   0.638 -0.0788  0.4148 -0.3857
  889MOL0     C19925   2.500   7.136   1.321  0.6792  0.1062 -0.1940
  889MOL0     C19926   2.628   7.189   1.324  0.3686 -0.1550 -0.1738
  889MOL0     O19927   2.802   7.404   1.253 -0.2430  0.0002 -0.8928
  889MOL0     C19928   3.146   7.279   1.268 -0.5480 -0.6012  0.0494
  889MOL0     C19929   3.272   7.329   1.264 -0.2072  1.6300  0.9672
  889MOL0     N19930   3.691   7.557   1.848 -0.2867  0.1555 -0.8304
  889MOL0     N19931   3.766   7.456   1.882 -0.5230 -0.2239 -0.6440
  889MOL0     C19932   4.607   6.901   1.222  0.5783  0.5752  0.0288
  889MOL0     C19933   4.703   6.827   1.151  0.3678 -0.2480  1.3388
  889MOL0     C19934   4.888   6.506   0.885  0.2375  0.1678  0.6662
  889MOL0     C19935   5.015   6.450   0.916  0.1078  0.1008  1.0587
  889MOL0     C19936   5.092   6.398   0.814  0.9853  0.6822 -0.3629
  889MOL0     C19937   5.061   6.415   0.681 -0.1768 -0.2511  0.1711
  889MOL0     O19938   5.146   6.362   0.584 -0.2824 -0.3890 -0.9187
  889MOL0     C19939   5.224   6.454   0.517 -1.2926 -0.1501  0.3220
  889MOL0     C19940   5.366   6.451   0.576  0.6242 -0.2409 -0.2978
  889MOL0     C19941   5.474   6.505   0.465 -0.0968  0.1661 -0.9764
  889MOL0     C19942   5.532   6.403   0.367 -0.1847 -0.2202 -0.3915
  889MOL0     C19943   5.650   6.457   0.295 -0.5744  0.0184 -0.2619
  889MOL0     C19944   5.756   6.500   0.243 -0.9858 -0.2609 -0.0691
  889MOL0     C19945   4.941   6.462   0.645  0.9827  0.0136 -0.9904
  889MOL0     C19946   4.857   6.520   0.742 -0.0162  0.0391  0.5288
  889MOL0     C19947   4.738   6.597   0.709 -0.2895 -0.2985  0.2625
  889MOL0     H19948   4.485   6.607   1.001 -1.3718  2.1090 -2.7969
  889MOL0     H19949   4.321   6.726   1.154  0.0547 -1.6541  2.6675
  889MOL0     H19950   4.347   7.025   1.148 -0.5561 -1.4081 -0.0668
  889MOL0     H19951   4.207   6.922   1.208 -0.9885  0.3044 -1.9997
  889MOL0     H19952   4.155   7.163   1.241 -0.5780  0.1038  0.6984
  889MOL0     H19953   4.312   7.198   1.292  0.8088 -0.2041  1.6599
  889MOL0     H19954   4.261   7.043   1.497 -0.2219  0.8132  0.8425
  889MOL0     H19955   4.102   7.034   1.424  0.1041 -1.6758 -3.0880
  889MOL0     H19956   4.225   7.314   1.468  0.2442  0.3298  0.7192
  889MOL0     H19957   4.058   7.262   1.465 -0.6222 -2.5528  1.1996
  889MOL0     H19958   4.209   7.139   1.683  2.1050 -0.1000 -0.6912
  889MOL0     H19959   4.241   7.312   1.694  0.0615  0.1717 -1.4525
  889MOL0     H19960   4.055   7.269   1.835  0.9329  0.0146 -0.9414
  889MOL0     H19961   4.033   7.388   1.712 -1.0877  1.3753  4.3072
  889MOL0     H19962   3.932   7.088   1.701 -0.4694 -0.9104 -2.2838
  889MOL0     H19963   3.890   7.210   1.583  2.4744  0.7219 -0.4955
  889MOL0     H19964   3.711   7.184   1.762  1.0422 -1.1488  0.9761
  889MOL0     H19965   3.838   7.201   1.884  1.6684  0.5116  0.0044
  889MOL0     H19966   3.662   7.368   1.586 -0.0363  1.0503  0.0362
  889MOL0     H19967   3.466   7.648   1.719 -3.0771 -2.7689 -1.2780
  889MOL0     H19968   3.612   7.724   1.631  2.2276 -1.6374 -2.5714
  889MOL0     H19969   3.593   7.545   1.457 -0.8154  2.0072 -1.8754
  889MOL0     H19970   3.448   7.498   1.553  0.0840 -1.0196 -1.2821
  889MOL0     H19971   3.446   7.778   1.431 -0.7147 -0.6499 -0.1259
  889MOL0     H19972   3.318   7.667   1.443 -0.1999  2.0767 -0.9024
  889MOL0     H19973   3.551   7.656   1.236  0.3688 -1.8053  1.2041
  889MOL0     H19974   3.391   7.714   1.205 -1.0090  1.3458  2.1292
  889MOL0     H19975   3.180   7.654   1.219 -1.4763  0.3662  1.0944
  889MOL0     H19976   2.962   7.564   1.224 -0.8870 -0.3365 -0.7548
  889MOL0     H19977   2.781   6.973   1.115  1.3465 -0.7207  1.4134
  889MOL0     H19978   2.559   6.880   1.096  1.6425 -3.5221  3.8925
  889MOL0     H19979   2.416   6.775   1.262  0.9377  2.0078  0.1392
  889MOL0     H19980   2.257   6.805   1.326 -0.3752  0.7022  0.2560
  889MOL0     H19981   2.161   6.846   1.117 -0.9855 -2.4227  0.1341
  889MOL0     H19982   2.316   6.832   1.034 -2.9252  1.5227 -1.4634
  889MOL0     H19983   2.260   6.616   0.997  0.0366 -0.1646 -0.2645
  889MOL0     H19984   2.326   6.584   1.154  0.5374 -1.2549 -1.5609
  889MOL0     H19985   2.031   6.639   1.104  0.6928 -2.6808 -4.2438
  889MOL0     H19986   2.098   6.581   1.255 -0.2893  1.5977 -0.8436
  889MOL0     H19987   2.013   6.380   1.162  3.1122 -0.7917  2.2421
  889MOL0     H19988   2.181   6.383   1.109  0.6106  2.1812  1.1738
  889MOL0     H19989   2.137   6.410   0.894  0.6402 -0.7980  1.3974
  889MOL0     H19990   2.002   6.322   0.928  2.3810 -1.0274 -1.2935
  889MOL0     H19991   2.029   6.615   0.872  1.2333 -1.5918 -0.7122
  889MOL0     H19992   1.870   6.543   0.925 -0.6817 -0.5062 -1.2576
  889MOL0     H19993   2.039   6.470   0.678  0.3504 -2.6018  0.3066
  889MOL0     H19994   1.883   6.392   0.721  1.7985 -0.2613 -0.6041
  889MOL0     H19995   2.419   7.189   1.369 -0.7301 -2.1548  0.0582
  889MOL0     H19996   2.643   7.265   1.400 -2.3622 -0.9015  1.2384
  889MOL0     H19997   3.128   7.176   1.294  0.2789 -0.1480  2.6789
  889MOL0     H19998   3.361   7.269   1.276 -1.7130 -1.9098 -3.0891
  889MOL0     H19999   4.636   6.974   1.298  0.2619  1.2901 -0.5181
  889MOL0     H20000   4.798   6.877   1.131 -0.0697 -0.4498 -1.7818
  889MOL0     H20001   5.045   6.438   1.020 -1.2920  0.5595  1.5323
  889MOL0     H20002   5.183   6.339   0.826 -0.7513 -2.3341 -0.9581
  889MOL0     H20003   5.190   6.558   0.515  1.6674  0.9183 -1.7879
  889MOL0     H20004   5.222   6.418   0.414 -0.7814 -0.5548  0.4496
  889MOL0     H20005   5.408   6.354   0.604  5.0075  1.2469 -0.8217
  889MOL0     H20006   5.365   6.514   0.666  2.0635  0.0705 -0.4671
  889MOL0     H20007   5.561   6.558   0.505  1.5005  0.1109 -4.0595
  889MOL0     H20008   5.424   6.586   0.410  0.8869  0.4049 -1.5404
  889MOL0     H20009   5.552   6.311   0.422 -1.3563  0.2019  0.8004
  889MOL0     H20010   5.462   6.382   0.285  1.7345  1.3958 -2.5808
  889MOL0     H20011   5.842   6.537   0.190  0.4161 -0.0297  2.2219
  889MOL0     H20012   4.903   6.469   0.543 -3.1120  0.4404  0.3833
  889MOL0     H20013   4.697   6.591   0.608  0.2810  1.0189 -0.0629
  889MOL0     H20014   4.658   6.555   0.770 -0.2079 -1.1553 -0.1984
  889MOL0     H20015   4.749   6.701   0.738  1.1686 -0.2785 -0.2532
  890MOL0     O20016   9.302   0.528   2.376  0.5864 -0.3718  0.8264
  890MOL0     C20017   9.407   0.466   2.347 -1.3637  0.1568  0.3111
  890MOL0     O20018   9.485   0.395   2.436 -0.0845 -1.0044  0.7673
  890MOL0     C20019   9.480   0.436   2.565 -0.1261 -0.1680  0.5421
  890MOL0     C20020   9.434   0.360   2.673 -0.5882 -0.1409  0.9548
  890MOL0     C20021   9.450   0.411   2.807 -0.0681  0.1120 -0.0396
  890MOL0     C20022   9.486   0.540   2.836 -0.7384  0.1352 -0.3702
  890MOL0     O20023   9.497   0.595   2.964  0.1963  0.0226  1.0874
  890MOL0     C20024   9.391   0.552   3.051  0.6682  0.4853  0.0427
  890MOL0     C20025   9.355   0.647   3.168 -0.5082 -0.6028  0.1798
  890MOL0     C20026   9.278   0.773   3.142  0.0420 -0.0654 -0.0288
  890MOL0     C20027   9.372   0.881   3.113  0.3225  0.0897 -0.2515
  890MOL0     C20028   9.300   1.015   3.090 -0.2535 -0.3024 -0.1670
  890MOL0     C20029   9.387   1.113   3.001 -0.3958 -0.2696  0.3977
  890MOL0     C20030   9.343   1.257   3.010  0.4081  0.5071 -0.8672
  890MOL0     C20031   9.408   1.329   3.138  0.0384  0.5673  0.0021
  890MOL0     N20032   9.429   1.472   3.105 -0.2192 -0.4652  0.5476
  890MOL0     C20033   9.349   1.568   3.146  0.7095  0.0999 -0.9513
  890MOL0     C20034   9.396   1.693   3.111  0.9940 -0.0997  0.1171
  890MOL0     C20035   9.345   1.842   3.138 -0.1545  0.0471 -0.0349
  890MOL0     C20036   9.240   1.863   3.242 -0.0939  0.1464 -0.4231
  890MOL0     C20037   9.277   1.866   3.387  0.5555 -0.1942 -0.8163
  890MOL0     C20038   9.359   1.979   3.436  0.5532  0.1338  0.2637
  890MOL0     O20039   9.488   1.989   3.379 -0.4084  0.0712  0.1484
  890MOL0     C20040   9.568   2.088   3.430  0.9365  0.2408  0.1128
  890MOL0     C20041   9.522   2.220   3.445  0.2203 -1.0488 -0.8018
  890MOL0     C20042   9.611   2.315   3.498  0.1964 -0.2671 -0.4749
  890MOL0     C20043   9.745   2.279   3.526 -0.6393  0.4897  1.2257
  890MOL0     C20044   9.849   2.376   3.549  0.5908 -0.3529 -0.1924
  890MOL0     O20045   9.979   2.342   3.539 -0.1541 -0.3848 -0.0310
  890MOL0     C20046  10.068   2.439   3.581 -1.0349  0.4325 -0.1525
  890MOL0     C20047  10.154   2.506   3.492 -0.3689 -0.2341  0.4939
  890MOL0     C20048  10.227   2.607   3.541 -0.8756  0.5545  0.7327
  890MOL0     C20049  10.226   2.650   3.670  0.1851  0.9043 -0.4082
  890MOL0     O20050  10.315   2.743   3.709 -0.3669  0.1849  0.7855
  890MOL0     C20051  10.453   2.719   3.665  0.8295 -0.3480 -0.0432
  890MOL0     C20052  10.519   2.585   3.692  0.1562  0.3841  0.0255
  890MOL0     C20053  10.535   2.550   3.839 -0.0987 -0.6112 -1.0608
  890MOL0     C20054  10.574   2.409   3.846  0.2087  0.3154 -0.6068
  890MOL0     C20055  10.620   2.370   3.990  0.3528 -0.1847  0.6472
  890MOL0     C20056  10.626   2.225   4.018  0.1036 -0.5040  0.9112
  890MOL0     C20057  10.664   2.186   4.162 -0.3587 -0.7655  0.0231
  890MOL0     C20058  10.721   2.040   4.173  0.0797  0.4056 -0.3483
  890MOL0    Cl20059  10.874   2.000   4.075  0.0502 -0.0202 -0.6814
  890MOL0     C20060  10.140   2.582   3.760  1.4703  0.4392 -0.4926
  890MOL0     C20061  10.071   2.469   3.717 -0.1117  0.2824  0.6170
  890MOL0     O20062   9.808   2.481   3.584  0.3458 -0.7600  0.0448
  890MOL0     C20063   9.789   2.145   3.506  0.3782 -0.7866  0.5471
  890MOL0     C20064   9.699   2.051   3.453  0.4472 -0.4753 -0.4411
  890MOL0     N20065   9.514   1.659   3.039 -0.3648 -0.6303  0.4640
  890MOL0     N20066   9.517   1.533   3.019 -0.6723  0.5879  0.2466
  890MOL0     C20067   9.532   0.618   2.734  0.3767  1.1387  0.1313
  890MOL0     C20068   9.522   0.569   2.598 -0.0075  0.3656 -0.3079
  890MOL0     C20069   9.461   0.485   2.213  0.4967 -0.6550 -0.5771
  890MOL0     C20070   9.479   0.365   2.131  0.4168  0.0940 -0.0838
  890MOL0     C20071   9.513   0.371   1.997 -0.1302 -0.1952 -0.1332
  890MOL0     C20072   9.544   0.492   1.937 -0.5169 -0.3003 -0.6440
  890MOL0     O20073   9.593   0.506   1.810 -0.0114  0.6673  0.3083
  890MOL0     C20074   9.679   0.408   1.756  0.2191 -0.3823  0.8015
  890MOL0     C20075   9.705   0.455   1.610 -0.4684  0.3313  0.0034
  890MOL0     C20076   9.583   0.503   1.532 -0.5644 -0.7291 -0.2856
  890MOL0     C20077   9.491   0.399   1.475 -0.1937 -1.6518 -0.0064
  890MOL0     C20078   9.419   0.326   1.570 -1.0303  1.1744  0.0054
  890MOL0     C20079   9.357   0.246   1.634  0.0860  0.0945 -0.7260
  890MOL0     C20080   9.518   0.607   2.011 -0.1872 -0.0426 -0.6760
  890MOL0     C20081   9.471   0.610   2.145 -0.3076 -0.0298 -0.3026
  890MOL0     C20082   9.463   0.744   2.213  1.1496  0.7816 -0.1360
  890MOL0     H20083   9.407   0.256   2.653 -1.5580 -0.3257  2.9380
  890MOL0     H20084   9.419   0.354   2.895  0.5210  0.3960  0.3615
  890MOL0     H20085   9.293   0.555   3.002  0.9096  3.3478 -0.4155
  890MOL0     H20086   9.422   0.453   3.086  1.2827 -0.0382 -1.8892
  890MOL0     H20087   9.450   0.670   3.217  0.5611 -1.1261 -1.5642
  890MOL0     H20088   9.302   0.583   3.240 -1.9161 -1.3576 -1.4569
  890MOL0     H20089   9.211   0.798   3.225 -0.2538 -0.9608  0.0073
  890MOL0     H20090   9.209   0.759   3.058  0.5323 -2.1832 -0.1204
  890MOL0     H20091   9.439   0.890   3.200  0.1951  0.9353 -0.2333
  890MOL0     H20092   9.438   0.857   3.029  0.1025 -4.1754  0.5830
  890MOL0     H20093   9.209   1.007   3.030 -0.7419  1.0480  0.3559
  890MOL0     H20094   9.263   1.053   3.186 -2.8063 -3.0786  0.0857
  890MOL0     H20095   9.493   1.111   3.030 -0.4795  1.5317  0.9574
  890MOL0     H20096   9.387   1.077   2.898  0.9193 -3.7276  1.4816
  890MOL0     H20097   9.235   1.271   3.021  0.8509  4.4749  0.0696
  890MOL0     H20098   9.371   1.302   2.914 -0.2210 -0.8129 -1.6901
  890MOL0     H20099   9.349   1.311   3.228  0.3478  0.7819  0.2495
  890MOL0     H20100   9.501   1.272   3.146 -0.9925 -1.2745 -0.6461
  890MOL0     H20101   9.254   1.543   3.193  0.7462 -2.2313 -1.9792
  890MOL0     H20102   9.436   1.900   3.154  0.4839 -0.5053 -1.4427
  890MOL0     H20103   9.292   1.881   3.051  0.2703 -0.7213 -0.6541
  890MOL0     H20104   9.184   1.955   3.220 -0.7256  0.4252  2.0863
  890MOL0     H20105   9.151   1.800   3.227 -1.5407  2.0082 -0.0916
  890MOL0     H20106   9.327   1.772   3.414  0.6081  0.5569  2.0217
  890MOL0     H20107   9.179   1.873   3.435 -0.4566 -2.1446 -2.4217
  890MOL0     H20108   9.356   1.980   3.545  2.8958 -1.6409  0.4260
  890MOL0     H20109   9.295   2.063   3.408 -1.2595 -1.4310 -0.5490
  890MOL0     H20110   9.418   2.247   3.427 -0.6691 -2.2039  1.9640
  890MOL0     H20111   9.554   2.406   3.512 -0.0983 -0.4982 -0.1522
  890MOL0     H20112  10.158   2.476   3.388  0.5927 -1.1699  0.7902
  890MOL0     H20113  10.278   2.663   3.463  2.3797 -2.1816  0.6446
  890MOL0     H20114  10.461   2.732   3.557 -0.1221 -0.8515 -0.1895
  890MOL0     H20115  10.513   2.805   3.696  0.4415  0.6924 -2.0050
  890MOL0     H20116  10.469   2.503   3.639 -0.1228  0.7882 -0.3453
  890MOL0     H20117  10.621   2.598   3.654 -0.4396  0.7739 -1.5128
  890MOL0     H20118  10.614   2.600   3.897 -2.1325  1.6761 -0.0677
  890MOL0     H20119  10.445   2.566   3.899 -1.2819 -1.0461 -2.6495
  890MOL0     H20120  10.659   2.394   3.779  0.9817  0.5489  0.3095
  890MOL0     H20121  10.483   2.355   3.818 -0.9853  2.0193 -0.1810
  890MOL0     H20122  10.545   2.407   4.060 -0.0845  0.4406 -0.1391
  890MOL0     H20123  10.712   2.429   4.004  0.0014  0.8090 -0.9043
  890MOL0     H20124  10.530   2.177   3.998  1.7077 -5.7217  3.8492
  890MOL0     H20125  10.705   2.178   3.958  0.9107 -0.9099  2.2691
  890MOL0     H20126  10.583   2.204   4.233  1.7646 -0.1790  2.4108
  890MOL0     H20127  10.742   2.255   4.194 -0.1205 -1.8387  1.9369
  890MOL0     H20128  10.746   2.017   4.277  0.0707 -1.6059 -0.7551
  890MOL0     H20129  10.636   1.973   4.160  0.2230  0.0527  0.4632
  890MOL0     H20130  10.119   2.621   3.859  1.0350 -3.1323  0.9928
  890MOL0     H20131  10.009   2.402   3.776  0.6651  0.0887  1.2299
  890MOL0     H20132   9.892   2.120   3.530  0.9976 -1.5574 -2.4702
  890MOL0     H20133   9.725   1.946   3.442  0.3549 -0.6998  1.2344
  890MOL0     H20134   9.560   0.721   2.749 -0.0853  0.8988  3.1635
  890MOL0     H20135   9.553   0.630   2.514 -0.2454 -1.1750 -1.5432
  890MOL0     H20136   9.448   0.266   2.164  4.3205 -1.6693 -1.1377
  890MOL0     H20137   9.516   0.274   1.949 -0.1830 -2.0684  3.3461
  890MOL0     H20138   9.632   0.310   1.763 -1.4043  0.3797  1.0124
  890MOL0     H20139   9.775   0.397   1.808  0.9901 -0.7274 -0.6198
  890MOL0     H20140   9.754   0.372   1.560 -1.0295 -0.1632  0.2574
  890MOL0     H20141   9.780   0.535   1.614 -0.1454  0.1444 -1.6898
  890MOL0     H20142   9.619   0.572   1.455 -0.2353  0.4711  0.9148
  890MOL0     H20143   9.523   0.564   1.599  1.3113  0.1129  0.6867
  890MOL0     H20144   9.406   0.450   1.428  1.4764 -1.7461 -3.4899
  890MOL0     H20145   9.547   0.327   1.416  0.0521 -0.2416 -1.5680
  890MOL0     H20146   9.324   0.175   1.707 -2.1572  1.4072 -0.3663
  890MOL0     H20147   9.554   0.697   1.962 -0.1688 -0.2293 -1.0077
  890MOL0     H20148   9.365   0.789   2.191 -0.0263 -1.2221  0.7004
  890MOL0     H20149   9.485   0.734   2.320  1.8809 -0.5232 -0.3839
  890MOL0     H20150   9.541   0.817   2.189  1.7412  1.5605  3.5465
  891MOL0     O20151   0.064   2.652   4.435 -0.4401 -0.0367  0.1324
  891MOL0     C20152   0.060   2.643   4.310 -1.0090  1.0164  0.0294
  891MOL0     O20153   0.030   2.750   4.226  0.0370 -0.0907  0.3576
  891MOL0     C20154   0.088   2.872   4.249  0.7061 -0.2141 -0.0292
  891MOL0     C20155   0.206   2.891   4.319  0.2346  0.6971 -0.7451
  891MOL0     C20156   0.250   3.019   4.345  0.3262 -0.6343  0.1860
  891MOL0     C20157   0.177   3.126   4.326 -0.0180 -0.1594 -0.7843
  891MOL0     O20158   0.221   3.250   4.374  0.5547 -0.3487  0.0914
  891MOL0     C20159   0.207   3.371   4.292  0.3337 -0.0650  0.1960
  891MOL0     C20160   0.271   3.492   4.352 -1.5302 -1.3151 -0.4659
  891MOL0     C20161   0.430   3.484   4.363  0.0649  0.8585  0.2796
  891MOL0     C20162   0.497   3.593   4.448 -0.2318 -0.2098 -0.3693
  891MOL0     C20163   0.637   3.543   4.483  0.4079  0.7301  1.0486
  891MOL0     C20164   0.717   3.658   4.544  0.3388  0.5752  0.1490
  891MOL0     C20165   0.727   3.796   4.469  0.4956 -0.0900 -0.6970
  891MOL0     C20166   0.810   3.768   4.343 -0.0354 -0.0994 -0.2747
  891MOL0     N20167   0.793   3.879   4.238  0.6584  0.1179 -0.0430
  891MOL0     C20168   0.795   4.015   4.253 -0.7685  0.4800 -0.0637
  891MOL0     C20169   0.776   4.065   4.127  1.0223  0.0339 -0.1508
  891MOL0     C20170   0.748   4.218   4.111  0.6613  0.7496 -0.2963
  891MOL0     C20171   0.757   4.268   3.966 -0.4460 -0.4815  0.3322
  891MOL0     C20172   0.878   4.235   3.880  0.1620 -0.2468  0.3524
  891MOL0     C20173   0.832   4.229   3.730 -0.3043  0.5985 -0.0231
  891MOL0     O20174   0.951   4.200   3.656 -0.3961 -0.1537 -0.9989
  891MOL0     C20175   0.938   4.126   3.544  0.3109 -0.6297  0.9278
  891MOL0     C20176   1.038   4.036   3.505 -0.3085 -0.0453  0.5755
  891MOL0     C20177   1.031   3.967   3.382 -0.9285 -0.0111 -1.0270
  891MOL0     C20178   0.931   3.996   3.291 -0.4752  0.3393  0.5699
  891MOL0     C20179   0.916   3.927   3.167  1.1168 -0.3827 -0.1077
  891MOL0     O20180   0.830   3.970   3.074  0.2149 -0.2045 -0.3861
  891MOL0     C20181   0.827   3.902   2.953  0.0258 -0.3880 -0.5464
  891MOL0     C20182   0.944   3.874   2.874  0.0972  0.8350  0.3303
  891MOL0     C20183   0.927   3.822   2.748 -0.5165  0.8143  1.3731
  891MOL0     C20184   0.798   3.802   2.690 -1.6533  0.7406 -0.0010
  891MOL0     O20185   0.791   3.783   2.553 -0.4842 -0.3433  0.3092
  891MOL0     C20186   0.694   3.853   2.476 -0.2578 -0.3018  1.3828
  891MOL0     C20187   0.754   3.988   2.416  1.1685  0.2049 -0.0277
  891MOL0     C20188   0.895   3.978   2.353  0.1194 -0.2337 -0.2633
  891MOL0     C20189   0.949   4.106   2.294 -0.0356 -0.3997 -0.6216
  891MOL0     C20190   1.103   4.092   2.281  0.0926  0.3021  0.4094
  891MOL0     C20191   1.171   4.217   2.199  0.2290 -0.0204  0.0106
  891MOL0     C20192   1.157   4.337   2.290  0.3312  0.4841 -1.0351
  891MOL0     C20193   1.249   4.459   2.268  0.3155 -0.3626 -0.4049
  891MOL0    Cl20194   1.269   4.550   2.416 -0.2115 -0.4249 -0.7399
  891MOL0     C20195   0.689   3.823   2.770  0.9342 -0.4988  0.0575
  891MOL0     C20196   0.700   3.881   2.894  0.2470  1.2896  0.7285
  891MOL0     O20197   0.978   3.823   3.159 -0.0167 -0.0131  0.0780
  891MOL0     C20198   0.826   4.085   3.328  0.1432  0.0886  0.5272
  891MOL0     C20199   0.831   4.148   3.455  0.5191 -0.2227 -0.0914
  891MOL0     N20200   0.754   3.955   4.041  0.0304  0.7243 -0.6294
  891MOL0     N20201   0.774   3.841   4.108  0.5304  0.1045  0.5129
  891MOL0     C20202   0.058   3.112   4.253 -0.1739  0.5809  0.7445
  891MOL0     C20203   0.028   2.995   4.200  0.3174  0.7957  0.0222
  891MOL0     C20204   0.095   2.504   4.255 -0.3106  0.3880 -0.6654
  891MOL0     C20205   0.130   2.498   4.120  1.0000 -0.2971 -0.0243
  891MOL0     C20206   0.184   2.383   4.056  0.1679 -0.8352  0.5947
  891MOL0     C20207   0.210   2.271   4.136  0.0283  0.9921  0.2753
  891MOL0     O20208   0.290   2.169   4.075 -0.3608  0.0391  0.2950
  891MOL0     C20209   0.276   2.039   4.135 -0.3175  0.4138  0.0928
  891MOL0     C20210   0.129   1.982   4.125 -0.2124  0.0073  0.1408
  891MOL0     C20211   0.096   1.845   4.170  0.8604  0.3844 -0.6421
  891MOL0     C20212   0.196   1.737   4.126 -0.8432 -0.9542  0.2313
  891MOL0     C20213   0.187   1.706   3.983  0.8098  0.3600  0.3991
  891MOL0     C20214   0.165   1.691   3.859 -0.5043  0.4124 -0.0042
  891MOL0     C20215   0.180   2.278   4.273 -0.5085 -0.2033  0.0838
  891MOL0     C20216   0.115   2.386   4.337  1.4636  0.7443  0.2575
  891MOL0     C20217   0.087   2.365   4.496  0.0545 -0.3927  0.2554
  891MOL0     H20218   0.260   2.805   4.357 -0.2076 -0.0808 -1.8080
  891MOL0     H20219   0.345   3.026   4.395  2.7266 -1.5712 -3.8210
  891MOL0     H20220   0.261   3.356   4.198  1.9636 -1.8313  1.3346
  891MOL0     H20221   0.100   3.388   4.273  0.6209  1.1570 -0.3956
  891MOL0     H20222   0.234   3.509   4.454  0.9609  2.4881 -0.0114
  891MOL0     H20223   0.247   3.586   4.301  3.0501 -1.0169 -2.5116
  891MOL0     H20224   0.471   3.496   4.262  0.9476 -1.4768  0.2854
  891MOL0     H20225   0.439   3.390   4.419 -3.7664  2.3017  3.7980
  891MOL0     H20226   0.489   3.691   4.400 -1.7896 -0.7788 -1.3611
  891MOL0     H20227   0.436   3.605   4.538  2.9227  2.5280  1.6024
  891MOL0     H20228   0.635   3.464   4.558 -0.0681  1.0513  1.3821
  891MOL0     H20229   0.676   3.511   4.386 -4.2017  2.1147 -1.6036
  891MOL0     H20230   0.678   3.682   4.643 -0.9503  0.2865 -0.2751
  891MOL0     H20231   0.823   3.630   4.550  0.6366  1.5822 -0.2921
  891MOL0     H20232   0.767   3.876   4.533 -1.1026 -1.6165  2.4295
  891MOL0     H20233   0.623   3.820   4.444 -0.3752 -3.4165 -0.6606
  891MOL0     H20234   0.914   3.763   4.374  0.3084  0.6535 -1.2398
  891MOL0     H20235   0.768   3.687   4.283  1.6671 -0.2494 -1.3352
  891MOL0     H20236   0.794   4.072   4.345 -5.7953  2.1781 -0.9032
  891MOL0     H20237   0.649   4.241   4.150  0.3185 -0.2258 -0.5797
  891MOL0     H20238   0.816   4.273   4.177  0.6691  3.4940 -2.3779
  891MOL0     H20239   0.666   4.237   3.914  0.4693 -1.6138 -0.6829
  891MOL0     H20240   0.746   4.376   3.957  1.5302 -0.4049 -2.1886
  891MOL0     H20241   0.917   4.137   3.909  2.1354 -0.0376 -1.3130
  891MOL0     H20242   0.952   4.315   3.896 -0.9353  0.8913 -0.1028
  891MOL0     H20243   0.805   4.330   3.696  2.9109  1.7897  0.5059
  891MOL0     H20244   0.766   4.147   3.704  1.1261 -0.3069 -0.9165
  891MOL0     H20245   1.125   4.026   3.568 -0.6595  0.0385  1.0814
  891MOL0     H20246   1.114   3.901   3.362 -1.3262 -0.9227  0.2310
  891MOL0     H20247   1.042   3.887   2.919 -1.0737  0.4217  3.2261
  891MOL0     H20248   1.012   3.807   2.682  0.0706 -1.5135  2.5416
  891MOL0     H20249   0.682   3.785   2.391 -1.6862 -0.1361  1.4338
  891MOL0     H20250   0.602   3.874   2.530 -1.3912 -4.6903  1.4781
  891MOL0     H20251   0.677   4.026   2.347 -1.4033 -2.5865  1.0867
  891MOL0     H20252   0.739   4.053   2.503 -0.7551 -1.8278  1.2586
  891MOL0     H20253   0.960   3.943   2.433 -0.7327 -1.4109 -0.0676
  891MOL0     H20254   0.898   3.898   2.279 -1.0130 -0.5663  0.0215
  891MOL0     H20255   0.936   4.190   2.363  0.7190  0.8146 -1.9012
  891MOL0     H20256   0.898   4.130   2.200  1.6246  2.6125 -0.8869
  891MOL0     H20257   1.110   3.999   2.223 -3.8904 -1.4101  2.2619
  891MOL0     H20258   1.149   4.073   2.378  0.1176 -1.5233  0.0900
  891MOL0     H20259   1.274   4.199   2.165 -1.3965 -2.9288 -4.2310
  891MOL0     H20260   1.117   4.216   2.104  1.5041 -5.4855 -1.0265
  891MOL0     H20261   1.188   4.287   2.382  2.1402 -0.9541 -2.3442
  891MOL0     H20262   1.053   4.371   2.299  0.7980  2.5803 -2.9093
  891MOL0     H20263   1.351   4.425   2.243  0.4182 -1.9378  1.8626
  891MOL0     H20264   1.209   4.520   2.187 -2.1684 -0.2708  0.8264
  891MOL0     H20265   0.588   3.800   2.737  1.8060 -1.0961 -2.4383
  891MOL0     H20266   0.607   3.914   2.940 -1.4478 -0.2683 -1.3949
  891MOL0     H20267   0.751   4.122   3.259  0.6858 -0.8203 -0.5817
  891MOL0     H20268   0.773   4.237   3.480  1.8423  0.2021  1.6852
  891MOL0     H20269  -0.008   3.188   4.211 -2.0129 -2.9163 -3.5934
  891MOL0     H20270  -0.053   2.992   4.127  0.7671 -0.2541 -0.4579
  891MOL0     H20271   0.111   2.584   4.057 -0.1789 -0.0419  0.6583
  891MOL0     H20272   0.207   2.389   3.950 -0.3669 -2.5770  0.3523
  891MOL0     H20273   0.311   2.026   4.238 -2.2602 -2.5273  0.4773
  891MOL0     H20274   0.344   1.975   4.077  0.0696  0.7510  0.1652
  891MOL0     H20275   0.103   1.991   4.019  1.0142  0.1410 -0.1637
  891MOL0     H20276   0.063   2.055   4.174 -2.2595 -0.1153 -2.1967
  891MOL0     H20277   0.002   1.823   4.117  0.6524 -3.0773  0.9067
  891MOL0     H20278   0.069   1.845   4.276  3.0716  1.9279 -0.0269
  891MOL0     H20279   0.297   1.772   4.149 -1.4473 -0.1503  1.8908
  891MOL0     H20280   0.181   1.650   4.192  2.2335 -0.4799  1.7323
  891MOL0     H20281   0.154   1.670   3.754  0.9604  3.3345 -0.8480
  891MOL0     H20282   0.203   2.194   4.337  0.9116  0.6264  0.7047
  891MOL0     H20283   0.116   2.267   4.534  0.9735  0.1593  1.0144
  891MOL0     H20284   0.141   2.438   4.556 -1.5428 -0.5838  2.0371
  891MOL0     H20285  -0.022   2.369   4.512 -0.1072 -2.9889  0.2226
  892MOL0     O20286   6.502   3.586   0.052  0.2179  0.2321  0.3216
  892MOL0     C20287   6.488   3.675  -0.032 -0.5979 -0.8340 -1.4148
  892MOL0     O20288   6.367   3.739  -0.059  0.4472  0.3234  0.7303
  892MOL0     C20289   6.265   3.695   0.020  1.3163  0.7044  0.1958
  892MOL0     C20290   6.172   3.613  -0.043  1.3507  0.5165 -0.2033
  892MOL0     C20291   6.058   3.555   0.020  0.1091 -1.2506  0.0471
  892MOL0     C20292   6.039   3.593   0.153  0.5492 -0.9737  0.4734
  892MOL0     O20293   5.934   3.560   0.238  0.1249  0.1607  0.1939
  892MOL0     C20294   5.851   3.447   0.223 -0.7524  0.8969 -1.0475
  892MOL0     C20295   5.905   3.311   0.293 -0.0392  0.0102  0.7822
  892MOL0     C20296   6.061   3.285   0.269  0.6843  0.6020 -0.3497
  892MOL0     C20297   6.090   3.249   0.131 -0.3332 -0.2412 -0.0151
  892MOL0     C20298   6.211   3.147   0.117  1.2669 -0.5463 -0.3506
  892MOL0     C20299   6.338   3.175   0.190 -0.4188 -0.8232  0.9276
  892MOL0     C20300   6.406   3.310   0.172 -0.4819 -0.0500  0.0968
  892MOL0     C20301   6.530   3.323   0.260 -0.1017  0.0473  0.3063
  892MOL0     N20302   6.493   3.384   0.382  0.4768 -0.5434 -1.2086
  892MOL0     C20303   6.538   3.515   0.413  0.3365 -1.2681  0.3468
  892MOL0     C20304   6.513   3.519   0.550  0.3302  0.5765 -0.4735
  892MOL0     C20305   6.544   3.638   0.640  0.6036  1.0571  0.2511
  892MOL0     C20306   6.510   3.613   0.790 -0.5400 -0.4509 -0.1438
  892MOL0     C20307   6.540   3.739   0.866  0.1153  0.2234 -0.6009
  892MOL0     C20308   6.650   3.724   0.971 -0.9445  0.1354  0.8643
  892MOL0     O20309   6.772   3.706   0.894 -1.2310 -0.2118 -0.1701
  892MOL0     C20310   6.895   3.722   0.948 -0.2441 -0.0429  0.2157
  892MOL0     C20311   6.918   3.807   1.060  0.0856 -0.2974  0.2829
  892MOL0     C20312   7.040   3.802   1.129 -0.7965  0.0744 -0.4627
  892MOL0     C20313   7.142   3.712   1.093  0.2190  0.0283  0.4519
  892MOL0     C20314   7.269   3.700   1.169 -0.4814 -0.7226 -0.3075
  892MOL0     O20315   7.359   3.623   1.119  0.2020  0.1766 -0.0110
  892MOL0     C20316   7.473   3.611   1.192 -1.0273  0.0229  0.4090
  892MOL0     C20317   7.486   3.506   1.276  0.2365 -0.2648 -0.1763
  892MOL0     C20318   7.607   3.490   1.345 -0.0984 -0.5119 -0.9690
  892MOL0     C20319   7.710   3.585   1.349  0.5463  0.2600 -0.3283
  892MOL0     O20320   7.820   3.591   1.424  0.0730 -0.0499  0.0752
  892MOL0     C20321   7.873   3.489   1.507 -0.6166 -0.2461 -1.2658
  892MOL0     C20322   7.976   3.555   1.596 -0.6157 -0.0150 -0.4029
  892MOL0     C20323   7.992   3.501   1.731  0.3361  0.5275 -0.7034
  892MOL0     C20324   8.069   3.369   1.738  0.7221  0.2363  0.4384
  892MOL0     C20325   7.992   3.257   1.821  0.3612  0.0552 -0.1384
  892MOL0     C20326   7.858   3.215   1.748 -0.6584  0.0783  0.2500
  892MOL0     C20327   7.807   3.089   1.793  0.9008  0.0130  1.0190
  892MOL0     C20328   7.651   3.099   1.783  0.0235 -0.5462 -0.4688
  892MOL0    Cl20329   7.578   3.229   1.892 -0.2895  0.2765 -0.1191
  892MOL0     C20330   7.688   3.705   1.274 -0.8177  0.5634 -0.3802
  892MOL0     C20331   7.565   3.712   1.198  0.5469 -0.2528  0.5941
  892MOL0     O20332   7.282   3.764   1.276  0.0836  0.6474  0.1398
  892MOL0     C20333   7.121   3.642   0.972 -0.5563 -0.0123  0.4840
  892MOL0     C20334   7.003   3.637   0.906  0.1412 -1.1180  0.0832
  892MOL0     N20335   6.451   3.399   0.593 -0.2809 -0.2815  0.8226
  892MOL0     N20336   6.430   3.323   0.491  0.1865  0.3958 -0.1534
  892MOL0     C20337   6.125   3.687   0.211  0.2508  0.1530  0.0133
  892MOL0     C20338   6.246   3.726   0.154 -0.6334  0.1199  0.6452
  892MOL0     C20339   6.597   3.698  -0.131  0.1769  0.3425  0.5832
  892MOL0     C20340   6.557   3.713  -0.268  0.0488 -0.6067 -0.8139
  892MOL0     C20341   6.657   3.731  -0.371  0.9046 -0.7317  0.7184
  892MOL0     C20342   6.795   3.733  -0.332  0.5024  0.2818  0.3343
  892MOL0     O20343   6.903   3.736  -0.423 -0.0336 -0.1480  0.1934
  892MOL0     C20344   6.875   3.706  -0.563 -0.6301  0.1480 -0.3118
  892MOL0     C20345   6.830   3.554  -0.576  0.4348  0.5425  0.5415
  892MOL0     C20346   6.805   3.538  -0.724  0.4841 -1.0177 -0.8655
  892MOL0     C20347   6.768   3.398  -0.755  0.0616 -0.3675  0.6753
  892MOL0     C20348   6.782   3.355  -0.894  1.0975  0.4989 -0.4114
  892MOL0     C20349   6.782   3.312  -1.005 -0.7502  0.5820 -0.3034
  892MOL0     C20350   6.827   3.721  -0.191  0.0891 -0.4918  0.3929
  892MOL0     C20351   6.732   3.704  -0.094  0.0074  0.3074  0.6598
  892MOL0     C20352   6.781   3.709   0.049  0.2328  0.1827 -1.0072
  892MOL0     H20353   6.190   3.605  -0.150  2.3896 -0.5756  0.0309
  892MOL0     H20354   5.985   3.496  -0.033 -0.4260  1.0247 -1.9063
  892MOL0     H20355   5.743   3.453   0.242 -0.8063 -3.1914  1.1527
  892MOL0     H20356   5.854   3.422   0.116  1.3356 -1.5107 -0.5010
  892MOL0     H20357   5.862   3.222   0.249  2.8677 -2.2323  2.1266
  892MOL0     H20358   5.888   3.314   0.401 -1.2838 -5.1290  0.9669
  892MOL0     H20359   6.072   3.190   0.321 -0.8435  0.4417 -0.2784
  892MOL0     H20360   6.129   3.364   0.305  0.6022  0.0581  1.0525
  892MOL0     H20361   6.005   3.203   0.080  0.3438 -3.7514  1.6848
  892MOL0     H20362   6.132   3.337   0.081 -0.6841 -1.1335 -1.9597
  892MOL0     H20363   6.184   3.053   0.166  2.8762  0.3212  2.4248
  892MOL0     H20364   6.233   3.127   0.012  0.5154  0.6385 -0.7432
  892MOL0     H20365   6.312   3.166   0.296  1.5094  1.0285  1.6348
  892MOL0     H20366   6.415   3.105   0.155  0.7408  2.2281 -3.5555
  892MOL0     H20367   6.353   3.405   0.191  0.2344  0.0917  1.5602
  892MOL0     H20368   6.441   3.306   0.068 -1.2462  1.4146 -0.2600
  892MOL0     H20369   6.583   3.229   0.281  1.8787  0.9969 -0.2565
  892MOL0     H20370   6.607   3.390   0.220  1.3867  0.1606  3.1268
  892MOL0     H20371   6.582   3.587   0.345 -4.2495  4.0008  2.1812
  892MOL0     H20372   6.652   3.650   0.624  0.7983 -0.5480  0.2285
  892MOL0     H20373   6.508   3.733   0.599  0.5455 -0.2744 -3.1191
  892MOL0     H20374   6.402   3.598   0.800 -1.0687  1.4011 -2.3577
  892MOL0     H20375   6.584   3.537   0.816  1.9504  1.4616 -1.2330
  892MOL0     H20376   6.447   3.769   0.914  0.2395  1.5151 -1.1134
  892MOL0     H20377   6.573   3.825   0.807 -1.5347  0.1219 -1.7306
  892MOL0     H20378   6.628   3.641   1.039  2.3315 -2.1873 -0.6172
  892MOL0     H20379   6.655   3.813   1.034  0.4916 -0.6370  1.9175
  892MOL0     H20380   6.855   3.884   1.105  1.0268  0.3431  0.5397
  892MOL0     H20381   7.049   3.862   1.219 -1.3929  2.4730 -1.8981
  892MOL0     H20382   7.409   3.429   1.280 -0.3167 -0.0492 -3.6359
  892MOL0     H20383   7.618   3.399   1.403 -0.6885 -0.3014 -0.5198
  892MOL0     H20384   7.797   3.441   1.569 -1.6050 -0.5386 -2.6528
  892MOL0     H20385   7.925   3.419   1.441  0.2811 -0.7987 -0.0147
  892MOL0     H20386   8.076   3.549   1.552  0.0028 -2.5331  1.1344
  892MOL0     H20387   7.964   3.664   1.606  0.1555  0.3297 -2.7483
  892MOL0     H20388   8.047   3.576   1.788 -1.0959 -0.5338  2.2583
  892MOL0     H20389   7.892   3.491   1.773  0.7867  2.5147  0.9934
  892MOL0     H20390   8.165   3.405   1.777  1.3787  1.0868 -1.7876
  892MOL0     H20391   8.098   3.324   1.642 -1.3117  0.0630 -0.1274
  892MOL0     H20392   7.974   3.289   1.924 -1.3477 -0.3444 -0.2839
  892MOL0     H20393   8.066   3.178   1.827  0.1590 -0.2392 -1.2661
  892MOL0     H20394   7.784   3.294   1.762 -2.1673 -1.6980  3.2066
  892MOL0     H20395   7.864   3.195   1.641 -0.5115  0.8611  0.0994
  892MOL0     H20396   7.840   3.058   1.893 -1.1791 -1.7232  1.2444
  892MOL0     H20397   7.849   3.001   1.743  3.2434 -0.0494  2.9162
  892MOL0     H20398   7.617   3.111   1.680 -0.8665 -1.0284 -0.2429
  892MOL0     H20399   7.610   2.999   1.801  1.7602 -1.5302 -1.7572
  892MOL0     H20400   7.770   3.776   1.275 -2.2311  2.2417 -0.4446
  892MOL0     H20401   7.554   3.809   1.151  1.6770 -0.7111 -0.6940
  892MOL0     H20402   7.197   3.567   0.951 -0.6569 -0.9428  3.0762
  892MOL0     H20403   6.968   3.570   0.828 -4.1943 -1.6594  2.1957
  892MOL0     H20404   6.109   3.723   0.312 -2.2561 -1.3305  0.2306
  892MOL0     H20405   6.328   3.775   0.206  0.0453 -1.1029  0.7585
  892MOL0     H20406   6.457   3.722  -0.309  0.4961  4.2470 -1.4189
  892MOL0     H20407   6.612   3.746  -0.468  2.6806  0.8274  0.0935
  892MOL0     H20408   6.971   3.709  -0.614 -0.1103 -0.2925  0.6065
  892MOL0     H20409   6.796   3.771  -0.603 -0.0371  2.0525  1.4246
  892MOL0     H20410   6.748   3.531  -0.508 -2.8983 -0.3174 -3.4331
  892MOL0     H20411   6.914   3.486  -0.560  0.5618  1.0054  1.9919
  892MOL0     H20412   6.885   3.581  -0.785  1.1453  0.6440  1.0716
  892MOL0     H20413   6.720   3.601  -0.752 -1.5985 -1.1425  4.0850
  892MOL0     H20414   6.837   3.328  -0.706 -0.0956 -0.7852  0.3012
  892MOL0     H20415   6.667   3.375  -0.719 -0.8830  0.3129 -1.4213
  892MOL0     H20416   6.793   3.285  -1.109  0.4886 -1.7495  0.3538
  892MOL0     H20417   6.934   3.726  -0.173  0.1322  0.9082 -0.1399
  892MOL0     H20418   6.749   3.626   0.112 -0.2000  0.4563 -0.8566
  892MOL0     H20419   6.889   3.704   0.058  0.0574 -1.4374  0.7071
  892MOL0     H20420   6.746   3.798   0.103  0.9299 -0.7356  1.0351
  893MOL0     O20421  10.340   3.398   2.781  0.3738  0.5689  0.4184
  893MOL0     C20422  10.307   3.283   2.742  0.4070 -1.1716  0.0148
  893MOL0     O20423  10.181   3.229   2.747  0.7663  0.5023 -0.0682
  893MOL0     C20424  10.086   3.315   2.810 -1.1009  0.2287  0.2893
  893MOL0     C20425  10.070   3.312   2.948 -0.9688  0.0383  0.2805
  893MOL0     C20426   9.975   3.390   3.009  0.5183 -0.5855 -0.0747
  893MOL0     C20427   9.881   3.458   2.933  0.3730  0.0456  0.6018
  893MOL0     O20428   9.787   3.527   3.008 -0.1585 -0.9300 -0.1840
  893MOL0     C20429   9.662   3.578   2.949 -0.7666  0.2613  0.0701
  893MOL0     C20430   9.589   3.671   3.048  0.5156 -0.5942 -0.7860
  893MOL0     C20431   9.670   3.787   3.096 -0.0377 -0.1512  0.0852
  893MOL0     C20432   9.610   3.889   3.184  1.2393 -0.6080 -0.1937
  893MOL0     C20433   9.467   3.958   3.157  0.4476 -0.9010 -1.2867
  893MOL0     C20434   9.344   3.865   3.186  0.6100  0.1993  0.4582
  893MOL0     C20435   9.258   3.842   3.061 -0.6632  0.0987 -0.3403
  893MOL0     C20436   9.163   3.721   3.089  0.7660 -0.4847  0.2265
  893MOL0     N20437   9.229   3.598   3.047  0.4202  0.8636 -1.2197
  893MOL0     C20438   9.296   3.515   3.135 -0.4437  0.2034  0.0173
  893MOL0     C20439   9.307   3.397   3.073  0.2218  0.9839 -0.7980
  893MOL0     C20440   9.341   3.262   3.142  0.3053 -0.5123 -0.6227
  893MOL0     C20441   9.491   3.239   3.180 -0.1521 -0.4441 -0.8421
  893MOL0     C20442   9.561   3.136   3.087  0.2120  0.2032 -0.0447
  893MOL0     C20443   9.563   3.183   2.937 -0.5460 -0.4015 -0.0774
  893MOL0     O20444   9.584   3.080   2.848  0.4260 -0.1240 -0.0549
  893MOL0     C20445   9.701   3.043   2.795  0.4886 -0.0153  0.4788
  893MOL0     C20446   9.700   2.989   2.671  0.4102 -0.1787 -0.0830
  893MOL0     C20447   9.816   2.927   2.622 -1.2682  0.3462  0.2350
  893MOL0     C20448   9.941   2.923   2.690  0.1596  0.6240 -0.6796
  893MOL0     C20449  10.053   2.843   2.649  0.2510  0.1898 -0.1965
  893MOL0     O20450  10.171   2.872   2.715  0.4122  0.6543 -1.2101
  893MOL0     C20451  10.261   2.794   2.662 -0.2992  0.3345  0.2182
  893MOL0     C20452  10.299   2.678   2.735 -0.7753  0.2672 -0.0796
  893MOL0     C20453  10.396   2.589   2.680 -0.2287 -0.6144 -0.0198
  893MOL0     C20454  10.467   2.626   2.563  0.5429 -0.3308  0.2587
  893MOL0     O20455  10.551   2.519   2.519 -0.5382 -0.4323 -0.2874
  893MOL0     C20456  10.619   2.538   2.388  0.4686 -0.0766 -0.1285
  893MOL0     C20457  10.723   2.430   2.348  0.4449  0.8781 -0.8300
  893MOL0     C20458  10.847   2.450   2.430  0.4279 -0.4048 -0.1545
  893MOL0     C20459  10.936   2.322   2.435  0.1355 -0.6027 -1.8468
  893MOL0     C20460  11.061   2.354   2.526 -0.3656  0.2886  0.6059
  893MOL0     C20461  11.157   2.235   2.510  0.0598  0.1102 -0.7551
  893MOL0     C20462  11.295   2.269   2.574  0.4897  0.1421  0.1092
  893MOL0     C20463  11.372   2.157   2.636  0.5205  0.6481 -0.1756
  893MOL0    Cl20464  11.423   2.072   2.488 -0.5507 -0.7350  0.6296
  893MOL0     C20465  10.435   2.747   2.489  0.7438  0.3157  0.6207
  893MOL0     C20466  10.330   2.824   2.541  0.4049 -0.2066 -0.2717
  893MOL0     O20467  10.034   2.752   2.567 -0.1913  0.4930  0.0664
  893MOL0     C20468   9.942   3.004   2.805  0.0260  0.0093 -0.0218
  893MOL0     C20469   9.825   3.064   2.860  0.6058  0.0363 -0.0520
  893MOL0     N20470   9.250   3.411   2.947 -0.7269 -0.6944 -0.6282
  893MOL0     N20471   9.222   3.535   2.926  1.1203  0.8621 -0.3457
  893MOL0     C20472   9.896   3.476   2.795  0.0270  0.6106 -0.3740
  893MOL0     C20473  10.006   3.405   2.733  0.2469  0.4341 -0.5870
  893MOL0     C20474  10.411   3.196   2.680  0.7074 -0.7905  0.1612
  893MOL0     C20475  10.434   3.077   2.747  0.0193 -0.0507 -0.5104
  893MOL0     C20476  10.551   3.007   2.734  0.2757  0.2502 -0.6813
  893MOL0     C20477  10.636   3.039   2.631 -0.7929  0.7602 -0.5240
  893MOL0     O20478  10.746   2.963   2.613 -0.1738  0.5544 -0.3477
  893MOL0     C20479  10.742   2.865   2.506 -0.5147  0.2376  0.4894
  893MOL0     C20480  10.882   2.826   2.462  0.5267  0.5704 -0.2488
  893MOL0     C20481  10.964   2.942   2.392  0.2598 -0.4574  0.3801
  893MOL0     C20482  11.117   2.930   2.417  0.0708  0.0776 -0.1704
  893MOL0     C20483  11.200   2.968   2.298  1.1668 -0.0462  1.1268
  893MOL0     C20484  11.253   3.004   2.190  0.1752 -0.4232 -0.2777
  893MOL0     C20485  10.605   3.153   2.546 -0.7093 -0.0115 -0.5454
  893MOL0     C20486  10.495   3.233   2.575 -0.0005  0.6723  1.0235
  893MOL0     C20487  10.450   3.352   2.490 -0.1237  1.0747 -0.8912
  893MOL0     H20488  10.137   3.236   2.987 -2.1201 -0.4926  1.2903
  893MOL0     H20489   9.966   3.399   3.116 -0.1582  2.5765 -0.3185
  893MOL0     H20490   9.691   3.648   2.871  1.2839 -1.7075 -1.0670
  893MOL0     H20491   9.594   3.503   2.908  0.1388  1.3523 -3.7603
  893MOL0     H20492   9.555   3.615   3.135 -1.3625 -4.1699 -3.5404
  893MOL0     H20493   9.508   3.715   2.989 -1.0844 -2.1487  0.1768
  893MOL0     H20494   9.702   3.853   3.014  0.6098 -0.0880  0.3820
  893MOL0     H20495   9.766   3.755   3.138 -0.2364  1.0283  1.5280
  893MOL0     H20496   9.589   3.860   3.287 -3.0636  0.2463 -0.6125
  893MOL0     H20497   9.679   3.974   3.185  3.2306 -2.1652  1.1449
  893MOL0     H20498   9.459   4.050   3.217 -0.2027 -2.0530  0.4846
  893MOL0     H20499   9.454   3.972   3.049  1.4198  0.3308 -1.2671
  893MOL0     H20500   9.382   3.765   3.210 -1.8673 -1.2571 -1.2947
  893MOL0     H20501   9.284   3.896   3.272  1.9308  1.7766  0.8684
  893MOL0     H20502   9.311   3.812   2.970 -2.0550 -4.5250  0.1020
  893MOL0     H20503   9.196   3.932   3.052  0.8958  1.8333  3.6052
  893MOL0     H20504   9.120   3.699   3.187 -1.3466 -0.4915 -0.6381
  893MOL0     H20505   9.070   3.738   3.033 -0.5148  0.6694  2.5328
  893MOL0     H20506   9.331   3.536   3.236 -1.9781  0.9317  0.4238
  893MOL0     H20507   9.288   3.268   3.237  1.1007  0.8226 -0.2325
  893MOL0     H20508   9.307   3.176   3.084 -1.3308 -0.4156  0.1381
  893MOL0     H20509   9.536   3.338   3.188 -1.4432  0.1873 -1.2639
  893MOL0     H20510   9.508   3.203   3.283  1.0216  0.8237 -0.5555
  893MOL0     H20511   9.523   3.034   3.094 -0.4849  0.2070 -2.6534
  893MOL0     H20512   9.658   3.136   3.139 -1.8135 -1.1390  4.2227
  893MOL0     H20513   9.646   3.251   2.916 -0.9822 -0.6127 -2.8301
  893MOL0     H20514   9.473   3.239   2.911  0.2806  0.7629 -0.5141
  893MOL0     H20515   9.604   2.970   2.624  0.4183  1.2991 -0.7643
  893MOL0     H20516   9.809   2.869   2.530  2.8028 -0.7600  0.4050
  893MOL0     H20517  10.257   2.661   2.834  1.9506  0.8137  1.2741
  893MOL0     H20518  10.424   2.493   2.721 -0.2379 -0.3677  0.5838
  893MOL0     H20519  10.543   2.541   2.309  0.3907  0.0714 -0.0494
  893MOL0     H20520  10.672   2.633   2.380 -0.7545  0.9026  2.2780
  893MOL0     H20521  10.674   2.338   2.380  1.9608  0.2718 -0.1368
  893MOL0     H20522  10.739   2.433   2.240 -1.5391  1.0601 -1.1447
  893MOL0     H20523  10.903   2.531   2.382 -0.6407  0.1221 -0.5410
  893MOL0     H20524  10.825   2.486   2.531 -0.4004  0.6664 -0.7015
  893MOL0     H20525  10.972   2.300   2.335 -0.1921 -1.3417 -1.8025
  893MOL0     H20526  10.878   2.234   2.466  1.5389 -0.4545  1.7466
  893MOL0     H20527  11.037   2.368   2.632  0.4420  0.3665  0.7827
  893MOL0     H20528  11.115   2.446   2.501 -0.2940  0.8328  2.6114
  893MOL0     H20529  11.122   2.148   2.566  2.3134 -0.2592  0.1817
  893MOL0     H20530  11.159   2.218   2.402  1.0044  2.7044 -1.2186
  893MOL0     H20531  11.272   2.343   2.651 -3.9290 -3.6494  2.9562
  893MOL0     H20532  11.362   2.314   2.499 -0.0833 -2.1631 -1.9290
  893MOL0     H20533  11.461   2.199   2.683 -0.4951  4.0203 -0.9232
  893MOL0     H20534  11.313   2.104   2.711  1.9950  3.3608  3.1423
  893MOL0     H20535  10.489   2.777   2.399 -0.1194 -0.8517 -0.3279
  893MOL0     H20536  10.319   2.915   2.483 -1.7072  1.2411  2.1587
  893MOL0     H20537  10.037   3.024   2.853  0.6737  0.8793 -1.5974
  893MOL0     H20538   9.821   3.116   2.955  1.3183 -2.7747  1.6122
  893MOL0     H20539   9.842   3.540   2.727  0.8434  0.5710 -1.0685
  893MOL0     H20540  10.014   3.414   2.625  0.6463 -1.4850 -0.7384
  893MOL0     H20541  10.356   3.048   2.816 -3.3191  1.8449 -3.1880
  893MOL0     H20542  10.566   2.911   2.783  0.9886 -1.2691 -3.6560
  893MOL0     H20543  10.694   2.908   2.417  1.6625  3.4060  0.6800
  893MOL0     H20544  10.701   2.768   2.536  0.4077 -0.1092  0.6718
  893MOL0     H20545  10.885   2.740   2.394 -1.0027  1.4740 -1.5291
  893MOL0     H20546  10.932   2.786   2.551 -3.2963 -0.8628  1.4435
  893MOL0     H20547  10.927   3.029   2.446  1.7681 -2.1769  4.6453
  893MOL0     H20548  10.946   2.944   2.284  1.8331 -1.6072  0.0407
  893MOL0     H20549  11.160   2.978   2.506  2.9332 -2.8939  0.2387
  893MOL0     H20550  11.130   2.823   2.432 -0.1615 -0.3756 -2.8190
  893MOL0     H20551  11.276   3.035   2.090 -0.6159 -1.1145 -0.6828
  893MOL0     H20552  10.670   3.180   2.463 -1.5602  2.7695 -0.4260
  893MOL0     H20553  10.461   3.439   2.555  2.8845 -0.0443  0.2696
  893MOL0     H20554  10.515   3.363   2.402  0.8090 -2.5220 -0.7768
  893MOL0     H20555  10.345   3.334   2.464 -0.3022 -0.4644  0.7419
  894MOL0     O20556   5.356   1.424   0.699  0.0071 -0.1350 -0.4564
  894MOL0     C20557   5.238   1.455   0.688 -0.3592  0.6098  0.7691
  894MOL0     O20558   5.182   1.574   0.651 -0.0266 -0.3048  1.3245
  894MOL0     C20559   5.260   1.673   0.585  0.3578  0.1223 -0.3130
  894MOL0     C20560   5.200   1.755   0.491  0.4448 -0.0813  0.9180
  894MOL0     C20561   5.272   1.854   0.419 -0.5691 -0.1468 -0.8575
  894MOL0     C20562   5.406   1.882   0.439 -0.3512  0.4460  0.0732
  894MOL0     O20563   5.467   1.996   0.388 -0.4866  0.4381  0.0197
  894MOL0     C20564   5.528   2.074   0.488  1.2158  0.5813 -0.7494
  894MOL0     C20565   5.597   2.195   0.423  0.3785 -0.5482  0.5770
  894MOL0     C20566   5.496   2.276   0.329 -0.5604  0.4109 -0.5497
  894MOL0     C20567   5.489   2.245   0.182  0.3632  0.0818  0.2947
  894MOL0     C20568   5.378   2.333   0.127 -0.4574 -1.3330 -0.2616
  894MOL0     C20569   5.353   2.319  -0.024  0.2511 -0.4897  0.6259
  894MOL0     C20570   5.194   2.315  -0.050 -0.2207 -0.0471  0.6564
  894MOL0     C20571   5.144   2.341  -0.201  0.3668 -0.8443 -0.0062
  894MOL0     N20572   5.187   2.483  -0.227  0.1762 -0.2352 -0.6383
  894MOL0     C20573   5.096   2.590  -0.227 -0.3326  0.1654 -0.8165
  894MOL0     C20574   5.161   2.698  -0.287 -0.1411  0.6120 -0.3348
  894MOL0     C20575   5.092   2.837  -0.308 -0.7752 -0.1818 -0.7391
  894MOL0     C20576   5.182   2.959  -0.295 -0.3695 -0.2488 -0.2153
  894MOL0     C20577   5.101   3.069  -0.222 -0.1372 -0.4158  0.2260
  894MOL0     C20578   5.175   3.203  -0.198 -0.0094 -0.0109  0.0933
  894MOL0     O20579   5.074   3.272  -0.115 -1.1173 -0.4161 -0.2773
  894MOL0     C20580   4.997   3.367  -0.155  0.1360  0.8581 -0.0556
  894MOL0     C20581   4.989   3.418  -0.285 -0.0912 -0.2398 -0.5127
  894MOL0     C20582   4.896   3.518  -0.302 -0.4205  0.1808 -1.0750
  894MOL0     C20583   4.796   3.559  -0.206 -0.0559  0.6587 -1.3069
  894MOL0     C20584   4.707   3.663  -0.232  0.2581  0.0316 -0.5593
  894MOL0     O20585   4.631   3.713  -0.121 -0.2532  0.1170  0.2573
  894MOL0     C20586   4.556   3.828  -0.150  0.2989  0.4801  0.2420
  894MOL0     C20587   4.421   3.822  -0.162  0.7633 -0.9514 -0.5523
  894MOL0     C20588   4.334   3.919  -0.208  0.0564  0.0421 -0.0725
  894MOL0     C20589   4.395   4.037  -0.255 -0.5700 -0.1284 -0.1375
  894MOL0     O20590   4.320   4.143  -0.316  0.5065  0.9770 -0.4293
  894MOL0     C20591   4.179   4.118  -0.325  0.0038  0.2620  0.0261
  894MOL0     C20592   4.117   4.253  -0.378  0.2768  0.4333  0.0046
  894MOL0     C20593   3.959   4.248  -0.355 -0.5944  0.1993  1.0125
  894MOL0     C20594   3.889   4.276  -0.500  0.5182 -0.2975 -0.2849
  894MOL0     C20595   3.745   4.308  -0.476  0.9290  0.3149  0.4066
  894MOL0     C20596   3.656   4.305  -0.611 -0.3828  0.7971 -0.6966
  894MOL0     C20597   3.527   4.376  -0.591  0.1861  0.1417  0.4188
  894MOL0     C20598   3.422   4.302  -0.505 -0.9606  0.6919  0.0125
  894MOL0    Cl20599   3.358   4.171  -0.604  0.4444  0.0093 -0.3737
  894MOL0     C20600   4.538   4.051  -0.240  0.8109 -0.0915  0.3503
  894MOL0     C20601   4.610   3.945  -0.186  0.2358  0.5781  0.9540
  894MOL0     O20602   4.695   3.711  -0.348  0.2159 -0.4137 -0.2039
  894MOL0     C20603   4.810   3.499  -0.082 -0.2511 -0.0663 -1.5232
  894MOL0     C20604   4.903   3.407  -0.059  0.1626 -0.3313 -0.4447
  894MOL0     N20605   5.288   2.660  -0.319 -0.1740  1.0074  0.1445
  894MOL0     N20606   5.304   2.538  -0.273 -0.0652  0.2885  0.1710
  894MOL0     C20607   5.465   1.798   0.538  0.0218  0.4614 -0.3088
  894MOL0     C20608   5.400   1.703   0.608  0.3131  0.6920  0.0946
  894MOL0     C20609   5.138   1.345   0.703 -0.6897  0.0845 -0.0969
  894MOL0     C20610   5.164   1.242   0.794  1.4108  0.3699 -0.5619
  894MOL0     C20611   5.082   1.128   0.805  0.0684 -0.8801 -0.6038
  894MOL0     C20612   4.964   1.129   0.721  0.1995  0.0137  0.2279
  894MOL0     O20613   4.868   1.027   0.728  0.1901  0.3342  0.1909
  894MOL0     C20614   4.868   0.935   0.839 -0.8963  0.1789  0.6246
  894MOL0     C20615   4.729   0.868   0.837 -0.6005  0.1621  0.0091
  894MOL0     C20616   4.708   0.759   0.938  1.5047 -0.7819  0.6303
  894MOL0     C20617   4.563   0.735   0.972 -0.0315  0.6925 -0.1962
  894MOL0     C20618   4.474   0.693   0.865  0.9394  1.1914 -0.6836
  894MOL0     C20619   4.432   0.644   0.764 -1.0167 -1.0329 -0.1212
  894MOL0     C20620   4.943   1.226   0.626 -0.0751 -0.3721  0.3570
  894MOL0     C20621   5.027   1.333   0.613  0.2605  0.0004 -0.1785
  894MOL0     C20622   5.012   1.426   0.492  0.6420  0.5598 -0.9652
  894MOL0     H20623   5.103   1.723   0.456  0.1072  0.0739  1.6957
  894MOL0     H20624   5.221   1.920   0.349 -1.2437 -0.4990 -0.7000
  894MOL0     H20625   5.441   2.106   0.545 -1.5428 -2.0369 -3.1433
  894MOL0     H20626   5.606   2.023   0.545  1.6371  1.3053 -0.6645
  894MOL0     H20627   5.683   2.171   0.360 -2.1815  0.9894 -3.9792
  894MOL0     H20628   5.638   2.256   0.503  0.0225  0.2042  0.1930
  894MOL0     H20629   5.524   2.379   0.349  0.7871 -0.4958  2.9217
  894MOL0     H20630   5.399   2.251   0.373  0.4572 -1.1286  0.9420
  894MOL0     H20631   5.589   2.241   0.137  0.5208 -1.1933  0.7009
  894MOL0     H20632   5.445   2.146   0.165  0.4917  0.3000 -1.5116
  894MOL0     H20633   5.287   2.312   0.185 -0.2372  3.0647  2.1053
  894MOL0     H20634   5.398   2.440   0.142  3.2923 -1.4092 -3.3210
  894MOL0     H20635   5.390   2.407  -0.077 -2.6620  1.0963  1.0267
  894MOL0     H20636   5.406   2.234  -0.068  0.6874  0.9274 -1.7594
  894MOL0     H20637   5.161   2.400   0.010  0.9155 -1.6413  3.7973
  894MOL0     H20638   5.144   2.227  -0.007  2.8158 -1.9278  0.6848
  894MOL0     H20639   5.195   2.266  -0.263 -0.1001 -2.1229  1.1203
  894MOL0     H20640   5.037   2.322  -0.212 -0.7962  2.4846  3.4305
  894MOL0     H20641   4.991   2.575  -0.207 -0.2514  0.6227 -0.0130
  894MOL0     H20642   5.044   2.839  -0.406 -2.7785  0.9364  0.2005
  894MOL0     H20643   5.028   2.849  -0.220 -1.0118  1.4206 -1.1149
  894MOL0     H20644   5.264   2.928  -0.229  1.0409  0.8330 -1.3932
  894MOL0     H20645   5.208   2.998  -0.394 -1.6214 -1.2718 -0.9789
  894MOL0     H20646   5.073   3.042  -0.120 -2.1846  2.5743  0.5844
  894MOL0     H20647   5.021   3.095  -0.291  1.9838  0.6462 -1.9769
  894MOL0     H20648   5.203   3.251  -0.292 -1.1658  0.7419  0.1249
  894MOL0     H20649   5.263   3.176  -0.139 -0.5695  0.3141  1.0829
  894MOL0     H20650   5.057   3.377  -0.360 -0.9505  1.1109 -2.0917
  894MOL0     H20651   4.907   3.569  -0.397 -0.7025  2.0275 -0.1606
  894MOL0     H20652   4.372   3.727  -0.143  0.0912 -1.0045 -2.4065
  894MOL0     H20653   4.228   3.896  -0.205 -1.3663  5.3587  1.2598
  894MOL0     H20654   4.162   4.043  -0.403  1.1295  1.3119 -1.2867
  894MOL0     H20655   4.125   4.099  -0.232  0.6126 -2.2635 -0.0793
  894MOL0     H20656   4.168   4.341  -0.336  0.1051  2.5567 -3.7359
  894MOL0     H20657   4.132   4.251  -0.486 -1.5544  0.7040 -0.2905
  894MOL0     H20658   3.924   4.151  -0.318 -0.2085 -1.1850 -1.9109
  894MOL0     H20659   3.920   4.327  -0.291 -0.8251  1.7034 -0.8959
  894MOL0     H20660   3.900   4.194  -0.572 -2.3550  1.0005 -2.3880
  894MOL0     H20661   3.940   4.363  -0.545 -1.0536  1.2144  0.7406
  894MOL0     H20662   3.741   4.404  -0.423 -0.7142 -0.1947  1.2715
  894MOL0     H20663   3.714   4.239  -0.398  1.4242  0.5631  0.8354
  894MOL0     H20664   3.702   4.359  -0.694 -0.1429 -0.3113 -1.2929
  894MOL0     H20665   3.650   4.200  -0.637  0.7765  0.7248 -0.7223
  894MOL0     H20666   3.481   4.396  -0.688 -2.8026  0.8170  1.8618
  894MOL0     H20667   3.541   4.477  -0.549 -0.3598  0.6143 -0.5129
  894MOL0     H20668   3.457   4.272  -0.405  0.8916 -2.0753 -1.3216
  894MOL0     H20669   3.338   4.371  -0.494  0.8109  3.0581 -0.5590
  894MOL0     H20670   4.585   4.141  -0.278  1.3818  0.2299  1.7466
  894MOL0     H20671   4.717   3.948  -0.167  0.1597  0.2378  1.4531
  894MOL0     H20672   4.743   3.508   0.003  2.0271 -2.5843  0.7339
  894MOL0     H20673   4.922   3.363   0.039  3.8529 -1.2746 -1.4147
  894MOL0     H20674   5.570   1.814   0.561  0.4006 -0.2702 -1.4366
  894MOL0     H20675   5.471   1.647   0.669  1.8754  1.9909 -0.4704
  894MOL0     H20676   5.254   1.238   0.855  1.5046 -1.4005 -0.7637
  894MOL0     H20677   5.110   1.040   0.862 -0.6975 -2.8655 -3.1332
  894MOL0     H20678   4.884   1.002   0.923 -1.1808  0.2725  0.6052
  894MOL0     H20679   4.959   0.873   0.840  2.2080  4.0955 -3.0570
  894MOL0     H20680   4.707   0.825   0.738 -3.2581 -0.5775  0.8466
  894MOL0     H20681   4.658   0.950   0.855  0.4771  0.6643  2.1876
  894MOL0     H20682   4.769   0.783   1.026  1.5727 -1.9641  0.9300
  894MOL0     H20683   4.742   0.663   0.897 -1.4348  0.1949 -5.1161
  894MOL0     H20684   4.559   0.662   1.053  1.0297 -1.2909 -1.8513
  894MOL0     H20685   4.514   0.819   1.024 -2.2670  0.8394 -2.3798
  894MOL0     H20686   4.401   0.600   0.671  0.1815 -1.9092 -0.1257
  894MOL0     H20687   4.857   1.213   0.561 -0.6739  2.6208  0.3732
  894MOL0     H20688   4.947   1.376   0.419 -0.6086  2.0251 -0.9114
  894MOL0     H20689   4.954   1.511   0.529 -1.4510 -1.7102  1.3635
  894MOL0     H20690   5.107   1.446   0.442  0.3776  0.1651 -1.6489
  895MOL0     O20691   6.940   2.704   1.603 -0.8938 -1.1060  0.5372
  895MOL0     C20692   6.947   2.818   1.555 -0.1669 -0.0793 -0.2617
  895MOL0     O20693   6.952   2.936   1.632 -0.8193  0.1136 -0.4669
  895MOL0     C20694   6.906   2.930   1.757  0.1899 -0.5990  0.5180
  895MOL0     C20695   6.989   2.987   1.856 -0.4348  0.7927  0.2623
  895MOL0     C20696   6.948   2.990   1.988  0.3909 -0.4352 -0.0045
  895MOL0     C20697   6.830   2.928   2.031  0.1444 -0.8209 -0.0669
  895MOL0     O20698   6.786   2.909   2.161 -0.1383  0.9226  0.3911
  895MOL0     C20699   6.868   2.964   2.261  0.1056 -0.1120  0.3891
  895MOL0     C20700   6.810   2.938   2.401 -0.2096 -0.7502  0.4447
  895MOL0     C20701   6.859   3.034   2.510 -0.5052 -1.1291  0.7178
  895MOL0     C20702   7.015   3.062   2.500 -0.5343 -0.7360  0.0301
  895MOL0     C20703   7.073   3.084   2.642  0.2803  1.0760  0.5194
  895MOL0     C20704   7.014   3.205   2.716 -0.5620 -1.0969  0.5669
  895MOL0     C20705   7.040   3.213   2.866 -0.4687 -0.4174 -0.2146
  895MOL0     C20706   7.183   3.194   2.905  0.3208  0.7741  0.7015
  895MOL0     N20707   7.266   3.295   2.835  0.3823  0.3702 -0.2962
  895MOL0     C20708   7.289   3.430   2.880  0.4595 -0.1430  0.2673
  895MOL0     C20709   7.380   3.479   2.796 -0.8623  0.7848  0.8835
  895MOL0     C20710   7.431   3.619   2.809  0.8430 -0.9621  0.5229
  895MOL0     C20711   7.346   3.723   2.740 -0.3686 -0.3561  0.5370
  895MOL0     C20712   7.406   3.869   2.751 -0.0116 -0.2971  1.5389
  895MOL0     C20713   7.453   3.941   2.882  0.0861  0.1557 -0.7461
  895MOL0     O20714   7.337   3.945   2.971 -0.2556 -0.6312 -0.0611
  895MOL0     C20715   7.351   3.999   3.094 -1.2394  0.5755  0.0833
  895MOL0     C20716   7.456   4.064   3.148  0.0594  0.3095  0.3447
  895MOL0     C20717   7.466   4.095   3.287 -1.2805 -1.2201  0.4143
  895MOL0     C20718   7.361   4.066   3.373 -1.2143  0.4706  1.0958
  895MOL0     C20719   7.372   4.107   3.517 -0.1129 -0.1790  0.5736
  895MOL0     O20720   7.260   4.088   3.585  0.5995 -0.2100  0.2642
  895MOL0     C20721   7.246   4.131   3.718 -0.8107  0.5595  0.7410
  895MOL0     C20722   7.134   4.197   3.753  0.5893  0.3401 -0.5754
  895MOL0     C20723   7.119   4.237   3.892  0.4015  0.2471  0.3373
  895MOL0     C20724   7.196   4.172   3.986  0.3086 -0.8746  0.2668
  895MOL0     O20725   7.172   4.182   4.123  0.3122 -0.3733 -0.1120
  895MOL0     C20726   7.049   4.246   4.166 -0.0001  0.3430 -0.8154
  895MOL0     C20727   7.030   4.204   4.306 -0.1564  0.0743  0.3549
  895MOL0     C20728   7.010   4.057   4.323  0.6775 -0.6152  1.6155
  895MOL0     C20729   7.010   4.010   4.470  0.8564 -0.0972 -0.9714
  895MOL0     C20730   7.158   3.988   4.523 -0.6262  0.0959 -0.3005
  895MOL0     C20731   7.147   3.913   4.662 -0.8757 -1.1199 -1.0287
  895MOL0     C20732   7.269   3.833   4.703 -0.1453 -0.2123  0.6441
  895MOL0     C20733   7.277   3.698   4.630 -0.4091  0.8505 -1.0184
  895MOL0    Cl20734   7.138   3.595   4.704  0.1302 -0.5073  0.0414
  895MOL0     C20735   7.300   4.089   3.950 -0.1057  0.4508  0.3467
  895MOL0     C20736   7.328   4.078   3.814 -0.5050  0.0912 -0.6086
  895MOL0     O20737   7.478   4.158   3.562  0.3998 -1.0442 -0.4589
  895MOL0     C20738   7.246   3.996   3.321  0.0476 -0.6012  0.1993
  895MOL0     C20739   7.251   3.960   3.188 -0.2186 -0.4594  0.7255
  895MOL0     N20740   7.408   3.382   2.693  1.0234  0.0308 -0.3965
  895MOL0     N20741   7.338   3.277   2.722 -0.2268  0.0428  0.1923
  895MOL0     C20742   6.751   2.880   1.930 -0.2718  0.2729  0.0512
  895MOL0     C20743   6.784   2.883   1.794  0.0986  0.4155  0.3909
  895MOL0     C20744   6.976   2.834   1.413 -0.2377  0.8713  0.5956
  895MOL0     C20745   6.929   2.945   1.349  0.1556 -0.2197  0.2021
  895MOL0     C20746   6.933   2.958   1.210 -0.1344 -0.2539  0.0819
  895MOL0     C20747   6.996   2.859   1.137 -0.3363 -0.3540 -0.4960
  895MOL0     O20748   7.005   2.860   0.997  1.1349 -0.0160 -0.0913
  895MOL0     C20749   6.880   2.808   0.935 -0.2440 -0.0803 -0.2380
  895MOL0     C20750   6.896   2.656   0.934  0.2753  0.8975  1.0829
  895MOL0     C20751   6.765   2.591   0.907 -0.5957  0.6399  0.3758
  895MOL0     C20752   6.795   2.438   0.912 -0.1006  1.1005  0.4674
  895MOL0     C20753   6.677   2.352   0.890  0.8813 -0.4217  0.3252
  895MOL0     C20754   6.574   2.292   0.860  0.5068 -0.4322 -0.5443
  895MOL0     C20755   7.056   2.759   1.198  0.0068 -0.6657  0.4289
  895MOL0     C20756   7.059   2.742   1.340 -1.0015 -0.9261 -0.4409
  895MOL0     C20757   7.142   2.628   1.398  0.0870  0.2725 -0.0293
  895MOL0     H20758   7.089   3.021   1.833  0.2843 -1.3601  0.0098
  895MOL0     H20759   7.013   3.028   2.067  0.4544 -4.2417  2.0077
  895MOL0     H20760   6.969   2.920   2.258  0.5797  0.9685 -1.7562
  895MOL0     H20761   6.881   3.069   2.233  0.0370 -0.4971 -1.2053
  895MOL0     H20762   6.849   2.840   2.431 -0.9087 -1.0719  0.3329
  895MOL0     H20763   6.701   2.940   2.394 -0.1718  1.4015 -0.0745
  895MOL0     H20764   6.845   2.990   2.610 -3.8606  0.9988  1.3382
  895MOL0     H20765   6.801   3.126   2.495  0.6649 -0.6811 -1.4265
  895MOL0     H20766   7.052   2.970   2.456 -3.7531 -2.4854  0.6586
  895MOL0     H20767   7.042   3.142   2.430  0.3263 -1.2611 -0.2442
  895MOL0     H20768   7.039   3.000   2.703 -1.6816  1.2726 -0.2313
  895MOL0     H20769   7.182   3.085   2.644  0.3348 -0.1375 -0.7916
  895MOL0     H20770   7.041   3.297   2.664 -0.2754 -2.5318 -1.9831
  895MOL0     H20771   6.905   3.220   2.709 -0.1568  5.1324  1.6404
  895MOL0     H20772   6.980   3.140   2.921  0.8494 -2.6999 -1.6125
  895MOL0     H20773   7.000   3.307   2.905  0.0398 -0.7146  1.0866
  895MOL0     H20774   7.178   3.202   3.014  1.6786 -2.3758  1.0986
  895MOL0     H20775   7.215   3.094   2.876  3.3247  1.3746  1.5302
  895MOL0     H20776   7.241   3.486   2.960  2.6583  0.1396  1.4720
  895MOL0     H20777   7.444   3.660   2.910  0.1887  3.4863 -0.9688
  895MOL0     H20778   7.533   3.620   2.769  0.5329 -1.2980 -0.3070
  895MOL0     H20779   7.338   3.712   2.631  0.8775  1.7088  0.1766
  895MOL0     H20780   7.247   3.734   2.786 -0.6012  1.5351 -0.3359
  895MOL0     H20781   7.327   3.936   2.713  1.4877  2.1684  2.5232
  895MOL0     H20782   7.473   3.884   2.667 -2.1944 -0.5079 -0.3524
  895MOL0     H20783   7.490   4.040   2.855 -0.2353  0.3146 -0.6029
  895MOL0     H20784   7.538   3.882   2.917 -0.6501 -0.6375 -0.2484
  895MOL0     H20785   7.549   4.084   3.095  1.4201 -0.9401  2.1312
  895MOL0     H20786   7.549   4.159   3.317 -1.1606  0.2776 -2.7412
  895MOL0     H20787   7.071   4.220   3.667 -2.0025  0.5528  1.2445
  895MOL0     H20788   7.037   4.306   3.908 -0.3547 -0.2571 -1.1468
  895MOL0     H20789   7.060   4.355   4.167 -3.2255  0.7510 -0.6631
  895MOL0     H20790   6.969   4.211   4.101  1.0762 -2.7658 -0.6067
  895MOL0     H20791   7.115   4.236   4.367  0.2659 -0.4840  0.0631
  895MOL0     H20792   6.939   4.248   4.348 -0.0437  0.0449  0.6317
  895MOL0     H20793   6.909   4.029   4.295 -0.1065  0.9111  2.7753
  895MOL0     H20794   7.077   4.001   4.257  1.4825 -0.3747  2.2035
  895MOL0     H20795   6.956   3.915   4.471 -1.9247  1.2809  2.8094
  895MOL0     H20796   6.964   4.080   4.540  0.5354  2.5907 -3.6314
  895MOL0     H20797   7.191   4.092   4.530 -0.9598  0.0895  1.8989
  895MOL0     H20798   7.218   3.925   4.456 -0.6581  2.8889 -3.1706
  895MOL0     H20799   7.133   3.988   4.740  1.2021  0.9453 -2.5013
  895MOL0     H20800   7.058   3.849   4.667 -0.5172 -1.6257 -0.9885
  895MOL0     H20801   7.267   3.823   4.812  1.5540  1.6799  0.9009
  895MOL0     H20802   7.359   3.893   4.689  0.4163 -1.5400 -1.8614
  895MOL0     H20803   7.270   3.712   4.522 -0.2538 -2.0794 -1.4886
  895MOL0     H20804   7.362   3.635   4.655 -2.3189 -1.9357 -1.0038
  895MOL0     H20805   7.372   4.049   4.021 -1.9657 -2.1634  0.8769
  895MOL0     H20806   7.412   4.020   3.777  1.5611  1.2714  1.9474
  895MOL0     H20807   7.163   3.961   3.382  0.3988 -2.2857 -0.2430
  895MOL0     H20808   7.172   3.894   3.151  0.0264 -1.2100  1.5140
  895MOL0     H20809   6.658   2.834   1.960  0.4621 -0.3342  1.4763
  895MOL0     H20810   6.711   2.849   1.721 -0.0026 -1.0622  1.1389
  895MOL0     H20811   6.874   3.019   1.406  1.4456  2.1930 -1.5173
  895MOL0     H20812   6.878   3.039   1.163 -1.7865 -0.6806  1.2328
  895MOL0     H20813   6.886   2.851   0.835 -1.8847  1.3138  0.2211
  895MOL0     H20814   6.794   2.852   0.985  0.9950 -0.0363  2.0041
  895MOL0     H20815   6.921   2.630   1.037 -3.3593  2.5595  2.5631
  895MOL0     H20816   6.975   2.634   0.863 -0.0638 -0.2217  1.0275
  895MOL0     H20817   6.723   2.632   0.814 -2.2137  0.5222  1.0298
  895MOL0     H20818   6.691   2.617   0.982 -0.4827  2.6849 -0.1836
  895MOL0     H20819   6.869   2.416   0.834 -2.2557 -0.0024 -1.3645
  895MOL0     H20820   6.847   2.400   1.001  0.6301  1.4794  0.2096
  895MOL0     H20821   6.479   2.243   0.858  0.8667 -1.2970  1.2094
  895MOL0     H20822   7.099   2.694   1.123 -0.4187 -0.2963 -0.1377
  895MOL0     H20823   7.174   2.646   1.500  0.5511  2.2192 -0.4811
  895MOL0     H20824   7.077   2.540   1.398 -1.0049  0.9445  3.1442
  895MOL0     H20825   7.231   2.618   1.334  2.1697  0.8351  2.6339
  896MOL0     O20826  10.721   7.670  10.506 -0.7598 -1.0314  0.3152
  896MOL0     C20827  10.699   7.727  10.618 -0.3937  0.1536  0.8539
  896MOL0     O20828  10.750   7.845  10.658  0.3630  0.0001 -0.0111
  896MOL0     C20829  10.820   7.925  10.584  0.4045  0.0113  1.0937
  896MOL0     C20830  10.782   8.052  10.577 -0.7391 -0.5376  0.2777
  896MOL0     C20831  10.847   8.146  10.488 -0.1398  1.1752  0.2899
  896MOL0     C20832  10.949   8.101  10.405 -0.1699 -0.2203 -0.2151
  896MOL0     O20833  11.020   8.189  10.332 -0.4075  0.4680 -0.3638
  896MOL0     C20834  10.975   8.229  10.198  0.0310  0.5977 -0.5628
  896MOL0     C20835  11.037   8.361  10.161 -0.3102 -0.3081  0.6611
  896MOL0     C20836  11.029   8.474  10.276  1.4100  1.1599  0.0263
  896MOL0     C20837  10.880   8.518  10.293  0.2283 -0.1374  0.0616
  896MOL0     C20838  10.845   8.641  10.379 -0.5159 -0.2000  0.5451
  896MOL0     C20839  10.900   8.767  10.296  0.4501  0.3590  0.1639
  896MOL0     C20840  10.888   8.877  10.403  0.2612  0.2963 -0.6927
  896MOL0     C20841  10.928   9.012  10.342  0.7528 -0.3594  0.1115
  896MOL0     N20842  11.069   9.020  10.315 -0.6267  1.2311  0.5750
  896MOL0     C20843  11.161   8.987  10.411  0.2263 -0.3995 -0.2729
  896MOL0     C20844  11.275   8.960  10.346 -0.5702  1.2586 -0.1800
  896MOL0     C20845  11.398   8.914  10.421 -0.0680  0.7450 -0.2662
  896MOL0     C20846  11.369   8.793  10.514 -0.1024 -0.0605  0.5065
  896MOL0     C20847  11.293   8.673  10.457 -0.5758 -0.2931  0.3341
  896MOL0     C20848  11.382   8.603  10.353  0.0271 -0.0402  0.4031
  896MOL0     O20849  11.495   8.537  10.407  0.8941 -1.4864  0.3750
  896MOL0     C20850  11.488   8.401  10.401 -0.6226 -0.1478 -0.5233
  896MOL0     C20851  11.550   8.331  10.303 -0.0607  0.4747 -0.3889
  896MOL0     C20852  11.553   8.187  10.298  0.8785  0.5782 -0.5688
  896MOL0     C20853  11.476   8.116  10.397  0.2578 -0.4026  0.5043
  896MOL0     C20854  11.449   7.968  10.414  0.2811 -0.1976  0.0865
  896MOL0     O20855  11.362   7.932  10.519  0.0295  0.3655  0.1157
  896MOL0     C20856  11.330   7.801  10.552  0.0941  0.5868  0.1057
  896MOL0     C20857  11.279   7.724  10.452  0.6609 -0.9112  0.4425
  896MOL0     C20858  11.235   7.590  10.483  0.1256 -1.1528  0.2890
  896MOL0     C20859  11.257   7.536  10.612 -1.1223 -0.8507  0.0253
  896MOL0     O20860  11.261   7.405  10.644 -0.5653  0.6231 -0.1734
  896MOL0     C20861  11.216   7.305  10.550  0.2043 -0.5325 -0.2141
  896MOL0     C20862  11.241   7.164  10.597 -0.7454  0.3543  0.6463
  896MOL0     C20863  11.390   7.127  10.633  0.1236  0.1627  0.1939
  896MOL0     C20864  11.385   6.970  10.666 -0.5496  0.8684 -0.2086
  896MOL0     C20865  11.523   6.928  10.697 -0.2580  1.1586  0.5671
  896MOL0     C20866  11.523   6.777  10.736  0.6359  0.3755  1.0858
  896MOL0     C20867  11.669   6.739  10.784 -0.1273  0.1084  0.3110
  896MOL0     C20868  11.746   6.642  10.694 -0.1752 -0.6156  0.5742
  896MOL0    Cl20869  11.886   6.572  10.771  0.0921  0.1740 -0.3525
  896MOL0     C20870  11.322   7.621  10.707  1.4340  0.0966  0.5377
  896MOL0     C20871  11.350   7.755  10.684  0.9192  0.2675 -0.9284
  896MOL0     O20872  11.519   7.889  10.350  0.7925  0.9303  0.5130
  896MOL0     C20873  11.429   8.199  10.503  0.1490 -0.1493 -0.6948
  896MOL0     C20874  11.434   8.339  10.507 -0.1400 -0.0083  0.1186
  896MOL0     N20875  11.257   8.975  10.209 -0.3561 -0.5033  0.2788
  896MOL0     N20876  11.130   9.005  10.189 -0.2956  0.5701 -0.1165
  896MOL0     C20877  10.986   7.968  10.412 -0.2414  0.2717  0.2535
  896MOL0     C20878  10.922   7.882  10.503  0.4180 -0.1913  0.1832
  896MOL0     C20879  10.592   7.663  10.697 -1.2976  0.6383  0.6266
  896MOL0     C20880  10.524   7.552  10.639 -0.1182  0.3419 -0.0652
  896MOL0     C20881  10.439   7.464  10.712 -0.3145 -0.8527  0.4465
  896MOL0     C20882  10.436   7.482  10.856 -0.0604 -0.2128  0.3434
  896MOL0     O20883  10.367   7.405  10.949 -0.1263  0.1246  0.0281
  896MOL0     C20884  10.251   7.329  10.898  0.2489  0.2492  0.3552
  896MOL0     C20885  10.162   7.297  11.020  0.8831 -0.2821  0.3310
  896MOL0     C20886  10.141   7.411  11.121 -0.6643  1.2473  0.0496
  896MOL0     C20887  10.089   7.549  11.074  1.6090 -0.2843  0.3231
  896MOL0     C20888   9.949   7.532  11.013  0.0971 -0.7794  0.0560
  896MOL0     C20889   9.839   7.504  10.969 -0.1905  0.4421 -0.1610
  896MOL0     C20890  10.495   7.591  10.908 -0.0258 -0.2394 -0.2153
  896MOL0     C20891  10.573   7.680  10.833  0.2945  0.3439 -0.1019
  896MOL0     C20892  10.607   7.801  10.903 -0.4711 -0.4761  0.3467
  896MOL0     H20893  10.704   8.089  10.643 -1.7025 -0.9558 -0.6021
  896MOL0     H20894  10.822   8.251  10.493 -2.1764  0.7638 -0.4638
  896MOL0     H20895  10.976   8.147  10.125 -0.5335  0.5950 -0.5736
  896MOL0     H20896  10.874   8.256  10.231  0.2710 -0.3792  1.0805
  896MOL0     H20897  10.994   8.395  10.066  2.7823  1.2439 -0.3148
  896MOL0     H20898  11.140   8.347  10.128  0.3512  2.2305  1.3982
  896MOL0     H20899  11.093   8.560  10.255  2.1821  0.7572  0.6966
  896MOL0     H20900  11.059   8.435  10.374  1.4389  0.1829 -0.3617
  896MOL0     H20901  10.850   8.531  10.188 -2.0579 -1.1131  0.5373
  896MOL0     H20902  10.822   8.436  10.335  0.5751 -1.1429 -1.3579
  896MOL0     H20903  10.739   8.650  10.403 -0.4679  1.8509  0.1800
  896MOL0     H20904  10.893   8.634  10.478 -0.3794  0.0706  0.4989
  896MOL0     H20905  11.005   8.767  10.267  0.3256  0.0071 -0.2825
  896MOL0     H20906  10.826   8.787  10.219  1.4758  3.0669 -0.2305
  896MOL0     H20907  10.950   8.857  10.490  0.3481  1.8661 -0.3672
  896MOL0     H20908  10.784   8.875  10.439  0.8452 -1.1935  1.0675
  896MOL0     H20909  10.880   9.016  10.244 -2.5626 -1.6711  1.5081
  896MOL0     H20910  10.902   9.095  10.408  2.8160  1.9449 -1.8018
  896MOL0     H20911  11.152   8.972  10.518 -0.9919 -2.0976 -0.5765
  896MOL0     H20912  11.472   8.871  10.351 -1.7431 -1.7324 -0.6560
  896MOL0     H20913  11.442   9.001  10.470 -1.1369  2.4346 -2.1554
  896MOL0     H20914  11.466   8.763  10.555 -0.5181 -0.5044  1.1867
  896MOL0     H20915  11.311   8.828  10.600  2.4315 -1.3606  2.9271
  896MOL0     H20916  11.200   8.710  10.412 -0.5333 -0.0413  0.4494
  896MOL0     H20917  11.279   8.601  10.538 -0.2722 -2.2128 -1.2348
  896MOL0     H20918  11.413   8.677  10.279  2.2202 -0.9456  0.3520
  896MOL0     H20919  11.324   8.527  10.302 -2.1295 -1.5032  4.5418
  896MOL0     H20920  11.604   8.383  10.224  2.4670 -1.8864 -0.3756
  896MOL0     H20921  11.610   8.129  10.226 -1.5137 -0.9736 -1.3425
  896MOL0     H20922  11.263   7.764  10.352 -1.9689 -2.6684  0.0282
  896MOL0     H20923  11.190   7.524  10.409  0.2441 -1.9672  0.9161
  896MOL0     H20924  11.106   7.310  10.551  0.1820 -0.7918  1.6288
  896MOL0     H20925  11.258   7.322  10.450 -0.2833 -1.3711 -0.5762
  896MOL0     H20926  11.179   7.127  10.679 -2.1669 -1.1153 -1.0321
  896MOL0     H20927  11.213   7.094  10.517  1.4380 -1.0806  1.0441
  896MOL0     H20928  11.462   7.146  10.553 -1.2257  1.5544 -0.7420
  896MOL0     H20929  11.413   7.186  10.723 -2.2752 -0.3504  1.1994
  896MOL0     H20930  11.339   6.915  10.583 -1.5066  1.4050 -0.0509
  896MOL0     H20931  11.332   6.955  10.761 -1.3399  0.0132 -0.7717
  896MOL0     H20932  11.568   6.980  10.781  0.7933 -0.1484  0.8330
  896MOL0     H20933  11.597   6.943  10.618  0.7145  1.1855  1.4745
  896MOL0     H20934  11.452   6.755  10.816  2.2988  0.9834  2.8016
  896MOL0     H20935  11.506   6.715  10.647  2.2589  1.3946 -0.0018
  896MOL0     H20936  11.659   6.692  10.883  2.3284 -1.3754 -0.0635
  896MOL0     H20937  11.737   6.824  10.793  0.1603 -0.0695 -0.1685
  896MOL0     H20938  11.687   6.556  10.658  2.6112 -2.3799 -0.0666
  896MOL0     H20939  11.771   6.711  10.613 -1.4874  0.9843  1.4604
  896MOL0     H20940  11.356   7.563  10.792  3.9866  0.0838 -0.3904
  896MOL0     H20941  11.406   7.808  10.762  1.1350 -0.8840 -0.2810
  896MOL0     H20942  11.387   8.142  10.584  1.8844 -0.1600  0.2568
  896MOL0     H20943  11.388   8.388  10.593 -0.4999 -0.0329 -0.0592
  896MOL0     H20944  11.063   7.932  10.344 -1.3777  2.1506 -2.1669
  896MOL0     H20945  10.955   7.779  10.493 -2.4294 -1.4158  2.0934
  896MOL0     H20946  10.524   7.539  10.532 -2.3557 -2.0937  0.1408
  896MOL0     H20947  10.381   7.393  10.655 -2.0186  1.9119 -1.5307
  896MOL0     H20948  10.287   7.232  10.862  1.1288 -0.0514  1.9342
  896MOL0     H20949  10.195   7.371  10.814  0.0866  0.8687  0.7729
  896MOL0     H20950  10.206   7.215  11.078  2.2266  1.4255  1.8639
  896MOL0     H20951  10.067   7.265  10.976  1.8335  0.5864 -2.5692
  896MOL0     H20952  10.239   7.428  11.168 -0.8745 -2.0866  1.9594
  896MOL0     H20953  10.088   7.382  11.212  2.2398  2.9646  2.4799
  896MOL0     H20954  10.075   7.620  11.157 -2.7848 -0.1888 -0.2152
  896MOL0     H20955  10.146   7.596  10.994  0.7335 -1.4658 -1.0621
  896MOL0     H20956   9.743   7.478  10.931  0.5233 -1.5753 -0.7229
  896MOL0     H20957  10.468   7.623  11.008  0.5044  3.5284 -1.0994
  896MOL0     H20958  10.535   7.823  10.983 -1.3526 -1.2662 -0.2125
  896MOL0     H20959  10.704   7.801  10.953 -1.2346  0.5126  1.8915
  896MOL0     H20960  10.588   7.888  10.839 -5.0992 -0.2779  1.5920
  897MOL0     O20961   0.447   9.650   8.943  0.0125 -0.2697 -0.1087
  897MOL0     C20962   0.523   9.741   8.918  0.7967 -0.4425 -0.1384
  897MOL0     O20963   0.483   9.858   8.847 -0.8648  0.2223 -0.0426
  897MOL0     C20964   0.356   9.890   8.823 -0.0451  0.7622  0.8216
  897MOL0     C20965   0.256   9.857   8.919  0.2022  0.5633 -0.0528
  897MOL0     C20966   0.125   9.893   8.900  0.1642  0.8828  0.2320
  897MOL0     C20967   0.088   9.969   8.790 -0.5386 -0.3261  0.1954
  897MOL0     O20968  -0.033  10.016   8.763 -0.3560 -0.2036 -0.5854
  897MOL0     C20969  -0.081  10.104   8.864  0.1202  0.3384 -0.4731
  897MOL0     C20970  -0.136  10.227   8.805 -0.0213 -0.4953  0.0105
  897MOL0     C20971  -0.248  10.201   8.705  0.0081 -0.0458 -0.1928
  897MOL0     C20972  -0.358  10.301   8.729 -0.5793  0.7064  0.0088
  897MOL0     C20973  -0.481  10.283   8.647 -0.0283 -0.6170 -0.4012
  897MOL0     C20974  -0.552  10.150   8.654  0.1222 -0.1248 -0.7780
  897MOL0     C20975  -0.659  10.120   8.538 -0.8525  0.1225 -0.1948
  897MOL0     C20976  -0.718   9.977   8.562 -0.4037 -0.3916  0.9799
  897MOL0     N20977  -0.786   9.958   8.683  0.0725 -0.5938 -0.5775
  897MOL0     C20978  -0.915   9.996   8.712 -1.4058 -0.5728  0.7014
  897MOL0     C20979  -0.933   9.960   8.842  0.6926 -1.3088 -0.1258
  897MOL0     C20980  -1.051   9.992   8.935 -0.6076  0.5629  0.4964
  897MOL0     C20981  -1.141   9.867   8.944  0.7519 -0.0747 -0.4185
  897MOL0     C20982  -1.253   9.865   8.842  0.1944 -0.9816  0.3446
  897MOL0     C20983  -1.386   9.942   8.871 -0.7167  0.8938 -0.8082
  897MOL0     O20984  -1.361  10.078   8.853  0.2874 -0.7770 -0.0405
  897MOL0     C20985  -1.470  10.166   8.856  0.0637  0.6171  0.5580
  897MOL0     C20986  -1.610  10.129   8.855 -0.4820  0.3571  0.2311
  897MOL0     C20987  -1.709  10.230   8.844  0.4617  0.2252  0.0580
  897MOL0     C20988  -1.675  10.369   8.840  0.0026  0.6202  0.5995
  897MOL0     C20989  -1.764  10.481   8.837  0.7103 -0.7906  0.1040
  897MOL0     O20990  -1.723  10.605   8.795 -0.4593  0.4475  0.5064
  897MOL0     C20991  -1.813  10.712   8.786 -0.3637  0.0440  0.9947
  897MOL0     C20992  -1.933  10.741   8.855  0.3517  0.2059 -0.0225
  897MOL0     C20993  -2.030  10.835   8.815 -1.0419  0.4134 -0.3058
  897MOL0     C20994  -2.001  10.922   8.706 -0.8888 -0.7332 -0.1645
  897MOL0     O20995  -2.103  11.007   8.660  0.0835 -0.0602  0.0773
  897MOL0     C20996  -2.057  11.124   8.589  0.4822 -0.1829 -0.2220
  897MOL0     C20997  -2.184  11.201   8.535 -0.0176 -0.6850 -0.4224
  897MOL0     C20998  -2.230  11.298   8.639 -1.0893  0.0017 -0.3712
  897MOL0     C20999  -2.367  11.344   8.610  0.1551 -1.5638 -0.4206
  897MOL0     C21000  -2.424  11.445   8.708  0.3271 -0.4087  0.0621
  897MOL0     C21001  -2.429  11.395   8.848  0.1026  0.4336 -1.2373
  897MOL0     C21002  -2.522  11.485   8.935 -0.3492 -0.5502 -0.8972
  897MOL0     C21003  -2.456  11.614   8.975  0.1895  0.1690  0.2807
  897MOL0    Cl21004  -2.559  11.683   9.095 -0.0217  0.1085  0.1179
  897MOL0     C21005  -1.876  10.901   8.637 -0.8968  0.2633  0.9246
  897MOL0     C21006  -1.786  10.803   8.678 -0.6967  0.0557 -0.0347
  897MOL0     O21007  -1.884  10.450   8.845 -0.3060 -0.3913 -0.3476
  897MOL0     C21008  -1.537  10.387   8.853  1.2946 -0.5844 -0.5676
  897MOL0     C21009  -1.444  10.294   8.864  0.0102  0.2464 -0.1489
  897MOL0     N21010  -0.819   9.898   8.891  0.0071 -0.7895 -0.0869
  897MOL0     N21011  -0.730   9.912   8.803  0.0493 -0.2749  0.1819
  897MOL0     C21012   0.196  10.013   8.695  0.2390 -0.7117 -0.6483
  897MOL0     C21013   0.329   9.972   8.714  0.2717 -0.1222  0.3659
  897MOL0     C21014   0.666   9.720   8.947  0.0409  0.6773  0.0704
  897MOL0     C21015   0.753   9.831   8.958 -0.4378  0.4231  0.3338
  897MOL0     C21016   0.881   9.814   9.003 -0.8378  0.0448  1.1417
  897MOL0     C21017   0.937   9.684   9.014 -0.5527 -0.5539 -0.2923
  897MOL0     O21018   1.063   9.648   9.072  0.0598 -0.2491  0.0509
  897MOL0     C21019   1.161   9.741   9.124  0.3012 -0.6152  0.1586
  897MOL0     C21020   1.231   9.825   9.016 -0.4130  0.0418  0.6345
  897MOL0     C21021   1.299   9.726   8.923  0.2280  0.6319  0.2043
  897MOL0     C21022   1.375   9.791   8.816  0.2142  0.4937  0.3262
  897MOL0     C21023   1.441   9.694   8.733 -0.0712  1.0037 -0.4852
  897MOL0     C21024   1.501   9.622   8.651 -0.9032 -0.4600 -0.9248
  897MOL0     C21025   0.850   9.575   8.980 -0.5743  0.1696  0.4762
  897MOL0     C21026   0.710   9.587   8.963  0.4524 -1.1830  0.1875
  897MOL0     C21027   0.629   9.460   8.930 -0.0601  0.7009  0.0169
  897MOL0     H21028   0.286   9.819   9.015 -0.8265 -0.1695  0.0011
  897MOL0     H21029   0.050   9.872   8.976 -0.4683 -1.2303 -0.8896
  897MOL0     H21030  -0.150  10.046   8.926  0.6768  1.5730  1.3903
  897MOL0     H21031   0.006  10.129   8.925  1.2013 -0.9061 -1.4402
  897MOL0     H21032  -0.055  10.283   8.757  0.2058  0.2052  1.1545
  897MOL0     H21033  -0.172  10.290   8.888  0.7784  1.2297 -0.8918
  897MOL0     H21034  -0.296  10.103   8.705 -1.2573  0.4247 -4.4342
  897MOL0     H21035  -0.205  10.230   8.609  2.0925  1.2961  1.0575
  897MOL0     H21036  -0.395  10.282   8.830 -0.6916 -2.1148 -0.4807
  897MOL0     H21037  -0.326  10.406   8.722 -0.4981  0.8824  2.2857
  897MOL0     H21038  -0.563  10.353   8.667  0.1998 -0.7027  0.9286
  897MOL0     H21039  -0.452  10.295   8.542  0.7842  0.1280 -0.0921
  897MOL0     H21040  -0.485  10.064   8.658  1.4533  0.9019  0.9682
  897MOL0     H21041  -0.605  10.154   8.750  1.0457 -3.2215 -0.0513
  897MOL0     H21042  -0.631  10.147   8.436  2.5470 -1.7865  0.0954
  897MOL0     H21043  -0.743  10.189   8.550  0.0491  1.6819 -2.2040
  897MOL0     H21044  -0.779   9.946   8.476 -1.1279  3.2094  0.0557
  897MOL0     H21045  -0.625   9.921   8.567 -0.0062  0.1731  0.1586
  897MOL0     H21046  -0.987  10.043   8.646 -0.6425  2.0959  1.6324
  897MOL0     H21047  -1.007  10.033   9.027 -1.3949 -0.9597  1.6094
  897MOL0     H21048  -1.107  10.073   8.889 -2.2246 -0.8444 -0.0777
  897MOL0     H21049  -1.084   9.776   8.928  0.5760  0.0929 -2.2032
  897MOL0     H21050  -1.188   9.862   9.043 -0.7929 -2.0601 -1.1846
  897MOL0     H21051  -1.272   9.758   8.831  3.7601 -2.0175  2.5686
  897MOL0     H21052  -1.212   9.905   8.749 -0.7508  1.2782  0.8215
  897MOL0     H21053  -1.417   9.923   8.974  0.0157 -2.9343 -1.1510
  897MOL0     H21054  -1.464   9.908   8.802  0.0810  1.2107 -1.9088
  897MOL0     H21055  -1.634  10.023   8.861 -0.2341  0.1416 -1.8203
  897MOL0     H21056  -1.813  10.198   8.850  0.4897  0.1689  0.2322
  897MOL0     H21057  -1.973  10.683   8.938  0.3303 -2.0291 -1.5026
  897MOL0     H21058  -2.122  10.845   8.871 -0.2348 -0.1357  1.1754
  897MOL0     H21059  -1.998  11.184   8.659 -1.7497  0.9520  0.7765
  897MOL0     H21060  -1.998  11.092   8.503  1.4284  1.6927 -0.3197
  897MOL0     H21061  -2.159  11.250   8.440  2.5873  2.6003  1.7673
  897MOL0     H21062  -2.257  11.127   8.499  0.5877 -2.1952  1.2857
  897MOL0     H21063  -2.222  11.239   8.731  0.7844  0.8968  0.0892
  897MOL0     H21064  -2.158  11.380   8.642  2.1043 -2.5394 -1.8781
  897MOL0     H21065  -2.435  11.258   8.609 -2.3973  0.2309  2.2689
  897MOL0     H21066  -2.369  11.379   8.507  2.8659 -2.0454 -0.7248
  897MOL0     H21067  -2.527  11.454   8.672 -0.2308 -0.1540  1.6338
  897MOL0     H21068  -2.367  11.538   8.697 -4.1925  2.4860 -2.2413
  897MOL0     H21069  -2.480  11.299   8.849  0.5336  0.0495  2.9627
  897MOL0     H21070  -2.335  11.374   8.900 -0.1131  1.2916 -0.4637
  897MOL0     H21071  -2.554  11.432   9.026 -3.3361  0.8143 -1.0350
  897MOL0     H21072  -2.617  11.503   8.885 -0.3878 -0.9421 -0.9721
  897MOL0     H21073  -2.351  11.600   9.002  1.2476 -3.0533 -4.2511
  897MOL0     H21074  -2.447  11.674   8.884 -1.5292 -0.0346 -0.0679
  897MOL0     H21075  -1.839  10.952   8.549 -1.9411 -2.4992 -1.2928
  897MOL0     H21076  -1.691  10.791   8.629  0.0165 -0.7264  1.4605
  897MOL0     H21077  -1.503  10.489   8.865 -1.0791  0.1930  0.1299
  897MOL0     H21078  -1.339  10.319   8.870 -0.5723  2.9595  0.3734
  897MOL0     H21079   0.172  10.080   8.613  0.6643 -0.6310 -0.7068
  897MOL0     H21080   0.411   9.987   8.645 -0.3108 -1.6030 -0.7009
  897MOL0     H21081   0.722   9.935   8.945  0.7431  1.1425  2.7338
  897MOL0     H21082   0.942   9.903   9.015  0.4926 -0.9228  1.6693
  897MOL0     H21083   1.231   9.685   9.187 -0.7762 -3.1768 -0.7693
  897MOL0     H21084   1.113   9.808   9.196 -1.7338 -0.6097 -1.1279
  897MOL0     H21085   1.304   9.887   9.069 -0.5812 -0.2213  1.1880
  897MOL0     H21086   1.164   9.886   8.955 -0.6272 -0.6951  0.1168
  897MOL0     H21087   1.227   9.658   8.876 -0.7727  0.4303  1.9641
  897MOL0     H21088   1.362   9.659   8.981 -2.4564 -2.1054  0.1692
  897MOL0     H21089   1.301   9.841   8.754  0.8317  1.2971  0.2168
  897MOL0     H21090   1.446   9.862   8.860 -1.3602  1.8240  0.8443
  897MOL0     H21091   1.571   9.578   8.583  2.2366  0.4668  1.5051
  897MOL0     H21092   0.878   9.470   8.988 -3.4851 -0.8519 -1.1724
  897MOL0     H21093   0.695   9.373   8.919 -0.4078 -0.0286  2.8055
  897MOL0     H21094   0.551   9.432   9.001 -1.0070 -1.6203 -1.8316
  897MOL0     H21095   0.581   9.477   8.834 -3.8777 -2.8433  1.0484
  898MOL0     O21096   7.968   6.756   7.954  0.2332  0.4233  0.0125
  898MOL0     C21097   7.931   6.834   8.038  0.7243  0.2250 -0.5836
  898MOL0     O21098   8.022   6.917   8.096  0.4621 -0.3252 -0.1807
  898MOL0     C21099   8.157   6.900   8.071 -0.6822  0.6588 -0.0814
  898MOL0     C21100   8.225   7.009   8.012  0.2065  0.2506 -0.2519
  898MOL0     C21101   8.359   7.004   7.974  0.3524  0.1834  0.1075
  898MOL0     C21102   8.435   6.882   8.001  0.8488  0.4166  0.9738
  898MOL0     O21103   8.559   6.885   7.955  0.5558 -0.3966  0.8356
  898MOL0     C21104   8.643   6.800   8.038 -0.2126 -0.4342  0.4551
  898MOL0     C21105   8.794   6.816   7.990 -1.1026  0.4395  0.0498
  898MOL0     C21106   8.833   6.960   8.024 -0.5590 -0.7412 -0.0812
  898MOL0     C21107   8.968   6.996   7.957  1.0622 -1.0197 -0.1768
  898MOL0     C21108   9.096   6.960   8.032 -0.1724  0.5787 -0.1980
  898MOL0     C21109   9.213   6.955   7.928  0.1615  0.2045 -1.1530
  898MOL0     C21110   9.322   6.891   8.005 -1.1746  0.2411  0.3052
  898MOL0     C21111   9.424   6.848   7.914 -0.1033 -0.5338 -0.5721
  898MOL0     N21112   9.531   6.790   7.998 -0.8265  0.8968  0.7430
  898MOL0     C21113   9.536   6.668   8.056  0.1547 -0.2942 -0.0058
  898MOL0     C21114   9.644   6.668   8.126 -0.0963 -0.2963 -0.3070
  898MOL0     C21115   9.665   6.550   8.216  0.1878 -0.3948  0.4751
  898MOL0     C21116   9.781   6.559   8.307  0.5542 -0.1663  0.4009
  898MOL0     C21117   9.761   6.657   8.417 -0.0415 -0.2492 -0.2358
  898MOL0     C21118   9.889   6.687   8.505  0.3690 -0.2498  0.2453
  898MOL0     O21119   9.877   6.770   8.625 -0.1532 -0.1030 -0.1418
  898MOL0     C21120   9.986   6.789   8.702  0.4184 -0.0023 -0.4893
  898MOL0     C21121   9.956   6.832   8.831  0.6785 -0.1269 -0.4126
  898MOL0     C21122  10.055   6.872   8.922  0.2576  0.4987  0.1055
  898MOL0     C21123  10.187   6.874   8.876 -0.8115  1.1322 -0.1670
  898MOL0     C21124  10.306   6.913   8.968 -0.0310  0.3657  0.7558
  898MOL0     O21125  10.268   6.969   9.093  0.3155  0.8342  0.2485
  898MOL0     C21126  10.364   7.010   9.181 -0.1743 -0.7916  0.0709
  898MOL0     C21127  10.485   7.075   9.150 -0.4057  1.3592 -0.4329
  898MOL0     C21128  10.587   7.086   9.244 -0.1433 -0.0540 -0.8660
  898MOL0     C21129  10.567   7.055   9.379 -0.6914  0.3661  0.7455
  898MOL0     O21130  10.669   7.096   9.461 -0.5862  0.6798 -1.1801
  898MOL0     C21131  10.670   7.048   9.597 -0.8125  1.0827 -0.5786
  898MOL0     C21132  10.812   7.016   9.660 -0.9711 -0.7364  0.4713
  898MOL0     C21133  10.909   7.145   9.643 -0.1275  0.4502  0.6937
  898MOL0     C21134  10.910   7.221   9.768  0.7770 -0.2353  0.3541
  898MOL0     C21135  10.946   7.372   9.743  0.6020  0.0221 -0.3867
  898MOL0     C21136  11.071   7.401   9.660 -0.5691  0.4071  0.5097
  898MOL0     C21137  11.116   7.551   9.639  0.4828 -0.3375  0.5531
  898MOL0     C21138  11.165   7.581   9.499 -0.4929  0.7018 -0.1853
  898MOL0    Cl21139  11.242   7.751   9.516  0.1137  0.0498  0.0638
  898MOL0     C21140  10.446   7.002   9.414 -0.5250  0.3353 -0.1397
  898MOL0     C21141  10.347   6.983   9.315  0.4033 -1.0101 -0.4205
  898MOL0     O21142  10.421   6.911   8.916 -0.1901 -0.0612 -0.2073
  898MOL0     C21143  10.220   6.802   8.751 -0.0823  0.0613  0.6667
  898MOL0     C21144  10.117   6.759   8.668  0.0368  0.1157  1.0140
  898MOL0     N21145   9.708   6.792   8.117 -0.1314  0.4018  0.0754
  898MOL0     N21146   9.635   6.861   8.044 -0.2737  0.0257  0.4149
  898MOL0     C21147   8.363   6.769   8.062 -0.1728 -0.3216 -0.3037
  898MOL0     C21148   8.235   6.776   8.097  1.0958  0.3021 -0.5721
  898MOL0     C21149   7.782   6.859   8.058  0.1371  0.7430 -0.1027
  898MOL0     C21150   7.753   6.974   8.137  0.7646  0.4796  0.5966
  898MOL0     C21151   7.621   7.014   8.148  0.1421  0.1873 -0.5793
  898MOL0     C21152   7.516   6.931   8.105  0.1318  0.0501  0.1798
  898MOL0     O21153   7.397   6.969   8.146  0.3730  0.0353 -0.5129
  898MOL0     C21154   7.274   6.901   8.113  0.6771  0.0193  0.5387
  898MOL0     C21155   7.217   6.803   8.218 -0.2976  0.3661  0.0646
  898MOL0     C21156   7.122   6.701   8.149 -0.7702  0.0390 -0.2074
  898MOL0     C21157   7.058   6.619   8.258  0.2526 -0.0528  0.1504
  898MOL0     C21158   6.977   6.511   8.204  0.5249 -0.5877  0.1637
  898MOL0     C21159   6.918   6.418   8.169 -0.1721  0.3916 -0.3097
  898MOL0     C21160   7.547   6.808   8.056 -0.1765 -0.1831 -0.6696
  898MOL0     C21161   7.676   6.766   8.022 -0.7668  0.5131  0.2361
  898MOL0     C21162   7.694   6.638   7.949  0.1825 -0.1690 -0.4977
  898MOL0     H21163   8.170   7.097   7.982 -4.7108 -2.2220  0.5034
  898MOL0     H21164   8.415   7.079   7.920  4.3360 -0.2450  3.2206
  898MOL0     H21165   8.626   6.830   8.142 -4.3376  0.2332 -0.2201
  898MOL0     H21166   8.622   6.694   8.021  1.2086 -0.8177  0.9936
  898MOL0     H21167   8.797   6.807   7.881 -0.4079  0.8894  0.0281
  898MOL0     H21168   8.864   6.741   8.028 -2.2069  0.1199  1.5640
  898MOL0     H21169   8.833   6.984   8.131 -0.2405 -4.2591  0.8576
  898MOL0     H21170   8.753   7.021   7.981 -0.8805 -0.6784  0.5900
  898MOL0     H21171   8.959   6.955   7.856  3.7651 -3.3389  0.4139
  898MOL0     H21172   8.962   7.104   7.941 -0.9874 -1.0683 -0.0863
  898MOL0     H21173   9.123   7.026   8.115  0.4316 -2.8285  2.5470
  898MOL0     H21174   9.083   6.861   8.074 -1.5923  0.6350 -0.4636
  898MOL0     H21175   9.175   6.897   7.843 -3.2975 -0.2047  0.5175
  898MOL0     H21176   9.246   7.055   7.897  0.5624  0.5037  0.2008
  898MOL0     H21177   9.286   6.811   8.071 -0.5390 -0.3673 -0.0584
  898MOL0     H21178   9.367   6.967   8.069 -4.0287  3.2659 -1.0221
  898MOL0     H21179   9.383   6.781   7.838  0.7699  1.5240 -2.9890
  898MOL0     H21180   9.472   6.932   7.863 -1.3432  1.2670  1.0914
  898MOL0     H21181   9.459   6.591   8.051 -2.3765  2.1505 -2.5046
  898MOL0     H21182   9.580   6.544   8.285 -0.4033  4.8117  0.6115
  898MOL0     H21183   9.677   6.461   8.154  0.4815 -0.1816  0.2231
  898MOL0     H21184   9.808   6.458   8.339 -0.0803 -1.5054 -2.8284
  898MOL0     H21185   9.858   6.595   8.238 -0.6435 -0.6589 -1.2756
  898MOL0     H21186   9.692   6.604   8.483  0.7797 -2.3534 -0.9822
  898MOL0     H21187   9.722   6.752   8.380  0.2249 -0.8920 -2.3140
  898MOL0     H21188   9.961   6.735   8.439 -1.5108 -1.3634 -2.8258
  898MOL0     H21189   9.928   6.589   8.535 -0.8456 -0.1809  2.2664
  898MOL0     H21190   9.853   6.841   8.865  0.5949  0.7748 -0.8723
  898MOL0     H21191  10.029   6.924   9.014  3.1706 -1.4451  2.1935
  898MOL0     H21192  10.501   7.106   9.047 -0.2289  0.0167 -0.8224
  898MOL0     H21193  10.680   7.139   9.224 -0.3747  1.9672  2.5708
  898MOL0     H21194  10.618   7.119   9.662 -0.7127  2.8572 -2.3481
  898MOL0     H21195  10.624   6.949   9.602  0.8626  0.3312  0.8523
  898MOL0     H21196  10.807   6.992   9.766 -0.3194 -0.1161  0.6515
  898MOL0     H21197  10.858   6.931   9.609 -2.8066 -0.4834 -1.8056
  898MOL0     H21198  11.009   7.104   9.623 -1.8130 -2.1592 -4.3377
  898MOL0     H21199  10.872   7.207   9.561 -1.0745 -0.6144  0.2866
  898MOL0     H21200  10.992   7.196   9.836  1.6824  2.8298  0.5462
  898MOL0     H21201  10.809   7.230   9.809  0.7380 -1.0213  0.4331
  898MOL0     H21202  10.965   7.431   9.833 -1.8145  2.0102 -1.0612
  898MOL0     H21203  10.864   7.427   9.695  0.4975 -1.0882 -1.5363
  898MOL0     H21204  11.158   7.343   9.691 -0.1197 -0.4126 -2.0849
  898MOL0     H21205  11.053   7.366   9.558 -1.8067 -0.2051  0.9181
  898MOL0     H21206  11.186   7.583   9.716 -0.3061  1.4086  0.5993
  898MOL0     H21207  11.031   7.616   9.667 -1.9433 -1.8591 -2.6482
  898MOL0     H21208  11.246   7.508   9.489  1.7101  2.5177  2.7260
  898MOL0     H21209  11.092   7.571   9.418 -0.8783 -2.2632  0.3880
  898MOL0     H21210  10.424   6.951   9.508  0.8073 -0.7912 -0.3924
  898MOL0     H21211  10.254   6.940   9.351  1.8161 -2.1586  2.0254
  898MOL0     H21212  10.321   6.789   8.711 -0.2779  1.9338 -0.5485
  898MOL0     H21213  10.137   6.719   8.569 -1.8996  0.6219  0.3610
  898MOL0     H21214   8.419   6.679   8.085 -0.2669 -0.1863  0.4651
  898MOL0     H21215   8.192   6.686   8.140 -0.3074  0.8982 -0.6675
  898MOL0     H21216   7.827   7.044   8.176 -0.4588  2.4837 -0.5074
  898MOL0     H21217   7.585   7.110   8.182  0.5415 -0.7686  2.9896
  898MOL0     H21218   7.285   6.848   8.018 -1.0791  2.2078 -0.9903
  898MOL0     H21219   7.201   6.973   8.075  1.0615 -1.3164 -3.0956
  898MOL0     H21220   7.181   6.869   8.297  0.5135  1.7669 -0.6798
  898MOL0     H21221   7.299   6.744   8.259  0.2817 -0.1520 -1.7330
  898MOL0     H21222   7.169   6.642   8.070  0.9293  0.7691  0.2153
  898MOL0     H21223   7.045   6.766   8.106  2.0019  3.7017 -0.1543
  898MOL0     H21224   7.133   6.563   8.315  1.3018 -0.0132 -1.1547
  898MOL0     H21225   6.988   6.673   8.322  0.1405 -0.3722  0.3005
  898MOL0     H21226   6.862   6.330   8.145  0.2116  0.4773 -1.5704
  898MOL0     H21227   7.466   6.741   8.031 -0.9710 -0.5869  2.6037
  898MOL0     H21228   7.606   6.573   7.951 -0.8406  1.1914 -0.1217
  898MOL0     H21229   7.713   6.643   7.842  0.3170 -3.3246 -0.7094
  898MOL0     H21230   7.779   6.584   7.994 -0.3523  1.2741  2.5241
  899MOL0     O21231   5.691   1.073   4.813  0.2670 -0.1584  0.0515
  899MOL0     C21232   5.680   0.989   4.901  0.1235 -0.8766  0.2949
  899MOL0     O21233   5.665   1.011   5.027  0.4457 -0.6398 -0.9103
  899MOL0     C21234   5.703   1.138   5.066  0.2684  0.6507  0.4219
  899MOL0     C21235   5.835   1.182   5.091 -0.5572  0.8947 -0.2111
  899MOL0     C21236   5.853   1.291   5.165 -0.1597 -0.5750 -0.1595
  899MOL0     C21237   5.750   1.366   5.218  0.2396  0.7040  0.9431
  899MOL0     O21238   5.783   1.480   5.282 -0.3465  0.2488 -0.5203
  899MOL0     C21239   5.735   1.590   5.211 -0.0208 -0.4549 -0.5783
  899MOL0     C21240   5.646   1.679   5.294 -0.6784  0.8509  0.9311
  899MOL0     C21241   5.708   1.700   5.430  0.0723 -0.9475  0.3972
  899MOL0     C21242   5.629   1.802   5.507  0.9976  0.3567  0.0365
  899MOL0     C21243   5.632   1.945   5.448  0.7993 -0.4997  0.5104
  899MOL0     C21244   5.617   2.059   5.551 -0.9919  0.1461  0.0091
  899MOL0     C21245   5.470   2.095   5.575  0.7504 -0.3990 -0.2304
  899MOL0     C21246   5.481   2.212   5.682 -1.8380  0.5812 -0.1950
  899MOL0     N21247   5.558   2.331   5.623 -0.8819  0.0254  0.4455
  899MOL0     C21248   5.545   2.388   5.497  1.3677  0.7865  0.0517
  899MOL0     C21249   5.629   2.484   5.486 -0.6011  0.2980 -0.7059
  899MOL0     C21250   5.660   2.566   5.365 -0.1385 -0.4520  0.4589
  899MOL0     C21251   5.693   2.480   5.237 -0.6177  0.5671 -0.2462
  899MOL0     C21252   5.818   2.390   5.278 -0.4258 -0.2456 -0.8435
  899MOL0     C21253   5.873   2.315   5.153  0.8696  0.7379 -1.8194
  899MOL0     O21254   5.958   2.408   5.085  0.7810 -0.1013  0.4716
  899MOL0     C21255   6.037   2.353   4.984  0.6894  0.5634  0.4569
  899MOL0     C21256   6.112   2.439   4.907 -0.6065  0.1553  0.3140
  899MOL0     C21257   6.192   2.395   4.797 -0.7264 -0.6335 -0.5437
  899MOL0     C21258   6.198   2.260   4.768 -0.2985 -0.2209 -0.1995
  899MOL0     C21259   6.306   2.214   4.675  0.0496  0.1171 -0.6942
  899MOL0     O21260   6.362   2.291   4.579  0.8557 -0.2538 -0.2226
  899MOL0     C21261   6.443   2.223   4.487 -0.0760  0.3034  0.1426
  899MOL0     C21262   6.574   2.185   4.528  1.1497  1.5225  0.2924
  899MOL0     C21263   6.659   2.130   4.429 -0.8893 -0.9164  0.2405
  899MOL0     C21264   6.621   2.110   4.297  0.2177 -0.1399  0.2089
  899MOL0     O21265   6.707   2.052   4.207 -0.1506  0.2542  0.2399
  899MOL0     C21266   6.650   2.025   4.073 -0.0082 -0.3685 -0.2063
  899MOL0     C21267   6.766   1.981   3.995 -0.4134 -1.0447  0.6013
  899MOL0     C21268   6.860   2.083   3.931 -0.0479  0.4462  0.1771
  899MOL0     C21269   6.916   2.171   4.036  0.0606  0.4891  0.8565
  899MOL0     C21270   7.008   2.278   3.972  0.2540 -0.2164  0.4607
  899MOL0     C21271   7.077   2.384   4.070  1.5059  0.2485 -0.8308
  899MOL0     C21272   7.161   2.474   3.991 -0.2784 -0.3720 -0.0435
  899MOL0     C21273   7.227   2.587   4.076 -0.1606 -0.1315  0.5129
  899MOL0    Cl21274   7.307   2.675   3.942 -0.2717 -0.2841  0.1959
  899MOL0     C21275   6.488   2.133   4.262  0.5379 -0.0368  0.2950
  899MOL0     C21276   6.400   2.201   4.352 -0.4946  0.3656 -0.4162
  899MOL0     O21277   6.333   2.096   4.694  0.9000 -1.0193 -0.3336
  899MOL0     C21278   6.113   2.173   4.840 -0.4618  0.0089  0.0400
  899MOL0     C21279   6.041   2.218   4.947  0.5507  0.5956 -0.2031
  899MOL0     N21280   5.703   2.492   5.603 -0.2632 -0.5145  0.4180
  899MOL0     N21281   5.663   2.393   5.678  0.1183  0.9965  0.3784
  899MOL0     C21282   5.613   1.315   5.195  0.4697  0.3441  0.0316
  899MOL0     C21283   5.589   1.197   5.118 -0.5577 -0.1403  0.4658
  899MOL0     C21284   5.687   0.847   4.866 -0.1549  0.7288  0.0926
  899MOL0     C21285   5.705   0.746   4.962 -0.4394  1.3919 -0.6915
  899MOL0     C21286   5.705   0.612   4.931 -1.3412 -0.3024 -0.1753
  899MOL0     C21287   5.693   0.561   4.812  0.4973 -0.7115  0.5848
  899MOL0     O21288   5.704   0.429   4.767  0.9060 -0.5168  0.3966
  899MOL0     C21289   5.804   0.355   4.823  0.5021  0.1469 -0.5337
  899MOL0     C21290   5.848   0.249   4.722 -0.1534 -1.6509  0.4572
  899MOL0     C21291   5.735   0.161   4.674 -0.1492 -0.0622 -0.5947
  899MOL0     C21292   5.655   0.093   4.777 -0.4335  0.2610  0.0811
  899MOL0     C21293   5.730  -0.008   4.858 -0.6927 -0.8006 -0.4039
  899MOL0     C21294   5.781  -0.065   4.948 -0.6300 -0.3617  0.1604
  899MOL0     C21295   5.681   0.652   4.710  0.4483 -1.1194  1.0172
  899MOL0     C21296   5.670   0.796   4.732 -0.4319 -0.8279 -0.4402
  899MOL0     C21297   5.617   0.878   4.627  0.0713 -0.3873  0.2063
  899MOL0     H21298   5.919   1.126   5.049 -0.4945  1.2964 -0.6268
  899MOL0     H21299   5.948   1.343   5.169 -0.2645 -0.4605  1.6559
  899MOL0     H21300   5.823   1.647   5.182  0.3397  1.3390  3.2910
  899MOL0     H21301   5.678   1.560   5.123 -2.1986  2.1140 -0.1828
  899MOL0     H21302   5.550   1.627   5.302  0.3905 -1.6496 -1.1322
  899MOL0     H21303   5.625   1.768   5.234  0.5436  1.3779  1.2749
  899MOL0     H21304   5.811   1.732   5.415 -0.3771  0.8348  0.8794
  899MOL0     H21305   5.703   1.610   5.493 -3.0627 -0.3362  1.2095
  899MOL0     H21306   5.525   1.768   5.504  0.5093  1.7965 -0.2941
  899MOL0     H21307   5.653   1.816   5.613  1.1453  0.2350  0.0200
  899MOL0     H21308   5.732   1.953   5.405  0.1836  1.2999 -0.6992
  899MOL0     H21309   5.557   1.952   5.369 -2.3953  0.0325  3.3432
  899MOL0     H21310   5.655   2.033   5.651 -0.9010  1.0462  0.2135
  899MOL0     H21311   5.675   2.146   5.521  0.9902  1.2848  5.7604
  899MOL0     H21312   5.413   2.014   5.620 -3.2608  2.7082  0.9312
  899MOL0     H21313   5.421   2.131   5.483  2.1150 -0.9511 -1.2032
  899MOL0     H21314   5.375   2.236   5.693 -1.6687  0.8794  0.9171
  899MOL0     H21315   5.526   2.182   5.777 -1.4020  1.0649 -0.2431
  899MOL0     H21316   5.475   2.355   5.421 -0.3761  2.5102  0.8225
  899MOL0     H21317   5.576   2.634   5.349  0.1169  0.3134  2.1645
  899MOL0     H21318   5.747   2.628   5.389  1.9952 -0.8873 -4.7442
  899MOL0     H21319   5.604   2.425   5.206  0.4756  0.1227 -2.8453
  899MOL0     H21320   5.723   2.543   5.153 -4.0137  0.6260 -1.5553
  899MOL0     H21321   5.793   2.325   5.362  1.7048 -0.2304 -0.1523
  899MOL0     H21322   5.891   2.460   5.318 -2.1459  1.6400 -0.8656
  899MOL0     H21323   5.781   2.284   5.103  0.3174 -2.5161  0.8389
  899MOL0     H21324   5.914   2.220   5.188  0.7758  0.4313 -2.5246
  899MOL0     H21325   6.110   2.543   4.935 -0.4937  0.0931  0.5552
  899MOL0     H21326   6.260   2.457   4.740  0.8885  0.3613  2.2689
  899MOL0     H21327   6.614   2.182   4.629  1.8507 -0.6784  0.0079
  899MOL0     H21328   6.756   2.094   4.461 -0.5923  0.8733  1.4598
  899MOL0     H21329   6.576   1.946   4.082 -1.3585  0.4736 -2.8888
  899MOL0     H21330   6.609   2.116   4.027  0.7741  1.4449  2.4480
  899MOL0     H21331   6.834   1.919   4.055  0.8021  0.8208  1.2172
  899MOL0     H21332   6.739   1.925   3.905  0.0669  0.9615 -0.8668
  899MOL0     H21333   6.931   2.018   3.880  0.7779  0.4576  1.2825
  899MOL0     H21334   6.799   2.140   3.860  0.5357  0.3658 -0.3937
  899MOL0     H21335   6.957   2.105   4.113 -1.4465 -0.5433  0.8161
  899MOL0     H21336   6.830   2.228   4.072 -1.7474 -1.4207 -0.2031
  899MOL0     H21337   6.962   2.341   3.895  4.0101  0.1707 -1.6689
  899MOL0     H21338   7.088   2.232   3.915  0.1137  1.2068 -0.9466
  899MOL0     H21339   6.995   2.434   4.123 -1.2100 -1.9055 -2.6644
  899MOL0     H21340   7.125   2.330   4.152  1.4404 -2.8173 -2.6449
  899MOL0     H21341   7.118   2.531   3.907  2.4480 -0.0718 -1.3322
  899MOL0     H21342   7.244   2.419   3.946 -0.7703 -0.8234 -0.4172
  899MOL0     H21343   7.149   2.649   4.119 -2.0754 -1.1015 -1.3851
  899MOL0     H21344   7.303   2.546   4.144 -0.0125 -1.4785 -0.4151
  899MOL0     H21345   6.454   2.123   4.160  1.4511  2.1506 -0.2611
  899MOL0     H21346   6.298   2.231   4.332 -1.1611  0.4309  2.5892
  899MOL0     H21347   6.097   2.070   4.809  4.4142 -0.2678 -2.6712
  899MOL0     H21348   5.974   2.140   4.980  0.4372  0.5663 -0.4929
  899MOL0     H21349   5.528   1.360   5.244 -0.0901 -0.2290 -0.3887
  899MOL0     H21350   5.493   1.150   5.099 -0.7599  0.8161 -1.0662
  899MOL0     H21351   5.717   0.775   5.066 -0.2468  0.5519 -0.4729
  899MOL0     H21352   5.713   0.539   5.012 -0.6513 -1.1017 -0.9479
  899MOL0     H21353   5.776   0.310   4.919  1.3554 -1.1277 -0.8645
  899MOL0     H21354   5.891   0.419   4.840 -0.8144  1.6979  0.7589
  899MOL0     H21355   5.924   0.185   4.766  0.7456 -0.9563 -0.0535
  899MOL0     H21356   5.890   0.297   4.633 -1.4640 -1.0884  0.1067
  899MOL0     H21357   5.769   0.085   4.603  0.4442  0.2053 -0.5956
  899MOL0     H21358   5.662   0.211   4.609  0.9488 -0.8251 -2.4869
  899MOL0     H21359   5.614   0.167   4.846  2.1206  0.3794  1.6238
  899MOL0     H21360   5.573   0.040   4.727  0.7600  1.7233 -3.7798
  899MOL0     H21361   5.831  -0.121   5.025 -0.2081 -2.9881 -1.8618
  899MOL0     H21362   5.678   0.626   4.605  2.8502  3.6505 -0.5198
  899MOL0     H21363   5.688   0.950   4.585  1.4471 -1.7720  0.0874
  899MOL0     H21364   5.586   0.815   4.543 -0.3209 -1.5933  1.2218
  899MOL0     H21365   5.525   0.924   4.665  0.3479 -0.2660  0.7379
  900MOL0     O21366   6.956   7.217   0.849 -0.7772 -0.1099 -0.7554
  900MOL0     C21367   6.963   7.136   0.940  0.2880 -0.5374 -1.3699
  900MOL0     O21368   7.033   7.160   1.058 -0.3727  0.6259  0.8839
  900MOL0     C21369   7.098   7.274   1.090  1.0849  0.4652  0.3245
  900MOL0     C21370   7.212   7.266   1.167 -0.4404 -0.7199 -0.1937
  900MOL0     C21371   7.264   7.388   1.213  0.2711 -0.0621 -0.0726
  900MOL0     C21372   7.205   7.513   1.178 -0.3127 -0.7996 -0.4471
  900MOL0     O21373   7.263   7.632   1.220  0.3943 -0.1972 -1.0051
  900MOL0     C21374   7.407   7.646   1.239  0.3756 -0.2401  0.1668
  900MOL0     C21375   7.444   7.790   1.281 -0.3906  1.0464  0.6201
  900MOL0     C21376   7.393   7.822   1.426 -0.0056 -0.9140 -0.3054
  900MOL0     C21377   7.453   7.956   1.476  0.3916  0.1785  0.7927
  900MOL0     C21378   7.402   8.012   1.608  0.8608  0.4705  0.3328
  900MOL0     C21379   7.380   7.905   1.712 -0.4298  0.4318  0.3428
  900MOL0     C21380   7.284   7.949   1.827 -0.5487 -0.0009 -0.0612
  900MOL0     C21381   7.265   7.824   1.917 -0.8211  0.4531  0.1962
  900MOL0     N21382   7.211   7.874   2.042 -0.0651 -0.4175 -0.3761
  900MOL0     C21383   7.245   7.834   2.172  0.9826  0.3963 -0.3997
  900MOL0     C21384   7.130   7.857   2.242 -0.3384  0.0870 -0.9784
  900MOL0     C21385   7.117   7.822   2.385  0.4615 -0.1502 -0.5645
  900MOL0     C21386   7.214   7.715   2.428 -0.2973 -0.6082  0.6164
  900MOL0     C21387   7.145   7.591   2.358  0.3760 -0.4216  0.2540
  900MOL0     C21388   7.235   7.460   2.373 -0.4140 -0.7774  0.2621
  900MOL0     O21389   7.372   7.490   2.342  0.2827 -0.7761 -0.0041
  900MOL0     C21390   7.422   7.485   2.214  0.1241 -0.5886  0.5638
  900MOL0     C21391   7.353   7.444   2.103  0.4603  0.2252 -0.4235
  900MOL0     C21392   7.399   7.469   1.975  0.4070  0.8301 -0.0964
  900MOL0     C21393   7.518   7.531   1.952 -0.5580 -0.1344 -0.2324
  900MOL0     C21394   7.566   7.567   1.815 -0.7350  0.6774 -0.2168
  900MOL0     O21395   7.705   7.583   1.797  1.0024  0.3662  0.1754
  900MOL0     C21396   7.743   7.596   1.665  0.1927  1.2494  0.2819
  900MOL0     C21397   7.800   7.484   1.602  0.5880  0.7623 -0.1365
  900MOL0     C21398   7.843   7.487   1.466  0.3347  1.1156 -0.1029
  900MOL0     C21399   7.844   7.613   1.399 -0.6936 -0.9299  0.4009
  900MOL0     O21400   7.870   7.617   1.262 -0.0191  0.2279  0.1965
  900MOL0     C21401   7.837   7.733   1.181 -0.9231 -0.7414 -0.8412
  900MOL0     C21402   7.957   7.794   1.120  1.1907 -0.0984 -0.1744
  900MOL0     C21403   8.042   7.875   1.224 -0.5094 -0.2120  0.0486
  900MOL0     C21404   8.148   7.981   1.170 -0.7928  0.0399 -0.3505
  900MOL0     C21405   8.299   7.939   1.130  0.5832 -0.9266 -0.4026
  900MOL0     C21406   8.391   8.063   1.116  0.2336 -0.8667  0.1990
  900MOL0     C21407   8.539   8.032   1.081 -0.0231 -0.3676 -0.3682
  900MOL0     C21408   8.630   8.139   1.133 -0.2611  0.4589  0.2175
  900MOL0    Cl21409   8.610   8.297   1.029 -0.1812  0.2582 -0.0177
  900MOL0     C21410   7.810   7.729   1.474  0.2399 -0.2809  0.1463
  900MOL0     C21411   7.756   7.724   1.606 -0.1440  0.7136 -0.5910
  900MOL0     O21412   7.488   7.575   1.726  0.4570 -0.1063  0.6714
  900MOL0     C21413   7.598   7.569   2.064  0.0574  0.1604 -0.1510
  900MOL0     C21414   7.542   7.543   2.187  0.5987 -0.0488  0.0730
  900MOL0     N21415   7.038   7.919   2.159  0.5394  0.2304 -0.1158
  900MOL0     N21416   7.088   7.938   2.049 -1.0413  0.6349  0.5025
  900MOL0     C21417   7.095   7.516   1.103 -0.3827 -0.2464  0.1251
  900MOL0     C21418   7.037   7.401   1.059  0.8340  0.7929  0.1500
  900MOL0     C21419   6.884   7.019   0.930  0.5596  0.0504  0.5287
  900MOL0     C21420   6.890   6.936   1.043  0.5163 -0.7196  0.5332
  900MOL0     C21421   6.837   6.805   1.043  0.3309  0.0674  0.8591
  900MOL0     C21422   6.766   6.759   0.924 -0.0414  1.6545 -0.7487
  900MOL0     O21423   6.707   6.635   0.921  0.5895  0.3065  0.1850
  900MOL0     C21424   6.805   6.537   0.873  0.5634 -0.8315  0.5518
  900MOL0     C21425   6.802   6.535   0.715 -0.5915 -0.0153 -0.0250
  900MOL0     C21426   6.895   6.420   0.647 -0.2489 -0.6121  0.5016
  900MOL0     C21427   7.047   6.437   0.661 -0.3968  1.0677 -0.4196
  900MOL0     C21428   7.090   6.513   0.544  0.0566  0.0254 -0.6413
  900MOL0     C21429   7.124   6.582   0.450  0.6044  0.6414 -0.7225
  900MOL0     C21430   6.745   6.845   0.827  0.1500  0.2885  1.7145
  900MOL0     C21431   6.819   6.967   0.812  0.2056 -0.5664 -0.6540
  900MOL0     C21432   6.812   7.032   0.676  0.0201 -0.0367  0.7600
  900MOL0     H21433   7.252   7.168   1.189  0.2364 -0.2512  0.7601
  900MOL0     H21434   7.349   7.388   1.281 -0.0446  2.0501  0.3753
  900MOL0     H21435   7.464   7.570   1.293 -0.0368  0.6269  1.8818
  900MOL0     H21436   7.451   7.633   1.140  1.4055 -0.7712  0.6797
  900MOL0     H21437   7.412   7.864   1.207  0.0652  0.1661 -0.4942
  900MOL0     H21438   7.553   7.788   1.287 -0.2042 -1.5087 -1.5817
  900MOL0     H21439   7.435   7.737   1.480  0.9880 -0.4337 -0.3115
  900MOL0     H21440   7.284   7.825   1.414  0.1407  1.0768 -1.5612
  900MOL0     H21441   7.558   7.936   1.497 -0.5451 -5.0618  1.7444
  900MOL0     H21442   7.443   8.028   1.393 -1.5522  0.1860  0.9830
  900MOL0     H21443   7.467   8.094   1.642  2.2506 -0.4601  0.0056
  900MOL0     H21444   7.303   8.051   1.585  0.0300 -2.1071 -0.8141
  900MOL0     H21445   7.325   7.826   1.659  4.2743 -2.2415 -1.1174
  900MOL0     H21446   7.475   7.869   1.751 -0.1206 -0.7812 -1.3980
  900MOL0     H21447   7.194   8.001   1.794  0.0258  2.8173  2.3739
  900MOL0     H21448   7.346   8.018   1.885 -2.4075  3.2904 -1.6944
  900MOL0     H21449   7.200   7.749   1.871  1.0046 -2.2591  1.7172
  900MOL0     H21450   7.362   7.774   1.931 -0.5512  0.7522 -0.5330
  900MOL0     H21451   7.333   7.776   2.200 -1.0444 -1.8511  1.8359
  900MOL0     H21452   7.123   7.912   2.447 -4.3044  0.3446 -0.4203
  900MOL0     H21453   7.016   7.784   2.405  1.7012 -2.1024  2.9837
  900MOL0     H21454   7.321   7.725   2.410 -0.3924  0.3304  0.5149
  900MOL0     H21455   7.193   7.709   2.535 -1.8325 -0.0970  0.3755
  900MOL0     H21456   7.131   7.601   2.250 -2.8152 -0.0535  0.6070
  900MOL0     H21457   7.044   7.579   2.398 -0.1588 -0.9990 -1.1986
  900MOL0     H21458   7.197   7.375   2.316 -1.8128  0.5806 -0.9541
  900MOL0     H21459   7.243   7.447   2.481  1.7620  2.3010  0.6163
  900MOL0     H21460   7.259   7.390   2.108  1.2557 -1.2511 -0.9217
  900MOL0     H21461   7.346   7.432   1.887  3.4736 -1.6774 -1.0908
  900MOL0     H21462   7.801   7.385   1.646 -0.2795  0.0295 -1.6588
  900MOL0     H21463   7.879   7.397   1.418  0.5305  2.0117 -1.7196
  900MOL0     H21464   7.780   7.700   1.094  0.0061 -0.2759 -1.6391
  900MOL0     H21465   7.768   7.799   1.235 -0.6020 -0.7982 -0.3501
  900MOL0     H21466   8.013   7.708   1.081  3.1186  1.3897 -0.8092
  900MOL0     H21467   7.914   7.863   1.048 -1.0213 -0.9269  0.2784
  900MOL0     H21468   7.973   7.936   1.282 -0.4581  0.1091 -0.2258
  900MOL0     H21469   8.096   7.802   1.286  2.0103  1.8514  0.4483
  900MOL0     H21470   8.159   8.056   1.249 -1.6198 -1.9200  1.7476
  900MOL0     H21471   8.113   8.035   1.082  0.3793  0.4866 -0.5492
  900MOL0     H21472   8.290   7.903   1.027  4.2269 -3.5427  0.0080
  900MOL0     H21473   8.343   7.857   1.188 -1.1209 -3.4544 -2.4408
  900MOL0     H21474   8.333   8.133   1.055  1.1302  2.5140  2.8884
  900MOL0     H21475   8.400   8.101   1.218  0.0381 -2.3897  0.8092
  900MOL0     H21476   8.544   8.016   0.973 -0.4423  3.0083 -1.0087
  900MOL0     H21477   8.581   7.945   1.131  2.8766 -0.4553 -2.6960
  900MOL0     H21478   8.613   8.162   1.238 -0.1457 -1.9089  0.8042
  900MOL0     H21479   8.733   8.109   1.112 -0.1965  0.6221  0.2966
  900MOL0     H21480   7.816   7.822   1.419 -3.7369  0.6390  0.9413
  900MOL0     H21481   7.721   7.811   1.661 -1.8159  0.5672 -1.3783
  900MOL0     H21482   7.696   7.615   2.066 -0.3471  1.0309  0.7433
  900MOL0     H21483   7.589   7.565   2.282 -1.7076 -0.7680  1.4862
  900MOL0     H21484   7.043   7.609   1.083 -3.3637 -2.2041 -2.2428
  900MOL0     H21485   6.938   7.417   1.016  2.7183  2.1279 -4.2493
  900MOL0     H21486   6.933   6.968   1.138 -2.8685  1.3588  1.5385
  900MOL0     H21487   6.844   6.739   1.130 -0.4922 -0.7297  0.3344
  900MOL0     H21488   6.764   6.438   0.895 -0.9045 -0.5512 -0.7221
  900MOL0     H21489   6.908   6.537   0.911  1.3695 -2.7601 -1.4614
  900MOL0     H21490   6.828   6.633   0.676 -2.7205  0.4494 -0.3721
  900MOL0     H21491   6.700   6.510   0.687 -0.3659 -0.5115 -0.4392
  900MOL0     H21492   6.862   6.421   0.543  1.2731 -3.4788 -0.0969
  900MOL0     H21493   6.871   6.320   0.684 -0.3448 -2.3705 -3.7223
  900MOL0     H21494   7.062   6.488   0.757 -2.2965 -0.8311  0.9840
  900MOL0     H21495   7.100   6.343   0.674 -0.1848  1.4784  2.3156
  900MOL0     H21496   7.164   6.635   0.365 -0.6015  0.7683 -1.2309
  900MOL0     H21497   6.699   6.802   0.739  0.5827  2.0926  0.5418
  900MOL0     H21498   6.760   7.127   0.693  0.7883  1.2034 -2.8339
  900MOL0     H21499   6.914   7.047   0.640  0.3821 -0.8458  1.4013
  900MOL0     H21500   6.746   6.982   0.605  4.8542 -2.4040 -2.6045
  901MOL0     O21501   1.785   1.749   0.912 -0.0195 -0.0536  0.1080
  901MOL0     C21502   1.807   1.852   0.858  0.4456  1.0265 -0.1269
  901MOL0     O21503   1.743   1.969   0.872  0.5805  0.6572 -1.2792
  901MOL0     C21504   1.641   1.979   0.967 -0.6543 -0.1579  0.6624
  901MOL0     C21505   1.647   2.094   1.037  0.0334  0.0539  0.3351
  901MOL0     C21506   1.562   2.119   1.147 -0.7547 -0.5983 -0.4425
  901MOL0     C21507   1.470   2.024   1.189  0.2577  1.0178 -0.4053
  901MOL0     O21508   1.394   2.040   1.299  0.2464 -0.2095 -0.7380
  901MOL0     C21509   1.459   2.062   1.421 -0.3667 -0.5898 -0.2631
  901MOL0     C21510   1.470   1.941   1.520  0.0593 -0.1423 -0.6326
  901MOL0     C21511   1.555   1.966   1.644 -0.1417  0.7782  0.0278
  901MOL0     C21512   1.697   1.907   1.645  0.6413 -0.7707  0.2623
  901MOL0     C21513   1.788   1.974   1.540 -0.1572 -0.1317 -0.7170
  901MOL0     C21514   1.933   1.912   1.547  0.2826  0.4165 -0.7687
  901MOL0     C21515   2.012   1.992   1.653 -0.8523 -0.3303  0.3062
  901MOL0     C21516   2.070   2.119   1.601  0.3555  0.1309  0.0492
  901MOL0     N21517   2.113   2.199   1.711 -1.3453  0.4621  0.0189
  901MOL0     C21518   2.078   2.329   1.745  0.2938  0.3459  0.2298
  901MOL0     C21519   2.167   2.367   1.843  0.1138  0.3940  0.0833
  901MOL0     C21520   2.187   2.508   1.888  0.3419  0.1627  0.3711
  901MOL0     C21521   2.298   2.590   1.820 -0.1153 -1.0219 -0.0390
  901MOL0     C21522   2.250   2.612   1.682 -0.0410  1.0284 -0.6849
  901MOL0     C21523   2.344   2.711   1.614  0.4238 -0.1172 -0.2952
  901MOL0     O21524   2.471   2.667   1.617 -0.0881  0.3374  0.4268
  901MOL0     C21525   2.561   2.746   1.538  0.0381  0.7205  0.4457
  901MOL0     C21526   2.649   2.682   1.457 -0.1544 -0.4498  0.2672
  901MOL0     C21527   2.718   2.741   1.350 -0.6854  0.2949 -0.1541
  901MOL0     C21528   2.712   2.882   1.334 -0.2421  1.1224  0.4271
  901MOL0     C21529   2.789   2.961   1.227  0.4161 -0.9439 -0.7208
  901MOL0     O21530   2.882   2.882   1.163 -0.1698  0.7552 -0.0877
  901MOL0     C21531   2.912   2.927   1.036  0.0406  0.1238 -1.2351
  901MOL0     C21532   2.825   2.991   0.947 -0.1779 -0.5089  1.2005
  901MOL0     C21533   2.873   3.039   0.824 -0.2803  0.2463  0.6027
  901MOL0     C21534   3.009   3.029   0.788 -0.2476 -0.2175 -0.0178
  901MOL0     O21535   3.053   3.083   0.671 -0.4827  0.5341 -0.5488
  901MOL0     C21536   3.190   3.061   0.615  1.2162 -0.9962  0.3990
  901MOL0     C21537   3.208   3.146   0.480  0.2760  0.8673  0.2204
  901MOL0     C21538   3.144   3.079   0.346  0.7007 -0.1530  0.5010
  901MOL0     C21539   2.987   3.086   0.321 -0.0214  0.0767 -0.1611
  901MOL0     C21540   2.947   3.216   0.255  0.4211 -0.0951 -0.3058
  901MOL0     C21541   2.796   3.231   0.279 -0.5738  0.6270 -0.1711
  901MOL0     C21542   2.721   3.331   0.188  0.4432 -0.4213  0.2854
  901MOL0     C21543   2.730   3.297   0.042 -0.3917  0.3858 -0.3859
  901MOL0    Cl21544   2.621   3.401  -0.064  0.0525 -0.7521 -0.0654
  901MOL0     C21545   3.092   2.950   0.876  0.5362  0.9404 -0.7924
  901MOL0     C21546   3.048   2.921   1.001  0.5690  0.5898  0.0389
  901MOL0     O21547   2.787   3.082   1.219  0.1347  0.7870  0.4901
  901MOL0     C21548   2.626   2.948   1.422 -0.9339  0.7150  0.1418
  901MOL0     C21549   2.561   2.884   1.528  0.3302  0.1214  0.7910
  901MOL0     N21550   2.265   2.268   1.856 -0.8325 -0.3166 -0.8591
  901MOL0     N21551   2.228   2.169   1.785 -0.4958  0.0298 -0.4681
  901MOL0     C21552   1.450   1.913   1.104  0.7402  0.3045 -1.0135
  901MOL0     C21553   1.540   1.888   0.999 -1.1979 -0.5870  0.9685
  901MOL0     C21554   1.933   1.857   0.777  0.1582  0.2893  0.3206
  901MOL0     C21555   1.982   1.983   0.728  1.0840  0.1709  0.2230
  901MOL0     C21556   2.102   2.001   0.667 -1.0271  0.2446  0.2333
  901MOL0     C21557   2.188   1.888   0.644  0.0394 -0.4849  0.3528
  901MOL0     O21558   2.310   1.912   0.575  0.5890  0.0985  0.6897
  901MOL0     C21559   2.401   1.808   0.588  0.2203 -0.3304 -0.4587
  901MOL0     C21560   2.531   1.848   0.522 -0.1726  0.1316  0.4017
  901MOL0     C21561   2.590   1.986   0.566  1.2623  0.2747 -0.2723
  901MOL0     C21562   2.739   2.000   0.547 -0.0910 -0.6623  0.6631
  901MOL0     C21563   2.789   2.116   0.619  1.8118  0.7062  0.6453
  901MOL0     C21564   2.841   2.207   0.681  0.5891 -0.2412  1.1606
  901MOL0     C21565   2.124   1.758   0.666  0.5973 -0.2223  0.1518
  901MOL0     C21566   2.004   1.739   0.739  1.1229 -1.0695 -0.6099
  901MOL0     C21567   1.968   1.590   0.770  1.2398 -0.5439  0.3263
  901MOL0     H21568   1.715   2.172   1.004  0.1971 -1.6096 -3.9243
  901MOL0     H21569   1.549   2.221   1.182  0.1705 -0.5445 -0.2466
  901MOL0     H21570   1.551   2.113   1.389 -0.9457 -0.3529 -1.6112
  901MOL0     H21571   1.402   2.142   1.470 -1.0919  0.5699 -2.8264
  901MOL0     H21572   1.500   1.845   1.476  0.2976  0.8475 -2.7573
  901MOL0     H21573   1.369   1.930   1.561  0.9170 -2.5774  1.1036
  901MOL0     H21574   1.495   1.912   1.718 -0.8271  2.4427  0.7263
  901MOL0     H21575   1.562   2.073   1.665  0.6040  0.9613 -1.0361
  901MOL0     H21576   1.728   1.912   1.750  0.3194 -1.6942  0.4173
  901MOL0     H21577   1.679   1.800   1.628 -2.8577 -0.6238  2.1738
  901MOL0     H21578   1.748   1.945   1.442 -0.2817 -2.6029 -0.0056
  901MOL0     H21579   1.791   2.083   1.547  0.7753 -0.2881  2.4267
  901MOL0     H21580   1.927   1.807   1.575  1.3655  0.7444  0.8636
  901MOL0     H21581   1.982   1.922   1.450 -0.0226  4.1336 -0.6834
  901MOL0     H21582   2.105   1.940   1.676  1.7935  3.0547 -1.6994
  901MOL0     H21583   1.952   2.014   1.742 -0.0780  0.3726  0.6731
  901MOL0     H21584   2.160   2.085   1.549 -0.1813  1.9532 -2.2660
  901MOL0     H21585   2.007   2.175   1.531  2.1470  0.3452 -1.4730
  901MOL0     H21586   1.990   2.378   1.704 -1.1205 -1.8536  0.4194
  901MOL0     H21587   2.092   2.563   1.889 -0.1691 -0.6997  0.2309
  901MOL0     H21588   2.221   2.509   1.992  0.9537 -1.3222  0.2012
  901MOL0     H21589   2.316   2.685   1.870 -0.3270 -1.4771  0.9430
  901MOL0     H21590   2.393   2.536   1.828 -0.0165 -0.5501  3.4789
  901MOL0     H21591   2.156   2.667   1.690 -0.7919 -0.2784 -0.0708
  901MOL0     H21592   2.241   2.523   1.619 -1.8201 -4.1517  5.7338
  901MOL0     H21593   2.346   2.808   1.665  0.8965 -0.8364  1.0800
  901MOL0     H21594   2.307   2.727   1.512 -1.6688 -1.3942  0.1978
  901MOL0     H21595   2.666   2.578   1.482 -0.0340 -1.0880 -2.2671
  901MOL0     H21596   2.785   2.682   1.287 -3.5289 -2.6169 -0.6983
  901MOL0     H21597   2.719   3.010   0.961 -0.7985 -1.9933 -1.0299
  901MOL0     H21598   2.805   3.098   0.764 -1.0782  0.4626  1.6708
  901MOL0     H21599   3.264   3.090   0.691 -0.7723 -0.0393  2.0435
  901MOL0     H21600   3.193   2.953   0.596  2.3318 -0.5685 -2.3349
  901MOL0     H21601   3.171   3.249   0.487  2.1917  1.7862 -1.8874
  901MOL0     H21602   3.317   3.151   0.470  0.1520  1.8503 -0.8620
  901MOL0     H21603   3.205   3.121   0.265 -2.2288  2.9020 -0.3581
  901MOL0     H21604   3.171   2.973   0.347 -0.9203 -0.6999 -2.3546
  901MOL0     H21605   2.939   3.060   0.416  1.9393 -2.0610  0.3483
  901MOL0     H21606   2.974   3.004   0.251  0.1734  0.4224 -0.6094
  901MOL0     H21607   2.965   3.203   0.148  0.7828 -0.6116 -0.1870
  901MOL0     H21608   3.004   3.296   0.304 -2.2348  2.3784 -1.0453
  901MOL0     H21609   2.749   3.134   0.259  1.2235 -1.0349  2.9851
  901MOL0     H21610   2.768   3.265   0.379  1.6500  1.1784  0.3259
  901MOL0     H21611   2.754   3.436   0.190 -2.0334  0.5051 -1.4908
  901MOL0     H21612   2.614   3.332   0.209  0.4978 -0.3400  0.5573
  901MOL0     H21613   2.835   3.294   0.012  1.3061  3.0664  4.1809
  901MOL0     H21614   2.706   3.191   0.031  2.3691 -0.2711 -0.7429
  901MOL0     H21615   3.198   2.933   0.857  0.1457 -2.6256 -0.3358
  901MOL0     H21616   3.099   2.850   1.065 -1.6867 -2.1302 -0.9604
  901MOL0     H21617   2.620   3.055   1.406 -2.9752  0.5385 -0.5086
  901MOL0     H21618   2.491   2.924   1.600 -0.3975  0.5573 -0.1250
  901MOL0     H21619   1.368   1.844   1.120 -0.6721  2.1782  0.2655
  901MOL0     H21620   1.543   1.792   0.950 -0.4107 -0.9757  1.7499
  901MOL0     H21621   1.931   2.074   0.757 -0.5253 -0.6541  0.1341
  901MOL0     H21622   2.140   2.095   0.627 -0.8526 -0.5291 -1.5133
  901MOL0     H21623   2.373   1.710   0.549 -0.5018  0.7199 -2.7457
  901MOL0     H21624   2.415   1.797   0.696 -2.7250 -0.3976 -0.0143
  901MOL0     H21625   2.517   1.854   0.414  4.9674  1.6461 -0.4642
  901MOL0     H21626   2.608   1.774   0.544 -1.5445 -1.0475  1.3960
  901MOL0     H21627   2.562   2.021   0.666  3.7653 -0.1818  0.6344
  901MOL0     H21628   2.552   2.060   0.494 -0.9459  1.1256  1.6143
  901MOL0     H21629   2.777   1.914   0.603 -1.5887 -0.6649  1.7394
  901MOL0     H21630   2.760   2.009   0.440  0.1725 -1.0647  0.6777
  901MOL0     H21631   2.867   2.295   0.737  0.4687 -0.0270  0.8804
  901MOL0     H21632   2.185   1.670   0.647  0.6285 -0.1618 -0.0305
  901MOL0     H21633   1.983   1.571   0.876  0.7736  1.2032  0.7485
  901MOL0     H21634   1.861   1.570   0.761  1.3770 -0.5393 -1.8339
  901MOL0     H21635   2.025   1.519   0.709  0.9555 -4.5153  4.1971
  902MOL0     O21636   1.540  11.521   3.387  0.9024 -0.8910  0.8256
  902MOL0     C21637   1.506  11.641   3.415 -0.1577  0.1463  0.7681
  902MOL0     O21638   1.383  11.680   3.466 -0.1371  0.0218  0.1900
  902MOL0     C21639   1.283  11.588   3.502 -0.5264 -0.5943 -0.3698
  902MOL0     C21640   1.151  11.637   3.518  0.7262 -0.1196 -0.2501
  902MOL0     C21641   1.048  11.559   3.581  0.1635 -0.1974 -0.1240
  902MOL0     C21642   1.084  11.429   3.636  0.5475  0.2733 -0.1464
  902MOL0     O21643   0.995  11.336   3.692 -0.0766  0.3213  0.1615
  902MOL0     C21644   0.891  11.393   3.782 -0.4864  0.4423  0.8766
  902MOL0     C21645   0.751  11.335   3.769  0.4730 -0.0969 -1.5757
  902MOL0     C21646   0.716  11.330   3.617  0.1577 -0.5816 -0.0154
  902MOL0     C21647   0.579  11.397   3.597 -0.3987 -0.5327 -0.5443
  902MOL0     C21648   0.606  11.550   3.595 -0.2109  1.2260 -0.6979
  902MOL0     C21649   0.487  11.628   3.543  0.3345  0.2715  0.2858
  902MOL0     C21650   0.371  11.641   3.651  0.6804 -0.7338  0.5048
  902MOL0     C21651   0.251  11.708   3.580 -0.6574 -0.1373 -0.0524
  902MOL0     N21652   0.294  11.845   3.553  0.1474 -0.5333 -0.0653
  902MOL0     C21653   0.291  11.942   3.649 -0.3528  0.5602  0.0285
  902MOL0     C21654   0.319  12.060   3.582 -0.3541  0.3231  0.1179
  902MOL0     C21655   0.342  12.189   3.667  0.7439  0.3726 -0.5843
  902MOL0     C21656   0.210  12.262   3.690  0.9389 -0.6457 -0.5887
  902MOL0     C21657   0.233  12.409   3.729  0.4880 -0.6331 -0.1432
  902MOL0     C21658   0.285  12.504   3.619 -1.3109 -0.3021 -0.1816
  902MOL0     O21659   0.348  12.605   3.686  0.0012 -0.4620  0.1372
  902MOL0     C21660   0.359  12.733   3.633 -0.4221 -0.6646 -0.1105
  902MOL0     C21661   0.398  12.835   3.721 -0.2517  0.2176  0.0429
  902MOL0     C21662   0.412  12.967   3.695 -0.1634  0.1883 -0.0286
  902MOL0     C21663   0.394  13.015   3.563 -0.1713  0.0197 -1.2802
  902MOL0     C21664   0.420  13.156   3.536 -0.0776 -0.0183 -0.0584
  902MOL0     O21665   0.486  13.234   3.634 -0.1898  0.3721  0.3739
  902MOL0     C21666   0.480  13.368   3.607 -0.9204  0.7052 -0.0979
  902MOL0     C21667   0.399  13.449   3.677 -0.0358 -0.0265 -1.1467
  902MOL0     C21668   0.420  13.593   3.662 -0.8871 -0.4503 -0.5491
  902MOL0     C21669   0.496  13.641   3.561 -0.0517  0.9552  0.7852
  902MOL0     O21670   0.497  13.775   3.549 -0.2580  0.5654  1.1594
  902MOL0     C21671   0.483  13.827   3.410  0.9071 -0.1948 -0.0642
  902MOL0     C21672   0.532  13.972   3.388 -0.4852 -0.6877 -0.9986
  902MOL0     C21673   0.523  14.083   3.502 -0.4657  1.3667  0.0030
  902MOL0     C21674   0.389  14.124   3.545 -0.2016 -0.0326 -0.0353
  902MOL0     C21675   0.389  14.257   3.623  0.4820  0.7839 -0.2241
  902MOL0     C21676   0.393  14.219   3.777  0.1483 -0.8462 -0.2915
  902MOL0     C21677   0.404  14.362   3.852 -0.5116 -0.2835 -0.4556
  902MOL0     C21678   0.385  14.337   4.008  0.1296  0.2736 -0.5542
  902MOL0    Cl21679   0.531  14.271   4.083 -0.1150 -0.1254 -0.2168
  902MOL0     C21680   0.574  13.551   3.481  0.3267  0.5319 -0.2881
  902MOL0     C21681   0.569  13.416   3.506  0.6036 -0.0142 -0.5201
  902MOL0     O21682   0.391  13.185   3.420  0.2251 -0.4846 -0.5240
  902MOL0     C21683   0.352  12.917   3.462  0.4840 -0.0050 -1.4234
  902MOL0     C21684   0.338  12.782   3.501 -0.1960  0.3734  1.0824
  902MOL0     N21685   0.328  12.030   3.444 -0.1093  0.5096 -0.2749
  902MOL0     N21686   0.317  11.902   3.433 -0.0955  0.4239 -0.2086
  902MOL0     C21687   1.211  11.383   3.609 -0.4539  0.4382  0.2762
  902MOL0     C21688   1.310  11.463   3.545  0.7243 -0.2208 -0.2380
  902MOL0     C21689   1.622  11.736   3.397  1.1870  0.0723  0.0640
  902MOL0     C21690   1.698  11.729   3.278 -0.1799 -0.5645 -0.7549
  902MOL0     C21691   1.803  11.816   3.258 -0.0346  0.1113  0.0018
  902MOL0     C21692   1.852  11.899   3.352 -0.1033  0.4584 -0.1436
  902MOL0     O21693   1.973  11.967   3.353 -1.1304  0.8825  0.4492
  902MOL0     C21694   2.068  11.932   3.243  0.6403  0.1177 -0.1185
  902MOL0     C21695   2.191  12.006   3.267 -0.7442 -0.9126  0.5298
  902MOL0     C21696   2.312  11.968   3.180  0.7996  0.4375 -0.0860
  902MOL0     C21697   2.443  12.043   3.197 -0.9609  0.0188 -0.4618
  902MOL0     C21698   2.540  12.008   3.087  0.6224  0.7865 -0.9314
  902MOL0     C21699   2.629  11.981   3.005 -0.1136  0.5044  0.0397
  902MOL0     C21700   1.779  11.908   3.472  0.3659 -0.1687  0.1061
  902MOL0     C21701   1.653  11.839   3.492 -1.2120  0.3421 -0.4530
  902MOL0     C21702   1.564  11.897   3.601 -0.1695  0.6289 -0.1442
  902MOL0     H21703   1.102  11.727   3.481 -1.9349 -1.3731  0.0048
  902MOL0     H21704   0.943  11.588   3.588  0.1211 -0.6126  1.2600
  902MOL0     H21705   0.920  11.380   3.886  3.1700 -1.3534 -0.2048
  902MOL0     H21706   0.877  11.500   3.761 -2.1714 -0.3589 -3.1113
  902MOL0     H21707   0.678  11.400   3.816  1.8721  0.9831 -0.8162
  902MOL0     H21708   0.746  11.236   3.817 -0.2330  0.9425  0.6168
  902MOL0     H21709   0.705  11.222   3.598 -2.8124 -0.3231 -0.1759
  902MOL0     H21710   0.802  11.368   3.562  0.8822 -0.4845  1.1475
  902MOL0     H21711   0.543  11.370   3.497 -0.4236  1.8740 -1.2605
  902MOL0     H21712   0.506  11.371   3.675  1.2646  1.7304  1.9460
  902MOL0     H21713   0.633  11.589   3.693 -0.5245  1.8647 -0.8599
  902MOL0     H21714   0.697  11.568   3.537  3.9360 -1.5811  4.0551
  902MOL0     H21715   0.511  11.732   3.521  0.2924  0.9951  3.3449
  902MOL0     H21716   0.450  11.570   3.457 -2.5316  1.0229  0.9046
  902MOL0     H21717   0.408  11.704   3.731 -0.0933 -1.1476  1.2020
  902MOL0     H21718   0.357  11.545   3.702  0.2036 -1.0459 -0.1898
  902MOL0     H21719   0.227  11.649   3.491 -0.6940  2.2087 -1.7241
  902MOL0     H21720   0.159  11.712   3.639 -1.1319 -1.4908 -0.6686
  902MOL0     H21721   0.288  11.925   3.756  0.2051 -1.0775 -0.1936
  902MOL0     H21722   0.390  12.151   3.758 -0.5326  1.1348  0.4341
  902MOL0     H21723   0.410  12.253   3.610  0.3367  1.4024  0.0607
  902MOL0     H21724   0.150  12.250   3.599  2.5702 -2.5654 -1.5063
  902MOL0     H21725   0.174  12.206   3.777  2.3305 -3.6347 -1.7791
  902MOL0     H21726   0.313  12.412   3.804  0.5636  0.6836 -0.2464
  902MOL0     H21727   0.145  12.455   3.774  2.3194 -0.2309  3.4384
  902MOL0     H21728   0.200  12.540   3.560 -0.4072  1.1405 -0.6519
  902MOL0     H21729   0.357  12.464   3.547  3.0454  1.9886  2.4860
  902MOL0     H21730   0.419  12.794   3.820  1.2173  0.5261 -0.1228
  902MOL0     H21731   0.439  13.030   3.779  0.2819  4.1279 -2.8227
  902MOL0     H21732   0.335  13.418   3.760  2.0651  0.4737  0.7525
  902MOL0     H21733   0.390  13.670   3.732  2.1236 -0.1398  0.5278
  902MOL0     H21734   0.532  13.766   3.334  3.1384  1.8822 -0.3856
  902MOL0     H21735   0.377  13.828   3.381  1.0623  4.5970 -1.2584
  902MOL0     H21736   0.639  13.961   3.367 -0.3714  0.4400 -1.1011
  902MOL0     H21737   0.488  14.006   3.294  1.9153  1.5426 -1.4342
  902MOL0     H21738   0.594  14.048   3.578 -1.1277 -0.6653 -0.2542
  902MOL0     H21739   0.565  14.169   3.449  1.0601  1.0193  0.6028
  902MOL0     H21740   0.330  14.046   3.594  0.9500 -1.7480 -1.3012
  902MOL0     H21741   0.331  14.140   3.454  0.0049 -1.9734 -0.5356
  902MOL0     H21742   0.298  14.305   3.587 -0.5029 -2.6676 -2.9720
  902MOL0     H21743   0.475  14.323   3.604  0.5945  1.3379  1.9741
  902MOL0     H21744   0.298  14.169   3.800 -1.5657  1.4638 -1.8391
  902MOL0     H21745   0.472  14.146   3.797  0.3741  0.0823  2.8832
  902MOL0     H21746   0.322  14.420   3.809 -1.4719  1.3715  3.2261
  902MOL0     H21747   0.493  14.421   3.832 -2.1613  3.2065  1.5537
  902MOL0     H21748   0.365  14.429   4.063  1.0142 -1.0626  2.1968
  902MOL0     H21749   0.305  14.263   4.018  1.9283 -1.6193  0.7017
  902MOL0     H21750   0.628  13.589   3.396  1.2615  2.4949  1.1191
  902MOL0     H21751   0.629  13.343   3.453  2.4631  1.4380 -0.5129
  902MOL0     H21752   0.343  12.946   3.357  2.8838  1.9490 -1.1874
  902MOL0     H21753   0.309  12.718   3.418  0.9831 -0.3306  1.2000
  902MOL0     H21754   1.231  11.277   3.624 -0.3012  0.2127 -1.2973
  902MOL0     H21755   1.411  11.429   3.564  1.1986  0.1180 -1.9802
  902MOL0     H21756   1.669  11.659   3.200  0.0910  1.9906 -3.3208
  902MOL0     H21757   1.870  11.813   3.173  0.6156  0.8645  0.4747
  902MOL0     H21758   2.012  11.965   3.155 -0.7406  0.3130  0.7904
  902MOL0     H21759   2.087  11.824   3.241 -2.0275 -0.4546 -2.6893
  902MOL0     H21760   2.216  11.985   3.372 -1.8489 -2.2015  0.5679
  902MOL0     H21761   2.158  12.108   3.246 -1.6480 -1.3219 -0.1330
  902MOL0     H21762   2.274  11.984   3.078 -0.1748  1.3200  0.3913
  902MOL0     H21763   2.333  11.861   3.185 -3.7795 -0.6044  2.2818
  902MOL0     H21764   2.419  12.150   3.194 -1.9627 -0.1582  0.7160
  902MOL0     H21765   2.494  12.024   3.292 -1.3095  1.6703  0.0891
  902MOL0     H21766   2.715  11.975   2.941  1.7927  1.7274  2.3387
  902MOL0     H21767   1.815  11.971   3.553 -1.8272 -1.0853  1.8964
  902MOL0     H21768   1.517  11.990   3.571 -0.4567  0.8204  0.8732
  902MOL0     H21769   1.489  11.821   3.623 -1.3929  1.3237 -1.7290
  902MOL0     H21770   1.623  11.910   3.693 -0.3862  0.7125 -0.0180
  903MOL0     O21771   3.034   7.867   9.012 -0.4245 -0.2995  0.7454
  903MOL0     C21772   2.933   7.801   9.018 -0.6473  0.3860 -1.1837
  903MOL0     O21773   2.854   7.774   8.909 -0.1662  0.0468 -0.3117
  903MOL0     C21774   2.880   7.829   8.787 -0.2335  0.6878 -0.3363
  903MOL0     C21775   2.864   7.753   8.670 -0.8180  0.1019 -0.6164
  903MOL0     C21776   2.887   7.800   8.543 -0.1823 -0.3604  0.1774
  903MOL0     C21777   2.941   7.917   8.514 -0.8829 -0.3047  0.2816
  903MOL0     O21778   2.966   7.950   8.383 -0.5367  0.3342  0.2255
  903MOL0     C21779   3.001   8.081   8.340  0.0566  0.8775  0.1078
  903MOL0     C21780   2.945   8.104   8.205  0.4761 -0.2378 -0.8078
  903MOL0     C21781   2.984   8.018   8.074 -0.1467  0.3098  0.3231
  903MOL0     C21782   3.130   7.981   8.048 -0.2428  0.1065  0.2622
  903MOL0     C21783   3.157   7.929   7.911  0.5464  0.3858  0.3280
  903MOL0     C21784   3.188   8.029   7.805 -0.4802 -0.9786 -0.4117
  903MOL0     C21785   3.193   7.973   7.661 -0.5272 -0.6970 -0.0731
  903MOL0     C21786   3.243   7.828   7.640 -0.8629  0.4723 -0.3152
  903MOL0     N21787   3.152   7.714   7.676 -1.0442  0.2133 -0.8224
  903MOL0     C21788   3.180   7.618   7.769  0.6324  0.2691  0.0088
  903MOL0     C21789   3.067   7.540   7.780 -0.3294  0.9458 -0.0565
  903MOL0     C21790   3.034   7.442   7.891  0.7297  0.1027  0.4052
  903MOL0     C21791   3.123   7.318   7.898 -0.2861  0.1791  0.8108
  903MOL0     C21792   3.083   7.209   8.003  0.3769  0.2638 -0.1780
  903MOL0     C21793   3.130   7.065   7.973  0.0395  0.3502  0.6607
  903MOL0     O21794   3.257   7.038   8.044 -0.2657  0.5447 -0.2287
  903MOL0     C21795   3.259   6.926   8.123 -0.2703 -0.8436  0.6508
  903MOL0     C21796   3.142   6.874   8.192  0.4923 -0.0547  0.2405
  903MOL0     C21797   3.132   6.744   8.234  0.4703  0.8420 -0.0267
  903MOL0     C21798   3.244   6.659   8.211 -0.0099  0.2448  0.1261
  903MOL0     C21799   3.230   6.509   8.241  0.1552 -0.7030 -0.4634
  903MOL0     O21800   3.123   6.475   8.303 -0.4505 -0.4705 -0.4591
  903MOL0     C21801   3.107   6.343   8.349  0.7704 -0.3297  0.3798
  903MOL0     C21802   2.992   6.278   8.307  0.1706  0.5028 -0.2746
  903MOL0     C21803   2.958   6.150   8.360  0.0156  0.4490  0.7852
  903MOL0     C21804   3.026   6.091   8.464  0.6962 -0.9772 -1.1868
  903MOL0     O21805   2.979   5.990   8.534  0.3515  0.0949 -0.4995
  903MOL0     C21806   3.070   5.880   8.550  0.5184  0.2039  0.3904
  903MOL0     C21807   2.991   5.752   8.558  0.0656  0.7618 -0.2035
  903MOL0     C21808   3.076   5.622   8.552 -0.4482 -0.2203 -0.5134
  903MOL0     C21809   3.158   5.596   8.677  0.0503  0.5400  0.2016
  903MOL0     C21810   3.206   5.460   8.670 -0.0270 -0.2625  0.1352
  903MOL0     C21811   3.276   5.422   8.809  0.7066  0.0005 -0.3202
  903MOL0     C21812   3.305   5.277   8.821  0.4474  0.2780 -0.5581
  903MOL0     C21813   3.375   5.233   8.954  0.6707  0.7566  0.5011
  903MOL0    Cl21814   3.276   5.279   9.090  0.3414 -0.5156 -0.1523
  903MOL0     C21815   3.143   6.157   8.512  0.1161 -0.1763  0.6553
  903MOL0     C21816   3.179   6.276   8.455 -0.8986 -0.0377 -0.7599
  903MOL0     O21817   3.322   6.432   8.207 -0.9219 -0.0184 -0.2344
  903MOL0     C21818   3.354   6.712   8.143  0.1831  0.9296  0.0436
  903MOL0     C21819   3.365   6.839   8.102  0.3380 -0.6113 -0.2251
  903MOL0     N21820   2.992   7.580   7.676  0.7506 -0.3623  0.3245
  903MOL0     N21821   3.034   7.688   7.625  0.1006  0.0580 -0.0780
  903MOL0     C21822   2.964   8.007   8.623  0.3551  0.5631 -0.0893
  903MOL0     C21823   2.933   7.955   8.757 -0.1181  0.8193 -0.7654
  903MOL0     C21824   2.916   7.747   9.154 -0.1798  0.1796 -0.5062
  903MOL0     C21825   3.008   7.666   9.216  0.2744  0.0653  0.1155
  903MOL0     C21826   3.008   7.636   9.352 -0.0366  0.6359  0.2021
  903MOL0     C21827   2.912   7.702   9.433 -0.3112 -0.1820  0.9169
  903MOL0     O21828   2.903   7.661   9.562 -0.6903  0.6141 -1.0553
  903MOL0     C21829   2.823   7.543   9.574 -0.2422  0.1313  0.1583
  903MOL0     C21830   2.848   7.466   9.709  0.4581  0.0838  0.3367
  903MOL0     C21831   2.723   7.437   9.792 -0.3114 -0.7389 -0.0833
  903MOL0     C21832   2.623   7.348   9.723  0.6187 -0.2293 -0.6984
  903MOL0     C21833   2.554   7.261   9.821 -0.4953 -0.0701 -0.3690
  903MOL0     C21834   2.497   7.171   9.875 -0.0834 -0.1720  0.3723
  903MOL0     C21835   2.820   7.782   9.372  0.3498  0.0075 -0.4121
  903MOL0     C21836   2.819   7.807   9.230  0.7458 -0.8367  0.3276
  903MOL0     C21837   2.710   7.908   9.185  0.1967 -0.8634 -0.3801
  903MOL0     H21838   2.838   7.650   8.691 -1.7609  0.4260 -0.1277
  903MOL0     H21839   2.867   7.723   8.470  2.6121 -2.4761  1.4705
  903MOL0     H21840   2.982   8.152   8.421  1.1723  0.4083  0.7973
  903MOL0     H21841   3.110   8.090   8.336 -0.0394  2.3274  0.2335
  903MOL0     H21842   2.969   8.208   8.183 -2.5074  0.6577 -0.3529
  903MOL0     H21843   2.836   8.097   8.219  0.7779 -1.3043  1.5272
  903MOL0     H21844   2.937   8.071   7.990  1.9780  3.5991  0.9963
  903MOL0     H21845   2.935   7.921   8.072  1.2934 -0.4296 -0.8826
  903MOL0     H21846   3.198   8.063   8.073  0.5580 -0.4418 -0.0629
  903MOL0     H21847   3.161   7.913   8.128  3.7486  0.9569 -0.3561
  903MOL0     H21848   3.235   7.853   7.920  1.7399  1.6277  0.7219
  903MOL0     H21849   3.065   7.882   7.874  1.3048 -0.1711 -0.9431
  903MOL0     H21850   3.115   8.108   7.823 -1.6345 -2.0722 -0.0696
  903MOL0     H21851   3.282   8.079   7.828 -0.7160 -1.6944  2.4527
  903MOL0     H21852   3.261   8.041   7.609  0.7093 -2.4923 -0.8961
  903MOL0     H21853   3.094   7.983   7.615  1.5761  0.5730 -4.8645
  903MOL0     H21854   3.275   7.822   7.535  0.8222  3.1322 -0.0601
  903MOL0     H21855   3.334   7.843   7.698 -0.6592  2.6377 -1.0632
  903MOL0     H21856   3.268   7.617   7.832  3.4797  2.1498 -3.5515
  903MOL0     H21857   3.035   7.498   7.986 -0.0791  1.3802 -0.3080
  903MOL0     H21858   2.930   7.416   7.867  0.9693  1.7281 -2.8647
  903MOL0     H21859   3.119   7.271   7.800 -1.1356  0.6496  0.6157
  903MOL0     H21860   3.227   7.351   7.905 -0.5928  1.9629 -1.7857
  903MOL0     H21861   2.974   7.220   8.007  0.4951  1.1205  2.2918
  903MOL0     H21862   3.130   7.244   8.095  0.1604 -0.4646  0.2166
  903MOL0     H21863   3.133   7.056   7.864 -2.4293  0.5241  0.5308
  903MOL0     H21864   3.048   7.000   8.003  0.2284 -0.5855 -0.7608
  903MOL0     H21865   3.058   6.943   8.200  1.0077  0.5984  0.0706
  903MOL0     H21866   3.040   6.718   8.285 -1.0728  3.1879 -1.3909
  903MOL0     H21867   2.933   6.334   8.236  0.7256  3.9764  1.7335
  903MOL0     H21868   2.870   6.094   8.329 -0.9942 -0.3148  4.4418
  903MOL0     H21869   3.133   5.872   8.461  0.2398 -1.4968  0.3050
  903MOL0     H21870   3.129   5.886   8.642 -0.4051  1.4240  0.9188
  903MOL0     H21871   2.934   5.752   8.652  0.5059  1.2176  0.0698
  903MOL0     H21872   2.923   5.746   8.473  3.5533  0.9303 -3.2188
  903MOL0     H21873   3.010   5.535   8.542  0.1081 -0.7456  0.3087
  903MOL0     H21874   3.139   5.621   8.462  0.4851 -5.2615 -0.0578
  903MOL0     H21875   3.093   5.611   8.763  0.3275 -0.5794  0.6223
  903MOL0     H21876   3.243   5.664   8.687  0.3474  0.3905 -1.0838
  903MOL0     H21877   3.284   5.463   8.594  0.7413  1.0111  0.9324
  903MOL0     H21878   3.129   5.384   8.654  0.4108 -1.7205  3.9075
  903MOL0     H21879   3.375   5.470   8.811  0.6451  0.1618  1.7549
  903MOL0     H21880   3.237   5.466   8.901  2.3481  2.3698 -0.6648
  903MOL0     H21881   3.375   5.250   8.741  0.4562 -0.0972 -0.4259
  903MOL0     H21882   3.216   5.217   8.803 -0.6870  0.5692  3.2522
  903MOL0     H21883   3.389   5.125   8.944  0.4431  0.9206 -2.4479
  903MOL0     H21884   3.473   5.282   8.947  1.1002 -0.2079 -0.4535
  903MOL0     H21885   3.198   6.127   8.601  1.2977  1.9476  0.7060
  903MOL0     H21886   3.269   6.324   8.492 -2.8563  1.0930  3.0511
  903MOL0     H21887   3.427   6.638   8.113 -4.0081 -3.2716 -1.1214
  903MOL0     H21888   3.455   6.861   8.046  1.6326 -0.6755  1.7167
  903MOL0     H21889   3.031   8.093   8.622 -0.2947  1.4440  4.6796
  903MOL0     H21890   2.936   8.023   8.843  0.4951  0.1860 -0.2707
  903MOL0     H21891   3.085   7.614   9.159  0.8730  0.7735  0.2605
  903MOL0     H21892   3.079   7.574   9.405 -2.2113  0.2226  2.8823
  903MOL0     H21893   2.852   7.478   9.492  0.2550  0.2160  0.2635
  903MOL0     H21894   2.717   7.570   9.570 -0.3743 -0.1475  1.2882
  903MOL0     H21895   2.917   7.532   9.762  1.5895 -0.0229 -0.9609
  903MOL0     H21896   2.904   7.374   9.691  0.4413 -0.2846  2.0309
  903MOL0     H21897   2.679   7.533   9.817  0.9340 -1.0990  4.4149
  903MOL0     H21898   2.760   7.385   9.881 -1.5552 -0.4062  0.6511
  903MOL0     H21899   2.544   7.403   9.671  1.8594  2.8415  0.4557
  903MOL0     H21900   2.676   7.295   9.644 -2.8858  0.3968 -3.7448
  903MOL0     H21901   2.460   7.091   9.936  1.0124 -0.6365  0.4510
  903MOL0     H21902   2.746   7.841   9.425  0.0163  1.3912 -2.2868
  903MOL0     H21903   2.712   8.005   9.236 -0.2970  0.1492 -2.1963
  903MOL0     H21904   2.708   7.945   9.082 -2.2938 -0.8888 -0.4249
  903MOL0     H21905   2.614   7.858   9.201 -2.9434  4.0216 -1.5551
  904MOL0     O21906   2.469   7.992   9.423  0.3123  0.4793 -0.1955
  904MOL0     C21907   2.462   8.099   9.363 -0.7078 -0.3144  0.1104
  904MOL0     O21908   2.547   8.208   9.379  0.1410 -0.2496  0.0341
  904MOL0     C21909   2.647   8.187   9.472 -0.1654  0.0078  0.0240
  904MOL0     C21910   2.785   8.158   9.442  1.2331 -0.1888  0.7398
  904MOL0     C21911   2.878   8.161   9.540 -0.6231 -0.0125 -0.1052
  904MOL0     C21912   2.841   8.170   9.670  1.0302 -0.9051 -0.2206
  904MOL0     O21913   2.946   8.176   9.752 -0.3316  0.7956 -0.3502
  904MOL0     C21914   2.932   8.114   9.883  0.0830 -0.1756 -0.2563
  904MOL0     C21915   3.073   8.081   9.931 -0.3366 -0.0972  0.0707
  904MOL0     C21916   3.179   8.047   9.820  0.7905  0.3167 -0.7620
  904MOL0     C21917   3.139   7.929   9.753 -0.4670  0.3844  1.0683
  904MOL0     C21918   3.246   7.931   9.636  0.4190 -0.3308 -0.4082
  904MOL0     C21919   3.254   7.792   9.573  0.8420  0.2333  0.3407
  904MOL0     C21920   3.338   7.799   9.446  0.6149  0.2398 -0.5112
  904MOL0     C21921   3.371   7.658   9.398  0.5599  0.0326  0.2624
  904MOL0     N21922   3.404   7.665   9.265 -1.4489  0.1755 -0.8615
  904MOL0     C21923   3.470   7.768   9.191  1.1220  1.1126 -0.9625
  904MOL0     C21924   3.459   7.736   9.058 -0.8430  0.1725  0.0528
  904MOL0     C21925   3.530   7.820   8.958 -0.4522  0.8051  0.5684
  904MOL0     C21926   3.474   7.794   8.826 -0.1623 -0.6998  0.0768
  904MOL0     C21927   3.339   7.862   8.797  0.6862 -0.6929 -0.3614
  904MOL0     C21928   3.287   7.852   8.652  1.2207 -0.0405 -0.0704
  904MOL0     O21929   3.378   7.890   8.547 -0.9136  0.5767  0.9045
  904MOL0     C21930   3.361   8.017   8.489 -0.0026 -0.2374  0.8753
  904MOL0     C21931   3.296   8.134   8.534  0.3405  0.0845  0.4774
  904MOL0     C21932   3.270   8.245   8.450 -1.2690  0.7781 -0.0764
  904MOL0     C21933   3.335   8.241   8.321 -0.7630 -0.8590 -0.4789
  904MOL0     C21934   3.325   8.360   8.236 -1.6951  0.4077  0.1164
  904MOL0     O21935   3.229   8.445   8.286 -0.3306  0.5984  0.5924
  904MOL0     C21936   3.217   8.555   8.205 -0.0004  0.0925 -0.3888
  904MOL0     C21937   3.313   8.661   8.221  0.3540  0.1184 -0.1132
  904MOL0     C21938   3.286   8.778   8.146 -0.3455  0.0169 -0.3082
  904MOL0     C21939   3.177   8.783   8.063 -0.5367 -1.0628 -0.0955
  904MOL0     O21940   3.149   8.898   7.992  0.6346  0.2019 -0.9774
  904MOL0     C21941   3.158   9.028   8.066  0.0656  0.2828  1.1013
  904MOL0     C21942   3.082   9.135   7.996 -0.4346 -0.8921 -0.2417
  904MOL0     C21943   2.938   9.093   7.961  0.8162 -0.2175  0.1997
  904MOL0     C21944   2.846   9.214   7.903 -0.9503  0.3467  0.3326
  904MOL0     C21945   2.909   9.268   7.770  0.6758 -0.7860  0.6686
  904MOL0     C21946   2.827   9.399   7.719 -0.1126  0.6356 -0.2486
  904MOL0     C21947   2.892   9.510   7.793  1.0155 -0.1325 -0.7995
  904MOL0     C21948   2.841   9.650   7.783  0.0460  0.7246 -0.1039
  904MOL0    Cl21949   2.680   9.657   7.861 -0.6263  0.2062  0.4043
  904MOL0     C21950   3.090   8.671   8.045  0.1326  0.8339  0.0989
  904MOL0     C21951   3.109   8.553   8.118  0.3804 -1.0434 -0.3907
  904MOL0     O21952   3.380   8.367   8.127 -0.1679 -0.3050  0.3037
  904MOL0     C21953   3.396   8.127   8.279 -0.7025  0.9406  0.1268
  904MOL0     C21954   3.401   8.011   8.353  0.4597 -0.0688  0.2251
  904MOL0     N21955   3.386   7.614   9.049 -0.5285  0.1384  0.6691
  904MOL0     N21956   3.359   7.578   9.173  0.2368 -0.1715  0.3305
  904MOL0     C21957   2.709   8.197   9.707 -0.6438  0.1684  0.3852
  904MOL0     C21958   2.611   8.208   9.605  0.7202 -0.1196 -0.6237
  904MOL0     C21959   2.350   8.115   9.264  0.3777  0.6817  0.3383
  904MOL0     C21960   2.292   7.993   9.213  0.9369  0.2503  0.8657
  904MOL0     C21961   2.190   7.990   9.114 -0.4451 -1.6530 -0.3444
  904MOL0     C21962   2.164   8.117   9.053  1.1542  1.2812 -0.4844
  904MOL0     O21963   2.072   8.140   8.959 -0.2057 -0.3780  0.0657
  904MOL0     C21964   1.944   8.090   8.989  0.6790  0.5462  0.2117
  904MOL0     C21965   1.840   8.103   8.883  0.3381 -0.0913 -0.0227
  904MOL0     C21966   1.709   8.054   8.928 -0.4035  0.9762  0.2411
  904MOL0     C21967   1.641   8.161   9.016 -0.3902 -0.6073  0.3545
  904MOL0     C21968   1.572   8.265   8.932  0.0175  0.2996  0.3454
  904MOL0     C21969   1.517   8.351   8.868 -1.5556 -0.5724 -0.0073
  904MOL0     C21970   2.217   8.234   9.105 -0.1018  0.7041  0.3470
  904MOL0     C21971   2.300   8.239   9.221 -0.1700  0.1686  0.3065
  904MOL0     C21972   2.357   8.364   9.262  1.1762  0.3016 -0.2858
  904MOL0     H21973   2.821   8.144   9.340  3.0654 -1.6280  1.5144
  904MOL0     H21974   2.983   8.152   9.515 -0.5560 -1.4693  0.6088
  904MOL0     H21975   2.862   8.173   9.943 -3.5185 -2.7676 -1.5125
  904MOL0     H21976   2.889   8.013   9.883 -2.4683  0.8187  0.8070
  904MOL0     H21977   3.062   7.995   9.998  0.6969  1.3987  2.3011
  904MOL0     H21978   3.117   8.162   9.990 -1.1462  0.1040  0.4197
  904MOL0     H21979   3.277   8.047   9.868 -0.1840  0.0995  1.3211
  904MOL0     H21980   3.164   8.136   9.757 -4.0595  1.8441  1.9803
  904MOL0     H21981   3.147   7.841   9.818 -0.6308 -2.8077 -2.8394
  904MOL0     H21982   3.036   7.940   9.719 -0.7594  0.2809  1.8974
  904MOL0     H21983   3.204   7.994   9.557 -0.9255 -2.5787 -1.5992
  904MOL0     H21984   3.342   7.974   9.666 -1.3943  3.0963  0.9581
  904MOL0     H21985   3.293   7.720   9.646  0.8660 -0.5461 -0.4243
  904MOL0     H21986   3.158   7.761   9.531  0.6519  2.2573 -0.8563
  904MOL0     H21987   3.435   7.847   9.464 -0.5346  2.4053  0.3263
  904MOL0     H21988   3.281   7.859   9.373 -2.2092  2.2134  2.9996
  904MOL0     H21989   3.456   7.614   9.450  1.3221  0.0328 -0.9449
  904MOL0     H21990   3.291   7.584   9.402  0.0043  0.3150 -2.9988
  904MOL0     H21991   3.520   7.857   9.226 -2.0276  2.3193  0.9195
  904MOL0     H21992   3.509   7.926   8.978 -1.8103  0.5768  0.4194
  904MOL0     H21993   3.638   7.801   8.969 -0.6845  0.2713  2.2937
  904MOL0     H21994   3.544   7.833   8.753  2.0094 -0.5255  2.1276
  904MOL0     H21995   3.457   7.689   8.801 -2.8484 -0.3112 -0.1122
  904MOL0     H21996   3.348   7.968   8.822  1.1287 -0.4559 -1.4600
  904MOL0     H21997   3.263   7.815   8.860  0.0423 -0.3764 -0.8771
  904MOL0     H21998   3.187   7.893   8.629 -0.9986 -4.7954 -0.0776
  904MOL0     H21999   3.269   7.745   8.638  2.0916 -0.5678  2.2907
  904MOL0     H22000   3.256   8.138   8.634  1.4068  1.4137  0.8753
  904MOL0     H22001   3.202   8.323   8.484 -0.4143  1.6760 -0.3940
  904MOL0     H22002   3.405   8.655   8.278  0.7761 -2.2755 -0.9472
  904MOL0     H22003   3.350   8.866   8.153 -0.9653  0.4035  5.0042
  904MOL0     H22004   3.112   9.009   8.163  0.5152  1.0238  1.4701
  904MOL0     H22005   3.262   9.063   8.075 -0.5105  1.8186  2.2344
  904MOL0     H22006   3.065   9.215   8.068 -0.4341 -0.2893 -0.9051
  904MOL0     H22007   3.140   9.163   7.907 -1.7751  2.4235 -0.2130
  904MOL0     H22008   2.947   9.015   7.884  1.8695 -3.0876  3.0306
  904MOL0     H22009   2.883   9.048   8.044  3.4365  0.4863  2.4492
  904MOL0     H22010   2.851   9.292   7.979  0.1561  0.5462  0.0750
  904MOL0     H22011   2.742   9.187   7.887 -0.9351  1.4140 -1.9260
  904MOL0     H22012   2.886   9.198   7.690 -3.5053  0.7827  0.2773
  904MOL0     H22013   3.017   9.285   7.773  0.2769  2.2153  2.4567
  904MOL0     H22014   2.846   9.395   7.612  1.1486  0.3376 -0.0323
  904MOL0     H22015   2.718   9.395   7.730  0.1029  1.2502  3.4077
  904MOL0     H22016   2.994   9.513   7.754  1.3094 -0.1251 -0.0338
  904MOL0     H22017   2.886   9.496   7.901  0.7663 -1.8483 -1.0052
  904MOL0     H22018   2.920   9.711   7.829  0.7632 -2.3413  3.1346
  904MOL0     H22019   2.815   9.666   7.678  0.8195  3.4645  0.0554
  904MOL0     H22020   3.005   8.686   7.979  1.8583 -2.0646 -3.0814
  904MOL0     H22021   3.045   8.468   8.096  2.3238 -2.5579 -0.4088
  904MOL0     H22022   3.446   8.109   8.184  0.8592 -0.6272  1.2163
  904MOL0     H22023   3.448   7.918   8.324 -1.4105 -1.0308  0.0832
  904MOL0     H22024   2.677   8.207   9.810  1.8431 -3.4063  1.7168
  904MOL0     H22025   2.507   8.215   9.634 -0.1117  0.4024 -3.4226
  904MOL0     H22026   2.327   7.894   9.243  0.1738 -0.1840  0.3637
  904MOL0     H22027   2.131   7.909   9.073 -1.2577 -0.5949 -1.3437
  904MOL0     H22028   1.916   8.129   9.087 -0.6215 -4.0682  1.9380
  904MOL0     H22029   1.940   7.983   9.014 -1.4709 -0.1092 -2.5172
  904MOL0     H22030   1.860   8.042   8.794 -2.7787 -1.4692  0.0780
  904MOL0     H22031   1.829   8.208   8.852  2.9151  0.2443 -0.0023
  904MOL0     H22032   1.722   7.960   8.984 -0.6850 -0.7589 -2.4134
  904MOL0     H22033   1.638   8.039   8.846  1.6352 -0.1058 -1.4400
  904MOL0     H22034   1.568   8.111   9.079 -2.1282 -1.3396 -2.1235
  904MOL0     H22035   1.714   8.218   9.075  0.4028  0.0734 -1.2036
  904MOL0     H22036   1.465   8.415   8.799 -1.0601 -0.0236  0.1193
  904MOL0     H22037   2.177   8.325   9.063  0.8223  1.4421  1.0065
  904MOL0     H22038   2.449   8.379   9.203 -0.2401 -1.6204 -3.2320
  904MOL0     H22039   2.300   8.453   9.233  0.1106 -0.2909 -0.0520
  904MOL0     H22040   2.384   8.373   9.367 -0.2254  0.6115  0.0663
  905MOL0     O22041   2.176   1.302   5.337  0.2746 -1.3594  0.1713
  905MOL0     C22042   2.122   1.400   5.389  0.1249  0.2809  0.5159
  905MOL0     O22043   1.986   1.433   5.367  0.0316 -0.1667  0.0047
  905MOL0     C22044   1.916   1.346   5.286 -0.0331 -0.0195 -0.0735
  905MOL0     C22045   1.897   1.390   5.153  0.2135  0.3267  0.0577
  905MOL0     C22046   1.823   1.318   5.065  0.7654  0.5115  0.1822
  905MOL0     C22047   1.766   1.197   5.107  0.7392  0.0909 -0.0896
  905MOL0     O22048   1.685   1.121   5.028 -0.4088 -0.0061  0.2692
  905MOL0     C22049   1.726   0.988   5.003  0.5228 -0.1900  0.4702
  905MOL0     C22050   1.670   0.955   4.854  0.3204  0.1302  0.3347
  905MOL0     C22051   1.767   1.007   4.745 -0.6890 -0.1362  0.8588
  905MOL0     C22052   1.730   0.969   4.600 -0.4574  0.0470 -0.5235
  905MOL0     C22053   1.816   1.041   4.499 -0.3629  0.0721  0.3940
  905MOL0     C22054   1.981   1.038   4.510  0.0505 -0.2978 -0.3262
  905MOL0     C22055   2.046   1.165   4.464  1.0265 -0.1211 -0.2365
  905MOL0     C22056   2.015   1.191   4.308 -0.4062 -0.1006  0.5725
  905MOL0     N22057   2.071   1.318   4.271  0.5053 -0.3852  0.0923
  905MOL0     C22058   2.206   1.340   4.248  0.0758  0.5998  0.4067
  905MOL0     C22059   2.218   1.463   4.207  0.1350 -0.1466  0.9112
  905MOL0     C22060   2.352   1.524   4.175  0.7488 -0.0796 -0.2102
  905MOL0     C22061   2.340   1.595   4.043 -0.0407 -0.0174  0.0355
  905MOL0     C22062   2.487   1.626   3.999 -0.2591  0.4784  0.0654
  905MOL0     C22063   2.473   1.657   3.851  0.9337 -0.4072  1.1011
  905MOL0     O22064   2.589   1.695   3.787  0.3725 -0.0790 -0.5876
  905MOL0     C22065   2.594   1.814   3.713  1.4497 -0.1518 -1.3501
  905MOL0     C22066   2.722   1.853   3.685 -0.6251  0.9618  0.5572
  905MOL0     C22067   2.759   1.963   3.614  0.3537 -0.6173  0.3803
  905MOL0     C22068   2.649   2.043   3.558 -0.2651 -0.2589  0.7106
  905MOL0     C22069   2.683   2.149   3.474 -0.9576  0.8492  0.2527
  905MOL0     O22070   2.578   2.223   3.440  0.6799  0.1750  1.1227
  905MOL0     C22071   2.595   2.344   3.380  0.0632  0.3246 -0.3554
  905MOL0     C22072   2.654   2.354   3.256  0.2290  0.6226  0.4148
  905MOL0     C22073   2.698   2.469   3.209  0.1720 -1.2876 -0.8485
  905MOL0     C22074   2.673   2.591   3.275 -0.0258  0.7876  0.0534
  905MOL0     O22075   2.728   2.707   3.241  0.0719  0.4623 -1.2656
  905MOL0     C22076   2.709   2.748   3.109 -0.8223 -0.1551 -0.1203
  905MOL0     C22077   2.765   2.885   3.099  0.1545 -0.7757  0.4179
  905MOL0     C22078   2.793   2.936   2.961  0.8871 -0.1954 -0.1669
  905MOL0     C22079   2.908   3.034   2.976 -0.2339 -1.0223 -0.1639
  905MOL0     C22080   2.924   3.117   2.849  0.1726 -0.1935  0.4708
  905MOL0     C22081   3.055   3.202   2.840  0.1683  0.2372 -0.0705
  905MOL0     C22082   3.048   3.292   2.715 -0.8326  0.3716  0.1363
  905MOL0     C22083   2.998   3.435   2.736 -0.2955 -0.0517 -0.6443
  905MOL0    Cl22084   2.821   3.456   2.719 -0.0039 -0.3274  0.1781
  905MOL0     C22085   2.601   2.586   3.393 -0.3039 -0.5232  0.5370
  905MOL0     C22086   2.569   2.464   3.450  0.2885  0.4308  0.3269
  905MOL0     O22087   2.800   2.176   3.442  0.4403 -0.0584  1.0419
  905MOL0     C22088   2.519   1.999   3.576  0.3834  1.0887  0.1737
  905MOL0     C22089   2.493   1.887   3.651 -0.5078  0.1405  0.7376
  905MOL0     N22090   2.093   1.522   4.199 -0.2755  0.5973  0.8775
  905MOL0     N22091   2.010   1.435   4.250 -0.7053  0.1422 -0.3499
  905MOL0     C22092   1.790   1.156   5.242 -0.4210 -0.0406  0.7717
  905MOL0     C22093   1.871   1.225   5.334  0.1954  0.3384 -0.1086
  905MOL0     C22094   2.207   1.474   5.489 -0.5380 -0.3604 -0.0771
  905MOL0     C22095   2.285   1.389   5.568  0.2653  0.2338  0.2353
  905MOL0     C22096   2.373   1.450   5.668 -0.1401 -0.0681  0.0115
  905MOL0     C22097   2.376   1.589   5.674 -0.7641 -0.5269 -0.2875
  905MOL0     O22098   2.467   1.659   5.761 -0.5227  1.0284  1.0028
  905MOL0     C22099   2.567   1.592   5.845 -0.6061 -0.0335 -0.1749
  905MOL0     C22100   2.694   1.535   5.774 -0.2356 -0.4585 -0.1127
  905MOL0     C22101   2.776   1.449   5.878 -0.8721 -0.2373 -0.0632
  905MOL0     C22102   2.851   1.506   5.995  0.1256 -0.9629 -0.5507
  905MOL0     C22103   2.961   1.600   5.954  0.6518  0.2405  0.1450
  905MOL0     C22104   3.048   1.683   5.940 -0.3312 -0.5768  0.0874
  905MOL0     C22105   2.300   1.670   5.584  0.1348 -0.0848  0.0230
  905MOL0     C22106   2.218   1.619   5.493  1.2948 -0.3888  0.3589
  905MOL0     C22107   2.123   1.708   5.411  0.0254  0.0146 -1.6992
  905MOL0     H22108   1.946   1.483   5.126  0.1179  0.8880  1.7242
  905MOL0     H22109   1.803   1.340   4.961  1.8553 -0.2549 -0.2146
  905MOL0     H22110   1.834   0.972   5.010  0.7526 -0.6657 -2.8173
  905MOL0     H22111   1.675   0.924   5.076  1.6035  0.1435  1.5607
  905MOL0     H22112   1.570   0.997   4.845  1.2184  1.9822 -2.3841
  905MOL0     H22113   1.653   0.850   4.826 -0.4168  0.8680 -2.1968
  905MOL0     H22114   1.864   0.968   4.777 -0.6065 -0.6031  0.0649
  905MOL0     H22115   1.763   1.115   4.759  0.2472 -0.4187  4.3471
  905MOL0     H22116   1.742   0.862   4.576  1.1727  0.2307 -0.6550
  905MOL0     H22117   1.625   0.994   4.583 -0.7175 -2.0523 -2.6461
  905MOL0     H22118   1.791   0.994   4.404  2.5006  1.3021 -1.1087
  905MOL0     H22119   1.796   1.149   4.501  0.8066  0.3152 -0.1924
  905MOL0     H22120   2.014   1.021   4.612 -0.0463 -0.5494 -0.3358
  905MOL0     H22121   2.014   0.950   4.453 -1.1353 -1.0951  0.1925
  905MOL0     H22122   2.154   1.157   4.483  1.2195  3.4533  1.0683
  905MOL0     H22123   2.012   1.253   4.521  4.6463 -0.1724  2.3963
  905MOL0     H22124   2.070   1.116   4.250  0.3435  1.7741 -1.2664
  905MOL0     H22125   1.911   1.173   4.276 -0.6557 -2.4104  2.3939
  905MOL0     H22126   2.276   1.258   4.258 -0.5259 -0.0159 -0.3043
  905MOL0     H22127   2.383   1.586   4.260  0.5439  0.4091 -0.4889
  905MOL0     H22128   2.430   1.448   4.171  2.5947  1.7793 -1.3928
  905MOL0     H22129   2.283   1.532   3.975  1.3916 -1.1087 -0.1874
  905MOL0     H22130   2.281   1.688   4.049 -4.0793 -2.0303 -3.5023
  905MOL0     H22131   2.561   1.546   4.003 -0.1377  0.5164 -1.1118
  905MOL0     H22132   2.524   1.712   4.056  1.9678 -0.2543 -0.2117
  905MOL0     H22133   2.390   1.727   3.840  2.8934  2.1261  1.6376
  905MOL0     H22134   2.445   1.565   3.798 -0.1726  0.1519  0.7005
  905MOL0     H22135   2.805   1.800   3.731 -0.6580 -1.4299 -1.8702
  905MOL0     H22136   2.864   1.989   3.605  0.1451  0.2887  0.4350
  905MOL0     H22137   2.677   2.270   3.191 -2.8307  2.2819 -3.1960
  905MOL0     H22138   2.756   2.472   3.116  0.7867  0.9293 -0.4654
  905MOL0     H22139   2.770   2.681   3.048  1.0672  0.9762  0.4405
  905MOL0     H22140   2.608   2.758   3.069  0.1985 -0.4185 -2.9774
  905MOL0     H22141   2.711   2.958   3.159 -0.9256 -0.5893 -0.7433
  905MOL0     H22142   2.864   2.873   3.144  0.7022  2.5666  0.3574
  905MOL0     H22143   2.807   2.862   2.882 -1.4908  2.4064 -3.3056
  905MOL0     H22144   2.696   2.978   2.930  0.4699 -2.1235 -1.6876
  905MOL0     H22145   3.000   2.980   3.000 -1.8835 -3.2119  1.5899
  905MOL0     H22146   2.894   3.106   3.057 -0.8465  0.9552 -1.9297
  905MOL0     H22147   2.838   3.183   2.834 -0.9866 -1.4715  1.3294
  905MOL0     H22148   2.929   3.043   2.769 -2.0672 -0.2150  0.3000
  905MOL0     H22149   3.065   3.267   2.928  1.1615  0.0264 -0.0116
  905MOL0     H22150   3.134   3.127   2.834 -1.6810 -1.8119  0.2714
  905MOL0     H22151   2.970   3.251   2.651 -2.3533  2.2734  0.6520
  905MOL0     H22152   3.137   3.285   2.652 -0.5069 -0.5416  0.6649
  905MOL0     H22153   3.041   3.469   2.831 -1.3884 -0.0363 -0.1403
  905MOL0     H22154   3.042   3.498   2.659 -0.1536 -2.5237 -2.7020
  905MOL0     H22155   2.598   2.682   3.443  0.0150 -0.7811  1.0579
  905MOL0     H22156   2.522   2.467   3.548  0.5333 -0.2736  0.4700
  905MOL0     H22157   2.426   2.049   3.549  0.7227  3.8782  3.5090
  905MOL0     H22158   2.394   1.853   3.680 -0.2681 -0.9896  0.2663
  905MOL0     H22159   1.749   1.068   5.290  0.8495 -1.4623 -0.6602
  905MOL0     H22160   1.890   1.184   5.433  1.9638 -0.6508 -0.8141
  905MOL0     H22161   2.286   1.281   5.555 -0.9230  0.3637 -1.1751
  905MOL0     H22162   2.440   1.397   5.734  1.5371  0.0671 -1.5082
  905MOL0     H22163   2.517   1.517   5.908  0.2330 -1.1944 -0.8443
  905MOL0     H22164   2.594   1.676   5.909 -1.9491 -2.2247  3.6554
  905MOL0     H22165   2.759   1.612   5.730  0.0898  2.1659  4.2753
  905MOL0     H22166   2.667   1.470   5.691  0.9765  0.7403 -1.5115
  905MOL0     H22167   2.849   1.401   5.811 -2.3070  3.0993 -4.4504
  905MOL0     H22168   2.709   1.375   5.923 -0.4531 -0.0946  0.8139
  905MOL0     H22169   2.787   1.571   6.056  1.4456  2.1676 -2.3359
  905MOL0     H22170   2.890   1.431   6.065 -0.7880 -0.9893 -0.0374
  905MOL0     H22171   3.122   1.754   5.908  2.9339 -3.0378  1.4796
  905MOL0     H22172   2.308   1.774   5.613  0.4556 -0.5805  1.8634
  905MOL0     H22173   2.044   1.747   5.476  0.2177 -0.4361 -1.1797
  905MOL0     H22174   2.188   1.787   5.372  2.9724 -1.2954  0.2061
  905MOL0     H22175   2.084   1.660   5.322  1.0435 -4.2028 -0.1032
  906MOL0     O22176   4.272   5.192   1.217  0.4013  0.2758  0.2135
  906MOL0     C22177   4.345   5.281   1.194 -0.7762 -0.7957  0.0136
  906MOL0     O22178   4.309   5.412   1.191 -0.5218 -0.1715  0.3072
  906MOL0     C22179   4.182   5.452   1.214  1.4428  0.2760 -0.0186
  906MOL0     C22180   4.086   5.436   1.113  0.5830 -0.1795 -0.4845
  906MOL0     C22181   3.945   5.464   1.135 -0.0959 -0.7551  0.7119
  906MOL0     C22182   3.913   5.525   1.254  0.2115  0.0037 -0.4727
  906MOL0     O22183   3.779   5.560   1.273 -0.6115 -0.0366 -0.3164
  906MOL0     C22184   3.732   5.559   1.410 -0.9931  0.2292  0.2443
  906MOL0     C22185   3.582   5.581   1.409  0.0683 -0.3407 -0.0819
  906MOL0     C22186   3.530   5.719   1.376  1.2007 -0.3804 -0.0255
  906MOL0     C22187   3.579   5.826   1.481 -0.1596 -0.7936  0.0896
  906MOL0     C22188   3.517   5.962   1.451  0.0205 -0.0921  0.8576
  906MOL0     C22189   3.575   6.087   1.518  0.5208  0.5261  0.5136
  906MOL0     C22190   3.545   6.091   1.673  0.5740 -0.0156 -0.5709
  906MOL0     C22191   3.437   6.203   1.713 -0.7876 -0.1247 -0.0002
  906MOL0     N22192   3.421   6.181   1.862 -0.0865 -0.3631  0.3018
  906MOL0     C22193   3.302   6.160   1.922  1.1646 -0.0935 -0.1037
  906MOL0     C22194   3.327   6.126   2.055  0.0744 -0.6389 -0.1357
  906MOL0     C22195   3.222   6.112   2.166  0.7197 -0.7209 -0.7038
  906MOL0     C22196   3.204   6.250   2.243 -0.2973 -0.6772 -0.4434
  906MOL0     C22197   3.106   6.348   2.178  0.2428  0.3653 -0.2610
  906MOL0     C22198   2.971   6.299   2.190  0.3606  0.6974  1.0229
  906MOL0     O22199   2.931   6.216   2.070 -0.6446 -0.4184  0.1189
  906MOL0     C22200   2.805   6.190   2.035  0.5378  0.1324 -0.1031
  906MOL0     C22201   2.691   6.244   2.096  0.5708  0.2295  0.8139
  906MOL0     C22202   2.562   6.220   2.042  0.1295 -0.4302 -0.0845
  906MOL0     C22203   2.534   6.126   1.936 -0.5590 -0.0861 -0.5186
  906MOL0     C22204   2.406   6.102   1.852  0.6727  0.1778  0.2450
  906MOL0     O22205   2.406   6.012   1.753 -0.4063  1.1016  0.8063
  906MOL0     C22206   2.301   6.009   1.665 -0.2086  0.2049 -0.1569
  906MOL0     C22207   2.226   5.888   1.637  0.2011  0.5329  0.2346
  906MOL0     C22208   2.124   5.880   1.539  0.5172 -0.1750  0.7384
  906MOL0     C22209   2.102   6.001   1.469 -0.3488 -0.2660  0.6142
  906MOL0     O22210   2.004   6.015   1.370 -0.2017  0.1230 -0.3077
  906MOL0     C22211   1.897   5.917   1.369 -1.4890  0.5384 -0.0023
  906MOL0     C22212   1.798   5.975   1.271  0.2684  0.1357 -0.2685
  906MOL0     C22213   1.748   6.113   1.301 -0.2776  0.8984 -0.5580
  906MOL0     C22214   1.635   6.144   1.210 -0.4534 -1.4100 -0.2974
  906MOL0     C22215   1.676   6.218   1.083 -0.3512 -0.0591  0.0496
  906MOL0     C22216   1.564   6.284   1.014  0.1850 -0.0779  0.8198
  906MOL0     C22217   1.592   6.398   0.915 -0.7303  1.0104 -0.5962
  906MOL0     C22218   1.465   6.434   0.846  0.4465 -0.2003 -0.3186
  906MOL0    Cl22219   1.511   6.571   0.734  0.4127  0.0847  0.0832
  906MOL0     C22220   2.180   6.121   1.487 -0.2459  0.0843 -0.7246
  906MOL0     C22221   2.285   6.110   1.586  0.4699  0.1267 -0.3529
  906MOL0     O22222   2.319   6.177   1.885 -0.3453  1.0848 -0.1021
  906MOL0     C22223   2.653   6.067   1.881  0.4536 -0.3824  0.7593
  906MOL0     C22224   2.781   6.098   1.929 -0.5890 -0.2179 -0.1277
  906MOL0     N22225   3.462   6.108   2.065 -0.3620 -0.6326 -0.5430
  906MOL0     N22226   3.508   6.134   1.949 -0.2613 -0.5224 -0.0921
  906MOL0     C22227   4.021   5.554   1.342  0.2553 -0.4659  0.3362
  906MOL0     C22228   4.150   5.508   1.329  0.6766 -1.5580  0.3667
  906MOL0     C22229   4.483   5.258   1.156 -1.0053 -0.6074  0.5507
  906MOL0     C22230   4.574   5.360   1.191 -0.0087 -1.2471 -1.5770
  906MOL0     C22231   4.707   5.358   1.152 -0.2930 -0.0539  0.4057
  906MOL0     C22232   4.761   5.237   1.105  0.2086  0.3502 -0.2244
  906MOL0     O22233   4.892   5.236   1.060  0.5566 -0.6517 -0.1262
  906MOL0     C22234   4.980   5.213   1.175  0.3846  0.8870 -0.0113
  906MOL0     C22235   5.121   5.271   1.147 -0.1261  0.3631 -1.1226
  906MOL0     C22236   5.223   5.243   1.256  0.2384 -0.3216 -0.0888
  906MOL0     C22237   5.364   5.318   1.243  1.1327 -0.6708 -0.2700
  906MOL0     C22238   5.424   5.361   1.366  0.0709 -0.5814  0.1780
  906MOL0     C22239   5.464   5.415   1.470 -0.4847  0.6963 -0.0729
  906MOL0     C22240   4.673   5.134   1.068  0.0424  0.8923  0.6120
  906MOL0     C22241   4.540   5.144   1.103  0.6429 -1.5200  0.2733
  906MOL0     C22242   4.450   5.033   1.056 -0.6317 -0.5488  0.2181
  906MOL0     H22243   4.127   5.403   1.018 -2.1597  0.0998 -1.8745
  906MOL0     H22244   3.879   5.436   1.053 -1.2560  1.7833  0.6907
  906MOL0     H22245   3.759   5.465   1.459 -0.7782  1.0077  1.6712
  906MOL0     H22246   3.780   5.637   1.470  2.9367 -1.2499 -0.6730
  906MOL0     H22247   3.526   5.558   1.501 -2.4652  1.2020 -1.1328
  906MOL0     H22248   3.553   5.519   1.324 -1.6237  0.1719  0.0800
  906MOL0     H22249   3.421   5.722   1.384  1.2708 -1.1094  1.5579
  906MOL0     H22250   3.567   5.733   1.274 -0.8303 -0.1417 -0.7629
  906MOL0     H22251   3.540   5.781   1.573 -1.2284  0.5855  0.3415
  906MOL0     H22252   3.687   5.840   1.480 -0.3934  1.7784 -2.5824
  906MOL0     H22253   3.523   5.978   1.343  2.3460  1.4996  1.1428
  906MOL0     H22254   3.410   5.959   1.475  0.0983  0.3527  1.2942
  906MOL0     H22255   3.680   6.095   1.488 -0.6209  0.4377 -4.1851
  906MOL0     H22256   3.540   6.182   1.479  1.9017  1.5892  1.7249
  906MOL0     H22257   3.639   6.107   1.727 -0.2025  0.8887  0.5599
  906MOL0     H22258   3.520   5.989   1.702  2.0389 -0.5069 -0.9510
  906MOL0     H22259   3.473   6.301   1.679 -0.1745 -0.5969 -0.7178
  906MOL0     H22260   3.355   6.169   1.649  1.4832  0.4108 -3.4686
  906MOL0     H22261   3.202   6.178   1.884  0.2652  0.0573  2.1817
  906MOL0     H22262   3.128   6.073   2.127 -0.0589  1.5906 -1.3252
  906MOL0     H22263   3.250   6.040   2.243 -0.1876 -1.4400 -1.0362
  906MOL0     H22264   3.168   6.230   2.344  0.0550  2.1918  0.3486
  906MOL0     H22265   3.298   6.305   2.253  0.3616 -1.2369 -2.8916
  906MOL0     H22266   3.146   6.381   2.082  3.6828  0.8455  1.1928
  906MOL0     H22267   3.110   6.438   2.241  0.6089  1.3879 -1.6939
  906MOL0     H22268   2.904   6.384   2.205 -1.8587 -0.7570 -0.0152
  906MOL0     H22269   2.943   6.241   2.279 -2.5560  1.1212  0.4890
  906MOL0     H22270   2.689   6.305   2.185 -0.7731  0.8992  0.3534
  906MOL0     H22271   2.486   6.268   2.104  2.2943  3.5208 -0.1746
  906MOL0     H22272   2.244   5.805   1.704 -6.4446  0.2585  2.3725
  906MOL0     H22273   2.072   5.785   1.531 -0.6281  0.4982 -0.1306
  906MOL0     H22274   1.944   5.825   1.336  3.4396  2.5312  0.6491
  906MOL0     H22275   1.854   5.913   1.470 -0.9760 -0.1985  0.1919
  906MOL0     H22276   1.848   5.961   1.174  0.5098 -0.2786 -0.0914
  906MOL0     H22277   1.715   5.904   1.268  1.2910 -1.0972 -3.2212
  906MOL0     H22278   1.719   6.120   1.406 -0.2321  2.8558 -0.6316
  906MOL0     H22279   1.831   6.183   1.286  0.3062  1.1398  2.9719
  906MOL0     H22280   1.572   6.199   1.281  1.7604 -0.3297  0.9468
  906MOL0     H22281   1.578   6.055   1.179 -0.2974 -1.0100 -1.7777
  906MOL0     H22282   1.732   6.150   1.017 -0.3043 -0.3590  0.3915
  906MOL0     H22283   1.749   6.293   1.113 -0.1236 -0.1235 -0.3305
  906MOL0     H22284   1.513   6.200   0.966  0.8605  1.0622 -2.1765
  906MOL0     H22285   1.503   6.325   1.094  1.1315  1.1483  0.9528
  906MOL0     H22286   1.676   6.381   0.847  2.3656  2.9872  2.3632
  906MOL0     H22287   1.627   6.486   0.971  1.5443  0.7169 -1.4370
  906MOL0     H22288   1.415   6.356   0.789 -1.1677  1.1792 -0.8919
  906MOL0     H22289   1.401   6.487   0.916  2.3878  0.7109  0.8660
  906MOL0     H22290   2.161   6.207   1.423  0.3859  0.5137 -0.3450
  906MOL0     H22291   2.352   6.194   1.596 -0.3328  1.1427 -2.7779
  906MOL0     H22292   2.658   6.004   1.793  0.1057 -0.9091  1.1113
  906MOL0     H22293   2.859   6.038   1.884 -1.7091 -0.1698 -2.2471
  906MOL0     H22294   3.998   5.619   1.426  1.1855  3.4706 -2.1808
  906MOL0     H22295   4.225   5.544   1.398 -1.8056  4.1720  0.7061
  906MOL0     H22296   4.541   5.456   1.229  2.9609 -0.9388  0.5257
  906MOL0     H22297   4.762   5.449   1.173  1.5265 -0.2836 -2.7123
  906MOL0     H22298   4.987   5.104   1.185 -0.8526  0.8495  0.6765
  906MOL0     H22299   4.928   5.245   1.266  2.5333 -1.9524  2.4166
  906MOL0     H22300   5.111   5.380   1.150 -2.4232  0.2055  1.0334
  906MOL0     H22301   5.154   5.234   1.050 -0.9860 -0.8925 -0.9716
  906MOL0     H22302   5.236   5.134   1.262 -3.7765 -0.9401  0.1344
  906MOL0     H22303   5.174   5.275   1.348  2.0202  3.2226 -0.2109
  906MOL0     H22304   5.433   5.263   1.178  0.4129 -0.2375 -1.4251
  906MOL0     H22305   5.337   5.399   1.175 -1.1539 -1.1581 -0.0220
  906MOL0     H22306   5.500   5.452   1.564  0.7212 -2.3890  0.8003
  906MOL0     H22307   4.718   5.055   1.009  1.4477  2.3946 -0.4433
  906MOL0     H22308   4.427   4.964   1.137 -2.6023  0.6606  0.7609
  906MOL0     H22309   4.351   5.070   1.030  0.2221  1.2598 -0.6513
  906MOL0     H22310   4.490   4.984   0.966 -1.9938  1.2020 -1.4139
  907MOL0     O22311   5.011  10.849   2.251 -0.4590  0.4630 -0.1887
  907MOL0     C22312   5.106  10.796   2.302  0.2011 -0.6224  0.0999
  907MOL0     O22313   5.110  10.674   2.363  0.2776  0.8787  0.0422
  907MOL0     C22314   4.985  10.630   2.400 -0.4511  0.3824  0.5523
  907MOL0     C22315   4.889  10.569   2.307 -0.4313 -0.4564 -0.0125
  907MOL0     C22316   4.778  10.501   2.358 -0.2551  0.5960 -0.2549
  907MOL0     C22317   4.762  10.488   2.497  0.0963  0.4116 -0.7625
  907MOL0     O22318   4.642  10.422   2.524 -0.5448 -0.8839 -0.3932
  907MOL0     C22319   4.637  10.347   2.641 -0.1266  0.1708 -0.2167
  907MOL0     C22320   4.528  10.232   2.623  0.1066  0.1886 -0.3319
  907MOL0     C22321   4.502  10.144   2.746  1.1141  0.2637  1.2811
  907MOL0     C22322   4.577  10.009   2.758  0.3271  0.4050  0.2373
  907MOL0     C22323   4.586   9.940   2.898  0.4025 -0.3153  0.6160
  907MOL0     C22324   4.677   9.819   2.890  0.9191  0.3155  0.3255
  907MOL0     C22325   4.703   9.750   3.024  0.2284  0.5264 -0.3225
  907MOL0     C22326   4.579   9.692   3.091 -0.1847 -0.5155 -0.7967
  907MOL0     N22327   4.542   9.566   3.037 -0.0006  0.0669  0.0594
  907MOL0     C22328   4.465   9.550   2.922 -1.1222  0.5933 -0.1618
  907MOL0     C22329   4.431   9.421   2.923  0.2210  0.7767  0.1113
  907MOL0     C22330   4.330   9.350   2.838  0.1761 -0.6143 -0.4119
  907MOL0     C22331   4.390   9.292   2.716 -0.6189  1.5262 -0.2807
  907MOL0     C22332   4.313   9.218   2.608  0.5409 -1.1881  0.3146
  907MOL0     C22333   4.172   9.275   2.584  0.5385 -0.6474 -0.8473
  907MOL0     O22334   4.080   9.232   2.684  0.1671 -0.1551  0.0985
  907MOL0     C22335   3.952   9.268   2.644 -0.1716  0.7196  0.8210
  907MOL0     C22336   3.914   9.395   2.685  1.4017  0.4899  0.0253
  907MOL0     C22337   3.780   9.437   2.669  0.2403  0.1507 -0.1276
  907MOL0     C22338   3.680   9.358   2.597  0.2134  0.4547 -0.4756
  907MOL0     C22339   3.538   9.388   2.587 -0.3019  0.3054 -0.4520
  907MOL0     O22340   3.505   9.495   2.666 -0.0217 -0.4448 -0.0481
  907MOL0     C22341   3.376   9.542   2.668 -0.6248 -1.0396  0.5998
  907MOL0     C22342   3.296   9.502   2.767 -0.6950  0.3337  0.0904
  907MOL0     C22343   3.169   9.544   2.784 -0.2528 -0.2487  0.0382
  907MOL0     C22344   3.114   9.631   2.690  0.2639  0.9122 -0.1680
  907MOL0     O22345   2.983   9.674   2.721 -0.7946 -0.3718  0.3637
  907MOL0     C22346   2.912   9.763   2.628 -1.2719  0.5660 -0.4513
  907MOL0     C22347   2.760   9.750   2.666  0.4497 -0.3133  0.2772
  907MOL0     C22348   2.657   9.804   2.556 -0.1420  0.2198 -0.5716
  907MOL0     C22349   2.679   9.955   2.519  0.8014 -0.0353 -0.4247
  907MOL0     C22350   2.574   9.992   2.409  1.0001  1.0899 -0.3353
  907MOL0     C22351   2.615  10.122   2.335 -0.4855 -0.2943  0.5375
  907MOL0     C22352   2.514  10.166   2.230  0.4031  0.0292 -1.2583
  907MOL0     C22353   2.550  10.300   2.165  0.5233  0.5076  0.6799
  907MOL0    Cl22354   2.425  10.365   2.053 -0.1600 -0.4219  0.4772
  907MOL0     C22355   3.188   9.668   2.578  0.2880  0.3578  0.1510
  907MOL0     C22356   3.321   9.623   2.568  0.2898  0.6403 -0.2297
  907MOL0     O22357   3.458   9.322   2.524  0.4690  0.9333  0.1172
  907MOL0     C22358   3.727   9.237   2.534 -0.4122 -0.2985 -0.4644
  907MOL0     C22359   3.865   9.195   2.563  0.3669  0.5405 -0.6478
  907MOL0     N22360   4.482   9.353   3.042 -0.2689 -0.2339  0.9995
  907MOL0     N22361   4.544   9.452   3.106  0.7860 -0.1119  0.3001
  907MOL0     C22362   4.859  10.535   2.583  0.3101 -0.5849  0.6106
  907MOL0     C22363   4.971  10.611   2.541 -1.2014  0.2655  0.0018
  907MOL0     C22364   5.241  10.868   2.306 -0.1431 -0.0902 -0.3270
  907MOL0     C22365   5.364  10.799   2.326  0.1863 -0.3423 -0.0042
  907MOL0     C22366   5.488  10.857   2.320  0.4275 -0.0159  0.7629
  907MOL0     C22367   5.503  10.995   2.304 -0.5751  0.1284 -0.2952
  907MOL0     O22368   5.635  11.029   2.290  0.8701  0.2705  0.3729
  907MOL0     C22369   5.666  11.149   2.218  0.6987  0.0532 -0.9293
  907MOL0     C22370   5.812  11.153   2.170  0.4807  0.4196 -1.5510
  907MOL0     C22371   5.864  11.019   2.097  0.2025 -0.0670 -0.4792
  907MOL0     C22372   5.993  11.029   2.011 -0.0540  0.2536 -0.7188
  907MOL0     C22373   5.987  10.949   1.887 -0.0439  0.4828 -0.0268
  907MOL0     C22374   5.983  10.892   1.778  0.3479  0.8200  0.7184
  907MOL0     C22375   5.391  11.059   2.264 -0.3782 -0.8532  0.2866
  907MOL0     C22376   5.262  10.999   2.270  0.2440 -0.8625  0.8022
  907MOL0     C22377   5.142  11.094   2.234 -0.7583  0.5421 -0.5119
  907MOL0     H22378   4.902  10.579   2.199  2.0157 -3.1276 -0.0918
  907MOL0     H22379   4.704  10.457   2.292  1.5770  1.1063 -2.8292
  907MOL0     H22380   4.733  10.296   2.656  1.1342  2.6888  0.8915
  907MOL0     H22381   4.604  10.403   2.729  1.9522  0.5189  0.4041
  907MOL0     H22382   4.558  10.170   2.538  1.1886  0.6856 -0.3347
  907MOL0     H22383   4.435  10.281   2.595 -0.4121 -0.7537 -0.3016
  907MOL0     H22384   4.395  10.122   2.755  0.9064 -0.0510 -1.3325
  907MOL0     H22385   4.542  10.203   2.829  0.5222  2.7816 -0.1180
  907MOL0     H22386   4.531   9.931   2.698 -2.1994  1.8760  0.1355
  907MOL0     H22387   4.682  10.026   2.731 -0.0462  2.0631 -0.3165
  907MOL0     H22388   4.620  10.004   2.981  1.4747 -2.5424  1.9946
  907MOL0     H22389   4.485   9.903   2.917 -0.4786  1.8059  0.3331
  907MOL0     H22390   4.634   9.739   2.830 -1.2830 -0.1477  2.3720
  907MOL0     H22391   4.774   9.850   2.849  1.1466 -1.0967 -0.2588
  907MOL0     H22392   4.736   9.827   3.095 -2.7008 -0.3445  2.2105
  907MOL0     H22393   4.778   9.671   3.014  1.8375  1.8542  0.6463
  907MOL0     H22394   4.608   9.671   3.194 -0.9996 -1.2924 -0.7115
  907MOL0     H22395   4.484   9.747   3.092  0.4537  0.6081  0.7969
  907MOL0     H22396   4.442   9.621   2.844 -0.6894 -0.3300 -1.1503
  907MOL0     H22397   4.273   9.282   2.902 -0.6046  2.2873  2.2466
  907MOL0     H22398   4.253   9.416   2.797 -1.4868 -0.2294  2.9742
  907MOL0     H22399   4.426   9.384   2.668 -2.2891  1.7573 -1.1564
  907MOL0     H22400   4.480   9.232   2.734 -1.6274 -0.0325 -0.2506
  907MOL0     H22401   4.298   9.117   2.646  0.6723 -0.3253  2.8133
  907MOL0     H22402   4.377   9.217   2.519 -1.0811  1.5441 -1.0014
  907MOL0     H22403   4.140   9.232   2.489  0.0398  0.4158 -1.1735
  907MOL0     H22404   4.156   9.383   2.579 -1.5680 -0.9641 -2.8941
  907MOL0     H22405   3.985   9.458   2.738 -3.0801  2.3424  4.7283
  907MOL0     H22406   3.757   9.534   2.711  0.3648  0.1167  0.0218
  907MOL0     H22407   3.350   9.433   2.831  0.1227  0.6448 -0.2494
  907MOL0     H22408   3.110   9.508   2.868  2.1784  0.8418  2.3555
  907MOL0     H22409   2.948   9.866   2.642  1.6576 -0.2980 -1.0158
  907MOL0     H22410   2.926   9.736   2.524 -1.3240 -0.4976 -0.1879
  907MOL0     H22411   2.743   9.644   2.690  0.6404  0.1678  2.8621
  907MOL0     H22412   2.750   9.804   2.761 -1.1408 -0.7945  0.4058
  907MOL0     H22413   2.668   9.743   2.466 -2.1060 -1.4407  0.2229
  907MOL0     H22414   2.554   9.778   2.585 -0.8004 -0.3984 -3.1744
  907MOL0     H22415   2.781   9.973   2.484  2.6186  2.7707  5.0942
  907MOL0     H22416   2.664  10.024   2.603  0.2666 -2.1845  1.3471
  907MOL0     H22417   2.474   9.980   2.451  3.4006  2.8116  7.8287
  907MOL0     H22418   2.585   9.918   2.329  0.7344  0.0455  0.5660
  907MOL0     H22419   2.614  10.199   2.414 -2.6065  2.4975 -1.9742
  907MOL0     H22420   2.717  10.124   2.297 -1.2798 -1.9282 -1.8602
  907MOL0     H22421   2.423  10.177   2.289 -0.7057 -1.8193 -2.5624
  907MOL0     H22422   2.495  10.101   2.145  1.4440 -0.4010 -1.1817
  907MOL0     H22423   2.581  10.380   2.233 -1.1110  4.8098 -3.1394
  907MOL0     H22424   2.640  10.279   2.106 -1.4609 -2.3607 -1.6107
  907MOL0     H22425   3.162   9.732   2.494  0.8015  1.3748  0.7591
  907MOL0     H22426   3.379   9.645   2.479 -0.0700  0.2807 -0.5572
  907MOL0     H22427   3.663   9.164   2.486  1.2215 -1.5075 -0.9309
  907MOL0     H22428   3.897   9.096   2.533 -0.0378  0.3123 -0.3288
  907MOL0     H22429   4.833  10.543   2.688 -0.0142  5.8060  0.3890
  907MOL0     H22430   5.040  10.657   2.611 -0.8818  0.4893 -0.4529
  907MOL0     H22431   5.367  10.698   2.367  4.7795 -1.1542 -1.7237
  907MOL0     H22432   5.582  10.803   2.316 -0.1039 -0.9946 -3.4986
  907MOL0     H22433   5.653  11.240   2.277  1.9687 -0.7473  0.6649
  907MOL0     H22434   5.588  11.154   2.141 -1.4256 -1.5589  0.9469
  907MOL0     H22435   5.867  11.176   2.261 -0.9889  1.5807 -0.9238
  907MOL0     H22436   5.827  11.241   2.107  0.9429  1.1403 -0.4582
  907MOL0     H22437   5.784  10.980   2.035 -1.4887  2.0507  0.2309
  907MOL0     H22438   5.882  10.934   2.163  1.3694 -2.7226 -3.8733
  907MOL0     H22439   6.018  11.133   1.988  1.9374  0.1804  0.8094
  907MOL0     H22440   6.079  10.995   2.071 -0.6502  2.5960  1.6574
  907MOL0     H22441   5.964  10.843   1.685  1.2094  0.8448  0.5191
  907MOL0     H22442   5.395  11.165   2.242  0.2011 -0.1123  3.4269
  907MOL0     H22443   5.090  11.076   2.139 -0.7469 -0.6861 -0.2921
  907MOL0     H22444   5.074  11.092   2.319  1.6626 -1.0390  1.5533
  907MOL0     H22445   5.167  11.200   2.218 -1.5379  0.6915 -0.7473
  908MOL0     O22446   7.994   2.969   7.930 -0.0963 -0.3471 -0.3836
  908MOL0     C22447   8.004   3.084   7.879 -0.3686  0.2193  0.4078
  908MOL0     O22448   7.998   3.203   7.949 -0.2699  0.2035  0.5338
  908MOL0     C22449   7.998   3.212   8.088  0.7433  0.4630  0.5273
  908MOL0     C22450   7.888   3.175   8.160  0.4085  0.1211 -0.1245
  908MOL0     C22451   7.881   3.189   8.295 -0.7244  0.1436  0.3456
  908MOL0     C22452   7.994   3.235   8.361 -0.9533  0.6146 -0.2875
  908MOL0     O22453   7.987   3.246   8.493  0.4084  0.0814  0.5051
  908MOL0     C22454   8.066   3.352   8.546  0.2570 -0.8174 -0.7465
  908MOL0     C22455   8.002   3.399   8.686 -0.2645  0.7737  0.2001
  908MOL0     C22456   7.873   3.475   8.652 -0.1805  0.4275 -0.9087
  908MOL0     C22457   7.805   3.474   8.787  0.5174 -1.0567 -0.3589
  908MOL0     C22458   7.671   3.551   8.789  0.1620  1.0159 -0.9785
  908MOL0     C22459   7.565   3.483   8.697 -0.6078  0.5107  0.2839
  908MOL0     C22460   7.418   3.543   8.727  0.5328 -0.0705  0.2653
  908MOL0     C22461   7.344   3.524   8.592 -0.4772  0.0445  0.9595
  908MOL0     N22462   7.333   3.392   8.539 -0.2684 -0.1393 -0.3706
  908MOL0     C22463   7.432   3.330   8.461  0.1508 -0.0809  0.4533
  908MOL0     C22464   7.384   3.206   8.434 -0.1360  0.1567  1.3613
  908MOL0     C22465   7.458   3.111   8.362 -0.7536  0.2816 -0.3268
  908MOL0     C22466   7.466   2.979   8.444  0.0419 -0.3048 -0.1975
  908MOL0     C22467   7.348   2.877   8.442 -0.5204 -0.1432 -0.4967
  908MOL0     C22468   7.410   2.733   8.441  1.2041  0.3585 -1.1881
  908MOL0     O22469   7.293   2.648   8.433  1.2825  0.1018 -1.1435
  908MOL0     C22470   7.317   2.507   8.426 -0.2398  0.0153 -0.6635
  908MOL0     C22471   7.195   2.431   8.426  0.2559  0.4258  0.0515
  908MOL0     C22472   7.201   2.291   8.423  0.1372 -0.5582 -1.0254
  908MOL0     C22473   7.316   2.225   8.421 -0.0021 -0.7503  0.8366
  908MOL0     C22474   7.315   2.082   8.389 -0.1409 -0.9952 -0.5900
  908MOL0     O22475   7.196   2.016   8.378  0.3729  0.3752  0.0729
  908MOL0     C22476   7.200   1.878   8.352  0.0512  0.2694  1.0566
  908MOL0     C22477   7.182   1.792   8.457  0.6079  0.4219 -0.0078
  908MOL0     C22478   7.175   1.654   8.453  0.3789  0.0831  0.5894
  908MOL0     C22479   7.198   1.594   8.327  0.7191 -0.3794  0.1944
  908MOL0     O22480   7.201   1.464   8.307 -0.2593  0.5325 -0.1553
  908MOL0     C22481   7.177   1.379   8.421 -1.1453 -0.0718 -0.4241
  908MOL0     C22482   7.161   1.234   8.371 -0.0184 -0.6789  0.0219
  908MOL0     C22483   7.024   1.210   8.315 -0.0239  0.3828  1.0200
  908MOL0     C22484   7.010   1.073   8.250 -0.8476 -0.7580 -0.2011
  908MOL0     C22485   6.863   1.049   8.211  0.0356 -0.0418 -0.2419
  908MOL0     C22486   6.774   1.035   8.337 -0.1431 -0.7099 -0.0136
  908MOL0     C22487   6.637   0.956   8.318  1.5225 -0.1198  0.2406
  908MOL0     C22488   6.535   0.977   8.436 -0.6063  0.7455  0.1224
  908MOL0    Cl22489   6.634   0.952   8.588  0.1870 -0.4895 -0.1182
  908MOL0     C22490   7.225   1.675   8.219 -0.2992  0.5245  1.1689
  908MOL0     C22491   7.220   1.816   8.229 -0.0322  0.2573 -0.4919
  908MOL0     O22492   7.423   2.038   8.367 -0.1574 -0.2367  0.7958
  908MOL0     C22493   7.441   2.301   8.423  0.1402  0.2577  0.9618
  908MOL0     C22494   7.437   2.439   8.431 -0.2238  0.3636 -0.3723
  908MOL0     N22495   7.257   3.201   8.481  0.2738  0.7940  0.5344
  908MOL0     N22496   7.231   3.305   8.563  0.3741 -0.1745  0.1701
  908MOL0     C22497   8.110   3.269   8.286  0.5894 -1.7073 -0.0650
  908MOL0     C22498   8.112   3.257   8.156 -0.4617 -0.1708  0.3024
  908MOL0     C22499   8.004   3.082   7.722 -0.2259 -0.4175 -0.0587
  908MOL0     C22500   8.064   2.976   7.660 -0.3459  0.5733  0.0848
  908MOL0     C22501   8.069   2.962   7.521 -0.3386 -0.0465 -0.5554
  908MOL0     C22502   8.010   3.057   7.444  0.9037  0.3179 -0.3215
  908MOL0     O22503   8.014   3.040   7.309 -1.1110  0.4141 -0.3060
  908MOL0     C22504   7.968   3.141   7.218  0.1755  0.1147  0.3011
  908MOL0     C22505   8.064   3.257   7.238 -0.2379  0.0162  0.4860
  908MOL0     C22506   8.053   3.366   7.134 -0.2242 -0.5684  0.4293
  908MOL0     C22507   8.151   3.485   7.170  0.1887 -0.8661 -0.3615
  908MOL0     C22508   8.292   3.447   7.182 -0.1782 -0.1684 -0.0673
  908MOL0     C22509   8.413   3.429   7.190  0.0675 -0.8813  0.3247
  908MOL0     C22510   7.949   3.168   7.500  0.3785  0.0284 -1.2526
  908MOL0     C22511   7.937   3.176   7.642  0.0924 -0.4460  0.9331
  908MOL0     C22512   7.876   3.300   7.707 -0.4360 -0.8759 -0.3974
  908MOL0     H22513   7.798   3.134   8.116  0.7202 -0.6130 -0.0855
  908MOL0     H22514   7.795   3.146   8.344 -0.3486 -0.4775  0.4707
  908MOL0     H22515   8.174   3.338   8.557  0.9484  3.5671 -0.0538
  908MOL0     H22516   8.048   3.435   8.477  2.0132  0.4754  0.2770
  908MOL0     H22517   8.072   3.456   8.748 -3.1959  3.9031  0.8817
  908MOL0     H22518   7.976   3.304   8.733  2.4289 -1.4302 -2.3211
  908MOL0     H22519   7.823   3.424   8.569 -1.9522  2.1720 -0.9931
  908MOL0     H22520   7.900   3.577   8.625  0.6676  0.3088 -0.5327
  908MOL0     H22521   7.780   3.377   8.831  1.6424 -1.3297 -0.3019
  908MOL0     H22522   7.869   3.523   8.861  0.2192 -1.2452  0.0309
  908MOL0     H22523   7.637   3.552   8.893 -1.2669  3.3416 -1.4000
  908MOL0     H22524   7.696   3.654   8.762  1.8796  0.5279 -1.3828
  908MOL0     H22525   7.593   3.498   8.593 -0.6759 -1.7956 -0.1269
  908MOL0     H22526   7.569   3.374   8.710  0.6953  0.6214  0.9365
  908MOL0     H22527   7.425   3.650   8.750 -0.0104 -0.1544  0.8479
  908MOL0     H22528   7.374   3.494   8.814 -0.4150  0.5790  0.1695
  908MOL0     H22529   7.239   3.554   8.601 -1.3494 -2.3471 -0.4067
  908MOL0     H22530   7.394   3.592   8.522  1.5578 -1.0705  1.2529
  908MOL0     H22531   7.522   3.373   8.417  2.1515 -2.6848  1.7507
  908MOL0     H22532   7.413   3.091   8.264  3.4613 -4.1073 -1.7686
  908MOL0     H22533   7.558   3.148   8.337 -0.4175 -0.5684 -0.2533
  908MOL0     H22534   7.558   2.927   8.417  1.2202  0.2258  2.4557
  908MOL0     H22535   7.482   3.003   8.550 -2.6244 -1.7153  0.6305
  908MOL0     H22536   7.311   2.887   8.340 -0.5473  0.7891 -0.4024
  908MOL0     H22537   7.274   2.883   8.522  0.2256 -3.2352  0.5856
  908MOL0     H22538   7.460   2.724   8.538 -1.1393  1.1919  0.1766
  908MOL0     H22539   7.468   2.715   8.351  0.7329 -0.8368 -1.2692
  908MOL0     H22540   7.100   2.482   8.418 -0.0434 -0.1920 -0.4531
  908MOL0     H22541   7.106   2.239   8.425 -0.9093  1.2303 -2.0748
  908MOL0     H22542   7.154   1.847   8.547 -1.7660  3.1913 -2.2169
  908MOL0     H22543   7.154   1.593   8.541 -4.0078  1.0501  0.4817
  908MOL0     H22544   7.260   1.385   8.491 -2.5328  4.5515  1.2145
  908MOL0     H22545   7.078   1.389   8.466 -1.8138 -3.0081 -1.0028
  908MOL0     H22546   7.229   1.220   8.287  0.0089 -3.1035  0.3732
  908MOL0     H22547   7.192   1.165   8.450  2.0800 -0.8978 -0.9223
  908MOL0     H22548   6.947   1.218   8.392 -0.2616  2.5705  0.6086
  908MOL0     H22549   7.001   1.278   8.232  0.4745  0.5933  1.0548
  908MOL0     H22550   7.046   1.001   8.324  1.2331 -0.4026 -0.7945
  908MOL0     H22551   7.079   1.074   8.165 -1.3993  0.9753 -0.6682
  908MOL0     H22552   6.876   0.954   8.158  2.5722  1.0266 -1.7271
  908MOL0     H22553   6.820   1.122   8.142  0.7819 -0.4610 -1.1788
  908MOL0     H22554   6.833   0.985   8.414  0.1688 -2.6841 -1.4624
  908MOL0     H22555   6.750   1.137   8.371  2.2129  0.4089 -1.4278
  908MOL0     H22556   6.649   0.849   8.301 -1.7496 -0.6841  0.7873
  908MOL0     H22557   6.586   0.988   8.227  0.9885 -1.7359 -0.0581
  908MOL0     H22558   6.490   1.077   8.441 -0.5250  0.7442  1.1159
  908MOL0     H22559   6.439   0.924   8.429 -1.6728  2.6540 -0.4699
  908MOL0     H22560   7.227   1.637   8.117 -3.7740  1.5475  0.5770
  908MOL0     H22561   7.240   1.881   8.145  2.1353 -3.0883 -2.8152
  908MOL0     H22562   7.539   2.255   8.411  0.4139  1.2574 -1.1836
  908MOL0     H22563   7.528   2.496   8.439  2.5465 -3.3495 -2.1389
  908MOL0     H22564   8.198   3.299   8.342 -2.1478  1.5396  2.9858
  908MOL0     H22565   8.188   3.296   8.089 -1.6421 -2.1888 -2.4053
  908MOL0     H22566   8.116   2.902   7.720  1.1322  0.3288 -1.4210
  908MOL0     H22567   8.124   2.878   7.481  4.7425  2.3991  0.4695
  908MOL0     H22568   7.862   3.157   7.240  0.7383  3.8793  1.0133
  908MOL0     H22569   7.984   3.109   7.115 -0.8490 -3.0936  1.0362
  908MOL0     H22570   8.163   3.219   7.213  0.3210  1.1954  0.8367
  908MOL0     H22571   8.073   3.303   7.337  1.6082 -0.4968  0.5905
  908MOL0     H22572   7.950   3.402   7.143  0.8200  2.8404  0.0956
  908MOL0     H22573   8.060   3.332   7.030  1.5374  0.5843  0.1200
  908MOL0     H22574   8.133   3.563   7.096  0.9118  0.1874  0.5155
  908MOL0     H22575   8.109   3.534   7.259 -1.7120  1.2074 -2.2549
  908MOL0     H22576   8.517   3.409   7.200  0.9044  2.8239  0.4260
  908MOL0     H22577   7.904   3.246   7.440  0.0521 -0.8430 -2.1611
  908MOL0     H22578   7.794   3.280   7.777 -0.6627  0.7908 -0.1499
  908MOL0     H22579   7.941   3.372   7.755  0.4725 -2.0744  0.2183
  908MOL0     H22580   7.831   3.364   7.631  2.4814 -0.3515 -1.8259
  909MOL0     O22581   8.194   6.606   2.980 -0.5026 -0.3008 -1.0809
  909MOL0     C22582   8.129   6.702   3.004  0.0929  0.8302 -0.3568
  909MOL0     O22583   8.070   6.788   2.919  1.0172 -0.1726 -0.2884
  909MOL0     C22584   8.071   6.747   2.785 -0.2697  0.2729 -0.2791
  909MOL0     C22585   8.154   6.815   2.697 -0.2722  0.1360  0.2556
  909MOL0     C22586   8.150   6.804   2.558  0.1324  1.2609  0.6648
  909MOL0     C22587   8.050   6.717   2.503  0.9238  0.0779 -0.7612
  909MOL0     O22588   8.025   6.687   2.372 -0.3812 -0.5698  0.4900
  909MOL0     C22589   8.071   6.791   2.281  0.0604  0.4733 -0.2842
  909MOL0     C22590   8.021   6.748   2.139  0.0496 -0.0847 -0.1041
  909MOL0     C22591   8.128   6.665   2.077 -0.3260 -0.1895 -0.7481
  909MOL0     C22592   8.235   6.752   2.017  0.4340 -0.0799 -0.0297
  909MOL0     C22593   8.342   6.646   1.960 -0.3010 -0.7132  0.4267
  909MOL0     C22594   8.457   6.612   2.053  1.1518 -0.3261  0.2627
  909MOL0     C22595   8.543   6.737   2.099  0.4655  0.5570  0.0111
  909MOL0     C22596   8.637   6.792   1.993  0.0927 -0.0911  0.1989
  909MOL0     N22597   8.706   6.912   2.039 -0.0615  1.2315 -1.6248
  909MOL0     C22598   8.781   6.917   2.155 -0.3693 -0.3201 -0.8313
  909MOL0     C22599   8.856   7.029   2.146  1.1544  0.0978  0.9100
  909MOL0     C22600   8.956   7.080   2.235  0.7496  0.4712  0.3466
  909MOL0     C22601   9.071   7.168   2.176  0.1619 -0.2177 -0.3333
  909MOL0     C22602   9.144   7.110   2.058  0.3167  0.7586 -0.1794
  909MOL0     C22603   9.251   7.188   2.008 -0.7567  0.5104  0.3635
  909MOL0     O22604   9.310   7.130   1.895 -1.0318  0.9050  0.4661
  909MOL0     C22605   9.444   7.089   1.891  0.2974 -0.0976 -1.0690
  909MOL0     C22606   9.485   6.976   1.963 -1.0030  0.5508  0.2691
  909MOL0     C22607   9.618   6.936   1.978  0.0906 -0.0802 -0.9621
  909MOL0     C22608   9.710   7.001   1.909  0.3065 -0.4310  0.1947
  909MOL0     C22609   9.846   6.963   1.918 -0.4964  0.9143  0.1447
  909MOL0     O22610   9.879   6.849   1.849  0.8386  0.2890  0.1896
  909MOL0     C22611  10.012   6.822   1.811  0.7371  0.1091 -0.0140
  909MOL0     C22612  10.028   6.689   1.781  0.3673  0.0499 -0.0455
  909MOL0     C22613  10.152   6.628   1.749  0.1569  0.8382  0.4642
  909MOL0     C22614  10.272   6.702   1.758  0.8726 -0.0076 -0.2845
  909MOL0     O22615  10.391   6.627   1.736  1.2796  0.7800  0.0991
  909MOL0     C22616  10.518   6.690   1.728 -0.8925 -0.4982 -0.3146
  909MOL0     C22617  10.615   6.567   1.706  0.7584 -0.8799 -0.5844
  909MOL0     C22618  10.737   6.604   1.627 -0.1748  0.3046  0.3683
  909MOL0     C22619  10.832   6.709   1.675  1.3357  0.5224 -0.5412
  909MOL0     C22620  10.960   6.714   1.605  0.9845  0.3050 -0.2713
  909MOL0     C22621  11.049   6.832   1.660  0.4525  0.4243  0.3559
  909MOL0     C22622  11.191   6.807   1.604  0.4848 -0.3765 -0.7698
  909MOL0     C22623  11.294   6.883   1.697 -0.7033  0.4627 -0.3669
  909MOL0    Cl22624  11.257   7.057   1.720  0.1560 -0.1276 -0.2215
  909MOL0     C22625  10.257   6.845   1.795  0.6265 -0.5974  0.3855
  909MOL0     C22626  10.126   6.897   1.815  0.2911  0.8342  0.1018
  909MOL0     O22627   9.919   7.049   1.976  0.7533 -0.3403  0.2381
  909MOL0     C22628   9.675   7.124   1.849  0.5204  0.2393  0.2178
  909MOL0     C22629   9.538   7.167   1.842  0.1744  0.6965 -0.5583
  909MOL0     N22630   8.811   7.090   2.030  0.9376 -0.8507 -0.4263
  909MOL0     N22631   8.738   7.017   1.962 -0.1936  0.0355  0.3979
  909MOL0     C22632   7.967   6.641   2.591 -0.0069  0.3606 -0.3414
  909MOL0     C22633   7.970   6.662   2.731 -0.0308 -0.0272  0.3442
  909MOL0     C22634   8.098   6.732   3.145  0.8990 -0.9335  0.2541
  909MOL0     C22635   8.209   6.755   3.228 -0.4298  0.3914  0.2288
  909MOL0     C22636   8.201   6.769   3.363 -0.2538 -0.4138 -0.5406
  909MOL0     C22637   8.076   6.760   3.425 -0.0669 -0.2259  0.0335
  909MOL0     O22638   8.048   6.791   3.563  0.2571 -0.4080 -0.0502
  909MOL0     C22639   8.143   6.873   3.635 -1.3669 -0.0518 -0.0022
  909MOL0     C22640   8.078   6.956   3.749  0.2378 -0.5666  0.1916
  909MOL0     C22641   7.973   6.887   3.826  0.0501 -0.1685 -0.4647
  909MOL0     C22642   8.028   6.764   3.894  0.1759  0.2163 -0.3381
  909MOL0     C22643   7.939   6.735   4.001 -0.4448 -0.6707  0.4225
  909MOL0     C22644   7.859   6.715   4.085  0.3514 -0.5233  0.4274
  909MOL0     C22645   7.965   6.754   3.342 -0.6504  0.1452 -0.3022
  909MOL0     C22646   7.971   6.737   3.200 -0.7397 -1.0587 -0.1350
  909MOL0     C22647   7.850   6.726   3.124 -0.2241  1.2467 -1.2642
  909MOL0     H22648   8.230   6.880   2.739  0.0170  0.2399 -0.4198
  909MOL0     H22649   8.225   6.851   2.495 -3.2422  3.7232 -1.8431
  909MOL0     H22650   8.021   6.879   2.322 -1.7488 -1.0920  1.0678
  909MOL0     H22651   8.179   6.809   2.278  0.3335 -1.1375 -2.1503
  909MOL0     H22652   8.003   6.824   2.063  0.7664 -0.8974 -1.1158
  909MOL0     H22653   7.925   6.698   2.156 -1.5297  3.4442  2.5161
  909MOL0     H22654   8.088   6.611   1.991  1.2834 -0.6927 -1.2103
  909MOL0     H22655   8.173   6.590   2.143 -0.9055  0.9710  1.0354
  909MOL0     H22656   8.190   6.812   1.937 -1.8794 -1.6860 -0.0557
  909MOL0     H22657   8.280   6.813   2.096  0.2949 -2.1881  1.7976
  909MOL0     H22658   8.291   6.551   1.940  0.2767 -0.8156 -0.6184
  909MOL0     H22659   8.366   6.692   1.865  1.6790  0.1323  1.2853
  909MOL0     H22660   8.422   6.564   2.145  2.8530 -1.6415  0.2693
  909MOL0     H22661   8.529   6.541   2.011  1.4743  1.3537 -2.2327
  909MOL0     H22662   8.619   6.709   2.173  2.1363 -1.2401 -2.2429
  909MOL0     H22663   8.483   6.816   2.146 -0.3453  1.0218 -1.7084
  909MOL0     H22664   8.714   6.721   1.960 -0.1588 -0.8769  1.2741
  909MOL0     H22665   8.582   6.828   1.905 -1.7422 -1.6414  0.6412
  909MOL0     H22666   8.786   6.844   2.235 -2.8403  0.7687  0.4309
  909MOL0     H22667   8.909   7.136   2.316  0.7078  0.5527  0.2660
  909MOL0     H22668   9.003   6.995   2.286  0.1681 -0.2426 -0.2714
  909MOL0     H22669   9.026   7.265   2.152  0.1282 -0.1548 -0.0209
  909MOL0     H22670   9.141   7.180   2.259 -0.2213  0.9304 -0.1614
  909MOL0     H22671   9.069   7.093   1.980 -0.3475  0.3148  0.5464
  909MOL0     H22672   9.172   7.013   2.101  0.7439  0.8753 -0.1831
  909MOL0     H22673   9.327   7.192   2.086 -0.7553 -1.7883  0.5396
  909MOL0     H22674   9.230   7.291   1.975  1.2482  0.6442 -0.6582
  909MOL0     H22675   9.404   6.911   1.991  1.1982 -3.7127 -2.2164
  909MOL0     H22676   9.658   6.863   2.048  2.1441  0.4238 -1.5456
  909MOL0     H22677   9.935   6.636   1.767  1.4687 -1.9459 -0.2408
  909MOL0     H22678  10.153   6.522   1.724  0.1228  0.3777  2.3032
  909MOL0     H22679  10.531   6.766   1.651  0.3319  0.3884  0.7306
  909MOL0     H22680  10.546   6.738   1.822 -2.1519 -1.9502  0.8496
  909MOL0     H22681  10.652   6.537   1.805 -2.2179 -0.9057  0.6031
  909MOL0     H22682  10.560   6.486   1.658  0.4332 -1.2828  0.4519
  909MOL0     H22683  10.790   6.508   1.629  0.6343  0.7512  1.7742
  909MOL0     H22684  10.714   6.631   1.523 -1.9745  1.3304  0.9801
  909MOL0     H22685  10.848   6.684   1.780  0.0283  0.4191 -0.3533
  909MOL0     H22686  10.775   6.801   1.685  0.5271 -0.1836  2.2794
  909MOL0     H22687  10.940   6.734   1.500  1.7965  2.2755 -0.0961
  909MOL0     H22688  11.005   6.615   1.619 -4.9340 -2.6423  1.4213
  909MOL0     H22689  11.000   6.929   1.648  0.3490  0.4307  0.8138
  909MOL0     H22690  11.051   6.813   1.768  1.2255  0.0881  0.2877
  909MOL0     H22691  11.185   6.844   1.501  0.9297 -3.1645 -1.8741
  909MOL0     H22692  11.212   6.700   1.600  0.3451 -0.4419  0.0871
  909MOL0     H22693  11.292   6.838   1.797 -0.4957  0.0816 -0.5312
  909MOL0     H22694  11.396   6.868   1.660  0.2392 -0.1534  2.2622
  909MOL0     H22695  10.345   6.908   1.794 -0.4037  0.8954  0.9575
  909MOL0     H22696  10.117   6.997   1.855 -2.1637 -0.8747  4.5261
  909MOL0     H22697   9.754   7.191   1.817  0.3986 -0.9608 -2.9640
  909MOL0     H22698   9.519   7.260   1.790  2.2237  1.4701 -0.0382
  909MOL0     H22699   7.887   6.582   2.546  1.9726 -0.0847 -3.5477
  909MOL0     H22700   7.903   6.608   2.798 -1.5787 -0.1638 -1.2556
  909MOL0     H22701   8.313   6.759   3.198 -0.5613  2.7577 -0.0750
  909MOL0     H22702   8.284   6.793   3.428  1.9031 -2.0814 -2.5461
  909MOL0     H22703   8.202   6.940   3.572  1.7717 -1.5498  1.1516
  909MOL0     H22704   8.222   6.806   3.670 -1.2563  0.0815  0.0041
  909MOL0     H22705   8.041   7.049   3.705 -0.1935  0.6846  2.9701
  909MOL0     H22706   8.153   6.991   3.820  0.6824 -0.0361 -0.5297
  909MOL0     H22707   7.879   6.862   3.775 -2.2934 -0.0023  3.3696
  909MOL0     H22708   7.940   6.955   3.905 -2.9900  1.4317 -2.8693
  909MOL0     H22709   8.021   6.678   3.826  0.4808  0.6491 -0.9214
  909MOL0     H22710   8.132   6.779   3.921  1.0958 -2.4674 -1.9431
  909MOL0     H22711   7.780   6.708   4.157 -0.2765  2.3708  0.1302
  909MOL0     H22712   7.870   6.772   3.390 -1.5098  1.6027 -2.3866
  909MOL0     H22713   7.770   6.715   3.198  0.7355 -0.1335 -0.3894
  909MOL0     H22714   7.830   6.805   3.051  1.2994  3.1623  0.2700
  909MOL0     H22715   7.848   6.622   3.090 -0.0561  0.4969  0.9037
  910MOL0     O22716   9.383   8.245   6.368  0.3479  0.1523 -0.2677
  910MOL0     C22717   9.478   8.208   6.434 -0.9091 -0.1896  1.1283
  910MOL0     O22718   9.565   8.291   6.493  0.3967  0.3538 -0.0791
  910MOL0     C22719   9.544   8.422   6.474  0.9171 -0.1821  0.4283
  910MOL0     C22720   9.438   8.490   6.529  0.2046 -0.2217  0.6235
  910MOL0     C22721   9.415   8.623   6.511  0.1726  0.4318 -0.6367
  910MOL0     C22722   9.498   8.704   6.429  1.1356  0.5114  1.0212
  910MOL0     O22723   9.478   8.835   6.423  0.0308  0.2683  0.0737
  910MOL0     C22724   9.401   8.879   6.306  0.4213 -0.3236  0.1521
  910MOL0     C22725   9.254   8.864   6.312 -0.2340  0.4439 -0.3447
  910MOL0     C22726   9.194   8.966   6.401  0.6186 -0.2225  0.8423
  910MOL0     C22727   9.217   8.944   6.549  0.6094  0.5486 -0.9483
  910MOL0     C22728   9.089   8.926   6.624 -0.8898 -0.4513  0.4064
  910MOL0     C22729   9.101   8.895   6.777  0.3747 -0.2407  0.4266
  910MOL0     C22730   8.988   8.819   6.836  0.9516 -0.1713  0.8701
  910MOL0     C22731   8.854   8.899   6.827  0.5559  0.2694  0.1931
  910MOL0     N22732   8.871   9.017   6.906  0.0197 -0.2671 -0.4729
  910MOL0     C22733   8.850   9.136   6.841 -0.7028  0.0713 -0.3361
  910MOL0     C22734   8.884   9.228   6.930  0.1419 -0.1427 -1.0003
  910MOL0     C22735   8.884   9.378   6.893 -0.7082 -0.1267  0.3936
  910MOL0     C22736   9.016   9.438   6.957  1.2642  1.1020 -0.6654
  910MOL0     C22737   9.006   9.584   6.924 -0.2185 -0.2790 -0.7992
  910MOL0     C22738   9.126   9.650   6.990 -0.0083 -0.2595 -0.1201
  910MOL0     O22739   9.149   9.777   6.918  0.4204  0.1157  0.2562
  910MOL0     C22740   9.217   9.881   6.968 -0.7315  1.0097 -0.1686
  910MOL0     C22741   9.220   9.985   6.890 -0.7890 -0.8391  0.1056
  910MOL0     C22742   9.293  10.097   6.932 -0.4232 -0.7947 -1.0955
  910MOL0     C22743   9.350  10.103   7.062 -0.4096 -0.5295  0.2513
  910MOL0     C22744   9.433  10.213   7.111 -0.1938 -0.5065 -0.6407
  910MOL0     O22745   9.462  10.224   7.242  0.3190  0.2473 -0.7142
  910MOL0     C22746   9.558  10.316   7.287  0.7166  0.3333 -0.4428
  910MOL0     C22747   9.511  10.436   7.320 -0.2287 -0.7022  0.5488
  910MOL0     C22748   9.605  10.540   7.344  0.8984 -0.2434 -0.0854
  910MOL0     C22749   9.742  10.519   7.332  0.2940  0.4446 -0.4623
  910MOL0     O22750   9.823  10.623   7.358  0.6888 -0.3174 -0.0873
  910MOL0     C22751   9.955  10.627   7.324  0.0215  0.2847  0.0036
  910MOL0     C22752   9.995  10.622   7.176 -0.2009  1.0172  0.8819
  910MOL0     C22753  10.139  10.565   7.167 -0.5429 -0.6682  0.0551
  910MOL0     C22754  10.168  10.562   7.014  0.2567  0.7018 -0.0242
  910MOL0     C22755  10.280  10.467   6.978  0.7706 -0.6676  0.0666
  910MOL0     C22756  10.320  10.454   6.826  0.0395 -0.1088  0.6491
  910MOL0     C22757  10.421  10.344   6.810  0.7243  1.9620 -0.2678
  910MOL0     C22758  10.402  10.284   6.666 -0.5209 -0.0958  0.0936
  910MOL0    Cl22759  10.412  10.416   6.543 -0.1775 -0.3584  0.5888
  910MOL0     C22760   9.787  10.383   7.306  0.5146  0.1190 -0.1709
  910MOL0     C22761   9.691  10.288   7.277 -0.1648  0.9234 -0.5515
  910MOL0     O22762   9.456  10.303   7.030 -0.1651 -0.2778  0.5502
  910MOL0     C22763   9.334  10.001   7.145  0.3648 -0.4916 -0.0832
  910MOL0     C22764   9.265   9.883   7.101  0.5530 -0.6420  0.7244
  910MOL0     N22765   8.893   9.164   7.055 -0.6616  0.2401 -0.6298
  910MOL0     N22766   8.891   9.031   7.045  0.2349  0.4362  0.9912
  910MOL0     C22767   9.596   8.634   6.363 -0.7054 -0.3016  0.1597
  910MOL0     C22768   9.617   8.496   6.380 -1.1482 -0.1474 -0.6615
  910MOL0     C22769   9.508   8.061   6.449 -0.6927 -1.1943  0.7247
  910MOL0     C22770   9.536   8.023   6.579  0.6656 -0.1448 -1.1666
  910MOL0     C22771   9.550   7.893   6.611  0.4383  0.4447 -0.3252
  910MOL0     C22772   9.540   7.793   6.513  0.5437 -0.2594 -0.0158
  910MOL0     O22773   9.549   7.657   6.553  0.1635  0.4234  0.5602
  910MOL0     C22774   9.437   7.568   6.524  0.0066  0.5546 -0.0757
  910MOL0     C22775   9.469   7.415   6.548  0.5864  1.2863  0.0751
  910MOL0     C22776   9.431   7.360   6.689 -0.5318 -0.2930  0.0783
  910MOL0     C22777   9.437   7.211   6.692  0.0240  0.8783  0.5743
  910MOL0     C22778   9.572   7.152   6.667 -1.5255  0.2989  0.3043
  910MOL0     C22779   9.683   7.107   6.647 -0.7567  0.0297  0.3775
  910MOL0     C22780   9.512   7.829   6.381 -0.3835 -0.3190  0.4754
  910MOL0     C22781   9.502   7.963   6.347 -0.1066 -0.1972  0.0642
  910MOL0     C22782   9.471   8.001   6.205  0.3207  1.5030  0.4006
  910MOL0     H22783   9.381   8.433   6.601  0.7504 -0.5797  0.7804
  910MOL0     H22784   9.333   8.659   6.574 -0.4793 -0.3503 -1.0122
  910MOL0     H22785   9.424   8.983   6.282  1.1691 -1.0233 -2.5365
  910MOL0     H22786   9.439   8.821   6.221  1.3058 -3.1813  2.3226
  910MOL0     H22787   9.218   8.768   6.350 -1.6673  1.3052  0.5674
  910MOL0     H22788   9.214   8.873   6.211 -0.0285  1.2179 -0.3601
  910MOL0     H22789   9.086   8.960   6.383  0.5273  2.1860  0.1850
  910MOL0     H22790   9.225   9.065   6.367  0.9620  0.0499  1.9119
  910MOL0     H22791   9.276   8.855   6.572 -0.6831  0.1034  0.7855
  910MOL0     H22792   9.265   9.027   6.601  2.7100 -2.1743  1.7671
  910MOL0     H22793   9.025   9.014   6.616 -1.9431 -0.9300  2.6658
  910MOL0     H22794   9.035   8.847   6.570  2.1926 -1.0843 -2.0248
  910MOL0     H22795   9.194   8.848   6.811 -0.0014  1.2042  3.8933
  910MOL0     H22796   9.110   8.994   6.823  0.3687  0.8302 -1.7470
  910MOL0     H22797   8.995   8.801   6.944  0.5812 -1.9726  0.6400
  910MOL0     H22798   8.991   8.724   6.781 -1.0319  1.7336 -2.9802
  910MOL0     H22799   8.821   8.933   6.729  3.4928  2.1698 -0.2598
  910MOL0     H22800   8.779   8.829   6.865 -0.6215  1.7916  0.7506
  910MOL0     H22801   8.812   9.160   6.742 -0.7005  0.3422 -0.2742
  910MOL0     H22802   8.879   9.395   6.785 -2.0170 -0.3340  0.4034
  910MOL0     H22803   8.805   9.417   6.958  0.2310 -0.0986  1.5496
  910MOL0     H22804   9.029   9.422   7.065 -0.6023 -1.0213 -0.7047
  910MOL0     H22805   9.104   9.388   6.915  1.6444  1.4457 -0.2922
  910MOL0     H22806   8.922   9.641   6.966  0.5685  0.7353 -0.5539
  910MOL0     H22807   9.006   9.599   6.816  1.5115  2.9770 -0.4810
  910MOL0     H22808   9.218   9.590   6.986  0.1209 -0.2340  1.7715
  910MOL0     H22809   9.098   9.668   7.094  1.6446 -0.7208  0.4342
  910MOL0     H22810   9.200   9.996   6.784 -0.6179  4.3515  0.3359
  910MOL0     H22811   9.306  10.170   6.853 -1.5398 -0.2363 -0.7748
  910MOL0     H22812   9.405  10.458   7.324  0.5153  4.0312 -0.1075
  910MOL0     H22813   9.577  10.644   7.361 -3.3941 -1.1203 -0.8526
  910MOL0     H22814   9.995  10.725   7.351 -1.0433  1.1654 -1.4282
  910MOL0     H22815  10.001  10.547   7.383 -3.3901 -0.5244  1.8202
  910MOL0     H22816   9.917  10.562   7.130 -1.2655  2.0247  1.3337
  910MOL0     H22817   9.999  10.721   7.129  0.7326  2.0479  2.9865
  910MOL0     H22818  10.211  10.630   7.217  0.0363  0.1066 -1.7132
  910MOL0     H22819  10.143  10.466   7.214  1.2360 -0.9078 -0.5136
  910MOL0     H22820  10.184  10.659   6.964  0.9858  1.4807  1.6698
  910MOL0     H22821  10.089  10.507   6.962  2.1818 -0.7525 -1.5418
  910MOL0     H22822  10.247  10.367   7.007  2.1517 -1.6688 -1.6286
  910MOL0     H22823  10.363  10.492   7.044  1.3268 -2.0197 -0.0882
  910MOL0     H22824  10.228  10.439   6.769  1.3407  0.0256 -1.6345
  910MOL0     H22825  10.357  10.553   6.798 -2.2689  0.1590 -1.8446
  910MOL0     H22826  10.418  10.264   6.885  0.7724  0.2083 -2.0444
  910MOL0     H22827  10.521  10.388   6.801  2.3288 -1.6681 -3.3378
  910MOL0     H22828  10.488  10.221   6.640  2.4336  2.7706  2.1863
  910MOL0     H22829  10.305  10.234   6.674 -0.0548 -1.0539 -0.0999
  910MOL0     H22830   9.892  10.359   7.295  0.1530 -0.8487 -1.9343
  910MOL0     H22831   9.713  10.184   7.261 -1.6197  0.8092 -2.0506
  910MOL0     H22832   9.358  10.013   7.251  0.0601 -1.8105  0.1592
  910MOL0     H22833   9.243   9.814   7.182  3.4587  1.1478  3.2907
  910MOL0     H22834   9.647   8.688   6.284 -0.1315  0.2564  0.8997
  910MOL0     H22835   9.702   8.465   6.321 -0.1653 -1.1887  1.2145
  910MOL0     H22836   9.533   8.102   6.653 -0.6399  0.4222 -1.7906
  910MOL0     H22837   9.585   7.861   6.708 -2.1077  0.2286  0.5665
  910MOL0     H22838   9.402   7.587   6.422 -0.9958  4.3827  0.8201
  910MOL0     H22839   9.354   7.600   6.587 -0.7711 -3.4845  1.1874
  910MOL0     H22840   9.575   7.397   6.527  0.1920 -0.5446 -0.4927
  910MOL0     H22841   9.409   7.361   6.474 -0.2295  2.7188 -0.3403
  910MOL0     H22842   9.332   7.392   6.723 -0.4659 -1.5452  1.5370
  910MOL0     H22843   9.498   7.407   6.763  0.3963 -1.3101 -0.0896
  910MOL0     H22844   9.404   7.170   6.788 -1.1560 -1.3269 -0.6887
  910MOL0     H22845   9.379   7.158   6.616  2.4066 -0.0961 -0.7140
  910MOL0     H22846   9.777   7.073   6.608  0.3129  2.0811  1.0622
  910MOL0     H22847   9.493   7.757   6.301 -1.2354 -2.5268  2.5376
  910MOL0     H22848   9.526   7.939   6.133 -0.9148  0.9798 -0.1113
  910MOL0     H22849   9.368   7.992   6.170  0.3360 -1.9082  0.9069
  910MOL0     H22850   9.505   8.102   6.178  0.6964  1.1892 -0.3442
  911MOL0     O22851   8.357  11.103   0.770  0.4658  0.5029  0.5406
  911MOL0     C22852   8.406  11.041   0.863 -0.3085  0.5836  0.9199
  911MOL0     O22853   8.533  11.004   0.871 -0.3508  0.2997  0.4688
  911MOL0     C22854   8.632  11.084   0.817  0.3597 -0.2130  0.7853
  911MOL0     C22855   8.636  11.126   0.684  0.3525  0.3323 -1.2731
  911MOL0     C22856   8.720  11.224   0.643 -0.2989  0.0099  0.3662
  911MOL0     C22857   8.809  11.286   0.724  0.6304  0.8184 -0.7602
  911MOL0     O22858   8.884  11.398   0.677 -0.2457  0.9785  0.4814
  911MOL0     C22859   9.028  11.390   0.690 -1.0922  0.3614 -0.2813
  911MOL0     C22860   9.085  11.532   0.675 -0.8751 -0.7521 -0.5653
  911MOL0     C22861   9.022  11.639   0.767  1.2217  0.9632 -0.3637
  911MOL0     C22862   9.100  11.769   0.758  0.8416 -0.6378  0.0161
  911MOL0     C22863   9.025  11.885   0.819  1.4307  0.1763 -0.4578
  911MOL0     C22864   9.019  11.900   0.976 -0.3103  0.0340  0.8647
  911MOL0     C22865   9.153  11.959   1.020 -0.2136 -0.3161 -0.4746
  911MOL0     C22866   9.197  11.906   1.149 -0.2077  0.1889 -0.1731
  911MOL0     N22867   9.244  11.762   1.149 -0.2403 -0.1295  0.0753
  911MOL0     C22868   9.324  11.713   1.246 -0.3614  0.2075  0.5863
  911MOL0     C22869   9.336  11.577   1.218  0.4530 -0.6390  1.4892
  911MOL0     C22870   9.413  11.483   1.292 -1.2606  0.3734  0.3330
  911MOL0     C22871   9.336  11.434   1.410  0.6910  0.3565 -0.5928
  911MOL0     C22872   9.432  11.375   1.520  0.3503  0.2130  0.6369
  911MOL0     C22873   9.370  11.339   1.648  0.5403  0.2273 -0.4298
  911MOL0     O22874   9.339  11.454   1.727  0.1631 -0.9634  0.1669
  911MOL0     C22875   9.284  11.425   1.847 -0.9287  0.5110  0.4148
  911MOL0     C22876   9.302  11.500   1.957  0.0364  0.1411  0.1828
  911MOL0     C22877   9.249  11.478   2.079 -0.6234  0.7494  0.7183
  911MOL0     C22878   9.164  11.369   2.103 -0.5188  0.4691 -0.7690
  911MOL0     C22879   9.111  11.335   2.232  0.1381 -0.2946 -0.6512
  911MOL0     O22880   9.169  11.380   2.350 -1.4329 -0.2534  0.2063
  911MOL0     C22881   9.121  11.350   2.475  0.1686  0.0162  0.4750
  911MOL0     C22882   9.225  11.322   2.566 -0.5432 -0.2689 -0.0657
  911MOL0     C22883   9.198  11.293   2.696  0.2506 -0.0451  0.1399
  911MOL0     C22884   9.067  11.309   2.748  0.2356  0.0560  0.1319
  911MOL0     O22885   9.048  11.273   2.878  0.2386  0.5551 -0.0234
  911MOL0     C22886   8.921  11.318   2.941 -0.0710 -0.6605 -0.2108
  911MOL0     C22887   8.940  11.365   3.085  0.7360 -0.5894 -0.2984
  911MOL0     C22888   8.825  11.444   3.144 -0.5257  0.3633  0.4891
  911MOL0     C22889   8.818  11.461   3.293 -0.1608  0.1482 -0.0861
  911MOL0     C22890   8.728  11.582   3.330  0.4170  0.8130 -0.5745
  911MOL0     C22891   8.658  11.565   3.466 -0.4592  0.0264  0.0406
  911MOL0     C22892   8.623  11.704   3.522 -0.1437  0.1033 -0.4911
  911MOL0     C22893   8.734  11.738   3.630 -0.2003  0.0756 -0.2563
  911MOL0    Cl22894   8.900  11.751   3.569  0.0643 -0.3972  0.1801
  911MOL0     C22895   8.963  11.347   2.661  0.0441  0.3714 -0.5696
  911MOL0     C22896   8.991  11.373   2.518 -0.2116 -0.1132  0.6360
  911MOL0     O22897   9.000  11.290   2.229 -0.0279 -0.2888 -0.1507
  911MOL0     C22898   9.141  11.279   1.990 -0.5701 -0.3024  1.4009
  911MOL0     C22899   9.201  11.308   1.867 -0.0434 -0.2292  1.1561
  911MOL0     N22900   9.276  11.563   1.090 -0.3884  0.5126  0.3593
  911MOL0     N22901   9.215  11.672   1.053 -1.6976 -0.0377 -0.6300
  911MOL0     C22902   8.814  11.249   0.858  0.6708  0.6377 -0.2977
  911MOL0     C22903   8.722  11.150   0.901  0.2573  1.4135 -0.3122
  911MOL0     C22904   8.323  11.010   0.975  0.7688  1.0130  0.4210
  911MOL0     C22905   8.365  11.024   1.104  0.0596 -0.5799  0.7943
  911MOL0     C22906   8.302  10.993   1.220  1.0310  1.0740 -0.0548
  911MOL0     C22907   8.174  10.940   1.220 -0.0259 -0.0497  0.5665
  911MOL0     O22908   8.109  10.906   1.336  0.0620  0.1722  0.9436
  911MOL0     C22909   7.972  10.869   1.336 -0.0127 -0.6284 -0.3025
  911MOL0     C22910   7.960  10.715   1.347  0.5798 -0.5179 -0.0498
  911MOL0     C22911   8.021  10.657   1.474  0.4096  0.0797  0.5545
  911MOL0     C22912   8.015  10.508   1.491 -0.0542 -0.5713  0.2928
  911MOL0     C22913   7.879  10.461   1.518 -0.6623  0.4138  0.8048
  911MOL0     C22914   7.782  10.410   1.563  0.3177 -0.8333 -1.1218
  911MOL0     C22915   8.120  10.915   1.085  0.4047 -0.1825 -0.5110
  911MOL0     C22916   8.186  10.954   0.964 -0.8418  0.2067 -0.4206
  911MOL0     C22917   8.112  10.922   0.836 -0.8901  0.1576 -0.2113
  911MOL0     H22918   8.569  11.081   0.612 -1.6147  1.1621 -0.0531
  911MOL0     H22919   8.720  11.265   0.543  0.0123  1.7408  1.0465
  911MOL0     H22920   9.054  11.360   0.792  1.7513 -1.7727 -1.4931
  911MOL0     H22921   9.074  11.329   0.612  1.6775  2.1177 -0.1635
  911MOL0     H22922   9.073  11.557   0.570  1.8495  1.1184 -0.5182
  911MOL0     H22923   9.191  11.534   0.701 -1.6253 -1.5573  3.1248
  911MOL0     H22924   9.016  11.616   0.873 -1.3992 -0.3638 -0.7470
  911MOL0     H22925   8.920  11.658   0.732 -0.5073 -6.3078 -0.8318
  911MOL0     H22926   9.200  11.754   0.800  1.6318 -3.5760 -2.5225
  911MOL0     H22927   9.111  11.796   0.652  2.1018  3.6625  1.0374
  911MOL0     H22928   9.055  11.981   0.775  0.0882  0.4667 -0.7706
  911MOL0     H22929   8.921  11.885   0.787  1.0865  0.3708  0.6430
  911MOL0     H22930   8.938  11.963   1.014  1.3999  1.4093  2.4387
  911MOL0     H22931   9.005  11.800   1.017  0.9055 -0.0567  1.0999
  911MOL0     H22932   9.140  12.066   1.033 -0.0863 -0.3177 -0.3380
  911MOL0     H22933   9.233  11.945   0.947  0.4578 -3.3306  0.6880
  911MOL0     H22934   9.286  11.964   1.175  0.4829 -1.3133  0.9418
  911MOL0     H22935   9.114  11.912   1.220 -1.5260 -0.3131 -1.6077
  911MOL0     H22936   9.357  11.767   1.334 -0.4123  0.4924  0.4313
  911MOL0     H22937   9.443  11.401   1.227  0.0041  0.2855  1.0031
  911MOL0     H22938   9.506  11.533   1.319 -0.3639  0.2552 -2.3106
  911MOL0     H22939   9.286  11.526   1.441 -0.1910  0.2522 -1.6295
  911MOL0     H22940   9.257  11.363   1.384  1.1408  0.1980 -1.5523
  911MOL0     H22941   9.521  11.430   1.551 -0.0971 -0.8215  4.1297
  911MOL0     H22942   9.482  11.289   1.475  0.5671  0.8576 -0.4123
  911MOL0     H22943   9.437  11.275   1.705 -1.3382 -0.3300  1.2629
  911MOL0     H22944   9.273  11.294   1.624 -0.2719  1.0292  1.2570
  911MOL0     H22945   9.362  11.590   1.947 -0.1631  0.2285 -0.2224
  911MOL0     H22946   9.269  11.545   2.162 -0.2849  0.0065  1.2587
  911MOL0     H22947   9.327  11.325   2.530 -0.2104  2.3818  0.8586
  911MOL0     H22948   9.278  11.259   2.760 -0.2418 -1.7073 -0.0853
  911MOL0     H22949   8.872  11.402   2.890 -0.2784 -2.2436 -2.7929
  911MOL0     H22950   8.864  11.225   2.942  3.9172 -3.3386  1.3974
  911MOL0     H22951   8.949  11.275   3.146  2.6466 -2.2777 -2.8807
  911MOL0     H22952   9.025  11.435   3.091 -0.5367  0.9996  0.1342
  911MOL0     H22953   8.846  11.547   3.113  3.6962 -0.3908  0.2511
  911MOL0     H22954   8.731  11.402   3.105 -0.4886  1.4689 -0.9076
  911MOL0     H22955   8.912  11.476   3.347 -0.2155 -1.5507  0.5517
  911MOL0     H22956   8.772  11.368   3.327  1.1656 -1.4625 -2.3796
  911MOL0     H22957   8.648  11.602   3.258 -2.1498 -2.5962  1.0518
  911MOL0     H22958   8.798  11.666   3.337  0.7733  0.4974 -0.2768
  911MOL0     H22959   8.578  11.491   3.469  0.4634 -1.3431 -3.5837
  911MOL0     H22960   8.731  11.521   3.536 -3.8174 -1.6971  2.7375
  911MOL0     H22961   8.523  11.708   3.566 -1.1336 -0.7921 -2.5523
  911MOL0     H22962   8.623  11.791   3.455 -0.2547  0.6700  0.2327
  911MOL0     H22963   8.710  11.841   3.660 -0.1833  0.2068 -0.6937
  911MOL0     H22964   8.727  11.675   3.719  0.3913  1.7448  1.0224
  911MOL0     H22965   8.860  11.355   2.693 -0.5921 -1.0679 -2.1229
  911MOL0     H22966   8.906  11.393   2.454 -1.8032  0.2882  2.7753
  911MOL0     H22967   9.081  11.188   1.993 -4.7864  1.8876 -2.6993
  911MOL0     H22968   9.186  11.227   1.796  2.6137  0.2732 -0.0984
  911MOL0     H22969   8.884  11.303   0.921  1.2120 -0.8121  0.3735
  911MOL0     H22970   8.708  11.133   1.007 -3.5097 -2.0813 -1.1128
  911MOL0     H22971   8.460  11.074   1.122  0.2745  0.1671 -1.9645
  911MOL0     H22972   8.353  11.011   1.314 -1.3069 -2.2990  2.0820
  911MOL0     H22973   7.919  10.901   1.245 -1.4794 -1.4680  0.2193
  911MOL0     H22974   7.921  10.909   1.424  0.6854 -0.7356  0.1516
  911MOL0     H22975   8.010  10.674   1.258 -1.5417  1.4636 -2.2974
  911MOL0     H22976   7.856  10.682   1.349  0.8312 -1.2963  0.5110
  911MOL0     H22977   7.972  10.705   1.559  0.8959 -1.7927  1.9651
  911MOL0     H22978   8.123  10.686   1.504 -1.3191  2.1248  5.5020
  911MOL0     H22979   8.066  10.450   1.414 -0.1480  0.7022 -0.7559
  911MOL0     H22980   8.074  10.484   1.581  1.6859  0.7298 -0.4588
  911MOL0     H22981   7.694  10.369   1.608  1.0225 -1.3644 -0.1702
  911MOL0     H22982   8.026  10.861   1.076  0.4791 -0.8842  2.0134
  911MOL0     H22983   8.194  10.897   0.768  3.0522  2.4352  3.2037
  911MOL0     H22984   8.047  10.835   0.847  0.2196 -0.7263 -0.4536
  911MOL0     H22985   8.048  11.004   0.801  0.4066  0.7079 -1.3874
  912MOL0     O22986   6.910   4.240   5.866  0.0691 -0.2501 -1.1060
  912MOL0     C22987   6.809   4.192   5.911  0.4084 -0.7841 -0.4879
  912MOL0     O22988   6.775   4.060   5.893 -0.0547 -0.4455 -0.3289
  912MOL0     C22989   6.885   3.992   5.852  0.1384  0.3736 -0.1715
  912MOL0     C22990   6.912   3.995   5.716  0.3044  0.2686  0.1788
  912MOL0     C22991   6.999   3.903   5.658  0.1780 -0.5010 -0.0969
  912MOL0     C22992   7.080   3.818   5.737 -1.1165 -0.3740 -0.7703
  912MOL0     O22993   7.188   3.751   5.685  0.8514 -0.3598 -0.2107
  912MOL0     C22994   7.148   3.654   5.590 -0.4417  0.5745 -0.6940
  912MOL0     C22995   7.092   3.529   5.670 -0.6173 -1.0938  0.3592
  912MOL0     C22996   7.056   3.406   5.589  0.3176 -0.3962 -0.3719
  912MOL0     C22997   7.173   3.338   5.524  0.0737  0.6125 -0.7212
  912MOL0     C22998   7.139   3.218   5.427  0.2224  0.9881  0.2523
  912MOL0     C22999   7.061   3.109   5.500 -0.1013 -0.5868 -0.9911
  912MOL0     C23000   7.033   3.001   5.405  1.0884 -0.1028 -0.0761
  912MOL0     C23001   7.166   2.934   5.344  0.3008  0.1920  0.4940
  912MOL0     N23002   7.130   2.815   5.261  0.0208  0.1728 -0.0039
  912MOL0     C23003   7.027   2.808   5.171 -0.0203  0.5453  0.7454
  912MOL0     C23004   7.054   2.701   5.098  0.5222 -0.1843 -0.1727
  912MOL0     C23005   6.948   2.643   5.004  0.1813 -0.4145  0.1129
  912MOL0     C23006   6.808   2.619   5.053 -0.0221  0.2333  0.4870
  912MOL0     C23007   6.816   2.513   5.155 -0.4284  0.9005 -0.3377
  912MOL0     C23008   6.689   2.485   5.233  0.0907  0.3223  0.3027
  912MOL0     O23009   6.654   2.595   5.321  0.6482  0.4298 -0.2371
  912MOL0     C23010   6.602   2.581   5.453 -0.1039 -0.2830 -0.2819
  912MOL0     C23011   6.542   2.462   5.500  0.5753  0.4720  0.4792
  912MOL0     C23012   6.501   2.462   5.634 -0.3802  0.3405 -0.2257
  912MOL0     C23013   6.507   2.575   5.720 -0.0012 -0.4007  0.0975
  912MOL0     C23014   6.454   2.570   5.858  0.4500 -0.1265  1.0231
  912MOL0     O23015   6.461   2.691   5.925  0.1965 -0.3383 -0.9180
  912MOL0     C23016   6.445   2.685   6.061 -0.0111 -0.6939  0.7499
  912MOL0     C23017   6.337   2.752   6.122 -0.4271 -0.4160  0.2501
  912MOL0     C23018   6.318   2.756   6.262 -0.5321 -0.3741 -0.0744
  912MOL0     C23019   6.398   2.678   6.345  0.3007  1.1300 -1.1277
  912MOL0     O23020   6.404   2.694   6.484  0.3309 -0.2137  0.3201
  912MOL0     C23021   6.434   2.577   6.563 -0.0784  0.3212  0.3476
  912MOL0     C23022   6.385   2.611   6.698 -0.3630  0.5992  0.1047
  912MOL0     C23023   6.398   2.477   6.786 -0.9492  0.0727  0.0608
  912MOL0     C23024   6.298   2.368   6.752  0.3036 -0.2471  0.4629
  912MOL0     C23025   6.152   2.423   6.733 -0.0744  0.5403 -1.4537
  912MOL0     C23026   6.060   2.299   6.737  0.0056 -0.3242 -0.0248
  912MOL0     C23027   5.917   2.357   6.730  0.6225  0.7672  1.0848
  912MOL0     C23028   5.807   2.263   6.668 -0.6383  0.0959 -0.2517
  912MOL0    Cl23029   5.835   2.099   6.708 -0.3224 -0.1228  0.3354
  912MOL0     C23030   6.496   2.593   6.284 -0.9108 -0.0370 -1.2558
  912MOL0     C23031   6.522   2.610   6.154 -0.0552  0.4403  0.8299
  912MOL0     O23032   6.415   2.459   5.900  0.0379 -0.1460 -0.0326
  912MOL0     C23033   6.557   2.691   5.665 -1.5410 -0.2438  0.5305
  912MOL0     C23034   6.615   2.692   5.539  0.3816 -0.6680 -0.6506
  912MOL0     N23035   7.163   2.637   5.156 -0.7694 -0.1066  0.3407
  912MOL0     N23036   7.208   2.699   5.256  0.4038 -0.0348 -1.1069
  912MOL0     C23037   7.045   3.806   5.868  0.1053 -0.1192 -0.5310
  912MOL0     C23038   6.952   3.888   5.935  0.7079  0.4656  0.4627
  912MOL0     C23039   6.710   4.270   5.994  0.2723 -0.5530  0.7987
  912MOL0     C23040   6.612   4.202   6.074  0.6329  0.1498  0.3462
  912MOL0     C23041   6.524   4.266   6.158  0.2275  0.1962  0.4753
  912MOL0     C23042   6.539   4.400   6.180 -0.2472 -0.2748 -0.1364
  912MOL0     O23043   6.458   4.477   6.263  0.1582  0.1571  0.3608
  912MOL0     C23044   6.521   4.514   6.377 -1.0523 -0.4736 -0.9444
  912MOL0     C23045   6.498   4.418   6.493  0.0430  0.1254 -0.6753
  912MOL0     C23046   6.537   4.476   6.627 -0.0567  0.1988 -0.3595
  912MOL0     C23047   6.473   4.411   6.751  0.9142 -0.7962  0.1133
  912MOL0     C23048   6.572   4.407   6.856  0.4547  0.8245  0.1360
  912MOL0     C23049   6.657   4.386   6.939  0.0920 -0.2322 -0.6821
  912MOL0     C23050   6.632   4.469   6.094 -0.1582  0.0428  0.9090
  912MOL0     C23051   6.718   4.404   6.004  0.4221  0.1395  0.1091
  912MOL0     C23052   6.821   4.494   5.937  0.4911  0.2515  0.0546
  912MOL0     H23053   6.856   4.073   5.664 -3.5711 -0.5606  2.7219
  912MOL0     H23054   7.039   3.905   5.557  0.7209  1.0859  0.1250
  912MOL0     H23055   7.068   3.693   5.527 -0.7380 -2.2581 -2.2523
  912MOL0     H23056   7.221   3.618   5.516 -0.6625 -1.3537 -0.0383
  912MOL0     H23057   7.018   3.564   5.742  0.4486  1.4252  0.3506
  912MOL0     H23058   7.179   3.507   5.733  1.8982  3.5102 -1.0002
  912MOL0     H23059   6.992   3.424   5.502  0.7129 -3.5748 -1.4530
  912MOL0     H23060   7.009   3.345   5.667 -1.3681 -2.1861 -2.6339
  912MOL0     H23061   7.228   3.409   5.460  1.6984  0.8962  0.9022
  912MOL0     H23062   7.242   3.304   5.602 -0.7336 -0.9084 -0.6407
  912MOL0     H23063   7.077   3.252   5.344  0.5358 -1.8981 -1.2806
  912MOL0     H23064   7.233   3.176   5.392  0.1790  0.5426  0.6602
  912MOL0     H23065   7.127   3.066   5.576  2.7482  1.6587 -2.0332
  912MOL0     H23066   6.971   3.152   5.545  0.9157  0.6080 -0.0030
  912MOL0     H23067   6.999   3.058   5.318  1.0617 -0.8185 -0.5412
  912MOL0     H23068   6.961   2.934   5.452  0.6891  1.9965  2.5249
  912MOL0     H23069   7.211   3.000   5.269 -0.0982 -3.3373 -3.1901
  912MOL0     H23070   7.231   2.898   5.424  1.9129 -5.4603 -2.7735
  912MOL0     H23071   6.945   2.875   5.149 -0.0797  0.0020 -0.8042
  912MOL0     H23072   6.946   2.708   4.915 -1.6114 -2.9039 -1.8058
  912MOL0     H23073   6.977   2.545   4.966 -0.8504 -0.3108 -0.9953
  912MOL0     H23074   6.758   2.704   5.100  0.1188  0.7404 -0.2568
  912MOL0     H23075   6.742   2.589   4.970 -1.6164  1.0166  1.4206
  912MOL0     H23076   6.883   2.542   5.236 -1.2170  1.5698  0.0824
  912MOL0     H23077   6.853   2.424   5.103 -0.8479 -0.6255  1.8077
  912MOL0     H23078   6.701   2.392   5.289  0.1917  1.1675  1.7335
  912MOL0     H23079   6.606   2.460   5.166  1.3992  0.0161 -1.2582
  912MOL0     H23080   6.534   2.363   5.457  1.7883  1.0497 -1.1880
  912MOL0     H23081   6.465   2.369   5.677 -0.8429 -1.2256 -3.6302
  912MOL0     H23082   6.265   2.812   6.067  0.3719 -0.2041 -0.5980
  912MOL0     H23083   6.251   2.826   6.312  0.0347 -1.0272  1.6658
  912MOL0     H23084   6.393   2.484   6.521 -0.1369 -0.6422  2.3904
  912MOL0     H23085   6.543   2.574   6.573 -0.0727  2.1729  1.2569
  912MOL0     H23086   6.447   2.691   6.740  0.0740 -0.2286  1.0924
  912MOL0     H23087   6.281   2.645   6.691 -0.5261 -0.1468 -1.4381
  912MOL0     H23088   6.496   2.430   6.785 -1.8772 -1.9675 -1.2406
  912MOL0     H23089   6.385   2.509   6.890  3.8108  0.6621  0.6910
  912MOL0     H23090   6.325   2.301   6.835 -0.0111 -1.9269 -0.7531
  912MOL0     H23091   6.325   2.332   6.653 -2.6306  2.2775 -1.4284
  912MOL0     H23092   6.150   2.473   6.636  1.3902  1.3233 -1.1175
  912MOL0     H23093   6.127   2.483   6.821 -0.1866 -0.2328 -0.9403
  912MOL0     H23094   6.080   2.245   6.644 -1.8231  1.1837 -1.3747
  912MOL0     H23095   6.084   2.228   6.817  2.3878 -1.3632 -1.5455
  912MOL0     H23096   5.921   2.453   6.678 -0.8100  0.1403 -0.2883
  912MOL0     H23097   5.882   2.376   6.832 -2.2743  0.5854  0.2337
  912MOL0     H23098   5.709   2.295   6.704 -0.5851 -0.5071  0.4517
  912MOL0     H23099   5.816   2.276   6.559 -0.8103 -0.5980 -0.3523
  912MOL0     H23100   6.567   2.524   6.330 -0.3494  0.9993 -0.5188
  912MOL0     H23101   6.594   2.542   6.111  1.7743  2.8343 -0.0651
  912MOL0     H23102   6.557   2.775   5.734 -0.9613 -1.4169  2.0067
  912MOL0     H23103   6.646   2.787   5.497 -2.2794  1.7264  2.3126
  912MOL0     H23104   7.082   3.715   5.913  2.7164  1.3014  0.3470
  912MOL0     H23105   6.929   3.864   6.038  1.3224  1.3912  0.8353
  912MOL0     H23106   6.612   4.096   6.055  0.2495  0.3565 -0.8699
  912MOL0     H23107   6.452   4.208   6.214  1.0877 -1.4252 -0.0196
  912MOL0     H23108   6.478   4.608   6.413  0.7359 -0.8073  2.4737
  912MOL0     H23109   6.628   4.525   6.359 -0.3775 -0.4720  2.3989
  912MOL0     H23110   6.562   4.333   6.470  0.5614  0.7393 -1.6015
  912MOL0     H23111   6.396   4.378   6.488  0.8468 -2.1028 -0.2170
  912MOL0     H23112   6.499   4.579   6.630  2.2636  1.3147  5.9078
  912MOL0     H23113   6.645   4.482   6.640  0.0819 -0.6483 -1.0403
  912MOL0     H23114   6.387   4.472   6.781  1.3594  1.2398 -2.3661
  912MOL0     H23115   6.438   4.311   6.726  0.5923 -0.6417 -0.0583
  912MOL0     H23116   6.740   4.378   7.007  0.7046  1.7916 -1.1056
  912MOL0     H23117   6.630   4.577   6.104  0.5977  0.6331 -3.4675
  912MOL0     H23118   6.918   4.505   5.986 -0.2181  2.7408  1.0563
  912MOL0     H23119   6.828   4.470   5.830 -0.5521  2.7734 -0.6392
  912MOL0     H23120   6.792   4.599   5.934  3.4882  1.2860  2.2347
  913MOL0     O23121   5.323   0.402   4.272 -0.1013  0.4173  0.2125
  913MOL0     C23122   5.260   0.381   4.169  1.0096 -0.1711  0.0040
  913MOL0     O23123   5.214   0.257   4.134 -0.9819  0.3172 -0.2803
  913MOL0     C23124   5.248   0.149   4.222  0.4489 -0.9508  0.3966
  913MOL0     C23125   5.159   0.113   4.317  0.1917  0.2752 -0.9022
  913MOL0     C23126   5.174  -0.001   4.399  0.3584  0.4687 -0.2936
  913MOL0     C23127   5.294  -0.073   4.389  0.8982 -0.5074 -0.5454
  913MOL0     O23128   5.328  -0.169   4.477 -0.1796  0.0825  0.0267
  913MOL0     C23129   5.299  -0.285   4.414  0.4093 -0.3760 -0.0257
  913MOL0     C23130   5.319  -0.400   4.508 -0.0780 -0.2253 -0.6192
  913MOL0     C23131   5.210  -0.445   4.598  0.2180 -0.6046 -0.1492
  913MOL0     C23132   5.147  -0.338   4.684 -0.4170  0.3833 -0.7368
  913MOL0     C23133   5.072  -0.395   4.805 -0.5088  0.1943  1.2098
  913MOL0     C23134   4.954  -0.489   4.775 -1.0406  0.5073 -0.5658
  913MOL0     C23135   4.866  -0.528   4.897 -0.4929 -0.6102  0.3421
  913MOL0     C23136   4.810  -0.400   4.959  0.5725 -0.4281  0.5089
  913MOL0     N23137   4.686  -0.422   5.031 -0.5265 -0.1915  0.1263
  913MOL0     C23138   4.668  -0.511   5.128  0.5341 -0.7852 -1.1063
  913MOL0     C23139   4.542  -0.490   5.170  0.0146 -0.6534  0.4741
  913MOL0     C23140   4.462  -0.573   5.268 -0.4182 -0.4828  0.4951
  913MOL0     C23141   4.489  -0.721   5.270  0.0771 -0.5032  0.1495
  913MOL0     C23142   4.482  -0.781   5.126 -0.6336  0.8005 -0.2453
  913MOL0     C23143   4.359  -0.751   5.056  0.8284 -0.1409  0.2271
  913MOL0     O23144   4.343  -0.810   4.926 -0.5280  0.1947 -0.0974
  913MOL0     C23145   4.409  -0.759   4.815  0.2877  0.4279 -0.1120
  913MOL0     C23146   4.456  -0.632   4.804  0.0002  0.0811 -0.3948
  913MOL0     C23147   4.496  -0.592   4.676  1.3106 -0.4266 -0.3183
  913MOL0     C23148   4.514  -0.683   4.569 -0.2097 -1.3651  0.1588
  913MOL0     C23149   4.575  -0.636   4.442  0.5450  0.4852 -0.1995
  913MOL0     O23150   4.666  -0.536   4.458 -0.4314 -0.4371  0.1878
  913MOL0     C23151   4.748  -0.486   4.362 -0.6176  1.3290 -0.4958
  913MOL0     C23152   4.784  -0.560   4.248 -0.3856  0.2098 -0.9883
  913MOL0     C23153   4.875  -0.504   4.153 -0.2591  0.6156  0.9553
  913MOL0     C23154   4.924  -0.381   4.176 -1.5429 -0.7296 -0.0560
  913MOL0     O23155   5.007  -0.348   4.063  0.3559 -0.8757 -0.3779
  913MOL0     C23156   5.057  -0.216   4.070 -0.8129 -0.0730  0.4807
  913MOL0     C23157   5.141  -0.191   3.941 -0.6792 -0.5691  0.0328
  913MOL0     C23158   5.195  -0.048   3.920 -0.3744 -0.3748 -0.8707
  913MOL0     C23159   5.259  -0.021   3.785  0.2121 -0.0193  0.1346
  913MOL0     C23160   5.151  -0.030   3.674 -0.2412  0.1785  0.1963
  913MOL0     C23161   5.179   0.053   3.549  0.1334  0.0043  0.4373
  913MOL0     C23162   5.056   0.035   3.457  0.1519 -0.8078 -0.0347
  913MOL0     C23163   5.071   0.104   3.324  0.1949 -0.5168 -0.1664
  913MOL0    Cl23164   5.216   0.045   3.238  0.2496  0.0973 -0.3975
  913MOL0     C23165   4.887  -0.308   4.290 -0.2301 -0.5646  0.1354
  913MOL0     C23166   4.800  -0.360   4.388  0.0310  0.4781  0.3483
  913MOL0     O23167   4.555  -0.703   4.344  0.1513  0.4713  0.3285
  913MOL0     C23168   4.486  -0.818   4.586 -0.7083  0.6878 -0.3477
  913MOL0     C23169   4.421  -0.847   4.711 -0.8400  0.6604  0.1528
  913MOL0     N23170   4.493  -0.383   5.087  0.1295 -0.2701  0.1518
  913MOL0     N23171   4.582  -0.338   5.011  0.2652 -0.8354 -0.5201
  913MOL0     C23172   5.389  -0.025   4.295  0.7113 -0.5153 -0.9127
  913MOL0     C23173   5.370   0.078   4.211  0.4717  0.8449 -0.4229
  913MOL0     C23174   5.229   0.500   4.084  0.7746 -0.1360  0.2260
  913MOL0     C23175   5.188   0.614   4.158  0.9511  0.0210  0.3254
  913MOL0     C23176   5.168   0.734   4.087  0.7224 -0.2379  0.1359
  913MOL0     C23177   5.192   0.735   3.952  0.2525 -0.1675 -1.0944
  913MOL0     O23178   5.168   0.837   3.863  0.0526  0.3741 -0.6773
  913MOL0     C23179   5.168   0.974   3.919  0.2518  0.6019  0.1039
  913MOL0     C23180   5.317   0.990   3.949  0.5315 -0.3964 -0.6778
  913MOL0     C23181   5.361   1.142   3.958 -0.3667 -0.2647 -0.0837
  913MOL0     C23182   5.497   1.172   4.027 -0.0918  0.4154  0.2669
  913MOL0     C23183   5.524   1.091   4.147  1.1653 -0.4552  0.3792
  913MOL0     C23184   5.543   1.009   4.231 -0.6107 -0.3688 -1.0252
  913MOL0     C23185   5.233   0.621   3.884 -1.0491 -0.9381 -0.1719
  913MOL0     C23186   5.254   0.494   3.948  0.4856  0.6509 -0.4453
  913MOL0     C23187   5.300   0.384   3.873 -0.6111  0.8743 -0.0889
  913MOL0     H23188   5.070   0.174   4.333 -0.5199 -1.0314  0.3393
  913MOL0     H23189   5.091  -0.018   4.468  3.8016  1.9367  4.7545
  913MOL0     H23190   5.196  -0.284   4.377  0.2073  2.7282  0.3244
  913MOL0     H23191   5.363  -0.292   4.326  0.2767  3.1848 -0.5612
  913MOL0     H23192   5.405  -0.371   4.569  0.4977 -0.1775 -1.4469
  913MOL0     H23193   5.339  -0.478   4.434 -1.2142 -0.6824 -0.4713
  913MOL0     H23194   5.232  -0.536   4.655 -1.2769  0.5648  2.4649
  913MOL0     H23195   5.131  -0.482   4.532 -2.4073 -0.8909  2.9245
  913MOL0     H23196   5.227  -0.273   4.721  1.2162 -1.5535 -0.6852
  913MOL0     H23197   5.073  -0.288   4.621 -0.2245  0.9889 -0.4937
  913MOL0     H23198   5.142  -0.446   4.872  0.8074  1.7738  1.1268
  913MOL0     H23199   5.029  -0.303   4.847 -0.2348  1.1121 -0.4291
  913MOL0     H23200   4.889  -0.436   4.704 -3.2237 -1.6726 -0.3330
  913MOL0     H23201   4.988  -0.582   4.730 -1.6168  0.6635 -1.3521
  913MOL0     H23202   4.916  -0.592   4.971 -2.9704 -2.0560  0.8741
  913MOL0     H23203   4.778  -0.584   4.864  0.5893 -1.6542 -0.8793
  913MOL0     H23204   4.875  -0.346   5.028 -1.2179  0.2828  1.6918
  913MOL0     H23205   4.784  -0.334   4.875  1.1042 -3.2692 -2.0477
  913MOL0     H23206   4.730  -0.594   5.158  0.5904 -0.9730 -1.7260
  913MOL0     H23207   4.476  -0.522   5.365 -3.8824 -0.6206  1.2238
  913MOL0     H23208   4.354  -0.561   5.250 -0.7522 -2.3891  1.0592
  913MOL0     H23209   4.582  -0.741   5.324  1.6707 -2.4809 -3.0350
  913MOL0     H23210   4.407  -0.771   5.321 -1.3060  2.8042  1.4563
  913MOL0     H23211   4.500  -0.888   5.134 -1.4137  0.6939  0.1670
  913MOL0     H23212   4.566  -0.750   5.063  1.1090 -3.0720 -0.1136
  913MOL0     H23213   4.336  -0.644   5.058 -1.2709 -0.3874  5.5868
  913MOL0     H23214   4.283  -0.801   5.117 -0.2198 -2.8696 -2.9607
  913MOL0     H23215   4.450  -0.569   4.892  0.0350  1.0222 -1.0537
  913MOL0     H23216   4.522  -0.489   4.650 -2.8978  0.7643 -0.4824
  913MOL0     H23217   4.743  -0.656   4.217 -0.2813  0.1569 -0.9616
  913MOL0     H23218   4.909  -0.551   4.062 -1.6019  0.5280  0.4747
  913MOL0     H23219   4.974  -0.145   4.076  0.2714  1.1657  1.7412
  913MOL0     H23220   5.119  -0.199   4.159 -1.9233  0.4507  1.1806
  913MOL0     H23221   5.227  -0.255   3.957 -0.4698  0.1969  2.4163
  913MOL0     H23222   5.081  -0.218   3.853 -0.1956  1.8972 -1.1709
  913MOL0     H23223   5.116   0.027   3.927 -2.1305 -2.1939  0.0330
  913MOL0     H23224   5.268  -0.036   4.000 -1.5098 -0.9652  0.2847
  913MOL0     H23225   5.350  -0.079   3.765 -0.4661 -0.4900 -1.7851
  913MOL0     H23226   5.303   0.079   3.781 -1.3510  0.6557 -1.7186
  913MOL0     H23227   5.056   0.007   3.714  0.3036  0.2588  1.4924
  913MOL0     H23228   5.139  -0.136   3.650 -0.8361 -0.0636  1.4946
  913MOL0     H23229   5.198   0.156   3.580  0.8561  0.0150 -0.0050
  913MOL0     H23230   5.266   0.014   3.495 -2.4353  0.0350 -4.1488
  913MOL0     H23231   4.967   0.064   3.515  0.5888 -0.8889  0.6904
  913MOL0     H23232   5.057  -0.073   3.441  1.0248 -0.8655  0.3565
  913MOL0     H23233   4.980   0.091   3.264  0.3230  0.0598 -0.4925
  913MOL0     H23234   5.079   0.208   3.355 -3.3178 -0.9468  2.8298
  913MOL0     H23235   4.932  -0.210   4.302  2.7233 -1.7935 -0.0382
  913MOL0     H23236   4.785  -0.309   4.483 -2.0253 -1.1956  0.9860
  913MOL0     H23237   4.502  -0.895   4.512  0.3382  0.1184  0.4468
  913MOL0     H23238   4.400  -0.952   4.729  0.9598  0.3201  0.4593
  913MOL0     H23239   5.486  -0.072   4.283  0.6585 -0.7736 -0.3901
  913MOL0     H23240   5.443   0.110   4.138  1.5574  0.3320  0.4225
  913MOL0     H23241   5.171   0.617   4.265  0.6965 -0.7551  0.3140
  913MOL0     H23242   5.126   0.813   4.148  2.2909  0.3315  0.5170
  913MOL0     H23243   5.107   0.967   4.010  0.6684 -0.5076  0.3098
  913MOL0     H23244   5.144   1.051   3.845  6.1245  1.2149 -1.6100
  913MOL0     H23245   5.363   0.934   3.867  2.8606  0.4056  0.0083
  913MOL0     H23246   5.349   0.939   4.040  3.5929  1.0382 -0.8067
  913MOL0     H23247   5.285   1.185   4.024  0.6951  2.0267 -0.2611
  913MOL0     H23248   5.362   1.187   3.858 -1.0551  0.5019  0.2378
  913MOL0     H23249   5.578   1.158   3.956  0.5029  3.1962  0.2990
  913MOL0     H23250   5.509   1.274   4.066  2.7959 -0.1949  1.2416
  913MOL0     H23251   5.565   0.929   4.299  0.7196  0.4210 -0.4767
  913MOL0     H23252   5.242   0.628   3.776 -2.0048 -0.2977 -0.2249
  913MOL0     H23253   5.309   0.405   3.766  0.3028 -0.4783 -0.3008
  913MOL0     H23254   5.403   0.360   3.903 -0.2896  1.5154 -0.6437
  913MOL0     H23255   5.239   0.293   3.874 -0.8078  0.9446 -2.3773
  914MOL0     O23256   7.565   1.000   6.592  0.5554  0.7665 -0.4804
  914MOL0     C23257   7.538   0.933   6.695  0.0288 -0.3408  0.7004
  914MOL0     O23258   7.445   0.833   6.704  0.6820  0.2744  0.3653
  914MOL0     C23259   7.344   0.793   6.613  0.0541 -0.4439 -0.3020
  914MOL0     C23260   7.299   0.877   6.511  0.3487  0.7542  0.1299
  914MOL0     C23261   7.197   0.835   6.429 -0.3876  0.2914 -0.9540
  914MOL0     C23262   7.123   0.717   6.464 -0.1221  0.6722 -0.7146
  914MOL0     O23263   6.997   0.690   6.397  0.3016 -0.8273 -0.9263
  914MOL0     C23264   6.991   0.670   6.251 -0.2327 -0.0083  0.0378
  914MOL0     C23265   6.910   0.790   6.205  1.1738  0.3677  0.0405
  914MOL0     C23266   6.764   0.771   6.261  0.8083  0.0805 -0.4379
  914MOL0     C23267   6.661   0.857   6.184 -0.7457 -0.5611  0.2474
  914MOL0     C23268   6.515   0.812   6.204 -0.2373  0.0540 -0.5245
  914MOL0     C23269   6.421   0.855   6.099  0.1621  0.8039 -0.4572
  914MOL0     C23270   6.282   0.792   6.132 -0.6015  0.6642 -0.5793
  914MOL0     C23271   6.204   0.764   6.010  0.3734  0.3084  0.0214
  914MOL0     N23272   6.176   0.879   5.919 -0.2031 -0.2715  0.6183
  914MOL0     C23273   6.059   0.952   5.909 -0.0580  0.9380 -0.4190
  914MOL0     C23274   6.073   1.034   5.805  0.0202 -0.9289  0.1969
  914MOL0     C23275   5.959   1.123   5.745  0.1114  0.1623 -0.6065
  914MOL0     C23276   5.904   1.070   5.613  0.1565 -0.0569  0.0259
  914MOL0     C23277   5.930   1.157   5.483  0.3809 -0.5606  0.1222
  914MOL0     C23278   6.075   1.161   5.439 -0.4656 -0.0180 -0.6105
  914MOL0     O23279   6.092   1.267   5.345  0.7200 -0.4798  0.0932
  914MOL0     C23280   6.220   1.312   5.314 -0.1072 -0.0852 -0.5190
  914MOL0     C23281   6.337   1.239   5.346  0.0721  0.3391  0.5750
  914MOL0     C23282   6.460   1.287   5.304 -0.6433  0.9697  0.5361
  914MOL0     C23283   6.474   1.407   5.240  0.5527 -1.0896  0.1154
  914MOL0     C23284   6.607   1.456   5.198  1.1258  0.2698  0.2439
  914MOL0     O23285   6.608   1.516   5.071 -0.7547  0.2258 -0.5258
  914MOL0     C23286   6.734   1.563   5.040 -0.6962 -0.1260 -0.5817
  914MOL0     C23287   6.850   1.480   5.031  0.5429 -0.0842 -0.0139
  914MOL0     C23288   6.981   1.534   5.009 -0.1325  0.0973  0.0363
  914MOL0     C23289   6.991   1.673   4.997  0.1667 -0.8642  0.3407
  914MOL0     O23290   7.119   1.725   4.992 -0.5887 -0.1557 -0.4890
  914MOL0     C23291   7.156   1.842   4.920 -0.2509 -0.5021  0.2034
  914MOL0     C23292   7.208   1.807   4.783 -0.0820  0.5560 -0.0344
  914MOL0     C23293   7.332   1.710   4.773 -0.0977  0.4370  0.0565
  914MOL0     C23294   7.408   1.714   4.643 -0.4544  0.2009 -0.9034
  914MOL0     C23295   7.325   1.642   4.537 -0.7795 -0.4398  0.3344
  914MOL0     C23296   7.377   1.498   4.539  0.7578 -0.0135 -0.1537
  914MOL0     C23297   7.270   1.397   4.483 -0.1631 -0.1403  0.4453
  914MOL0     C23298   7.171   1.359   4.590  0.1764  0.8846 -0.3544
  914MOL0    Cl23299   7.106   1.217   4.507 -0.0827 -0.1918 -0.1172
  914MOL0     C23300   6.878   1.758   5.000 -0.9999 -1.3567  0.1184
  914MOL0     C23301   6.751   1.700   5.010 -0.6666 -0.1030 -0.1676
  914MOL0     O23302   6.705   1.429   5.266  0.3896  0.3725  0.0279
  914MOL0     C23303   6.356   1.489   5.225 -0.2890  0.2299  1.1154
  914MOL0     C23304   6.230   1.436   5.262 -0.6787  0.0227  0.3601
  914MOL0     N23305   6.198   1.011   5.741  0.3560 -0.3331 -0.2084
  914MOL0     N23306   6.255   0.912   5.804 -0.5010  0.3573 -0.9679
  914MOL0     C23307   7.168   0.640   6.574 -0.0424  0.1910  1.0450
  914MOL0     C23308   7.279   0.676   6.645  0.5519  0.1501  0.1643
  914MOL0     C23309   7.631   0.952   6.808 -0.0016  0.3921 -0.5271
  914MOL0     C23310   7.662   0.840   6.888  0.1790 -0.1762  0.0361
  914MOL0     C23311   7.725   0.852   7.010  0.5809 -0.5592  0.2082
  914MOL0     C23312   7.769   0.979   7.053 -0.3513  0.1290 -0.8451
  914MOL0     O23313   7.837   0.992   7.174  0.0265 -0.1436 -0.4881
  914MOL0     C23314   7.911   0.879   7.233 -0.2472  0.7331  0.0539
  914MOL0     C23315   7.981   0.915   7.366 -0.1791 -0.3679  0.8135
  914MOL0     C23316   8.096   0.814   7.407 -0.0972 -0.9180 -0.6774
  914MOL0     C23317   8.188   0.851   7.524  0.0322  0.2246 -0.4365
  914MOL0     C23318   8.112   0.876   7.645  0.2010  0.1597 -0.6510
  914MOL0     C23319   8.061   0.893   7.750  0.0302 -0.7418 -0.2033
  914MOL0     C23320   7.735   1.094   6.980 -1.2095  0.0813  1.0883
  914MOL0     C23321   7.671   1.076   6.854  0.0700 -0.5770 -0.0329
  914MOL0     C23322   7.652   1.208   6.780  0.5170 -0.4434 -0.6329
  914MOL0     H23323   7.342   0.974   6.488 -0.8145  1.3980  0.5843
  914MOL0     H23324   7.178   0.905   6.349  1.5712  0.8457 -0.9858
  914MOL0     H23325   7.090   0.667   6.203  0.6732  0.5968  1.7990
  914MOL0     H23326   6.935   0.584   6.212 -1.6519  2.8077 -5.0643
  914MOL0     H23327   6.919   0.792   6.096  1.5730  0.0476  0.0699
  914MOL0     H23328   6.944   0.885   6.246 -3.0101  1.1225  2.3741
  914MOL0     H23329   6.754   0.797   6.366 -2.2937 -1.1185 -0.3195
  914MOL0     H23330   6.740   0.666   6.240  0.3246  0.3556 -1.3464
  914MOL0     H23331   6.657   0.958   6.225 -0.9551 -1.0237  1.4321
  914MOL0     H23332   6.697   0.875   6.083  0.2229 -0.7809  0.5429
  914MOL0     H23333   6.510   0.703   6.200 -2.0650  0.1066 -0.8005
  914MOL0     H23334   6.478   0.825   6.306 -3.0741  0.6875 -1.5391
  914MOL0     H23335   6.423   0.964   6.090 -2.9236  0.9868  0.0560
  914MOL0     H23336   6.447   0.809   6.002 -2.3623  1.5533 -1.5723
  914MOL0     H23337   6.220   0.851   6.200 -1.2210 -1.3431  0.6780
  914MOL0     H23338   6.293   0.696   6.182 -1.1454  0.5100 -0.7473
  914MOL0     H23339   6.253   0.689   5.948 -0.9181  1.6003 -2.7080
  914MOL0     H23340   6.108   0.723   6.043  1.6164 -3.1645 -0.2374
  914MOL0     H23341   5.977   0.943   5.980  0.9058 -2.4226  0.5086
  914MOL0     H23342   5.878   1.140   5.818  1.5097  0.6165  0.9018
  914MOL0     H23343   5.996   1.222   5.718 -2.3544  1.6646  1.0764
  914MOL0     H23344   5.948   0.971   5.597  2.0772  0.7429  0.1050
  914MOL0     H23345   5.796   1.065   5.625  0.0527  2.6700  0.8861
  914MOL0     H23346   5.896   1.260   5.499 -2.3268 -1.2418 -0.7768
  914MOL0     H23347   5.880   1.110   5.399  1.0068 -0.5158 -0.2859
  914MOL0     H23348   6.109   1.062   5.408  0.8243 -0.6209  2.4117
  914MOL0     H23349   6.139   1.193   5.522  2.9746  0.9724 -3.3959
  914MOL0     H23350   6.337   1.141   5.392 -0.2535  0.4610  0.8376
  914MOL0     H23351   6.559   1.243   5.317  0.9143  2.9917 -3.0139
  914MOL0     H23352   6.827   1.377   5.056 -1.0186  0.1038 -0.5797
  914MOL0     H23353   7.071   1.476   5.024 -0.4880 -0.0777  1.7281
  914MOL0     H23354   7.073   1.912   4.905 -0.9364 -1.5062 -0.8898
  914MOL0     H23355   7.227   1.905   4.974 -1.1803 -0.2484  1.1688
  914MOL0     H23356   7.125   1.772   4.721 -0.3111 -1.3792  1.2788
  914MOL0     H23357   7.233   1.900   4.730  0.0311 -0.8194 -2.5656
  914MOL0     H23358   7.405   1.732   4.852 -1.7603  0.2266  1.7288
  914MOL0     H23359   7.298   1.609   4.798  0.0929 -0.1029 -1.7636
  914MOL0     H23360   7.508   1.672   4.658 -0.2145  1.7281  3.0431
  914MOL0     H23361   7.429   1.818   4.614  0.1232  0.0602 -0.9949
  914MOL0     H23362   7.328   1.695   4.442 -3.1541 -2.8682 -1.2226
  914MOL0     H23363   7.223   1.658   4.572 -0.9214 -0.6216  0.0070
  914MOL0     H23364   7.468   1.485   4.479 -0.2202 -1.1966 -1.4466
  914MOL0     H23365   7.396   1.455   4.638 -0.8193 -4.1009 -1.4280
  914MOL0     H23366   7.335   1.312   4.461  0.6681  0.4034  0.7316
  914MOL0     H23367   7.234   1.422   4.383  3.3477 -0.8126 -1.1303
  914MOL0     H23368   7.220   1.347   4.687  1.7084 -0.5240 -1.2333
  914MOL0     H23369   7.096   1.437   4.602  1.2657  3.0431 -5.3029
  914MOL0     H23370   6.895   1.865   5.003  5.6071 -1.8658 -1.9398
  914MOL0     H23371   6.666   1.767   5.019  0.5060  1.1560  2.8652
  914MOL0     H23372   6.384   1.586   5.185  0.5873  0.3496  1.9906
  914MOL0     H23373   6.149   1.504   5.237  2.0627  5.2708  3.8599
  914MOL0     H23374   7.110   0.551   6.594 -1.6673  0.7777 -0.6718
  914MOL0     H23375   7.316   0.615   6.727 -1.6032 -0.3020  0.8603
  914MOL0     H23376   7.631   0.744   6.848  0.0222 -0.4914  0.8949
  914MOL0     H23377   7.738   0.761   7.068  3.2576  0.6008  1.5745
  914MOL0     H23378   7.983   0.843   7.159  1.1215 -0.9636  2.1285
  914MOL0     H23379   7.851   0.796   7.271  2.0530 -0.6668  0.8056
  914MOL0     H23380   7.907   0.918   7.446 -0.1126  0.0931  0.8641
  914MOL0     H23381   8.030   1.013   7.359 -1.7523  0.3269 -2.2928
  914MOL0     H23382   8.171   0.799   7.328  1.1921  0.2384  0.2627
  914MOL0     H23383   8.054   0.718   7.438  2.0631 -2.5263 -2.3246
  914MOL0     H23384   8.260   0.777   7.559 -1.9182 -2.1760 -1.1790
  914MOL0     H23385   8.233   0.947   7.498 -0.4410  0.8666  0.9718
  914MOL0     H23386   8.015   0.914   7.844 -2.9441 -1.3914 -1.4206
  914MOL0     H23387   7.773   1.191   7.009 -2.7168  0.9539  0.2703
  914MOL0     H23388   7.676   1.299   6.835  1.1360 -0.7584 -0.3696
  914MOL0     H23389   7.715   1.211   6.691  0.5153 -3.3482 -0.8433
  914MOL0     H23390   7.547   1.212   6.748  1.7039  3.2014 -4.9773
  915MOL0     O23391   5.862   2.281   1.061 -0.4011 -0.6704  0.9138
  915MOL0     C23392   5.894   2.387   1.120  0.3672  0.3502 -0.6137
  915MOL0     O23393   5.836   2.507   1.101  0.1552  0.3369 -0.6678
  915MOL0     C23394   5.706   2.516   1.058  1.3189 -0.2884  0.0239
  915MOL0     C23395   5.623   2.588   1.141 -0.3792 -0.1039 -0.7860
  915MOL0     C23396   5.495   2.625   1.105 -0.4793 -1.1269 -0.5017
  915MOL0     C23397   5.447   2.580   0.985 -0.1811 -0.1519 -0.5145
  915MOL0     O23398   5.327   2.634   0.952  0.5045 -0.3589 -0.0012
  915MOL0     C23399   5.314   2.742   0.855  0.4067  0.3824  1.1035
  915MOL0     C23400   5.176   2.735   0.784  0.9725 -0.5135  0.4910
  915MOL0     C23401   5.197   2.715   0.626  0.7057 -0.3067  0.3077
  915MOL0     C23402   5.074   2.734   0.540 -0.6404 -0.5736 -0.3811
  915MOL0     C23403   5.093   2.672   0.399 -0.2964  0.8750  0.7396
  915MOL0     C23404   4.990   2.711   0.291  1.1790  0.5576  0.1385
  915MOL0     C23405   4.851   2.711   0.344 -0.6489 -0.3519  0.2444
  915MOL0     C23406   4.738   2.684   0.242  0.2927  0.9978 -0.3547
  915MOL0     N23407   4.750   2.743   0.110  0.6402 -0.3565 -0.2137
  915MOL0     C23408   4.757   2.881   0.091 -0.5703  1.0649 -0.2778
  915MOL0     C23409   4.756   2.894  -0.040  0.1608 -0.7429 -0.9002
  915MOL0     C23410   4.783   3.022  -0.114 -0.0801 -0.2103  0.4827
  915MOL0     C23411   4.647   3.049  -0.183 -0.2904  0.8365 -0.5678
  915MOL0     C23412   4.650   3.176  -0.264  0.3360  0.2419 -0.7871
  915MOL0     C23413   4.504   3.220  -0.302  0.4860 -0.2154 -0.0931
  915MOL0     O23414   4.522   3.345  -0.375  0.1446 -0.5654  0.4507
  915MOL0     C23415   4.413   3.402  -0.427  0.8379  0.3406  0.4857
  915MOL0     C23416   4.291   3.334  -0.452 -0.3363 -0.9899  0.1125
  915MOL0     C23417   4.177   3.413  -0.502 -0.2161  0.0213 -0.1956
  915MOL0     C23418   4.184   3.547  -0.538  0.5015 -0.1176  0.7002
  915MOL0     C23419   4.076   3.629  -0.609  0.2531 -0.4981  0.2626
  915MOL0     O23420   3.957   3.557  -0.649 -0.0165 -0.2121 -0.6831
  915MOL0     C23421   3.848   3.620  -0.704  0.0616  0.2760 -0.1344
  915MOL0     C23422   3.866   3.714  -0.820 -0.0054  0.3105  0.5241
  915MOL0     C23423   3.752   3.779  -0.869 -0.1227 -0.3714  0.8812
  915MOL0     C23424   3.630   3.761  -0.811  0.2050 -0.6981  0.0426
  915MOL0     O23425   3.544   3.844  -0.876  0.0164  0.4595 -0.3805
  915MOL0     C23426   3.409   3.853  -0.824  0.3417 -0.0468 -0.4983
  915MOL0     C23427   3.323   3.957  -0.898 -0.5391 -0.5045  0.0407
  915MOL0     C23428   3.196   3.901  -0.982  0.5484 -0.3050  0.1760
  915MOL0     C23429   3.225   3.879  -1.137  0.0093  0.3294 -0.7178
  915MOL0     C23430   3.176   3.752  -1.199 -1.1791  1.1034 -0.3550
  915MOL0     C23431   3.041   3.693  -1.143 -1.0085  0.4391 -0.5089
  915MOL0     C23432   2.922   3.791  -1.165 -0.0330 -0.3261  0.4772
  915MOL0     C23433   2.786   3.754  -1.107 -0.4719 -0.3453  0.6399
  915MOL0    Cl23434   2.694   3.642  -1.214 -0.0340  0.1858 -0.1658
  915MOL0     C23435   3.603   3.678  -0.701 -0.1856  0.1476  0.3279
  915MOL0     C23436   3.719   3.610  -0.651 -0.3977 -0.2284  0.0222
  915MOL0     O23437   4.092   3.752  -0.602  0.2207  0.5995 -0.0646
  915MOL0     C23438   4.310   3.606  -0.519  0.0954 -0.1897  0.3520
  915MOL0     C23439   4.422   3.538  -0.468 -0.2547  0.1792 -0.2810
  915MOL0     N23440   4.761   2.774  -0.102  0.1515  0.3930 -0.0729
  915MOL0     N23441   4.751   2.684  -0.022  0.8849 -0.2011 -0.4583
  915MOL0     C23442   5.534   2.513   0.897  0.3167 -0.3614  0.3545
  915MOL0     C23443   5.657   2.472   0.933 -0.1733 -0.2696  0.4290
  915MOL0     C23444   6.014   2.379   1.214  0.3773  0.8303  0.8454
  915MOL0     C23445   6.055   2.491   1.271  0.5681 -0.9442  0.4285
  915MOL0     C23446   6.162   2.500   1.348  0.0447 -0.2381 -0.0151
  915MOL0     C23447   6.219   2.382   1.394 -0.5366 -0.0400 -0.6717
  915MOL0     O23448   6.314   2.382   1.491  0.2860  0.3371  0.2074
  915MOL0     C23449   6.430   2.451   1.455 -0.2283 -0.4678 -0.0315
  915MOL0     C23450   6.497   2.390   1.331 -0.8908  0.3128  1.0950
  915MOL0     C23451   6.582   2.478   1.240  0.6372  1.1235 -0.5366
  915MOL0     C23452   6.706   2.549   1.307 -0.1282 -0.4573 -0.1330
  915MOL0     C23453   6.672   2.674   1.382 -0.6409 -0.1694  0.2564
  915MOL0     C23454   6.644   2.784   1.432 -0.0516  0.9556 -0.0135
  915MOL0     C23455   6.182   2.266   1.335  0.2012  0.4440 -1.2074
  915MOL0     C23456   6.080   2.257   1.250  0.8361 -0.7847 -0.1349
  915MOL0     C23457   6.055   2.118   1.198 -0.4888  0.4023 -0.0714
  915MOL0     H23458   5.662   2.610   1.240 -1.0833 -0.1494 -0.4973
  915MOL0     H23459   5.432   2.681   1.173 -0.6201  0.1433 -1.6364
  915MOL0     H23460   5.329   2.841   0.898 -0.4571  1.5921 -1.2080
  915MOL0     H23461   5.386   2.720   0.775 -0.2824 -0.2021  0.6276
  915MOL0     H23462   5.130   2.832   0.805 -0.6247 -1.0535 -0.3547
  915MOL0     H23463   5.113   2.656   0.825  2.5181 -2.2825 -0.3908
  915MOL0     H23464   5.232   2.613   0.609  1.9857  0.3876 -1.7278
  915MOL0     H23465   5.269   2.792   0.595 -1.5745  2.2402  0.9464
  915MOL0     H23466   4.987   2.690   0.591 -0.7891  1.5457  1.3310
  915MOL0     H23467   5.053   2.841   0.532 -1.4737 -0.8927 -4.2809
  915MOL0     H23468   5.193   2.673   0.356 -0.5751  0.7440  0.0716
  915MOL0     H23469   5.072   2.565   0.408 -1.4205  0.7475 -2.2288
  915MOL0     H23470   5.004   2.807   0.240 -1.8054 -0.1988 -2.3798
  915MOL0     H23471   4.995   2.630   0.218  1.2591  1.4461 -0.8638
  915MOL0     H23472   4.834   2.814   0.376  0.2490  0.6570 -2.2183
  915MOL0     H23473   4.832   2.634   0.420  2.9863 -1.7506 -0.0673
  915MOL0     H23474   4.737   2.577   0.221  0.8983  0.7861  0.6443
  915MOL0     H23475   4.648   2.724   0.289  1.7977  2.2157  1.7176
  915MOL0     H23476   4.751   2.963   0.162 -2.1172  0.0438  0.8609
  915MOL0     H23477   4.818   3.097  -0.043  3.5896 -1.4066  0.1295
  915MOL0     H23478   4.845   3.001  -0.202 -0.9828  2.7542 -0.9867
  915MOL0     H23479   4.607   2.963  -0.238 -2.0173 -0.2637  2.1606
  915MOL0     H23480   4.562   3.062  -0.115 -1.1558  2.6433 -1.9024
  915MOL0     H23481   4.718   3.165  -0.350  2.4321 -1.7887  0.9860
  915MOL0     H23482   4.673   3.257  -0.194 -0.5749  0.5250 -0.8121
  915MOL0     H23483   4.430   3.231  -0.223  3.3519 -0.5786  2.8726
  915MOL0     H23484   4.460   3.144  -0.368 -1.9805  2.0052 -1.1856
  915MOL0     H23485   4.264   3.231  -0.433 -0.9763 -0.7126  0.7840
  915MOL0     H23486   4.093   3.352  -0.531 -1.6709  1.8798 -0.0899
  915MOL0     H23487   3.964   3.736  -0.861 -0.5848  1.2992 -0.3745
  915MOL0     H23488   3.763   3.843  -0.956  0.7668 -0.8670  0.6181
  915MOL0     H23489   3.362   3.755  -0.831 -2.5577  0.6612  4.3065
  915MOL0     H23490   3.416   3.879  -0.718 -2.3524  0.6847 -0.4325
  915MOL0     H23491   3.289   4.036  -0.830  2.1441  2.1131 -1.4348
  915MOL0     H23492   3.385   4.003  -0.976 -3.3828  0.0486 -2.0526
  915MOL0     H23493   3.163   3.814  -0.923  0.0429  0.4018  0.9538
  915MOL0     H23494   3.120   3.979  -0.978  0.0333 -0.7848  3.9350
  915MOL0     H23495   3.330   3.896  -1.161  0.5743  0.0696  1.3732
  915MOL0     H23496   3.170   3.965  -1.177  0.1962  2.6306  3.3857
  915MOL0     H23497   3.251   3.678  -1.168 -2.6905  0.2258  1.4291
  915MOL0     H23498   3.175   3.757  -1.308 -0.1588 -1.8410 -0.5891
  915MOL0     H23499   3.024   3.596  -1.191  1.7198 -0.5774  0.4107
  915MOL0     H23500   3.061   3.684  -1.036 -0.0145  0.4874 -0.6883
  915MOL0     H23501   2.915   3.811  -1.273  1.5720  1.9950  0.7380
  915MOL0     H23502   2.952   3.890  -1.130 -2.0152  1.0953 -1.5547
  915MOL0     H23503   2.798   3.718  -1.005  1.9719  1.6439  1.1682
  915MOL0     H23504   2.725   3.845  -1.106 -0.3266 -0.0690 -2.7606
  915MOL0     H23505   3.504   3.673  -0.656 -0.0464 -0.1531  0.6003
  915MOL0     H23506   3.710   3.536  -0.573  3.9441 -3.4885 -2.0790
  915MOL0     H23507   4.329   3.709  -0.548  0.6965 -0.1856  0.7304
  915MOL0     H23508   4.522   3.579  -0.458  1.2891 -2.9066 -1.6293
  915MOL0     H23509   5.484   2.482   0.806  0.6988  0.3558 -0.1055
  915MOL0     H23510   5.715   2.422   0.856  0.0257 -0.8255  0.9375
  915MOL0     H23511   6.020   2.585   1.230  0.3241 -0.4117  1.8304
  915MOL0     H23512   6.211   2.593   1.371  2.4072 -0.9384 -1.8280
  915MOL0     H23513   6.500   2.430   1.537  0.1728  0.1623 -0.2092
  915MOL0     H23514   6.418   2.559   1.449  1.8753 -0.1976 -0.3467
  915MOL0     H23515   6.431   2.343   1.258 -0.0831  3.7644 -2.1637
  915MOL0     H23516   6.566   2.312   1.364  0.6775  0.3272 -1.8317
  915MOL0     H23517   6.506   2.543   1.198  0.7596  0.6336 -1.5584
  915MOL0     H23518   6.598   2.415   1.151 -2.2438 -2.2895  1.0995
  915MOL0     H23519   6.769   2.482   1.367 -1.6117 -0.0677  1.9811
  915MOL0     H23520   6.766   2.582   1.222  1.1130 -1.3313  0.3786
  915MOL0     H23521   6.607   2.874   1.476 -1.1929  1.2012 -1.3614
  915MOL0     H23522   6.234   2.180   1.376  1.1935  0.8148 -1.6726
  915MOL0     H23523   6.116   2.103   1.109 -1.0565  2.8258 -0.9591
  915MOL0     H23524   6.081   2.045   1.275 -3.9228  1.0687  1.9214
  915MOL0     H23525   5.950   2.095   1.182 -0.2581 -0.1668 -0.8248
  916MOL0     O23526   8.662   6.909   3.999  0.1739  0.2952  0.0500
  916MOL0     C23527   8.630   6.800   4.051 -0.3868 -0.1984 -0.0014
  916MOL0     O23528   8.537   6.791   4.152 -0.1009  0.6116  0.2207
  916MOL0     C23529   8.465   6.893   4.191  0.1900 -0.9291 -0.4948
  916MOL0     C23530   8.342   6.921   4.138 -0.2712 -0.0127  0.7610
  916MOL0     C23531   8.268   7.029   4.171 -1.5567 -1.1456  0.0588
  916MOL0     C23532   8.307   7.101   4.284  0.8015 -0.3819 -0.0657
  916MOL0     O23533   8.239   7.205   4.333  0.4786 -0.0161  0.1585
  916MOL0     C23534   8.272   7.264   4.457  0.5413  0.8862 -0.9741
  916MOL0     C23535   8.168   7.353   4.505 -0.3413 -0.3024 -0.0001
  916MOL0     C23536   8.190   7.398   4.653  0.6178 -0.4015  0.4069
  916MOL0     C23537   8.083   7.473   4.718 -0.2617 -0.4447 -0.0321
  916MOL0     C23538   7.989   7.382   4.804  0.1279 -0.3572  0.5981
  916MOL0     C23539   7.852   7.356   4.728 -0.5547  1.0595  0.2990
  916MOL0     C23540   7.760   7.478   4.725 -0.5013 -0.7399 -0.2106
  916MOL0     C23541   7.701   7.499   4.864  0.2418 -0.7300 -0.9628
  916MOL0     N23542   7.583   7.595   4.870  0.0225 -0.1261 -0.1891
  916MOL0     C23543   7.453   7.558   4.869  0.5175 -0.1790 -0.0514
  916MOL0     C23544   7.378   7.677   4.876  0.3938  0.3588 -0.4270
  916MOL0     C23545   7.231   7.694   4.865  0.2330 -0.4865 -0.1025
  916MOL0     C23546   7.170   7.818   4.941 -0.0802  0.1312 -0.1106
  916MOL0     C23547   7.219   7.850   5.083 -0.3840  0.5398  0.1839
  916MOL0     C23548   7.136   7.959   5.149  0.9256  0.3132 -0.1625
  916MOL0     O23549   7.134   7.972   5.291 -0.2588 -0.0394 -1.0720
  916MOL0     C23550   7.245   8.038   5.345 -0.0597 -0.0679  1.0152
  916MOL0     C23551   7.256   8.179   5.351 -0.5604  0.2071 -0.4335
  916MOL0     C23552   7.368   8.245   5.406 -0.0592 -0.3709  0.1604
  916MOL0     C23553   7.475   8.173   5.457  0.0977  0.8552 -0.2331
  916MOL0     C23554   7.594   8.243   5.507 -0.2520  0.6945 -0.6402
  916MOL0     O23555   7.693   8.169   5.574  1.1700 -0.4827 -0.0321
  916MOL0     C23556   7.799   8.248   5.617  0.3038  0.1135  0.0328
  916MOL0     C23557   7.922   8.214   5.560  0.0528  0.1401  0.3919
  916MOL0     C23558   8.040   8.277   5.612 -0.0582  0.8415 -0.7298
  916MOL0     C23559   8.027   8.379   5.708 -0.4459 -0.0930 -0.4553
  916MOL0     O23560   8.147   8.438   5.752  0.0318 -0.0672  0.0772
  916MOL0     C23561   8.142   8.551   5.844 -0.5291 -0.6165 -0.9272
  916MOL0     C23562   8.291   8.568   5.875  0.3233 -0.4542 -1.0685
  916MOL0     C23563   8.323   8.675   5.977  0.9574 -0.0730 -0.0356
  916MOL0     C23564   8.220   8.684   6.099 -0.1154 -0.0450  1.1727
  916MOL0     C23565   8.261   8.803   6.184 -0.8616  0.8170 -0.9975
  916MOL0     C23566   8.189   8.822   6.317  0.7084  0.2407 -0.0149
  916MOL0     C23567   8.205   8.963   6.374  0.5907  0.0261  0.4370
  916MOL0     C23568   8.106   8.989   6.488 -0.2472  0.0398 -0.1712
  916MOL0    Cl23569   8.140   8.856   6.607  0.2863  0.3504 -0.2116
  916MOL0     C23570   7.899   8.418   5.757 -0.6161  0.1564  0.4462
  916MOL0     C23571   7.791   8.342   5.718  0.5546 -0.3253 -0.1507
  916MOL0     O23572   7.604   8.367   5.482 -0.2609 -0.1114  0.0979
  916MOL0     C23573   7.465   8.033   5.439  1.2848 -0.3237  0.0499
  916MOL0     C23574   7.348   7.967   5.387 -1.0914 -0.4335 -0.2511
  916MOL0     N23575   7.468   7.779   4.877  0.5386  0.5872  0.4806
  916MOL0     N23576   7.588   7.727   4.868 -0.0648  0.1778  0.6288
  916MOL0     C23577   8.420   7.062   4.357  0.1597  0.4659 -0.0176
  916MOL0     C23578   8.503   6.967   4.304  0.2043 -0.3400  0.8325
  916MOL0     C23579   8.709   6.678   4.014  1.0019  0.6675  0.5254
  916MOL0     C23580   8.715   6.566   4.101 -1.0953  1.2263 -0.8974
  916MOL0     C23581   8.771   6.438   4.067  0.8313 -0.2864  1.1968
  916MOL0     C23582   8.827   6.423   3.945  0.1742  0.0876  0.1300
  916MOL0     O23583   8.879   6.301   3.905  0.2086 -0.1180 -0.3787
  916MOL0     C23584   9.026   6.284   3.891 -1.1709  0.1644  0.2053
  916MOL0     C23585   9.059   6.136   3.933 -0.8844  0.6830  1.5096
  916MOL0     C23586   8.986   6.027   3.844 -1.0803 -0.1333  0.6050
  916MOL0     C23587   8.989   5.884   3.894 -0.5423 -0.6475  0.1794
  916MOL0     C23588   8.956   5.887   4.041 -0.4343  0.2379  0.0315
  916MOL0     C23589   8.920   5.907   4.159  0.0237  0.2361 -0.3573
  916MOL0     C23590   8.808   6.529   3.853  0.0891  0.5506  0.2616
  916MOL0     C23591   8.757   6.656   3.887 -0.1687  0.9861 -0.7003
  916MOL0     C23592   8.750   6.769   3.781 -0.1300 -0.1071  0.0221
  916MOL0     H23593   8.303   6.848   4.067 -2.6626  1.3214  0.6003
  916MOL0     H23594   8.191   7.069   4.105 -0.5145  1.6181  0.4070
  916MOL0     H23595   8.280   7.184   4.531 -1.9944  1.0884 -0.3803
  916MOL0     H23596   8.366   7.320   4.444 -0.8806  3.8231  0.3549
  916MOL0     H23597   8.076   7.293   4.500 -0.4201 -0.3356  1.5034
  916MOL0     H23598   8.155   7.439   4.438  1.2325  0.0422  0.1105
  916MOL0     H23599   8.277   7.463   4.644  1.6003 -1.8192 -1.1878
  916MOL0     H23600   8.226   7.321   4.722  0.6277  1.7989  3.0128
  916MOL0     H23601   8.116   7.552   4.786 -1.4165 -1.5145  1.8983
  916MOL0     H23602   8.039   7.526   4.633  2.4322  2.3864  0.1792
  916MOL0     H23603   8.029   7.284   4.828  1.6678  0.1846  0.3892
  916MOL0     H23604   7.970   7.439   4.896 -1.1578 -0.9542  0.7182
  916MOL0     H23605   7.879   7.328   4.626  0.1753  0.5346  0.6314
  916MOL0     H23606   7.809   7.271   4.783 -2.9642  0.0878 -2.7595
  916MOL0     H23607   7.667   7.459   4.670 -0.2463  1.6658 -1.6174
  916MOL0     H23608   7.817   7.568   4.698  1.9526 -0.5777  4.4881
  916MOL0     H23609   7.678   7.397   4.896 -2.8329 -0.0749 -0.8565
  916MOL0     H23610   7.774   7.539   4.936 -0.1068 -3.5256  1.1031
  916MOL0     H23611   7.416   7.459   4.891 -1.7798  0.8454  1.0112
  916MOL0     H23612   7.199   7.680   4.761  1.1848 -4.8230 -0.0117
  916MOL0     H23613   7.190   7.601   4.904 -0.0748 -1.1339 -1.8663
  916MOL0     H23614   7.194   7.907   4.882  2.8008  1.5427  2.8268
  916MOL0     H23615   7.062   7.805   4.953 -0.4561  1.7853 -1.2328
  916MOL0     H23616   7.317   7.898   5.089 -1.7089  3.3845  1.2981
  916MOL0     H23617   7.218   7.759   5.144 -1.0747 -0.9769 -1.9863
  916MOL0     H23618   7.034   7.951   5.113  0.8395  2.4783 -0.5059
  916MOL0     H23619   7.183   8.053   5.119 -0.6662  1.4068  0.6489
  916MOL0     H23620   7.167   8.237   5.327 -0.3025  1.1102  0.7176
  916MOL0     H23621   7.386   8.352   5.395  3.3109 -0.6923  1.4938
  916MOL0     H23622   7.937   8.126   5.499  1.6784  0.4157  0.3547
  916MOL0     H23623   8.138   8.247   5.579 -0.2623 -0.5656 -0.1245
  916MOL0     H23624   8.101   8.638   5.792 -1.3585 -1.1942 -1.2589
  916MOL0     H23625   8.089   8.529   5.938  1.2462 -0.1418  0.2382
  916MOL0     H23626   8.325   8.470   5.908  0.0628 -0.1879  0.0115
  916MOL0     H23627   8.337   8.616   5.788  1.0304 -0.9704 -0.9873
  916MOL0     H23628   8.422   8.655   6.019  0.2365 -0.9623  1.3098
  916MOL0     H23629   8.330   8.775   5.932  0.4244  0.1669  0.4017
  916MOL0     H23630   8.220   8.591   6.156  3.9046 -0.9948 -0.1083
  916MOL0     H23631   8.125   8.706   6.049  1.2671  0.1186 -1.5665
  916MOL0     H23632   8.249   8.900   6.135 -2.3375  0.9082 -0.5038
  916MOL0     H23633   8.364   8.788   6.219 -1.0890 -0.3299 -0.7781
  916MOL0     H23634   8.082   8.807   6.303  0.3682  2.6167 -0.4233
  916MOL0     H23635   8.238   8.759   6.392  0.1518 -0.3986 -0.1886
  916MOL0     H23636   8.196   9.042   6.299 -0.9161 -0.3083  0.2334
  916MOL0     H23637   8.305   8.976   6.417  2.6447 -0.6727 -3.6084
  916MOL0     H23638   8.105   9.081   6.547 -2.2607 -0.7791  1.1675
  916MOL0     H23639   8.004   8.979   6.449 -0.1013  1.8865 -1.1104
  916MOL0     H23640   7.897   8.505   5.821  2.0948 -0.0797  0.9501
  916MOL0     H23641   7.699   8.378   5.764  0.6385  2.2405 -1.8149
  916MOL0     H23642   7.549   7.980   5.483  1.5605  2.8635  3.9970
  916MOL0     H23643   7.340   7.860   5.398  0.2362 -0.5314 -0.0306
  916MOL0     H23644   8.463   7.113   4.442  0.5045 -0.6224  0.4803
  916MOL0     H23645   8.593   6.934   4.356 -1.3148 -2.1393  2.4764
  916MOL0     H23646   8.659   6.564   4.193  0.1654 -0.8156 -0.1065
  916MOL0     H23647   8.763   6.360   4.141 -1.0373  1.6272  3.1751
  916MOL0     H23648   9.072   6.350   3.965 -0.2279  0.4362 -0.6099
  916MOL0     H23649   9.072   6.315   3.797 -1.9636 -3.0065 -1.3809
  916MOL0     H23650   9.028   6.122   4.037 -0.0862 -4.6038  1.3108
  916MOL0     H23651   9.167   6.119   3.923 -0.6734  2.9834 -2.2698
  916MOL0     H23652   9.030   6.026   3.744 -2.7113 -0.8693 -0.1384
  916MOL0     H23653   8.880   6.051   3.835 -1.1800  1.5835  4.3927
  916MOL0     H23654   8.916   5.826   3.836 -0.5455 -0.4769  0.0109
  916MOL0     H23655   9.089   5.845   3.876 -0.4734  0.8063 -3.5253
  916MOL0     H23656   8.885   5.925   4.258  0.4158  1.5580 -0.4317
  916MOL0     H23657   8.840   6.492   3.756  3.2633 -1.4032  1.8939
  916MOL0     H23658   8.765   6.725   3.682 -0.6413 -3.2578  1.2407
  916MOL0     H23659   8.653   6.820   3.785  1.0570  2.2426  1.4882
  916MOL0     H23660   8.825   6.846   3.804 -1.5985  0.9823  1.4420
  917MOL0     O23661   7.270   3.993   8.644 -0.5390  0.5952  0.6218
  917MOL0     C23662   7.178   4.021   8.722  0.2427 -1.4977 -0.2349
  917MOL0     O23663   7.049   3.988   8.693  0.9047 -0.3259 -1.1091
  917MOL0     C23664   7.025   3.943   8.570 -0.6007  0.2630 -0.5225
  917MOL0     C23665   7.058   3.813   8.534  0.5486 -0.4066 -0.9865
  917MOL0     C23666   7.032   3.772   8.405 -0.4108 -0.3528  0.1183
  917MOL0     C23667   6.968   3.866   8.318 -0.5800 -0.2274 -0.6415
  917MOL0     O23668   6.922   3.849   8.192 -0.3194 -0.6118 -0.0236
  917MOL0     C23669   6.897   3.727   8.129  0.2940 -0.0991  0.1740
  917MOL0     C23670   6.874   3.771   7.982 -0.3925  1.1267 -0.5032
  917MOL0     C23671   6.832   3.653   7.901  0.5962 -0.0081  0.0880
  917MOL0     C23672   6.835   3.674   7.749 -0.3685  0.2684  0.4482
  917MOL0     C23673   6.958   3.604   7.690 -0.5361  1.0416 -0.5764
  917MOL0     C23674   6.954   3.626   7.534 -0.4396 -0.6020 -0.5945
  917MOL0     C23675   7.043   3.526   7.456  0.4962  0.7392 -0.6534
  917MOL0     C23676   6.999   3.384   7.453 -0.2091 -0.2233 -0.2619
  917MOL0     N23677   6.913   3.347   7.348  0.2892  0.0110 -0.0038
  917MOL0     C23678   6.944   3.337   7.210 -0.1139  0.1624 -0.3579
  917MOL0     C23679   6.824   3.308   7.155 -1.6941  1.0532  0.8131
  917MOL0     C23680   6.808   3.300   7.007 -0.6396  0.5180  1.4693
  917MOL0     C23681   6.752   3.165   6.956  0.1783 -0.4556  0.3610
  917MOL0     C23682   6.832   3.045   6.989  0.8167  0.0259  0.2518
  917MOL0     C23683   6.794   2.922   6.911 -0.1361 -0.4511  0.1083
  917MOL0     O23684   6.707   2.821   6.972  0.3615  0.7769 -0.2343
  917MOL0     C23685   6.571   2.833   6.972 -0.4423  0.0453 -0.0252
  917MOL0     C23686   6.503   2.755   7.071 -0.0668  0.0288 -0.0532
  917MOL0     C23687   6.363   2.771   7.089 -0.2871  0.2418  0.1028
  917MOL0     C23688   6.282   2.848   7.004  0.4251  0.2775 -0.1041
  917MOL0     C23689   6.134   2.851   7.022 -0.4892  0.4125  0.2408
  917MOL0     O23690   6.081   2.774   7.125 -0.5420 -0.4802  0.3671
  917MOL0     C23691   5.948   2.767   7.156  0.7356  0.2144  0.3723
  917MOL0     C23692   5.890   2.642   7.173 -1.0013  1.4412 -0.1640
  917MOL0     C23693   5.755   2.636   7.193 -0.7093 -0.3792  0.2884
  917MOL0     C23694   5.674   2.754   7.218  0.1436 -0.2220 -0.4227
  917MOL0     O23695   5.542   2.756   7.237 -0.1593  0.3341 -0.6954
  917MOL0     C23696   5.471   2.633   7.211  0.2032 -0.1171 -0.6433
  917MOL0     C23697   5.322   2.649   7.240 -1.0462 -0.0062 -0.0138
  917MOL0     C23698   5.241   2.549   7.162  0.0772  0.0077  0.8871
  917MOL0     C23699   5.097   2.561   7.210  0.4868  0.4840  0.1298
  917MOL0     C23700   4.997   2.483   7.120 -1.1219 -0.0529 -0.0960
  917MOL0     C23701   4.960   2.557   6.993  0.1774 -0.2416  0.1950
  917MOL0     C23702   4.849   2.488   6.919  0.1903 -0.1032  0.1460
  917MOL0     C23703   4.728   2.478   6.999  0.3361  0.1460  0.1385
  917MOL0    Cl23704   4.696   2.652   7.060 -0.0389 -0.2595 -0.4625
  917MOL0     C23705   5.740   2.872   7.212 -0.7568 -0.4443  0.0248
  917MOL0     C23706   5.872   2.880   7.175 -0.2477  1.2634  0.8681
  917MOL0     O23707   6.070   2.920   6.948  0.0718 -0.5126  0.0141
  917MOL0     C23708   6.351   2.926   6.902  0.0494  0.1769  0.1789
  917MOL0     C23709   6.493   2.920   6.884 -0.3707 -0.1768  0.3674
  917MOL0     N23710   6.729   3.300   7.244  0.2143 -0.1030  0.0729
  917MOL0     N23711   6.784   3.326   7.359  0.8692  0.1874  0.1371
  917MOL0     C23712   6.937   3.995   8.361 -0.4206 -0.4472 -0.5280
  917MOL0     C23713   6.963   4.037   8.488 -0.1931  0.9559 -0.0668
  917MOL0     C23714   7.199   4.100   8.842 -0.1589  0.3914  0.6071
  917MOL0     C23715   7.093   4.184   8.880 -0.0400  0.4659  0.1748
  917MOL0     C23716   7.102   4.257   9.002 -0.1300 -0.1545  0.0533
  917MOL0     C23717   7.216   4.243   9.083 -0.9705  0.1098  0.1883
  917MOL0     O23718   7.222   4.309   9.203 -1.2086  0.3556  0.1083
  917MOL0     C23719   7.345   4.381   9.213 -0.5955  1.0317  0.3710
  917MOL0     C23720   7.301   4.514   9.281 -0.3431 -0.2435  0.1235
  917MOL0     C23721   7.424   4.580   9.360  0.3652  0.2600  0.2437
  917MOL0     C23722   7.388   4.705   9.450  0.4932  0.0043 -0.1935
  917MOL0     C23723   7.386   4.821   9.358 -0.2286  0.6902  0.1894
  917MOL0     C23724   7.375   4.918   9.283 -0.8738  0.7436  0.6038
  917MOL0     C23725   7.314   4.158   9.046 -0.0591  0.0138 -0.2775
  917MOL0     C23726   7.318   4.085   8.925  0.1334  1.5681 -0.4173
  917MOL0     C23727   7.441   3.994   8.898  0.0024 -0.3647  0.2864
  917MOL0     H23728   7.112   3.743   8.597  0.0870  0.9704  1.0484
  917MOL0     H23729   7.041   3.666   8.386 -0.1011 -0.1617 -0.8625
  917MOL0     H23730   6.982   3.661   8.150 -0.2661 -1.4884 -1.7311
  917MOL0     H23731   6.801   3.690   8.167  1.1760 -1.3207  1.3485
  917MOL0     H23732   6.962   3.819   7.937  0.5138  0.1803  0.2162
  917MOL0     H23733   6.792   3.843   7.990 -2.1559 -0.7990 -0.4806
  917MOL0     H23734   6.728   3.625   7.915  0.7824 -2.5562 -2.6822
  917MOL0     H23735   6.890   3.561   7.910 -1.1739 -1.2676 -0.9111
  917MOL0     H23736   6.742   3.642   7.700 -1.0218  1.6938  0.6780
  917MOL0     H23737   6.841   3.781   7.726  2.0867 -0.2665 -1.9914
  917MOL0     H23738   7.048   3.651   7.730  0.0104  0.5185 -1.1709
  917MOL0     H23739   6.952   3.497   7.710 -2.4955  1.2285  0.1023
  917MOL0     H23740   6.852   3.621   7.496 -0.4944  1.4681 -0.8113
  917MOL0     H23741   6.998   3.725   7.517  2.5524 -1.6622  0.1666
  917MOL0     H23742   7.146   3.526   7.494  0.0455 -2.6997  0.9431
  917MOL0     H23743   7.046   3.542   7.348 -0.8930 -2.4514 -1.2693
  917MOL0     H23744   7.086   3.318   7.456 -1.0858 -1.3753  1.0519
  917MOL0     H23745   6.944   3.354   7.543 -2.4442  2.4971 -0.5831
  917MOL0     H23746   7.040   3.354   7.161 -0.2297 -0.9904 -1.0230
  917MOL0     H23747   6.742   3.383   6.983 -2.0313 -0.7930  0.5913
  917MOL0     H23748   6.901   3.312   6.951 -1.0804 -0.9654  0.3496
  917MOL0     H23749   6.658   3.166   7.012  1.4721 -0.9012  2.6713
  917MOL0     H23750   6.747   3.172   6.847 -0.4797  1.6054  0.4853
  917MOL0     H23751   6.808   3.031   7.095 -0.8002 -0.9282 -0.1966
  917MOL0     H23752   6.939   3.058   6.976  0.6757 -0.7103 -1.9493
  917MOL0     H23753   6.892   2.877   6.924 -0.5825 -0.8823  2.4269
  917MOL0     H23754   6.757   2.934   6.809 -2.3992 -2.8473  0.5304
  917MOL0     H23755   6.571   2.703   7.138  0.2270 -1.2100 -1.2647
  917MOL0     H23756   6.313   2.731   7.176 -0.7223 -1.5760 -0.9101
  917MOL0     H23757   5.959   2.559   7.161  1.0828  3.2641 -1.7552
  917MOL0     H23758   5.707   2.539   7.202  0.7514 -1.1593  0.0231
  917MOL0     H23759   5.470   2.618   7.103  2.5108  0.0132 -0.7176
  917MOL0     H23760   5.507   2.543   7.261 -2.0553  0.7843  2.9781
  917MOL0     H23761   5.297   2.634   7.345 -2.4741 -1.3850 -0.5172
  917MOL0     H23762   5.300   2.754   7.217  1.9030  0.9425  0.9654
  917MOL0     H23763   5.246   2.572   7.055  1.8117  0.3390  1.0015
  917MOL0     H23764   5.271   2.446   7.183 -0.4589  0.4753  4.6788
  917MOL0     H23765   5.057   2.662   7.217 -1.2536 -0.1021 -0.5539
  917MOL0     H23766   5.083   2.513   7.307 -1.0931  0.6712  0.0257
  917MOL0     H23767   4.909   2.486   7.185  0.3132  0.5672  1.8931
  917MOL0     H23768   5.034   2.385   7.091  0.8030  1.1984 -2.1288
  917MOL0     H23769   4.946   2.662   7.021  1.5609  1.3611 -4.3328
  917MOL0     H23770   5.045   2.550   6.925  1.1365 -2.0164  1.4918
  917MOL0     H23771   4.884   2.387   6.897  0.9149  0.4971 -1.7248
  917MOL0     H23772   4.826   2.538   6.824  1.0133  0.5194  0.2599
  917MOL0     H23773   4.635   2.440   6.954 -0.3606  0.5555  1.1892
  917MOL0     H23774   4.746   2.405   7.078  1.0899  0.7004  0.4879
  917MOL0     H23775   5.686   2.963   7.233 -0.4860 -0.1452 -0.5612
  917MOL0     H23776   5.922   2.974   7.154 -1.2605  1.3761 -1.2885
  917MOL0     H23777   6.295   2.987   6.833 -0.4486 -1.4056 -0.8585
  917MOL0     H23778   6.544   2.967   6.800 -0.8285 -1.3831 -0.6091
  917MOL0     H23779   6.871   4.051   8.295 -0.0160 -0.1292 -0.6685
  917MOL0     H23780   6.930   4.136   8.517  0.8094  2.2441 -2.9043
  917MOL0     H23781   7.013   4.215   8.813  0.1951 -1.5471 -1.1271
  917MOL0     H23782   7.035   4.337   9.032 -0.1941  0.0563 -0.6382
  917MOL0     H23783   7.400   4.391   9.119  2.6785 -2.7553  1.6061
  917MOL0     H23784   7.407   4.313   9.271 -1.7349 -1.6330 -1.3181
  917MOL0     H23785   7.231   4.502   9.364 -0.2239  0.3630  0.3181
  917MOL0     H23786   7.253   4.582   9.210 -1.6725 -2.0545 -0.7759
  917MOL0     H23787   7.499   4.613   9.287 -1.3155 -0.0934 -1.7463
  917MOL0     H23788   7.477   4.504   9.418  2.5206  0.1088 -1.7398
  917MOL0     H23789   7.297   4.685   9.508  0.8529  0.3490  0.5009
  917MOL0     H23790   7.470   4.721   9.520  0.9819  2.1210 -1.1835
  917MOL0     H23791   7.352   5.010   9.233  0.1886  1.1175  0.7766
  917MOL0     H23792   7.394   4.130   9.114 -0.3306 -3.3884 -1.1679
  917MOL0     H23793   7.406   3.892   8.880  1.4481 -0.9553  0.6311
  917MOL0     H23794   7.500   4.040   8.818 -2.5692  1.2171 -0.8369
  917MOL0     H23795   7.496   3.992   8.992  1.0461 -1.0514 -0.3113
  918MOL0     O23796  11.456   4.300   0.541  0.3068 -0.0397  0.5292
  918MOL0     C23797  11.427   4.390   0.460 -0.0089 -0.4218 -0.5111
  918MOL0     O23798  11.516   4.480   0.418  0.0003 -0.7435 -0.6523
  918MOL0     C23799  11.618   4.515   0.501 -1.1034 -0.2112 -0.3245
  918MOL0     C23800  11.600   4.528   0.639  0.2124 -1.1299 -0.0004
  918MOL0     C23801  11.706   4.561   0.726 -0.1330  0.3204  0.8082
  918MOL0     C23802  11.832   4.574   0.666  0.1999  0.4458 -0.4697
  918MOL0     O23803  11.938   4.602   0.738 -0.6817  0.3586  0.0877
  918MOL0     C23804  11.932   4.591   0.880 -0.0603  0.4268  0.0356
  918MOL0     C23805  11.877   4.713   0.950  0.1107 -0.1323 -0.4877
  918MOL0     C23806  11.967   4.834   0.931  0.4528  0.0632 -0.1259
  918MOL0     C23807  12.112   4.827   0.993 -0.4600  0.1850 -0.6223
  918MOL0     C23808  12.109   4.813   1.149 -0.7063 -0.7755 -0.7968
  918MOL0     C23809  12.006   4.908   1.214  0.7276  0.3963  0.6812
  918MOL0     C23810  12.008   4.917   1.373 -0.2910  0.1264  0.0372
  918MOL0     C23811  12.129   5.007   1.422  0.1362  0.8466 -1.1754
  918MOL0     N23812  12.125   5.005   1.579  0.6417 -0.8698  0.5394
  918MOL0     C23813  12.214   4.955   1.662  0.0381  0.8677 -0.1225
  918MOL0     C23814  12.180   4.991   1.785  0.0824  0.1561  0.6943
  918MOL0     C23815  12.257   4.980   1.917  0.4996  1.0413 -0.5923
  918MOL0     C23816  12.217   4.843   1.987  0.2475  0.3145 -0.5252
  918MOL0     C23817  12.096   4.857   2.082  0.3491  0.6575  0.5026
  918MOL0     C23818  12.000   4.728   2.083 -0.2998  0.1777 -0.2373
  918MOL0     O23819  11.975   4.667   1.942 -0.1916 -0.4754 -0.4800
  918MOL0     C23820  11.858   4.698   1.886  0.5589  1.1404 -0.9782
  918MOL0     C23821  11.832   4.825   1.853  0.2462  0.3140  0.0267
  918MOL0     C23822  11.710   4.850   1.792  0.5211 -0.3973 -0.5027
  918MOL0     C23823  11.604   4.759   1.768 -0.3903  0.8611 -0.4009
  918MOL0     C23824  11.499   4.796   1.674 -0.6259 -0.1127 -0.0485
  918MOL0     O23825  11.514   4.915   1.611 -0.1882 -0.3759  1.0291
  918MOL0     C23826  11.413   4.991   1.569 -0.9519  1.1256  0.0230
  918MOL0     C23827  11.353   5.069   1.663 -0.0064  0.0732  0.1365
  918MOL0     C23828  11.243   5.156   1.628 -0.2821 -0.1294  0.0869
  918MOL0     C23829  11.208   5.174   1.497  0.9027 -0.5671 -0.2583
  918MOL0     O23830  11.112   5.265   1.446  0.2387 -0.2361 -0.3002
  918MOL0     C23831  11.010   5.315   1.539  0.3925 -0.1948  0.6620
  918MOL0     C23832  10.947   5.443   1.490  0.5852  0.0386  0.3648
  918MOL0     C23833  10.798   5.473   1.531 -0.4062 -0.2456 -0.8881
  918MOL0     C23834  10.724   5.579   1.449 -0.5690  0.9254  0.0629
  918MOL0     C23835  10.606   5.638   1.524 -0.0953 -0.5189  0.3172
  918MOL0     C23836  10.631   5.745   1.631 -0.1185 -0.4739 -0.1545
  918MOL0     C23837  10.699   5.873   1.590 -0.2267 -0.5266  0.3322
  918MOL0     C23838  10.639   5.944   1.462 -0.1938  0.4900 -0.4499
  918MOL0    Cl23839  10.473   5.995   1.468 -0.6567 -0.5306 -0.5433
  918MOL0     C23840  11.267   5.087   1.403 -0.9630 -0.7308 -0.4383
  918MOL0     C23841  11.371   5.001   1.437  0.0517  0.2592 -0.1741
  918MOL0     O23842  11.402   4.733   1.671  0.0050  0.3059  0.9717
  918MOL0     C23843  11.638   4.626   1.813 -0.4942  0.0290 -0.2048
  918MOL0     C23844  11.761   4.601   1.869 -0.6923  0.8296  0.4583
  918MOL0     N23845  12.066   5.078   1.771  0.2363  1.2763 -0.1508
  918MOL0     N23846  12.033   5.078   1.646 -0.0932  0.5474 -0.3383
  918MOL0     C23847  11.844   4.584   0.526 -0.3263 -0.2995  0.0031
  918MOL0     C23848  11.740   4.550   0.448 -0.0028 -0.1156 -0.8775
  918MOL0     C23849  11.297   4.385   0.381 -0.5111  0.4432  0.2926
  918MOL0     C23850  11.305   4.448   0.254  0.2472 -0.3457 -0.2683
  918MOL0     C23851  11.182   4.443   0.174 -0.4335  0.9260 -0.5419
  918MOL0     C23852  11.060   4.395   0.214 -0.5280  0.4931 -0.5048
  918MOL0     O23853  10.948   4.402   0.133 -0.5701 -0.4172 -0.0779
  918MOL0     C23854  10.818   4.401   0.188  0.2312 -0.5079 -0.3253
  918MOL0     C23855  10.785   4.523   0.279 -1.7947  0.0167 -0.1245
  918MOL0     C23856  10.802   4.647   0.193 -0.6927 -0.0854 -0.9968
  918MOL0     C23857  10.695   4.756   0.213  0.7001  1.2540  0.3989
  918MOL0     C23858  10.666   4.792   0.346 -0.2121  0.1748  0.4577
  918MOL0     C23859  10.624   4.827   0.460  0.7720  0.2023  0.4802
  918MOL0     C23860  11.067   4.333   0.349  0.1752 -0.5325 -0.0272
  918MOL0     C23861  11.181   4.327   0.429 -0.4715  0.0626 -0.3792
  918MOL0     C23862  11.178   4.262   0.562  0.2457 -0.3494  1.1428
  918MOL0     H23863  11.501   4.505   0.676 -2.5862  4.3213 -2.9333
  918MOL0     H23864  11.696   4.554   0.834  0.1586  2.3414  0.9952
  918MOL0     H23865  11.871   4.510   0.921 -0.6945  0.5970 -0.5422
  918MOL0     H23866  12.035   4.569   0.911  0.7199 -1.5384 -3.4811
  918MOL0     H23867  11.851   4.692   1.055  3.0377 -1.8069  0.0168
  918MOL0     H23868  11.787   4.741   0.895 -0.1451 -0.3571 -0.1852
  918MOL0     H23869  11.915   4.918   0.979 -1.2237 -0.1394 -1.4699
  918MOL0     H23870  11.981   4.858   0.825 -2.1395  0.7576 -0.3927
  918MOL0     H23871  12.168   4.737   0.967  1.4661 -0.1839  3.7763
  918MOL0     H23872  12.175   4.908   0.957  0.7538 -0.3431  0.2454
  918MOL0     H23873  12.077   4.715   1.184  1.1515 -0.0923  3.3403
  918MOL0     H23874  12.209   4.834   1.189  0.3205 -0.4297 -3.2828
  918MOL0     H23875  12.033   5.007   1.177  2.0237  0.2966  1.3201
  918MOL0     H23876  11.906   4.876   1.185  0.8360  1.4059 -0.9493
  918MOL0     H23877  12.022   4.819   1.420 -0.7058 -0.4910 -1.0851
  918MOL0     H23878  11.915   4.960   1.411 -0.8676 -0.1249 -1.0660
  918MOL0     H23879  12.219   4.957   1.386  0.2622  1.1833 -1.3302
  918MOL0     H23880  12.121   5.111   1.389  1.0964  1.3237  0.0281
  918MOL0     H23881  12.308   4.904   1.645 -0.1424  0.5478 -0.1721
  918MOL0     H23882  12.361   4.977   1.884 -0.0691  1.4417 -2.5928
  918MOL0     H23883  12.241   5.057   1.993  2.6566 -0.9978  2.1139
  918MOL0     H23884  12.196   4.765   1.912  0.4862 -1.2347  0.9512
  918MOL0     H23885  12.300   4.811   2.050 -0.3772  2.2286  1.3902
  918MOL0     H23886  12.029   4.932   2.040 -2.5266 -0.4037  2.8675
  918MOL0     H23887  12.141   4.896   2.174  1.0426  3.4873 -0.9246
  918MOL0     H23888  11.913   4.740   2.149 -0.2067 -2.5066  0.4625
  918MOL0     H23889  12.059   4.658   2.142 -1.3707  1.6370  2.7887
  918MOL0     H23890  11.908   4.902   1.861  0.4648 -0.0946  2.5171
  918MOL0     H23891  11.691   4.954   1.768 -1.1814  0.1502  2.6516
  918MOL0     H23892  11.365   5.040   1.767  0.4234 -1.2772 -0.2690
  918MOL0     H23893  11.194   5.204   1.713  1.4751 -2.9611  2.8956
  918MOL0     H23894  10.930   5.243   1.526  0.2940 -0.0803  0.6280
  918MOL0     H23895  11.043   5.329   1.643 -0.5485  1.8188  0.7433
  918MOL0     H23896  11.006   5.535   1.502 -2.4189  2.4224 -1.3403
  918MOL0     H23897  10.941   5.451   1.381 -3.1051 -1.4370  0.3213
  918MOL0     H23898  10.732   5.386   1.532  1.2481 -1.6769 -4.1188
  918MOL0     H23899  10.795   5.497   1.638  1.7602 -3.2778  0.0037
  918MOL0     H23900  10.680   5.521   1.367  0.1385 -1.1373  1.0646
  918MOL0     H23901  10.788   5.662   1.419  3.1695 -0.2059  3.8568
  918MOL0     H23902  10.558   5.550   1.568  1.9582 -0.5311  2.7558
  918MOL0     H23903  10.542   5.678   1.444  0.7861  0.0288 -0.1260
  918MOL0     H23904  10.536   5.778   1.672  1.3460  1.1796  2.1968
  918MOL0     H23905  10.680   5.691   1.714 -1.6201 -0.3666  0.8426
  918MOL0     H23906  10.803   5.850   1.565 -0.4172 -0.1241 -0.8921
  918MOL0     H23907  10.694   5.930   1.683  1.0316 -1.3646  0.9334
  918MOL0     H23908  10.701   6.032   1.442 -1.3118  1.0930 -1.4075
  918MOL0     H23909  10.646   5.874   1.378 -0.3850  0.6937 -0.6351
  918MOL0     H23910  11.236   5.103   1.300  1.8243 -0.1642 -1.2832
  918MOL0     H23911  11.399   4.930   1.360 -2.5790 -1.3312  0.2297
  918MOL0     H23912  11.569   4.544   1.800  0.6684 -1.0851  0.4680
  918MOL0     H23913  11.782   4.498   1.896 -5.2684 -1.1221 -2.2635
  918MOL0     H23914  11.927   4.636   0.482 -1.4286  0.5587 -1.1305
  918MOL0     H23915  11.748   4.543   0.340 -1.5270 -2.0110 -0.9395
  918MOL0     H23916  11.400   4.487   0.221 -0.0143  0.2829 -0.2967
  918MOL0     H23917  11.194   4.475   0.071  2.0169 -3.4747 -1.8671
  918MOL0     H23918  10.805   4.304   0.237  2.4710 -0.5594  0.2628
  918MOL0     H23919  10.765   4.415   0.093 -0.2002 -1.7422 -0.2821
  918MOL0     H23920  10.841   4.542   0.370 -0.5126  2.5258 -1.3461
  918MOL0     H23921  10.682   4.522   0.316 -1.6750  0.2691  0.2132
  918MOL0     H23922  10.810   4.626   0.086  1.1669 -1.3931 -0.6412
  918MOL0     H23923  10.900   4.691   0.213  0.5808 -0.8619 -4.6901
  918MOL0     H23924  10.738   4.843   0.163 -0.9266  2.5234  1.1321
  918MOL0     H23925  10.602   4.721   0.167  2.2270 -1.7721 -0.6628
  918MOL0     H23926  10.582   4.833   0.559  2.4834 -2.7924  1.5274
  918MOL0     H23927  10.979   4.273   0.371 -1.5391  1.5866 -0.7488
  918MOL0     H23928  11.206   4.333   0.640 -1.5978  0.6711  0.9288
  918MOL0     H23929  11.069   4.253   0.576 -0.1916  1.3091 -0.8139
  918MOL0     H23930  11.223   4.162   0.561 -1.9284 -1.4177 -0.3765
  919MOL0     O23931   1.090   5.943   0.235 -0.1865 -0.7751 -1.0421
  919MOL0     C23932   0.970   5.939   0.204 -0.1463 -0.6902 -1.2140
  919MOL0     O23933   0.915   5.858   0.111  0.0266  0.1224  0.0944
  919MOL0     C23934   0.993   5.782   0.030 -0.0041 -0.0181 -0.7479
  919MOL0     C23935   1.102   5.837  -0.043  0.5350  0.2902 -0.2878
  919MOL0     C23936   1.179   5.756  -0.128 -0.2674 -0.2745 -0.1882
  919MOL0     C23937   1.155   5.615  -0.139  0.3232 -0.2665 -1.4720
  919MOL0     O23938   1.234   5.553  -0.228 -0.2594 -0.3494 -0.7831
  919MOL0     C23939   1.252   5.409  -0.219 -0.9479  0.0938 -0.2966
  919MOL0     C23940   1.372   5.371  -0.300 -0.5849  0.5221 -0.6045
  919MOL0     C23941   1.351   5.398  -0.446  0.1172 -0.6385  0.1848
  919MOL0     C23942   1.466   5.342  -0.528 -0.2612 -0.3706  1.0587
  919MOL0     C23943   1.463   5.379  -0.675  0.3681 -0.5061  0.0725
  919MOL0     C23944   1.543   5.286  -0.760 -0.5868 -0.8914  0.0270
  919MOL0     C23945   1.694   5.294  -0.728  0.4364  0.3183  0.2477
  919MOL0     C23946   1.769   5.216  -0.839  0.3817  0.7646 -0.8397
  919MOL0     N23947   1.916   5.205  -0.837 -0.7634  0.6714  1.0551
  919MOL0     C23948   2.004   5.243  -0.937 -0.0597 -0.9756 -0.1569
  919MOL0     C23949   2.130   5.221  -0.890 -0.8144 -0.1251 -0.3154
  919MOL0     C23950   2.269   5.254  -0.947 -0.5252  0.5238 -0.2876
  919MOL0     C23951   2.363   5.297  -0.823 -0.2390  0.1057  0.4524
  919MOL0     C23952   2.509   5.319  -0.878  0.2878 -0.4997 -0.6704
  919MOL0     C23953   2.571   5.187  -0.919  0.2398  0.1525 -0.5567
  919MOL0     O23954   2.576   5.106  -0.798  0.8435  0.2867  0.5092
  919MOL0     C23955   2.606   4.970  -0.816 -0.8867 -0.6760 -0.0531
  919MOL0     C23956   2.642   4.907  -0.947 -0.6689 -0.3603 -0.0358
  919MOL0     C23957   2.653   4.769  -0.952 -0.0246 -0.1928  0.0372
  919MOL0     C23958   2.638   4.691  -0.831  0.2840  0.0474  1.2179
  919MOL0     C23959   2.634   4.543  -0.850 -0.0106  0.4889  0.1586
  919MOL0     O23960   2.597   4.461  -0.744 -0.4376  0.3893  0.3603
  919MOL0     C23961   2.568   4.333  -0.771  0.1468  0.4343  0.1055
  919MOL0     C23962   2.438   4.296  -0.789 -0.2361 -0.3528  0.1747
  919MOL0     C23963   2.400   4.157  -0.812  0.0855 -0.7957 -0.3400
  919MOL0     C23964   2.495   4.066  -0.808 -0.1690 -0.9337 -0.3188
  919MOL0     O23965   2.472   3.934  -0.846 -0.8065 -1.2146  0.3052
  919MOL0     C23966   2.396   3.906  -0.962  0.5432  0.6054 -0.4826
  919MOL0     C23967   2.297   3.787  -0.944  0.7685  0.4693  0.7657
  919MOL0     C23968   2.169   3.790  -0.854 -0.6693  0.5671 -0.2009
  919MOL0     C23969   2.055   3.868  -0.930  0.1857 -0.6050 -0.6942
  919MOL0     C23970   1.929   3.838  -0.852  0.1562  0.1760  0.0167
  919MOL0     C23971   1.939   3.869  -0.698  0.5600 -0.1456  0.2552
  919MOL0     C23972   1.807   3.893  -0.636  0.8357  0.5433  0.0654
  919MOL0     C23973   1.709   3.774  -0.663 -0.1913 -0.1395  0.0464
  919MOL0    Cl23974   1.621   3.718  -0.510 -0.0354  0.0933 -0.3611
  919MOL0     C23975   2.628   4.098  -0.774  0.3214  0.0686 -0.6579
  919MOL0     C23976   2.664   4.230  -0.749  1.4958 -0.3333  0.0495
  919MOL0     O23977   2.661   4.499  -0.966  0.1721 -0.3868 -0.8699
  919MOL0     C23978   2.612   4.747  -0.708 -0.3351 -0.8005  0.9111
  919MOL0     C23979   2.609   4.890  -0.705  0.4440  0.4111  0.7053
  919MOL0     N23980   2.110   5.173  -0.756 -0.1578 -0.4173  0.0832
  919MOL0     N23981   1.983   5.162  -0.727  0.1962 -0.6840  0.2815
  919MOL0     C23982   1.054   5.558  -0.061 -0.6007 -0.0235  0.4198
  919MOL0     C23983   0.969   5.640   0.021 -0.3298  0.6585 -0.2455
  919MOL0     C23984   0.874   6.017   0.281 -0.5796 -0.1066  0.8556
  919MOL0     C23985   0.734   6.022   0.245 -0.0708 -1.0204  0.3193
  919MOL0     C23986   0.636   6.089   0.317  0.2906  0.5065 -0.7673
  919MOL0     C23987   0.683   6.162   0.425  0.9759  0.2078  0.1733
  919MOL0     O23988   0.588   6.238   0.495 -0.1699 -0.1566  0.1297
  919MOL0     C23989   0.620   6.346   0.582  0.5463  0.0057 -0.6272
  919MOL0     C23990   0.678   6.489   0.534  0.7952 -0.5984 -0.3476
  919MOL0     C23991   0.599   6.528   0.411 -0.0829  0.5399  0.4177
  919MOL0     C23992   0.632   6.668   0.355  0.9716 -0.2462  1.0153
  919MOL0     C23993   0.558   6.676   0.225 -1.6813  0.1626  0.3890
  919MOL0     C23994   0.496   6.685   0.125  1.5537  0.7241 -0.0170
  919MOL0     C23995   0.811   6.160   0.474 -0.8353  0.5983  0.1408
  919MOL0     C23996   0.908   6.086   0.401 -0.8408 -1.1543 -0.5757
  919MOL0     C23997   1.050   6.097   0.465  0.0263 -1.0197 -0.6106
  919MOL0     H23998   1.106   5.944  -0.031  1.0950  0.3976 -1.3103
  919MOL0     H23999   1.263   5.799  -0.181 -0.3251  0.5086  0.3416
  919MOL0     H24000   1.275   5.383  -0.115  2.0777  1.3985 -0.5381
  919MOL0     H24001   1.161   5.360  -0.254 -1.4143 -1.9190  3.2752
  919MOL0     H24002   1.393   5.264  -0.286 -1.4643  0.2848 -1.0200
  919MOL0     H24003   1.463   5.422  -0.269 -0.6489  0.5572 -0.4723
  919MOL0     H24004   1.343   5.503  -0.475 -0.2916 -1.0427 -1.2712
  919MOL0     H24005   1.260   5.352  -0.487  0.7802 -1.8920  0.0689
  919MOL0     H24006   1.563   5.370  -0.486  2.2296 -0.9457 -3.5970
  919MOL0     H24007   1.453   5.234  -0.523  0.4112 -0.6274 -1.2323
  919MOL0     H24008   1.356   5.369  -0.698 -0.6076  2.3947  2.5880
  919MOL0     H24009   1.498   5.482  -0.680 -1.2432  0.1546  1.3222
  919MOL0     H24010   1.512   5.185  -0.731 -2.7211 -0.4825 -0.6194
  919MOL0     H24011   1.508   5.309  -0.861 -2.7255 -0.3528  0.8241
  919MOL0     H24012   1.721   5.263  -0.626  0.6911  3.0106  1.0812
  919MOL0     H24013   1.726   5.397  -0.747 -0.4755  0.4218 -0.7963
  919MOL0     H24014   1.718   5.119  -0.835 -0.6126  1.3212  1.0993
  919MOL0     H24015   1.749   5.261  -0.937  0.6733 -2.2260 -2.4057
  919MOL0     H24016   1.983   5.290  -1.033 -0.7559  0.4352  0.6550
  919MOL0     H24017   2.301   5.169  -1.008 -2.8759 -1.8640  1.5579
  919MOL0     H24018   2.275   5.341  -1.014  3.0630 -1.0000 -2.2090
  919MOL0     H24019   2.315   5.389  -0.790 -4.9706 -1.3526 -1.5256
  919MOL0     H24020   2.388   5.219  -0.751  4.6362 -1.2678 -2.2339
  919MOL0     H24021   2.561   5.363  -0.792  1.1167 -0.7793 -1.0271
  919MOL0     H24022   2.505   5.393  -0.958  2.4254 -0.8460 -1.1484
  919MOL0     H24023   2.670   5.215  -0.957 -0.5528 -0.2470 -3.1107
  919MOL0     H24024   2.524   5.133  -1.002  1.5496  0.6074 -1.6362
  919MOL0     H24025   2.676   4.967  -1.031  2.7874 -1.6417  0.2755
  919MOL0     H24026   2.691   4.717  -1.040  1.4417 -0.4209  0.7677
  919MOL0     H24027   2.367   4.378  -0.784  2.8851  2.5676  0.1540
  919MOL0     H24028   2.297   4.122  -0.819  0.1951 -2.0887  2.8082
  919MOL0     H24029   2.328   3.987  -0.989  1.6889  0.9264 -2.6454
  919MOL0     H24030   2.456   3.893  -1.053 -0.3783 -1.2265 -0.8777
  919MOL0     H24031   2.261   3.777  -1.047  0.5946  0.8321  0.7871
  919MOL0     H24032   2.357   3.702  -0.911  0.6586 -0.0395 -0.3110
  919MOL0     H24033   2.133   3.692  -0.823  1.9600 -0.3239  0.2567
  919MOL0     H24034   2.181   3.846  -0.761  1.1704  0.3733 -0.3025
  919MOL0     H24035   2.044   3.834  -1.033 -0.8558 -0.3481 -0.6781
  919MOL0     H24036   2.078   3.974  -0.925  0.8465 -0.7827  2.8251
  919MOL0     H24037   1.881   3.741  -0.868 -1.7724  1.0036  0.4338
  919MOL0     H24038   1.850   3.903  -0.891 -1.5707 -0.8858  1.5489
  919MOL0     H24039   1.988   3.782  -0.655 -0.0987  0.4775  2.3662
  919MOL0     H24040   2.011   3.950  -0.680 -0.6420  1.2541 -0.9149
  919MOL0     H24041   1.757   3.978  -0.682  3.5285  2.1909 -0.0163
  919MOL0     H24042   1.811   3.918  -0.529 -1.4466  1.1799  0.0528
  919MOL0     H24043   1.639   3.808  -0.740 -0.8298 -1.3972  0.0403
  919MOL0     H24044   1.759   3.684  -0.701 -2.8235 -1.1942 -1.1878
  919MOL0     H24045   2.695   4.013  -0.761  1.2144  0.7647 -0.6002
  919MOL0     H24046   2.769   4.255  -0.740  1.2951  2.2527 -3.1294
  919MOL0     H24047   2.600   4.705  -0.608 -2.4958  1.5689  1.7687
  919MOL0     H24048   2.597   4.948  -0.613 -2.7443 -0.1902  0.8089
  919MOL0     H24049   1.030   5.452  -0.068 -1.2366  0.0670  1.0869
  919MOL0     H24050   0.892   5.601   0.086  0.6112  1.0497  1.1461
  919MOL0     H24051   0.706   5.958   0.162 -1.8673 -2.5069  1.9959
  919MOL0     H24052   0.528   6.088   0.303  0.1854  1.3997 -0.1104
  919MOL0     H24053   0.691   6.311   0.656  0.7239 -1.6127 -1.5006
  919MOL0     H24054   0.521   6.355   0.628  1.4040 -0.0870  1.3284
  919MOL0     H24055   0.784   6.502   0.511  0.9660  1.2881  1.1933
  919MOL0     H24056   0.657   6.558   0.617  0.5988 -1.4824  0.3579
  919MOL0     H24057   0.492   6.531   0.434  0.0204  2.4764  0.8288
  919MOL0     H24058   0.620   6.448   0.340 -2.3240  2.0845 -2.1912
  919MOL0     H24059   0.594   6.741   0.426  0.2924  1.4760 -1.0141
  919MOL0     H24060   0.741   6.668   0.352  1.0047 -0.3978 -2.3696
  919MOL0     H24061   0.430   6.678   0.042  1.9581 -3.2810 -0.1644
  919MOL0     H24062   0.839   6.219   0.561 -4.6458  1.8866  0.6953
  919MOL0     H24063   1.056   6.162   0.553 -1.7017 -2.2180  0.4632
  919MOL0     H24064   1.094   6.001   0.494  1.8174 -0.0705 -0.0515
  919MOL0     H24065   1.108   6.153   0.391 -2.1712  0.7426 -1.1068
  920MOL0     O24066   3.019   6.933   1.029  0.4356 -0.2010 -0.2409
  920MOL0     C24067   3.064   6.849   0.952  0.1695 -0.5406 -0.4344
  920MOL0     O24068   3.003   6.723   0.939 -1.3118  0.0889  0.8135
  920MOL0     C24069   2.895   6.685   1.007 -0.8943 -0.1255 -0.6371
  920MOL0     C24070   2.904   6.675   1.148  0.0618  0.7112  0.5779
  920MOL0     C24071   2.791   6.632   1.218 -0.6721  0.2485  0.2594
  920MOL0     C24072   2.672   6.597   1.152 -0.4768 -0.0112 -0.4737
  920MOL0     O24073   2.558   6.565   1.222  0.1980 -1.2756  0.5588
  920MOL0     C24074   2.583   6.448   1.305  0.8865 -0.7582 -0.1666
  920MOL0     C24075   2.544   6.478   1.451  0.5243  0.1313  0.6347
  920MOL0     C24076   2.399   6.502   1.476  0.6259 -0.4492 -0.3119
  920MOL0     C24077   2.374   6.566   1.611  0.7928  1.0236 -0.7185
  920MOL0     C24078   2.258   6.504   1.685  0.3125  0.0563 -0.9426
  920MOL0     C24079   2.210   6.567   1.811 -0.0095 -0.6294 -1.1240
  920MOL0     C24080   2.307   6.573   1.930 -0.3744  0.1232  0.3999
  920MOL0     C24081   2.239   6.617   2.062  0.7740  0.2160  0.5282
  920MOL0     N24082   2.215   6.757   2.075  0.1378  0.1305 -0.4276
  920MOL0     C24083   2.096   6.827   2.057 -0.1484  0.6780  0.1972
  920MOL0     C24084   2.123   6.958   2.073  0.6224  0.7515  0.8732
  920MOL0     C24085   2.023   7.070   2.068 -0.2719  0.4917 -0.1998
  920MOL0     C24086   1.940   7.079   2.201 -0.3107 -0.0221 -1.0786
  920MOL0     C24087   2.028   7.120   2.319  0.0061  0.0977 -0.2694
  920MOL0     C24088   2.115   7.255   2.306  0.8325 -0.0425  0.2265
  920MOL0     O24089   2.006   7.355   2.314  0.4744  0.0688  0.7006
  920MOL0     C24090   2.010   7.484   2.364  0.0547  1.0021 -0.7164
  920MOL0     C24091   2.114   7.526   2.445 -0.0833 -0.8012 -0.3983
  920MOL0     C24092   2.104   7.660   2.497  0.1736  0.5346 -1.0323
  920MOL0     C24093   1.986   7.730   2.498  0.2990 -1.0442 -0.4960
  920MOL0     C24094   1.976   7.853   2.580  0.5705 -0.5188  0.2654
  920MOL0     O24095   1.886   7.948   2.551  0.0828  0.3808  0.1688
  920MOL0     C24096   1.866   8.060   2.626 -1.0459  1.0332 -0.2603
  920MOL0     C24097   1.777   8.058   2.732  1.1066 -0.8712  0.6536
  920MOL0     C24098   1.757   8.172   2.808  0.6866  0.1233  0.2487
  920MOL0     C24099   1.824   8.294   2.776 -0.6753 -0.1251  0.2635
  920MOL0     O24100   1.792   8.408   2.842 -0.1154  0.9131 -0.5431
  920MOL0     C24101   1.823   8.537   2.803 -0.1631  0.5660  0.8710
  920MOL0     C24102   1.723   8.573   2.694  0.1630  0.3793 -0.2579
  920MOL0     C24103   1.755   8.698   2.620  0.1916  1.0965 -0.1858
  920MOL0     C24104   1.850   8.679   2.497 -0.4568  0.4688  0.1642
  920MOL0     C24105   1.880   8.820   2.427  0.3524  0.5254  0.7820
  920MOL0     C24106   2.022   8.822   2.377 -0.7394  0.1046 -0.2761
  920MOL0     C24107   2.051   8.722   2.265  0.7490 -0.3582 -1.1799
  920MOL0     C24108   2.181   8.754   2.177  0.6729 -0.6321 -0.2334
  920MOL0    Cl24109   2.337   8.769   2.283  0.4624  0.2186 -0.1216
  920MOL0     C24110   1.926   8.294   2.669  0.4582 -0.3021  1.2411
  920MOL0     C24111   1.940   8.175   2.594 -0.1205  0.9551 -0.2355
  920MOL0     O24112   2.055   7.859   2.668 -0.4475  0.2331 -0.0337
  920MOL0     C24113   1.882   7.684   2.419  0.2336 -0.2491  0.1956
  920MOL0     C24114   1.891   7.563   2.357 -0.4222  0.1695 -0.0761
  920MOL0     N24115   2.256   6.973   2.088  0.2133  0.5395  0.3198
  920MOL0     N24116   2.313   6.853   2.083  1.1106  0.3047 -0.0590
  920MOL0     C24117   2.662   6.612   1.015 -0.2569 -0.2721  0.3103
  920MOL0     C24118   2.775   6.647   0.942  0.6177 -0.4912  0.5176
  920MOL0     C24119   3.185   6.883   0.871  0.3589  0.5402 -0.1769
  920MOL0     C24120   3.231   6.778   0.786 -0.1949  0.1580  0.0281
  920MOL0     C24121   3.343   6.805   0.708 -1.3538  0.3491  0.3641
  920MOL0     C24122   3.429   6.915   0.731 -0.0104 -0.8217  0.5915
  920MOL0     O24123   3.538   6.953   0.668 -0.4413 -0.3272 -1.2603
  920MOL0     C24124   3.593   6.863   0.571 -0.8605  0.0347 -0.0145
  920MOL0     C24125   3.739   6.880   0.541  0.7741 -0.4865 -0.0259
  920MOL0     C24126   3.764   7.027   0.508 -0.1293  0.4727  0.3000
  920MOL0     C24127   3.725   7.054   0.357  0.7763 -0.3697 -0.5340
  920MOL0     C24128   3.800   7.168   0.307  0.0929 -0.1379  0.1451
  920MOL0     C24129   3.871   7.266   0.269 -0.9545 -0.3879 -0.7468
  920MOL0     C24130   3.384   7.011   0.821 -0.2729  0.9864  0.2252
  920MOL0     C24131   3.261   7.008   0.875 -0.6233  0.2628 -0.8530
  920MOL0     C24132   3.228   7.136   0.955 -0.5279  0.9862  0.0581
  920MOL0     H24133   3.004   6.695   1.184  0.7079  0.6378 -1.1059
  920MOL0     H24134   2.798   6.627   1.326 -0.0090 -1.5089  0.1746
  920MOL0     H24135   2.512   6.374   1.267 -1.3609  0.6145  1.1194
  920MOL0     H24136   2.685   6.409   1.301  1.4504  0.6929 -0.7837
  920MOL0     H24137   2.610   6.554   1.493 -1.2025  0.3602  3.1297
  920MOL0     H24138   2.574   6.387   1.503  1.7183  1.1115  1.7048
  920MOL0     H24139   2.345   6.407   1.467 -1.7877  0.7044  1.1122
  920MOL0     H24140   2.350   6.569   1.406  1.2710 -0.0379 -0.3717
  920MOL0     H24141   2.462   6.552   1.675  0.0298  1.1354  0.3734
  920MOL0     H24142   2.354   6.673   1.599 -1.4701  1.1655  2.9807
  920MOL0     H24143   2.168   6.496   1.623  0.6982  1.8978 -1.8170
  920MOL0     H24144   2.298   6.406   1.712 -0.8378 -0.4220 -0.9037
  920MOL0     H24145   2.176   6.667   1.779  0.0236 -0.6529 -1.2351
  920MOL0     H24146   2.125   6.511   1.850 -0.4439 -0.0580 -1.2314
  920MOL0     H24147   2.391   6.640   1.912  0.9986 -1.7316 -0.4272
  920MOL0     H24148   2.336   6.470   1.954  2.5240  1.2039  1.9600
  920MOL0     H24149   2.141   6.568   2.069  0.1864  1.3606  0.4557
  920MOL0     H24150   2.300   6.587   2.148 -0.6362 -0.7488  1.2402
  920MOL0     H24151   1.997   6.784   2.047  0.5983 -0.6655 -2.0752
  920MOL0     H24152   2.067   7.168   2.044  0.6837  0.2498  0.4809
  920MOL0     H24153   1.952   7.052   1.987 -0.8736  0.0267  0.4274
  920MOL0     H24154   1.865   7.159   2.209  2.0314  2.1417  0.9915
  920MOL0     H24155   1.889   6.986   2.228  1.2149 -0.1899  1.6159
  920MOL0     H24156   2.100   7.038   2.330  0.6645  0.7575  0.5165
  920MOL0     H24157   1.986   7.107   2.419 -0.6407 -1.3069 -0.7010
  920MOL0     H24158   2.175   7.257   2.215  2.6346  1.5077  1.3615
  920MOL0     H24159   2.172   7.269   2.398  0.5290 -0.5314  0.4971
  920MOL0     H24160   2.214   7.484   2.452  0.6249  0.4681 -2.0855
  920MOL0     H24161   2.184   7.694   2.562  0.6521 -3.7200  0.9103
  920MOL0     H24162   1.743   7.956   2.750  0.6690 -1.1855 -1.6978
  920MOL0     H24163   1.683   8.172   2.887  1.8886  0.9662  1.4194
  920MOL0     H24164   1.811   8.614   2.880 -0.0106  0.4852  0.9759
  920MOL0     H24165   1.927   8.540   2.767 -0.2295  0.2068  0.6388
  920MOL0     H24166   1.727   8.494   2.619  1.0315 -0.2804  0.4580
  920MOL0     H24167   1.623   8.558   2.735  0.8086 -0.7173  0.9830
  920MOL0     H24168   1.664   8.744   2.580  1.0429  1.2594 -2.0534
  920MOL0     H24169   1.792   8.773   2.690 -0.9104  0.1552  1.4609
  920MOL0     H24170   1.808   8.615   2.419  0.2068 -1.5108  1.3547
  920MOL0     H24171   1.936   8.636   2.549 -1.7996 -0.5077  1.6654
  920MOL0     H24172   1.864   8.896   2.504 -2.9943 -1.0222  1.8237
  920MOL0     H24173   1.817   8.838   2.339  2.3411 -1.6301 -1.2453
  920MOL0     H24174   2.037   8.918   2.325  0.6556 -0.9986 -2.0770
  920MOL0     H24175   2.099   8.796   2.451 -2.9517 -3.1254  1.0839
  920MOL0     H24176   1.960   8.723   2.204  0.1835  1.6926 -0.3819
  920MOL0     H24177   2.062   8.625   2.314  0.2829 -1.0409 -2.3845
  920MOL0     H24178   2.203   8.669   2.111  0.3913 -1.3073  0.5186
  920MOL0     H24179   2.167   8.841   2.112  4.3219  0.0705 -0.3008
  920MOL0     H24180   1.972   8.386   2.636 -0.2544 -0.8183 -1.3977
  920MOL0     H24181   2.003   8.166   2.506  1.4371  1.2871  0.8200
  920MOL0     H24182   1.791   7.741   2.422  0.3356  0.1548 -2.2602
  920MOL0     H24183   1.808   7.513   2.308 -0.7533  2.0696 -1.6194
  920MOL0     H24184   2.573   6.599   0.954 -3.4556  2.0964  3.9742
  920MOL0     H24185   2.775   6.645   0.834 -2.1960 -1.2437  0.4580
  920MOL0     H24186   3.186   6.683   0.760  0.4858 -0.3587  0.7106
  920MOL0     H24187   3.380   6.721   0.651  2.0915  1.4697  0.6669
  920MOL0     H24188   3.538   6.882   0.478 -2.4436 -0.8515  0.6919
  920MOL0     H24189   3.574   6.760   0.604 -1.6948 -0.5036 -2.0002
  920MOL0     H24190   3.765   6.814   0.458  0.2883 -0.2172 -0.3930
  920MOL0     H24191   3.801   6.854   0.627  0.1857 -0.9346  0.2649
  920MOL0     H24192   3.872   7.034   0.523 -0.3102 -0.2680  2.3105
  920MOL0     H24193   3.716   7.090   0.583 -0.2661  2.5485 -1.4438
  920MOL0     H24194   3.759   6.966   0.301 -0.5740 -1.5798  0.4612
  920MOL0     H24195   3.617   7.072   0.348  1.1674  4.7810  1.5799
  920MOL0     H24196   3.933   7.343   0.228 -3.3022  2.1337  0.1354
  920MOL0     H24197   3.443   7.098   0.846  0.9918  1.3011 -3.3099
  920MOL0     H24198   3.120   7.153   0.948 -0.7240 -0.4731 -1.0400
  920MOL0     H24199   3.258   7.120   1.059 -1.6449 -0.2951  0.2238
  920MOL0     H24200   3.271   7.224   0.906 -1.9652  0.2531 -2.7528
  921MOL0     O24201   9.934   2.888   0.975  0.9461  0.4458 -0.0239
  921MOL0     C24202  10.042   2.869   0.916  0.1537 -1.0129  1.1549
  921MOL0     O24203  10.058   2.882   0.783 -0.1844  0.2546 -0.3840
  921MOL0     C24204   9.947   2.929   0.713  0.5915  0.5999 -0.2473
  921MOL0     C24205   9.949   3.066   0.671  0.4933 -0.4194 -0.1797
  921MOL0     C24206   9.836   3.125   0.605  0.2822  0.5220  0.4229
  921MOL0     C24207   9.715   3.050   0.578  0.4094  0.2822  0.3956
  921MOL0     O24208   9.617   3.120   0.499 -0.3603 -0.0869  0.2484
  921MOL0     C24209   9.581   3.033   0.383 -0.9612  0.1718 -0.1329
  921MOL0     C24210   9.558   3.125   0.271  0.2117  0.1280  0.2921
  921MOL0     C24211   9.501   3.051   0.153 -1.2092  0.5006 -0.0094
  921MOL0     C24212   9.477   3.142   0.038  0.2665 -0.8179 -0.2393
  921MOL0     C24213   9.434   3.054  -0.081  0.1577  0.5681 -0.6817
  921MOL0     C24214   9.445   3.124  -0.210  0.6225 -0.2205  1.0936
  921MOL0     C24215   9.371   3.248  -0.229 -0.6010 -0.2579 -0.8883
  921MOL0     C24216   9.307   3.257  -0.364  0.6811 -0.3872 -0.3020
  921MOL0     N24217   9.212   3.151  -0.402 -0.6431  0.3819  0.7617
  921MOL0     C24218   9.087   3.139  -0.337 -0.6911  1.2583  0.8013
  921MOL0     C24219   9.043   3.019  -0.385  0.5627  0.1658  0.8130
  921MOL0     C24220   8.910   2.974  -0.333 -0.0552  0.9325 -0.1626
  921MOL0     C24221   8.873   2.998  -0.189 -0.4802  0.2878  0.6607
  921MOL0     C24222   8.981   2.943  -0.097 -0.3262  0.4146 -0.7343
  921MOL0     C24223   8.947   2.944   0.055  0.6029 -0.3892 -0.3479
  921MOL0     O24224   9.065   2.909   0.130  0.1503  0.0582 -0.8468
  921MOL0     C24225   9.044   2.913   0.267 -0.7945  0.9810  0.5599
  921MOL0     C24226   8.907   2.919   0.328 -0.1041  0.1726 -0.5876
  921MOL0     C24227   8.900   2.929   0.462  0.6744 -0.6933 -0.8763
  921MOL0     C24228   9.009   2.942   0.543 -0.4987  0.1497 -0.0217
  921MOL0     C24229   8.981   2.978   0.684  0.3479  0.4335  0.5377
  921MOL0     O24230   9.095   2.975   0.765  0.5026  0.0552  0.2815
  921MOL0     C24231   9.094   3.021   0.893 -0.6410 -0.3719 -0.8329
  921MOL0     C24232   9.120   2.930   0.999 -0.1593  0.0258 -0.5998
  921MOL0     C24233   9.103   2.967   1.137 -0.2390  0.5392  0.7617
  921MOL0     C24234   9.068   3.095   1.171 -0.0690 -0.2972  0.3299
  921MOL0     O24235   9.046   3.127   1.303  0.4314  1.1684  1.0311
  921MOL0     C24236   9.033   3.265   1.341  0.6481  1.5896  0.8162
  921MOL0     C24237   9.072   3.280   1.479 -0.4512 -0.4691 -0.0015
  921MOL0     C24238   9.226   3.271   1.498  0.1496 -0.7590  1.1098
  921MOL0     C24239   9.259   3.277   1.652 -0.5995 -0.3303  0.5197
  921MOL0     C24240   9.403   3.306   1.683  0.4585 -1.0961  0.0301
  921MOL0     C24241   9.447   3.451   1.638  0.2315  0.8569 -0.5424
  921MOL0     C24242   9.477   3.546   1.760 -0.2800  0.4926  0.5900
  921MOL0     C24243   9.367   3.557   1.861  0.9407 -0.0700 -0.0762
  921MOL0    Cl24244   9.245   3.698   1.829  0.0165  0.7828 -0.1788
  921MOL0     C24245   9.054   3.188   1.068  0.7374 -0.2141  0.4122
  921MOL0     C24246   9.055   3.155   0.930  0.7878 -0.7940  0.1595
  921MOL0     O24247   8.872   3.023   0.719  0.0197 -0.3197 -0.0935
  921MOL0     C24248   9.134   2.936   0.487  0.0987 -0.3631 -0.2249
  921MOL0     C24249   9.158   2.924   0.349 -0.9236  0.2923 -0.3926
  921MOL0     N24250   9.134   2.967  -0.474  0.4944  0.3433 -1.1791
  921MOL0     N24251   9.239   3.042  -0.473 -0.9538  0.5212  0.0215
  921MOL0     C24252   9.709   2.916   0.627 -0.9258  0.6851  0.3350
  921MOL0     C24253   9.820   2.862   0.702 -0.7798 -0.0579 -0.8982
  921MOL0     C24254  10.156   2.822   0.996  0.5374  0.1630 -0.7144
  921MOL0     C24255  10.123   2.727   1.098  0.6392  0.4775  0.5754
  921MOL0     C24256  10.221   2.692   1.188 -0.4949  0.3643  0.9284
  921MOL0     C24257  10.355   2.736   1.178  0.4351 -0.1009 -0.2152
  921MOL0     O24258  10.452   2.688   1.258 -0.5933 -0.0415  0.4408
  921MOL0     C24259  10.575   2.765   1.277 -0.2531 -0.3015 -1.0924
  921MOL0     C24260  10.634   2.701   1.400  0.1539  0.6671  0.7748
  921MOL0     C24261  10.780   2.747   1.433  0.2479 -0.7302 -0.1573
  921MOL0     C24262  10.787   2.750   1.585 -0.9801 -0.0393  1.0605
  921MOL0     C24263  10.756   2.618   1.643 -0.3333 -0.6648 -0.8490
  921MOL0     C24264  10.734   2.510   1.694  0.7335 -0.5063 -1.7669
  921MOL0     C24265  10.381   2.823   1.072  0.2630 -0.3556 -0.5570
  921MOL0     C24266  10.279   2.872   0.983 -0.5621  0.3252  0.3673
  921MOL0     C24267  10.333   2.970   0.884  0.5816  0.3082 -0.5367
  921MOL0     H24268  10.033   3.127   0.704  0.6388 -1.0817  0.7106
  921MOL0     H24269   9.828   3.231   0.584  2.2387  0.0336 -3.6567
  921MOL0     H24270   9.666   2.971   0.353 -0.5959 -0.6888  2.4184
  921MOL0     H24271   9.487   2.978   0.395 -1.4378  0.6409 -1.5799
  921MOL0     H24272   9.658   3.161   0.243 -0.6887  0.0755 -3.5566
  921MOL0     H24273   9.498   3.212   0.301 -0.2693 -0.6256  1.5939
  921MOL0     H24274   9.417   2.987   0.179 -1.3983  0.4544 -0.7034
  921MOL0     H24275   9.579   2.983   0.115  2.4442  3.6019  1.2479
  921MOL0     H24276   9.398   3.216   0.052  0.6211 -0.7029  1.3490
  921MOL0     H24277   9.569   3.193   0.008 -1.2969  1.2251 -1.8423
  921MOL0     H24278   9.505   2.971  -0.087  2.2861  2.3197 -0.9765
  921MOL0     H24279   9.330   3.023  -0.066 -0.1565  0.3552 -2.9088
  921MOL0     H24280   9.550   3.140  -0.236  0.0213 -0.1660 -1.6356
  921MOL0     H24281   9.415   3.049  -0.284 -0.5330  1.0247  0.2480
  921MOL0     H24282   9.442   3.332  -0.238  1.4829 -2.1756 -4.6241
  921MOL0     H24283   9.296   3.266  -0.152 -3.7239 -1.9302 -3.3261
  921MOL0     H24284   9.266   3.355  -0.388 -0.6399 -1.2720 -1.8679
  921MOL0     H24285   9.394   3.247  -0.431  0.2278  1.3363 -1.2087
  921MOL0     H24286   9.045   3.198  -0.257 -3.1512  2.0205 -0.9401
  921MOL0     H24287   8.838   3.032  -0.391  1.4246  3.9440  0.8446
  921MOL0     H24288   8.900   2.869  -0.364  3.2788  1.0723 -2.1864
  921MOL0     H24289   8.858   3.105  -0.172 -0.4966  0.2362  0.9840
  921MOL0     H24290   8.778   2.949  -0.167  1.0188 -2.0373  2.3502
  921MOL0     H24291   9.073   3.003  -0.096 -0.8705  1.2751 -1.2857
  921MOL0     H24292   8.992   2.840  -0.131  0.1852  0.4900 -0.8019
  921MOL0     H24293   8.870   2.865   0.052 -0.2358  0.3446  1.1307
  921MOL0     H24294   8.891   3.035   0.078  0.9670  0.8251 -3.6748
  921MOL0     H24295   8.823   2.899   0.262 -0.9458 -1.3207  0.8740
  921MOL0     H24296   8.806   2.946   0.514  0.8055 -2.7723  0.1239
  921MOL0     H24297   9.134   2.824   0.978  1.1934 -0.4992  2.4389
  921MOL0     H24298   9.099   2.893   1.217 -0.2068 -0.5190 -0.1913
  921MOL0     H24299   9.081   3.333   1.271 -0.8529 -1.3483 -3.5360
  921MOL0     H24300   8.932   3.307   1.335  0.3632  0.7999 -4.8453
  921MOL0     H24301   9.031   3.376   1.512 -3.7510 -1.4657 -0.8095
  921MOL0     H24302   9.027   3.199   1.537  0.0153 -1.3275 -0.8167
  921MOL0     H24303   9.267   3.178   1.458  3.3520  0.9191  0.2108
  921MOL0     H24304   9.266   3.359   1.449 -0.9975 -0.2914  0.9681
  921MOL0     H24305   9.241   3.184   1.707  2.1192 -1.0887  0.2439
  921MOL0     H24306   9.212   3.367   1.694 -1.7762 -1.5101  1.8617
  921MOL0     H24307   9.465   3.221   1.652  0.4006 -1.4914  0.9638
  921MOL0     H24308   9.415   3.312   1.792 -4.2827 -2.0583  0.7931
  921MOL0     H24309   9.540   3.444   1.581 -0.6302 -0.1087 -1.8861
  921MOL0     H24310   9.370   3.495   1.574 -0.2801  2.0472  0.8243
  921MOL0     H24311   9.496   3.647   1.724  1.8411  0.6421  1.9286
  921MOL0     H24312   9.556   3.499   1.820  0.7067  0.0625 -1.0016
  921MOL0     H24313   9.311   3.463   1.856  1.7797 -0.5479 -3.8050
  921MOL0     H24314   9.400   3.573   1.964 -1.5006 -0.6693  0.8626
  921MOL0     H24315   9.038   3.294   1.083 -0.1563 -0.0481 -1.4631
  921MOL0     H24316   9.025   3.233   0.861  2.1773 -0.1461  0.2656
  921MOL0     H24317   9.220   2.943   0.552 -0.4812 -1.9412  0.7818
  921MOL0     H24318   9.255   2.901   0.309  0.2456  1.0282  1.8292
  921MOL0     H24319   9.618   2.859   0.636 -1.7644  1.9402  0.0598
  921MOL0     H24320   9.822   2.765   0.749  1.3625  0.1351 -0.5127
  921MOL0     H24321  10.024   2.684   1.106  0.4102  1.3065  3.2887
  921MOL0     H24322  10.200   2.605   1.250 -0.6394  0.6763  1.3185
  921MOL0     H24323  10.554   2.868   1.305  0.5007 -0.3035 -0.5061
  921MOL0     H24324  10.636   2.769   1.185  0.7204  3.8751 -0.4397
  921MOL0     H24325  10.643   2.595   1.378  0.4724  0.7671  0.4035
  921MOL0     H24326  10.572   2.724   1.487  2.1184  2.6373  1.7800
  921MOL0     H24327  10.788   2.854   1.414  1.9647 -1.3443 -3.7566
  921MOL0     H24328  10.865   2.693   1.388 -0.6333 -1.3180 -1.1597
  921MOL0     H24329  10.883   2.778   1.629  0.1336  2.6896 -2.5840
  921MOL0     H24330  10.708   2.814   1.626 -2.0945 -2.1867  2.4555
  921MOL0     H24331  10.715   2.416   1.741 -1.0718 -0.3411 -2.0732
  921MOL0     H24332  10.485   2.855   1.067  0.9127 -1.7215  2.3077
  921MOL0     H24333  10.423   3.022   0.918 -1.3410  3.9792 -0.5427
  921MOL0     H24334  10.360   2.930   0.786  0.3429 -0.6090 -0.2336
  921MOL0     H24335  10.262   3.053   0.878 -0.0262 -0.1843 -0.3110
  922MOL0     O24336  10.548   9.408   6.078 -0.2704  0.3921 -1.1867
  922MOL0     C24337  10.563   9.395   6.200 -0.0640 -1.1749 -0.7533
  922MOL0     O24338  10.505   9.306   6.290 -0.0401 -0.5152  0.1281
  922MOL0     C24339  10.407   9.220   6.240  0.1420 -0.1332 -0.1440
  922MOL0     C24340  10.272   9.246   6.274  0.4369  0.8120 -0.8308
  922MOL0     C24341  10.169   9.172   6.220  0.3736  0.4897 -0.3753
  922MOL0     C24342  10.198   9.079   6.122 -0.3121 -0.3343  1.3015
  922MOL0     O24343  10.082   9.031   6.064  0.3434  0.4506  0.4444
  922MOL0     C24344  10.000   9.119   5.980  0.5330 -0.0223 -0.7903
  922MOL0     C24345   9.906   9.042   5.891  0.2910  0.0460 -0.2613
  922MOL0     C24346   9.795   8.994   5.974  0.4262 -0.4923 -0.4781
  922MOL0     C24347   9.684   8.942   5.886  0.5138  0.5495 -0.5139
  922MOL0     C24348   9.575   8.878   5.970 -0.0410  0.1638  1.3604
  922MOL0     C24349   9.484   8.814   5.862 -0.5831 -0.6503  0.3855
  922MOL0     C24350   9.377   8.732   5.916 -0.8274  0.1376  0.3314
  922MOL0     C24351   9.425   8.606   6.000  0.1321 -0.0916 -0.9246
  922MOL0     N24352   9.369   8.478   5.967 -0.6158  0.9358 -0.5584
  922MOL0     C24353   9.254   8.436   6.039 -0.3241  0.7581  0.0848
  922MOL0     C24354   9.247   8.305   6.017  0.1394  0.1076  0.0372
  922MOL0     C24355   9.152   8.203   6.068  0.4828 -0.0104  0.3875
  922MOL0     C24356   9.122   8.078   5.971  0.5300 -0.1049  0.0426
  922MOL0     C24357   9.012   8.120   5.867  0.1027  0.0846  0.1553
  922MOL0     C24358   9.000   8.009   5.758  0.2672  0.8519  0.1820
  922MOL0     O24359   8.876   8.017   5.685  0.4358  0.1124  0.2858
  922MOL0     C24360   8.755   7.994   5.743  0.2452 -0.3967 -0.4026
  922MOL0     C24361   8.642   8.035   5.668  0.2727  0.5487  0.6500
  922MOL0     C24362   8.507   8.032   5.708  0.3502 -0.1944  0.5566
  922MOL0     C24363   8.484   7.971   5.835 -0.2747  0.8001  0.3072
  922MOL0     C24364   8.349   7.975   5.891 -0.0375 -0.1181 -0.2754
  922MOL0     O24365   8.237   8.031   5.824  0.7708  0.6093  0.7010
  922MOL0     C24366   8.109   8.017   5.869 -0.0724  0.3245 -0.5204
  922MOL0     C24367   8.060   8.116   5.953  0.5082  0.3785  0.0704
  922MOL0     C24368   7.930   8.117   5.996 -0.3564 -0.5225  0.3104
  922MOL0     C24369   7.841   8.014   5.956 -0.1976 -0.9475  0.8726
  922MOL0     O24370   7.713   8.017   5.989 -0.0353  0.2507  0.2881
  922MOL0     C24371   7.644   8.130   6.039 -0.0013  1.2189  0.0310
  922MOL0     C24372   7.513   8.146   5.987 -0.2517  0.0823  1.1023
  922MOL0     C24373   7.474   8.290   5.960  0.3624 -0.7543  0.1012
  922MOL0     C24374   7.481   8.385   6.083  0.0115  0.1771  0.9274
  922MOL0     C24375   7.601   8.480   6.086 -0.0464 -0.0089 -0.3516
  922MOL0     C24376   7.626   8.525   6.237 -0.0423 -0.2555 -0.5786
  922MOL0     C24377   7.754   8.613   6.265  0.7357 -0.3102 -0.4387
  922MOL0     C24378   7.742   8.756   6.208  0.1925  0.4607  0.6507
  922MOL0    Cl24379   7.594   8.839   6.273 -0.1793  0.4986 -0.0485
  922MOL0     C24380   7.892   7.912   5.878  1.1656 -0.2708 -0.5452
  922MOL0     C24381   8.026   7.910   5.835  0.5363 -0.7306  0.1554
  922MOL0     O24382   8.351   7.925   6.006 -0.4047 -0.3761 -1.0835
  922MOL0     C24383   8.590   7.916   5.911 -0.1558 -1.1564 -0.0630
  922MOL0     C24384   8.730   7.934   5.869  0.3508 -0.2985 -0.3261
  922MOL0     N24385   9.344   8.272   5.927 -0.4133  0.2548  0.3670
  922MOL0     N24386   9.426   8.369   5.901  0.6931  0.3381  0.0345
  922MOL0     C24387  10.327   9.054   6.080 -0.6285  0.5448  0.0645
  922MOL0     C24388  10.429   9.119   6.153  0.3082 -0.0522  0.5388
  922MOL0     C24389  10.647   9.494   6.266  0.9419 -0.0798 -0.6646
  922MOL0     C24390  10.779   9.501   6.227 -1.1268 -0.1801  0.5310
  922MOL0     C24391  10.878   9.586   6.286  0.1816  0.1956  0.9887
  922MOL0     C24392  10.840   9.664   6.389 -0.2379  0.5418  0.8010
  922MOL0     O24393  10.937   9.740   6.452 -0.4754  0.3454  0.6595
  922MOL0     C24394  11.056   9.772   6.371  0.5670 -0.2537  0.2024
  922MOL0     C24395  11.113   9.905   6.433  0.1281  0.7733  0.1885
  922MOL0     C24396  11.174   9.865   6.568  0.4537 -0.4912  0.8161
  922MOL0     C24397  11.254   9.981   6.639  0.1673  0.4814 -0.6603
  922MOL0     C24398  11.334  10.061   6.549 -1.0872 -0.3857 -0.5454
  922MOL0     C24399  11.385  10.151   6.483 -0.0503  0.0615 -0.6096
  922MOL0     C24400  10.708   9.648   6.435 -0.1581  0.0989  1.0913
  922MOL0     C24401  10.613   9.568   6.378  0.4143 -0.3580 -0.2865
  922MOL0     C24402  10.476   9.575   6.440  0.2649 -0.6747 -0.2866
  922MOL0     H24403  10.228   9.321   6.340 -0.5093  1.7474 -2.4679
  922MOL0     H24404  10.063   9.189   6.235  0.3615  0.0403  0.0905
  922MOL0     H24405   9.947   9.187   6.048  2.1862  0.2654  0.2632
  922MOL0     H24406  10.055   9.196   5.926  2.5467 -0.5598  0.3826
  922MOL0     H24407   9.949   8.950   5.849 -0.5228 -0.0763 -0.8508
  922MOL0     H24408   9.875   9.100   5.804 -0.9203 -0.7588 -0.3844
  922MOL0     H24409   9.768   9.076   6.041  2.1341 -0.5511  0.3487
  922MOL0     H24410   9.841   8.923   6.043 -1.8127  0.9952  2.7733
  922MOL0     H24411   9.654   9.009   5.805 -2.9334 -0.8636 -0.5457
  922MOL0     H24412   9.727   8.861   5.825 -0.3482 -2.1291  2.1902
  922MOL0     H24413   9.613   8.807   6.044  4.0022  1.7527  1.0725
  922MOL0     H24414   9.518   8.957   6.022 -2.2495 -0.1257 -0.4775
  922MOL0     H24415   9.449   8.900   5.803  1.5087  1.5222  2.1233
  922MOL0     H24416   9.541   8.748   5.797  2.0315  1.3387  0.4879
  922MOL0     H24417   9.327   8.699   5.825 -1.0177  3.5122 -0.8974
  922MOL0     H24418   9.308   8.793   5.974 -3.1666 -3.1344  1.3301
  922MOL0     H24419   9.531   8.593   5.980  1.0890  1.1145  2.5910
  922MOL0     H24420   9.422   8.639   6.104  0.9905  1.4509 -1.3588
  922MOL0     H24421   9.193   8.496   6.106 -0.8828  1.0140 -0.6437
  922MOL0     H24422   9.194   8.160   6.159  1.4817 -2.7765 -1.2846
  922MOL0     H24423   9.053   8.243   6.095 -0.9566 -3.5813  0.9333
  922MOL0     H24424   9.210   8.044   5.916 -0.5775 -3.5366  0.1852
  922MOL0     H24425   9.081   7.995   6.028 -0.0351 -0.7354 -1.2360
  922MOL0     H24426   9.027   8.218   5.822 -1.5915 -0.3089 -1.3893
  922MOL0     H24427   8.916   8.124   5.921 -1.4610 -1.8306 -2.2499
  922MOL0     H24428   9.019   7.911   5.803  0.6344  1.2361  0.8808
  922MOL0     H24429   9.078   8.029   5.683  0.1467 -1.1780 -0.5403
  922MOL0     H24430   8.665   8.083   5.573 -3.2460 -1.3794 -1.3643
  922MOL0     H24431   8.433   8.086   5.650  1.0930  1.4522  1.1011
  922MOL0     H24432   8.118   8.207   5.961 -0.5782  1.1776 -0.8216
  922MOL0     H24433   7.890   8.198   6.056 -2.4515  0.7561 -2.5846
  922MOL0     H24434   7.638   8.121   6.148  0.5288 -0.4981 -0.0544
  922MOL0     H24435   7.701   8.218   6.009 -1.7808  1.7631 -1.9989
  922MOL0     H24436   7.507   8.085   5.896  1.9782  1.2646  0.0567
  922MOL0     H24437   7.438   8.104   6.054 -1.4076 -1.3859 -0.9913
  922MOL0     H24438   7.531   8.329   5.874 -2.6713 -0.8673 -2.1171
  922MOL0     H24439   7.369   8.285   5.931  0.0905 -0.8208  1.0856
  922MOL0     H24440   7.482   8.323   6.174 -1.1322 -1.0879  0.1169
  922MOL0     H24441   7.387   8.441   6.084 -0.4339 -0.5028 -0.4435
  922MOL0     H24442   7.582   8.575   6.036  0.1013  0.8046  1.0670
  922MOL0     H24443   7.694   8.431   6.055  0.1203 -0.3468  0.6298
  922MOL0     H24444   7.536   8.576   6.272  1.9790  0.0314  5.3467
  922MOL0     H24445   7.641   8.428   6.285 -0.8775 -1.1188 -2.0060
  922MOL0     H24446   7.837   8.560   6.218  2.5131 -0.0152  2.1554
  922MOL0     H24447   7.780   8.616   6.371  0.3789 -1.8100 -0.2730
  922MOL0     H24448   7.832   8.812   6.235 -1.8643  2.4877  4.1214
  922MOL0     H24449   7.734   8.747   6.100 -0.4021  1.2231  0.6299
  922MOL0     H24450   7.820   7.835   5.851  0.9026 -0.9598  1.8321
  922MOL0     H24451   8.064   7.825   5.780  1.1125 -0.1300 -0.3901
  922MOL0     H24452   8.572   7.869   6.007 -0.0315 -2.9460 -0.8763
  922MOL0     H24453   8.808   7.890   5.930  1.3505  0.6937 -0.8455
  922MOL0     H24454  10.344   8.975   6.007 -2.6501 -0.8871  1.0257
  922MOL0     H24455  10.532   9.093   6.131  0.3622  1.7495 -1.5675
  922MOL0     H24456  10.812   9.437   6.145 -2.7084  0.3106 -0.5449
  922MOL0     H24457  10.982   9.570   6.261 -0.1316  1.8252 -1.7361
  922MOL0     H24458  11.006   9.791   6.275 -2.2856  1.7701  1.9514
  922MOL0     H24459  11.133   9.696   6.352  0.7766  0.0238 -0.0592
  922MOL0     H24460  11.033   9.979   6.435 -1.1662 -0.5906  0.2851
  922MOL0     H24461  11.184   9.928   6.354 -0.3466 -1.0006 -0.8188
  922MOL0     H24462  11.246   9.784   6.553 -0.6692 -1.0057 -2.7920
  922MOL0     H24463  11.091   9.829   6.630  1.2110 -3.6580  0.1705
  922MOL0     H24464  11.188  10.050   6.691  2.5495  1.1696  1.6223
  922MOL0     H24465  11.314   9.928   6.714 -0.9575  1.7143  1.1831
  922MOL0     H24466  11.432  10.231   6.428  0.4009  0.1692 -0.0721
  922MOL0     H24467  10.687   9.699   6.528  1.6342  1.6082  0.7374
  922MOL0     H24468  10.467   9.492   6.510 -2.9424 -0.6228 -0.4731
  922MOL0     H24469  10.457   9.672   6.488  0.1582 -1.5639  1.5346
  922MOL0     H24470  10.400   9.555   6.364  0.7574 -1.9084 -0.4693
  923MOL0     O24471   2.568   1.397   1.263 -0.5689  0.4072 -0.5997
  923MOL0     C24472   2.637   1.492   1.223  0.3171 -1.1138  0.5478
  923MOL0     O24473   2.587   1.617   1.187 -0.2108  0.2638  0.4756
  923MOL0     C24474   2.454   1.635   1.215  0.2072 -0.2294  0.5539
  923MOL0     C24475   2.406   1.671   1.340  0.6475  0.2540  1.1589
  923MOL0     C24476   2.268   1.680   1.364 -0.1932 -0.2467  0.1293
  923MOL0     C24477   2.180   1.647   1.263 -0.2235 -0.1003 -0.2711
  923MOL0     O24478   2.047   1.647   1.302 -0.2388 -0.4361 -0.1127
  923MOL0     C24479   1.942   1.646   1.210  0.3472 -0.2454 -0.4521
  923MOL0     C24480   1.806   1.640   1.281  0.0311  0.0780 -0.9794
  923MOL0     C24481   1.742   1.501   1.291 -0.2263  0.5605 -0.2264
  923MOL0     C24482   1.797   1.410   1.398  0.6770  0.4152 -0.1426
  923MOL0     C24483   1.762   1.267   1.363  0.1606  0.1617 -0.0815
  923MOL0     C24484   1.718   1.168   1.477 -0.2841 -0.1743  0.5008
  923MOL0     C24485   1.853   1.158   1.566  0.2421  0.2511 -0.4977
  923MOL0     C24486   1.833   1.046   1.668  0.8366  0.5662  0.7526
  923MOL0     N24487   1.917   1.053   1.785 -0.1595  0.5360 -0.4093
  923MOL0     C24488   2.031   1.141   1.803  0.4671  1.4219 -0.8377
  923MOL0     C24489   2.061   1.139   1.935  0.1404 -0.1268  0.0015
  923MOL0     C24490   2.168   1.225   2.012 -0.0539 -0.5229  0.5573
  923MOL0     C24491   2.189   1.195   2.164  0.4033  1.0885 -0.6936
  923MOL0     C24492   2.299   1.261   2.238 -0.7900 -1.2155 -0.4377
  923MOL0     C24493   2.318   1.225   2.392  0.4048 -0.0569 -0.0732
  923MOL0     O24494   2.205   1.239   2.461  0.4238  0.6362  0.2575
  923MOL0     C24495   2.217   1.204   2.594 -0.4012  0.3827  0.5331
  923MOL0     C24496   2.101   1.231   2.667  0.5318  0.5872 -0.2656
  923MOL0     C24497   2.101   1.194   2.806 -0.5911  0.5082  0.1684
  923MOL0     C24498   2.211   1.131   2.870 -0.5839 -0.7096 -0.0505
  923MOL0     C24499   2.193   1.071   3.001  0.2949  0.1993  0.0411
  923MOL0     O24500   2.086   1.116   3.071  0.8038 -0.6775  0.1053
  923MOL0     C24501   2.060   1.101   3.202 -0.1519 -0.7894 -1.0065
  923MOL0     C24502   2.146   1.043   3.299  0.0945  0.9242  0.3773
  923MOL0     C24503   2.113   1.033   3.439  1.0025  0.5417  0.0169
  923MOL0     C24504   1.985   1.077   3.474  0.4102 -0.7181  0.0948
  923MOL0     O24505   1.944   1.070   3.611  0.3735 -0.6271  0.2215
  923MOL0     C24506   2.003   0.993   3.718 -0.1844  0.4992  0.1510
  923MOL0     C24507   1.999   0.834   3.702 -0.1841 -0.8160 -0.2348
  923MOL0     C24508   2.055   0.756   3.824 -0.5088 -0.1714  0.7806
  923MOL0     C24509   1.988   0.800   3.953 -1.0738 -1.0840 -1.1626
  923MOL0     C24510   1.852   0.745   3.964  1.1017 -0.2995  0.3126
  923MOL0     C24511   1.791   0.762   4.104 -0.2725  0.6560 -0.2056
  923MOL0     C24512   1.866   0.695   4.218 -0.0406  0.3977 -0.2723
  923MOL0     C24513   1.763   0.667   4.323 -0.6446 -0.0944 -0.5931
  923MOL0    Cl24514   1.842   0.621   4.482 -0.4476  0.3668 -0.0194
  923MOL0     C24515   1.904   1.148   3.386  0.2318  0.3366  0.2687
  923MOL0     C24516   1.941   1.156   3.248 -0.1410 -0.5513 -1.0659
  923MOL0     O24517   2.283   1.007   3.050  0.5150 -0.6348  1.1313
  923MOL0     C24518   2.329   1.128   2.798 -1.5252  0.1542  0.7144
  923MOL0     C24519   2.336   1.163   2.664  0.1429  0.2833 -0.1175
  923MOL0     N24520   1.977   1.050   1.996 -0.0954 -0.1276  0.9564
  923MOL0     N24521   1.888   1.001   1.910 -0.1657 -0.9192 -0.5397
  923MOL0     C24522   2.226   1.608   1.132  0.0072  0.6277 -0.2729
  923MOL0     C24523   2.362   1.606   1.106  0.0731 -0.2187  0.7721
  923MOL0     C24524   2.789   1.483   1.228 -0.6340 -0.3233  0.2798
  923MOL0     C24525   2.861   1.607   1.232 -0.2720 -0.3321 -0.8056
  923MOL0     C24526   3.002   1.601   1.225 -0.1619  0.6058 -0.2910
  923MOL0     C24527   3.070   1.488   1.222 -0.0530  0.0327  0.7092
  923MOL0     O24528   3.202   1.493   1.215 -0.3351  0.3412 -0.3811
  923MOL0     C24529   3.284   1.418   1.302 -1.0543 -0.8705  0.5302
  923MOL0     C24530   3.366   1.328   1.211 -0.4432  0.8064 -0.0064
  923MOL0     C24531   3.492   1.266   1.259 -0.1665  0.3306  0.6008
  923MOL0     C24532   3.545   1.150   1.172 -0.0715 -0.4055  0.0951
  923MOL0     C24533   3.612   1.205   1.054  0.2917  0.1924 -0.2879
  923MOL0     C24534   3.682   1.233   0.966 -0.7421 -0.0961  0.9594
  923MOL0     C24535   2.995   1.365   1.221 -0.4520  0.5640 -0.5720
  923MOL0     C24536   2.857   1.362   1.217 -0.3058  0.4463  0.4388
  923MOL0     C24537   2.790   1.225   1.185 -0.1603 -0.9885 -0.5316
  923MOL0     H24538   2.467   1.662   1.429  2.7160 -0.5416 -0.2616
  923MOL0     H24539   2.229   1.714   1.459 -0.8427  3.8208 -1.3965
  923MOL0     H24540   1.942   1.739   1.152  2.2613 -0.6237 -1.1159
  923MOL0     H24541   1.950   1.573   1.129 -0.5833 -0.2814 -0.5245
  923MOL0     H24542   1.740   1.705   1.223 -0.0118  1.5456  0.6315
  923MOL0     H24543   1.811   1.684   1.381 -3.7373 -1.4855  0.0521
  923MOL0     H24544   1.759   1.449   1.197 -0.7582 -2.1203  1.0421
  923MOL0     H24545   1.637   1.526   1.309 -0.5194  0.5616 -1.8129
  923MOL0     H24546   1.905   1.427   1.401  1.3113 -2.2777 -2.7483
  923MOL0     H24547   1.741   1.440   1.487 -0.7755  2.4174 -1.6332
  923MOL0     H24548   1.676   1.265   1.295  2.5826 -3.7401 -3.5355
  923MOL0     H24549   1.849   1.232   1.306  0.3843 -2.4125  1.6637
  923MOL0     H24550   1.639   1.215   1.537 -0.1942  2.1297 -1.0635
  923MOL0     H24551   1.687   1.071   1.437  3.4326 -1.8626  1.2787
  923MOL0     H24552   1.880   1.254   1.611 -0.2820 -0.0401  0.4574
  923MOL0     H24553   1.944   1.126   1.513  0.3306 -1.7840  0.7735
  923MOL0     H24554   1.727   1.047   1.696  0.7877  2.0176  0.5873
  923MOL0     H24555   1.859   0.949   1.624 -0.8051  0.2406  0.4100
  923MOL0     H24556   2.071   1.198   1.720  2.8417 -1.9218 -2.2317
  923MOL0     H24557   2.261   1.221   1.955 -0.3188 -2.5008  0.2101
  923MOL0     H24558   2.120   1.323   2.004  3.4527  1.3052 -0.0542
  923MOL0     H24559   2.095   1.227   2.208  0.6226  3.7351 -1.9467
  923MOL0     H24560   2.191   1.087   2.179 -0.3427  1.2843  0.9582
  923MOL0     H24561   2.264   1.364   2.243 -1.7530 -1.5833  3.6305
  923MOL0     H24562   2.397   1.258   2.189  1.1041 -1.5677  3.0093
  923MOL0     H24563   2.395   1.282   2.445 -0.0568 -1.3264  2.0901
  923MOL0     H24564   2.342   1.118   2.394 -1.2279 -0.4685 -1.2911
  923MOL0     H24565   2.025   1.285   2.613  0.1760  1.1317  0.7614
  923MOL0     H24566   2.016   1.212   2.871 -0.4482 -0.3219  0.6074
  923MOL0     H24567   2.231   0.978   3.279 -1.4080 -0.3333 -2.6222
  923MOL0     H24568   2.182   0.978   3.503 -0.0400  2.1562  2.6768
  923MOL0     H24569   2.111   1.006   3.736  0.0199 -0.4059 -0.3643
  923MOL0     H24570   1.954   1.040   3.804 -0.6551  0.8328 -0.2949
  923MOL0     H24571   1.894   0.808   3.689 -0.6864  1.4629 -1.2552
  923MOL0     H24572   2.052   0.804   3.611  1.2174  3.1540 -0.9291
  923MOL0     H24573   2.047   0.647   3.813 -3.2224 -0.3414  3.2030
  923MOL0     H24574   2.162   0.778   3.824 -1.2653  4.3829 -0.4092
  923MOL0     H24575   1.992   0.909   3.966 -2.0447 -0.3675 -5.3322
  923MOL0     H24576   2.053   0.751   4.026  0.0374 -0.4460 -1.6965
  923MOL0     H24577   1.863   0.638   3.944 -1.5921 -0.4253 -0.9384
  923MOL0     H24578   1.784   0.794   3.893  0.1117 -2.0829 -0.0444
  923MOL0     H24579   1.793   0.869   4.124  4.6636  0.3430  2.4815
  923MOL0     H24580   1.686   0.734   4.094 -0.2171 -0.0544  1.0480
  923MOL0     H24581   1.919   0.781   4.261 -0.6113  1.0694 -0.8846
  923MOL0     H24582   1.929   0.608   4.197 -0.6491  0.0214 -0.5825
  923MOL0     H24583   1.713   0.763   4.342  1.9150  1.4728 -1.3779
  923MOL0     H24584   1.691   0.592   4.290 -0.4612 -0.7052  0.3546
  923MOL0     H24585   1.800   1.172   3.404  0.4725  1.8902 -0.2582
  923MOL0     H24586   1.864   1.200   3.186 -1.3272  4.0838  3.0900
  923MOL0     H24587   2.415   1.087   2.850 -1.0698  0.8395  0.5225
  923MOL0     H24588   2.428   1.131   2.616 -1.1337 -0.1137 -2.4442
  923MOL0     H24589   2.151   1.588   1.055  0.8717  1.6033 -1.4052
  923MOL0     H24590   2.391   1.590   1.003 -2.5259 -0.2689 -0.0248
  923MOL0     H24591   2.801   1.696   1.242 -4.5940 -3.1408  1.9223
  923MOL0     H24592   3.055   1.695   1.235 -1.0317  0.8837  3.4030
  923MOL0     H24593   3.220   1.358   1.368 -2.5085  0.3769  0.3133
  923MOL0     H24594   3.345   1.481   1.367  0.3710 -2.2457  0.5925
  923MOL0     H24595   3.399   1.397   1.133 -0.8167  0.7665 -0.2019
  923MOL0     H24596   3.308   1.253   1.157  1.8316 -1.1516  0.0567
  923MOL0     H24597   3.459   1.235   1.359 -0.1590  0.8969  0.7827
  923MOL0     H24598   3.572   1.340   1.268  1.4492 -1.4616  2.0444
  923MOL0     H24599   3.624   1.098   1.227 -0.4202 -0.1820  0.8202
  923MOL0     H24600   3.465   1.082   1.145 -0.0023 -1.9519  3.3053
  923MOL0     H24601   3.738   1.254   0.877 -3.2163 -0.3632 -0.7471
  923MOL0     H24602   3.056   1.276   1.211 -0.9322  0.0548  0.7394
  923MOL0     H24603   2.872   1.153   1.184  3.4206  2.7476 -0.4209
  923MOL0     H24604   2.718   1.208   1.267  0.9093  1.9422  1.1792
  923MOL0     H24605   2.736   1.227   1.090 -1.7569 -2.6684  0.2548
  924MOL0     O24606   5.436   9.798   1.845  0.4994  0.0182  0.1602
  924MOL0     C24607   5.510   9.802   1.755  0.0873  0.9335  0.5650
  924MOL0     O24608   5.641   9.844   1.754 -0.3033  0.0041  0.5977
  924MOL0     C24609   5.705   9.883   1.870  0.7750 -0.1201 -0.3037
  924MOL0     C24610   5.702   9.808   1.993  0.5327 -0.1166  0.4378
  924MOL0     C24611   5.749   9.857   2.118  0.1429 -1.0938  0.5347
  924MOL0     C24612   5.806   9.985   2.123 -0.1476 -1.1905 -0.3735
  924MOL0     O24613   5.834  10.032   2.254 -0.3306 -0.6015  0.0086
  924MOL0     C24614   5.846  10.177   2.275  0.6670  0.2259  0.3967
  924MOL0     C24615   5.855  10.227   2.418  0.4522  0.5824  0.2687
  924MOL0     C24616   5.780  10.130   2.510 -0.1134 -0.4080  0.1129
  924MOL0     C24617   5.761  10.189   2.653  0.3373 -0.5984  1.5162
  924MOL0     C24618   5.864  10.171   2.755 -0.4695 -0.1730  0.6078
  924MOL0     C24619   5.831  10.214   2.892  0.3513 -0.2377 -0.0651
  924MOL0     C24620   5.954  10.183   2.975 -0.4335  0.2496  0.3855
  924MOL0     C24621   5.929  10.250   3.116 -0.0001 -0.7798  0.0244
  924MOL0     N24622   5.804  10.206   3.178  0.2378  0.1339 -0.1688
  924MOL0     C24623   5.769  10.082   3.231 -0.0826 -0.2851  0.1642
  924MOL0     C24624   5.637  10.082   3.255  0.6755  0.0183  0.4011
  924MOL0     C24625   5.562   9.975   3.319  0.3875  0.7104 -0.6574
  924MOL0     C24626   5.515  10.021   3.456 -0.4561 -0.3200  0.2768
  924MOL0     C24627   5.626  10.057   3.553  0.1356  0.0896 -0.3069
  924MOL0     C24628   5.562  10.102   3.690  0.4660 -0.1456  0.1347
  924MOL0     O24629   5.527  10.246   3.694  1.0364  0.7532  0.1997
  924MOL0     C24630   5.629  10.332   3.703 -0.5996  0.1457 -0.4149
  924MOL0     C24631   5.669  10.401   3.591 -0.7913 -0.0745 -0.2545
  924MOL0     C24632   5.788  10.477   3.596  0.1214  0.6131 -0.4179
  924MOL0     C24633   5.857  10.496   3.714  0.7936 -0.2375  0.8243
  924MOL0     C24634   5.974  10.589   3.725  0.6900 -0.6168  0.5940
  924MOL0     O24635   6.024  10.641   3.613  0.3281 -0.7987  0.2901
  924MOL0     C24636   6.123  10.742   3.622 -0.1519 -0.9760  0.2668
  924MOL0     C24637   6.156  10.826   3.732  0.6699 -0.2200 -0.3326
  924MOL0     C24638   6.267  10.904   3.732  0.8144  0.0165  0.1939
  924MOL0     C24639   6.326  10.929   3.605 -0.1083  1.1549  0.1597
  924MOL0     O24640   6.420  11.023   3.583 -0.3994 -0.6305 -0.3238
  924MOL0     C24641   6.373  11.156   3.617 -0.3385 -0.5114 -0.7791
  924MOL0     C24642   6.295  11.244   3.516  0.0207  0.1991  0.2270
  924MOL0     C24643   6.147  11.224   3.506 -0.4189  0.0323  0.7107
  924MOL0     C24644   6.088  11.361   3.493  1.0933 -0.1264 -0.1593
  924MOL0     C24645   6.085  11.456   3.624 -0.3713 -0.2601  0.0745
  924MOL0     C24646   6.043  11.593   3.569  0.2185 -0.0596 -0.0916
  924MOL0     C24647   6.007  11.697   3.684  0.2696 -0.6363  0.4495
  924MOL0     C24648   5.998  11.840   3.636  0.3649  0.5310  0.5473
  924MOL0    Cl24649   5.871  11.933   3.727  0.6172  0.0064  0.1994
  924MOL0     C24650   6.286  10.850   3.498 -0.6755 -0.6592 -0.1899
  924MOL0     C24651   6.204  10.749   3.512 -0.1117  0.4532  1.0481
  924MOL0     O24652   6.032  10.591   3.836  0.7342 -0.3443  0.1054
  924MOL0     C24653   5.827  10.418   3.823  0.3215  0.0370  0.2024
  924MOL0     C24654   5.709  10.348   3.817  0.9793  0.9345 -0.0045
  924MOL0     N24655   5.585  10.199   3.215 -0.4589 -0.1598 -0.4666
  924MOL0     N24656   5.682  10.281   3.174 -0.2693 -0.1876 -0.7943
  924MOL0     C24657   5.820  10.057   2.003 -0.1761 -0.8238  0.2048
  924MOL0     C24658   5.779  10.004   1.878  0.4557  0.5815 -1.0613
  924MOL0     C24659   5.448   9.755   1.627 -0.3060  0.0089  0.7937
  924MOL0     C24660   5.309   9.737   1.626  0.1006 -0.2614  0.4808
  924MOL0     C24661   5.243   9.686   1.512 -0.0536 -0.8508 -0.0240
  924MOL0     C24662   5.312   9.674   1.390  0.8976  0.5515 -1.5951
  924MOL0     O24663   5.252   9.622   1.278  0.2477 -0.1106 -0.2778
  924MOL0     C24664   5.134   9.553   1.290 -0.7763  0.3950 -0.0668
  924MOL0     C24665   5.076   9.514   1.155  0.7708  0.5242  0.5854
  924MOL0     C24666   4.948   9.415   1.154 -1.0093 -0.7132  0.2289
  924MOL0     C24667   4.919   9.376   1.008 -0.6685 -0.6488 -1.0422
  924MOL0     C24668   4.868   9.242   0.995  0.2555 -0.7339  0.3994
  924MOL0     C24669   4.830   9.126   0.979 -0.0597  0.3327 -1.1524
  924MOL0     C24670   5.443   9.706   1.390  0.3440 -0.0230  0.0082
  924MOL0     C24671   5.511   9.749   1.495 -0.2444 -0.0854 -0.1019
  924MOL0     C24672   5.661   9.777   1.484  0.1133 -0.9740  1.2579
  924MOL0     H24673   5.648   9.717   1.970  0.3392  0.1659 -0.2356
  924MOL0     H24674   5.750   9.806   2.214  1.2570  0.1404  1.1988
  924MOL0     H24675   5.931  10.213   2.216  0.7324 -2.2607 -1.2093
  924MOL0     H24676   5.761  10.223   2.224  0.3434 -0.9445 -0.1732
  924MOL0     H24677   5.827  10.333   2.421  1.1130  0.8271 -1.3621
  924MOL0     H24678   5.957  10.203   2.450  2.7071  0.1845 -5.8500
  924MOL0     H24679   5.828  10.036   2.537 -0.6248  0.0953  3.2239
  924MOL0     H24680   5.677  10.118   2.474 -0.0962 -0.0393 -0.0645
  924MOL0     H24681   5.748  10.296   2.634  2.2984 -0.1123  2.7146
  924MOL0     H24682   5.670  10.159   2.706 -0.6965 -1.8161 -0.8027
  924MOL0     H24683   5.896  10.066   2.751  1.2702  0.3538  0.1043
  924MOL0     H24684   5.957  10.203   2.709  0.2390  0.0717  2.1597
  924MOL0     H24685   5.796  10.317   2.888  0.6664 -0.1210  0.1446
  924MOL0     H24686   5.750  10.152   2.932  1.8078 -2.6641 -0.6277
  924MOL0     H24687   6.037  10.238   2.928 -0.3729  1.3458  1.7190
  924MOL0     H24688   5.966  10.075   2.982  0.0215  0.3525  1.3398
  924MOL0     H24689   6.008  10.235   3.190 -0.1872  1.5852  0.7869
  924MOL0     H24690   5.927  10.359   3.107 -1.0090 -0.8839 -1.3053
  924MOL0     H24691   5.835  10.000   3.257 -1.7387 -2.3573 -1.7434
  924MOL0     H24692   5.482   9.939   3.253 -2.6417  2.4781  1.8084
  924MOL0     H24693   5.634   9.893   3.322  2.1959  2.0451 -3.2840
  924MOL0     H24694   5.460  10.111   3.428  1.4076  0.0145 -2.6706
  924MOL0     H24695   5.446   9.944   3.492  0.3362 -2.4784 -2.4846
  924MOL0     H24696   5.701  10.131   3.523  0.9607 -0.9869 -0.9615
  924MOL0     H24697   5.680   9.964   3.574  0.0308  0.7655  3.6222
  924MOL0     H24698   5.624  10.088   3.779  2.0450  2.6989 -0.4168
  924MOL0     H24699   5.470  10.044   3.705  0.6903 -0.4845  0.1952
  924MOL0     H24700   5.604  10.399   3.504 -2.5566  2.1254  0.8949
  924MOL0     H24701   5.814  10.521   3.500 -1.0755 -1.6315 -1.8580
  924MOL0     H24702   6.091  10.830   3.819 -1.1091  1.1252 -1.6392
  924MOL0     H24703   6.284  10.970   3.816  0.6034  1.3958 -0.8012
  924MOL0     H24704   6.317  11.165   3.711  3.7283  0.7941  1.7974
  924MOL0     H24705   6.467  11.205   3.646  1.4824 -4.1301 -0.0012
  924MOL0     H24706   6.320  11.350   3.524 -0.7955  0.4508 -0.3579
  924MOL0     H24707   6.322  11.209   3.416 -1.9839  0.3137 -0.4150
  924MOL0     H24708   6.117  11.169   3.416 -1.1601 -2.9769  2.6311
  924MOL0     H24709   6.104  11.169   3.590 -0.9475 -3.5046 -1.6150
  924MOL0     H24710   5.988  11.353   3.450  0.8544 -0.6176  0.4592
  924MOL0     H24711   6.146  11.420   3.422  0.0384  0.3919 -0.6135
  924MOL0     H24712   6.183  11.450   3.672  0.3629 -1.1203 -1.4444
  924MOL0     H24713   6.003  11.409   3.680  1.5244 -4.9580 -0.6134
  924MOL0     H24714   6.122  11.638   3.509  0.8172  0.4393  1.0370
  924MOL0     H24715   5.956  11.584   3.503 -0.9397 -0.7086  1.4550
  924MOL0     H24716   6.084  11.688   3.760 -0.2812 -1.4915  0.9225
  924MOL0     H24717   5.908  11.663   3.715 -1.2157  2.5505 -0.3421
  924MOL0     H24718   6.092  11.879   3.677  0.0449 -2.8750  5.3786
  924MOL0     H24719   5.992  11.843   3.527  0.0360  1.4555  0.5859
  924MOL0     H24720   6.333  10.872   3.402  1.3755  1.8195  1.2377
  924MOL0     H24721   6.200  10.675   3.433  1.5803  3.6582 -2.2885
  924MOL0     H24722   5.895  10.403   3.906  0.2243  1.2333  0.5152
  924MOL0     H24723   5.691  10.269   3.889 -0.4595 -0.0049 -1.3298
  924MOL0     H24724   5.856  10.158   1.987 -1.2038 -0.7482 -2.0950
  924MOL0     H24725   5.795  10.069   1.793  2.4307 -0.0036 -1.1982
  924MOL0     H24726   5.249   9.736   1.716 -1.7912  2.5369 -0.6008
  924MOL0     H24727   5.137   9.665   1.520 -0.3944  0.6722 -0.1656
  924MOL0     H24728   5.056   9.595   1.353 -0.3950  0.5555  0.3015
  924MOL0     H24729   5.170   9.455   1.324 -0.1705  0.2485 -1.0653
  924MOL0     H24730   5.157   9.470   1.096 -0.1801 -0.9400  0.3207
  924MOL0     H24731   5.047   9.606   1.104  1.7355  1.5908  1.9059
  924MOL0     H24732   4.867   9.471   1.202  0.0353  0.7316  0.3795
  924MOL0     H24733   4.973   9.328   1.216 -0.3576  1.2705  2.9856
  924MOL0     H24734   4.845   9.447   0.969  1.5941 -0.2540 -5.2417
  924MOL0     H24735   5.012   9.393   0.952  1.1366 -0.1108  1.8977
  924MOL0     H24736   4.786   9.028   0.969 -0.4869  0.6619 -2.6709
  924MOL0     H24737   5.497   9.683   1.299 -0.5380 -0.6876 -0.3623
  924MOL0     H24738   5.691   9.740   1.386  0.2238 -0.8393  1.2418
  924MOL0     H24739   5.680   9.885   1.488 -1.0401 -0.7799  1.8731
  924MOL0     H24740   5.730   9.727   1.553  2.2536 -1.2711 -0.9539
  925MOL0     O24741  10.714   9.443   3.675  0.3878 -0.0087  0.0662
  925MOL0     C24742  10.610   9.405   3.620 -0.3932 -0.3366  0.3841
  925MOL0     O24743  10.492   9.473   3.622 -1.4370 -0.3191  0.3112
  925MOL0     C24744  10.469   9.575   3.706  0.1938 -0.5181 -1.0817
  925MOL0     C24745  10.408   9.691   3.664 -0.6041  1.0159  0.9426
  925MOL0     C24746  10.368   9.783   3.759  0.2500 -0.9706  0.2062
  925MOL0     C24747  10.396   9.775   3.898 -1.1313  0.5268  0.6546
  925MOL0     O24748  10.361   9.865   3.995  0.3328 -0.4520 -0.0786
  925MOL0     C24749  10.463   9.918   4.087  0.4448  0.7368  0.0456
  925MOL0     C24750  10.463  10.073   4.064 -0.2782 -0.9101  0.5788
  925MOL0     C24751  10.539  10.154   4.167  0.4195 -0.3494  0.4188
  925MOL0     C24752  10.697  10.163   4.163  0.9999 -0.6030  0.3470
  925MOL0     C24753  10.749  10.235   4.286  0.9813 -0.0155  0.5600
  925MOL0     C24754  10.722  10.389   4.276  0.1833 -1.2666  0.7431
  925MOL0     C24755  10.742  10.458   4.411  1.0574  0.0825  0.6748
  925MOL0     C24756  10.634  10.569   4.413 -0.3454 -0.0013 -0.4194
  925MOL0     N24757  10.658  10.668   4.517  0.0172  0.0709 -0.0369
  925MOL0     C24758  10.776  10.736   4.553  0.9384 -0.0467 -0.6998
  925MOL0     C24759  10.731  10.819   4.655 -0.3771 -0.3054  0.5496
  925MOL0     C24760  10.813  10.930   4.699  0.7446  0.6177 -0.1674
  925MOL0     C24761  10.792  10.956   4.849  0.4067 -0.3033 -0.2473
  925MOL0     C24762  10.908  11.037   4.915 -0.0542 -0.4572 -0.7378
  925MOL0     C24763  10.882  11.073   5.066 -0.4860 -0.4959 -0.2353
  925MOL0     O24764  11.004  11.109   5.127 -0.1227 -0.4161 -0.4481
  925MOL0     C24765  11.006  11.251   5.127  0.5845  0.0012  1.2517
  925MOL0     C24766  10.935  11.327   5.221  0.5130  0.1601 -1.0260
  925MOL0     C24767  10.927  11.463   5.208 -0.4803  0.6371  0.2858
  925MOL0     C24768  11.004  11.534   5.114 -0.6160 -0.3961  0.9481
  925MOL0     C24769  11.010  11.682   5.108 -0.4971  0.2638  0.3469
  925MOL0     O24770  11.101  11.737   5.034 -0.1054 -0.1374  1.2159
  925MOL0     C24771  11.122  11.870   5.012 -0.7002 -0.7364  0.4615
  925MOL0     C24772  11.131  11.960   5.112 -0.6349  0.0012 -0.6082
  925MOL0     C24773  11.168  12.085   5.084 -0.8200  0.5402  0.2785
  925MOL0     C24774  11.195  12.126   4.944 -0.3910  0.2678 -0.5519
  925MOL0     O24775  11.245  12.261   4.933  0.3468  0.3367 -0.3998
  925MOL0     C24776  11.141  12.356   4.960  0.0744  0.6467 -0.2876
  925MOL0     C24777  11.213  12.446   5.052  0.0080 -0.2629 -0.0429
  925MOL0     C24778  11.125  12.543   5.125  0.2865  0.3125  0.5232
  925MOL0     C24779  11.116  12.680   5.047 -0.1960 -0.4572 -0.1216
  925MOL0     C24780  11.066  12.793   5.142  0.2874  0.2858  0.8266
  925MOL0     C24781  11.154  12.915   5.141 -0.0474  0.3147  0.0800
  925MOL0     C24782  11.282  12.903   5.223 -0.4249  0.5064 -0.6762
  925MOL0     C24783  11.248  12.866   5.362 -0.4460 -0.0503 -0.5412
  925MOL0    Cl24784  11.383  12.893   5.482 -0.3109 -0.0152 -0.0917
  925MOL0     C24785  11.197  12.034   4.843 -0.1492 -0.1744  0.3222
  925MOL0     C24786  11.156  11.902   4.879 -0.4739  0.2215  0.1646
  925MOL0     O24787  10.950  11.738   5.195  0.4996  0.1469 -0.3593
  925MOL0     C24788  11.081  11.457   5.027  0.5442  0.0162  0.8577
  925MOL0     C24789  11.075  11.322   5.031  0.5660  0.8640  0.5531
  925MOL0     N24790  10.593  10.813   4.666  0.3966  0.8161  0.3146
  925MOL0     N24791  10.558  10.724   4.582  0.0131 -0.2101  1.1145
  925MOL0     C24792  10.471   9.656   3.931  0.7203 -0.3365 -0.2690
  925MOL0     C24793  10.500   9.556   3.844 -0.4156  0.2569  1.3772
  925MOL0     C24794  10.616   9.290   3.518  1.1066  0.3104 -0.5407
  925MOL0     C24795  10.515   9.287   3.422  0.4299  0.4173 -0.2404
  925MOL0     C24796  10.511   9.185   3.332 -0.6051 -1.4512 -0.3123
  925MOL0     C24797  10.609   9.087   3.330  0.2864 -0.2392 -0.1303
  925MOL0     O24798  10.626   8.983   3.235 -0.1299 -0.2535  0.0575
  925MOL0     C24799  10.564   9.001   3.101  0.0490  0.7528 -0.9222
  925MOL0     C24800  10.649   9.105   3.025  0.4299  1.2253  1.3282
  925MOL0     C24801  10.581   9.156   2.899 -0.4299 -0.9654 -0.1488
  925MOL0     C24802  10.471   9.258   2.919  0.0226  0.2019  0.1500
  925MOL0     C24803  10.506   9.374   2.999  0.4882  0.3175  0.2361
  925MOL0     C24804  10.537   9.464   3.073 -0.4985  1.2425  0.6369
  925MOL0     C24805  10.707   9.085   3.431 -0.7186  0.1977 -0.4342
  925MOL0     C24806  10.709   9.182   3.533 -1.1892  0.0215 -0.1241
  925MOL0     C24807  10.813   9.162   3.635 -0.4924 -0.3987 -0.8657
  925MOL0     H24808  10.386   9.713   3.560  1.0448  0.7199  0.5085
  925MOL0     H24809  10.313   9.873   3.734  2.4761  0.5279  0.3818
  925MOL0     H24810  10.444   9.892   4.192  1.2999  1.7663  0.4738
  925MOL0     H24811  10.560   9.872   4.068  0.0374 -0.0091 -0.2999
  925MOL0     H24812  10.362  10.116   4.063 -0.4239 -1.0119  3.2534
  925MOL0     H24813  10.508  10.102   3.969  1.3235 -1.6789  1.0654
  925MOL0     H24814  10.511  10.129   4.270 -2.1859 -1.0225 -0.3758
  925MOL0     H24815  10.493  10.253   4.163 -0.3400 -0.6954  0.3947
  925MOL0     H24816  10.742  10.066   4.142  0.4768 -0.7776  0.0052
  925MOL0     H24817  10.718  10.225   4.075 -2.3858  1.2500  0.6362
  925MOL0     H24818  10.700  10.192   4.374  0.6239 -1.7760 -0.4661
  925MOL0     H24819  10.856  10.212   4.295  0.8162 -0.5049  1.3377
  925MOL0     H24820  10.791  10.440   4.209  2.0082 -1.2704  2.5210
  925MOL0     H24821  10.625  10.416   4.232  1.0345 -2.5378 -2.1526
  925MOL0     H24822  10.843  10.500   4.407  0.7053  1.1052  1.7935
  925MOL0     H24823  10.741  10.391   4.497 -0.7059  0.3944  0.9327
  925MOL0     H24824  10.626  10.615   4.314 -1.5358 -0.1610 -0.4100
  925MOL0     H24825  10.533  10.530   4.428 -0.2971  0.7700  2.6302
  925MOL0     H24826  10.878  10.741   4.518  1.2250  1.1634  0.2641
  925MOL0     H24827  10.919  10.918   4.676  0.1030 -0.3755 -2.9096
  925MOL0     H24828  10.780  11.017   4.641 -1.4067 -0.5885 -0.8667
  925MOL0     H24829  10.696  11.006   4.868  0.7063 -0.9793  4.0386
  925MOL0     H24830  10.792  10.862   4.904  1.4512 -0.7301 -0.9506
  925MOL0     H24831  10.932  11.127   4.858  3.1955 -0.7147  0.0419
  925MOL0     H24832  10.999  10.976   4.917 -0.0097 -0.5497  3.3325
  925MOL0     H24833  10.848  10.978   5.106 -1.8172 -0.4467 -1.1734
  925MOL0     H24834  10.801  11.146   5.077 -0.9203 -0.3877 -3.2915
  925MOL0     H24835  10.895  11.271   5.305  0.8657 -1.4692 -1.8997
  925MOL0     H24836  10.864  11.514   5.280 -1.7393  0.4553 -0.6614
  925MOL0     H24837  11.118  11.947   5.219  0.2352 -0.6865 -0.5702
  925MOL0     H24838  11.173  12.167   5.155  1.9855  1.4309 -0.8216
  925MOL0     H24839  11.121  12.399   4.862  1.0013 -0.5862 -1.0461
  925MOL0     H24840  11.047  12.314   4.996  1.4447 -2.1437  0.2879
  925MOL0     H24841  11.265  12.382   5.124 -0.8853 -1.7320 -0.6591
  925MOL0     H24842  11.293  12.494   4.995 -0.4398  1.6557  0.8407
  925MOL0     H24843  11.023  12.505   5.138 -0.4482  2.6229  2.0973
  925MOL0     H24844  11.160  12.551   5.229  3.3209  1.0164 -0.4306
  925MOL0     H24845  11.049  12.666   4.962 -1.7953  0.9354  0.8531
  925MOL0     H24846  11.207  12.707   4.991  0.1115  1.3245  1.1471
  925MOL0     H24847  11.056  12.758   5.245  0.4560  0.9482  1.0695
  925MOL0     H24848  10.969  12.824   5.102  0.5739 -0.2174 -0.3091
  925MOL0     H24849  11.162  12.938   5.035  0.0140  2.3696  0.4875
  925MOL0     H24850  11.109  13.006   5.183 -0.1623  0.4055 -0.2420
  925MOL0     H24851  11.337  12.997   5.221  1.7886 -0.7378 -1.3575
  925MOL0     H24852  11.349  12.834   5.172 -1.5003  0.8691 -2.6886
  925MOL0     H24853  11.178  12.941   5.402  0.0463  1.5300 -2.4625
  925MOL0     H24854  11.210  12.764   5.368 -0.2508 -0.2398 -2.1461
  925MOL0     H24855  11.213  12.054   4.738  1.4783  2.9616  1.0494
  925MOL0     H24856  11.149  11.825   4.802  1.1973  1.8780 -1.7644
  925MOL0     H24857  11.137  11.498   4.944 -0.0380 -1.3457 -0.2416
  925MOL0     H24858  11.142  11.276   4.959 -0.5165  1.3471 -0.8114
  925MOL0     H24859  10.508   9.645   4.032  0.0451  0.8360  0.1271
  925MOL0     H24860  10.533   9.458   3.877 -3.6308 -1.5077 -0.1318
  925MOL0     H24861  10.461   9.378   3.397 -2.3087 -1.3934 -1.3356
  925MOL0     H24862  10.440   9.179   3.250  0.7007  0.1093 -1.6234
  925MOL0     H24863  10.463   9.038   3.123  0.7848  1.6021  1.3444
  925MOL0     H24864  10.543   8.912   3.040  0.0268  0.8814 -1.1061
  925MOL0     H24865  10.744   9.066   2.987  0.0459  1.2734  0.2952
  925MOL0     H24866  10.669   9.194   3.086 -4.3457  2.1542  1.9733
  925MOL0     H24867  10.536   9.074   2.843 -1.9742  0.8557 -1.6787
  925MOL0     H24868  10.653   9.212   2.839 -1.9973 -0.3458 -1.5250
  925MOL0     H24869  10.435   9.292   2.822 -1.9764  0.3704  0.8987
  925MOL0     H24870  10.384   9.206   2.962 -0.0012  1.6525  1.9958
  925MOL0     H24871  10.556   9.527   3.156  0.3569 -0.2673  1.6407
  925MOL0     H24872  10.781   9.006   3.439  1.8247  2.4588 -0.3767
  925MOL0     H24873  10.902   9.226   3.628 -1.4931  1.2146  0.3418
  925MOL0     H24874  10.763   9.179   3.731  0.7092 -4.0957  0.5574
  925MOL0     H24875  10.845   9.058   3.648  1.2192  0.3092  1.3456
  926MOL0     O24876  11.236   4.422   5.628  0.2764  0.7076  0.5299
  926MOL0     C24877  11.352   4.419   5.587 -0.1352 -0.2472 -0.5676
  926MOL0     O24878  11.384   4.485   5.470 -0.0901  0.9135 -0.5464
  926MOL0     C24879  11.307   4.505   5.358 -0.2934 -0.8875  0.0063
  926MOL0     C24880  11.344   4.427   5.247 -0.9096  0.6435  0.2192
  926MOL0     C24881  11.256   4.428   5.135 -0.7117 -0.0142 -0.0716
  926MOL0     C24882  11.149   4.517   5.125 -0.5450  0.2834  0.8468
  926MOL0     O24883  11.063   4.509   5.020 -0.0491  0.5744 -0.7344
  926MOL0     C24884  10.984   4.623   4.977 -0.0265 -0.0621  0.6846
  926MOL0     C24885  10.872   4.570   4.886 -0.9504  0.0341 -0.6698
  926MOL0     C24886  10.784   4.686   4.838  0.1346  0.5768 -0.2940
  926MOL0     C24887  10.687   4.631   4.725 -0.8834 -1.0481 -0.1440
  926MOL0     C24888  10.608   4.752   4.667 -0.0254  0.3442  0.4479
  926MOL0     C24889  10.506   4.683   4.575  0.7636 -0.4963  0.7777
  926MOL0     C24890  10.399   4.776   4.528 -0.7972  0.2383 -0.1103
  926MOL0     C24891  10.257   4.758   4.602  0.2415 -0.1700  1.0483
  926MOL0     N24892  10.270   4.804   4.736  0.1153 -0.7196  0.9365
  926MOL0     C24893  10.258   4.734   4.847  0.2811 -0.4666 -0.6049
  926MOL0     C24894  10.281   4.815   4.953 -0.0846 -0.3468 -0.8865
  926MOL0     C24895  10.306   4.763   5.097  0.0776  0.0197 -0.2561
  926MOL0     C24896  10.182   4.681   5.153 -0.1895  0.8574 -0.1263
  926MOL0     C24897  10.051   4.760   5.180 -0.0343 -0.1063 -0.2714
  926MOL0     C24898   9.918   4.685   5.204  0.5319  0.7148 -0.5022
  926MOL0     O24899   9.834   4.767   5.287  0.2007 -0.2932  0.2154
  926MOL0     C24900   9.777   4.888   5.243  0.3065 -0.9693  0.0672
  926MOL0     C24901   9.777   4.928   5.112  0.8732 -0.4793  0.1876
  926MOL0     C24902   9.719   5.055   5.089  0.0835  0.7482  0.1348
  926MOL0     C24903   9.673   5.147   5.186  1.1148  0.2823  0.1231
  926MOL0     C24904   9.617   5.284   5.136  0.1998  0.1022 -0.8815
  926MOL0     O24905   9.602   5.299   4.995 -0.1289 -0.3453 -0.4761
  926MOL0     C24906   9.503   5.391   4.967  0.3325 -0.6169 -0.0004
  926MOL0     C24907   9.375   5.339   4.964 -0.0178 -0.4138 -0.1452
  926MOL0     C24908   9.265   5.429   4.954  0.1906  0.1186  0.1219
  926MOL0     C24909   9.278   5.560   4.905  0.4078 -0.2082 -1.0458
  926MOL0     O24910   9.160   5.631   4.884  0.4450  0.6266  0.4155
  926MOL0     C24911   9.157   5.765   4.918 -0.6113 -0.1741 -0.8878
  926MOL0     C24912   9.016   5.816   4.954  0.8693  0.2582  0.4859
  926MOL0     C24913   8.900   5.747   4.878  0.6022  0.1466 -0.2374
  926MOL0     C24914   8.784   5.851   4.861 -1.0835 -0.0300 -0.0695
  926MOL0     C24915   8.643   5.798   4.824  0.3777  0.1129 -0.9195
  926MOL0     C24916   8.620   5.739   4.683 -0.0280  0.3124 -0.1699
  926MOL0     C24917   8.616   5.836   4.573  0.6246  0.0904  0.2247
  926MOL0     C24918   8.602   5.772   4.439 -0.2965 -0.0050  0.3128
  926MOL0    Cl24919   8.757   5.699   4.380 -0.0123 -0.6875 -0.2786
  926MOL0     C24920   9.414   5.618   4.901  0.3718 -0.0068 -0.5553
  926MOL0     C24921   9.520   5.533   4.937 -0.2535  0.3536 -0.0073
  926MOL0     O24922   9.577   5.359   5.231 -0.2362 -1.1928 -0.3047
  926MOL0     C24923   9.681   5.106   5.321  0.6293  0.2780 -0.1563
  926MOL0     C24924   9.741   4.981   5.346  1.0909  1.0665 -0.2683
  926MOL0     N24925  10.301   4.941   4.906  0.3986 -0.6597 -0.1317
  926MOL0     N24926  10.308   4.932   4.777  0.8824  1.3520 -0.3830
  926MOL0     C24927  11.132   4.618   5.229  0.5568  0.1854  0.1470
  926MOL0     C24928  11.207   4.600   5.348 -0.3591  0.6754  0.2346
  926MOL0     C24929  11.464   4.355   5.672 -0.2548 -0.1140  0.2723
  926MOL0     C24930  11.596   4.369   5.620  0.7348  0.3763 -0.4860
  926MOL0     C24931  11.708   4.316   5.681  0.4971  0.1323 -0.2356
  926MOL0     C24932  11.691   4.241   5.797  0.1330 -0.4005  0.2528
  926MOL0     O24933  11.806   4.192   5.843 -1.2325  0.1699 -0.6174
  926MOL0     C24934  11.843   4.222   5.978  0.5793 -0.2907 -0.0504
  926MOL0     C24935  11.866   4.376   6.009  1.1734  0.3882 -1.0113
  926MOL0     C24936  11.979   4.433   5.929  0.3172 -0.1025  0.7927
  926MOL0     C24937  12.116   4.411   5.988  0.0694 -0.2655  0.0907
  926MOL0     C24938  12.133   4.432   6.135  0.2709 -0.1964  0.2619
  926MOL0     C24939  12.135   4.438   6.255 -0.4609 -1.1467  0.3508
  926MOL0     C24940  11.559   4.224   5.850 -0.5168  1.4663  1.0751
  926MOL0     C24941  11.455   4.278   5.789  0.4696 -0.5446 -0.2730
  926MOL0     C24942  11.319   4.252   5.840 -0.8198 -0.9945 -0.0014
  926MOL0     H24943  11.413   4.344   5.235 -3.2280 -1.0434 -4.2863
  926MOL0     H24944  11.271   4.354   5.058  1.8535  0.0066  0.3272
  926MOL0     H24945  10.944   4.677   5.064 -3.5439 -1.8241  0.3262
  926MOL0     H24946  11.044   4.697   4.924  1.3494 -2.3638 -1.2198
  926MOL0     H24947  10.808   4.498   4.939  2.5054 -1.6141  1.6075
  926MOL0     H24948  10.908   4.512   4.800 -4.7198 -3.2461 -0.3468
  926MOL0     H24949  10.843   4.775   4.813  0.8574  1.0773  2.7635
  926MOL0     H24950  10.728   4.725   4.924 -3.7237  1.3438 -2.8868
  926MOL0     H24951  10.731   4.584   4.636 -0.3640  2.3511 -1.8327
  926MOL0     H24952  10.629   4.556   4.779 -1.2883  0.2172  1.2275
  926MOL0     H24953  10.555   4.809   4.744  0.2016  0.1974  0.7107
  926MOL0     H24954  10.664   4.824   4.606  1.5548 -1.9963 -1.0515
  926MOL0     H24955  10.554   4.633   4.490 -2.2109  0.2325 -1.4879
  926MOL0     H24956  10.452   4.605   4.631 -0.7303 -0.7119 -0.9121
  926MOL0     H24957  10.388   4.770   4.419 -4.4394  1.8929  0.0211
  926MOL0     H24958  10.439   4.877   4.543 -1.3944  0.9440 -2.6793
  926MOL0     H24959  10.172   4.814   4.562  0.3171  1.0380  2.4780
  926MOL0     H24960  10.225   4.653   4.603 -2.8744  0.6579  0.2277
  926MOL0     H24961  10.244   4.626   4.850 -0.6747 -0.3514 -0.6005
  926MOL0     H24962  10.404   4.714   5.100 -0.6787 -1.7024 -1.6558
  926MOL0     H24963  10.300   4.846   5.168  0.4904 -0.2794  0.1350
  926MOL0     H24964  10.165   4.600   5.082  6.6462 -2.3965  1.1238
  926MOL0     H24965  10.199   4.616   5.240 -1.8860  2.2878  1.3784
  926MOL0     H24966  10.030   4.834   5.102 -1.3093 -0.3586 -0.1884
  926MOL0     H24967  10.077   4.825   5.265 -0.2644 -1.1763  0.6304
  926MOL0     H24968   9.936   4.587   5.251  1.6012  1.2031  0.1255
  926MOL0     H24969   9.860   4.659   5.115 -0.1504 -1.2061  0.4138
  926MOL0     H24970   9.807   4.871   5.024  0.0824  2.8788 -2.4800
  926MOL0     H24971   9.719   5.090   4.986 -0.6820 -0.4848 -0.3146
  926MOL0     H24972   9.353   5.238   4.997 -3.6160  1.0001  2.2773
  926MOL0     H24973   9.163   5.406   4.984 -0.0321  1.7109  0.6815
  926MOL0     H24974   9.222   5.791   5.002 -0.2601 -0.2605 -1.1300
  926MOL0     H24975   9.209   5.822   4.841  1.9636 -0.7931  0.2729
  926MOL0     H24976   9.001   5.804   5.062  0.2635  2.0891  0.6338
  926MOL0     H24977   9.011   5.924   4.935  0.1020  0.5414  2.0789
  926MOL0     H24978   8.936   5.713   4.781 -0.3593  1.3055 -1.0205
  926MOL0     H24979   8.856   5.671   4.943  0.1301  1.6199  1.2493
  926MOL0     H24980   8.795   5.930   4.786  0.2881 -1.1334 -1.0801
  926MOL0     H24981   8.784   5.909   4.954  1.5613  2.6773 -1.5940
  926MOL0     H24982   8.583   5.889   4.830  0.5518  0.1784 -0.0654
  926MOL0     H24983   8.609   5.713   4.885  0.5368  0.7091  0.0215
  926MOL0     H24984   8.702   5.673   4.654 -1.6658 -1.0323 -2.0785
  926MOL0     H24985   8.526   5.682   4.683 -0.2766  0.7093  0.3181
  926MOL0     H24986   8.708   5.897   4.570  1.2085 -0.6796  1.5246
  926MOL0     H24987   8.529   5.898   4.594  0.5839 -0.7641  3.0562
  926MOL0     H24988   8.530   5.690   4.429  2.6087 -2.8398  0.9326
  926MOL0     H24989   8.578   5.861   4.381  2.2074  1.0503  0.7423
  926MOL0     H24990   9.439   5.716   4.862  0.1036 -0.3299 -1.5679
  926MOL0     H24991   9.621   5.574   4.939  1.0234 -2.5602  1.7978
  926MOL0     H24992   9.651   5.166   5.406 -1.2347  0.1321 -0.6537
  926MOL0     H24993   9.754   4.948   5.449  0.4086 -2.1787 -1.1112
  926MOL0     H24994  11.049   4.687   5.229 -0.3464 -0.8678 -0.0704
  926MOL0     H24995  11.182   4.665   5.431  3.7940  3.1330 -0.1707
  926MOL0     H24996  11.605   4.432   5.532 -4.6756  0.2783 -1.4866
  926MOL0     H24997  11.812   4.326   5.651  1.5925 -3.0526  1.9325
  926MOL0     H24998  11.933   4.161   5.986  0.0852 -0.8837  1.0284
  926MOL0     H24999  11.768   4.187   6.049 -0.5403  2.1093  0.0420
  926MOL0     H25000  11.876   4.395   6.116  5.3449  0.8655 -1.3165
  926MOL0     H25001  11.773   4.423   5.973  1.2367 -0.0336 -1.7479
  926MOL0     H25002  11.961   4.541   5.918 -0.7109 -0.3070  0.3476
  926MOL0     H25003  11.976   4.401   5.825 -0.4686  0.6046  0.5825
  926MOL0     H25004  12.154   4.309   5.980  1.5783  0.1821  1.0076
  926MOL0     H25005  12.190   4.474   5.937 -0.5313  0.2549 -0.1514
  926MOL0     H25006  12.133   4.447   6.362  3.9377 -2.2299  0.7266
  926MOL0     H25007  11.551   4.145   5.924  0.4816 -1.6456 -1.8521
  926MOL0     H25008  11.328   4.179   5.922  3.4374 -0.3185  0.3623
  926MOL0     H25009  11.274   4.342   5.884 -1.4118 -1.6684  0.7980
  926MOL0     H25010  11.267   4.215   5.752  0.7587 -0.7435 -1.0822
  927MOL0     O25011   2.090   0.046   1.663 -0.4450 -0.3695 -0.5584
  927MOL0     C25012   1.983   0.087   1.701  0.4686  0.8080  0.5416
  927MOL0     O25013   1.865   0.052   1.636  0.2590  0.9463 -0.4961
  927MOL0     C25014   1.873  -0.043   1.530 -0.4042  0.4389  0.0645
  927MOL0     C25015   1.873  -0.184   1.560  0.5678 -0.5427 -0.5991
  927MOL0     C25016   1.844  -0.273   1.459  0.1127 -1.0626 -0.3507
  927MOL0     C25017   1.838  -0.226   1.324  1.1203  1.3255 -0.2216
  927MOL0     O25018   1.830  -0.326   1.233  0.1133 -0.2664  0.3632
  927MOL0     C25019   1.855  -0.287   1.095  0.0667 -0.2848 -0.0564
  927MOL0     C25020   1.884  -0.416   1.020  0.4657 -0.7073 -0.7037
  927MOL0     C25021   1.929  -0.386   0.884  0.6580 -0.5745 -0.0864
  927MOL0     C25022   1.927  -0.525   0.812  0.4268  0.4258  0.3729
  927MOL0     C25023   1.974  -0.508   0.673  0.0328  0.1214  0.4936
  927MOL0     C25024   1.861  -0.432   0.588  0.7748 -0.4892 -0.2222
  927MOL0     C25025   1.767  -0.528   0.515  0.7437 -0.1401  0.4669
  927MOL0     C25026   1.667  -0.451   0.420 -0.6857  0.0122  0.8387
  927MOL0     N25027   1.606  -0.546   0.325  0.1823 -0.0942 -0.3946
  927MOL0     C25028   1.579  -0.515   0.195  0.3220  0.4851 -0.1718
  927MOL0     C25029   1.498  -0.624   0.145 -0.2716 -0.3801  0.2989
  927MOL0     C25030   1.419  -0.629   0.017  0.5621 -0.1700  0.9401
  927MOL0     C25031   1.381  -0.781  -0.026 -0.4576 -0.8337  0.8332
  927MOL0     C25032   1.228  -0.802   0.020 -0.1546  1.4724  0.1123
  927MOL0     C25033   1.195  -0.949   0.045 -0.2535  0.4091 -0.5934
  927MOL0     O25034   1.063  -0.980   0.024 -0.4868  0.0301 -0.1449
  927MOL0     C25035   1.020  -1.001  -0.103  0.3035 -1.1049 -1.0785
  927MOL0     C25036   1.096  -0.993  -0.222  0.4577 -0.2245  0.5663
  927MOL0     C25037   1.034  -1.017  -0.344  0.9991 -0.5300 -0.5998
  927MOL0     C25038   0.888  -1.027  -0.356  0.4869 -0.0482  0.1645
  927MOL0     C25039   0.836  -1.037  -0.494  0.7543 -0.1512 -0.2339
  927MOL0     O25040   0.929  -1.041  -0.598  0.6339  0.2631 -0.5366
  927MOL0     C25041   0.877  -1.041  -0.728  0.2394  0.5939 -0.1108
  927MOL0     C25042   0.935  -1.141  -0.811 -0.1474  0.1818  0.1665
  927MOL0     C25043   0.899  -1.143  -0.950  1.0688  0.2865  0.5509
  927MOL0     C25044   0.815  -1.043  -1.001  0.0456 -0.7245  0.0555
  927MOL0     O25045   0.784  -1.063  -1.134  0.1560  0.3495 -0.2119
  927MOL0     C25046   0.726  -0.963  -1.215  0.2928  0.0454  0.9102
  927MOL0     C25047   0.715  -0.993  -1.374 -0.5997  0.5141  0.4390
  927MOL0     C25048   0.594  -0.938  -1.442 -0.3814 -0.3970  0.5039
  927MOL0     C25049   0.535  -1.046  -1.541 -0.3080 -0.7186 -0.1525
  927MOL0     C25050   0.421  -0.977  -1.624 -0.3885 -0.1462 -0.1233
  927MOL0     C25051   0.383  -1.050  -1.758  1.1494 -0.3856 -0.4984
  927MOL0     C25052   0.265  -0.984  -1.832  0.3453 -0.0850 -0.7671
  927MOL0     C25053   0.192  -1.081  -1.927  0.1232 -1.2898 -1.0646
  927MOL0    Cl25054   0.051  -1.119  -1.832 -0.3111  0.0081 -0.0709
  927MOL0     C25055   0.741  -0.954  -0.917 -0.3537 -0.4068  0.2638
  927MOL0     C25056   0.782  -0.956  -0.780 -0.2470  1.4976  0.6017
  927MOL0     O25057   0.718  -1.058  -0.499 -0.6630 -0.0431 -0.4932
  927MOL0     C25058   0.812  -1.020  -0.231 -0.5724  0.6095  0.1963
  927MOL0     C25059   0.882  -1.013  -0.104 -0.1912  0.6323  0.3302
  927MOL0     N25060   1.485  -0.709   0.255  0.2326 -0.0622 -0.6307
  927MOL0     N25061   1.546  -0.668   0.360 -0.2274  0.1191 -0.2103
  927MOL0     C25062   1.844  -0.090   1.292 -0.5584 -0.0734 -0.2694
  927MOL0     C25063   1.862  -0.003   1.393  1.2024 -0.2773  0.6411
  927MOL0     C25064   1.974   0.198   1.805  0.2149 -0.5402  0.0635
  927MOL0     C25065   2.090   0.220   1.885  0.0041  0.1831 -0.3761
  927MOL0     C25066   2.094   0.310   1.987  0.5351  0.1608  0.0071
  927MOL0     C25067   1.985   0.392   2.016 -1.1945  0.1768  0.8196
  927MOL0     O25068   1.999   0.472   2.136 -0.4826  0.4538  0.9001
  927MOL0     C25069   1.894   0.559   2.176 -0.6352 -0.3251  1.5686
  927MOL0     C25070   1.942   0.648   2.297 -0.9769 -0.6760  1.1154
  927MOL0     C25071   2.057   0.749   2.264  0.2667  0.1749  0.9830
  927MOL0     C25072   2.107   0.828   2.390 -0.5185 -0.2131 -0.5398
  927MOL0     C25073   2.006   0.915   2.445  0.7621  0.4536  0.3667
  927MOL0     C25074   1.908   0.975   2.497 -0.0077  0.4496 -0.3430
  927MOL0     C25075   1.868   0.387   1.939  0.6137  0.1364 -0.5920
  927MOL0     C25076   1.868   0.286   1.828 -0.5898 -1.0010 -0.2907
  927MOL0     C25077   1.752   0.292   1.736  1.5013 -0.2204  0.0281
  927MOL0     H25078   1.864  -0.204   1.666 -0.5638 -1.2183 -0.8063
  927MOL0     H25079   1.818  -0.377   1.472 -0.7519 -0.6879  1.1721
  927MOL0     H25080   1.769  -0.238   1.051  0.7099 -1.2037 -2.4938
  927MOL0     H25081   1.934  -0.211   1.097  0.2910 -0.4923 -0.7389
  927MOL0     H25082   1.787  -0.468   1.020  0.6912 -1.1333 -0.9600
  927MOL0     H25083   1.963  -0.470   1.072  0.8239 -3.1464 -3.5191
  927MOL0     H25084   2.030  -0.344   0.881  0.2107  0.5045 -1.9042
  927MOL0     H25085   1.861  -0.315   0.837  0.8640 -1.2611 -1.4893
  927MOL0     H25086   2.001  -0.588   0.861 -0.7789 -1.1158  0.2983
  927MOL0     H25087   1.828  -0.570   0.828 -0.6869  2.6091  0.0401
  927MOL0     H25088   2.074  -0.468   0.687 -0.0869 -0.3986  3.4276
  927MOL0     H25089   1.991  -0.609   0.634  1.6142  0.6951 -0.3789
  927MOL0     H25090   1.784  -0.380   0.646 -0.9841 -3.9490  0.8051
  927MOL0     H25091   1.904  -0.356   0.521 -0.7266  3.1398  2.5856
  927MOL0     H25092   1.713  -0.580   0.595  1.7614 -0.4130  0.9952
  927MOL0     H25093   1.823  -0.598   0.453  0.3347  0.9489 -1.1873
  927MOL0     H25094   1.592  -0.404   0.484  0.2405  1.1603  1.1281
  927MOL0     H25095   1.717  -0.373   0.362  0.3565 -0.2743  1.3177
  927MOL0     H25096   1.616  -0.428   0.141  1.7192 -0.0561 -0.1462
  927MOL0     H25097   1.328  -0.567   0.018 -0.1829 -1.2317  1.1515
  927MOL0     H25098   1.480  -0.583  -0.061 -0.8728 -0.1733 -0.2400
  927MOL0     H25099   1.368  -0.772  -0.134 -1.5175  0.4896  1.0480
  927MOL0     H25100   1.447  -0.861   0.009 -0.0278 -1.3047 -0.9345
  927MOL0     H25101   1.163  -0.753  -0.054  0.4263  3.1566  0.6711
  927MOL0     H25102   1.212  -0.759   0.120  1.3351  0.1051  0.9866
  927MOL0     H25103   1.206  -0.974   0.151 -2.8544  0.9540 -0.1398
  927MOL0     H25104   1.271  -1.011  -0.005  0.7539  1.8164 -0.8734
  927MOL0     H25105   1.204  -0.979  -0.220  0.2619  2.6128 -1.6598
  927MOL0     H25106   1.096  -1.026  -0.433  0.8352 -2.2098 -0.5827
  927MOL0     H25107   1.009  -1.204  -0.763  1.9956  3.9661  2.2801
  927MOL0     H25108   0.940  -1.227  -1.006 -0.7599 -0.7067  0.6363
  927MOL0     H25109   0.625  -0.944  -1.177  0.1458 -1.6397  1.4755
  927MOL0     H25110   0.786  -0.873  -1.199  1.8502 -0.6960 -0.4543
  927MOL0     H25111   0.808  -0.957  -1.420 -1.2795  1.6649 -0.0715
  927MOL0     H25112   0.723  -1.100  -1.395 -0.7188  0.5277  0.3220
  927MOL0     H25113   0.525  -0.889  -1.373  2.1472  1.7747  1.6619
  927MOL0     H25114   0.627  -0.853  -1.503 -2.5036 -0.4590 -0.8683
  927MOL0     H25115   0.489  -1.130  -1.489 -1.3693 -2.1175 -3.1308
  927MOL0     H25116   0.618  -1.090  -1.596  0.7609  1.6191 -0.5366
  927MOL0     H25117   0.449  -0.872  -1.637 -0.6075  0.3467  2.8048
  927MOL0     H25118   0.341  -0.977  -1.550 -0.7558  2.5719 -0.4086
  927MOL0     H25119   0.471  -1.047  -1.823  0.7110  3.2982 -1.1047
  927MOL0     H25120   0.361  -1.155  -1.733  1.0842 -0.1581  0.4402
  927MOL0     H25121   0.309  -0.903  -1.891  0.0742 -0.4311 -1.4547
  927MOL0     H25122   0.197  -0.932  -1.763  1.4381  0.1487  0.1736
  927MOL0     H25123   0.160  -1.036  -2.021  2.7207 -1.6727 -2.2120
  927MOL0     H25124   0.255  -1.170  -1.928  0.6894 -1.2097  3.9251
  927MOL0     H25125   0.649  -0.908  -0.951 -0.5248  0.1976  1.5246
  927MOL0     H25126   0.737  -0.900  -0.699 -0.1259  0.3457  1.4905
  927MOL0     H25127   0.708  -1.050  -0.217 -0.4047  1.2027  3.6138
  927MOL0     H25128   0.837  -1.023  -0.006  1.2304 -0.5079  0.9174
  927MOL0     H25129   1.822  -0.046   1.195 -0.2821  0.5279 -0.0708
  927MOL0     H25130   1.873   0.104   1.374  3.6395 -0.1776  2.1571
  927MOL0     H25131   2.177   0.156   1.867  1.1665  2.2278 -2.5152
  927MOL0     H25132   2.180   0.325   2.051 -0.7866  2.0733  1.4267
  927MOL0     H25133   1.799   0.515   2.206 -0.8009  1.0778  3.2759
  927MOL0     H25134   1.877   0.634   2.099  1.6136 -0.3255  0.9866
  927MOL0     H25135   1.983   0.575   2.367 -3.6524 -1.2729  2.1443
  927MOL0     H25136   1.854   0.699   2.336 -1.0618  1.0606 -1.1329
  927MOL0     H25137   2.031   0.829   2.193  1.0911  1.0868  1.6784
  927MOL0     H25138   2.140   0.693   2.220 -0.6417  0.9485 -1.9639
  927MOL0     H25139   2.124   0.761   2.475 -2.1674 -0.9942 -0.8016
  927MOL0     H25140   2.205   0.873   2.369 -0.4480  0.5407  1.2465
  927MOL0     H25141   1.832   1.031   2.547  1.3492  0.1482  2.2279
  927MOL0     H25142   1.787   0.459   1.947  0.3772  0.2877 -3.4684
  927MOL0     H25143   1.695   0.199   1.743  2.2704 -0.7270 -0.3321
  927MOL0     H25144   1.694   0.382   1.760  1.8569  0.4649 -1.5197
  927MOL0     H25145   1.782   0.305   1.632  1.0020  2.2160  0.1296
  928MOL0     O25146   7.856   2.244   4.586 -0.0369 -0.4793 -0.3499
  928MOL0     C25147   7.901   2.358   4.608  0.4014 -0.6431  0.2845
  928MOL0     O25148   8.038   2.390   4.599  0.8184  0.0911 -1.1975
  928MOL0     C25149   8.124   2.287   4.613  1.0369 -0.0284  0.0532
  928MOL0     C25150   8.216   2.272   4.507 -0.0443  1.2516  0.0998
  928MOL0     C25151   8.329   2.190   4.525 -0.0944  0.5299 -0.6998
  928MOL0     C25152   8.359   2.133   4.654 -0.8624 -0.2025  0.9364
  928MOL0     O25153   8.469   2.056   4.655  0.0157  0.2567  0.6572
  928MOL0     C25154   8.529   2.034   4.779 -0.0146 -0.6590 -0.0516
  928MOL0     C25155   8.676   1.991   4.741  0.3222 -0.4305 -0.1442
  928MOL0     C25156   8.766   2.114   4.716  0.5906 -0.2143 -0.1498
  928MOL0     C25157   8.905   2.070   4.697  1.2880 -1.4014  0.7431
  928MOL0     C25158   8.991   2.181   4.638 -1.6326 -0.2416 -0.3720
  928MOL0     C25159   9.035   2.271   4.754 -1.0137  0.0309  0.0254
  928MOL0     C25160   9.109   2.395   4.719 -0.8077  0.3522  0.6740
  928MOL0     C25161   9.156   2.467   4.846 -0.1547  0.6921  0.0121
  928MOL0     N25162   9.265   2.563   4.816 -0.7134 -0.2970 -0.8181
  928MOL0     C25163   9.398   2.529   4.848  0.4407  0.3854  0.2352
  928MOL0     C25164   9.462   2.647   4.816  0.2468  0.5163 -0.0243
  928MOL0     C25165   9.608   2.668   4.826  0.9905 -0.0041 -0.2199
  928MOL0     C25166   9.639   2.685   4.976 -0.5243 -0.0099  0.2544
  928MOL0     C25167   9.598   2.831   5.027 -0.9256  0.0597  0.2410
  928MOL0     C25168   9.681   2.862   5.150 -0.3998 -0.6826  0.2855
  928MOL0     O25169   9.816   2.880   5.126 -0.4302 -0.4716 -0.1187
  928MOL0     C25170   9.859   2.986   5.050  0.4323 -0.3059  1.1030
  928MOL0     C25171   9.803   3.116   5.044  0.1506  0.2968  0.2566
  928MOL0     C25172   9.844   3.203   4.943 -0.7962 -1.0606 -0.2842
  928MOL0     C25173   9.960   3.174   4.866 -0.2470 -0.5831 -0.4093
  928MOL0     C25174  10.013   3.281   4.776  0.1154 -0.2366 -0.6141
  928MOL0     O25175  10.135   3.253   4.713 -0.5182 -0.8468  1.0502
  928MOL0     C25176  10.171   3.325   4.611 -0.2264 -0.2666  0.7912
  928MOL0     C25177  10.088   3.361   4.496 -0.2017 -0.7825  0.5205
  928MOL0     C25178  10.140   3.437   4.393  0.5882  0.5513  0.3714
  928MOL0     C25179  10.272   3.484   4.395  0.2445  0.0163 -0.4489
  928MOL0     O25180  10.322   3.549   4.289  0.4451 -0.6398 -0.0568
  928MOL0     C25181  10.377   3.448   4.211  0.0852 -0.6285  0.5677
  928MOL0     C25182  10.461   3.499   4.090 -0.1294  0.2150  0.0200
  928MOL0     C25183  10.571   3.612   4.119  0.4050  0.6235 -0.2062
  928MOL0     C25184  10.634   3.651   3.983  1.0198  0.4646  0.9241
  928MOL0     C25185  10.538   3.709   3.878 -0.2484 -0.2382 -0.6312
  928MOL0     C25186  10.621   3.774   3.768 -0.5083 -0.7118  0.5158
  928MOL0     C25187  10.515   3.818   3.670 -0.5016 -0.7885 -0.1817
  928MOL0     C25188  10.596   3.896   3.558  0.3567  0.1285  0.6268
  928MOL0    Cl25189  10.474   3.965   3.444  0.5066  0.1566 -0.4836
  928MOL0     C25190  10.359   3.441   4.499  0.4271  1.7075  0.9763
  928MOL0     C25191  10.302   3.351   4.596 -0.2644  0.3100  0.3474
  928MOL0     O25192   9.940   3.377   4.753  0.2941  0.4284  0.4493
  928MOL0     C25193  10.023   3.051   4.889 -0.0439  0.3164  0.0847
  928MOL0     C25194   9.972   2.956   4.973  0.3060 -0.0210 -0.1935
  928MOL0     N25195   9.368   2.743   4.778 -0.9847 -0.3163 -0.4773
  928MOL0     N25196   9.251   2.690   4.779  0.4869 -0.4548 -0.1683
  928MOL0     C25197   8.262   2.140   4.752  0.2928 -0.3161  0.2410
  928MOL0     C25198   8.147   2.213   4.729  0.4256  0.4101  0.3824
  928MOL0     C25199   7.802   2.472   4.624 -0.8314  0.4479  0.7335
  928MOL0     C25200   7.861   2.594   4.650 -0.5927  1.4663  0.7314
  928MOL0     C25201   7.784   2.709   4.651  0.1669 -0.0540  0.7743
  928MOL0     C25202   7.648   2.698   4.646 -0.2579 -0.3290  0.4002
  928MOL0     O25203   7.561   2.802   4.664  0.4372  0.6472 -0.9102
  928MOL0     C25204   7.601   2.930   4.702  0.8366 -0.4064  0.5782
  928MOL0     C25205   7.640   2.941   4.851 -0.9476  0.6972  0.3176
  928MOL0     C25206   7.554   2.867   4.961 -0.0097  0.3569 -0.0653
  928MOL0     C25207   7.409   2.836   4.925  0.1426 -0.0793 -0.2320
  928MOL0     C25208   7.338   2.968   4.917  0.0591  0.2073 -0.2793
  928MOL0     C25209   7.301   3.082   4.905  0.7910 -0.2766  0.0818
  928MOL0     C25210   7.589   2.574   4.638  0.5703 -0.8138  0.3068
  928MOL0     C25211   7.664   2.456   4.617  0.0007  0.0682  0.4355
  928MOL0     C25212   7.593   2.329   4.599  0.0059  0.0987 -0.1371
  928MOL0     H25213   8.200   2.342   4.426  0.3450  0.0391 -1.0453
  928MOL0     H25214   8.417   2.172   4.464 -0.9802 -2.6350 -1.2335
  928MOL0     H25215   8.549   2.123   4.840  1.8763 -0.5432 -0.7838
  928MOL0     H25216   8.481   1.954   4.836 -0.1512 -0.3776  0.2315
  928MOL0     H25217   8.678   1.926   4.654 -2.9904 -0.3068 -0.4338
  928MOL0     H25218   8.724   1.937   4.823  0.3711  1.3258  1.0493
  928MOL0     H25219   8.754   2.186   4.798 -1.4790 -1.8875  1.1049
  928MOL0     H25220   8.731   2.155   4.621 -2.9916  0.3216  1.2540
  928MOL0     H25221   8.948   2.043   4.795 -1.2207 -1.6200  1.8564
  928MOL0     H25222   8.921   1.979   4.639 -0.7674 -1.5302  0.3092
  928MOL0     H25223   9.085   2.134   4.609 -0.3415  0.9105  1.6709
  928MOL0     H25224   8.939   2.234   4.558 -0.2089 -2.4383 -2.9334
  928MOL0     H25225   8.943   2.306   4.802 -2.8767  0.7092 -3.6467
  928MOL0     H25226   9.100   2.217   4.823  0.7035  0.5165 -1.1545
  928MOL0     H25227   9.048   2.456   4.652 -1.3166  0.8827  1.6118
  928MOL0     H25228   9.199   2.372   4.661 -0.4075  4.3903 -0.6230
  928MOL0     H25229   9.069   2.522   4.883 -1.1839 -1.7106  1.4590
  928MOL0     H25230   9.181   2.400   4.930  5.7090  3.0040  0.5567
  928MOL0     H25231   9.433   2.429   4.875 -3.8689 -1.0939  1.2484
  928MOL0     H25232   9.660   2.580   4.787  0.7006  0.4241 -1.6002
  928MOL0     H25233   9.630   2.753   4.761  1.5972 -0.4296 -0.5763
  928MOL0     H25234   9.589   2.605   5.030  0.3629 -0.3936  0.5181
  928MOL0     H25235   9.747   2.675   4.990 -0.8200 -0.6985  2.3394
  928MOL0     H25236   9.494   2.861   5.033 -0.6056  2.6891 -3.8487
  928MOL0     H25237   9.629   2.896   4.945  1.5192 -2.3672 -0.9580
  928MOL0     H25238   9.682   2.778   5.220 -1.8202  0.5304  1.8474
  928MOL0     H25239   9.638   2.948   5.201 -0.5412 -0.6048  0.0338
  928MOL0     H25240   9.722   3.136   5.112  1.5115 -0.7624  2.2800
  928MOL0     H25241   9.792   3.298   4.939 -1.3703 -1.3888 -1.0109
  928MOL0     H25242   9.990   3.313   4.494 -0.4571 -0.4365  2.5829
  928MOL0     H25243  10.089   3.450   4.298  0.6682  1.0155  0.3878
  928MOL0     H25244  10.443   3.383   4.269  1.0829 -0.3973 -0.2739
  928MOL0     H25245  10.294   3.388   4.171 -0.5667  1.6862 -1.8328
  928MOL0     H25246  10.511   3.427   4.025  1.0164  1.7619 -0.8528
  928MOL0     H25247  10.381   3.554   4.040  0.0795  1.0194  0.5379
  928MOL0     H25248  10.529   3.699   4.170 -1.6645 -0.6466  0.4056
  928MOL0     H25249  10.653   3.570   4.178  0.2847 -1.9792 -1.7161
  928MOL0     H25250  10.688   3.566   3.939  2.0782  0.3806  2.3285
  928MOL0     H25251  10.711   3.727   4.001 -0.2147  2.4232 -1.3768
  928MOL0     H25252  10.471   3.781   3.927  2.2840  2.3627 -0.7259
  928MOL0     H25253  10.484   3.623   3.837  5.6735 -5.5733  1.0968
  928MOL0     H25254  10.681   3.860   3.798 -2.5538  0.4821  1.4401
  928MOL0     H25255  10.677   3.702   3.707 -1.2904 -1.0955  0.2277
  928MOL0     H25256  10.440   3.883   3.717 -1.2278 -1.6805 -0.0953
  928MOL0     H25257  10.483   3.728   3.617  1.8277 -1.2797 -0.8776
  928MOL0     H25258  10.647   3.985   3.598 -1.2134  1.4568 -0.1884
  928MOL0     H25259  10.667   3.831   3.506 -1.2088 -1.3511  0.2618
  928MOL0     H25260  10.466   3.460   4.503  1.2235 -0.8218 -3.1741
  928MOL0     H25261  10.367   3.295   4.663 -1.2315 -1.7078 -0.3102
  928MOL0     H25262  10.122   3.027   4.853 -0.0358 -1.0004  0.9244
  928MOL0     H25263  10.014   2.857   4.986  1.2500 -0.2673 -3.9241
  928MOL0     H25264   8.266   2.098   4.852 -4.5598 -4.0705 -0.7481
  928MOL0     H25265   8.063   2.212   4.797 -0.3947 -0.8648 -0.6068
  928MOL0     H25266   7.967   2.609   4.664 -0.9859  2.2686  3.7864
  928MOL0     H25267   7.828   2.804   4.678  0.0444  0.5163 -0.9014
  928MOL0     H25268   7.520   3.000   4.679  0.3052 -0.9991  0.6256
  928MOL0     H25269   7.681   2.963   4.636 -0.1163  0.4829 -0.1730
  928MOL0     H25270   7.646   3.045   4.883 -3.0346  0.7158  0.8391
  928MOL0     H25271   7.738   2.895   4.866 -1.5730 -1.5383 -1.7644
  928MOL0     H25272   7.557   2.916   5.059  0.5264 -1.4509  0.8672
  928MOL0     H25273   7.589   2.764   4.961  0.0342  0.3668  0.5846
  928MOL0     H25274   7.400   2.783   4.830 -2.6118  2.5205 -1.5874
  928MOL0     H25275   7.363   2.787   5.012 -0.3458  2.2914  0.9263
  928MOL0     H25276   7.252   3.178   4.902 -1.5230 -1.3988 -0.6393
  928MOL0     H25277   7.481   2.574   4.630  0.5026 -1.2309  1.1809
  928MOL0     H25278   7.488   2.337   4.626  0.0213  0.1223 -0.0839
  928MOL0     H25279   7.606   2.296   4.495  0.6244  0.3281 -0.1348
  928MOL0     H25280   7.639   2.252   4.662  1.4001 -1.2536 -2.6420
  929MOL0     O25281   5.448   9.349   3.486  0.6000  0.2352  0.1594
  929MOL0     C25282   5.500   9.238   3.473  0.5294  0.2010  0.2868
  929MOL0     O25283   5.437   9.120   3.493 -0.3337  0.3338  0.1422
  929MOL0     C25284   5.304   9.106   3.516  1.5191 -0.4718 -0.7186
  929MOL0     C25285   5.191   9.192   3.493 -0.8359  0.4066  1.6354
  929MOL0     C25286   5.060   9.160   3.524 -0.3189 -0.1739  0.7069
  929MOL0     C25287   5.035   9.029   3.584  0.6318 -0.0652 -1.0781
  929MOL0     O25288   4.908   8.987   3.614  0.3715  0.2356  0.0179
  929MOL0     C25289   4.872   8.988   3.750  0.0688 -0.1567  0.5330
  929MOL0     C25290   4.723   8.932   3.759  0.0074 -0.5538 -0.4131
  929MOL0     C25291   4.711   8.791   3.713 -0.8279 -0.2050 -0.4918
  929MOL0     C25292   4.604   8.743   3.621  0.1234 -0.2398  0.3255
  929MOL0     C25293   4.486   8.718   3.708 -0.1013  0.5284 -0.1031
  929MOL0     C25294   4.482   8.586   3.791  0.3445 -0.0423  0.4687
  929MOL0     C25295   4.338   8.537   3.822  0.2404 -0.4079  1.1055
  929MOL0     C25296   4.354   8.406   3.898  0.3294 -0.5002  0.1282
  929MOL0     N25297   4.224   8.374   3.959  0.0291  0.1420  0.2655
  929MOL0     C25298   4.102   8.351   3.896 -0.7978  0.0495 -0.3063
  929MOL0     C25299   4.012   8.325   4.000  0.0989 -0.9256 -0.6472
  929MOL0     C25300   3.865   8.284   3.998  0.4076 -0.2365  0.0014
  929MOL0     C25301   3.843   8.175   4.107 -0.7465 -1.0864 -0.4539
  929MOL0     C25302   3.896   8.049   4.039 -0.5570  0.9616 -0.1534
  929MOL0     C25303   3.805   7.981   3.937 -0.3537 -0.3616 -1.0152
  929MOL0     O25304   3.675   7.955   3.977  0.0417  0.4657 -0.2311
  929MOL0     C25305   3.659   7.872   4.093 -0.7406 -0.0226 -0.2685
  929MOL0     C25306   3.748   7.775   4.144  0.0798 -0.1621 -0.0951
  929MOL0     C25307   3.698   7.699   4.248  0.2404 -0.4537 -0.7941
  929MOL0     C25308   3.570   7.714   4.312  0.1172  0.6298  0.4209
  929MOL0     C25309   3.533   7.622   4.430 -1.5842 -0.3820 -0.5167
  929MOL0     O25310   3.415   7.571   4.425 -0.4383 -0.2776 -0.3860
  929MOL0     C25311   3.360   7.509   4.540 -0.1017 -0.0337  0.1165
  929MOL0     C25312   3.286   7.590   4.624 -0.5137  0.3229  0.3619
  929MOL0     C25313   3.249   7.534   4.750 -0.0651 -1.6403 -0.0272
  929MOL0     C25314   3.300   7.405   4.795  1.2181  0.7905  0.5787
  929MOL0     O25315   3.275   7.350   4.915 -0.8942 -0.2775  0.4495
  929MOL0     C25316   3.227   7.415   5.024 -0.6937 -0.3079 -0.6601
  929MOL0     C25317   3.215   7.320   5.141  0.1131  0.3981  0.0021
  929MOL0     C25318   3.330   7.343   5.248  1.3255  0.0429  0.1788
  929MOL0     C25319   3.462   7.293   5.202 -1.0526 -0.6128 -0.1098
  929MOL0     C25320   3.572   7.331   5.301  0.5811 -0.0989 -0.9019
  929MOL0     C25321   3.714   7.307   5.247 -0.0186  0.2322  0.5017
  929MOL0     C25322   3.815   7.322   5.355  0.0428 -0.7163 -0.4133
  929MOL0     C25323   3.954   7.316   5.298 -0.2050 -0.3088  0.4269
  929MOL0    Cl25324   4.066   7.357   5.427  0.2925  0.3275  0.2421
  929MOL0     C25325   3.354   7.324   4.691 -0.4765 -0.0961 -1.2974
  929MOL0     C25326   3.389   7.374   4.566 -0.0601 -0.1188  0.4774
  929MOL0     O25327   3.615   7.599   4.517 -0.0573 -0.5762 -0.5393
  929MOL0     C25328   3.493   7.816   4.266  1.3598  0.3711  0.2964
  929MOL0     C25329   3.531   7.896   4.160 -0.5868  0.6859  0.6340
  929MOL0     N25330   4.088   8.335   4.122 -0.2491 -0.7795  1.0482
  929MOL0     N25331   4.206   8.360   4.092 -0.2607  0.4870  0.1631
  929MOL0     C25332   5.143   8.942   3.609  0.0513  0.0115  0.3298
  929MOL0     C25333   5.273   8.983   3.564 -0.4549  0.5457 -0.4878
  929MOL0     C25334   5.646   9.245   3.450 -0.1933  0.4386  0.8770
  929MOL0     C25335   5.710   9.136   3.494  0.3819  0.5129 -0.3455
  929MOL0     C25336   5.849   9.122   3.488 -0.9775  0.0581 -0.6864
  929MOL0     C25337   5.919   9.222   3.408  0.6446  0.5087 -0.5937
  929MOL0     O25338   6.048   9.212   3.386 -0.2794  0.0215  0.2682
  929MOL0     C25339   6.138   9.113   3.421 -0.4826 -0.1023 -0.7041
  929MOL0     C25340   6.282   9.150   3.380  0.1816 -0.1763  0.1755
  929MOL0     C25341   6.300   9.122   3.232 -0.7116 -0.8549 -0.2805
  929MOL0     C25342   6.448   9.090   3.196  0.8881  0.0296  0.0375
  929MOL0     C25343   6.484   8.960   3.252 -0.6990  0.0736  0.1796
  929MOL0     C25344   6.523   8.845   3.290  1.4371 -0.8166 -0.1962
  929MOL0     C25345   5.855   9.328   3.357  0.6726  0.3963 -1.4192
  929MOL0     C25346   5.723   9.352   3.383  0.0076 -0.6095  0.3838
  929MOL0     C25347   5.673   9.482   3.332  0.8874 -0.3509  0.7401
  929MOL0     H25348   5.206   9.271   3.420 -1.9001 -0.8552 -0.0195
  929MOL0     H25349   4.982   9.225   3.486  0.4866 -0.7140 -2.1205
  929MOL0     H25350   4.944   8.920   3.797 -0.3596 -0.7675  0.3179
  929MOL0     H25351   4.888   9.085   3.797 -1.2942  0.9407 -1.1655
  929MOL0     H25352   4.662   9.000   3.698  1.3017  1.0268 -0.0083
  929MOL0     H25353   4.678   8.927   3.858 -3.3824 -0.6792 -1.8063
  929MOL0     H25354   4.716   8.730   3.803  1.8305  2.0629  1.0521
  929MOL0     H25355   4.798   8.780   3.646  0.0046  1.8110  0.1652
  929MOL0     H25356   4.580   8.820   3.547  0.0218 -2.6349 -2.2982
  929MOL0     H25357   4.619   8.653   3.562 -3.2167 -1.3371  0.9856
  929MOL0     H25358   4.477   8.808   3.769  0.0118  0.6076 -0.2042
  929MOL0     H25359   4.398   8.712   3.644 -0.3180 -2.2668  0.3329
  929MOL0     H25360   4.536   8.509   3.736 -1.3823 -3.5918  3.3273
  929MOL0     H25361   4.549   8.602   3.876 -1.8383 -1.9438  2.6728
  929MOL0     H25362   4.277   8.531   3.732  1.5567  0.7379  0.0934
  929MOL0     H25363   4.286   8.622   3.868  0.2883  1.9710 -2.8244
  929MOL0     H25364   4.387   8.326   3.831  1.3824  0.0902 -0.0887
  929MOL0     H25365   4.429   8.418   3.978  0.6404  4.2981 -0.5788
  929MOL0     H25366   4.085   8.355   3.789 -0.9525  2.0632 -0.2383
  929MOL0     H25367   3.817   8.379   4.020  0.9821  0.0821 -0.0951
  929MOL0     H25368   3.841   8.248   3.897  1.1192  2.5681 -1.2680
  929MOL0     H25369   3.896   8.191   4.201  0.5899  0.7813 -1.4598
  929MOL0     H25370   3.740   8.170   4.141  0.3911  0.8092  3.9347
  929MOL0     H25371   3.910   7.971   4.115  1.0437  1.8157  0.4796
  929MOL0     H25372   3.998   8.054   4.000  0.6151 -1.9299  2.1199
  929MOL0     H25373   3.843   7.880   3.920 -0.7092 -1.0654  1.8810
  929MOL0     H25374   3.806   8.052   3.854 -2.1382  1.8646  0.7467
  929MOL0     H25375   3.837   7.753   4.086 -1.4169 -0.5130 -2.3814
  929MOL0     H25376   3.768   7.620   4.273  0.0114 -0.5388 -0.4100
  929MOL0     H25377   3.266   7.692   4.596  0.8666  0.4176 -0.3720
  929MOL0     H25378   3.188   7.600   4.811 -0.1312 -1.6642 -0.0679
  929MOL0     H25379   3.299   7.486   5.064  0.7366 -0.6920 -2.4413
  929MOL0     H25380   3.137   7.475   5.004 -0.2577  0.6816  0.2326
  929MOL0     H25381   3.115   7.347   5.178  1.0683  1.7834  1.6756
  929MOL0     H25382   3.197   7.220   5.099 -3.0464  1.7470 -2.2486
  929MOL0     H25383   3.318   7.448   5.278 -2.8678 -0.0644 -0.4664
  929MOL0     H25384   3.304   7.279   5.333 -0.5333  0.1639 -0.2435
  929MOL0     H25385   3.493   7.321   5.101  1.4904 -0.6805  0.5820
  929MOL0     H25386   3.459   7.185   5.186  0.9069 -0.3683 -2.7791
  929MOL0     H25387   3.554   7.276   5.394  0.7111 -2.5046 -2.2154
  929MOL0     H25388   3.571   7.439   5.318  2.5336 -0.2558  0.5743
  929MOL0     H25389   3.730   7.207   5.206  1.9195  0.5788  0.3019
  929MOL0     H25390   3.735   7.379   5.167  1.9883 -1.9401 -1.0593
  929MOL0     H25391   3.806   7.243   5.430 -0.9547 -0.2820 -0.0596
  929MOL0     H25392   3.800   7.420   5.402  1.7817 -0.5284 -0.1704
  929MOL0     H25393   3.983   7.211   5.284  2.1327  0.3432 -0.1979
  929MOL0     H25394   3.961   7.381   5.210  0.5681 -0.3143  0.4777
  929MOL0     H25395   3.378   7.221   4.716 -0.0080  0.1573 -0.6609
  929MOL0     H25396   3.440   7.303   4.503  1.1305 -1.0601  2.4058
  929MOL0     H25397   3.397   7.836   4.312  2.6699 -0.9887  3.9503
  929MOL0     H25398   3.464   7.979   4.141 -1.6599  0.1574  1.9349
  929MOL0     H25399   5.130   8.839   3.640  1.9336  0.2475  2.1076
  929MOL0     H25400   5.350   8.906   3.570 -0.9926 -0.1082 -1.5919
  929MOL0     H25401   5.656   9.044   3.517  0.8804 -0.1155 -1.6028
  929MOL0     H25402   5.913   9.045   3.529  1.3690  1.8460 -0.7892
  929MOL0     H25403   6.098   9.016   3.388 -0.4137 -0.6244  0.6652
  929MOL0     H25404   6.145   9.112   3.531  1.9475  2.3290 -0.7348
  929MOL0     H25405   6.363   9.096   3.429  0.5500 -1.8056 -2.0288
  929MOL0     H25406   6.306   9.255   3.399  0.8076  0.1784 -2.2066
  929MOL0     H25407   6.282   9.207   3.166  1.8357 -0.8231 -1.0705
  929MOL0     H25408   6.232   9.038   3.212 -4.2918  1.6518  0.4354
  929MOL0     H25409   6.436   9.090   3.087 -1.9041 -2.4879  0.2332
  929MOL0     H25410   6.511   9.175   3.222 -0.1924  0.3515  1.7384
  929MOL0     H25411   6.550   8.745   3.317 -0.8255 -0.8767  2.1567
  929MOL0     H25412   5.914   9.392   3.293  3.5950  2.0311  2.4633
  929MOL0     H25413   5.751   9.559   3.336  1.1391 -0.5531 -0.2179
  929MOL0     H25414   5.651   9.473   3.225  0.5245 -3.9405  1.0174
  929MOL0     H25415   5.582   9.518   3.382  1.0407  1.6015 -0.2636
  930MOL0     O25416   5.073   2.773   9.513  0.2662 -0.4523  0.8484
  930MOL0     C25417   5.157   2.866   9.486 -0.2526  0.1132 -0.0822
  930MOL0     O25418   5.180   2.927   9.365 -0.0774  0.0073  0.2994
  930MOL0     C25419   5.098   2.908   9.260 -0.3469  0.9979 -0.7012
  930MOL0     C25420   5.087   2.781   9.197  0.0179 -0.3594 -0.7202
  930MOL0     C25421   4.994   2.764   9.092 -0.2054 -0.3252 -0.2861
  930MOL0     C25422   4.918   2.867   9.045 -0.0223 -0.2061 -0.1355
  930MOL0     O25423   4.813   2.854   8.958 -1.0196  0.8115 -0.5533
  930MOL0     C25424   4.826   2.900   8.819 -0.3442  0.0630 -0.8784
  930MOL0     C25425   4.721   2.832   8.720  0.8445  0.3049  0.2625
  930MOL0     C25426   4.782   2.805   8.587 -0.8384 -0.4543 -0.9698
  930MOL0     C25427   4.668   2.780   8.495  0.7059 -0.0135  0.3863
  930MOL0     C25428   4.725   2.740   8.360 -0.6954  0.2132  0.3993
  930MOL0     C25429   4.622   2.687   8.261 -0.6542 -0.1552  0.1862
  930MOL0     C25430   4.672   2.624   8.132 -0.3101  0.8153 -0.0687
  930MOL0     C25431   4.561   2.589   8.030  0.2246 -1.2827  0.8556
  930MOL0     N25432   4.610   2.564   7.895  0.1183  0.9582  0.5433
  930MOL0     C25433   4.618   2.656   7.793  0.3414  0.8682  0.0414
  930MOL0     C25434   4.702   2.616   7.706 -0.2216  0.1650  0.4371
  930MOL0     C25435   4.733   2.696   7.583  0.1230  0.7670  0.3933
  930MOL0     C25436   4.634   2.675   7.481 -0.4820 -0.5032 -0.2324
  930MOL0     C25437   4.634   2.543   7.414 -1.2821  0.5354 -0.6167
  930MOL0     C25438   4.501   2.508   7.352  0.1220  0.1845  0.9229
  930MOL0     O25439   4.514   2.379   7.302 -0.0109 -0.4860 -0.4087
  930MOL0     C25440   4.402   2.309   7.275  0.7122  0.5921 -0.2828
  930MOL0     C25441   4.263   2.350   7.283  0.1168 -0.4574  0.0618
  930MOL0     C25442   4.162   2.253   7.257  0.6196 -0.2322 -0.4004
  930MOL0     C25443   4.186   2.121   7.213 -0.1700 -0.2867  0.0064
  930MOL0     C25444   4.072   2.028   7.188 -0.6106  0.3118 -0.3864
  930MOL0     O25445   4.101   1.894   7.160 -0.4046  0.8152 -0.6838
  930MOL0     C25446   3.996   1.802   7.160 -0.4891  0.0541 -0.3302
  930MOL0     C25447   3.913   1.779   7.277  0.5297  0.1426 -0.3169
  930MOL0     C25448   3.807   1.681   7.271  0.4945 -0.3944  0.4807
  930MOL0     C25449   3.786   1.607   7.153 -1.1134 -0.5158  0.8039
  930MOL0     O25450   3.672   1.521   7.148 -0.8782  0.0256  0.1124
  930MOL0     C25451   3.623   1.473   7.026  0.4664  0.3258 -0.0200
  930MOL0     C25452   3.463   1.466   7.030  0.5120 -0.1797 -1.1825
  930MOL0     C25453   3.404   1.417   7.169 -0.0818  0.7114  0.9682
  930MOL0     C25454   3.248   1.440   7.186 -0.5877  0.4029 -0.1904
  930MOL0     C25455   3.193   1.413   7.325 -0.4171 -0.6295  0.2046
  930MOL0     C25456   3.039   1.440   7.317 -0.0854  0.4447 -0.2678
  930MOL0     C25457   2.967   1.359   7.434 -0.0079 -0.1175 -0.5755
  930MOL0     C25458   3.023   1.389   7.571 -0.0234  0.0849  0.0209
  930MOL0    Cl25459   3.016   1.569   7.609 -0.4547  0.0553  0.4685
  930MOL0     C25460   3.876   1.627   7.047 -0.2187  0.2240  0.0267
  930MOL0     C25461   3.971   1.727   7.046 -0.5223 -0.8465 -0.1480
  930MOL0     O25462   3.965   2.066   7.228 -0.6737 -0.4669 -0.2175
  930MOL0     C25463   4.319   2.088   7.202  1.1288 -0.1989 -0.0626
  930MOL0     C25464   4.423   2.175   7.226 -0.4203 -1.6627 -0.3175
  930MOL0     N25465   4.753   2.489   7.741  0.1620  0.2784 -0.2394
  930MOL0     N25466   4.690   2.456   7.854 -0.3839  0.0447 -0.3536
  930MOL0     C25467   4.938   2.999   9.108  0.0234  0.1987  1.3377
  930MOL0     C25468   5.019   3.016   9.218 -0.2532 -0.9974 -0.6501
  930MOL0     C25469   5.195   2.929   9.612 -0.2558  0.6512 -0.2809
  930MOL0     C25470   5.090   2.980   9.690  0.0143 -0.1367 -0.4250
  930MOL0     C25471   5.104   3.050   9.803  0.0750  0.8320 -0.5021
  930MOL0     C25472   5.240   3.050   9.858 -0.3363 -0.2364  0.5527
  930MOL0     O25473   5.250   3.115   9.981 -0.4322 -0.3958  0.1861
  930MOL0     C25474   5.391   3.125  10.034  0.7434 -0.2185  1.0912
  930MOL0     C25475   5.469   3.241   9.961 -0.0924 -0.4203 -1.0706
  930MOL0     C25476   5.623   3.242   9.997  0.7844 -1.5793  0.9242
  930MOL0     C25477   5.678   3.348   9.906  0.1547 -0.1753 -0.4116
  930MOL0     C25478   5.820   3.349   9.910 -0.7437  0.1592  0.0721
  930MOL0     C25479   5.934   3.306   9.913  0.5362  0.2831  0.4559
  930MOL0     C25480   5.349   3.004   9.778  0.4874 -0.0313  0.1069
  930MOL0     C25481   5.323   2.949   9.646 -0.4375  0.1296 -0.4788
  930MOL0     C25482   5.431   2.904   9.549  0.1967  0.6018  0.2413
  930MOL0     H25483   5.150   2.699   9.231  1.3888  0.4512 -1.2402
  930MOL0     H25484   4.969   2.667   9.050  2.0112 -0.2347 -2.0598
  930MOL0     H25485   4.792   3.004   8.819  1.2440  0.6547 -2.9473
  930MOL0     H25486   4.931   2.899   8.787 -1.0699 -1.3432 -3.4816
  930MOL0     H25487   4.629   2.888   8.699 -1.4461 -2.8338  1.1444
  930MOL0     H25488   4.697   2.735   8.764 -1.8115  0.3660 -0.8314
  930MOL0     H25489   4.852   2.722   8.599 -2.8946 -2.1966 -0.3053
  930MOL0     H25490   4.836   2.899   8.575 -1.1590 -0.1027  0.2676
  930MOL0     H25491   4.608   2.696   8.531  1.9918 -2.1039 -2.0193
  930MOL0     H25492   4.602   2.866   8.475  2.3574  0.8218 -1.8448
  930MOL0     H25493   4.776   2.828   8.321 -1.1490  0.8361  1.1806
  930MOL0     H25494   4.792   2.654   8.371 -2.7503 -2.0320 -2.8224
  930MOL0     H25495   4.547   2.621   8.307 -0.4338 -0.3168  0.3169
  930MOL0     H25496   4.558   2.770   8.229 -0.6828 -0.5842 -0.8896
  930MOL0     H25497   4.728   2.532   8.155  0.9615  0.7823 -2.8713
  930MOL0     H25498   4.738   2.700   8.089  0.0061  0.5400 -0.0763
  930MOL0     H25499   4.505   2.502   8.066 -1.3627 -0.7752 -0.2525
  930MOL0     H25500   4.487   2.670   8.033 -0.7451 -2.0389 -0.8275
  930MOL0     H25501   4.550   2.741   7.793  1.4795  1.8354  1.2524
  930MOL0     H25502   4.731   2.801   7.615 -1.8759  0.7595  0.4287
  930MOL0     H25503   4.828   2.671   7.537 -0.5016 -0.2095 -0.3973
  930MOL0     H25504   4.536   2.687   7.527 -0.5052 -3.4056  0.6902
  930MOL0     H25505   4.650   2.752   7.405  3.3754 -0.5540  0.2922
  930MOL0     H25506   4.653   2.467   7.490  0.9665 -0.0829 -1.7363
  930MOL0     H25507   4.720   2.533   7.348 -1.7623 -0.6030 -1.0901
  930MOL0     H25508   4.478   2.576   7.270  0.8680 -0.8210 -0.1639
  930MOL0     H25509   4.423   2.508   7.428 -1.3528  0.6776 -0.5535
  930MOL0     H25510   4.235   2.452   7.304  5.6067  1.5393 -0.7543
  930MOL0     H25511   4.064   2.300   7.263  0.4911 -0.2981 -1.6409
  930MOL0     H25512   3.925   1.824   7.376 -1.2129  3.1373 -1.3471
  930MOL0     H25513   3.736   1.671   7.352 -2.4377 -0.3149 -1.9237
  930MOL0     H25514   3.649   1.539   6.942 -1.4657 -2.6632 -3.2533
  930MOL0     H25515   3.659   1.372   7.003  0.7307  0.3214  0.3981
  930MOL0     H25516   3.435   1.571   7.017  2.4938  1.1613  3.4030
  930MOL0     H25517   3.430   1.397   6.952  1.5446 -1.2973 -0.6494
  930MOL0     H25518   3.419   1.310   7.153  3.2063  1.3479 -1.5807
  930MOL0     H25519   3.452   1.469   7.252 -0.7082  2.7395  0.1260
  930MOL0     H25520   3.186   1.379   7.120 -3.5821  1.4097  1.4772
  930MOL0     H25521   3.222   1.542   7.159 -1.8905  0.5014  1.2894
  930MOL0     H25522   3.248   1.469   7.401 -1.2826  0.9288 -0.2846
  930MOL0     H25523   3.215   1.307   7.342 -0.6545 -1.0478 -1.8025
  930MOL0     H25524   3.022   1.548   7.328 -2.7345  0.2027 -1.3473
  930MOL0     H25525   3.002   1.416   7.217 -0.8571  0.3987  0.0165
  930MOL0     H25526   2.968   1.250   7.432 -4.5772 -0.4140  0.8077
  930MOL0     H25527   2.863   1.394   7.441 -0.4013 -1.0376 -1.5312
  930MOL0     H25528   2.965   1.332   7.644 -2.4041 -0.5111 -2.1927
  930MOL0     H25529   3.127   1.353   7.576  0.6882  2.1807  2.3017
  930MOL0     H25530   3.875   1.560   6.962  1.4849  1.0817 -0.7011
  930MOL0     H25531   4.030   1.748   6.957 -2.6859  0.7560 -1.2936
  930MOL0     H25532   4.351   1.988   7.175 -1.2701 -0.5851 -1.8284
  930MOL0     H25533   4.529   2.152   7.230 -0.1888 -0.4923  1.1898
  930MOL0     H25534   4.874   3.084   9.084  1.7008  1.0647 -0.3256
  930MOL0     H25535   5.030   3.115   9.260 -1.3282 -0.1204 -2.3033
  930MOL0     H25536   4.994   2.965   9.643 -0.7461 -2.1917  1.5845
  930MOL0     H25537   5.028   3.110   9.851 -0.7909  0.6348 -1.5820
  930MOL0     H25538   5.442   3.030  10.014  4.2009  1.6363  0.2572
  930MOL0     H25539   5.381   3.143  10.141  1.6424 -0.8132  1.2862
  930MOL0     H25540   5.420   3.334   9.990 -3.4381 -2.7914  1.6715
  930MOL0     H25541   5.461   3.234   9.852  1.9470  1.5078 -1.4220
  930MOL0     H25542   5.665   3.143   9.978 -0.1571 -1.5362 -1.8934
  930MOL0     H25543   5.641   3.277  10.099 -2.7489  0.8796  0.8765
  930MOL0     H25544   5.642   3.341   9.803  0.7923 -0.2487 -0.6363
  930MOL0     H25545   5.636   3.441   9.945 -0.7768 -1.4534  1.7530
  930MOL0     H25546   6.029   3.259   9.925  1.0890  0.9365 -1.1102
  930MOL0     H25547   5.448   2.981   9.814  0.6965 -0.8271 -0.9343
  930MOL0     H25548   5.423   2.974   9.466  1.8728 -0.3380 -0.7665
  930MOL0     H25549   5.534   2.924   9.578  1.0439 -3.4119  0.4896
  930MOL0     H25550   5.414   2.798   9.531 -0.3189  1.1543 -3.2767
  931MOL0     O25551   5.812   4.667   5.745 -0.0884 -0.0794 -0.1405
  931MOL0     C25552   5.813   4.688   5.864 -0.4171  0.1119 -0.1314
  931MOL0     O25553   5.821   4.819   5.917 -1.0723 -0.0483 -0.1000
  931MOL0     C25554   5.853   4.927   5.843 -0.5022 -0.2572 -0.6127
  931MOL0     C25555   5.792   4.949   5.727 -0.0614 -0.2852  0.5360
  931MOL0     C25556   5.815   5.078   5.663  0.1479 -0.6445 -0.8384
  931MOL0     C25557   5.898   5.175   5.723 -0.1196 -1.5359  0.7010
  931MOL0     O25558   5.923   5.294   5.648  0.4837 -0.1554  0.6639
  931MOL0     C25559   6.042   5.372   5.687 -0.4373 -0.0160  0.8862
  931MOL0     C25560   6.044   5.500   5.604  0.3905 -0.9189  0.3191
  931MOL0     C25561   5.914   5.573   5.599 -0.2728  0.1708  0.1113
  931MOL0     C25562   5.932   5.727   5.590 -0.2887 -0.7952 -0.4071
  931MOL0     C25563   5.793   5.802   5.602 -0.6543  0.3410 -0.2155
  931MOL0     C25564   5.813   5.952   5.608  0.1745 -0.2384  0.9399
  931MOL0     C25565   5.684   6.028   5.590  0.3022 -1.3336  0.4065
  931MOL0     C25566   5.693   6.174   5.540  0.9037 -0.3538 -0.0333
  931MOL0     N25567   5.552   6.212   5.497 -0.0083  0.1779  0.0126
  931MOL0     C25568   5.444   6.213   5.586 -1.2849 -0.5043  0.4463
  931MOL0     C25569   5.342   6.189   5.510 -1.3705  0.4671  0.0106
  931MOL0     C25570   5.197   6.193   5.552  0.8117  0.0149  0.0748
  931MOL0     C25571   5.119   6.074   5.482  0.7981  0.4884  0.6701
  931MOL0     C25572   5.068   6.084   5.329 -1.1622  0.5122 -0.3141
  931MOL0     C25573   4.978   6.211   5.315 -0.6115  0.2391  0.3083
  931MOL0     O25574   4.937   6.224   5.171 -0.5328 -0.2652 -0.8062
  931MOL0     C25575   4.954   6.359   5.127  0.7108  0.0320 -1.1885
  931MOL0     C25576   5.061   6.411   5.072 -0.6493 -0.9823 -0.0201
  931MOL0     C25577   5.073   6.533   5.006  0.1895 -0.7180 -0.3009
  931MOL0     C25578   4.949   6.599   4.985 -0.2518 -0.1863 -0.2261
  931MOL0     C25579   4.948   6.712   4.887  1.4348  0.0829 -0.2312
  931MOL0     O25580   5.062   6.754   4.837 -0.6433 -0.2912 -0.9115
  931MOL0     C25581   5.059   6.782   4.702  0.3141  0.7810  0.6677
  931MOL0     C25582   5.056   6.919   4.661 -0.8502  0.4058 -0.3288
  931MOL0     C25583   5.033   6.947   4.531 -0.7327 -0.6660  0.1873
  931MOL0     C25584   5.012   6.842   4.433 -0.8823 -0.4159 -0.1848
  931MOL0     O25585   4.983   6.870   4.309  0.2517 -0.0695  0.2271
  931MOL0     C25586   5.042   6.997   4.261  0.2722  0.1538 -0.3159
  931MOL0     C25587   4.928   7.093   4.208 -0.4739  0.5816 -0.4988
  931MOL0     C25588   4.923   7.104   4.052 -0.0867 -0.4562  0.5168
  931MOL0     C25589   5.057   7.130   3.977  0.1006  0.1127 -0.0291
  931MOL0     C25590   5.036   7.195   3.846  0.2515 -1.0862  0.4263
  931MOL0     C25591   5.174   7.216   3.773  0.3731  0.2672  0.8905
  931MOL0     C25592   5.159   7.311   3.646  0.1384 -0.1586 -0.0150
  931MOL0     C25593   5.295   7.322   3.573  0.8636  0.5698  0.0175
  931MOL0    Cl25594   5.425   7.386   3.669 -0.4228 -0.0867 -0.8011
  931MOL0     C25595   5.022   6.712   4.471  0.3485  0.2380 -0.7012
  931MOL0     C25596   5.037   6.683   4.604  0.7782 -0.4128 -0.1801
  931MOL0     O25597   4.831   6.753   4.852 -0.4626 -0.0662  0.4211
  931MOL0     C25598   4.833   6.554   5.043 -0.5191  0.3775 -0.3207
  931MOL0     C25599   4.831   6.433   5.121 -0.0892  0.3335 -0.0004
  931MOL0     N25600   5.373   6.192   5.375 -0.1207 -0.4524  0.7761
  931MOL0     N25601   5.503   6.211   5.365  0.4208  0.1156 -0.5384
  931MOL0     C25602   5.958   5.143   5.846 -0.0794  0.0372 -0.1913
  931MOL0     C25603   5.929   5.022   5.910  0.1408  0.4988  0.7635
  931MOL0     C25604   5.790   4.577   5.957  0.0155  0.5774 -0.2305
  931MOL0     C25605   5.735   4.454   5.905 -0.2603  0.7676 -0.4060
  931MOL0     C25606   5.681   4.355   5.991 -0.1115 -1.0343  1.5177
  931MOL0     C25607   5.698   4.374   6.128  0.9586  0.4516 -0.3032
  931MOL0     O25608   5.649   4.279   6.216  0.3622 -0.4382  0.5432
  931MOL0     C25609   5.743   4.195   6.285  0.8654  0.6255 -0.4993
  931MOL0     C25610   5.764   4.259   6.423 -0.3023  1.0109 -0.7862
  931MOL0     C25611   5.912   4.218   6.461 -0.2874  0.0791 -1.0568
  931MOL0     C25612   6.023   4.302   6.397 -0.9206  0.1730  0.3124
  931MOL0     C25613   6.149   4.227   6.387  0.9523  0.8714  0.1423
  931MOL0     C25614   6.243   4.154   6.376 -0.2636 -0.0934  0.3072
  931MOL0     C25615   5.775   4.481   6.174  1.1766 -0.4122  0.5736
  931MOL0     C25616   5.819   4.587   6.099  1.0499  0.0498  0.2289
  931MOL0     C25617   5.912   4.687   6.163 -0.0627 -0.1766  0.2943
  931MOL0     H25618   5.726   4.876   5.682  0.6657 -1.0998  0.7572
  931MOL0     H25619   5.768   5.117   5.573 -0.9135 -0.3719 -0.1714
  931MOL0     H25620   6.023   5.399   5.791  2.4593  0.4801  1.3924
  931MOL0     H25621   6.138   5.318   5.688 -0.6921 -0.5194 -0.0811
  931MOL0     H25622   6.078   5.481   5.502  1.9443  0.8994  0.4577
  931MOL0     H25623   6.116   5.567   5.651  0.7575  1.7893 -3.6251
  931MOL0     H25624   5.854   5.564   5.691  1.1666 -0.0241  1.0704
  931MOL0     H25625   5.868   5.527   5.511  4.4854  2.7006 -4.2221
  931MOL0     H25626   5.989   5.779   5.668 -0.9598 -0.1758 -0.3140
  931MOL0     H25627   5.972   5.754   5.492 -1.4982 -0.6462 -0.8784
  931MOL0     H25628   5.728   5.769   5.521 -2.0120 -3.3528  2.1147
  931MOL0     H25629   5.739   5.774   5.692 -1.9194  0.9167 -0.7768
  931MOL0     H25630   5.859   5.976   5.705 -1.8640 -0.9749  2.1560
  931MOL0     H25631   5.887   5.972   5.531  1.8183 -2.1420  1.9453
  931MOL0     H25632   5.615   6.032   5.676 -0.1968 -3.0624  0.1203
  931MOL0     H25633   5.634   5.974   5.509  1.8288 -0.8863 -0.8745
  931MOL0     H25634   5.722   6.238   5.624 -0.4302  1.9802 -1.2338
  931MOL0     H25635   5.758   6.194   5.454 -0.1681  2.2427 -0.3587
  931MOL0     H25636   5.442   6.206   5.695 -0.0117 -3.3538  0.3740
  931MOL0     H25637   5.183   6.186   5.660 -2.2428 -2.1038 -0.3462
  931MOL0     H25638   5.154   6.289   5.522  0.8576  0.1215  0.3474
  931MOL0     H25639   5.165   5.975   5.472 -1.7189 -0.5353 -3.8244
  931MOL0     H25640   5.032   6.064   5.549  2.3445  1.6731  2.9856
  931MOL0     H25641   5.005   6.004   5.289  1.9681 -1.3461 -1.8698
  931MOL0     H25642   5.154   6.095   5.263  0.4632 -1.3830  1.3705
  931MOL0     H25643   5.032   6.298   5.353 -1.8174  0.3492  1.8938
  931MOL0     H25644   4.885   6.210   5.372 -0.0977 -0.6767  1.1788
  931MOL0     H25645   5.155   6.359   5.081  1.6459  2.3983 -2.0306
  931MOL0     H25646   5.168   6.560   4.960  0.1986  3.7557  1.8910
  931MOL0     H25647   5.071   6.986   4.745 -0.4604 -0.1478  0.0543
  931MOL0     H25648   5.033   7.053   4.509 -1.7517 -0.9166 -1.1374
  931MOL0     H25649   5.098   7.060   4.330 -0.7165 -1.5193  2.1418
  931MOL0     H25650   5.093   6.960   4.171 -0.7167 -0.2573 -0.7318
  931MOL0     H25651   4.832   7.057   4.246 -1.3687  2.6395 -0.6981
  931MOL0     H25652   4.957   7.190   4.248 -1.2027 -0.1146  1.8843
  931MOL0     H25653   4.893   7.005   4.019  0.6840 -1.0859  1.6291
  931MOL0     H25654   4.843   7.168   4.015 -0.7896 -1.1562  0.8101
  931MOL0     H25655   5.113   7.037   3.962 -0.1421 -0.0615  0.1286
  931MOL0     H25656   5.120   7.203   4.027 -1.6900  0.0379  2.5255
  931MOL0     H25657   5.000   7.298   3.857 -2.0325 -1.7189 -0.4212
  931MOL0     H25658   4.979   7.138   3.772 -1.7638  2.7224 -1.2955
  931MOL0     H25659   5.246   7.270   3.835 -0.3261  3.3561 -0.7785
  931MOL0     H25660   5.230   7.128   3.738  3.9462  2.1274  1.4184
  931MOL0     H25661   5.139   7.416   3.668  2.0242 -0.0775  1.6452
  931MOL0     H25662   5.079   7.270   3.583  1.1843  0.9763 -2.1819
  931MOL0     H25663   5.320   7.222   3.538  1.8624  0.5012  0.8714
  931MOL0     H25664   5.293   7.386   3.484  2.4012  2.6195  1.3462
  931MOL0     H25665   5.032   6.637   4.393  2.3704  0.3928 -0.6377
  931MOL0     H25666   5.037   6.577   4.630 -1.7009 -0.4299 -0.0213
  931MOL0     H25667   4.742   6.607   5.016 -0.2671  1.2030  0.3809
  931MOL0     H25668   4.734   6.401   5.159  1.9487 -3.9340  2.1642
  931MOL0     H25669   6.007   5.210   5.916 -1.4340  0.2066  0.6063
  931MOL0     H25670   5.966   4.987   6.006 -0.2202 -0.8969  0.4135
  931MOL0     H25671   5.733   4.439   5.797  0.9119 -3.5092  0.0024
  931MOL0     H25672   5.638   4.270   5.941  2.3978 -1.6368  0.2014
  931MOL0     H25673   5.841   4.192   6.236  1.6094  4.0381  0.4520
  931MOL0     H25674   5.700   4.095   6.290  2.0428 -0.0389 -2.5155
  931MOL0     H25675   5.691   4.212   6.490  1.8555 -0.2694  0.8180
  931MOL0     H25676   5.743   4.366   6.420  0.4610  1.2180  0.4094
  931MOL0     H25677   5.943   4.118   6.431  0.5738 -0.0964  0.3192
  931MOL0     H25678   5.915   4.226   6.570 -1.2867  1.0489 -1.0755
  931MOL0     H25679   5.997   4.340   6.298  2.3882  0.3054 -0.6094
  931MOL0     H25680   6.048   4.389   6.459 -1.0757  1.7462 -1.7314
  931MOL0     H25681   6.308   4.068   6.381 -1.9617 -1.3524  3.3989
  931MOL0     H25682   5.780   4.492   6.282  3.1841 -2.4896  0.7608
  931MOL0     H25683   5.924   4.673   6.271 -0.5576 -0.1489  0.3552
  931MOL0     H25684   6.014   4.683   6.123 -0.2644 -2.2996 -0.1061
  931MOL0     H25685   5.871   4.787   6.147 -0.0117 -0.3869 -1.3077
  932MOL0     O25686   4.357   3.841   8.531  0.0998  0.1603  0.0988
  932MOL0     C25687   4.464   3.777   8.540 -0.1754 -0.7993 -0.9970
  932MOL0     O25688   4.491   3.693   8.641  0.3894 -0.5047 -0.0695
  932MOL0     C25689   4.435   3.713   8.765  0.3492  0.0122 -0.4347
  932MOL0     C25690   4.408   3.839   8.816 -0.9377 -0.8884 -0.2475
  932MOL0     C25691   4.345   3.852   8.939 -0.8996 -0.5077  0.6713
  932MOL0     C25692   4.320   3.737   9.017 -0.5394 -0.0769 -0.1591
  932MOL0     O25693   4.262   3.744   9.138  0.1415 -0.4168 -0.0428
  932MOL0     C25694   4.335   3.830   9.236  0.1113  0.1752 -0.1430
  932MOL0     C25695   4.307   3.772   9.378 -0.2086 -0.4526  0.0791
  932MOL0     C25696   4.369   3.861   9.479 -0.0959 -0.9286  0.0107
  932MOL0     C25697   4.526   3.889   9.450 -0.1893  0.0552  0.1943
  932MOL0     C25698   4.595   3.985   9.549 -0.6291  0.0259 -0.2662
  932MOL0     C25699   4.550   4.130   9.535 -0.2886  0.2563 -0.5748
  932MOL0     C25700   4.631   4.214   9.634  0.5612  0.2282  0.2825
  932MOL0     C25701   4.607   4.361   9.605 -0.9918 -0.3846 -0.1202
  932MOL0     N25702   4.467   4.397   9.601  0.4669  0.2461 -0.2138
  932MOL0     C25703   4.390   4.413   9.712  0.9985  0.8204  0.5850
  932MOL0     C25704   4.293   4.500   9.667 -0.6670  0.7341 -0.3486
  932MOL0     C25705   4.183   4.557   9.757 -0.0042  0.5938 -0.6503
  932MOL0     C25706   4.042   4.501   9.719  0.9279 -0.1921  0.0629
  932MOL0     C25707   3.985   4.564   9.592  0.4986  0.4849 -0.1245
  932MOL0     C25708   3.849   4.488   9.566  0.2061  0.1134  0.2852
  932MOL0     O25709   3.750   4.515   9.675  0.4944 -0.4920  0.3725
  932MOL0     C25710   3.618   4.476   9.646 -0.3025  0.4747  0.1586
  932MOL0     C25711   3.517   4.559   9.689  0.1160  0.0260  0.2051
  932MOL0     C25712   3.382   4.538   9.670 -0.2461 -0.7245  0.9329
  932MOL0     C25713   3.338   4.415   9.621 -0.7669  0.3413 -0.6568
  932MOL0     C25714   3.196   4.374   9.610  0.1819 -0.0556 -0.2955
  932MOL0     O25715   3.112   4.486   9.593  1.0135 -0.6308 -0.0159
  932MOL0     C25716   2.977   4.470   9.575 -1.0628  0.3350 -0.0550
  932MOL0     C25717   2.905   4.372   9.639 -0.4738  0.2474  0.3801
  932MOL0     C25718   2.762   4.356   9.622  0.0603 -0.2327 -0.7586
  932MOL0     C25719   2.704   4.452   9.547  0.0040 -0.5634  0.5857
  932MOL0     O25720   2.571   4.445   9.521 -0.4579 -1.0143  0.5541
  932MOL0     C25721   2.500   4.566   9.519  0.4872 -0.4421 -0.5017
  932MOL0     C25722   2.344   4.542   9.517  0.6869 -0.5442  0.1673
  932MOL0     C25723   2.290   4.454   9.637 -0.6083 -0.5709 -0.0345
  932MOL0     C25724   2.183   4.361   9.600 -0.2244 -0.0865 -0.2346
  932MOL0     C25725   2.110   4.307   9.725  0.1409 -0.0647 -0.2563
  932MOL0     C25726   1.988   4.213   9.687 -0.5691 -0.6015  0.3842
  932MOL0     C25727   1.901   4.152   9.802 -0.1843 -0.0747  0.5020
  932MOL0     C25728   1.817   4.261   9.880 -1.6362 -0.4824  0.6468
  932MOL0    Cl25729   1.684   4.336   9.785 -0.0064  0.0190 -0.3177
  932MOL0     C25730   2.776   4.559   9.491  0.0229  0.1614  0.3581
  932MOL0     C25731   2.916   4.572   9.504  0.1413 -0.7382  0.1778
  932MOL0     O25732   3.167   4.254   9.586 -0.5020 -0.2607 -0.3282
  932MOL0     C25733   3.441   4.320   9.581  0.2826 -0.3142  0.1616
  932MOL0     C25734   3.577   4.356   9.589  0.3038  0.6208 -0.6569
  932MOL0     N25735   4.308   4.539   9.538  0.4346  0.5206 -0.4081
  932MOL0     N25736   4.417   4.474   9.499 -0.1198  0.1402 -0.0093
  932MOL0     C25737   4.353   3.610   8.969 -0.0894 -0.1503 -0.3514
  932MOL0     C25738   4.407   3.601   8.845 -0.3172 -0.4136  0.4859
  932MOL0     C25739   4.559   3.770   8.426  0.2852  0.5862 -0.9182
  932MOL0     C25740   4.660   3.679   8.426 -0.6952 -0.3034 -0.3762
  932MOL0     C25741   4.758   3.677   8.326  0.0297  0.4550 -0.5380
  932MOL0     C25742   4.739   3.756   8.210  0.4938 -0.2531  0.0420
  932MOL0     O25743   4.824   3.740   8.102  0.5015  0.8745  0.1534
  932MOL0     C25744   4.890   3.856   8.042  1.5547  0.5468 -0.4398
  932MOL0     C25745   4.817   3.871   7.903 -0.3623 -0.2261 -0.5809
  932MOL0     C25746   4.838   3.738   7.824  0.1377  0.8101 -0.4326
  932MOL0     C25747   4.771   3.743   7.692 -0.6497 -1.0824 -0.5088
  932MOL0     C25748   4.794   3.618   7.618  0.2856  0.4736  0.3315
  932MOL0     C25749   4.816   3.518   7.551  0.7680  0.5271 -0.2492
  932MOL0     C25750   4.629   3.844   8.207 -0.5911 -0.0274  0.8986
  932MOL0     C25751   4.554   3.863   8.316 -0.2427  0.2946 -0.5065
  932MOL0     C25752   4.461   3.989   8.307  0.2183  0.6178 -0.6855
  932MOL0     H25753   4.423   3.931   8.761  0.7742 -0.6765  0.4970
  932MOL0     H25754   4.304   3.947   8.971 -0.6189  0.5196 -1.7998
  932MOL0     H25755   4.441   3.834   9.209 -0.3674  1.7532 -2.0273
  932MOL0     H25756   4.303   3.934   9.223  0.6822  0.3607 -0.1175
  932MOL0     H25757   4.338   3.667   9.376 -3.2923 -1.6126  2.9953
  932MOL0     H25758   4.198   3.784   9.390 -0.2996  1.0363 -1.7148
  932MOL0     H25759   4.357   3.818   9.579 -4.6891  0.0357  0.0517
  932MOL0     H25760   4.318   3.956   9.498  0.1427 -0.6234 -0.8492
  932MOL0     H25761   4.575   3.791   9.451 -0.4141 -0.0896  2.4481
  932MOL0     H25762   4.539   3.942   9.355  1.7056  1.4207  1.1647
  932MOL0     H25763   4.574   3.946   9.649  0.7169 -2.8486 -1.0140
  932MOL0     H25764   4.701   3.977   9.523 -0.7296  1.8709 -1.4079
  932MOL0     H25765   4.581   4.171   9.439  2.4136 -0.5367 -0.1197
  932MOL0     H25766   4.444   4.144   9.556 -0.3822 -0.8641 -0.2165
  932MOL0     H25767   4.737   4.187   9.631  0.2021 -1.3876  1.0600
  932MOL0     H25768   4.577   4.206   9.728 -0.7748 -0.5523 -0.5281
  932MOL0     H25769   4.663   4.420   9.678  2.4988 -2.3143 -1.0228
  932MOL0     H25770   4.647   4.379   9.505 -3.0027 -1.2431 -1.1465
  932MOL0     H25771   4.388   4.364   9.808 -3.0506  1.6114  1.0982
  932MOL0     H25772   4.199   4.525   9.861  3.5204 -3.0673 -2.0910
  932MOL0     H25773   4.176   4.666   9.766 -0.0327  0.4369  3.2948
  932MOL0     H25774   4.049   4.393   9.701  1.8322  0.0275 -0.9788
  932MOL0     H25775   3.962   4.517   9.792  0.4187  4.3116 -1.1837
  932MOL0     H25776   4.050   4.540   9.507 -0.9303 -0.9386 -0.8634
  932MOL0     H25777   3.971   4.672   9.580 -0.9989  0.2518 -0.7943
  932MOL0     H25778   3.865   4.380   9.560 -0.7522 -0.2530  2.9146
  932MOL0     H25779   3.802   4.516   9.471 -0.6141  0.7704  0.8666
  932MOL0     H25780   3.563   4.641   9.743  1.2181 -0.1131 -0.4971
  932MOL0     H25781   3.315   4.614   9.709  0.1050 -0.6128  1.3360
  932MOL0     H25782   2.957   4.300   9.701 -0.3292 -0.4967 -0.5753
  932MOL0     H25783   2.693   4.285   9.666  1.9119 -1.8266 -0.3256
  932MOL0     H25784   2.524   4.620   9.611 -1.4512 -2.5050  1.3307
  932MOL0     H25785   2.513   4.630   9.431 -0.8438 -0.0656 -0.4371
  932MOL0     H25786   2.285   4.634   9.519 -5.2735 -3.8630  2.3247
  932MOL0     H25787   2.327   4.492   9.421 -2.3212  2.1105 -0.8353
  932MOL0     H25788   2.378   4.404   9.679 -1.0217 -1.0005  0.3184
  932MOL0     H25789   2.261   4.523   9.717 -2.5314 -0.1235 -1.0693
  932MOL0     H25790   2.203   4.283   9.526 -1.9549 -1.7623  0.9731
  932MOL0     H25791   2.103   4.415   9.550 -2.4345 -3.0139 -0.1368
  932MOL0     H25792   2.077   4.395   9.781 -0.9082 -1.3175  1.1805
  932MOL0     H25793   2.175   4.252   9.794 -0.8099 -1.0513 -0.1257
  932MOL0     H25794   1.924   4.275   9.624  4.2708  2.5249 -2.1204
  932MOL0     H25795   2.023   4.139   9.614  1.5955  0.0171  0.6943
  932MOL0     H25796   1.980   4.102   9.860 -0.5523 -1.5215 -0.2018
  932MOL0     H25797   1.835   4.076   9.759 -0.1100 -2.2474  3.8940
  932MOL0     H25798   1.771   4.218   9.970 -1.9761  0.6626  1.0407
  932MOL0     H25799   1.879   4.348   9.905 -0.3358 -0.3084 -2.6873
  932MOL0     H25800   2.720   4.641   9.446 -3.4048 -0.1766  3.4669
  932MOL0     H25801   2.965   4.653   9.451 -0.4869 -0.3606  0.1526
  932MOL0     H25802   3.415   4.226   9.534 -1.2650 -0.3082  0.9384
  932MOL0     H25803   3.650   4.287   9.548 -0.7846  0.5049 -2.4694
  932MOL0     H25804   4.335   3.514   9.017  3.0717 -1.4039 -1.3824
  932MOL0     H25805   4.440   3.505   8.806 -1.2074  0.3501 -2.3294
  932MOL0     H25806   4.661   3.604   8.504 -1.2497  0.5729  0.5036
  932MOL0     H25807   4.845   3.615   8.347  0.1518  0.9985  0.6769
  932MOL0     H25808   4.998   3.842   8.030  0.9234 -3.1032 -4.2299
  932MOL0     H25809   4.865   3.946   8.098  0.6316  0.7659 -1.1799
  932MOL0     H25810   4.858   3.962   7.858 -2.3593  0.8185 -0.3933
  932MOL0     H25811   4.709   3.879   7.915 -0.4437 -0.9114 -0.8444
  932MOL0     H25812   4.793   3.647   7.866  1.9439  0.7178  1.4850
  932MOL0     H25813   4.945   3.725   7.806  0.4990  2.5718  0.2589
  932MOL0     H25814   4.666   3.768   7.702 -1.3061 -3.5846 -0.4506
  932MOL0     H25815   4.815   3.825   7.635 -0.7536 -0.2114  0.6148
  932MOL0     H25816   4.846   3.442   7.482  1.1893 -0.1922  0.6961
  932MOL0     H25817   4.627   3.900   8.114 -0.4944  0.4185  1.1618
  932MOL0     H25818   4.354   3.976   8.329  0.0288 -1.4897 -2.4684
  932MOL0     H25819   4.502   4.075   8.359 -2.2527  2.1594 -1.0861
  932MOL0     H25820   4.458   4.022   8.202 -2.0086 -1.2979 -1.3084
  933MOL0     O25821   6.555   1.298  11.266  0.2006 -0.2202  0.0887
  933MOL0     C25822   6.482   1.207  11.230 -0.1717 -0.3189 -0.3331
  933MOL0     O25823   6.339   1.225  11.222 -1.1219 -0.3739  0.0602
  933MOL0     C25824   6.304   1.356  11.246 -0.1260 -0.8563 -0.3823
  933MOL0     C25825   6.301   1.412  11.375 -0.1060  0.1441  0.9783
  933MOL0     C25826   6.231   1.535  11.396  0.3987  0.7998 -0.0145
  933MOL0     C25827   6.179   1.606  11.291  0.9753 -1.1039 -0.9427
  933MOL0     O25828   6.110   1.723  11.315  0.5997  0.1504  0.3809
  933MOL0     C25829   6.064   1.800  11.193  0.5724 -0.7674 -0.1743
  933MOL0     C25830   5.967   1.909  11.248 -0.3852 -0.5726  0.5201
  933MOL0     C25831   5.847   1.846  11.311  0.8819 -0.4835  0.5239
  933MOL0     C25832   5.757   1.951  11.377 -0.3813 -0.6171  0.7019
  933MOL0     C25833   5.622   1.886  11.422 -0.0308 -0.7940 -0.2679
  933MOL0     C25834   5.546   1.949  11.540 -0.2126  0.5019  0.4881
  933MOL0     C25835   5.416   1.892  11.591 -0.2001  0.0516 -0.3891
  933MOL0     C25836   5.299   1.893  11.501  0.2362  0.4143  0.9502
  933MOL0     N25837   5.169   1.863  11.572  0.4139  0.4000 -0.4241
  933MOL0     C25838   5.081   1.753  11.560 -0.7973  0.1439  0.3543
  933MOL0     C25839   4.983   1.783  11.639 -0.1515  0.1957 -0.3705
  933MOL0     C25840   4.866   1.688  11.646  0.4588  0.4497  0.0725
  933MOL0     C25841   4.763   1.741  11.752  0.3954 -0.5499  0.5804
  933MOL0     C25842   4.614   1.703  11.728  0.2309 -0.2939 -0.1690
  933MOL0     C25843   4.591   1.556  11.741 -0.8935  0.4428  0.8157
  933MOL0     O25844   4.656   1.507  11.859 -0.2464 -0.3697  0.0299
  933MOL0     C25845   4.588   1.493  11.978 -0.5286  0.6193 -1.2196
  933MOL0     C25846   4.498   1.583  12.029 -0.6870 -0.3634 -0.1509
  933MOL0     C25847   4.423   1.563  12.138 -0.0660 -0.0912 -0.5050
  933MOL0     C25848   4.439   1.444  12.211  0.3647  0.2613 -0.2611
  933MOL0     C25849   4.361   1.409  12.336  0.0836  0.4092  0.1890
  933MOL0     O25850   4.426   1.323  12.422  0.6713  0.7563  1.1585
  933MOL0     C25851   4.406   1.307  12.556 -0.0194  0.7146  0.0866
  933MOL0     C25852   4.316   1.386  12.638 -1.0717 -0.8451 -0.3719
  933MOL0     C25853   4.316   1.371  12.777 -0.8183 -0.4445  0.3386
  933MOL0     C25854   4.413   1.286  12.841 -0.3410  0.0115 -0.7023
  933MOL0     O25855   4.410   1.260  12.975 -0.6322 -0.0009  0.4781
  933MOL0     C25856   4.353   1.338  13.080 -1.1373 -0.2386  0.0252
  933MOL0     C25857   4.448   1.338  13.205  0.1646 -0.5947 -0.9910
  933MOL0     C25858   4.476   1.201  13.268 -0.4517 -0.2714  0.0016
  933MOL0     C25859   4.595   1.214  13.367  0.3472  0.2759 -0.0605
  933MOL0     C25860   4.586   1.087  13.453 -0.3244 -0.1168 -0.5649
  933MOL0     C25861   4.660   1.106  13.586  0.6672  0.0568  0.8268
  933MOL0     C25862   4.674   0.986  13.681 -0.9883 -0.1870  0.0267
  933MOL0     C25863   4.763   0.869  13.626 -0.8746 -0.1562 -0.3809
  933MOL0    Cl25864   4.859   0.781  13.747 -0.1566 -0.0218 -0.4443
  933MOL0     C25865   4.492   1.206  12.767  0.1299  0.2208 -0.1796
  933MOL0     C25866   4.489   1.215  12.628 -0.3621 -0.1613  1.2995
  933MOL0     O25867   4.264   1.481  12.364  0.7011 -0.3223  0.3759
  933MOL0     C25868   4.531   1.349  12.167 -0.1563 -0.3854  0.9118
  933MOL0     C25869   4.602   1.372  12.048  0.0943 -0.4051 -0.4015
  933MOL0     N25870   5.003   1.904  11.702  0.6688 -0.8658 -0.7270
  933MOL0     N25871   5.107   1.952  11.653 -0.7538 -0.1767  0.1885
  933MOL0     C25872   6.202   1.561  11.164 -0.7291 -0.6919  0.5175
  933MOL0     C25873   6.269   1.437  11.145 -0.0816  0.8838  0.5382
  933MOL0     C25874   6.553   1.078  11.204 -0.3882  0.2844  0.7368
  933MOL0     C25875   6.660   1.037  11.280  0.5760 -0.2358  0.0185
  933MOL0     C25876   6.735   0.929  11.250 -0.3296  0.3755 -1.1909
  933MOL0     C25877   6.705   0.844  11.147 -0.1559 -0.5531 -0.1911
  933MOL0     O25878   6.771   0.726  11.114  0.3855  0.4200 -0.1134
  933MOL0     C25879   6.890   0.698  11.189 -0.0556 -0.3941  0.0752
  933MOL0     C25880   6.976   0.599  11.118  0.5647  0.5932  0.9678
  933MOL0     C25881   7.093   0.536  11.192  0.1090 -0.6506 -0.0239
  933MOL0     C25882   7.145   0.612  11.306 -0.1707 -0.9159 -0.6222
  933MOL0     C25883   7.275   0.559  11.360 -0.7062  0.9200 -0.5180
  933MOL0     C25884   7.379   0.511  11.409  0.7876 -1.0059  0.1147
  933MOL0     C25885   6.589   0.877  11.077 -0.4520  0.6880  0.4288
  933MOL0     C25886   6.518   0.993  11.103  0.0450 -0.3605 -0.4511
  933MOL0     C25887   6.392   1.017  11.023 -0.0805  0.0620  0.3100
  933MOL0     H25888   6.356   1.362  11.455  1.8025  0.8140  0.1496
  933MOL0     H25889   6.234   1.578  11.496  2.4418  1.3570 -0.2733
  933MOL0     H25890   6.151   1.839  11.140  1.0300  1.4331  1.9731
  933MOL0     H25891   6.003   1.745  11.121 -0.0356 -0.2351 -0.0695
  933MOL0     H25892   5.938   1.980  11.170  0.3397  0.6989  1.3867
  933MOL0     H25893   6.029   1.968  11.315 -0.2696  2.1430 -1.7624
  933MOL0     H25894   5.886   1.769  11.378  1.3438 -0.9126 -0.2300
  933MOL0     H25895   5.792   1.797  11.230  2.4487 -1.4374 -0.0049
  933MOL0     H25896   5.812   1.984  11.465  2.8899 -4.7518  0.4834
  933MOL0     H25897   5.741   2.031  11.304 -0.7317 -3.4445 -2.5250
  933MOL0     H25898   5.559   1.869  11.334 -1.2154  0.3747  0.3325
  933MOL0     H25899   5.655   1.789  11.461  2.3394 -0.8750 -2.1998
  933MOL0     H25900   5.614   1.971  11.622 -2.2171  0.6222  2.1881
  933MOL0     H25901   5.513   2.044  11.496 -0.7037  1.3398  2.5685
  933MOL0     H25902   5.393   1.936  11.688  2.5270 -1.0844  0.8619
  933MOL0     H25903   5.432   1.788  11.620  0.4780  0.4716  0.8170
  933MOL0     H25904   5.282   1.994  11.463 -2.5294 -0.8956 -1.7363
  933MOL0     H25905   5.308   1.825  11.416 -1.9569 -0.7882  1.5913
  933MOL0     H25906   5.088   1.672  11.489  2.7066 -0.2147  0.9459
  933MOL0     H25907   4.819   1.682  11.547  2.9904 -1.8251 -1.1163
  933MOL0     H25908   4.895   1.585  11.670 -2.4383 -0.4277  0.1637
  933MOL0     H25909   4.796   1.694  11.845  1.5605  1.0162  1.0031
  933MOL0     H25910   4.765   1.850  11.756  1.5362 -0.3627 -2.5475
  933MOL0     H25911   4.579   1.741  11.632 -1.8389  1.4063  1.1551
  933MOL0     H25912   4.555   1.747  11.809  2.0024 -0.1641  1.1060
  933MOL0     H25913   4.644   1.500  11.664 -0.2559 -0.0195  1.5678
  933MOL0     H25914   4.490   1.515  11.751 -1.9649  3.0331  1.3894
  933MOL0     H25915   4.496   1.676  11.973  0.4501 -1.2780 -1.7998
  933MOL0     H25916   4.375   1.647  12.186  2.0355  0.6859  0.3479
  933MOL0     H25917   4.264   1.472  12.597  0.8572 -0.5344 -2.4019
  933MOL0     H25918   4.251   1.424  12.845  0.0099  1.1418 -0.0783
  933MOL0     H25919   4.341   1.443  13.051  0.8685 -0.3105 -1.2687
  933MOL0     H25920   4.253   1.299  13.104 -0.3643 -0.8664  2.6105
  933MOL0     H25921   4.545   1.374  13.170  0.0759  0.3385 -0.3164
  933MOL0     H25922   4.422   1.409  13.284 -1.0863 -3.7614  1.6941
  933MOL0     H25923   4.379   1.168  13.306 -0.6394 -0.8579 -0.9484
  933MOL0     H25924   4.520   1.141  13.188  1.6095  3.1055 -1.6319
  933MOL0     H25925   4.592   1.299  13.436 -2.6721 -0.2581  0.6007
  933MOL0     H25926   4.697   1.214  13.329  1.1801 -2.1651  1.8843
  933MOL0     H25927   4.611   0.998  13.393 -4.7017 -1.9720 -0.0187
  933MOL0     H25928   4.481   1.074  13.478 -0.2836  2.1519  1.0527
  933MOL0     H25929   4.756   1.156  13.571  0.1936  0.4498 -1.0615
  933MOL0     H25930   4.602   1.183  13.638  0.5797  0.5379  0.0299
  933MOL0     H25931   4.580   0.950  13.724 -0.6103 -0.2347  0.8275
  933MOL0     H25932   4.740   1.021  13.761  1.8505 -1.1384 -1.7426
  933MOL0     H25933   4.717   0.813  13.545  2.5088  1.7611 -4.0033
  933MOL0     H25934   4.852   0.913  13.580 -3.6151  2.1311 -4.0665
  933MOL0     H25935   4.551   1.143  12.833  2.7600  2.5055 -0.1288
  933MOL0     H25936   4.574   1.169  12.580  1.8498  3.7465  1.0221
  933MOL0     H25937   4.547   1.252  12.213 -2.5170 -0.7033  1.1995
  933MOL0     H25938   4.667   1.292  12.014  0.0380  0.3105 -2.3041
  933MOL0     H25939   6.181   1.601  11.066 -3.2943  2.0042  2.0179
  933MOL0     H25940   6.288   1.388  11.050  0.1899  1.8374  0.0951
  933MOL0     H25941   6.704   1.101  11.356  1.9818 -0.2077 -0.7954
  933MOL0     H25942   6.814   0.894  11.316 -0.8479 -1.1813 -1.3584
  933MOL0     H25943   6.857   0.666  11.288 -2.9624  0.0311 -0.6611
  933MOL0     H25944   6.954   0.786  11.197  2.0141 -1.7746 -0.4485
  933MOL0     H25945   7.004   0.634  11.018  1.6534 -0.4584  0.8818
  933MOL0     H25946   6.924   0.507  11.088  1.1102  0.6752 -0.2947
  933MOL0     H25947   7.172   0.513  11.119  2.1076  1.6421  1.2745
  933MOL0     H25948   7.044   0.447  11.232 -0.6332  1.2433  3.6718
  933MOL0     H25949   7.158   0.719  11.285  1.7544 -1.3181 -1.7770
  933MOL0     H25950   7.077   0.588  11.388  0.1248 -0.1202 -0.1347
  933MOL0     H25951   7.478   0.479  11.432  1.5447 -0.8026 -2.5518
  933MOL0     H25952   6.571   0.809  10.994  4.9966  1.3419 -1.6896
  933MOL0     H25953   6.387   1.105  10.958 -0.0925 -0.7466 -0.8173
  933MOL0     H25954   6.381   0.929  10.959 -0.5975 -0.8880  1.6805
  933MOL0     H25955   6.306   1.024  11.091 -0.5716 -0.1194 -0.2812
  934MOL0     O25956   5.946   8.929   6.004 -0.0057  0.1183  0.2288
  934MOL0     C25957   6.061   8.973   5.982  0.2582 -0.3070  0.1599
  934MOL0     O25958   6.158   8.917   5.903  0.5283 -0.0786 -0.0929
  934MOL0     C25959   6.122   8.825   5.817 -0.0307 -0.1408  0.1096
  934MOL0     C25960   6.198   8.709   5.819  0.1164  0.1398 -1.0089
  934MOL0     C25961   6.171   8.608   5.722  0.1503  0.0952  0.5843
  934MOL0     C25962   6.072   8.630   5.627 -0.2130 -0.3034  0.3336
  934MOL0     O25963   6.066   8.524   5.544  0.3317 -0.4973  0.2275
  934MOL0     C25964   5.936   8.480   5.503 -0.3107  0.0054  0.0702
  934MOL0     C25965   5.949   8.339   5.451  0.3920  1.1536 -0.3812
  934MOL0     C25966   5.994   8.236   5.560  0.9890 -0.3991  0.6814
  934MOL0     C25967   6.042   8.106   5.482  0.4178  0.0952 -0.3150
  934MOL0     C25968   6.021   7.974   5.553 -1.0987 -0.4007  0.2914
  934MOL0     C25969   6.148   7.950   5.647  0.7238  0.8334 -0.4612
  934MOL0     C25970   6.145   8.034   5.767 -0.0988 -0.6897 -0.9442
  934MOL0     C25971   6.022   8.015   5.853 -0.0247  0.4816  0.9380
  934MOL0     N25972   6.026   7.891   5.925 -0.1061 -0.5678 -0.2877
  934MOL0     C25973   6.081   7.875   6.054  0.9132  0.4644  0.3506
  934MOL0     C25974   6.048   7.746   6.079 -0.7850  0.8105  0.4096
  934MOL0     C25975   6.100   7.702   6.217  0.5890 -0.1471 -0.3083
  934MOL0     C25976   6.250   7.701   6.232  0.2429  0.3114  0.0014
  934MOL0     C25977   6.321   7.599   6.143  0.1240  0.1396  0.6220
  934MOL0     C25978   6.272   7.458   6.156 -0.3303 -0.1750 -0.0672
  934MOL0     O25979   6.384   7.380   6.116 -0.5130  0.2150 -0.2696
  934MOL0     C25980   6.465   7.327   6.211 -0.4863  0.2222  0.0623
  934MOL0     C25981   6.574   7.261   6.158  0.0364  0.4081  0.3090
  934MOL0     C25982   6.670   7.197   6.239  0.3153 -0.0593 -0.2092
  934MOL0     C25983   6.663   7.207   6.379 -0.5497  0.5920  0.0292
  934MOL0     C25984   6.762   7.154   6.471  0.2702  0.4705 -0.1770
  934MOL0     O25985   6.708   7.125   6.592  1.0408 -0.0374 -0.0700
  934MOL0     C25986   6.804   7.081   6.676  0.4936 -0.7579  0.1470
  934MOL0     C25987   6.830   7.171   6.778 -0.2414 -0.7618  0.7452
  934MOL0     C25988   6.927   7.137   6.867  0.0804  0.8973 -0.2287
  934MOL0     C25989   7.003   7.021   6.860  0.7161  1.1483  0.3364
  934MOL0     O25990   7.112   6.978   6.939 -0.4772  0.0446  0.5314
  934MOL0     C25991   7.192   7.077   7.007  0.1839 -0.6531  0.0329
  934MOL0     C25992   7.237   7.199   6.923  0.2290 -0.9318 -0.3520
  934MOL0     C25993   7.390   7.220   6.917 -0.5930 -0.9889  0.2876
  934MOL0     C25994   7.421   7.356   6.863 -0.0111 -0.9366  0.4091
  934MOL0     C25995   7.567   7.409   6.871 -0.1063 -1.2670 -0.1135
  934MOL0     C25996   7.604   7.466   7.006 -0.0699 -0.0242 -0.0216
  934MOL0     C25997   7.517   7.585   7.053  0.1363 -0.4304 -0.3740
  934MOL0     C25998   7.573   7.629   7.183  0.1443 -0.2635  1.6830
  934MOL0    Cl25999   7.513   7.513   7.308 -0.2749 -0.2651 -0.1465
  934MOL0     C26000   6.969   6.933   6.754  0.4397 -0.2660 -0.4303
  934MOL0     C26001   6.872   6.967   6.657 -1.2290 -0.6485  0.5018
  934MOL0     O26002   6.884   7.136   6.436 -0.2770 -0.0562  0.4516
  934MOL0     C26003   6.561   7.283   6.437  0.4629 -1.0479  1.2312
  934MOL0     C26004   6.454   7.343   6.351 -0.0517 -0.0220 -0.9561
  934MOL0     N26005   5.987   7.680   5.981  0.8427  0.8461 -0.2390
  934MOL0     N26006   5.967   7.771   5.889 -0.2680  0.9043 -0.1757
  934MOL0     C26007   6.002   8.746   5.621 -0.4529  0.4969  0.0552
  934MOL0     C26008   6.027   8.845   5.718 -0.0216 -0.8148 -0.1775
  934MOL0     C26009   6.098   9.082   6.073  0.6845 -0.3483  0.0822
  934MOL0     C26010   6.067   9.080   6.211 -0.0853  0.3375  0.1740
  934MOL0     C26011   6.081   9.189   6.294  0.8567 -0.1619 -0.1995
  934MOL0     C26012   6.141   9.305   6.240  0.2315 -0.1471  0.2841
  934MOL0     O26013   6.152   9.407   6.336 -1.0108  0.5665  0.6233
  934MOL0     C26014   6.215   9.528   6.305 -0.3233  0.5619  0.0634
  934MOL0     C26015   6.171   9.638   6.408 -0.2249  0.8744 -0.5131
  934MOL0     C26016   6.183   9.588   6.552  0.4439  0.0528 -0.8494
  934MOL0     C26017   6.096   9.677   6.650 -0.7092 -0.0660 -0.2771
  934MOL0     C26018   6.135   9.820   6.640 -0.6659  0.0912 -1.5809
  934MOL0     C26019   6.154   9.941   6.621 -0.3668 -0.0498 -0.5941
  934MOL0     C26020   6.168   9.314   6.101 -1.0308  0.0119 -0.3780
  934MOL0     C26021   6.158   9.204   6.023  0.0555 -0.5211  0.7245
  934MOL0     C26022   6.180   9.233   5.874 -0.2867  0.1132 -0.8102
  934MOL0     H26023   6.267   8.690   5.901 -0.7392  0.8924 -0.1014
  934MOL0     H26024   6.232   8.518   5.711 -0.0320  0.1484 -1.0537
  934MOL0     H26025   5.879   8.472   5.596 -0.2238 -2.1116 -0.0087
  934MOL0     H26026   5.882   8.546   5.436 -1.2260 -0.6011  0.1978
  934MOL0     H26027   6.029   8.345   5.377  2.4527 -1.2698  1.4815
  934MOL0     H26028   5.854   8.313   5.403 -1.0821  0.6938  2.5510
  934MOL0     H26029   5.913   8.226   5.632  0.8396  2.7245  1.0486
  934MOL0     H26030   6.082   8.277   5.611  0.8073  0.9172 -0.0367
  934MOL0     H26031   6.003   8.101   5.380  3.4972  1.9322 -1.7275
  934MOL0     H26032   6.148   8.122   5.460  0.3162  2.5048  0.6031
  934MOL0     H26033   5.920   7.969   5.595 -0.9297 -0.7137  0.6768
  934MOL0     H26034   6.034   7.892   5.482  0.8007  0.1901 -0.1102
  934MOL0     H26035   6.165   7.848   5.681 -3.1723  0.4884  0.8170
  934MOL0     H26036   6.237   7.981   5.591  1.0754  3.0446  1.1857
  934MOL0     H26037   6.177   8.139   5.760 -0.2672 -0.3338  2.1645
  934MOL0     H26038   6.223   8.004   5.836 -1.7810  0.5627  1.6531
  934MOL0     H26039   6.018   8.093   5.930 -1.3762 -0.5136  1.9317
  934MOL0     H26040   5.925   8.023   5.804 -0.9325  0.5032  2.6682
  934MOL0     H26041   6.123   7.956   6.113 -1.0311  1.9302 -0.1663
  934MOL0     H26042   6.058   7.774   6.289  5.4804  3.1956 -0.3137
  934MOL0     H26043   6.050   7.609   6.243 -0.3299  0.4707  0.2233
  934MOL0     H26044   6.294   7.800   6.218  0.6572  0.1188 -0.0694
  934MOL0     H26045   6.278   7.683   6.337 -4.1915 -1.9799  1.0446
  934MOL0     H26046   6.426   7.609   6.169  0.5294  1.4044 -1.2936
  934MOL0     H26047   6.309   7.632   6.040 -0.1287  0.0359  0.6172
  934MOL0     H26048   6.185   7.440   6.092  1.4408  1.4971 -3.1779
  934MOL0     H26049   6.245   7.451   6.262 -0.2949  1.6900  0.1050
  934MOL0     H26050   6.583   7.268   6.050  3.1041 -1.9258  0.3140
  934MOL0     H26051   6.753   7.146   6.191 -0.5606 -1.6002 -0.1420
  934MOL0     H26052   6.782   7.266   6.799 -1.0849 -1.0604  0.2459
  934MOL0     H26053   6.965   7.195   6.951  0.4597  0.4811 -0.1092
  934MOL0     H26054   7.143   7.109   7.099  0.8739  1.4140 -0.2614
  934MOL0     H26055   7.279   7.019   7.038  0.8452 -0.9944 -2.2586
  934MOL0     H26056   7.187   7.207   6.826 -1.3526  0.7419  0.5316
  934MOL0     H26057   7.190   7.292   6.958  1.9260 -0.1112 -0.1664
  934MOL0     H26058   7.431   7.210   7.018 -1.6349 -2.3208  0.6151
  934MOL0     H26059   7.433   7.142   6.852  1.6905 -1.5738  2.3206
  934MOL0     H26060   7.362   7.436   6.908  2.1177 -0.4641  2.5790
  934MOL0     H26061   7.411   7.372   6.755  3.5197 -1.3357 -0.1035
  934MOL0     H26062   7.583   7.493   6.802  2.8966 -0.6643  1.1807
  934MOL0     H26063   7.626   7.322   6.842  0.3665 -1.0099  0.0678
  934MOL0     H26064   7.596   7.387   7.081  0.3316  0.3204  0.3867
  934MOL0     H26065   7.704   7.508   6.993 -0.0405  0.6538  2.1446
  934MOL0     H26066   7.409   7.568   7.065  0.2926 -2.8138 -1.7980
  934MOL0     H26067   7.530   7.670   6.985 -2.4456 -0.7930 -1.4224
  934MOL0     H26068   7.682   7.632   7.194  0.3536 -3.6607  1.4641
  934MOL0     H26069   7.526   7.725   7.205 -3.2287 -0.7647 -2.3059
  934MOL0     H26070   7.028   6.841   6.752 -0.0796 -0.5936 -0.7654
  934MOL0     H26071   6.832   6.908   6.576 -1.6413 -0.2551  0.4162
  934MOL0     H26072   6.573   7.312   6.541  2.9667  2.6323  0.0883
  934MOL0     H26073   6.369   7.390   6.399 -1.5850 -2.4524 -1.1319
  934MOL0     H26074   5.928   8.756   5.541 -0.8116  0.1235  0.3326
  934MOL0     H26075   5.958   8.928   5.723  0.3308 -0.5780  3.3674
  934MOL0     H26076   6.032   8.994   6.267  0.0172  0.7813  0.9303
  934MOL0     H26077   6.033   9.184   6.391 -2.2363 -0.1961 -1.6011
  934MOL0     H26078   6.168   9.566   6.214 -2.0925  4.2450  2.2522
  934MOL0     H26079   6.320   9.508   6.286 -0.1899 -0.4893  1.7301
  934MOL0     H26080   6.068   9.666   6.380  0.2226  0.8263 -2.3678
  934MOL0     H26081   6.232   9.728   6.394  2.5213 -0.3048  2.6779
  934MOL0     H26082   6.289   9.610   6.568  0.4621  0.2489 -1.2399
  934MOL0     H26083   6.157   9.482   6.563  0.1787  0.1478 -0.5346
  934MOL0     H26084   5.994   9.666   6.613 -0.6937  0.2726 -0.4235
  934MOL0     H26085   6.101   9.652   6.756  0.9756 -1.6436 -0.6670
  934MOL0     H26086   6.185  10.043   6.628  1.4242 -0.6686  1.3482
  934MOL0     H26087   6.207   9.406   6.059 -0.9061  0.2450  0.2447
  934MOL0     H26088   6.084   9.248   5.824 -0.8457  0.8919  0.4488
  934MOL0     H26089   6.233   9.327   5.855 -1.9057  0.6902 -2.9859
  934MOL0     H26090   6.253   9.164   5.830  3.7224  1.8455  2.5013
  935MOL0     O26091   2.916   4.015   5.962 -0.4106 -0.5662 -0.8675
  935MOL0     C26092   2.974   4.000   6.074 -0.0838  0.3436  0.0771
  935MOL0     O26093   3.005   3.876   6.125 -0.2012  0.0080  0.0501
  935MOL0     C26094   2.921   3.767   6.100 -0.2555 -0.6706 -0.0589
  935MOL0     C26095   2.777   3.775   6.079 -0.1236  0.5362  0.2898
  935MOL0     C26096   2.704   3.660   6.076 -0.5490  0.7595  0.4372
  935MOL0     C26097   2.764   3.536   6.096  0.0101 -0.0622  0.3407
  935MOL0     O26098   2.700   3.416   6.090 -0.3240 -0.0477  0.2933
  935MOL0     C26099   2.577   3.410   6.012  0.3547  0.3115  0.3717
  935MOL0     C26100   2.435   3.427   6.088 -0.1186  0.1680  0.5177
  935MOL0     C26101   2.300   3.413   6.011  0.2400  0.0487 -0.0172
  935MOL0     C26102   2.304   3.494   5.883 -0.1833  0.5045 -0.4859
  935MOL0     C26103   2.161   3.525   5.821 -0.4111  0.1549 -0.3408
  935MOL0     C26104   2.070   3.610   5.916  0.1007 -0.0080  0.4146
  935MOL0     C26105   1.928   3.551   5.922 -0.3956 -0.1807 -0.5240
  935MOL0     C26106   1.839   3.616   6.025  0.7331  0.5935  0.7614
  935MOL0     N26107   1.712   3.540   6.034 -0.2731 -0.8370 -0.0386
  935MOL0     C26108   1.601   3.576   5.967  0.0812  0.2027 -1.0885
  935MOL0     C26109   1.494   3.516   6.023  0.1857 -0.3258  0.3284
  935MOL0     C26110   1.354   3.540   5.974 -0.4035  0.3665 -0.6633
  935MOL0     C26111   1.260   3.562   6.083 -0.0776  0.9386  0.0943
  935MOL0     C26112   1.293   3.714   6.127 -0.0442  0.7064 -0.7668
  935MOL0     C26113   1.193   3.816   6.078  0.0931  0.1685 -0.1464
  935MOL0     O26114   1.061   3.770   6.092  0.0249 -0.0428  1.0787
  935MOL0     C26115   1.010   3.798   6.213  0.4420 -1.1079 -0.4199
  935MOL0     C26116   1.024   3.710   6.322  0.7674  1.0185 -0.3588
  935MOL0     C26117   0.950   3.735   6.443  0.2115  0.4965 -0.6130
  935MOL0     C26118   0.874   3.851   6.461  0.9491  0.1610  0.8412
  935MOL0     C26119   0.777   3.871   6.576  0.0896 -0.3497 -1.1971
  935MOL0     O26120   0.759   3.772   6.660 -0.3483  0.2520 -0.6243
  935MOL0     C26121   0.656   3.772   6.747 -0.8800 -0.9748 -0.0883
  935MOL0     C26122   0.658   3.870   6.851  0.4185  0.2818  0.1292
  935MOL0     C26123   0.560   3.874   6.942  0.7731 -1.0255 -0.0154
  935MOL0     C26124   0.454   3.774   6.934 -1.4715 -0.1417 -0.7184
  935MOL0     O26125   0.345   3.776   7.020 -0.3869  0.2953 -0.5340
  935MOL0     C26126   0.274   3.901   7.028 -0.4537 -0.5690 -1.0189
  935MOL0     C26127   0.183   3.945   6.916 -0.1619  0.0934 -0.1095
  935MOL0     C26128   0.052   3.859   6.898 -0.4572  0.2482  0.2201
  935MOL0     C26129  -0.052   3.907   6.795 -0.2796  0.1297 -0.1026
  935MOL0     C26130   0.024   3.943   6.662 -0.2052 -1.4032 -0.9608
  935MOL0     C26131  -0.090   3.980   6.557  0.2234  0.3355 -0.4643
  935MOL0     C26132  -0.039   4.025   6.415 -0.5105 -0.1201  1.1143
  935MOL0     C26133  -0.048   3.906   6.308  0.6035 -0.4923  0.0028
  935MOL0    Cl26134  -0.024   3.965   6.135  0.2885 -0.5688  0.1055
  935MOL0     C26135   0.453   3.677   6.834 -0.2673  0.8540  0.0717
  935MOL0     C26136   0.549   3.675   6.740 -0.6389  0.5022  0.5126
  935MOL0     O26137   0.719   3.981   6.592 -0.1007 -0.2835 -0.0406
  935MOL0     C26138   0.877   3.947   6.359  0.4595  0.4711 -0.6477
  935MOL0     C26139   0.938   3.919   6.235 -0.9871 -0.5195 -0.3393
  935MOL0     N26140   1.537   3.439   6.119  0.2327 -0.3515  0.0473
  935MOL0     N26141   1.666   3.452   6.132  0.6744 -0.6581  0.0852
  935MOL0     C26142   2.902   3.529   6.105 -0.2328  0.2674 -0.0429
  935MOL0     C26143   2.982   3.643   6.112  0.5426 -0.3718 -0.3324
  935MOL0     C26144   3.039   4.110   6.146 -0.4034 -0.6603 -0.9841
  935MOL0     C26145   3.152   4.077   6.223  0.9921  0.8637 -0.1318
  935MOL0     C26146   3.220   4.175   6.284  0.3213  0.3199 -0.3874
  935MOL0     C26147   3.190   4.311   6.262 -0.1501 -0.9798 -0.1120
  935MOL0     O26148   3.269   4.420   6.300  0.2927 -0.0646  0.8602
  935MOL0     C26149   3.411   4.407   6.273  0.1958 -0.5344 -0.1429
  935MOL0     C26150   3.453   4.488   6.160  0.0395  0.3869  0.2343
  935MOL0     C26151   3.414   4.414   6.027 -0.5767 -0.2930 -1.3029
  935MOL0     C26152   3.531   4.324   5.977 -0.2752 -0.5227 -0.8137
  935MOL0     C26153   3.625   4.401   5.892  0.0482 -0.8661  0.3781
  935MOL0     C26154   3.707   4.448   5.820 -0.0496 -0.5367 -0.6407
  935MOL0     C26155   3.072   4.342   6.192  0.3879 -0.2317 -0.2041
  935MOL0     C26156   2.988   4.244   6.141  0.0856 -1.2401  0.8952
  935MOL0     C26157   2.859   4.285   6.061  0.5529 -1.0138 -0.6002
  935MOL0     H26158   2.732   3.872   6.064  0.9702  0.9872 -0.1663
  935MOL0     H26159   2.597   3.669   6.067 -0.3503  1.2209 -4.9337
  935MOL0     H26160   2.582   3.479   5.927  2.1799  0.1652  0.3394
  935MOL0     H26161   2.576   3.315   5.957 -1.7257  2.4324 -3.6731
  935MOL0     H26162   2.438   3.525   6.135 -1.3028 -0.1022  1.2053
  935MOL0     H26163   2.448   3.353   6.168 -0.2801 -0.3216  0.0938
  935MOL0     H26164   2.221   3.446   6.080 -0.0092 -0.2948 -0.1337
  935MOL0     H26165   2.286   3.305   5.996  0.2541  0.1153 -0.5023
  935MOL0     H26166   2.358   3.588   5.889 -1.8392  1.4784 -0.2387
  935MOL0     H26167   2.354   3.428   5.811 -3.8731  0.4659 -3.3330
  935MOL0     H26168   2.171   3.579   5.727 -4.1231 -0.2136 -1.0943
  935MOL0     H26169   2.123   3.424   5.800 -1.5700 -0.1072  2.6101
  935MOL0     H26170   2.111   3.618   6.017 -1.6918 -1.8388  1.3746
  935MOL0     H26171   2.059   3.712   5.878 -1.2645 -0.7717 -1.3717
  935MOL0     H26172   1.934   3.443   5.939  0.2652 -0.2489 -1.1104
  935MOL0     H26173   1.879   3.560   5.824 -0.1494  1.4017 -0.5327
  935MOL0     H26174   1.882   3.613   6.125  0.2030  1.5022  1.0255
  935MOL0     H26175   1.824   3.723   6.008 -1.7779  0.3653  1.1456
  935MOL0     H26176   1.597   3.642   5.882  2.6051  0.4449 -1.0993
  935MOL0     H26177   1.349   3.630   5.911  0.5634 -0.1588 -1.5053
  935MOL0     H26178   1.325   3.457   5.909 -0.6126 -1.0169  1.1498
  935MOL0     H26179   1.165   3.566   6.029  0.7673  2.4214 -1.3950
  935MOL0     H26180   1.270   3.498   6.171 -0.3653  3.1363  1.8100
  935MOL0     H26181   1.386   3.753   6.084  1.0654 -0.5984  0.3554
  935MOL0     H26182   1.310   3.712   6.235  1.2415 -1.2994 -0.9532
  935MOL0     H26183   1.215   3.824   5.971  2.1955  3.9204  0.3863
  935MOL0     H26184   1.218   3.907   6.133  3.6043 -0.6505 -0.1168
  935MOL0     H26185   1.077   3.615   6.318  1.7906  1.0978  4.4067
  935MOL0     H26186   0.932   3.658   6.517 -0.9588 -1.5006 -2.8421
  935MOL0     H26187   0.739   3.942   6.848  0.6552  0.1594  2.1231
  935MOL0     H26188   0.560   3.956   7.013 -1.6397  0.4810 -1.6025
  935MOL0     H26189   0.202   3.884   7.108  0.5011  0.9230  0.2038
  935MOL0     H26190   0.340   3.985   7.051 -2.5126  1.1597 -1.1260
  935MOL0     H26191   0.154   4.050   6.925 -2.8942 -0.6269  0.3597
  935MOL0     H26192   0.252   3.939   6.831  1.4033 -0.5080  1.1607
  935MOL0     H26193   0.086   3.762   6.860  2.4864  1.6973 -1.1633
  935MOL0     H26194  -0.002   3.847   6.993 -2.6417  1.5686 -0.7608
  935MOL0     H26195  -0.102   3.998   6.829 -0.2057  0.7467 -1.5700
  935MOL0     H26196  -0.118   3.828   6.759  2.1702 -0.9757 -2.6177
  935MOL0     H26197   0.073   3.856   6.618 -1.0247 -2.3441 -0.0801
  935MOL0     H26198   0.092   4.026   6.682 -1.0400 -1.1189  0.9147
  935MOL0     H26199  -0.159   3.896   6.547 -2.4097  2.0323  1.9469
  935MOL0     H26200  -0.156   4.054   6.604  0.2602  0.5543 -0.7506
  935MOL0     H26201   0.056   4.072   6.442 -1.0205  1.4823  0.2486
  935MOL0     H26202  -0.098   4.107   6.371  1.7032  0.1426 -1.6231
  935MOL0     H26203   0.031   3.832   6.325  0.8232 -0.1221  0.6355
  935MOL0     H26204  -0.146   3.859   6.310 -0.0239  0.7516 -0.1771
  935MOL0     H26205   0.379   3.598   6.838  0.1410  0.4373 -0.4730
  935MOL0     H26206   0.543   3.590   6.673  5.5881 -0.2562  0.3473
  935MOL0     H26207   0.833   4.045   6.371  1.4640  0.9556 -0.7814
  935MOL0     H26208   0.935   3.995   6.157 -3.4055  2.1620  2.1356
  935MOL0     H26209   2.952   3.438   6.135  1.3662  0.1098 -2.8361
  935MOL0     H26210   3.087   3.632   6.137  1.7382  2.0961 -3.4833
  935MOL0     H26211   3.192   3.976   6.232  1.1275  0.8558 -0.7679
  935MOL0     H26212   3.298   4.150   6.355  0.3484  4.0016  1.0745
  935MOL0     H26213   3.455   4.308   6.256  1.3770 -0.3365  1.5193
  935MOL0     H26214   3.460   4.445   6.363  3.2491 -0.6358 -1.6217
  935MOL0     H26215   3.560   4.502   6.178 -0.3707  0.7373  2.6238
  935MOL0     H26216   3.406   4.586   6.164  2.8997  1.9157 -0.6999
  935MOL0     H26217   3.378   4.488   5.955 -0.0582 -0.1522 -1.4207
  935MOL0     H26218   3.337   4.346   6.063  1.5794 -0.9694  2.6426
  935MOL0     H26219   3.575   4.267   6.059  0.2270  2.5663  1.2013
  935MOL0     H26220   3.491   4.246   5.910  0.2227 -1.5446  0.0608
  935MOL0     H26221   3.784   4.483   5.754  0.0781 -1.7024 -1.1348
  935MOL0     H26222   3.045   4.446   6.177  0.4472 -0.4885 -2.4848
  935MOL0     H26223   2.888   4.304   5.957 -0.6107 -0.7146 -0.8873
  935MOL0     H26224   2.791   4.200   6.068  1.9469 -2.1659 -0.5899
  935MOL0     H26225   2.806   4.372   6.101  2.6837  1.8688 -3.4764
  936MOL0     O26226   1.168   9.986   4.808  0.1789 -0.3362 -0.5691
  936MOL0     C26227   1.061  10.033   4.851 -0.0590 -0.4457  0.2626
  936MOL0     O26228   0.936  10.023   4.800 -0.5834  0.1345 -0.8725
  936MOL0     C26229   0.898   9.959   4.682 -0.4451  0.3851  0.0502
  936MOL0     C26230   0.759   9.935   4.664  0.3329  0.4635 -0.0135
  936MOL0     C26231   0.710   9.887   4.547  0.8928 -0.1234  1.0241
  936MOL0     C26232   0.797   9.854   4.436  0.9698  0.8805 -0.6487
  936MOL0     O26233   0.759   9.788   4.322  0.4699  0.5625 -0.1888
  936MOL0     C26234   0.637   9.705   4.320  0.2686 -0.5220  0.1580
  936MOL0     C26235   0.595   9.703   4.173 -1.1842  0.4431  0.2364
  936MOL0     C26236   0.522   9.570   4.142  0.5233 -0.2810 -0.0591
  936MOL0     C26237   0.457   9.586   4.002 -0.1683  0.5538  0.8897
  936MOL0     C26238   0.394   9.461   3.947 -0.6751  0.8181  0.5881
  936MOL0     C26239   0.274   9.408   4.024 -0.3407  0.2043  0.0720
  936MOL0     C26240   0.196   9.310   3.934 -0.3769 -0.0662  0.8608
  936MOL0     C26241   0.269   9.191   3.881 -0.4506  0.5403 -0.8260
  936MOL0     N26242   0.183   9.120   3.789  0.0800 -0.3552 -0.2805
  936MOL0     C26243   0.143   9.165   3.664 -0.1908  0.8197  0.1236
  936MOL0     C26244   0.043   9.076   3.628  0.9750 -0.1861  0.1368
  936MOL0     C26245  -0.041   9.066   3.499  0.0192 -0.3016  0.3644
  936MOL0     C26246   0.037   8.990   3.384 -0.0856  0.5681  0.6921
  936MOL0     C26247  -0.052   8.971   3.262  0.4737 -0.9819 -0.6286
  936MOL0     C26248   0.015   8.879   3.150 -0.8211  0.0892  0.1763
  936MOL0     O26249   0.050   8.753   3.203 -0.2872 -0.0976  0.6448
  936MOL0     C26250  -0.046   8.660   3.219  1.0979  0.5422  0.3047
  936MOL0     C26251  -0.186   8.675   3.187 -0.4979  1.1192  0.8723
  936MOL0     C26252  -0.276   8.566   3.187 -0.7370  0.5694  0.2757
  936MOL0     C26253  -0.242   8.441   3.242  0.9071 -0.6606  0.6692
  936MOL0     C26254  -0.344   8.335   3.265 -0.0193 -0.1011 -0.7270
  936MOL0     O26255  -0.471   8.364   3.229  0.3125 -0.0543  0.0409
  936MOL0     C26256  -0.568   8.279   3.264  0.3407  0.2213  0.1604
  936MOL0     C26257  -0.676   8.260   3.169 -0.5094 -0.3102  0.0034
  936MOL0     C26258  -0.774   8.157   3.203 -0.5106  0.9550 -0.7016
  936MOL0     C26259  -0.780   8.095   3.337  0.2721  0.6461 -0.3231
  936MOL0     O26260  -0.886   8.026   3.391 -0.0193 -0.5704 -0.0282
  936MOL0     C26261  -0.934   7.925   3.308 -0.8032 -0.9566  1.6117
  936MOL0     C26262  -0.980   7.822   3.401  0.2368  0.4266  0.6484
  936MOL0     C26263  -0.885   7.803   3.520 -0.0191 -0.5078 -0.3314
  936MOL0     C26264  -0.928   7.681   3.600  0.4121 -0.7719 -0.0215
  936MOL0     C26265  -0.876   7.549   3.541 -0.5159 -0.7626 -0.3542
  936MOL0     C26266  -0.921   7.419   3.629 -0.1807 -0.0067 -0.2863
  936MOL0     C26267  -0.880   7.290   3.549  0.0197 -1.3774  0.7649
  936MOL0     C26268  -0.877   7.166   3.633  0.5651  0.0197  0.6528
  936MOL0    Cl26269  -0.729   7.157   3.737  0.7170 -0.3757  0.0620
  936MOL0     C26270  -0.696   8.139   3.427  0.1197  0.5604  1.1423
  936MOL0     C26271  -0.587   8.225   3.388  0.1932  0.1175  0.6100
  936MOL0     O26272  -0.300   8.234   3.322  0.6714 -0.6735  0.0818
  936MOL0     C26273  -0.117   8.437   3.290 -0.2100 -0.1600 -0.5280
  936MOL0     C26274  -0.024   8.538   3.278 -1.3799 -0.0121 -0.8142
  936MOL0     N26275   0.019   8.980   3.727 -0.0026 -0.1634  0.2626
  936MOL0     N26276   0.113   9.002   3.818  0.2596  0.2273  0.4201
  936MOL0     C26277   0.928   9.889   4.456 -0.8595  1.0911 -1.0228
  936MOL0     C26278   0.983   9.931   4.580 -0.1523  0.3899  0.4551
  936MOL0     C26279   1.083  10.127   4.962 -0.2446 -0.8491  0.0781
  936MOL0     C26280   1.205  10.203   4.975 -0.6678 -0.5064  1.2689
  936MOL0     C26281   1.229  10.294   5.071  1.6328 -0.2713  0.0165
  936MOL0     C26282   1.120  10.323   5.163  0.2336  0.8052  0.0780
  936MOL0     O26283   1.121  10.419   5.256  0.1770  0.4547  0.1847
  936MOL0     C26284   1.229  10.515   5.263 -0.7249  0.4834 -0.3036
  936MOL0     C26285   1.200  10.603   5.386 -0.2921  0.0909 -0.3909
  936MOL0     C26286   1.334  10.659   5.433  0.7800 -0.2844 -0.2751
  936MOL0     C26287   1.318  10.775   5.529  0.7028  0.1646  0.0924
  936MOL0     C26288   1.449  10.811   5.571 -1.3566  0.2928  0.5060
  936MOL0     C26289   1.563  10.847   5.599  0.4243  0.2269 -0.3134
  936MOL0     C26290   1.005  10.249   5.153  1.0177  0.9683 -0.1083
  936MOL0     C26291   0.982  10.155   5.060 -0.3600  1.1138  0.4862
  936MOL0     C26292   0.846  10.086   5.070 -0.0519  0.6204  0.1199
  936MOL0     H26293   0.685   9.957   4.740 -0.5842  1.3317 -1.1374
  936MOL0     H26294   0.605   9.875   4.525  0.9064  2.5246 -1.0337
  936MOL0     H26295   0.657   9.610   4.371 -1.3121 -0.4337  0.9869
  936MOL0     H26296   0.545   9.746   4.360  0.6967  0.0152  0.5959
  936MOL0     H26297   0.681   9.719   4.108 -0.7600  0.0645  0.6905
  936MOL0     H26298   0.526   9.785   4.151 -0.2925  1.5782  1.4685
  936MOL0     H26299   0.446   9.557   4.219  0.1598  3.1342  0.3448
  936MOL0     H26300   0.591   9.485   4.142  2.0889  0.9106 -1.5409
  936MOL0     H26301   0.383   9.666   4.001 -0.6063  0.6089  6.3634
  936MOL0     H26302   0.536   9.618   3.934  1.7310  1.9574  3.5729
  936MOL0     H26303   0.368   9.493   3.846  1.9125  0.3762 -0.3032
  936MOL0     H26304   0.473   9.386   3.935  2.6769  4.2312 -0.5062
  936MOL0     H26305   0.309   9.354   4.112  0.9841  0.1327 -0.4621
  936MOL0     H26306   0.218   9.494   4.061  0.9270  1.0091  0.1918
  936MOL0     H26307   0.137   9.360   3.857  0.6619  0.7335  0.5665
  936MOL0     H26308   0.112   9.267   3.990 -1.5785 -1.3783 -1.7723
  936MOL0     H26309   0.363   9.215   3.830  0.2782 -0.6936 -0.1280
  936MOL0     H26310   0.294   9.127   3.967  0.9946  1.2997 -0.6401
  936MOL0     H26311   0.181   9.247   3.606  2.1742  1.3458  2.2564
  936MOL0     H26312  -0.136   9.017   3.523  1.0349 -1.6469  1.8095
  936MOL0     H26313  -0.069   9.166   3.464 -1.9052 -1.0935 -0.5131
  936MOL0     H26314   0.130   9.047   3.372  0.0072  0.2510 -0.1767
  936MOL0     H26315   0.057   8.891   3.427 -1.7364  1.2329  3.2251
  936MOL0     H26316  -0.074   9.069   3.220 -3.3462 -0.5427  1.9346
  936MOL0     H26317  -0.147   8.921   3.284 -0.0655  0.4315  0.3623
  936MOL0     H26318   0.107   8.917   3.105  2.1701 -0.4093  5.1739
  936MOL0     H26319  -0.049   8.881   3.061  0.5121  0.7971 -0.8202
  936MOL0     H26320  -0.219   8.768   3.141 -5.5102 -1.5796 -1.8197
  936MOL0     H26321  -0.375   8.588   3.147  0.6670  2.5770 -2.5085
  936MOL0     H26322  -0.684   8.302   3.069 -3.3316 -1.1344 -0.2081
  936MOL0     H26323  -0.844   8.144   3.121 -1.4904 -1.3602  0.4179
  936MOL0     H26324  -1.014   7.967   3.246 -1.8091 -0.4302  3.2027
  936MOL0     H26325  -0.857   7.887   3.240  0.5254 -2.6904  3.9505
  936MOL0     H26326  -1.081   7.857   3.428 -0.0397  3.5613 -3.4134
  936MOL0     H26327  -1.001   7.727   3.351 -2.4855  0.5829  1.3055
  936MOL0     H26328  -0.777   7.794   3.502  0.1701  0.9719 -0.0815
  936MOL0     H26329  -0.900   7.890   3.584 -2.0617  0.1400 -1.5893
  936MOL0     H26330  -1.038   7.679   3.604  0.4291 -1.8715  0.3438
  936MOL0     H26331  -0.894   7.702   3.702  0.3955  3.7811 -0.7503
  936MOL0     H26332  -0.770   7.548   3.514  0.2522  1.5606  2.1140
  936MOL0     H26333  -0.929   7.543   3.446 -0.5096  3.0395 -0.7308
  936MOL0     H26334  -0.861   7.413   3.720 -2.2829 -0.1767  1.1518
  936MOL0     H26335  -1.028   7.407   3.646 -0.2984 -2.9175 -2.3574
  936MOL0     H26336  -0.800   7.324   3.483 -0.4010 -0.2158  0.8283
  936MOL0     H26337  -0.965   7.270   3.483 -0.2891 -0.5192  0.8894
  936MOL0     H26338  -0.959   7.176   3.705  0.0135  0.2735 -0.0060
  936MOL0     H26339  -0.900   7.075   3.578 -0.1825  1.7036 -2.0164
  936MOL0     H26340  -0.703   8.089   3.523 -0.7233  1.7122  1.7083
  936MOL0     H26341  -0.518   8.225   3.472 -1.8639 -1.1440  2.3954
  936MOL0     H26342  -0.083   8.348   3.342  3.1843  0.2068 -1.8480
  936MOL0     H26343   0.073   8.538   3.326 -0.6900  2.8960 -2.0174
  936MOL0     H26344   0.994   9.875   4.370  0.5700  0.8768  0.0677
  936MOL0     H26345   1.091   9.932   4.594 -0.1245  2.2095  0.2923
  936MOL0     H26346   1.284  10.200   4.900 -1.1766 -1.2319  0.7481
  936MOL0     H26347   1.319  10.353   5.060  0.5622  2.0429  2.3579
  936MOL0     H26348   1.233  10.582   5.176  0.5392  2.1843  0.9728
  936MOL0     H26349   1.329  10.472   5.275 -0.3912  1.5210  0.9873
  936MOL0     H26350   1.163  10.536   5.464  0.3425  0.0666 -0.1054
  936MOL0     H26351   1.127  10.677   5.354  0.5323  1.1201  0.0671
  936MOL0     H26352   1.405  10.684   5.353 -0.7698  2.3895 -0.9461
  936MOL0     H26353   1.373  10.575   5.490 -2.3482 -2.6159 -1.2665
  936MOL0     H26354   1.255  10.858   5.495 -2.2192 -0.5343  3.2322
  936MOL0     H26355   1.256  10.729   5.608  0.7755  1.2957  0.8287
  936MOL0     H26356   1.651  10.892   5.640  0.9665  0.8450 -2.0975
  936MOL0     H26357   0.923  10.270   5.220  0.2446 -1.7811 -0.0611
  936MOL0     H26358   0.811  10.104   5.172  0.7744 -0.6250  0.6528
  936MOL0     H26359   0.772  10.138   5.009 -0.4412  3.0028  2.4492
  936MOL0     H26360   0.848   9.976   5.064  0.4682  0.4587  2.3898
  937MOL0     O26361   7.357   8.386   8.778  0.5111 -0.0973 -0.1421
  937MOL0     C26362   7.359   8.294   8.704  0.2114 -0.2335  0.2959
  937MOL0     O26363   7.268   8.190   8.701  0.4198 -0.0514  0.1351
  937MOL0     C26364   7.154   8.191   8.786  0.8957  0.0972  0.8040
  937MOL0     C26365   7.124   8.080   8.872 -0.9006  0.3693  0.4952
  937MOL0     C26366   7.012   8.063   8.954 -1.4010  0.3175  0.0578
  937MOL0     C26367   6.911   8.168   8.952 -0.1588  1.3890  0.3235
  937MOL0     O26368   6.803   8.142   9.029  0.2906  0.8461  0.2121
  937MOL0     C26369   6.699   8.240   9.050  0.3720  0.7946 -0.1259
  937MOL0     C26370   6.608   8.250   8.924  0.0375 -0.7123 -0.1483
  937MOL0     C26371   6.502   8.362   8.925 -0.8109 -0.0727 -1.2658
  937MOL0     C26372   6.403   8.331   9.037 -0.0848 -0.1941  0.6025
  937MOL0     C26373   6.309   8.216   9.014 -0.5071  0.5800 -1.2567
  937MOL0     C26374   6.192   8.223   9.125  0.9657 -0.1667 -0.3502
  937MOL0     C26375   6.069   8.142   9.090  0.6023 -0.4204  0.8846
  937MOL0     C26376   5.934   8.183   9.129 -0.4326  0.8563  0.8980
  937MOL0     N26377   5.905   8.133   9.260 -0.1734 -0.1012  0.5710
  937MOL0     C26378   5.931   8.194   9.380 -0.9283 -0.1873  0.0998
  937MOL0     C26379   5.869   8.113   9.465  0.0288  0.2424 -0.4967
  937MOL0     C26380   5.846   8.146   9.608  0.8276  0.6705  0.0180
  937MOL0     C26381   5.707   8.219   9.631 -0.8122  1.1853  0.4646
  937MOL0     C26382   5.685   8.361   9.571  0.3233 -0.5036  0.4966
  937MOL0     C26383   5.803   8.455   9.590 -0.3230 -1.7997 -0.6371
  937MOL0     O26384   5.812   8.514   9.722 -0.9633  0.8078 -0.0408
  937MOL0     C26385   5.711   8.597   9.764  0.3958 -0.2137 -0.9383
  937MOL0     C26386   5.628   8.549   9.866  0.3519  0.3245  0.7305
  937MOL0     C26387   5.517   8.617   9.904 -0.0761  0.5983  0.5078
  937MOL0     C26388   5.489   8.748   9.854 -0.7287 -0.9608  0.3316
  937MOL0     C26389   5.353   8.806   9.878  0.1965 -0.2895  0.0702
  937MOL0     O26390   5.325   8.918   9.802 -0.5058 -0.3347 -0.3197
  937MOL0     C26391   5.200   8.958   9.814 -0.3902  0.5279 -0.4619
  937MOL0     C26392   5.100   8.904   9.731 -0.2324 -0.0169 -0.6535
  937MOL0     C26393   4.979   8.966   9.717 -0.0059 -0.4507 -0.0785
  937MOL0     C26394   4.948   9.077   9.794 -0.3244 -0.2332 -0.7339
  937MOL0     O26395   4.821   9.128   9.798 -0.4387 -0.7823 -0.0405
  937MOL0     C26396   4.817   9.239   9.707  0.8264 -0.5700 -0.1476
  937MOL0     C26397   4.845   9.372   9.773 -0.0296  0.3159  0.4712
  937MOL0     C26398   4.764   9.389   9.905 -0.5313 -0.0909 -0.4202
  937MOL0     C26399   4.811   9.524   9.976 -1.5186  0.3961 -0.7108
  937MOL0     C26400   4.767   9.512  10.130 -0.5854 -0.2995  0.3542
  937MOL0     C26401   4.617   9.553  10.158 -1.1766  0.2915 -0.2348
  937MOL0     C26402   4.572   9.532  10.304  0.4942  0.8042 -0.1381
  937MOL0     C26403   4.591   9.381  10.348  0.8977 -0.1382  0.6689
  937MOL0    Cl26404   4.476   9.285  10.251 -0.1507  0.6515 -0.3430
  937MOL0     C26405   5.047   9.132   9.892  0.1777  0.5662  1.1559
  937MOL0     C26406   5.171   9.061   9.897  0.2487 -0.2406 -0.4083
  937MOL0     O26407   5.271   8.752   9.944 -0.2856  0.0920 -0.6401
  937MOL0     C26408   5.585   8.803   9.759  0.3427 -0.4953 -0.0278
  937MOL0     C26409   5.699   8.727   9.714  0.3835  0.1237  0.3380
  937MOL0     N26410   5.804   8.008   9.403  0.3050 -0.7930 -0.0626
  937MOL0     N26411   5.841   8.014   9.277 -0.0926 -0.0466 -0.2378
  937MOL0     C26412   6.941   8.285   8.870 -0.3952  0.3694 -0.3289
  937MOL0     C26413   7.057   8.296   8.798  0.3410  0.4198  0.6888
  937MOL0     C26414   7.474   8.282   8.604  1.0473  0.0653 -0.6240
  937MOL0     C26415   7.546   8.164   8.602 -0.0665 -0.4878 -0.1959
  937MOL0     C26416   7.664   8.165   8.524  0.2130  1.0913 -0.0184
  937MOL0     C26417   7.720   8.282   8.465  0.2115 -0.2507 -1.0176
  937MOL0     O26418   7.832   8.296   8.399 -0.5573  0.3382  0.1715
  937MOL0     C26419   7.921   8.190   8.373  0.2819 -0.1134 -0.9183
  937MOL0     C26420   8.023   8.204   8.490  0.3787  0.2796  0.3393
  937MOL0     C26421   8.132   8.106   8.466 -0.2685  0.2103 -0.9524
  937MOL0     C26422   8.233   8.095   8.577 -0.1068  0.1502 -0.7494
  937MOL0     C26423   8.312   8.217   8.599 -0.1534 -0.0824  0.3634
  937MOL0     C26424   8.396   8.304   8.618 -0.6032  0.5854 -0.5893
  937MOL0     C26425   7.640   8.393   8.470  0.9771 -0.7039 -0.4675
  937MOL0     C26426   7.514   8.402   8.541 -1.0633  0.4266 -0.1050
  937MOL0     C26427   7.449   8.540   8.543  0.5633 -0.1918 -0.8943
  937MOL0     H26428   7.204   8.007   8.873  1.7790  3.0255 -1.2755
  937MOL0     H26429   7.009   7.965   8.999  2.5527  0.1763  0.4155
  937MOL0     H26430   6.630   8.211   9.130 -0.1954  0.0785 -0.8501
  937MOL0     H26431   6.745   8.335   9.079 -0.6694  1.1716  0.3402
  937MOL0     H26432   6.570   8.150   8.901  2.2808 -1.4982 -0.6647
  937MOL0     H26433   6.664   8.263   8.831  1.0051 -3.5772 -0.0627
  937MOL0     H26434   6.451   8.378   8.830 -1.1375  4.7248 -0.4984
  937MOL0     H26435   6.552   8.458   8.943 -1.0043 -0.5305  2.5536
  937MOL0     H26436   6.462   8.324   9.129  2.0334 -0.2810 -0.7091
  937MOL0     H26437   6.340   8.418   9.055 -2.6513 -1.9424  0.7688
  937MOL0     H26438   6.273   8.229   8.911 -0.6963  2.3078 -1.0044
  937MOL0     H26439   6.369   8.125   9.021  0.3236  1.2604  2.4503
  937MOL0     H26440   6.225   8.182   9.221 -1.4580 -1.2566  0.1056
  937MOL0     H26441   6.163   8.327   9.139  2.8159  0.2546  0.6669
  937MOL0     H26442   6.074   8.037   9.121  1.7348 -0.9237 -0.8350
  937MOL0     H26443   6.065   8.142   8.981 -3.6096  2.2684  0.8131
  937MOL0     H26444   5.905   8.288   9.122  0.5467  1.0995  0.2202
  937MOL0     H26445   5.870   8.129   9.059  0.1397  2.7702 -1.2370
  937MOL0     H26446   5.980   8.290   9.395 -0.1235 -0.5222 -0.2942
  937MOL0     H26447   5.841   8.056   9.671 -1.1621  1.9954  1.9176
  937MOL0     H26448   5.930   8.201   9.651  0.4987 -0.0731  1.6986
  937MOL0     H26449   5.630   8.152   9.592 -1.8824  1.0188  2.6874
  937MOL0     H26450   5.675   8.223   9.736  0.9140 -1.6152  1.2081
  937MOL0     H26451   5.589   8.401   9.602  0.3150 -1.5879  1.9531
  937MOL0     H26452   5.669   8.344   9.464  0.1855  0.8896  0.2898
  937MOL0     H26453   5.805   8.530   9.510 -2.7078 -0.6392  0.2721
  937MOL0     H26454   5.896   8.402   9.569 -0.5528 -2.0603 -1.0051
  937MOL0     H26455   5.654   8.451   9.906 -0.4888 -0.3149 -0.2275
  937MOL0     H26456   5.439   8.567   9.961 -1.0567  0.0740 -1.2317
  937MOL0     H26457   5.117   8.816   9.670 -0.5332  1.0535 -2.3529
  937MOL0     H26458   4.899   8.921   9.659  0.1657  0.7727 -1.3467
  937MOL0     H26459   4.877   9.233   9.616  1.0335  1.1422 -0.1564
  937MOL0     H26460   4.717   9.245   9.664  0.4271  0.7594  0.9016
  937MOL0     H26461   4.954   9.374   9.782  0.4380 -1.0674 -3.4449
  937MOL0     H26462   4.820   9.456   9.708 -0.8713 -0.0170  0.3593
  937MOL0     H26463   4.658   9.411   9.888 -0.4486  0.7292  0.0684
  937MOL0     H26464   4.765   9.295   9.963 -5.3275  0.3575  0.8091
  937MOL0     H26465   4.764   9.604   9.920 -0.5127 -0.3420 -2.7366
  937MOL0     H26466   4.919   9.539   9.962 -1.7929  3.4056 -0.1198
  937MOL0     H26467   4.830   9.570  10.198  1.0847  0.2949 -1.5620
  937MOL0     H26468   4.783   9.409  10.162 -1.2882 -0.5045  0.0743
  937MOL0     H26469   4.612   9.660  10.136  3.5610  0.8874  0.5058
  937MOL0     H26470   4.548   9.496  10.095 -0.8877 -0.8353  0.4388
  937MOL0     H26471   4.468   9.564  10.316 -0.2138 -1.4206  0.1435
  937MOL0     H26472   4.633   9.592  10.371  1.1724  0.1675 -0.1659
  937MOL0     H26473   4.692   9.341  10.340  0.7836 -0.1035 -1.9953
  937MOL0     H26474   4.569   9.357  10.452  2.6376  1.4566  1.4590
  937MOL0     H26475   5.040   9.217   9.959 -0.2846  0.6228  1.0407
  937MOL0     H26476   5.248   9.093   9.967  0.7665 -1.9480 -0.1442
  937MOL0     H26477   5.570   8.901   9.715  0.7074 -1.3716 -2.2523
  937MOL0     H26478   5.762   8.778   9.642  0.8239  0.7563  1.1591
  937MOL0     H26479   6.868   8.361   8.892 -1.2665 -0.5603  0.0797
  937MOL0     H26480   7.059   8.387   8.738 -2.1945  0.7420  0.9970
  937MOL0     H26481   7.519   8.087   8.673 -2.3111  0.3563 -0.0488
  937MOL0     H26482   7.728   8.078   8.533 -1.2373  0.0091  0.1503
  937MOL0     H26483   7.973   8.206   8.278  2.4735  4.9340  0.7529
  937MOL0     H26484   7.856   8.103   8.383 -0.3060  0.1644 -2.1894
  937MOL0     H26485   7.984   8.178   8.589  0.2981 -0.6507  0.0668
  937MOL0     H26486   8.059   8.306   8.475 -0.8366  0.3587 -2.8241
  937MOL0     H26487   8.172   8.137   8.369 -0.2899  1.6573 -0.5217
  937MOL0     H26488   8.085   8.008   8.453  0.9545 -0.7419  1.3451
  937MOL0     H26489   8.179   8.064   8.668  3.0240  0.8573  1.5241
  937MOL0     H26490   8.286   8.004   8.547  0.9566  1.2511 -2.2837
  937MOL0     H26491   8.465   8.377   8.655 -0.7423  1.0385 -1.2023
  937MOL0     H26492   7.689   8.478   8.423 -0.5816  0.0392 -0.7903
  937MOL0     H26493   7.358   8.546   8.482  1.5244  2.0988 -2.2160
  937MOL0     H26494   7.424   8.576   8.643  0.8790 -2.2901 -0.0102
  937MOL0     H26495   7.522   8.605   8.495  1.4490 -0.1506  0.4656
  938MOL0     O26496   5.520   7.573   0.459 -1.0381  0.0755  0.3119
  938MOL0     C26497   5.538   7.452   0.433 -0.1680 -0.0129  0.2993
  938MOL0     O26498   5.441   7.345   0.415 -0.3475 -0.5037  0.7250
  938MOL0     C26499   5.313   7.382   0.432 -0.5446 -0.3961  0.4008
  938MOL0     C26500   5.258   7.354   0.551 -0.0491 -0.1671  0.4792
  938MOL0     C26501   5.119   7.372   0.570  0.3754 -0.2623  0.2966
  938MOL0     C26502   5.043   7.441   0.470  0.2271  0.8472  0.3439
  938MOL0     O26503   4.905   7.452   0.483  0.7928 -1.0099 -0.4632
  938MOL0     C26504   4.851   7.413   0.600 -0.1138  0.2063 -0.4198
  938MOL0     C26505   4.700   7.437   0.594 -1.3803  0.0127 -0.6696
  938MOL0     C26506   4.659   7.591   0.610  0.3068  0.2659 -0.2272
  938MOL0     C26507   4.647   7.660   0.474 -0.4676 -0.4136  0.2597
  938MOL0     C26508   4.670   7.816   0.490 -0.3214 -0.9327  0.4528
  938MOL0     C26509   4.802   7.871   0.545 -0.4160  0.4021 -0.2456
  938MOL0     C26510   4.915   7.815   0.465  0.5547 -0.0264 -0.0616
  938MOL0     C26511   5.041   7.906   0.487 -0.0409 -0.7146  1.1435
  938MOL0     N26512   5.101   7.896   0.614 -0.7038  1.2636 -1.0460
  938MOL0     C26513   5.169   7.781   0.662 -0.0220 -0.5746  0.2222
  938MOL0     C26514   5.183   7.804   0.792 -0.8661 -0.3085  0.0628
  938MOL0     C26515   5.227   7.711   0.891 -0.1229 -0.8556 -0.3050
  938MOL0     C26516   5.376   7.690   0.874  0.5317  0.0854  0.7745
  938MOL0     C26517   5.418   7.608   0.995 -0.6091  0.1755 -0.6076
  938MOL0     C26518   5.574   7.591   0.992 -0.0922  0.1943  0.4021
  938MOL0     O26519   5.617   7.505   0.889 -0.3752  0.0793 -0.3975
  938MOL0     C26520   5.738   7.552   0.830  0.4221  0.5560 -1.1627
  938MOL0     C26521   5.752   7.660   0.746 -0.3841 -0.0795 -0.6226
  938MOL0     C26522   5.873   7.691   0.694 -1.4158 -0.4963  0.7560
  938MOL0     C26523   5.986   7.607   0.718 -0.4416 -0.0091 -0.1320
  938MOL0     C26524   6.113   7.642   0.663 -0.7028 -0.2898  0.7447
  938MOL0     O26525   6.218   7.575   0.721  0.0563  0.1082  0.4004
  938MOL0     C26526   6.339   7.533   0.673  0.0385 -0.6228  1.0344
  938MOL0     C26527   6.436   7.497   0.759 -0.9439 -0.5206 -0.2068
  938MOL0     C26528   6.563   7.456   0.727  0.2706  0.0328 -0.5174
  938MOL0     C26529   6.601   7.429   0.592  0.7563 -0.6923  0.1626
  938MOL0     O26530   6.724   7.383   0.546 -0.1821  0.1051  0.9467
  938MOL0     C26531   6.846   7.438   0.597 -0.2624 -0.4760 -0.0071
  938MOL0     C26532   6.959   7.376   0.521  0.1228 -0.7570  0.2630
  938MOL0     C26533   7.095   7.411   0.594 -0.4317 -0.0826  0.1630
  938MOL0     C26534   7.130   7.562   0.604 -0.1307 -0.5204  0.8219
  938MOL0     C26535   7.278   7.579   0.647 -0.2032  0.0763  0.5612
  938MOL0     C26536   7.310   7.724   0.683 -0.3915 -0.1369 -0.0836
  938MOL0     C26537   7.220   7.770   0.800  0.2449 -0.5093  0.8824
  938MOL0     C26538   7.289   7.870   0.892  0.6677 -0.7411 -0.2706
  938MOL0    Cl26539   7.173   7.969   0.970 -0.1087 -0.1604  0.7030
  938MOL0     C26540   6.495   7.447   0.494 -0.5794  0.6826 -0.5186
  938MOL0     C26541   6.373   7.513   0.538 -0.1000  0.0496  0.4477
  938MOL0     O26542   6.119   7.714   0.567  0.8139 -0.8368  0.1716
  938MOL0     C26543   5.964   7.490   0.787 -0.3294  0.3183  0.3778
  938MOL0     C26544   5.842   7.461   0.841 -0.7873 -0.8369 -0.0220
  938MOL0     N26545   5.140   7.929   0.814 -0.3553 -0.0896  0.5218
  938MOL0     N26546   5.080   7.979   0.707  0.9121 -0.2316  0.7054
  938MOL0     C26547   5.104   7.469   0.351 -1.4818  0.2741  0.3336
  938MOL0     C26548   5.243   7.447   0.331 -0.0329  0.5991 -0.9653
  938MOL0     C26549   5.677   7.414   0.452  0.5534 -0.2520  0.4917
  938MOL0     C26550   5.707   7.280   0.507 -0.1027  0.1003  0.6237
  938MOL0     C26551   5.834   7.221   0.516 -0.4292 -0.3942  0.0216
  938MOL0     C26552   5.940   7.300   0.474 -1.9135 -0.4910 -1.0574
  938MOL0     O26553   6.074   7.264   0.487  0.5548 -0.0325  0.8765
  938MOL0     C26554   6.122   7.153   0.583  0.4453 -0.4023  0.6164
  938MOL0     C26555   6.265   7.100   0.548 -0.2939  0.1958  0.4797
  938MOL0     C26556   6.287   7.045   0.402 -0.5725  1.5475 -0.0746
  938MOL0     C26557   6.421   6.974   0.400  0.4236  0.2649  0.4093
  938MOL0     C26558   6.522   7.083   0.384  0.1639  0.2800  0.6338
  938MOL0     C26559   6.628   7.153   0.368  0.2414 -0.7123  0.1071
  938MOL0     C26560   5.919   7.429   0.417  1.0015 -0.3969  0.7296
  938MOL0     C26561   5.789   7.491   0.405  0.5426 -0.1334 -0.5311
  938MOL0     C26562   5.776   7.639   0.354 -0.3359 -0.3718  0.8494
  938MOL0     H26563   5.314   7.314   0.635 -0.5013  0.1757  0.9581
  938MOL0     H26564   5.088   7.345   0.670 -1.3421 -1.5587 -0.5324
  938MOL0     H26565   4.871   7.306   0.607  1.5384 -0.0443 -5.4558
  938MOL0     H26566   4.896   7.471   0.681  2.0969 -1.4163 -0.3998
  938MOL0     H26567   4.670   7.380   0.683 -2.3255 -0.8556 -1.5166
  938MOL0     H26568   4.657   7.368   0.520  1.0625 -1.9346 -0.3902
  938MOL0     H26569   4.738   7.634   0.672  1.8081 -0.8670 -1.2809
  938MOL0     H26570   4.562   7.596   0.660  1.2971  1.3836  1.7016
  938MOL0     H26571   4.719   7.623   0.401  1.8403  2.1693  1.0484
  938MOL0     H26572   4.542   7.659   0.445 -1.2841  0.3167  2.8815
  938MOL0     H26573   4.659   7.843   0.384  0.6260 -0.4365  0.4722
  938MOL0     H26574   4.591   7.866   0.546 -0.5722  0.1356 -0.7869
  938MOL0     H26575   4.794   7.980   0.538  1.0432  0.4787 -0.9686
  938MOL0     H26576   4.818   7.843   0.650  0.4909 -1.7991 -0.9264
  938MOL0     H26577   4.893   7.812   0.358  0.6832  0.0503 -0.0904
  938MOL0     H26578   4.937   7.716   0.505  3.0661 -0.2414 -1.7338
  938MOL0     H26579   5.111   7.859   0.418 -1.5224 -1.0746 -0.1708
  938MOL0     H26580   5.024   8.012   0.464  1.1246 -1.0723 -1.8197
  938MOL0     H26581   5.192   7.693   0.602 -0.7856 -0.6000 -0.0445
  938MOL0     H26582   5.202   7.750   0.991 -0.4614  0.9187 -1.0361
  938MOL0     H26583   5.197   7.608   0.872  1.7050 -1.3571 -0.6815
  938MOL0     H26584   5.403   7.634   0.784  1.2491  2.0435 -0.2910
  938MOL0     H26585   5.432   7.784   0.873  1.3338 -0.3861  0.3853
  938MOL0     H26586   5.373   7.508   0.997  2.2019 -1.1923 -0.9639
  938MOL0     H26587   5.405   7.668   1.085  1.7179  1.4675 -1.0409
  938MOL0     H26588   5.612   7.549   1.086  0.1685  0.1433  0.2734
  938MOL0     H26589   5.616   7.691   0.979  1.2799 -0.2158  1.4345
  938MOL0     H26590   5.662   7.720   0.739  0.1421  0.9897  1.1231
  938MOL0     H26591   5.884   7.777   0.628 -1.2669 -0.1494  1.2204
  938MOL0     H26592   6.415   7.499   0.866  3.5781 -2.7725  0.9940
  938MOL0     H26593   6.629   7.443   0.813  0.3240  3.1237  0.0271
  938MOL0     H26594   6.838   7.546   0.582 -2.5931 -0.9126 -2.7790
  938MOL0     H26595   6.862   7.417   0.703 -1.0822 -1.5405 -0.0792
  938MOL0     H26596   6.952   7.267   0.530 -1.4088 -0.8072 -0.9533
  938MOL0     H26597   6.955   7.410   0.417  0.3675  1.2304  0.8636
  938MOL0     H26598   7.092   7.359   0.690  0.1936 -1.5451 -0.5913
  938MOL0     H26599   7.173   7.364   0.534  1.3919  1.2920  1.3528
  938MOL0     H26600   7.054   7.612   0.665 -0.4344 -0.6240  0.5367
  938MOL0     H26601   7.122   7.617   0.509  0.5808 -1.1186  0.4022
  938MOL0     H26602   7.343   7.544   0.566 -2.4795  1.2305 -1.8930
  938MOL0     H26603   7.292   7.520   0.738 -1.7821 -0.5680  0.4223
  938MOL0     H26604   7.413   7.723   0.718 -0.4262 -0.2025  0.0165
  938MOL0     H26605   7.298   7.789   0.596  2.3267 -0.1847 -0.5818
  938MOL0     H26606   7.188   7.690   0.867 -3.6669  0.2987  0.2248
  938MOL0     H26607   7.134   7.816   0.749  0.4769 -2.2865 -1.2211
  938MOL0     H26608   7.355   7.824   0.966  0.1224  0.4539  0.9917
  938MOL0     H26609   7.344   7.942   0.830  1.1747  0.2809  1.3210
  938MOL0     H26610   6.531   7.432   0.393  0.5529 -0.9273  0.0811
  938MOL0     H26611   6.301   7.543   0.462 -1.7379 -0.1673  1.8738
  938MOL0     H26612   6.040   7.415   0.801  1.3237  2.1237  1.7185
  938MOL0     H26613   5.830   7.380   0.912 -0.1352 -0.0788  0.9713
  938MOL0     H26614   5.054   7.525   0.273 -0.9780  0.6029  0.2416
  938MOL0     H26615   5.291   7.456   0.234  0.1314  1.6389 -0.8004
  938MOL0     H26616   5.620   7.222   0.539 -0.9800  1.3390  0.5510
  938MOL0     H26617   5.854   7.125   0.564  0.3103  0.8399  2.3184
  938MOL0     H26618   6.059   7.063   0.586 -3.7951  2.2276  0.0149
  938MOL0     H26619   6.119   7.188   0.687  3.2131 -4.4839  2.3473
  938MOL0     H26620   6.292   7.021   0.619  0.0366 -0.1374 -0.0131
  938MOL0     H26621   6.340   7.178   0.564  0.1428 -0.1752  0.2749
  938MOL0     H26622   6.290   7.117   0.320 -0.7787  1.8043  0.1440
  938MOL0     H26623   6.212   6.968   0.381  2.6735 -1.9655  0.1085
  938MOL0     H26624   6.433   6.911   0.488 -1.0498  1.1568  1.2856
  938MOL0     H26625   6.419   6.903   0.317 -2.0047 -2.1213  2.3500
  938MOL0     H26626   6.722   7.200   0.346  1.1489 -2.7310 -0.5891
  938MOL0     H26627   6.000   7.488   0.374  0.1467 -0.1132 -0.5689
  938MOL0     H26628   5.866   7.673   0.302  0.6000 -1.5768  1.6242
  938MOL0     H26629   5.689   7.656   0.290 -0.8308  2.5332  2.1377
  938MOL0     H26630   5.777   7.706   0.441  0.1451 -0.4905  0.9354
  939MOL0     O26631   5.175   2.489   8.324  0.5094  1.0179  0.2582
  939MOL0     C26632   5.069   2.528   8.286  0.6724 -0.4972 -0.0854
  939MOL0     O26633   4.967   2.463   8.224 -0.2217 -0.0914  0.6556
  939MOL0     C26634   4.982   2.332   8.193 -0.6987 -0.0975  1.0953
  939MOL0     C26635   4.926   2.290   8.072  0.6531 -0.1689  0.0835
  939MOL0     C26636   4.932   2.157   8.025 -0.3310 -0.5999 -0.3785
  939MOL0     C26637   5.010   2.053   8.094 -0.2148 -0.1482 -0.2552
  939MOL0     O26638   5.042   1.924   8.049 -0.0224  0.1040  0.5938
  939MOL0     C26639   4.930   1.853   7.994 -0.1022  0.2526  0.4527
  939MOL0     C26640   4.853   1.798   8.113  0.5007 -0.3866 -1.3412
  939MOL0     C26641   4.936   1.700   8.199 -0.7402  0.4207  0.5220
  939MOL0     C26642   4.892   1.555   8.184  0.1019 -0.0128  0.2182
  939MOL0     C26643   4.946   1.462   8.301  0.7545 -0.6223 -0.2398
  939MOL0     C26644   4.861   1.458   8.420  0.6622  0.3962 -0.0100
  939MOL0     C26645   4.723   1.389   8.405  0.1744 -1.2227 -0.0253
  939MOL0     C26646   4.660   1.368   8.549  0.6259  0.0644  0.5466
  939MOL0     N26647   4.707   1.246   8.623  0.0474  0.3621 -0.2333
  939MOL0     C26648   4.627   1.177   8.707  0.5428 -0.2542  0.4052
  939MOL0     C26649   4.699   1.060   8.718  0.3630  0.6432 -1.5695
  939MOL0     C26650   4.652   0.950   8.808 -0.6648  0.9653  0.5910
  939MOL0     C26651   4.521   0.970   8.872  0.3903 -0.4268  0.0894
  939MOL0     C26652   4.488   0.864   8.986 -0.3638  0.4718  0.2414
  939MOL0     C26653   4.345   0.892   9.046 -0.0609  0.4844  0.1501
  939MOL0     O26654   4.256   0.894   8.934 -0.9990 -0.8237  0.0482
  939MOL0     C26655   4.127   0.940   8.950 -0.1061  0.8089 -0.1081
  939MOL0     C26656   4.046   0.945   8.836  0.3315 -0.4245 -0.4556
  939MOL0     C26657   3.907   0.970   8.837 -0.3027  0.1891 -0.0941
  939MOL0     C26658   3.852   1.009   8.960  0.4016 -0.2353 -1.0423
  939MOL0     C26659   3.713   1.060   8.962 -0.0822 -0.5807 -1.3995
  939MOL0     O26660   3.663   1.096   8.842  0.3084  0.0366  0.5433
  939MOL0     C26661   3.532   1.133   8.832  0.0469  1.2512  0.5396
  939MOL0     C26662   3.514   1.273   8.854 -0.5759 -0.3169  0.2160
  939MOL0     C26663   3.391   1.333   8.824  0.1060 -0.2306 -0.4050
  939MOL0     C26664   3.290   1.252   8.776 -0.4724 -0.1023 -0.0237
  939MOL0     O26665   3.174   1.301   8.726 -0.1413  0.2730 -0.5486
  939MOL0     C26666   3.142   1.439   8.744 -0.5190 -0.0277 -0.1831
  939MOL0     C26667   3.005   1.482   8.685  1.1219 -0.5441 -0.2159
  939MOL0     C26668   2.961   1.627   8.723  0.1733 -0.3196 -0.4620
  939MOL0     C26669   2.821   1.675   8.668 -0.1636  0.1026  0.4562
  939MOL0     C26670   2.705   1.612   8.744  0.1203  1.0122  1.2732
  939MOL0     C26671   2.675   1.651   8.888 -0.5585 -0.2584 -0.0455
  939MOL0     C26672   2.632   1.798   8.903 -0.0465  0.5484 -0.2914
  939MOL0     C26673   2.551   1.831   9.024 -0.6076  0.2418  0.5125
  939MOL0    Cl26674   2.396   1.738   9.013 -0.5413  0.3969 -0.0764
  939MOL0     C26675   3.306   1.118   8.767  0.7814  0.9377  0.5616
  939MOL0     C26676   3.432   1.052   8.781  0.6791 -0.7197 -0.9349
  939MOL0     O26677   3.658   1.081   9.071  0.1104  0.0029  0.8965
  939MOL0     C26678   3.931   0.996   9.082  0.5475 -0.4943 -0.7718
  939MOL0     C26679   4.062   0.972   9.075 -0.1071  0.2458 -1.1426
  939MOL0     N26680   4.819   1.068   8.651  0.5416 -0.2248 -0.9401
  939MOL0     N26681   4.819   1.172   8.577  0.7220  0.8324 -0.3209
  939MOL0     C26682   5.063   2.093   8.219  0.1174  0.0939  0.6420
  939MOL0     C26683   5.046   2.228   8.267 -1.0720 -0.3955  1.0096
  939MOL0     C26684   5.053   2.676   8.289  0.4691 -0.1779 -0.1724
  939MOL0     C26685   5.045   2.748   8.163  0.1256 -1.4022 -0.1011
  939MOL0     C26686   5.057   2.888   8.150 -0.1380  0.3814  0.0877
  939MOL0     C26687   5.064   2.964   8.270 -0.7471 -0.3619  0.2894
  939MOL0     O26688   5.074   3.099   8.269 -0.0735 -0.0787  0.1763
  939MOL0     C26689   5.133   3.187   8.365 -0.3322  0.1241 -0.1009
  939MOL0     C26690   5.282   3.185   8.381  1.2665 -0.3928 -1.0075
  939MOL0     C26691   5.340   3.298   8.469 -0.3230 -0.2971  0.6245
  939MOL0     C26692   5.326   3.268   8.615 -0.8846 -0.3236 -0.4709
  939MOL0     C26693   5.394   3.137   8.648 -0.1148  0.0127  0.0413
  939MOL0     C26694   5.455   3.037   8.673 -0.4928 -0.1094 -1.3350
  939MOL0     C26695   5.062   2.897   8.394  0.8926  0.0455 -0.8965
  939MOL0     C26696   5.068   2.756   8.409 -1.0226 -0.1865  0.6892
  939MOL0     C26697   5.113   2.699   8.537 -0.0428 -0.7414  0.4110
  939MOL0     H26698   4.868   2.352   8.005 -3.3136 -3.3981  0.1307
  939MOL0     H26699   4.893   2.135   7.926 -0.4703 -0.2493 -0.4058
  939MOL0     H26700   4.858   1.924   7.952  0.4619  2.5706  3.0938
  939MOL0     H26701   4.954   1.772   7.925 -0.0024  0.5207  0.1704
  939MOL0     H26702   4.761   1.747   8.084  0.0688  0.0250 -0.7294
  939MOL0     H26703   4.831   1.886   8.174 -0.5066 -0.1451 -2.0306
  939MOL0     H26704   4.914   1.737   8.300  1.1829 -0.7286  1.3978
  939MOL0     H26705   5.044   1.697   8.182 -0.2532  1.4719  2.9213
  939MOL0     H26706   4.783   1.545   8.187  0.0742  0.3601  0.5016
  939MOL0     H26707   4.934   1.518   8.090 -0.0977 -0.8692  0.4624
  939MOL0     H26708   4.968   1.360   8.267 -1.7188 -1.4018  0.3656
  939MOL0     H26709   5.036   1.515   8.336 -0.5487  0.9009  0.9311
  939MOL0     H26710   4.915   1.409   8.502  2.3672  0.1453 -1.2400
  939MOL0     H26711   4.859   1.563   8.450 -0.4646  1.0013 -2.0172
  939MOL0     H26712   4.712   1.299   8.344 -1.0602 -1.5579  0.6547
  939MOL0     H26713   4.658   1.470   8.373 -0.3245 -0.7707  1.9648
  939MOL0     H26714   4.667   1.453   8.619  2.0586  0.7051 -0.3277
  939MOL0     H26715   4.552   1.354   8.538  0.0167  0.8621  4.1317
  939MOL0     H26716   4.535   1.214   8.752  2.0804  3.8989  0.5657
  939MOL0     H26717   4.656   0.862   8.743  0.4677 -0.8171  2.9306
  939MOL0     H26718   4.722   0.950   8.892 -3.1084  3.3486  2.8427
  939MOL0     H26719   4.520   1.071   8.913 -0.0682  0.1531 -1.2855
  939MOL0     H26720   4.440   0.959   8.799 -1.2193 -4.4342  2.1413
  939MOL0     H26721   4.557   0.866   9.070 -3.7119 -0.0734  3.2519
  939MOL0     H26722   4.461   0.762   8.958 -0.2048 -0.2827  2.6263
  939MOL0     H26723   4.340   0.988   9.098  0.3834 -0.1073  1.3237
  939MOL0     H26724   4.321   0.820   9.126  2.7281  0.1152  0.7343
  939MOL0     H26725   4.102   0.937   8.743  0.6749  0.0201 -0.2879
  939MOL0     H26726   3.851   0.966   8.745 -1.6362 -0.4952  0.7067
  939MOL0     H26727   3.592   1.342   8.884 -1.0038  0.2270  0.0867
  939MOL0     H26728   3.383   1.441   8.822  1.5231 -0.1192 -0.8856
  939MOL0     H26729   3.139   1.455   8.852  1.0514 -1.3513  0.0942
  939MOL0     H26730   3.215   1.500   8.691 -1.1574 -0.8029 -2.0206
  939MOL0     H26731   3.024   1.466   8.579 -1.0554 -0.4232 -0.6681
  939MOL0     H26732   2.930   1.406   8.709 -0.9395  1.3109 -0.4614
  939MOL0     H26733   2.968   1.629   8.832 -0.2090  2.1803 -0.4236
  939MOL0     H26734   3.022   1.706   8.679 -0.9022  0.7162 -0.1472
  939MOL0     H26735   2.804   1.657   8.561 -2.5763  1.8746  0.4714
  939MOL0     H26736   2.821   1.784   8.671  0.5197  0.1245 -0.0613
  939MOL0     H26737   2.729   1.505   8.748  3.2065  1.6155  1.5902
  939MOL0     H26738   2.611   1.617   8.689  0.8877 -1.9884 -0.5841
  939MOL0     H26739   2.598   1.585   8.928 -1.6510  1.5381  0.9444
  939MOL0     H26740   2.765   1.649   8.951 -1.1565  2.7318  1.0637
  939MOL0     H26741   2.572   1.836   8.819  0.8854 -2.7974 -2.6748
  939MOL0     H26742   2.729   1.850   8.900 -0.5883  1.7663  1.4207
  939MOL0     H26743   2.602   1.803   9.117 -0.7948 -0.2630  0.4660
  939MOL0     H26744   2.534   1.939   9.028 -1.1303  0.3402 -2.5611
  939MOL0     H26745   3.228   1.055   8.725 -0.1122  1.8913  0.7550
  939MOL0     H26746   3.453   0.947   8.762 -2.8596 -1.3794 -1.9614
  939MOL0     H26747   3.879   1.019   9.173 -2.2028 -0.1662 -2.3229
  939MOL0     H26748   4.109   0.947   9.170  0.0801 -3.7074 -2.0931
  939MOL0     H26749   5.113   2.022   8.283  3.1205  1.5759  0.1072
  939MOL0     H26750   5.087   2.250   8.365 -0.4782  0.8352  0.4958
  939MOL0     H26751   5.053   2.705   8.064 -1.2270 -0.7539 -0.5195
  939MOL0     H26752   5.069   2.932   8.051  3.5369 -1.5270 -0.5202
  939MOL0     H26753   5.090   3.172   8.465 -0.9371  0.8987 -0.2301
  939MOL0     H26754   5.095   3.288   8.344  0.0386 -0.0310 -1.6465
  939MOL0     H26755   5.323   3.205   8.282  0.2578  2.5270 -0.9383
  939MOL0     H26756   5.323   3.086   8.402 -1.2933 -1.5468 -1.1162
  939MOL0     H26757   5.292   3.392   8.442 -1.8359 -1.1163  0.3359
  939MOL0     H26758   5.445   3.303   8.439 -0.3383 -0.2703  0.5747
  939MOL0     H26759   5.368   3.350   8.674 -5.2299  3.1620 -1.7105
  939MOL0     H26760   5.219   3.271   8.639 -1.0022  2.3139 -1.0100
  939MOL0     H26761   5.515   2.951   8.693  2.6287  1.8132 -1.6299
  939MOL0     H26762   5.069   2.953   8.487  1.9658  1.5889 -1.8625
  939MOL0     H26763   5.218   2.672   8.546  0.0360  0.1257  3.0653
  939MOL0     H26764   5.084   2.758   8.625  1.1657 -0.6560  0.7647
  939MOL0     H26765   5.051   2.609   8.549 -0.5094 -0.5708 -0.5665
  940MOL0     O26766   9.274   3.000   9.865 -0.2755 -0.1423  0.1528
  940MOL0     C26767   9.207   2.893   9.853 -0.2287  0.2944 -0.4711
  940MOL0     O26768   9.157   2.821   9.962  0.6111  0.5681 -0.9480
  940MOL0     C26769   9.148   2.860  10.097  0.8379  0.5138 -0.1707
  940MOL0     C26770   9.037   2.815  10.183 -0.2796  0.2272 -0.9675
  940MOL0     C26771   9.034   2.851  10.314  0.0436 -0.3023 -0.2999
  940MOL0     C26772   9.122   2.944  10.365 -0.2523  0.1739 -0.6594
  940MOL0     O26773   9.136   2.980  10.492 -0.2055 -0.5924 -0.3935
  940MOL0     C26774   9.023   2.977  10.585  0.7606 -0.5609  0.8986
  940MOL0     C26775   9.051   3.072  10.704  1.4249 -0.4353  0.7751
  940MOL0     C26776   8.933   3.060  10.804  0.7974 -0.0353 -0.6064
  940MOL0     C26777   8.919   3.202  10.862  0.0701  0.3489  0.0036
  940MOL0     C26778   8.782   3.223  10.925 -0.3545 -0.4282  1.1216
  940MOL0     C26779   8.801   3.305  11.058  0.2860 -0.9234  0.5090
  940MOL0     C26780   8.838   3.453  11.031  0.4622 -0.2153  0.4963
  940MOL0     C26781   8.818   3.543  11.151  0.1896 -0.3251 -0.1225
  940MOL0     N26782   8.932   3.566  11.235 -0.2557  0.4377  0.2700
  940MOL0     C26783   8.934   3.562  11.368  0.5871 -0.6874 -0.1662
  940MOL0     C26784   9.063   3.546  11.404 -0.0758  1.5569 -1.2995
  940MOL0     C26785   9.087   3.503  11.543  0.9861 -0.6397 -0.0789
  940MOL0     C26786   9.040   3.353  11.559 -0.9839 -0.0809  0.2256
  940MOL0     C26787   9.104   3.297  11.687 -0.3541  0.1583 -0.9191
  940MOL0     C26788   9.053   3.360  11.822 -0.8307  0.4522 -0.1660
  940MOL0     O26789   9.129   3.290  11.923 -0.9373 -0.4891 -0.8993
  940MOL0     C26790   9.151   3.353  12.047  0.3137  0.3934 -0.2456
  940MOL0     C26791   9.250   3.296  12.123 -0.2545  0.6385 -0.3931
  940MOL0     C26792   9.309   3.349  12.234 -0.5470  0.3479  0.0024
  940MOL0     C26793   9.250   3.463  12.286 -0.2578 -0.3953 -0.1402
  940MOL0     C26794   9.290   3.517  12.417 -0.2908  0.6482  0.1677
  940MOL0     O26795   9.407   3.470  12.464 -0.1168  0.9389  0.9257
  940MOL0     C26796   9.443   3.503  12.590  0.4348 -1.1998 -0.3258
  940MOL0     C26797   9.551   3.590  12.596 -0.7472  0.6259  0.4285
  940MOL0     C26798   9.588   3.652  12.716  0.1068  0.6218 -0.4637
  940MOL0     C26799   9.506   3.632  12.827  1.2041 -0.0965 -0.1286
  940MOL0     O26800   9.501   3.698  12.947 -0.2924 -0.4671  0.1716
  940MOL0     C26801   9.584   3.820  12.962 -0.2134 -0.8593  0.7855
  940MOL0     C26802   9.579   3.895  13.090 -0.2589 -1.1216 -0.6796
  940MOL0     C26803   9.668   4.029  13.104 -0.0596 -0.6229 -0.2984
  940MOL0     C26804   9.689   4.077  13.252  0.1489  1.0606  0.2689
  940MOL0     C26805   9.793   4.184  13.274  0.3518  0.4320  0.4022
  940MOL0     C26806   9.797   4.221  13.425 -0.7948  0.6145  0.6116
  940MOL0     C26807   9.880   4.351  13.449 -0.2038  0.4184 -0.0492
  940MOL0     C26808   9.870   4.398  13.595 -0.1302  0.2308  0.1856
  940MOL0    Cl26809   9.958   4.279  13.694  0.7019 -0.2115 -0.3385
  940MOL0     C26810   9.405   3.540  12.821 -0.3863  0.4791  0.3836
  940MOL0     C26811   9.362   3.484  12.707 -0.9634  0.6756  0.0837
  940MOL0     O26812   9.211   3.594  12.473 -0.4449 -0.2825 -0.6560
  940MOL0     C26813   9.140   3.524  12.209 -0.3855 -0.0251 -1.3543
  940MOL0     C26814   9.098   3.474  12.092 -0.8941  0.7153  0.1557
  940MOL0     N26815   9.142   3.546  11.285 -0.1765 -0.0123 -0.9076
  940MOL0     N26816   9.060   3.550  11.189  0.0596 -0.4485 -0.2806
  940MOL0     C26817   9.230   2.988  10.282 -0.2735  0.6163  0.1614
  940MOL0     C26818   9.244   2.943  10.152 -0.4220 -0.4237  0.3597
  940MOL0     C26819   9.183   2.821   9.730  0.8926  0.5083 -0.0794
  940MOL0     C26820   9.195   2.680   9.733  0.8943 -0.7720 -0.1849
  940MOL0     C26821   9.188   2.614   9.611  0.3712 -0.8707 -0.4640
  940MOL0     C26822   9.134   2.680   9.501 -0.0381  0.0964  0.2979
  940MOL0     O26823   9.111   2.624   9.373 -0.5864  0.5338  0.2658
  940MOL0     C26824   9.190   2.507   9.339 -0.5286 -0.4862 -1.0190
  940MOL0     C26825   9.174   2.497   9.192  0.2810  0.3487  0.6505
  940MOL0     C26826   9.249   2.603   9.103  0.4094 -0.2501  1.1384
  940MOL0     C26827   9.393   2.579   9.087  0.3970 -0.0534  0.2747
  940MOL0     C26828   9.419   2.463   9.004 -0.7302  0.3062 -0.3103
  940MOL0     C26829   9.434   2.375   8.923  0.5517  0.2685  0.7908
  940MOL0     C26830   9.104   2.816   9.513 -0.3455  0.7923 -0.1638
  940MOL0     C26831   9.134   2.889   9.615  0.5780 -1.1601 -1.2703
  940MOL0     C26832   9.120   3.042   9.607 -0.2545  0.2812  0.3084
  940MOL0     H26833   8.976   2.733  10.146  1.1686 -2.8905  2.9058
  940MOL0     H26834   8.956   2.808  10.375 -0.5306  0.4689 -0.4597
  940MOL0     H26835   8.924   2.997  10.544  1.1849  2.2551  1.0651
  940MOL0     H26836   9.003   2.876  10.622  0.6704 -1.0507 -0.4049
  940MOL0     H26837   9.085   3.171  10.672 -1.6328  0.2686 -0.6235
  940MOL0     H26838   9.140   3.042  10.761  2.1861 -2.8596 -1.5339
  940MOL0     H26839   8.948   2.980  10.877 -1.1254  1.0743  1.1181
  940MOL0     H26840   8.840   3.035  10.753 -0.3113  1.8418  0.3688
  940MOL0     H26841   8.989   3.224  10.944 -3.7462 -1.5038  4.2157
  940MOL0     H26842   8.925   3.276  10.782  3.6537  1.8479  1.4081
  940MOL0     H26843   8.709   3.268  10.857 -1.0150 -0.2893  1.9068
  940MOL0     H26844   8.748   3.122  10.948 -0.3463 -1.0408 -1.2190
  940MOL0     H26845   8.701   3.310  11.103 -0.7127 -1.0253 -1.5844
  940MOL0     H26846   8.866   3.252  11.129  2.5757 -1.6501 -1.9799
  940MOL0     H26847   8.772   3.479  10.947 -0.3795 -4.2003 -0.2558
  940MOL0     H26848   8.940   3.469  10.995  0.5981  0.4954  1.1686
  940MOL0     H26849   8.779   3.640  11.119 -0.1863  0.1167  1.5777
  940MOL0     H26850   8.739   3.506  11.216  1.1808 -3.1978 -0.4051
  940MOL0     H26851   8.845   3.557  11.430  0.6142  1.1724  0.0825
  940MOL0     H26852   9.190   3.515  11.576 -0.0030  1.0672  2.6985
  940MOL0     H26853   9.037   3.573  11.610  0.3307 -2.2886  1.2426
  940MOL0     H26854   8.932   3.340  11.552 -1.7180  4.4812 -0.2883
  940MOL0     H26855   9.080   3.304  11.470  0.5579  1.9910 -0.3053
  940MOL0     H26856   9.212   3.306  11.674 -0.2575  0.1492 -0.1786
  940MOL0     H26857   9.078   3.193  11.711 -0.3695  0.2281 -0.6285
  940MOL0     H26858   8.946   3.382  11.835 -0.5706  2.7891 -1.2949
  940MOL0     H26859   9.099   3.459  11.817  5.1202 -1.8897  0.6774
  940MOL0     H26860   9.279   3.196  12.092 -0.4654 -0.4298  2.5227
  940MOL0     H26861   9.393   3.293  12.272 -2.6292 -3.4542 -0.4631
  940MOL0     H26862   9.610   3.607  12.506 -1.9601  0.3074 -0.4408
  940MOL0     H26863   9.671   3.722  12.710  2.2279 -1.4817  1.8311
  940MOL0     H26864   9.688   3.798  12.939  0.6227  3.3709 -0.3560
  940MOL0     H26865   9.551   3.896  12.891 -1.7572  1.1337  3.4399
  940MOL0     H26866   9.475   3.927  13.103 -0.3293 -0.4947 -2.5835
  940MOL0     H26867   9.587   3.826  13.175 -3.2734 -1.9608 -0.9808
  940MOL0     H26868   9.768   4.022  13.061  0.9820  2.5214  1.3267
  940MOL0     H26869   9.617   4.111  13.053  0.0547  1.2231  2.3311
  940MOL0     H26870   9.723   3.998  13.320  0.9062  1.9592  0.9720
  940MOL0     H26871   9.588   4.099  13.288 -0.6545 -0.1370 -1.1513
  940MOL0     H26872   9.764   4.275  13.220 -1.9520 -0.5464 -0.1025
  940MOL0     H26873   9.883   4.148  13.222 -0.9138  0.3746 -1.8717
  940MOL0     H26874   9.696   4.230  13.466 -0.2848 -0.4361  2.2136
  940MOL0     H26875   9.843   4.135  13.475  1.5593  1.7557  0.5236
  940MOL0     H26876   9.849   4.434  13.385  1.8241  1.0637 -0.2527
  940MOL0     H26877   9.986   4.327  13.442 -0.3269 -1.5030  2.8927
  940MOL0     H26878   9.928   4.488  13.620  2.0347 -1.4617  1.6289
  940MOL0     H26879   9.763   4.408  13.616 -0.8153 -1.6584 -2.0943
  940MOL0     H26880   9.353   3.519  12.914 -1.1031 -1.0630 -0.3477
  940MOL0     H26881   9.270   3.426  12.715 -0.5044 -0.6519 -2.7607
  940MOL0     H26882   9.097   3.614  12.250  4.0252  2.0410 -0.6644
  940MOL0     H26883   9.016   3.500  12.026  0.7955 -2.5441 -3.6669
  940MOL0     H26884   9.322   3.032  10.318 -0.6244  0.8289  0.8060
  940MOL0     H26885   9.334   2.954  10.093  0.2569 -1.0772  1.2466
  940MOL0     H26886   9.217   2.608   9.811 -0.3806 -3.6761 -2.2798
  940MOL0     H26887   9.227   2.513   9.598 -0.5377 -1.1850 -0.8103
  940MOL0     H26888   9.162   2.422   9.402  1.9470 -1.1869 -0.7610
  940MOL0     H26889   9.296   2.522   9.364 -0.5219  0.5164 -1.6194
  940MOL0     H26890   9.066   2.500   9.176  0.1931  4.0952  1.1285
  940MOL0     H26891   9.200   2.394   9.164 -0.8595  0.0108  0.7786
  940MOL0     H26892   9.234   2.702   9.147 -1.2174 -0.9603  2.2646
  940MOL0     H26893   9.203   2.616   9.005  1.0626 -0.9031  0.7381
  940MOL0     H26894   9.448   2.670   9.061  0.0480  1.0891  3.0885
  940MOL0     H26895   9.426   2.553   9.189  0.0215 -0.0713  0.3931
  940MOL0     H26896   9.443   2.291   8.859 -0.6435 -2.5667  4.0318
  940MOL0     H26897   9.066   2.864   9.423 -0.7293  1.9359  0.5800
  940MOL0     H26898   9.214   3.082   9.645 -0.8590  2.5830 -0.4307
  940MOL0     H26899   9.115   3.072   9.501  0.5575  1.3817  0.5605
  940MOL0     H26900   9.036   3.065   9.673 -0.1658  2.4264 -0.2254
  941MOL0     O26901   9.634   8.306   9.309 -0.2112 -0.2364 -0.6582
  941MOL0     C26902   9.642   8.411   9.251 -0.1936  0.7616  0.2666
  941MOL0     O26903   9.578   8.519   9.281  0.7340 -0.0530 -0.3230
  941MOL0     C26904   9.493   8.511   9.389  0.1501 -0.3756 -0.1988
  941MOL0     C26905   9.542   8.540   9.514  0.3785 -0.1813 -0.3171
  941MOL0     C26906   9.461   8.549   9.621 -0.3154  0.1034 -0.1335
  941MOL0     C26907   9.323   8.542   9.608  0.3085  0.6502  0.8519
  941MOL0     O26908   9.249   8.561   9.723  0.0354  0.2692  0.6138
  941MOL0     C26909   9.123   8.634   9.702 -0.7120 -0.5242  0.7987
  941MOL0     C26910   9.085   8.715   9.824 -0.6169 -0.5019 -0.6878
  941MOL0     C26911   9.131   8.665   9.966  0.6426 -0.2710 -1.1663
  941MOL0     C26912   9.270   8.689   9.992 -1.3289  0.2021 -0.5787
  941MOL0     C26913   9.324   8.692  10.129  0.1038  0.0790  0.1054
  941MOL0     C26914   9.260   8.792  10.227  0.1298  0.5516  0.5654
  941MOL0     C26915   9.353   8.819  10.342  0.3119  0.9194  0.0933
  941MOL0     C26916   9.379   8.707  10.438 -0.5538  0.1506 -0.8874
  941MOL0     N26917   9.452   8.754  10.558  0.1333 -0.3220 -0.3910
  941MOL0     C26918   9.581   8.757  10.577 -1.1913  0.5822  0.6543
  941MOL0     C26919   9.605   8.792  10.703  0.1063 -0.1912  0.5573
  941MOL0     C26920   9.741   8.802  10.753  0.4114 -0.4299  0.2771
  941MOL0     C26921   9.756   8.829  10.903  0.0390  0.9031 -0.0211
  941MOL0     C26922   9.757   8.977  10.930 -0.1380  0.6563  0.7209
  941MOL0     C26923   9.677   9.004  11.063  0.3091  0.8282 -0.1427
  941MOL0     O26924   9.735   8.913  11.163  0.5316  0.3244 -0.0539
  941MOL0     C26925   9.779   8.965  11.286  0.2568 -0.6099 -0.1729
  941MOL0     C26926   9.879   9.067  11.291 -0.6894  0.1329  0.0027
  941MOL0     C26927   9.946   9.103  11.405  0.5060  0.2887  0.0859
  941MOL0     C26928   9.911   9.041  11.524 -0.0430  0.7205 -0.4174
  941MOL0     C26929   9.984   9.076  11.650 -0.0921 -0.5535  0.1022
  941MOL0     O26930   9.907   9.060  11.768 -0.3709  0.8209  0.3314
  941MOL0     C26931   9.959   9.080  11.887 -0.1206 -0.5386 -0.2491
  941MOL0     C26932   9.952   9.202  11.941  0.2278 -0.4491 -0.7589
  941MOL0     C26933   9.996   9.230  12.073  0.7326 -0.1028 -0.0907
  941MOL0     C26934  10.052   9.127  12.147 -0.0645 -0.1203  0.1080
  941MOL0     O26935  10.080   9.140  12.280  0.2311 -0.1772 -0.3575
  941MOL0     C26936  10.182   9.063  12.335 -0.7345  0.8905 -0.6078
  941MOL0     C26937  10.317   9.072  12.266  0.2616  0.7223 -0.1004
  941MOL0     C26938  10.430   9.020  12.350 -0.3330  0.9218 -0.7872
  941MOL0     C26939  10.437   8.863  12.351  0.7000  0.0619 -0.5760
  941MOL0     C26940  10.561   8.803  12.431  0.9021  0.2080  0.7638
  941MOL0     C26941  10.672   8.754  12.330  0.0206  0.1447  0.3062
  941MOL0     C26942  10.798   8.730  12.413 -0.4067  0.0418  0.2169
  941MOL0     C26943  10.918   8.699  12.324 -0.3152  0.5673 -0.5752
  941MOL0    Cl26944  11.052   8.681  12.432 -0.0579 -0.2873  0.2499
  941MOL0     C26945  10.062   9.000  12.080 -0.1285 -0.2798  0.3662
  941MOL0     C26946  10.012   8.974  11.957 -0.4061 -0.5359 -0.7741
  941MOL0     O26947  10.103   9.102  11.644  0.0503 -0.0960  0.1006
  941MOL0     C26948   9.806   8.948  11.520  0.8426  0.7684  0.1429
  941MOL0     C26949   9.742   8.909  11.402 -0.3410  0.3805  0.4644
  941MOL0     N26950   9.480   8.800  10.768  0.0673  0.2074 -0.1716
  941MOL0     N26951   9.383   8.779  10.679 -0.1510 -0.7371  0.8373
  941MOL0     C26952   9.266   8.504   9.483 -0.8005 -0.9676  0.2736
  941MOL0     C26953   9.353   8.489   9.372 -0.6701 -0.3801  0.7403
  941MOL0     C26954   9.749   8.421   9.147  0.0042  0.0606 -0.4953
  941MOL0     C26955   9.833   8.521   9.158 -0.3518 -0.3254  0.8463
  941MOL0     C26956   9.939   8.528   9.060  0.7007  0.5095  0.6028
  941MOL0     C26957   9.961   8.425   8.967 -0.5440  0.4397  0.2521
  941MOL0     O26958  10.060   8.416   8.865  0.4338 -0.2140 -0.3265
  941MOL0     C26959  10.144   8.530   8.839 -0.0176  0.5699 -0.0611
  941MOL0     C26960  10.275   8.481   8.759  0.1456  1.2128  0.9093
  941MOL0     C26961  10.228   8.470   8.609  0.2392  0.6866 -0.0092
  941MOL0     C26962  10.171   8.336   8.576 -0.2269 -0.1942 -0.0281
  941MOL0     C26963  10.120   8.320   8.435  0.2840  0.2525 -0.6781
  941MOL0     C26964  10.064   8.299   8.327 -0.7575 -0.9772  0.2622
  941MOL0     C26965   9.863   8.323   8.964  0.1809  0.7790  0.3464
  941MOL0     C26966   9.757   8.318   9.041 -0.0151  0.3279  0.5685
  941MOL0     C26967   9.650   8.214   9.017  0.4420  0.5034 -0.1808
  941MOL0     H26968   9.645   8.566   9.536  0.9039 -1.2722 -1.3452
  941MOL0     H26969   9.508   8.582   9.713  0.9372 -3.8362  0.8146
  941MOL0     H26970   9.116   8.708   9.622 -0.8728 -0.3237  0.9962
  941MOL0     H26971   9.047   8.557   9.685 -0.8384 -0.4070  0.8331
  941MOL0     H26972   8.976   8.716   9.808 -0.3468 -2.6035 -3.1450
  941MOL0     H26973   9.118   8.817   9.803  1.0060 -0.0042  3.3957
  941MOL0     H26974   9.108   8.560   9.984 -4.1809  0.3537 -2.2409
  941MOL0     H26975   9.074   8.731  10.032  2.3006  1.4908 -1.4121
  941MOL0     H26976   9.330   8.605   9.955  3.1234  2.4578  0.7877
  941MOL0     H26977   9.313   8.770   9.933  1.0965  1.0687  2.1620
  941MOL0     H26978   9.300   8.596  10.176 -2.1484  1.1640  1.3702
  941MOL0     H26979   9.430   8.717  10.129  0.0057  0.4906  0.2470
  941MOL0     H26980   9.215   8.879  10.177 -2.3553  0.6708  2.8118
  941MOL0     H26981   9.173   8.743  10.272  0.7416 -3.7872 -2.2681
  941MOL0     H26982   9.295   8.887  10.406 -0.0173 -0.5170  1.3763
  941MOL0     H26983   9.446   8.866  10.309  0.9366 -1.6706 -2.1082
  941MOL0     H26984   9.286   8.662  10.473 -0.0315 -0.1423  0.1806
  941MOL0     H26985   9.428   8.626  10.383 -0.0229  1.1807 -1.9737
  941MOL0     H26986   9.656   8.749  10.499 -1.1036  0.2996  0.7691
  941MOL0     H26987   9.789   8.710  10.718 -0.1702 -0.7661  0.3582
  941MOL0     H26988   9.808   8.874  10.704 -0.3125 -1.9808 -3.2961
  941MOL0     H26989   9.667   8.780  10.944  0.2902  0.6990  0.2813
  941MOL0     H26990   9.845   8.781  10.945  0.0089 -2.1524 -2.9785
  941MOL0     H26991   9.705   9.037  10.855 -0.6900  1.8531  2.0273
  941MOL0     H26992   9.857   9.022  10.929 -0.4427  1.3621  1.5852
  941MOL0     H26993   9.571   8.994  11.037  0.4678  4.0777 -2.7215
  941MOL0     H26994   9.676   9.107  11.101  0.6605 -0.0010  2.2911
  941MOL0     H26995   9.908   9.113  11.197  1.1544 -0.6332  0.1565
  941MOL0     H26996  10.019   9.183  11.401  0.9471 -0.1516 -2.5838
  941MOL0     H26997   9.910   9.287  11.888  4.2394  2.2476 -0.0095
  941MOL0     H26998  10.003   9.333  12.105  2.0535 -0.3188  0.3670
  941MOL0     H26999  10.200   9.112  12.431 -1.1646 -0.6624  0.3054
  941MOL0     H27000  10.149   8.963  12.364  0.6036  1.2172  2.3578
  941MOL0     H27001  10.318   9.022  12.169  3.0203  2.0160 -0.8152
  941MOL0     H27002  10.341   9.175  12.241  4.2235 -0.2400 -0.8705
  941MOL0     H27003  10.523   9.059  12.308  0.5863 -1.4907 -1.1679
  941MOL0     H27004  10.421   9.056  12.453  1.3224  0.1853 -0.3320
  941MOL0     H27005  10.444   8.814  12.254 -0.5092 -0.2929 -0.4993
  941MOL0     H27006  10.352   8.815  12.400  3.5544 -1.4935  3.4024
  941MOL0     H27007  10.544   8.711  12.487  0.4869  1.0583  2.0761
  941MOL0     H27008  10.607   8.880  12.494  0.4750  1.1910 -0.0984
  941MOL0     H27009  10.642   8.666  12.273  2.9629 -0.6588 -0.1788
  941MOL0     H27010  10.692   8.835  12.259 -1.8775  0.3806 -0.0065
  941MOL0     H27011  10.772   8.644  12.476  0.3365 -1.4404 -1.3991
  941MOL0     H27012  10.820   8.820  12.470  1.7157 -0.0945 -0.3324
  941MOL0     H27013  10.903   8.608  12.266  2.4734 -0.7946  0.6271
  941MOL0     H27014  10.932   8.776  12.247  0.8575 -0.7563 -1.7410
  941MOL0     H27015  10.111   8.917  12.131 -0.8818 -1.4249 -0.7114
  941MOL0     H27016  10.002   8.872  11.922 -3.6851 -1.9168  3.3116
  941MOL0     H27017   9.773   8.899  11.611 -3.2838  0.9556 -1.0852
  941MOL0     H27018   9.676   8.825  11.414 -0.8321  1.0940  3.6721
  941MOL0     H27019   9.159   8.489   9.479 -1.3429  2.0604  1.3105
  941MOL0     H27020   9.322   8.465   9.270  2.9278  1.7277 -1.0583
  941MOL0     H27021   9.814   8.589   9.240  0.2494  1.2638 -0.2895
  941MOL0     H27022   9.996   8.620   9.049  0.5222  0.3361 -3.0046
  941MOL0     H27023  10.177   8.557   8.940  2.7284  0.8163 -0.9476
  941MOL0     H27024  10.082   8.611   8.801 -2.4896 -0.4245  1.5758
  941MOL0     H27025  10.315   8.394   8.811 -1.0045  1.1076  1.6448
  941MOL0     H27026  10.341   8.569   8.753  2.1483 -0.2845 -3.6593
  941MOL0     H27027  10.315   8.484   8.545 -0.3041  0.1168 -0.8919
  941MOL0     H27028  10.147   8.539   8.586 -0.8534 -0.5105  0.1393
  941MOL0     H27029  10.243   8.254   8.590 -0.9744 -0.2990  5.1978
  941MOL0     H27030  10.081   8.316   8.635 -0.3926 -1.1866 -0.6024
  941MOL0     H27031  10.015   8.278   8.234  0.8550  0.8180 -1.0761
  941MOL0     H27032   9.855   8.249   8.884  1.3100 -2.2517  2.8396
  941MOL0     H27033   9.697   8.116   9.032  1.1803  0.8937  0.1150
  941MOL0     H27034   9.557   8.221   9.074 -0.8529  0.3837 -2.1941
  941MOL0     H27035   9.609   8.219   8.916 -1.0648 -0.9429  0.3076
  942MOL0     O27036   8.915   0.229   5.819  0.1568  0.6751  0.2745
  942MOL0     C27037   8.913   0.253   5.937  0.0626  0.0032  0.1355
  942MOL0     O27038   8.848   0.177   6.027 -0.2305  0.0419  0.3110
  942MOL0     C27039   8.749   0.094   5.978 -0.0308  0.1359 -1.2995
  942MOL0     C27040   8.637   0.133   5.904 -0.3596 -0.6539  0.1812
  942MOL0     C27041   8.548   0.033   5.869 -0.1773  0.2320  0.7346
  942MOL0     C27042   8.555  -0.096   5.922  0.8791 -0.1820  0.1441
  942MOL0     O27043   8.458  -0.189   5.908  0.5732  0.3038 -0.2009
  942MOL0     C27044   8.368  -0.178   5.801  0.6928 -0.2024 -0.3650
  942MOL0     C27045   8.266  -0.280   5.802 -0.1103 -0.6461 -0.3311
  942MOL0     C27046   8.168  -0.273   5.920 -0.7789 -0.2915  0.0213
  942MOL0     C27047   8.063  -0.385   5.897  0.4693  0.3575 -0.7147
  942MOL0     C27048   7.934  -0.344   5.963 -0.1397 -0.6991  0.6855
  942MOL0     C27049   7.831  -0.458   5.955  0.0800  0.3828 -0.1863
  942MOL0     C27050   7.695  -0.403   5.994  0.0211 -0.1799 -1.0798
  942MOL0     C27051   7.605  -0.529   6.031 -0.5195 -0.4581 -0.2801
  942MOL0     N27052   7.468  -0.489   6.042 -0.2724  0.0905 -0.3526
  942MOL0     C27053   7.410  -0.421   6.146  0.3549 -0.6127 -0.4732
  942MOL0     C27054   7.276  -0.410   6.110 -0.4227  0.8452 -0.1245
  942MOL0     C27055   7.173  -0.339   6.196  1.0772  0.0193  0.5538
  942MOL0     C27056   7.048  -0.428   6.245 -0.0109  0.0574 -0.9694
  942MOL0     C27057   6.913  -0.380   6.186 -0.7027 -0.5622 -0.2473
  942MOL0     C27058   6.916  -0.390   6.034  0.0366  0.5029 -0.1000
  942MOL0     O27059   6.793  -0.430   5.975 -0.2615 -0.6566  0.9144
  942MOL0     C27060   6.809  -0.439   5.843 -0.5721  0.6779  0.3493
  942MOL0     C27061   6.919  -0.422   5.763  0.3689  0.2255  0.1069
  942MOL0     C27062   6.918  -0.437   5.620 -0.3796  0.3024 -0.5060
  942MOL0     C27063   6.796  -0.464   5.556  0.0544 -0.4145  0.1489
  942MOL0     C27064   6.792  -0.480   5.406 -0.7734 -0.6931 -0.2545
  942MOL0     O27065   6.680  -0.523   5.350  0.0320  0.2673  0.0351
  942MOL0     C27066   6.664  -0.528   5.213 -0.0051 -0.4771  0.2906
  942MOL0     C27067   6.756  -0.593   5.133 -0.2562 -0.4063 -0.1336
  942MOL0     C27068   6.736  -0.604   4.998  0.4500  0.3882  0.8328
  942MOL0     C27069   6.613  -0.561   4.939 -0.0676 -0.6606 -0.2788
  942MOL0     O27070   6.585  -0.560   4.804 -0.1522 -0.0951  0.9644
  942MOL0     C27071   6.677  -0.616   4.705  0.6247 -0.4079 -0.6015
  942MOL0     C27072   6.600  -0.618   4.572 -0.0578  0.7556 -0.3114
  942MOL0     C27073   6.466  -0.705   4.568 -0.1518 -0.0268 -0.5910
  942MOL0     C27074   6.429  -0.733   4.424 -0.4358  1.1309 -0.5846
  942MOL0     C27075   6.308  -0.828   4.399 -0.4551 -0.7660  0.8947
  942MOL0     C27076   6.297  -0.853   4.244 -0.6651 -0.1372  0.3269
  942MOL0     C27077   6.147  -0.853   4.187 -0.8052  0.4689  0.7323
  942MOL0     C27078   6.079  -0.978   4.233 -0.1367 -0.4898 -0.0639
  942MOL0    Cl27079   6.155  -1.116   4.148 -0.0294 -0.4999 -0.0145
  942MOL0     C27080   6.518  -0.508   5.028  0.2901 -0.1466  0.3179
  942MOL0     C27081   6.540  -0.498   5.166  0.2621  0.2411  0.1754
  942MOL0     O27082   6.890  -0.450   5.344  0.2031 -1.1561 -0.6318
  942MOL0     C27083   6.677  -0.487   5.636  0.6473 -0.6097  0.3554
  942MOL0     C27084   6.686  -0.472   5.777  0.3577  0.2530  0.2700
  942MOL0     N27085   7.260  -0.463   5.986  0.8904 -0.0967 -0.1835
  942MOL0     N27086   7.364  -0.529   5.965 -0.5774 -0.7193  0.4168
  942MOL0     C27087   8.668  -0.130   5.993 -1.3109  0.7721  0.8768
  942MOL0     C27088   8.776  -0.041   6.014 -0.4190 -0.7578  0.0186
  942MOL0     C27089   8.975   0.376   5.989  0.2057  0.0129 -0.3070
  942MOL0     C27090   8.918   0.430   6.104  0.1719 -0.0444  0.2144
  942MOL0     C27091   8.976   0.531   6.170 -0.6122  0.3288  0.0477
  942MOL0     C27092   9.082   0.598   6.121  1.0644  0.5405  0.2145
  942MOL0     O27093   9.149   0.692   6.183 -0.3378 -0.4601  0.1641
  942MOL0     C27094   9.112   0.727   6.315 -0.1829  1.1724  0.5139
  942MOL0     C27095   9.178   0.859   6.364 -0.3376 -0.2435  0.3353
  942MOL0     C27096   9.126   0.984   6.284 -0.5247 -0.3855 -0.1062
  942MOL0     C27097   9.240   1.051   6.201 -0.2795 -0.7834  0.9055
  942MOL0     C27098   9.373   1.065   6.270 -0.3926 -0.3559 -0.2226
  942MOL0     C27099   9.475   1.084   6.325 -0.9626 -0.2340  1.0361
  942MOL0     C27100   9.140   0.551   6.001  0.5495  0.3076 -0.2527
  942MOL0     C27101   9.091   0.442   5.933  0.2262 -0.8366  0.3091
  942MOL0     C27102   9.166   0.388   5.804 -1.1772  0.1183  0.4103
  942MOL0     H27103   8.615   0.229   5.860  1.3157 -0.6318 -0.6904
  942MOL0     H27104   8.457   0.053   5.814 -0.6396 -1.6327  0.7346
  942MOL0     H27105   8.312  -0.084   5.805 -0.4523 -0.8812  0.2349
  942MOL0     H27106   8.427  -0.187   5.709  1.5047  1.3443 -0.0233
  942MOL0     H27107   8.316  -0.377   5.801  1.8795  0.3313  0.4762
  942MOL0     H27108   8.213  -0.288   5.707 -3.7481  1.5344  1.2919
  942MOL0     H27109   8.131  -0.170   5.923 -0.1540 -0.0449  3.4679
  942MOL0     H27110   8.227  -0.285   6.011  4.5575  0.8441 -2.8689
  942MOL0     H27111   8.047  -0.398   5.790 -0.1532 -2.0708 -0.3985
  942MOL0     H27112   8.093  -0.485   5.931 -1.8847 -0.2999 -0.3972
  942MOL0     H27113   7.949  -0.307   6.065 -0.7059  0.0368  0.5082
  942MOL0     H27114   7.916  -0.257   5.901  2.2081 -0.1977  0.6103
  942MOL0     H27115   7.826  -0.494   5.853 -0.8201  0.0734 -0.0394
  942MOL0     H27116   7.854  -0.537   6.027 -2.2299  0.0567  0.2788
  942MOL0     H27117   7.672  -0.354   5.899  2.0069 -0.0235 -1.5276
  942MOL0     H27118   7.706  -0.342   6.084 -0.4413 -1.8737  0.1848
  942MOL0     H27119   7.623  -0.613   5.964  0.3518  0.1871 -0.8865
  942MOL0     H27120   7.647  -0.565   6.125  0.1352 -0.9358 -0.7491
  942MOL0     H27121   7.458  -0.378   6.233  0.1037 -1.2681 -0.0086
  942MOL0     H27122   7.206  -0.295   6.290  0.4037  1.3928  0.1716
  942MOL0     H27123   7.137  -0.256   6.135 -2.5879 -2.8004 -1.5745
  942MOL0     H27124   7.056  -0.535   6.223  1.6893 -0.0909  0.1722
  942MOL0     H27125   7.045  -0.432   6.354 -1.5432 -0.8733 -1.0066
  942MOL0     H27126   6.887  -0.277   6.216 -0.7836  0.3393 -3.1619
  942MOL0     H27127   6.833  -0.445   6.222 -2.5229 -0.7881 -4.1721
  942MOL0     H27128   6.986  -0.468   6.003 -1.2587 -1.2987  1.3369
  942MOL0     H27129   6.934  -0.291   5.989 -2.4816 -0.5723 -4.0273
  942MOL0     H27130   7.012  -0.401   5.816  0.1697 -0.0375  0.5761
  942MOL0     H27131   7.007  -0.426   5.560  0.5936  0.7887  0.9727
  942MOL0     H27132   6.843  -0.632   5.185  1.0775 -1.3849 -2.9156
  942MOL0     H27133   6.812  -0.635   4.927 -0.5410 -0.3260  0.0695
  942MOL0     H27134   6.765  -0.552   4.704  0.6109 -0.3707 -2.3950
  942MOL0     H27135   6.704  -0.718   4.734 -0.2419 -0.0052  1.8725
  942MOL0     H27136   6.568  -0.517   4.545  0.2753  0.5714 -1.4536
  942MOL0     H27137   6.665  -0.656   4.492  0.8982 -0.5718  1.0458
  942MOL0     H27138   6.492  -0.789   4.632  1.6566 -0.3852 -1.7096
  942MOL0     H27139   6.388  -0.648   4.620 -1.3523 -2.5936  0.5899
  942MOL0     H27140   6.519  -0.773   4.376 -1.6299 -1.2864 -0.9376
  942MOL0     H27141   6.404  -0.637   4.378  1.0837  1.3738 -0.9712
  942MOL0     H27142   6.216  -0.778   4.429  0.3319  1.4496 -0.1643
  942MOL0     H27143   6.319  -0.920   4.457  0.4220 -0.8569  0.5949
  942MOL0     H27144   6.371  -0.797   4.185  1.1681 -1.8844  0.8517
  942MOL0     H27145   6.347  -0.948   4.226 -2.5194 -1.4202  1.6189
  942MOL0     H27146   6.137  -0.870   4.080  0.2076 -3.3520  1.0876
  942MOL0     H27147   6.095  -0.759   4.209 -0.2787  1.2316 -1.0851
  942MOL0     H27148   6.093  -0.990   4.341 -2.4322 -2.8029  0.0629
  942MOL0     H27149   5.972  -0.976   4.215 -0.2802 -0.6529  0.7152
  942MOL0     H27150   6.419  -0.479   4.993 -0.6759 -4.2784 -0.9101
  942MOL0     H27151   6.460  -0.452   5.222 -0.0705  1.3662 -1.1732
  942MOL0     H27152   6.589  -0.487   5.572  1.2374  3.2650 -0.7717
  942MOL0     H27153   6.603  -0.493   5.844  1.6482 -1.5116  1.4051
  942MOL0     H27154   8.665  -0.226   6.043 -2.3012 -0.3542 -1.2189
  942MOL0     H27155   8.862  -0.067   6.075 -0.6243  2.0225  1.6742
  942MOL0     H27156   8.819   0.406   6.142 -1.5861  2.2186 -2.4990
  942MOL0     H27157   8.931   0.559   6.265  1.0358  1.5897  0.5109
  942MOL0     H27158   9.149   0.652   6.385 -1.3230  0.6184  0.5464
  942MOL0     H27159   9.003   0.739   6.323 -0.1067  1.3314  1.3973
  942MOL0     H27160   9.286   0.843   6.363 -0.5302 -1.7212 -1.1544
  942MOL0     H27161   9.137   0.846   6.465 -2.2105 -3.0975 -0.6743
  942MOL0     H27162   9.096   1.064   6.353  0.6895 -0.3731  0.4320
  942MOL0     H27163   9.039   0.966   6.220 -0.1978  2.7331 -1.5853
  942MOL0     H27164   9.249   1.006   6.102  1.4752 -1.7165  1.4455
  942MOL0     H27165   9.208   1.154   6.178 -4.6488 -2.2891 -0.7283
  942MOL0     H27166   9.567   1.107   6.374  1.1044  0.0309 -2.6799
  942MOL0     H27167   9.224   0.609   5.965  0.7213 -0.3305 -0.9229
  942MOL0     H27168   9.260   0.440   5.782  1.0608 -3.3600  0.8378
  942MOL0     H27169   9.191   0.285   5.832 -2.5336 -0.3670 -0.0984
  942MOL0     H27170   9.106   0.395   5.714  2.5264  2.1588 -2.1983
  943MOL0     O27171   2.598   3.433   5.690  0.2993  0.0256  1.3116
  943MOL0     C27172   2.682   3.345   5.667 -0.2039  0.4365  0.3351
  943MOL0     O27173   2.790   3.364   5.590  0.1136 -0.2168  0.7087
  943MOL0     C27174   2.825   3.483   5.537 -0.2758 -1.0024 -0.0120
  943MOL0     C27175   2.865   3.488   5.409  0.4459  0.0140  0.5784
  943MOL0     C27176   2.908   3.604   5.355 -0.4469 -0.6610 -0.5514
  943MOL0     C27177   2.902   3.725   5.431  1.1250 -0.2468 -0.8457
  943MOL0     O27178   2.942   3.850   5.389  0.3137 -0.9467  0.2477
  943MOL0     C27179   3.007   3.867   5.264 -0.0053 -0.0794 -0.6004
  943MOL0     C27180   3.058   4.008   5.269 -0.1974 -0.0583  0.3318
  943MOL0     C27181   3.102   4.051   5.127  0.6693 -0.3721  0.4006
  943MOL0     C27182   3.206   4.168   5.140 -0.0882 -0.3222 -0.4341
  943MOL0     C27183   3.267   4.216   5.008 -0.2789  0.0924 -0.2434
  943MOL0     C27184   3.365   4.105   4.959 -0.6151  0.5427  0.2500
  943MOL0     C27185   3.447   4.143   4.827 -0.0961 -0.0320  0.7227
  943MOL0     C27186   3.566   4.059   4.817  0.4527 -0.1999  0.6833
  943MOL0     N27187   3.647   4.088   4.699 -0.1092 -0.8481 -0.1451
  943MOL0     C27188   3.711   3.993   4.620  0.5179 -0.4052 -0.1028
  943MOL0     C27189   3.805   4.057   4.555 -0.0863 -0.5512 -0.0933
  943MOL0     C27190   3.895   3.990   4.451  0.3231 -0.4848 -1.1087
  943MOL0     C27191   3.858   4.024   4.307  0.6285  0.6400 -0.3781
  943MOL0     C27192   3.944   3.930   4.231  0.1729  0.7891 -0.3830
  943MOL0     C27193   3.905   3.929   4.085 -0.3342  0.9058 -0.6752
  943MOL0     O27194   3.981   3.825   4.014 -0.2491 -0.5575  0.9427
  943MOL0     C27195   3.945   3.811   3.878  0.7633  0.0449 -0.3489
  943MOL0     C27196   3.812   3.778   3.836  0.3298  0.1140 -0.6610
  943MOL0     C27197   3.765   3.745   3.701 -0.0753 -0.4791 -0.0885
  943MOL0     C27198   3.858   3.785   3.602 -0.2497 -0.3915  0.6871
  943MOL0     C27199   3.816   3.771   3.463  0.1508 -1.1617  1.0501
  943MOL0     O27200   3.926   3.775   3.374 -0.2081 -0.3952 -0.3271
  943MOL0     C27201   3.902   3.753   3.236 -0.8860  0.7919  0.4082
  943MOL0     C27202   4.004   3.688   3.171  0.3579 -0.3438 -0.2437
  943MOL0     C27203   4.015   3.684   3.030  0.5330  0.7626  0.5158
  943MOL0     C27204   3.914   3.741   2.954 -0.4044  0.2558  0.5787
  943MOL0     O27205   3.919   3.716   2.821  0.4241 -0.1191  0.2702
  943MOL0     C27206   3.791   3.678   2.759 -0.1993 -0.2989  0.5517
  943MOL0     C27207   3.728   3.804   2.694 -0.8272  0.7227  0.4387
  943MOL0     C27208   3.582   3.776   2.657  0.2557 -0.4205 -0.2693
  943MOL0     C27209   3.503   3.903   2.604  0.1716 -0.4111 -0.3522
  943MOL0     C27210   3.580   3.993   2.503 -0.1039 -0.0265  0.1363
  943MOL0     C27211   3.487   4.112   2.462  0.0272  0.1744  0.3039
  943MOL0     C27212   3.547   4.178   2.342  0.5619  0.6183  0.2506
  943MOL0     C27213   3.701   4.221   2.339  0.3131  1.0048  0.1327
  943MOL0    Cl27214   3.758   4.280   2.490 -0.0660  0.4566 -0.0083
  943MOL0     C27215   3.809   3.804   3.018 -0.7734  0.6923  0.4765
  943MOL0     C27216   3.796   3.803   3.157 -0.7474 -0.8685 -0.5247
  943MOL0     O27217   3.702   3.737   3.426 -0.0480  0.9282 -0.7720
  943MOL0     C27218   3.994   3.816   3.634 -1.1144 -0.0848 -1.1455
  943MOL0     C27219   4.036   3.826   3.772 -0.4128  0.5512  0.2094
  943MOL0     N27220   3.814   4.194   4.592 -0.2713  0.2350  0.4595
  943MOL0     N27221   3.725   4.203   4.682 -0.1658  0.3107 -0.3108
  943MOL0     C27222   2.870   3.715   5.568 -0.2910  0.1895 -1.0100
  943MOL0     C27223   2.839   3.591   5.621 -0.8249 -0.5143 -0.1456
  943MOL0     C27224   2.672   3.220   5.725  0.4629 -0.7459  0.2203
  943MOL0     C27225   2.538   3.175   5.744 -1.0210  0.3996  1.1510
  943MOL0     C27226   2.504   3.048   5.797 -0.8421  0.1902 -0.2316
  943MOL0     C27227   2.609   2.964   5.842  0.4614 -0.1594  0.3420
  943MOL0     O27228   2.584   2.835   5.898  0.3657  0.1562  0.4058
  943MOL0     C27229   2.456   2.797   5.940  0.0154  0.2684 -0.2870
  943MOL0     C27230   2.419   2.869   6.070 -0.0694 -0.0153 -0.1022
  943MOL0     C27231   2.501   2.820   6.191  0.3910 -0.7386 -0.4261
  943MOL0     C27232   2.446   2.866   6.327  1.1059  0.1886  0.5429
  943MOL0     C27233   2.332   2.782   6.373  0.0565 -0.1844 -0.2206
  943MOL0     C27234   2.231   2.726   6.419  0.6079 -0.3657  0.2169
  943MOL0     C27235   2.746   3.012   5.822  0.2227 -0.1820 -1.2005
  943MOL0     C27236   2.774   3.139   5.763 -0.5508 -0.1268 -0.6784
  943MOL0     C27237   2.918   3.171   5.775  0.6126 -0.3761  0.4318
  943MOL0     H27238   2.869   3.403   5.343  3.8839  2.1074 -2.2742
  943MOL0     H27239   2.942   3.619   5.253 -0.9870  0.1397 -0.6237
  943MOL0     H27240   3.094   3.803   5.251  0.7036  0.7284  0.0139
  943MOL0     H27241   2.927   3.868   5.190  1.7555 -0.6686 -2.6269
  943MOL0     H27242   3.147   4.000   5.333 -0.6862 -3.1372  0.7856
  943MOL0     H27243   2.974   4.062   5.313 -0.6056 -1.2877  1.1114
  943MOL0     H27244   3.013   4.101   5.086  0.1059  0.0637  2.0697
  943MOL0     H27245   3.143   3.963   5.077  0.3917 -0.8987  1.0815
  943MOL0     H27246   3.170   4.258   5.189  0.7804 -0.6489  0.8430
  943MOL0     H27247   3.290   4.130   5.198 -2.7841 -0.7429  3.6098
  943MOL0     H27248   3.195   4.237   4.928 -2.4403 -1.0131  1.3015
  943MOL0     H27249   3.320   4.311   5.018  0.5039  0.0351 -2.9156
  943MOL0     H27250   3.440   4.075   5.033 -1.6837  0.1999  1.2135
  943MOL0     H27251   3.321   4.013   4.920  0.3801  1.1159 -2.5425
  943MOL0     H27252   3.473   4.247   4.851  0.6786 -0.0447 -0.0165
  943MOL0     H27253   3.393   4.133   4.733  0.7709  0.7867  0.1200
  943MOL0     H27254   3.636   4.075   4.899  0.8228  1.6541  0.0527
  943MOL0     H27255   3.535   3.954   4.817  0.1877 -0.1654  2.6490
  943MOL0     H27256   3.680   3.889   4.617 -0.3966 -0.1205 -1.3915
  943MOL0     H27257   3.991   4.040   4.470  0.0034  0.1815 -1.1928
  943MOL0     H27258   3.905   3.885   4.477  1.5266 -0.1287 -0.0213
  943MOL0     H27259   3.749   4.018   4.301  0.7054  0.1369 -1.6727
  943MOL0     H27260   3.886   4.126   4.281 -1.1583  1.3679  0.4048
  943MOL0     H27261   3.940   3.826   4.264  0.3958  0.1288 -2.2891
  943MOL0     H27262   4.046   3.968   4.232 -0.4508  2.6161  1.7021
  943MOL0     H27263   3.931   4.024   4.036 -0.9121  1.2748 -0.2878
  943MOL0     H27264   3.798   3.910   4.076 -0.1636 -0.6979  0.3760
  943MOL0     H27265   3.742   3.768   3.918 -0.7392 -0.4179 -1.6028
  943MOL0     H27266   3.675   3.689   3.675  0.4284 -1.0526 -0.6452
  943MOL0     H27267   4.072   3.633   3.236 -2.3635 -3.7245  0.0382
  943MOL0     H27268   4.095   3.632   2.979  2.4038  3.7158  0.1850
  943MOL0     H27269   3.810   3.605   2.680  0.2241 -0.5494  0.8773
  943MOL0     H27270   3.728   3.637   2.838 -0.3818  0.2258  0.6837
  943MOL0     H27271   3.735   3.893   2.757 -3.0304  0.9313  0.4837
  943MOL0     H27272   3.782   3.830   2.603 -0.1566  0.4457  0.7515
  943MOL0     H27273   3.578   3.698   2.581 -2.3096  1.0100 -1.7472
  943MOL0     H27274   3.534   3.727   2.742  2.7973  0.2670  1.6908
  943MOL0     H27275   3.471   3.952   2.697 -0.1762 -1.2732 -0.0152
  943MOL0     H27276   3.412   3.867   2.556 -0.8490  0.6029  0.7682
  943MOL0     H27277   3.622   3.937   2.419 -1.0634 -0.6922  0.0979
  943MOL0     H27278   3.664   4.041   2.554 -1.2510 -0.4522  2.5669
  943MOL0     H27279   3.382   4.089   2.439  0.5011  0.7349 -2.7954
  943MOL0     H27280   3.479   4.184   2.545  1.6170 -1.6760  2.1877
  943MOL0     H27281   3.482   4.258   2.307  0.4063 -0.3022 -1.6952
  943MOL0     H27282   3.524   4.109   2.260 -1.6475  1.9864 -0.3686
  943MOL0     H27283   3.763   4.133   2.319 -0.8806  0.1462  0.0850
  943MOL0     H27284   3.708   4.288   2.253 -2.8920  0.8484 -0.4002
  943MOL0     H27285   3.736   3.851   2.953  0.6441  1.6632 -0.4964
  943MOL0     H27286   3.719   3.867   3.199  0.2157 -0.1574  0.2074
  943MOL0     H27287   4.075   3.839   3.565  0.9254 -0.0955  1.1037
  943MOL0     H27288   4.139   3.854   3.795 -0.6523  3.3398 -1.5955
  943MOL0     H27289   2.876   3.788   5.648  3.1980 -0.1029 -0.8572
  943MOL0     H27290   2.829   3.572   5.727  1.0457  0.4128  0.2369
  943MOL0     H27291   2.457   3.245   5.725 -2.3552 -0.8562  2.0849
  943MOL0     H27292   2.397   3.026   5.796 -1.6770  3.5480  1.5463
  943MOL0     H27293   2.443   2.691   5.961  1.5862  0.2814  0.9399
  943MOL0     H27294   2.382   2.821   5.862 -1.5346 -0.2218  0.9842
  943MOL0     H27295   2.315   2.845   6.097  0.6199 -0.0675  2.8556
  943MOL0     H27296   2.423   2.977   6.056  1.8916 -0.2651 -1.7932
  943MOL0     H27297   2.598   2.871   6.196  0.8834 -1.6107 -0.6889
  943MOL0     H27298   2.528   2.715   6.176 -0.9807 -1.1623 -0.0384
  943MOL0     H27299   2.521   2.853   6.406  0.7151  0.2550  0.9317
  943MOL0     H27300   2.414   2.971   6.324  0.5368  0.0146  0.3879
  943MOL0     H27301   2.138   2.683   6.451 -1.3709  2.4727 -1.1846
  943MOL0     H27302   2.828   2.958   5.868  1.1858  2.3189  0.1756
  943MOL0     H27303   2.928   3.278   5.755 -1.8587  0.2481  2.0774
  943MOL0     H27304   2.960   3.161   5.876  0.4374  0.3131  0.5747
  943MOL0     H27305   2.980   3.120   5.700  0.8072 -4.8418  3.2502
  944MOL0     O27306   6.024   5.283  10.569  0.3921  0.4966  0.8290
  944MOL0     C27307   5.980   5.245  10.680  0.7227  0.1696 -0.0439
  944MOL0     O27308   6.061   5.225  10.791  0.0425  0.6546 -1.0787
  944MOL0     C27309   6.191   5.279  10.803 -0.6416 -0.0936 -0.2250
  944MOL0     C27310   6.305   5.213  10.750 -0.9687  0.0545 -0.3942
  944MOL0     C27311   6.426   5.271  10.771 -0.1716  0.4989  0.1636
  944MOL0     C27312   6.449   5.405  10.821  1.2667  0.3946 -0.1717
  944MOL0     O27313   6.572   5.455  10.813  0.7515  0.0714  0.1829
  944MOL0     C27314   6.590   5.597  10.821  0.3074 -0.1290 -1.0101
  944MOL0     C27315   6.735   5.626  10.791 -0.1446  0.1769  0.1038
  944MOL0     C27316   6.817   5.580  10.906 -0.2604 -0.3039  0.2181
  944MOL0     C27317   6.965   5.601  10.860  0.0089  0.4347 -0.6266
  944MOL0     C27318   7.070   5.562  10.961  0.4015 -0.0280  0.1312
  944MOL0     C27319   7.051   5.413  11.011  0.3338  0.0194 -0.7073
  944MOL0     C27320   7.163   5.368  11.107  0.4499 -0.0182 -0.4239
  944MOL0     C27321   7.213   5.229  11.070  0.0749 -0.5301 -0.1920
  944MOL0     N27322   7.325   5.179  11.148 -1.2199 -0.6547 -0.7344
  944MOL0     C27323   7.449   5.241  11.162  1.4300  0.0949  0.2211
  944MOL0     C27324   7.527   5.146  11.225 -0.8813  0.4096 -0.0777
  944MOL0     C27325   7.670   5.152  11.268  0.0808  0.5561  0.4097
  944MOL0     C27326   7.702   5.264  11.361  0.3207  1.0358  0.6449
  944MOL0     C27327   7.663   5.224  11.512  0.2441  0.8450  0.2440
  944MOL0     C27328   7.534   5.284  11.568 -0.0442 -1.0642  0.6260
  944MOL0     O27329   7.545   5.423  11.591  0.3461  0.3597 -0.3306
  944MOL0     C27330   7.567   5.450  11.723 -0.4847 -0.3683  0.9587
  944MOL0     C27331   7.452   5.486  11.801 -0.4356  0.0105 -0.5715
  944MOL0     C27332   7.465   5.506  11.943 -0.1903  0.3358  0.2413
  944MOL0     C27333   7.589   5.486  12.006 -0.7218 -0.0032  0.3522
  944MOL0     C27334   7.605   5.487  12.154  0.2397 -0.7687  0.2760
  944MOL0     O27335   7.516   5.566  12.222 -0.3362 -1.3341  0.2905
  944MOL0     C27336   7.537   5.637  12.331  0.4371  0.8579 -0.0206
  944MOL0     C27337   7.444   5.631  12.437  0.0104 -0.4831 -0.8141
  944MOL0     C27338   7.465   5.725  12.539 -0.3214  0.8439 -0.3269
  944MOL0     C27339   7.578   5.807  12.550  0.3659 -0.0997  0.5321
  944MOL0     O27340   7.608   5.888  12.657 -1.0252  0.0877  0.4142
  944MOL0     C27341   7.507   5.969  12.711 -0.1124  0.8377  1.4731
  944MOL0     C27342   7.558   6.063  12.818  0.3142  0.1806  0.3614
  944MOL0     C27343   7.610   6.199  12.769 -0.4384  0.2168 -0.7860
  944MOL0     C27344   7.711   6.260  12.874  0.9514 -0.8886  1.2491
  944MOL0     C27345   7.723   6.403  12.820  0.2537 -0.4900  0.1076
  944MOL0     C27346   7.797   6.501  12.911 -0.5964  0.5731  1.3704
  944MOL0     C27347   7.866   6.601  12.825  1.2272  0.2356  0.0426
  944MOL0     C27348   7.968   6.683  12.905 -0.1585  0.1653  0.1110
  944MOL0    Cl27349   7.999   6.824  12.781  0.4517  0.2875 -0.4076
  944MOL0     C27350   7.676   5.802  12.445  0.3164 -0.9619 -0.4889
  944MOL0     C27351   7.652   5.720  12.337  0.1669 -0.9942  0.2796
  944MOL0     O27352   7.711   5.446  12.205  0.1977 -0.2611  0.9746
  944MOL0     C27353   7.700   5.464  11.925 -0.2463 -0.1857  1.3627
  944MOL0     C27354   7.682   5.441  11.784 -0.5466  0.4012 -1.4248
  944MOL0     N27355   7.448   5.033  11.249 -0.0103  0.7184  0.9797
  944MOL0     N27356   7.335   5.059  11.203 -1.3952  0.3532  0.5911
  944MOL0     C27357   6.332   5.469  10.872 -0.7962 -0.5375 -0.0462
  944MOL0     C27358   6.206   5.409  10.856 -0.6002  0.0185 -0.4670
  944MOL0     C27359   5.839   5.200  10.692  0.5965 -0.5285  1.9200
  944MOL0     C27360   5.766   5.258  10.795  0.0569 -0.2175  0.3047
  944MOL0     C27361   5.627   5.244  10.813 -0.1956  0.0425 -0.1423
  944MOL0     C27362   5.555   5.149  10.727 -0.7608 -0.2326  0.2388
  944MOL0     O27363   5.428   5.136  10.755 -0.1685  0.4396  1.1602
  944MOL0     C27364   5.348   5.103  10.640  0.3676  0.4950 -0.1958
  944MOL0     C27365   5.311   4.957  10.643  0.9375 -0.3057 -0.7319
  944MOL0     C27366   5.218   4.940  10.770  0.4136 -0.4063  0.6425
  944MOL0     C27367   5.180   4.794  10.794 -0.6196  0.0717  0.0796
  944MOL0     C27368   5.136   4.726  10.672 -0.4052  0.2088 -0.7037
  944MOL0     C27369   5.079   4.677  10.578  0.2942  0.6706 -0.3508
  944MOL0     C27370   5.630   5.085  10.631  0.0269 -0.2589  0.0401
  944MOL0     C27371   5.766   5.100  10.614 -0.2449 -0.8548 -0.0747
  944MOL0     C27372   5.833   5.015  10.505 -0.0651  0.6820 -0.4461
  944MOL0     H27373   6.304   5.120  10.694  1.4125  0.1345 -0.6858
  944MOL0     H27374   6.514   5.221  10.731  1.5128  0.8185  3.2096
  944MOL0     H27375   6.529   5.654  10.750 -1.8203 -3.6880 -2.2915
  944MOL0     H27376   6.550   5.626  10.918  1.1294  1.4431 -1.1101
  944MOL0     H27377   6.748   5.734  10.782 -0.8624  0.5890  3.1143
  944MOL0     H27378   6.767   5.571  10.702 -0.6257 -1.5244  0.9347
  944MOL0     H27379   6.791   5.475  10.916  0.4407 -1.0284 -3.9039
  944MOL0     H27380   6.806   5.634  11.001 -2.7992  1.5003 -0.9926
  944MOL0     H27381   6.972   5.531  10.776 -1.2605 -0.4653 -0.0158
  944MOL0     H27382   6.992   5.699  10.819  1.3565  1.3914  2.3304
  944MOL0     H27383   7.158   5.575  10.897 -0.0456  0.9398 -0.2984
  944MOL0     H27384   7.068   5.628  11.048 -1.3947 -0.9057  0.8097
  944MOL0     H27385   6.956   5.408  11.065  1.2991  2.2081  1.3461
  944MOL0     H27386   7.043   5.340  10.929  2.1864 -2.3139  1.0548
  944MOL0     H27387   7.122   5.350  11.206 -0.4773 -1.6316 -1.0568
  944MOL0     H27388   7.239   5.447  11.110 -0.3916  0.7880  0.1187
  944MOL0     H27389   7.129   5.165  11.095  0.7879 -0.7215  1.9021
  944MOL0     H27390   7.236   5.226  10.963  1.3450  2.2391 -0.0869
  944MOL0     H27391   7.484   5.341  11.140 -0.6793  1.2916  1.8424
  944MOL0     H27392   7.709   5.058  11.309  0.0898 -0.4098 -1.7098
  944MOL0     H27393   7.722   5.159  11.173 -2.2040  1.2709 -0.8693
  944MOL0     H27394   7.811   5.272  11.359  0.3781  0.3273  0.4756
  944MOL0     H27395   7.652   5.357  11.332 -3.0739  0.0843  2.8167
  944MOL0     H27396   7.748   5.246  11.577 -0.8777  0.1689  2.0069
  944MOL0     H27397   7.662   5.116  11.531 -0.2790  1.3792  4.1877
  944MOL0     H27398   7.510   5.232  11.662 -1.4915 -3.7625 -1.1145
  944MOL0     H27399   7.448   5.277  11.500  0.9173 -0.1472 -0.7275
  944MOL0     H27400   7.351   5.502  11.764 -2.2815 -1.2937  3.3203
  944MOL0     H27401   7.374   5.518  12.000 -0.1099  0.7587  0.2911
  944MOL0     H27402   7.359   5.565  12.425  0.9775 -1.2371 -6.6490
  944MOL0     H27403   7.387   5.719  12.614 -0.0660 -2.1081 -0.1864
  944MOL0     H27404   7.467   6.014  12.620  1.6982 -3.6821 -1.9976
  944MOL0     H27405   7.434   5.902  12.758 -1.6740  0.8066 -0.8445
  944MOL0     H27406   7.471   6.081  12.882 -1.8946 -0.3330 -2.3252
  944MOL0     H27407   7.631   6.015  12.884 -0.4809  0.9212  1.8171
  944MOL0     H27408   7.656   6.178  12.672 -3.0942 -1.2894 -1.8189
  944MOL0     H27409   7.522   6.262  12.754 -1.8885 -1.7881 -1.1736
  944MOL0     H27410   7.808   6.212  12.859  1.9651  1.3007  0.3499
  944MOL0     H27411   7.668   6.258  12.974  0.6160 -0.5739  1.1141
  944MOL0     H27412   7.620   6.438  12.818 -0.6890 -3.0879 -2.2239
  944MOL0     H27413   7.763   6.409  12.719  0.8594  3.1596  0.4089
  944MOL0     H27414   7.724   6.544  12.980 -1.3056 -3.1686  3.2395
  944MOL0     H27415   7.867   6.439  12.968  1.8790  1.8747 -0.0725
  944MOL0     H27416   7.797   6.671  12.775 -0.1044 -0.7887  0.3795
  944MOL0     H27417   7.931   6.558  12.749  3.0331  0.2956  1.4931
  944MOL0     H27418   7.935   6.732  12.997  0.3982 -1.8634  1.4648
  944MOL0     H27419   8.052   6.621  12.938  1.0258  1.7593  0.2096
  944MOL0     H27420   7.760   5.871  12.453  1.2857 -1.9924 -1.4915
  944MOL0     H27421   7.721   5.721  12.253  0.7052  0.9718  0.6892
  944MOL0     H27422   7.803   5.468  11.960  1.0030 -1.0437 -1.8130
  944MOL0     H27423   7.772   5.414  11.731  0.1375 -4.7258  1.6311
  944MOL0     H27424   6.334   5.576  10.890 -3.5806  0.1844 -2.9271
  944MOL0     H27425   6.128   5.465  10.906 -0.9977 -1.3057  0.4599
  944MOL0     H27426   5.820   5.325  10.861  1.7540 -0.3049 -0.9343
  944MOL0     H27427   5.570   5.309  10.879  0.0454  0.1482 -0.0383
  944MOL0     H27428   5.394   5.114  10.541 -2.8728 -0.4255 -1.9359
  944MOL0     H27429   5.255   5.161  10.639 -2.5531 -3.7205 -2.0301
  944MOL0     H27430   5.402   4.896  10.642  1.8750  0.5765  3.8781
  944MOL0     H27431   5.257   4.942  10.550 -1.3616 -2.5478  0.8416
  944MOL0     H27432   5.128   5.001  10.757  0.5863  0.2495  2.2664
  944MOL0     H27433   5.261   4.988  10.858 -0.8575 -0.2374  1.2020
  944MOL0     H27434   5.265   4.736  10.830 -1.8792 -2.4384 -0.7769
  944MOL0     H27435   5.104   4.778  10.871 -0.8491 -0.3569 -0.2342
  944MOL0     H27436   5.031   4.629  10.495  0.1054 -1.5838  0.9973
  944MOL0     H27437   5.590   5.010  10.563  2.8773 -0.0374 -2.0483
  944MOL0     H27438   5.934   4.983  10.531 -0.6776 -0.4119  0.7141
  944MOL0     H27439   5.770   4.928  10.485  2.9530 -1.7436 -0.1226
  944MOL0     H27440   5.835   5.068  10.409 -0.3711 -1.1193 -1.4760
  945MOL0     O27441   9.281   3.061   1.928 -0.1572 -0.4623  0.1690
  945MOL0     C27442   9.359   2.971   1.898  1.6139 -0.4129 -0.0318
  945MOL0     O27443   9.329   2.870   1.808  1.1716  0.1981 -0.6341
  945MOL0     C27444   9.194   2.863   1.759 -0.4912 -0.3092 -0.7061
  945MOL0     C27445   9.081   2.820   1.834  0.2446  0.1218  0.6342
  945MOL0     C27446   8.951   2.844   1.772  0.1216 -0.8412 -0.9502
  945MOL0     C27447   8.939   2.909   1.649 -0.2668  0.1955  0.4877
  945MOL0     O27448   8.822   2.956   1.600 -0.5840  0.3549  0.0936
  945MOL0     C27449   8.693   2.942   1.663  0.5287 -0.7528 -0.4852
  945MOL0     C27450   8.618   3.076   1.634 -0.5154 -0.3349 -0.3567
  945MOL0     C27451   8.663   3.201   1.703 -0.1811  0.3399 -0.0171
  945MOL0     C27452   8.633   3.200   1.846  0.4085 -0.5818  0.0213
  945MOL0     C27453   8.679   3.322   1.924  0.0516 -0.2921  0.3589
  945MOL0     C27454   8.838   3.350   1.953 -0.4052  0.1569 -0.0922
  945MOL0     C27455   8.920   3.223   1.988  0.2177 -0.0305 -0.6259
  945MOL0     C27456   9.067   3.262   2.002  0.1431 -0.6505 -0.2597
  945MOL0     N27457   9.107   3.371   2.096  0.3582  0.6098  0.6034
  945MOL0     C27458   9.155   3.345   2.215  0.6384 -0.3245 -0.1910
  945MOL0     C27459   9.207   3.463   2.252 -0.6860  0.6363 -0.7520
  945MOL0     C27460   9.267   3.500   2.391 -0.2215  0.2031  0.4660
  945MOL0     C27461   9.398   3.420   2.404  0.4191 -0.2589 -0.5051
  945MOL0     C27462   9.465   3.452   2.538  0.3929  0.0948  0.1166
  945MOL0     C27463   9.594   3.387   2.572 -0.6398 -0.9244  0.0414
  945MOL0     O27464   9.688   3.451   2.474  0.5070  1.1288  0.2843
  945MOL0     C27465   9.811   3.406   2.438  0.4340  0.5330  0.0512
  945MOL0     C27466   9.887   3.483   2.349 -0.4170  0.0203  0.4497
  945MOL0     C27467   9.996   3.429   2.289  0.4094 -0.4968  0.1875
  945MOL0     C27468  10.052   3.303   2.316 -0.1620  0.4683  0.5516
  945MOL0     C27469  10.162   3.243   2.230 -0.0363  0.6976  0.0976
  945MOL0     O27470  10.199   3.117   2.258 -1.2474 -0.0958  0.1762
  945MOL0     C27471  10.306   3.046   2.205  0.1355 -0.5140  0.1562
  945MOL0     C27472  10.444   3.094   2.221  0.0845  0.6655 -0.1457
  945MOL0     C27473  10.548   3.016   2.192 -0.2044  0.4761  0.1425
  945MOL0     C27474  10.526   2.890   2.132  0.6748 -0.7853  0.1166
  945MOL0     O27475  10.632   2.809   2.092  0.2508 -0.4056  0.2723
  945MOL0     C27476  10.767   2.857   2.065 -0.1807  0.0283  0.7303
  945MOL0     C27477  10.852   2.734   2.051  0.5990  0.4700  0.0293
  945MOL0     C27478  11.006   2.770   2.054  0.2807  1.2242 -0.2501
  945MOL0     C27479  11.097   2.645   2.031  0.4794  0.2777 -0.5163
  945MOL0     C27480  11.106   2.572   2.164  0.2170 -0.4145 -0.3392
  945MOL0     C27481  11.211   2.459   2.164 -0.4104  0.6878  0.4386
  945MOL0     C27482  11.360   2.511   2.166  1.0237  0.4561  0.6437
  945MOL0     C27483  11.409   2.611   2.270 -0.5557 -0.6284 -0.5707
  945MOL0    Cl27484  11.357   2.566   2.438 -0.3592  0.3016  0.3798
  945MOL0     C27485  10.395   2.849   2.094  0.8980 -0.0020  0.0950
  945MOL0     C27486  10.285   2.932   2.130  0.0082 -0.5382  0.5440
  945MOL0     O27487  10.223   3.318   2.147  0.5291  0.3807 -0.1110
  945MOL0     C27488   9.970   3.217   2.408 -0.7626 -0.2903  0.7765
  945MOL0     C27489   9.863   3.275   2.479  0.1042  0.0786 -0.7347
  945MOL0     N27490   9.204   3.552   2.148 -1.0896  0.2027  0.1579
  945MOL0     N27491   9.143   3.495   2.053 -0.4149 -0.4780  0.4148
  945MOL0     C27492   9.056   2.934   1.574  1.3805 -0.4727  0.0441
  945MOL0     C27493   9.180   2.916   1.627  0.7269 -0.6962 -0.1500
  945MOL0     C27494   9.498   2.992   1.932  0.2863  0.0749 -0.3435
  945MOL0     C27495   9.602   2.929   1.849  0.2640 -0.2196 -0.5004
  945MOL0     C27496   9.739   2.943   1.882  0.1026  0.0628  0.3498
  945MOL0     C27497   9.777   3.028   1.987  0.6967 -0.3505  0.1430
  945MOL0     O27498   9.906   3.053   2.013  0.2192 -0.7707 -0.0998
  945MOL0     C27499   9.948   3.190   1.977  0.2995 -0.4394  0.1409
  945MOL0     C27500   9.910   3.236   1.835  0.0021  0.3741 -1.1020
  945MOL0     C27501   9.952   3.141   1.724 -0.1135 -0.6711  0.6396
  945MOL0     C27502   9.864   3.112   1.601  0.4011  0.3304  0.0325
  945MOL0     C27503   9.820   3.241   1.537 -0.3730 -0.2094 -0.7784
  945MOL0     C27504   9.794   3.340   1.473 -0.0430  0.5636  0.6788
  945MOL0     C27505   9.683   3.089   2.067 -0.9093  0.9669 -1.2199
  945MOL0     C27506   9.547   3.065   2.046  0.3338 -0.3946 -0.5823
  945MOL0     C27507   9.462   3.124   2.147  0.8446  0.6316  0.5091
  945MOL0     H27508   9.097   2.778   1.933 -2.1168 -0.8894  0.6605
  945MOL0     H27509   8.859   2.826   1.827  0.9310  1.6588  1.4278
  945MOL0     H27510   8.637   2.861   1.616 -1.5459  0.4600 -0.2243
  945MOL0     H27511   8.691   2.940   1.773  0.8011  1.8226 -0.3611
  945MOL0     H27512   8.518   3.068   1.678  0.1187  3.0788  2.1898
  945MOL0     H27513   8.614   3.091   1.526 -1.0993 -2.3042 -0.6587
  945MOL0     H27514   8.602   3.275   1.651 -3.2963 -3.6600 -2.7034
  945MOL0     H27515   8.772   3.210   1.697 -0.0735 -0.7886 -0.0977
  945MOL0     H27516   8.527   3.182   1.865  0.6511 -0.3396  1.7954
  945MOL0     H27517   8.680   3.115   1.896 -0.3593  0.1928  2.2139
  945MOL0     H27518   8.625   3.412   1.894 -0.3511 -0.8380 -0.6090
  945MOL0     H27519   8.654   3.306   2.029  0.2899  1.0665  0.6386
  945MOL0     H27520   8.896   3.402   1.877  1.9957 -1.2058  0.7235
  945MOL0     H27521   8.826   3.411   2.043 -0.8435 -0.6890  0.4350
  945MOL0     H27522   8.905   3.152   1.907  3.7168  0.6060 -2.0476
  945MOL0     H27523   8.880   3.176   2.078  1.7468  1.4744  0.9326
  945MOL0     H27524   9.113   3.172   2.043  2.7557  1.1852  1.1407
  945MOL0     H27525   9.104   3.280   1.901 -3.0544  0.3466 -1.3776
  945MOL0     H27526   9.147   3.252   2.271 -0.2223 -0.8257 -1.1248
  945MOL0     H27527   9.284   3.605   2.417  1.2044 -0.1539  1.1279
  945MOL0     H27528   9.195   3.464   2.464 -1.2974 -2.0752 -1.5934
  945MOL0     H27529   9.370   3.315   2.391  1.3431 -0.5312 -0.4002
  945MOL0     H27530   9.473   3.433   2.325 -1.7417 -0.2450 -2.6771
  945MOL0     H27531   9.390   3.435   2.616 -1.0513  1.2265 -0.9708
  945MOL0     H27532   9.485   3.559   2.530 -0.2594  0.2924  1.0456
  945MOL0     H27533   9.583   3.279   2.559 -0.4997 -1.0452  0.8701
  945MOL0     H27534   9.620   3.395   2.678  3.1913 -3.1522 -0.5662
  945MOL0     H27535   9.834   3.570   2.310 -4.1967 -2.2981 -0.0725
  945MOL0     H27536  10.036   3.488   2.208 -0.8042 -1.4851 -1.1727
  945MOL0     H27537  10.463   3.195   2.255  0.5424 -0.4105  3.0874
  945MOL0     H27538  10.651   3.050   2.190  0.1006 -0.4253 -0.9559
  945MOL0     H27539  10.787   2.924   1.981  0.6751  0.9671  1.6479
  945MOL0     H27540  10.800   2.900   2.160  0.6377 -2.2973  1.5693
  945MOL0     H27541  10.833   2.675   2.140 -1.5029 -1.2837 -1.4677
  945MOL0     H27542  10.812   2.683   1.962 -0.8700  2.8767 -0.8020
  945MOL0     H27543  11.037   2.840   1.976  0.4434 -0.8536 -2.1591
  945MOL0     H27544  11.035   2.808   2.152  1.0366  1.1693 -0.4465
  945MOL0     H27545  11.197   2.677   2.002  0.9129  1.4480  1.9565
  945MOL0     H27546  11.058   2.579   1.953  2.0447 -0.9897 -0.2874
  945MOL0     H27547  11.008   2.527   2.184  0.9908 -1.3114  1.7566
  945MOL0     H27548  11.129   2.638   2.248 -0.7252  1.8012 -1.7301
  945MOL0     H27549  11.208   2.401   2.256  1.8335  1.6870  1.2331
  945MOL0     H27550  11.191   2.393   2.080 -0.9303  1.3903  0.0008
  945MOL0     H27551  11.366   2.549   2.063 -1.3531  0.0132  0.2856
  945MOL0     H27552  11.420   2.422   2.184 -0.2845 -0.3452  1.1873
  945MOL0     H27553  11.514   2.639   2.254  0.2381 -1.4713  2.4488
  945MOL0     H27554  11.359   2.705   2.243  3.2052  2.4094  1.8377
  945MOL0     H27555  10.369   2.757   2.043 -3.4987  0.8141  0.4375
  945MOL0     H27556  10.181   2.904   2.111 -0.0856 -1.5918  2.3802
  945MOL0     H27557  10.010   3.116   2.417  2.3099  0.8006  0.4402
  945MOL0     H27558   9.788   3.210   2.524  0.7672  0.4166  0.9257
  945MOL0     H27559   9.039   2.971   1.474  0.4768 -1.6795 -0.2665
  945MOL0     H27560   9.260   2.966   1.572 -2.1376  2.1985 -2.0706
  945MOL0     H27561   9.561   2.870   1.768 -0.5067  2.9442 -2.6230
  945MOL0     H27562   9.809   2.884   1.824 -1.3482  0.1464 -1.5937
  945MOL0     H27563  10.058   3.185   1.975  0.2641 -1.8158  0.8047
  945MOL0     H27564   9.926   3.270   2.049  2.0842 -0.3384  0.6308
  945MOL0     H27565   9.950   3.337   1.821 -1.3590  0.9967 -0.7195
  945MOL0     H27566   9.801   3.250   1.834  0.1101  1.7679  0.7729
  945MOL0     H27567   9.985   3.051   1.777 -1.2215  0.3342  3.2436
  945MOL0     H27568  10.043   3.185   1.682  1.1661 -0.1918  3.5875
  945MOL0     H27569   9.926   3.055   1.530 -0.5877 -0.9633  0.1805
  945MOL0     H27570   9.792   3.041   1.644  1.7060  1.1051  3.8885
  945MOL0     H27571   9.755   3.406   1.399 -0.3511  0.8206  1.0651
  945MOL0     H27572   9.716   3.148   2.152 -4.4424 -1.5263  2.2398
  945MOL0     H27573   9.448   3.229   2.118  1.2277  1.0342  1.7111
  945MOL0     H27574   9.364   3.075   2.145  1.6218 -1.0058 -2.3719
  945MOL0     H27575   9.506   3.108   2.246  0.5800  2.4706  0.9707
  946MOL0     O27576   3.297   3.115  11.250  0.5406 -0.4953 -0.3054
  946MOL0     C27577   3.281   2.991  11.244 -0.5062 -0.8403 -1.2265
  946MOL0     O27578   3.345   2.897  11.322 -0.8806 -0.0028 -0.9576
  946MOL0     C27579   3.423   2.940  11.428 -0.1708  0.0917  0.5078
  946MOL0     C27580   3.375   3.001  11.540  0.5064 -0.7564  0.3436
  946MOL0     C27581   3.465   3.044  11.632 -0.4735 -0.2430  0.6095
  946MOL0     C27582   3.602   3.031  11.618  0.2341  0.8420 -0.6808
  946MOL0     O27583   3.700   3.087  11.699  0.5602 -0.1513  0.4807
  946MOL0     C27584   3.686   3.073  11.840  0.1872 -1.2608  0.0763
  946MOL0     C27585   3.835   3.031  11.875  0.0293  0.3851 -0.0778
  946MOL0     C27586   3.860   2.884  11.833 -0.0206 -0.5123 -0.3004
  946MOL0     C27587   4.007   2.839  11.880 -0.6398 -0.3930  0.7450
  946MOL0     C27588   4.021   2.689  11.886 -0.5426  0.2369  0.0652
  946MOL0     C27589   4.154   2.647  11.966 -0.5012 -0.5744  0.9780
  946MOL0     C27590   4.163   2.494  11.957  0.4224  1.1436  0.3991
  946MOL0     C27591   4.295   2.440  12.022 -0.3485 -0.8963 -0.8755
  946MOL0     N27592   4.273   2.335  12.116  0.6621  0.1826  0.0495
  946MOL0     C27593   4.303   2.199  12.096 -0.1622 -0.1329  0.4865
  946MOL0     C27594   4.331   2.146  12.218 -0.2649 -0.3717 -0.0731
  946MOL0     C27595   4.391   2.017  12.262  0.5107 -0.3060  0.5968
  946MOL0     C27596   4.523   1.975  12.195  0.1591 -0.7363 -0.4809
  946MOL0     C27597   4.649   1.990  12.285 -0.8344  1.3817 -0.3953
  946MOL0     C27598   4.763   1.939  12.200 -0.0333  0.9663 -0.2337
  946MOL0     O27599   4.872   1.883  12.278 -0.9886  0.3029  0.2217
  946MOL0     C27600   4.859   1.756  12.332 -0.2014 -0.2854 -0.6049
  946MOL0     C27601   4.972   1.700  12.388  0.1045  0.1982 -0.2003
  946MOL0     C27602   4.984   1.579  12.447  0.3047  1.1214 -0.6784
  946MOL0     C27603   4.871   1.491  12.462 -0.0753 -0.2492  0.3367
  946MOL0     C27604   4.871   1.370  12.545 -0.3678 -0.1414 -0.3992
  946MOL0     O27605   4.978   1.337  12.619  0.9747  0.2290  0.4779
  946MOL0     C27606   4.968   1.266  12.736  0.3002  0.5476 -0.3782
  946MOL0     C27607   5.049   1.154  12.748  0.4257  0.7198  0.7153
  946MOL0     C27608   5.048   1.075  12.859 -0.0645 -1.6223  0.5429
  946MOL0     C27609   4.967   1.107  12.975 -0.3066  0.8076 -0.2257
  946MOL0     O27610   4.962   1.024  13.087 -0.5995  0.1720  0.8463
  946MOL0     C27611   4.833   0.970  13.111  0.0083 -0.0155 -0.4139
  946MOL0     C27612   4.813   0.849  13.025  0.3357  0.1403  0.5383
  946MOL0     C27613   4.871   0.705  13.066 -0.1410 -0.4295 -0.5365
  946MOL0     C27614   4.830   0.604  12.957  0.1365  0.2033  0.3684
  946MOL0     C27615   4.825   0.463  13.022  0.1508  0.3884  0.4815
  946MOL0     C27616   4.777   0.354  12.925 -0.0334 -0.8222  0.3413
  946MOL0     C27617   4.639   0.306  12.944  0.4614  0.3993 -1.2168
  946MOL0     C27618   4.540   0.398  12.890 -0.5694  0.1571 -0.1049
  946MOL0    Cl27619   4.382   0.330  12.939 -0.0560  0.4579  0.1835
  946MOL0     C27620   4.887   1.217  12.957  0.1461  0.2991  0.4738
  946MOL0     C27621   4.891   1.299  12.840  0.8547  0.0333 -0.5537
  946MOL0     O27622   4.768   1.301  12.541 -0.9272 -0.4359  0.1153
  946MOL0     C27623   4.761   1.531  12.392  0.7211 -0.6187  0.5084
  946MOL0     C27624   4.748   1.665  12.332  1.2354 -1.3765 -0.2079
  946MOL0     N27625   4.292   2.248  12.308  0.2204  0.1952  0.0624
  946MOL0     N27626   4.266   2.362  12.251 -0.8398 -0.1185  0.1040
  946MOL0     C27627   3.649   2.960  11.508 -0.2322 -0.4540  0.2840
  946MOL0     C27628   3.557   2.905  11.420  0.3814  0.1212 -0.1908
  946MOL0     C27629   3.205   2.941  11.131  0.6561  0.4658 -0.2253
  946MOL0     C27630   3.083   3.002  11.097 -0.1407  0.0761 -0.0736
  946MOL0     C27631   2.993   2.951  11.006  0.0598  0.0043 -0.6045
  946MOL0     C27632   3.030   2.839  10.934 -1.1152  0.6753  1.2435
  946MOL0     O27633   2.952   2.799  10.834  0.1845 -0.3197  0.7976
  946MOL0     C27634   2.838   2.716  10.886 -0.2041 -0.8919  0.7777
  946MOL0     C27635   2.793   2.613  10.786 -0.0118 -0.0021 -0.8337
  946MOL0     C27636   2.762   2.668  10.648  0.2714 -0.0569 -0.0370
  946MOL0     C27637   2.695   2.551  10.574 -0.2210 -0.2577 -0.4568
  946MOL0     C27638   2.672   2.590  10.434 -0.8525  0.2904  0.4297
  946MOL0     C27639   2.689   2.612  10.322  0.4974 -0.5259  0.7486
  946MOL0     C27640   3.158   2.768  10.954  1.2191  0.5795  0.5502
  946MOL0     C27641   3.240   2.824  11.056  0.0627  0.2519 -0.1386
  946MOL0     C27642   3.377   2.769  11.082  0.5177  0.3798 -0.5418
  946MOL0     H27643   3.269   3.024  11.549  0.9537  1.7683 -0.2011
  946MOL0     H27644   3.444   3.094  11.726 -0.2476 -0.3274  0.7068
  946MOL0     H27645   3.662   3.161  11.900  1.1844  0.3845 -1.8227
  946MOL0     H27646   3.606   3.002  11.863 -2.3300  0.3328 -2.9829
  946MOL0     H27647   3.856   3.030  11.982  2.8536 -2.3606 -0.4933
  946MOL0     H27648   3.908   3.094  11.822  0.0255  0.7172  0.3144
  946MOL0     H27649   3.847   2.888  11.725  2.8568  0.1288 -0.7028
  946MOL0     H27650   3.777   2.825  11.874 -1.9538  2.6918  0.7094
  946MOL0     H27651   4.089   2.877  11.818  0.9934  0.7305  3.4308
  946MOL0     H27652   4.013   2.889  11.977 -0.6719  0.6609  0.2247
  946MOL0     H27653   3.945   2.656  11.958  2.0862 -1.9816  2.0095
  946MOL0     H27654   4.003   2.641  11.789 -2.2744  0.2365  0.3547
  946MOL0     H27655   4.238   2.693  11.913 -3.3710  1.1673 -2.5399
  946MOL0     H27656   4.153   2.682  12.069  2.1024 -3.3649  2.0923
  946MOL0     H27657   4.154   2.455  11.855  0.8642  0.5575  0.5757
  946MOL0     H27658   4.071   2.458  12.003 -0.2204 -0.7124 -2.1108
  946MOL0     H27659   4.368   2.399  11.952  1.7640 -2.5411  2.0602
  946MOL0     H27660   4.342   2.527  12.068 -0.0487 -2.3670  1.8407
  946MOL0     H27661   4.308   2.147  12.001  2.6831 -0.1990  0.5773
  946MOL0     H27662   4.407   2.013  12.370 -1.9419  2.5217  1.1844
  946MOL0     H27663   4.313   1.940  12.253  0.1903  0.1511 -0.7997
  946MOL0     H27664   4.496   1.869  12.187 -0.2666 -0.6879  0.2179
  946MOL0     H27665   4.533   2.024  12.097  0.2057 -0.4649 -0.3401
  946MOL0     H27666   4.639   1.921  12.369 -1.5307 -2.6652 -3.5288
  946MOL0     H27667   4.685   2.088  12.318  4.1380 -0.7674  1.4583
  946MOL0     H27668   4.821   2.015  12.147  2.4766 -0.3509  0.4788
  946MOL0     H27669   4.725   1.855  12.140 -0.8188  0.1152  1.3947
  946MOL0     H27670   5.065   1.757  12.387 -1.0544  2.2294  0.3515
  946MOL0     H27671   5.081   1.546  12.484 -0.2067 -0.8406 -0.9909
  946MOL0     H27672   5.106   1.123  12.661  0.3594 -0.5065  1.1016
  946MOL0     H27673   5.114   0.988  12.852 -0.8152 -2.1402 -0.3431
  946MOL0     H27674   4.828   0.939  13.216  1.8754 -2.8558 -1.0438
  946MOL0     H27675   4.755   1.043  13.087  0.1164  0.8025  1.5869
  946MOL0     H27676   4.704   0.842  13.019  0.0299  3.1006  1.1593
  946MOL0     H27677   4.853   0.872  12.926 -2.1856 -0.8662 -0.8032
  946MOL0     H27678   4.980   0.715  13.071  0.1407 -0.3623 -4.1744
  946MOL0     H27679   4.843   0.684  13.170 -2.1153  0.0113 -0.9387
  946MOL0     H27680   4.904   0.620  12.878 -0.9277 -2.4435 -1.2987
  946MOL0     H27681   4.731   0.627  12.916  0.1414  0.8565  0.7234
  946MOL0     H27682   4.758   0.458  13.108  0.5470 -0.0221  0.7694
  946MOL0     H27683   4.924   0.446  13.064  0.8723  1.8588 -0.5268
  946MOL0     H27684   4.794   0.389  12.823 -3.3497 -0.1576 -0.0914
  946MOL0     H27685   4.848   0.270  12.935 -0.9629 -2.0990 -2.7021
  946MOL0     H27686   4.614   0.297  13.050 -2.6916  2.1441 -1.6734
  946MOL0     H27687   4.644   0.202  12.911  1.0432  0.1057 -0.2366
  946MOL0     H27688   4.553   0.500  12.925 -1.4441  0.6165 -1.0352
  946MOL0     H27689   4.543   0.418  12.782  0.8188  2.1268  0.2488
  946MOL0     H27690   4.831   1.253  13.042  1.6817  0.9040  1.2635
  946MOL0     H27691   4.832   1.390  12.829  3.1083  1.4232 -1.8695
  946MOL0     H27692   4.681   1.458  12.392  1.2905 -1.2502  0.2752
  946MOL0     H27693   4.649   1.684  12.292  0.3015  0.6745  2.7310
  946MOL0     H27694   3.754   2.933  11.502 -0.4509 -1.4891  0.9096
  946MOL0     H27695   3.595   2.845  11.338 -0.8445  1.1294 -1.5584
  946MOL0     H27696   3.054   3.076  11.171 -0.3855 -0.2022  0.1152
  946MOL0     H27697   2.899   3.000  10.982  1.6093  3.6938  0.2781
  946MOL0     H27698   2.758   2.790  10.899  0.8872  0.6708 -0.9287
  946MOL0     H27699   2.868   2.676  10.983 -0.5920  1.1979  1.8297
  946MOL0     H27700   2.707   2.561  10.830  0.2110 -0.2601 -0.7000
  946MOL0     H27701   2.880   2.547  10.786  1.1478  1.4768 -0.9853
  946MOL0     H27702   2.853   2.702  10.598 -0.6387  1.2926 -0.8601
  946MOL0     H27703   2.685   2.746  10.654  0.2693 -0.1361  1.1762
  946MOL0     H27704   2.768   2.470  10.561  0.2995  0.5416 -3.1240
  946MOL0     H27705   2.611   2.516  10.635 -0.2891  2.0225  0.8890
  946MOL0     H27706   2.696   2.630  10.217 -2.0202 -0.8319  0.4466
  946MOL0     H27707   3.192   2.679  10.901  2.3542 -0.0519  2.2188
  946MOL0     H27708   3.452   2.846  11.102 -1.2000  1.9908 -0.1127
  946MOL0     H27709   3.374   2.704  11.170  2.3686  1.2816  0.2432
  946MOL0     H27710   3.400   2.706  10.996  1.1295 -0.3189  0.1171
  947MOL0     O27711   3.288   0.066  11.129 -0.2765  0.6525 -0.7073
  947MOL0     C27712   3.259   0.133  11.224 -0.3392 -0.6161  0.1078
  947MOL0     O27713   3.209   0.086  11.343 -0.0630  0.9230 -0.3583
  947MOL0     C27714   3.227  -0.050  11.359 -0.6811 -0.3413  0.8290
  947MOL0     C27715   3.335  -0.092  11.431  1.3651  0.1372 -1.2614
  947MOL0     C27716   3.352  -0.223  11.454  0.0025  0.3990 -0.1380
  947MOL0     C27717   3.266  -0.317  11.388 -0.9430  0.0094 -0.1972
  947MOL0     O27718   3.285  -0.447  11.424  0.0574 -0.6363 -0.3389
  947MOL0     C27719   3.225  -0.557  11.343 -0.7007  0.1769 -0.1298
  947MOL0     C27720   3.315  -0.680  11.360 -0.5726 -0.5091  0.8156
  947MOL0     C27721   3.443  -0.666  11.274 -0.5410  0.5979  0.5321
  947MOL0     C27722   3.577  -0.707  11.341  0.2935  0.1258  0.1755
  947MOL0     C27723   3.705  -0.659  11.252 -0.6526  0.1951  0.1810
  947MOL0     C27724   3.838  -0.720  11.312 -0.5924  0.4735 -0.1808
  947MOL0     C27725   3.966  -0.699  11.226  0.2662  0.1738 -0.9823
  947MOL0     C27726   4.095  -0.752  11.305  0.6999  0.0567 -0.6230
  947MOL0     N27727   4.210  -0.747  11.221  0.3418  0.2122 -0.3686
  947MOL0     C27728   4.331  -0.739  11.272  0.3954  1.1455 -1.0617
  947MOL0     C27729   4.414  -0.742  11.169 -0.3007 -0.1475  0.2099
  947MOL0     C27730   4.559  -0.747  11.167  0.3834 -0.5682 -0.2938
  947MOL0     C27731   4.624  -0.885  11.177 -0.3980  0.5902  0.3878
  947MOL0     C27732   4.608  -0.955  11.324 -0.5735 -0.4464 -0.1266
  947MOL0     C27733   4.737  -0.948  11.413  0.0755 -0.1083 -0.1608
  947MOL0     O27734   4.818  -1.069  11.402 -0.0967  1.7335  0.0049
  947MOL0     C27735   4.953  -1.076  11.426 -0.7548  0.1534  0.3217
  947MOL0     C27736   5.032  -0.962  11.454 -0.4758  0.2326  0.3879
  947MOL0     C27737   5.168  -0.978  11.481  0.3376 -0.6101 -0.5942
  947MOL0     C27738   5.226  -1.100  11.490 -1.8544 -0.4011 -0.2960
  947MOL0     C27739   5.364  -1.114  11.541 -0.6012  0.7925  0.3019
  947MOL0     O27740   5.427  -1.236  11.516 -0.0660 -0.2375  0.2795
  947MOL0     C27741   5.550  -1.257  11.572 -0.7395  0.0751 -0.7070
  947MOL0     C27742   5.588  -1.251  11.708  0.2782  0.8046 -0.0356
  947MOL0     C27743   5.724  -1.264  11.749  1.2543  0.1135  0.2256
  947MOL0     C27744   5.828  -1.287  11.654  0.9438 -0.3240 -0.2673
  947MOL0     O27745   5.960  -1.292  11.677 -0.3749 -0.0951 -0.6564
  947MOL0     C27746   6.011  -1.259  11.800 -0.5553 -1.2635 -0.0040
  947MOL0     C27747   6.158  -1.241  11.787 -0.3614  0.3442 -0.3103
  947MOL0     C27748   6.230  -1.382  11.795 -0.5028 -0.1920 -0.0681
  947MOL0     C27749   6.380  -1.343  11.802 -0.6666 -0.4809  0.6585
  947MOL0     C27750   6.463  -1.470  11.831 -0.4490  0.2135 -0.2243
  947MOL0     C27751   6.616  -1.450  11.827 -0.0556  0.2614 -0.2707
  947MOL0     C27752   6.698  -1.577  11.855  0.0124 -0.8873  0.1180
  947MOL0     C27753   6.847  -1.536  11.881  0.3178  0.4936 -0.0424
  947MOL0    Cl27754   6.939  -1.686  11.888  0.0050 -0.0161  0.2902
  947MOL0     C27755   5.783  -1.322  11.524 -0.3572  0.6985  0.0665
  947MOL0     C27756   5.642  -1.312  11.490 -0.1049 -0.2265 -0.1665
  947MOL0     O27757   5.417  -1.021  11.604 -1.2425  0.6647  0.4207
  947MOL0     C27758   5.158  -1.209  11.432 -0.5423  0.9390 -0.5947
  947MOL0     C27759   5.017  -1.197  11.410 -0.2516  0.1889 -0.2278
  947MOL0     N27760   4.343  -0.740  11.048 -0.0954  0.5428  0.4316
  947MOL0     N27761   4.220  -0.737  11.089 -0.1936  0.0743  0.9399
  947MOL0     C27762   3.159  -0.277  11.309 -0.6642 -0.1877 -0.8231
  947MOL0     C27763   3.143  -0.135  11.292 -0.5769  1.0093  0.2083
  947MOL0     C27764   3.282   0.283  11.208 -0.1359  0.8644  1.0172
  947MOL0     C27765   3.226   0.362  11.310  0.1618  0.7106  0.2113
  947MOL0     C27766   3.253   0.496  11.315  0.0069  0.3656  0.3088
  947MOL0     C27767   3.317   0.560  11.211 -0.8832 -0.1545  0.4772
  947MOL0     O27768   3.330   0.693  11.213 -0.4455  0.4632 -0.0742
  947MOL0     C27769   3.211   0.768  11.213 -0.3907  0.1029 -0.5072
  947MOL0     C27770   3.211   0.865  11.101 -0.1854 -1.1224  0.7795
  947MOL0     C27771   3.070   0.915  11.074  0.4313 -0.3714  0.5015
  947MOL0     C27772   3.069   1.013  10.948 -0.9033  0.5523  0.3331
  947MOL0     C27773   3.076   0.936  10.823  0.4629 -0.4768 -0.3694
  947MOL0     C27774   3.085   0.869  10.722 -0.0077 -0.6355  0.1133
  947MOL0     C27775   3.365   0.485  11.108 -0.7088  0.0565  0.3356
  947MOL0     C27776   3.360   0.341  11.106  0.3350 -0.1240  0.5191
  947MOL0     C27777   3.418   0.281  10.976  0.5152  0.6101  1.2654
  947MOL0     H27778   3.402  -0.019  11.475 -1.3961  1.1776  1.5419
  947MOL0     H27779   3.413  -0.251  11.540  0.8405 -1.1257 -1.1875
  947MOL0     H27780   3.126  -0.589  11.377 -1.5646  1.3720 -1.3987
  947MOL0     H27781   3.225  -0.533  11.236  1.8201  2.6089  0.2866
  947MOL0     H27782   3.254  -0.767  11.331 -0.0763 -0.0451 -1.8001
  947MOL0     H27783   3.345  -0.671  11.465  0.5875  0.4618  0.4088
  947MOL0     H27784   3.461  -0.563  11.242  1.9664  1.3744  3.9245
  947MOL0     H27785   3.436  -0.726  11.183  0.5729  1.2779 -0.0201
  947MOL0     H27786   3.586  -0.654  11.436  0.6583 -2.2292  1.5167
  947MOL0     H27787   3.575  -0.816  11.352 -1.5490  0.3285  2.7728
  947MOL0     H27788   3.707  -0.694  11.148  0.2207  0.5224  0.0759
  947MOL0     H27789   3.717  -0.553  11.228  2.1376 -0.0861  0.0068
  947MOL0     H27790   3.856  -0.665  11.405 -0.0541 -1.0491  0.6382
  947MOL0     H27791   3.813  -0.822  11.344 -0.8488  1.4051  2.9204
  947MOL0     H27792   3.982  -0.592  11.208  0.6333  0.3531  0.2827
  947MOL0     H27793   3.954  -0.758  11.135  2.7991  1.3927 -2.2063
  947MOL0     H27794   4.102  -0.704  11.403 -0.3564 -1.0641  0.0194
  947MOL0     H27795   4.062  -0.855  11.319 -0.9585  0.4134 -1.6616
  947MOL0     H27796   4.360  -0.735  11.377 -0.7597  4.8242 -0.7437
  947MOL0     H27797   4.594  -0.693  11.078  0.9764  0.1810  0.3710
  947MOL0     H27798   4.593  -0.680  11.247 -2.3246 -2.3585  2.5521
  947MOL0     H27799   4.564  -0.944  11.107 -2.3019  0.8343  1.7479
  947MOL0     H27800   4.728  -0.878  11.143 -0.2474  1.0668  0.9403
  947MOL0     H27801   4.577  -1.059  11.310  0.8022 -0.6565 -2.0312
  947MOL0     H27802   4.537  -0.891  11.377  0.8325 -0.1149  1.4355
  947MOL0     H27803   4.707  -0.950  11.518  0.5026 -1.0776 -0.0447
  947MOL0     H27804   4.790  -0.855  11.392  0.4216  0.7672  3.8332
  947MOL0     H27805   4.990  -0.865  11.475  0.3280  0.9600 -1.1901
  947MOL0     H27806   5.208  -0.886  11.521 -0.5647 -1.4011  2.3686
  947MOL0     H27807   5.514  -1.230  11.784 -2.3211 -0.3039 -2.1197
  947MOL0     H27808   5.735  -1.257  11.857  1.8396  0.4335  0.1479
  947MOL0     H27809   5.966  -1.162  11.827  0.3655 -0.2442 -1.9768
  947MOL0     H27810   5.999  -1.341  11.871 -1.4709 -0.9627  0.2064
  947MOL0     H27811   6.186  -1.183  11.699 -1.8621  0.0567 -1.0160
  947MOL0     H27812   6.190  -1.174  11.867  3.5139  1.1420 -2.2692
  947MOL0     H27813   6.219  -1.424  11.896  1.6312  0.4911  0.5138
  947MOL0     H27814   6.204  -1.452  11.715 -0.9547 -1.0366  0.8006
  947MOL0     H27815   6.382  -1.263  11.876 -4.2982  5.4492 -4.5999
  947MOL0     H27816   6.416  -1.292  11.712  3.0104 -4.0757 -0.2339
  947MOL0     H27817   6.434  -1.534  11.748 -2.8106  2.1546 -1.0107
  947MOL0     H27818   6.441  -1.521  11.926  1.3947 -1.6446 -0.7107
  947MOL0     H27819   6.645  -1.414  11.728 -1.6200  0.6203 -0.6205
  947MOL0     H27820   6.643  -1.365  11.890  0.6696 -0.0288 -0.1761
  947MOL0     H27821   6.684  -1.644  11.769 -0.5303 -0.3509 -0.2243
  947MOL0     H27822   6.659  -1.626  11.945 -0.4358  0.7368  0.8443
  947MOL0     H27823   6.877  -1.476  11.794 -1.3118  0.6071 -0.5523
  947MOL0     H27824   6.862  -1.470  11.967 -3.6995  0.5944  0.7539
  947MOL0     H27825   5.849  -1.355  11.445 -1.2222 -1.1847  0.0760
  947MOL0     H27826   5.609  -1.342  11.391 -1.5605  2.8183 -0.7250
  947MOL0     H27827   5.202  -1.306  11.409 -3.2985  0.3363 -4.2333
  947MOL0     H27828   4.978  -1.289  11.368 -2.9302  0.1195  2.1260
  947MOL0     H27829   3.102  -0.345  11.246  1.8180 -0.7167 -2.6695
  947MOL0     H27830   3.072  -0.079  11.232 -0.8667 -1.5652 -2.0279
  947MOL0     H27831   3.165   0.323  11.391 -1.6722  0.7688 -1.0763
  947MOL0     H27832   3.223   0.567  11.391 -1.1597 -1.1446  1.2987
  947MOL0     H27833   3.196   0.827  11.304 -1.2127  0.9393 -1.1711
  947MOL0     H27834   3.123   0.703  11.212 -0.2846 -0.0367 -1.0477
  947MOL0     H27835   3.245   0.817  11.009 -1.8542  0.6411 -0.8398
  947MOL0     H27836   3.277   0.947  11.130  3.5239 -3.1532 -1.2642
  947MOL0     H27837   3.041   0.988  11.150  1.8652  1.3750 -0.5411
  947MOL0     H27838   2.989   0.843  11.061 -1.3510  1.8246 -1.4344
  947MOL0     H27839   2.976   1.071  10.953 -2.4851 -1.0394 -4.5871
  947MOL0     H27840   3.157   1.076  10.962  0.3311 -1.3123  1.3754
  947MOL0     H27841   3.110   0.817  10.631 -1.0619  2.1925 -1.9139
  947MOL0     H27842   3.408   0.539  11.024  1.2093 -1.7390  0.0820
  947MOL0     H27843   3.344   0.219  10.924  0.4052 -1.0931  3.3070
  947MOL0     H27844   3.446   0.357  10.903  0.8013 -0.9164 -0.2752
  947MOL0     H27845   3.508   0.220  10.981 -0.1410 -0.3357  2.0806
  948MOL0     O27846   3.310   6.292   0.650  0.2782 -0.3080  0.1452
  948MOL0     C27847   3.222   6.376   0.624  1.5471  0.0346 -0.6436
  948MOL0     O27848   3.213   6.458   0.524 -0.6729  0.4084 -0.7259
  948MOL0     C27849   3.325   6.513   0.462  0.1520  0.3192 -0.2701
  948MOL0     C27850   3.455   6.505   0.525  0.2974 -0.4802  0.8546
  948MOL0     C27851   3.563   6.555   0.450 -0.2133  0.3069 -1.1847
  948MOL0     C27852   3.557   6.601   0.324  0.5190 -0.4509  0.4606
  948MOL0     O27853   3.660   6.662   0.265  0.4812 -0.7703  1.1670
  948MOL0     C27854   3.761   6.571   0.212  0.7306  0.3490  0.5893
  948MOL0     C27855   3.808   6.639   0.078 -0.2024  0.6609 -0.4892
  948MOL0     C27856   3.932   6.567   0.026 -0.0591 -0.0573  1.2293
  948MOL0     C27857   3.929   6.537  -0.118 -0.1899  0.4891  0.1274
  948MOL0     C27858   4.068   6.532  -0.183  0.1366  1.0234 -0.3961
  948MOL0     C27859   4.151   6.406  -0.137 -0.4503  0.0323 -0.3766
  948MOL0     C27860   4.276   6.384  -0.224  0.7565 -0.2227 -0.2331
  948MOL0     C27861   4.403   6.323  -0.153 -1.1057  0.2801 -0.4305
  948MOL0     N27862   4.371   6.191  -0.113  0.2983 -0.3615 -0.0588
  948MOL0     C27863   4.347   6.087  -0.188  0.2952 -0.2343 -0.4361
  948MOL0     C27864   4.308   5.993  -0.102 -0.4575  0.0946 -0.3175
  948MOL0     C27865   4.264   5.853  -0.133 -0.3295  0.6192  0.7224
  948MOL0     C27866   4.297   5.810  -0.275 -0.5698  0.1220  0.4625
  948MOL0     C27867   4.441   5.800  -0.316  0.3649  0.3976 -0.0009
  948MOL0     C27868   4.454   5.715  -0.452  0.3529 -0.5640 -0.1343
  948MOL0     O27869   4.588   5.661  -0.477 -0.5860 -0.0093 -0.0706
  948MOL0     C27870   4.638   5.564  -0.396 -0.9877 -1.3058  0.0333
  948MOL0     C27871   4.560   5.454  -0.355 -0.4497  0.7758  0.3611
  948MOL0     C27872   4.617   5.348  -0.282 -0.0609 -0.4572  1.3328
  948MOL0     C27873   4.754   5.358  -0.237  0.1274 -0.2907  0.4567
  948MOL0     C27874   4.799   5.254  -0.146 -0.5130 -0.1428 -0.6567
  948MOL0     O27875   4.934   5.266  -0.116  0.3904  0.6546  0.2902
  948MOL0     C27876   4.986   5.157  -0.046  0.2143 -0.7688  0.0304
  948MOL0     C27877   4.960   5.022  -0.081  0.2803  0.1970 -0.5058
  948MOL0     C27878   5.025   4.921  -0.008 -0.6204 -0.4212 -0.2880
  948MOL0     C27879   5.114   4.949   0.095 -0.4590  0.1316 -0.3188
  948MOL0     O27880   5.164   4.850   0.176  0.4376 -0.8988 -0.0943
  948MOL0     C27881   5.078   4.802   0.279 -0.5556 -0.6770  1.0803
  948MOL0     C27882   5.105   4.646   0.266 -0.2341 -0.3679 -0.0695
  948MOL0     C27883   5.039   4.569   0.380 -0.6588 -0.4507  0.7370
  948MOL0     C27884   5.076   4.422   0.378  0.4214 -0.8606 -0.0537
  948MOL0     C27885   5.023   4.330   0.491 -0.5240 -0.6964  0.2232
  948MOL0     C27886   5.121   4.340   0.614 -0.0364 -0.2392  0.5799
  948MOL0     C27887   5.068   4.271   0.735  1.0114 -0.2368 -1.2389
  948MOL0     C27888   5.086   4.122   0.740 -0.5667  0.2047 -0.4758
  948MOL0    Cl27889   5.253   4.055   0.692 -0.0120  0.2861  0.4833
  948MOL0     C27890   5.147   5.079   0.122 -0.7461 -0.1466  0.2608
  948MOL0     C27891   5.077   5.184   0.059  0.1337  0.9998  1.0710
  948MOL0     O27892   4.722   5.166  -0.108  0.0555  0.4295 -0.4385
  948MOL0     C27893   4.834   5.466  -0.288 -1.2444  1.3577  0.5097
  948MOL0     C27894   4.772   5.556  -0.374 -0.0671  0.7938 -1.2102
  948MOL0     N27895   4.314   6.039   0.027  0.3522 -0.0218  1.0209
  948MOL0     N27896   4.345   6.159   0.021 -0.4083 -1.0054 -0.0017
  948MOL0     C27897   3.423   6.617   0.276  0.4630 -0.4982 -0.1172
  948MOL0     C27898   3.310   6.579   0.348  0.2179 -0.3653  0.6465
  948MOL0     C27899   3.087   6.353   0.687  0.0490  0.3799  1.2646
  948MOL0     C27900   2.966   6.344   0.607  0.4446 -0.1656 -0.7302
  948MOL0     C27901   2.840   6.324   0.650  0.4516 -0.1696  0.1872
  948MOL0     C27902   2.819   6.317   0.785  1.0346 -0.4759  0.0765
  948MOL0     O27903   2.685   6.304   0.817 -0.3540  0.2009  0.9457
  948MOL0     C27904   2.652   6.237   0.940  0.4792 -0.1755  1.1188
  948MOL0     C27905   2.704   6.093   0.944 -0.3831  0.4673 -0.3415
  948MOL0     C27906   2.668   6.022   0.810 -0.2474  0.6436 -0.5229
  948MOL0     C27907   2.743   5.895   0.783  1.2525  0.6570 -0.9268
  948MOL0     C27908   2.760   5.807   0.900  0.0492  0.6954 -0.6466
  948MOL0     C27909   2.756   5.724   0.990 -0.3340 -0.2662 -0.6244
  948MOL0     C27910   2.927   6.336   0.872  0.1295  0.5026 -0.4867
  948MOL0     C27911   3.062   6.348   0.827 -0.5737  0.1563 -0.0830
  948MOL0     C27912   3.167   6.374   0.925  0.6060  0.5326  0.4089
  948MOL0     H27913   3.483   6.454   0.617 -0.5120 -2.1022  0.2197
  948MOL0     H27914   3.658   6.558   0.503  1.4510 -1.8638 -3.7748
  948MOL0     H27915   3.845   6.558   0.281 -0.7260  0.7744  2.5189
  948MOL0     H27916   3.726   6.469   0.191  3.8074 -0.1763 -3.0619
  948MOL0     H27917   3.843   6.740   0.100  0.8850  0.8093 -2.6867
  948MOL0     H27918   3.722   6.653   0.011 -1.5297 -0.8172  0.8095
  948MOL0     H27919   3.960   6.480   0.086 -0.0401 -0.3035  0.8646
  948MOL0     H27920   4.012   6.640   0.044  0.7038 -0.8044  0.9544
  948MOL0     H27921   3.891   6.436  -0.138  2.1853 -0.3160 -0.6078
  948MOL0     H27922   3.864   6.604  -0.174  0.2817  0.0231 -1.0136
  948MOL0     H27923   4.056   6.533  -0.292 -1.4170  5.4560 -0.3866
  948MOL0     H27924   4.114   6.622  -0.141  2.2473 -1.8450  4.1796
  948MOL0     H27925   4.194   6.425  -0.038 -0.5727 -1.8734  0.0760
  948MOL0     H27926   4.086   6.319  -0.131  0.6972 -0.8316 -0.1027
  948MOL0     H27927   4.311   6.478  -0.268  1.5707  1.6058  3.8554
  948MOL0     H27928   4.236   6.323  -0.305 -0.1930 -1.3311  1.0131
  948MOL0     H27929   4.491   6.319  -0.217 -1.4152  1.8735 -1.0062
  948MOL0     H27930   4.426   6.383  -0.064 -1.6977 -0.9518  0.5933
  948MOL0     H27931   4.356   6.088  -0.296 -1.6165  0.8052 -0.6245
  948MOL0     H27932   4.306   5.783  -0.059 -0.9927 -0.2661  0.2721
  948MOL0     H27933   4.156   5.853  -0.115 -0.3419 -0.0558  0.6424
  948MOL0     H27934   4.250   5.711  -0.280  1.1950 -0.7396 -0.0260
  948MOL0     H27935   4.245   5.879  -0.343  1.5028 -1.3935 -2.9632
  948MOL0     H27936   4.489   5.743  -0.236  3.5853  0.1759 -1.8843
  948MOL0     H27937   4.496   5.895  -0.309 -1.2793  1.2381  2.8267
  948MOL0     H27938   4.428   5.793  -0.525  0.0849  1.2338  1.8008
  948MOL0     H27939   4.382   5.632  -0.455  2.4845 -2.6570  2.1580
  948MOL0     H27940   4.458   5.445  -0.391  0.3588 -0.0932 -1.9166
  948MOL0     H27941   4.560   5.262  -0.248 -0.6115  1.0413  4.5672
  948MOL0     H27942   4.906   5.001  -0.173 -2.7409  1.2001  0.9506
  948MOL0     H27943   4.993   4.820  -0.031 -3.0249  0.2137  0.0356
  948MOL0     H27944   5.095   4.837   0.381 -0.8528  2.1271  0.2677
  948MOL0     H27945   4.974   4.827   0.256 -0.4590 -2.0680 -1.2270
  948MOL0     H27946   5.069   4.607   0.171 -0.2465  0.1627 -0.2866
  948MOL0     H27947   5.213   4.631   0.273  0.5593  3.7632 -0.5402
  948MOL0     H27948   5.064   4.611   0.478  0.2072 -1.2192  0.8547
  948MOL0     H27949   4.933   4.578   0.355 -0.0627  0.7939 -1.7442
  948MOL0     H27950   5.185   4.434   0.373  0.1418  1.7670 -1.8075
  948MOL0     H27951   5.053   4.391   0.276 -1.0920  3.6112 -1.2743
  948MOL0     H27952   5.020   4.225   0.461 -1.4336 -0.2150 -1.4708
  948MOL0     H27953   4.922   4.363   0.516 -0.3862  0.6195 -0.8613
  948MOL0     H27954   5.214   4.289   0.587 -0.9422 -1.1408 -0.9814
  948MOL0     H27955   5.139   4.445   0.636  0.3030 -0.5946  2.1288
  948MOL0     H27956   4.961   4.286   0.755  0.4728 -5.3041  1.2722
  948MOL0     H27957   5.123   4.318   0.816 -3.9030  1.3297  1.6060
  948MOL0     H27958   5.088   4.093   0.845  2.7245  3.4890  0.6085
  948MOL0     H27959   5.015   4.068   0.677  2.0925 -2.3390 -1.4955
  948MOL0     H27960   5.201   5.109   0.211 -3.1555 -0.0838  1.7859
  948MOL0     H27961   5.097   5.289   0.073  1.5525  0.9597 -0.3598
  948MOL0     H27962   4.935   5.495  -0.261 -1.1727  1.4952  0.0992
  948MOL0     H27963   4.835   5.636  -0.412  0.5688 -0.6722 -3.4526
  948MOL0     H27964   3.423   6.670   0.181 -2.1782 -0.2079 -0.0462
  948MOL0     H27965   3.213   6.601   0.305  0.3123 -0.7913  0.2129
  948MOL0     H27966   2.964   6.381   0.505  1.4646  0.3270 -0.5792
  948MOL0     H27967   2.756   6.326   0.582  1.0592  0.0895 -0.5663
  948MOL0     H27968   2.544   6.225   0.950 -0.0188 -0.8162 -3.0455
  948MOL0     H27969   2.694   6.296   1.022  0.9237  1.6873 -0.3723
  948MOL0     H27970   2.659   6.044   1.031 -0.7786  3.3083  1.1770
  948MOL0     H27971   2.812   6.101   0.958 -0.4251  0.2249  0.1356
  948MOL0     H27972   2.693   6.086   0.725 -0.2858  1.2971 -0.0432
  948MOL0     H27973   2.560   6.003   0.799  0.0910 -0.7153 -1.7945
  948MOL0     H27974   2.697   5.848   0.695 -1.2917 -0.6213  0.9450
  948MOL0     H27975   2.844   5.919   0.747  2.3444  0.7955  1.9740
  948MOL0     H27976   2.737   5.659   1.073 -0.8722 -0.3877 -0.8373
  948MOL0     H27977   2.911   6.346   0.979 -0.7986  1.5231 -0.7029
  948MOL0     H27978   3.192   6.480   0.918  2.2571  0.1196 -0.3636
  948MOL0     H27979   3.141   6.354   1.029 -1.9744 -0.6824 -0.3703
  948MOL0     H27980   3.251   6.313   0.891 -1.5051 -0.8454 -2.8286
  949MOL0     O27981   5.277   8.806   1.182  0.7244  0.1769 -0.4179
  949MOL0     C27982   5.230   8.705   1.238  0.0084 -0.7589  0.5010
  949MOL0     O27983   5.289   8.632   1.338  0.9855 -0.0328 -0.0845
  949MOL0     C27984   5.427   8.630   1.354 -0.3260 -0.9118  0.6520
  949MOL0     C27985   5.515   8.623   1.243  0.4368 -0.2520  0.5570
  949MOL0     C27986   5.640   8.560   1.260  0.2122 -0.0970  0.2762
  949MOL0     C27987   5.695   8.528   1.388  0.3009  0.2130  0.2268
  949MOL0     O27988   5.816   8.462   1.412 -0.7423 -0.1356  0.6188
  949MOL0     C27989   5.905   8.456   1.299 -0.6188 -0.3506 -0.9629
  949MOL0     C27990   5.899   8.315   1.232  0.5248 -0.0656 -0.8952
  949MOL0     C27991   5.957   8.191   1.313  0.3135  0.1078  0.5904
  949MOL0     C27992   6.005   8.222   1.455 -0.9857  0.2471  0.1254
  949MOL0     C27993   6.027   8.094   1.539 -0.5125 -0.4677  0.5485
  949MOL0     C27994   6.099   8.134   1.667 -1.1020 -0.6038 -0.1398
  949MOL0     C27995   6.083   8.021   1.776  0.6330 -0.2369  0.8759
  949MOL0     C27996   6.208   7.953   1.817  0.0011 -0.0538  0.6899
  949MOL0     N27997   6.323   8.032   1.862  0.2690 -0.2581  0.1248
  949MOL0     C27998   6.316   8.109   1.977 -0.7252  0.0676  0.1573
  949MOL0     C27999   6.437   8.175   1.976 -0.2780 -0.7471 -0.2375
  949MOL0     C28000   6.488   8.281   2.075  0.6329 -0.2774  0.1805
  949MOL0     C28001   6.406   8.407   2.059 -0.2539 -0.4093 -0.5704
  949MOL0     C28002   6.472   8.515   2.144  0.0665 -0.0412  0.1723
  949MOL0     C28003   6.380   8.637   2.164  0.6208 -0.6188 -0.0115
  949MOL0     O28004   6.389   8.732   2.060  0.2340 -0.4588  0.1355
  949MOL0     C28005   6.510   8.809   2.038 -0.0544  0.6399  0.2101
  949MOL0     C28006   6.510   8.880   1.927 -0.9888  0.7012  0.8264
  949MOL0     C28007   6.623   8.936   1.875 -0.3566 -0.8252  0.3231
  949MOL0     C28008   6.740   8.935   1.952 -0.1159 -0.0687 -0.4861
  949MOL0     C28009   6.860   9.006   1.895 -0.2060 -0.8471 -0.1013
  949MOL0     O28010   6.976   8.978   1.966  0.4014  0.0548  0.3260
  949MOL0     C28011   7.086   8.946   1.899  0.6567 -0.7138  1.0903
  949MOL0     C28012   7.190   9.029   1.922  0.1994 -0.1647  0.3405
  949MOL0     C28013   7.317   8.980   1.876 -0.6616 -0.6840 -0.1176
  949MOL0     C28014   7.326   8.871   1.789  0.0474 -0.0534 -0.3852
  949MOL0     O28015   7.446   8.822   1.736 -0.5750  0.1299  0.9088
  949MOL0     C28016   7.571   8.868   1.791 -0.4371  0.7319  0.6747
  949MOL0     C28017   7.692   8.812   1.708 -0.4999 -0.3020 -0.4142
  949MOL0     C28018   7.685   8.658   1.671 -0.1605 -0.5274  1.0680
  949MOL0     C28019   7.834   8.617   1.648  0.2100  0.2711  0.6351
  949MOL0     C28020   7.845   8.481   1.570  0.2394  0.6044 -0.4868
  949MOL0     C28021   7.996   8.425   1.551  1.6541 -0.4683  0.2261
  949MOL0     C28022   8.092   8.527   1.482  0.1360 -0.0245 -0.1305
  949MOL0     C28023   8.240   8.466   1.474  0.1855 -0.6509 -0.5270
  949MOL0    Cl28024   8.246   8.320   1.368  0.3307  0.4609 -0.4147
  949MOL0     C28025   7.205   8.796   1.763 -0.2703  0.2795  0.8185
  949MOL0     C28026   7.088   8.839   1.827 -0.3468  0.3370  0.3503
  949MOL0     O28027   6.853   9.051   1.779 -0.0082 -0.4124  0.1621
  949MOL0     C28028   6.735   8.882   2.083  0.2502 -0.6223 -0.5555
  949MOL0     C28029   6.622   8.815   2.115 -0.2893 -0.6814 -2.4874
  949MOL0     N28030   6.512   8.136   1.865  0.4940 -0.7399 -0.0227
  949MOL0     N28031   6.436   8.058   1.789  0.2276  0.4029 -0.5496
  949MOL0     C28032   5.613   8.557   1.499  0.2634  0.6234 -0.0172
  949MOL0     C28033   5.481   8.605   1.484  0.0228  0.4383 -0.8038
  949MOL0     C28034   5.094   8.655   1.194  0.4027 -0.4961  0.1227
  949MOL0     C28035   5.095   8.516   1.155 -0.1227  0.6928  0.4824
  949MOL0     C28036   4.975   8.453   1.116 -0.3832  0.2577  0.2609
  949MOL0     C28037   4.856   8.518   1.116  0.1729 -0.5213 -0.3976
  949MOL0     O28038   4.736   8.460   1.080  0.4584  0.9442  0.3196
  949MOL0     C28039   4.620   8.515   1.141 -1.3754 -0.5868 -0.4043
  949MOL0     C28040   4.512   8.416   1.167  0.2256 -0.0674  0.4280
  949MOL0     C28041   4.550   8.302   1.264  0.1114 -0.3036 -0.7985
  949MOL0     C28042   4.515   8.319   1.407  0.9648 -0.4421 -0.3757
  949MOL0     C28043   4.364   8.331   1.442  0.4286  0.1855  0.4602
  949MOL0     C28044   4.247   8.341   1.460  0.2280  0.5587 -0.5686
  949MOL0     C28045   4.859   8.655   1.134 -0.1260 -0.1025  0.2295
  949MOL0     C28046   4.972   8.726   1.171 -0.0566 -0.7787 -1.6139
  949MOL0     C28047   4.967   8.874   1.183 -0.7631 -0.1135 -0.2704
  949MOL0     H28048   5.476   8.637   1.143 -1.3467  0.8149  1.3582
  949MOL0     H28049   5.692   8.557   1.165  0.0542  1.1639  0.1287
  949MOL0     H28050   5.883   8.535   1.227 -1.4729  0.3692  0.0594
  949MOL0     H28051   6.004   8.468   1.344  0.0162 -1.1676 -2.0896
  949MOL0     H28052   5.950   8.322   1.136  1.4344 -1.6061 -0.5693
  949MOL0     H28053   5.797   8.296   1.199 -0.3593 -1.0052  2.0842
  949MOL0     H28054   6.044   8.141   1.269 -0.4629  0.6105 -1.6729
  949MOL0     H28055   5.873   8.121   1.321 -1.3567  2.0183  0.3785
  949MOL0     H28056   6.090   8.292   1.451 -0.6475 -0.1254  0.7025
  949MOL0     H28057   5.927   8.281   1.505 -1.1125 -0.2076  0.4626
  949MOL0     H28058   5.930   8.061   1.576  0.4403 -4.2364  0.1605
  949MOL0     H28059   6.078   8.018   1.479 -2.0714  1.1185 -3.0893
  949MOL0     H28060   6.206   8.143   1.651 -0.8466  0.4388  1.9192
  949MOL0     H28061   6.062   8.227   1.712 -0.0777  0.5703 -1.6070
  949MOL0     H28062   6.022   7.940   1.735  3.1089 -1.5243 -0.4455
  949MOL0     H28063   6.028   8.069   1.858 -1.1242 -1.0447  0.2302
  949MOL0     H28064   6.185   7.900   1.910  2.1135 -4.2143 -0.9117
  949MOL0     H28065   6.237   7.881   1.741  0.3699  0.1230  0.6611
  949MOL0     H28066   6.239   8.122   2.053  0.4794  0.2925  1.3901
  949MOL0     H28067   6.484   8.248   2.179 -4.5244 -1.2435 -0.0304
  949MOL0     H28068   6.583   8.321   2.037 -0.5980  2.5755 -0.2225
  949MOL0     H28069   6.406   8.447   1.957 -0.4820  1.8383  0.2607
  949MOL0     H28070   6.305   8.401   2.100 -1.6810 -0.6313 -3.7955
  949MOL0     H28071   6.557   8.561   2.093 -0.4272  0.1878 -0.4621
  949MOL0     H28072   6.502   8.469   2.238 -0.4251 -1.9079 -0.5277
  949MOL0     H28073   6.403   8.684   2.260 -2.9837 -0.1837  0.7496
  949MOL0     H28074   6.276   8.606   2.170  0.3007  0.0472 -1.5890
  949MOL0     H28075   6.425   8.871   1.860  0.2215 -0.5187 -0.6176
  949MOL0     H28076   6.622   8.975   1.774 -1.1688 -0.4530  0.4683
  949MOL0     H28077   7.187   9.115   1.987  0.8716  0.0554  0.0969
  949MOL0     H28078   7.415   9.025   1.890 -1.3629  0.6870  0.5431
  949MOL0     H28079   7.583   8.977   1.801 -0.7978  0.8637 -0.2336
  949MOL0     H28080   7.587   8.826   1.891  2.2597  2.9388  1.3235
  949MOL0     H28081   7.679   8.872   1.618  1.0684  2.1758  0.8907
  949MOL0     H28082   7.780   8.833   1.769 -1.1946  1.2693  0.0964
  949MOL0     H28083   7.647   8.602   1.758 -0.2120 -1.4661  0.4548
  949MOL0     H28084   7.627   8.633   1.582  3.2367 -3.2693 -0.6092
  949MOL0     H28085   7.888   8.605   1.742  0.9912 -0.1360  0.1477
  949MOL0     H28086   7.877   8.690   1.579 -1.8837  1.1551  0.1790
  949MOL0     H28087   7.800   8.494   1.471 -1.0792  1.0938  0.1530
  949MOL0     H28088   7.793   8.400   1.621 -0.6217  0.6648 -1.2405
  949MOL0     H28089   8.044   8.387   1.641 -1.3451 -2.2774  1.2030
  949MOL0     H28090   7.990   8.337   1.486 -2.9942  0.0212 -0.3628
  949MOL0     H28091   8.096   8.617   1.543 -2.6453 -0.3896  0.7246
  949MOL0     H28092   8.056   8.540   1.379  1.3083  1.6530 -0.3771
  949MOL0     H28093   8.307   8.542   1.433 -0.5043  0.6082  0.5851
  949MOL0     H28094   8.272   8.438   1.575  2.5612 -0.4367 -1.1605
  949MOL0     H28095   7.219   8.710   1.697  2.9589 -0.2698  2.0347
  949MOL0     H28096   6.999   8.781   1.801 -0.6361  0.3361  1.3228
  949MOL0     H28097   6.822   8.890   2.147  1.3377  1.9651 -2.2241
  949MOL0     H28098   6.607   8.766   2.211  0.2842  1.0882 -1.4400
  949MOL0     H28099   5.654   8.529   1.596  1.5897 -2.0766 -1.2384
  949MOL0     H28100   5.415   8.631   1.566 -3.1340 -1.1424 -2.6312
  949MOL0     H28101   5.187   8.459   1.163 -0.8460 -0.3366  1.6815
  949MOL0     H28102   4.965   8.353   1.074  0.0197  0.4315 -0.2651
  949MOL0     H28103   4.577   8.594   1.078 -0.0756  1.3237  1.0036
  949MOL0     H28104   4.645   8.559   1.238  0.6144 -0.7668 -0.7906
  949MOL0     H28105   4.492   8.380   1.066  3.0939 -0.2944 -0.1290
  949MOL0     H28106   4.426   8.474   1.203 -0.1009 -1.6119  2.3013
  949MOL0     H28107   4.657   8.282   1.267  0.0460 -0.8879  2.8982
  949MOL0     H28108   4.505   8.208   1.231  1.8750 -1.2787 -0.5575
  949MOL0     H28109   4.555   8.241   1.472 -1.9891 -1.0750  0.8571
  949MOL0     H28110   4.549   8.419   1.438 -2.3274  1.8008 -3.1662
  949MOL0     H28111   4.145   8.367   1.478 -0.0069 -1.7791  2.2683
  949MOL0     H28112   4.772   8.712   1.103  1.5451  1.8039 -1.2675
  949MOL0     H28113   5.050   8.918   1.238 -0.2172 -1.0447 -0.3186
  949MOL0     H28114   4.972   8.908   1.079 -0.1883  1.4490  0.2414
  949MOL0     H28115   4.878   8.911   1.235  0.9204  4.0055  0.0655
  950MOL0     O28116   9.370   4.378  10.932  1.5567 -0.5198  0.3080
  950MOL0     C28117   9.295   4.353  10.831 -0.1439 -0.1680  0.1529
  950MOL0     O28118   9.285   4.234  10.752  0.3686  0.8055 -0.8251
  950MOL0     C28119   9.384   4.151  10.780  0.5644  1.4852 -0.6311
  950MOL0     C28120   9.526   4.186  10.797 -0.0744 -0.2551 -0.3060
  950MOL0     C28121   9.616   4.087  10.835  0.1082 -0.0534  0.5753
  950MOL0     C28122   9.585   3.951  10.825  0.2661  0.4196 -0.4274
  950MOL0     O28123   9.680   3.863  10.851  0.3979 -0.1840  0.4585
  950MOL0     C28124   9.739   3.842  10.722 -0.1813  1.1504  0.2348
  950MOL0     C28125   9.874   3.779  10.744  0.3656  0.7364  0.7256
  950MOL0     C28126   9.992   3.884  10.739  0.5939  0.1803 -0.2689
  950MOL0     C28127   9.995   3.933  10.884 -0.0252  0.2760  0.1484
  950MOL0     C28128  10.105   4.036  10.903  0.7377  0.1576 -0.1717
  950MOL0     C28129  10.095   4.093  11.045 -0.3898  1.3658  0.1231
  950MOL0     C28130  10.200   4.187  11.088 -1.1598  1.4183 -0.3684
  950MOL0     C28131  10.334   4.111  11.111  0.1244  0.4213  0.5229
  950MOL0     N28132  10.434   4.202  11.167  0.9922 -0.0187 -1.3306
  950MOL0     C28133  10.420   4.274  11.285 -1.1824  0.8667 -0.6577
  950MOL0     C28134  10.542   4.339  11.294 -0.4268  0.3783 -0.1073
  950MOL0     C28135  10.589   4.434  11.394 -0.3398  0.0639 -0.1897
  950MOL0     C28136  10.536   4.573  11.373 -0.7800  0.2127 -0.3759
  950MOL0     C28137  10.619   4.638  11.247  0.2443  0.5630  0.3530
  950MOL0     C28138  10.591   4.784  11.241 -0.3633  0.3558  0.9962
  950MOL0     O28139  10.654   4.869  11.346 -0.0140 -0.2548 -0.6843
  950MOL0     C28140  10.786   4.913  11.337  0.4502  0.2277 -0.2841
  950MOL0     C28141  10.822   4.984  11.453  0.0737  0.0615  0.6437
  950MOL0     C28142  10.954   5.025  11.471 -0.1498 -0.4998  0.8955
  950MOL0     C28143  11.053   4.998  11.384 -0.5207  0.2387  0.1909
  950MOL0     C28144  11.193   5.052  11.410  0.4718 -0.2490 -0.3582
  950MOL0     O28145  11.227   5.077  11.539  0.9021 -0.2489  0.7091
  950MOL0     C28146  11.352   5.040  11.577  0.6290 -0.3419  0.7339
  950MOL0     C28147  11.433   5.149  11.604 -0.0420 -0.8107 -0.0438
  950MOL0     C28148  11.557   5.129  11.669 -0.2010 -0.5959 -0.2043
  950MOL0     C28149  11.594   4.997  11.712  1.7661  0.5806  1.0588
  950MOL0     O28150  11.710   4.975  11.772 -0.2768 -0.0060  0.1026
  950MOL0     C28151  11.757   5.082  11.862 -0.2658  0.2785 -0.4885
  950MOL0     C28152  11.846   5.026  11.982 -0.0147  0.1279  0.2500
  950MOL0     C28153  11.871   5.134  12.081 -0.1957  0.1823  0.3080
  950MOL0     C28154  11.987   5.109  12.189  0.1337  0.2823  0.2924
  950MOL0     C28155  12.038   5.252  12.244 -1.1942 -0.1122  0.3395
  950MOL0     C28156  12.157   5.236  12.343 -0.5823  0.0881  0.7837
  950MOL0     C28157  12.225   5.357  12.393  0.1573 -0.4833 -0.3740
  950MOL0     C28158  12.335   5.324  12.492  0.4859  0.2479  0.0555
  950MOL0    Cl28159  12.495   5.248  12.436 -0.2323  0.0541  0.2552
  950MOL0     C28160  11.503   4.884  11.697 -1.0236 -0.8743 -0.9517
  950MOL0     C28161  11.382   4.906  11.629 -0.9527 -0.1172  0.1352
  950MOL0     O28162  11.267   5.047  11.313  0.3412 -0.7693  0.3262
  950MOL0     C28163  11.019   4.919  11.276 -0.6911 -0.3544 -0.3248
  950MOL0     C28164  10.890   4.877  11.240 -1.1168 -0.5581 -0.4035
  950MOL0     N28165  10.625   4.309  11.188 -0.0027  0.0096  0.4632
  950MOL0     N28166  10.561   4.223  11.123  0.1228 -0.0997  0.0158
  950MOL0     C28167   9.449   3.916  10.812 -0.4355  0.7609  0.0064
  950MOL0     C28168   9.349   4.007  10.795 -0.4586 -1.2575 -0.6672
  950MOL0     C28169   9.189   4.453  10.798 -0.1786 -0.2890  0.3341
  950MOL0     C28170   9.056   4.412  10.821  0.7767 -0.0685  0.0627
  950MOL0     C28171   8.944   4.490  10.808  0.8520  1.1287  0.3048
  950MOL0     C28172   8.961   4.621  10.757 -0.4795 -0.6942  0.1660
  950MOL0     O28173   8.861   4.706  10.727 -0.1009 -1.4919  0.0808
  950MOL0     C28174   8.725   4.662  10.747 -0.3213  0.8498 -0.4801
  950MOL0     C28175   8.684   4.733  10.879 -1.0615  0.5297  0.9372
  950MOL0     C28176   8.615   4.859  10.852  0.3667 -0.0549  0.4299
  950MOL0     C28177   8.482   4.878  10.925 -0.5127 -0.3088 -0.3280
  950MOL0     C28178   8.423   5.013  10.922  0.2316 -0.2800 -0.0919
  950MOL0     C28179   8.394   5.125  10.930  0.5661  0.1407  0.3880
  950MOL0     C28180   9.090   4.658  10.734 -0.1969 -0.5539  0.1849
  950MOL0     C28181   9.204   4.586  10.757 -1.0007 -0.0405 -0.4036
  950MOL0     C28182   9.343   4.643  10.730 -0.1678 -0.4361  0.2782
  950MOL0     H28183   9.567   4.284  10.775  2.1467 -0.6912  1.4667
  950MOL0     H28184   9.719   4.116  10.857  0.5107 -0.5269 -0.6110
  950MOL0     H28185   9.681   3.762  10.674 -0.8413  0.3053  2.3213
  950MOL0     H28186   9.734   3.923  10.648  1.0203 -0.5549 -1.8284
  950MOL0     H28187   9.890   3.701  10.670  1.4816 -0.5316  2.2449
  950MOL0     H28188   9.876   3.719  10.835  1.7010  0.5476  0.5889
  950MOL0     H28189   9.970   3.965  10.668  1.6228 -1.5332 -2.6609
  950MOL0     H28190  10.087   3.842  10.707 -0.1746 -2.8583  1.1018
  950MOL0     H28191   9.897   3.976  10.905 -1.6900 -2.5768 -1.1771
  950MOL0     H28192   9.997   3.853  10.958 -2.5973  2.2353  2.5312
  950MOL0     H28193  10.198   3.981  10.891 -1.0338 -3.0791 -0.2715
  950MOL0     H28194  10.106   4.115  10.827 -0.5580 -0.1223 -0.5075
  950MOL0     H28195   9.997   4.141  11.056 -1.1222 -0.2962  1.4518
  950MOL0     H28196  10.110   4.008  11.113 -1.5446  2.0734  1.3252
  950MOL0     H28197  10.149   4.218  11.180 -2.4541  2.8174 -1.4981
  950MOL0     H28198  10.204   4.274  11.022 -1.0508 -0.1893 -2.5769
  950MOL0     H28199  10.309   4.027  11.176 -1.7876 -0.6108 -1.4152
  950MOL0     H28200  10.366   4.085  11.009 -0.4786 -2.3711  0.9725
  950MOL0     H28201  10.347   4.264  11.365  1.6308  1.9382  2.2369
  950MOL0     H28202  10.573   4.399  11.496 -3.5548  0.7525 -0.3766
  950MOL0     H28203  10.697   4.445  11.376 -0.1399 -3.5779 -2.1469
  950MOL0     H28204  10.430   4.559  11.353 -0.3269 -1.1963 -2.0249
  950MOL0     H28205  10.560   4.628  11.464 -1.5034 -0.2632  0.1136
  950MOL0     H28206  10.575   4.581  11.165 -3.0068 -1.2577  3.0731
  950MOL0     H28207  10.728   4.639  11.252  0.4603  4.3017 -1.4841
  950MOL0     H28208  10.482   4.795  11.245 -0.4551  1.1750 -1.6496
  950MOL0     H28209  10.626   4.813  11.141 -4.5725 -0.7485 -1.0290
  950MOL0     H28210  10.740   5.004  11.522  1.6938  2.5407  2.0149
  950MOL0     H28211  10.963   5.092  11.556 -3.5016  3.3377 -1.3962
  950MOL0     H28212  11.404   5.252  11.587  0.5889 -0.5143  0.5906
  950MOL0     H28213  11.611   5.222  11.685 -2.0310  0.1454  2.4059
  950MOL0     H28214  11.821   5.148  11.803  0.4324 -1.2994 -1.5617
  950MOL0     H28215  11.665   5.127  11.901  0.7271  0.8777  1.2612
  950MOL0     H28216  11.795   4.940  12.025 -0.1467 -0.3723 -0.8640
  950MOL0     H28217  11.946   4.997  11.950 -0.5467  1.6390 -3.3052
  950MOL0     H28218  11.891   5.224  12.022  1.1538 -2.2682 -3.3362
  950MOL0     H28219  11.773   5.143  12.127 -0.2793 -2.4282  0.7933
  950MOL0     H28220  12.069   5.053  12.142 -0.5588 -0.1219 -0.4483
  950MOL0     H28221  11.951   5.036  12.262  0.4929  2.9882  3.3998
  950MOL0     H28222  11.953   5.299  12.294 -0.1303  1.0747  1.0807
  950MOL0     H28223  12.068   5.315  12.160  0.6093  0.1666  1.1546
  950MOL0     H28224  12.113   5.184  12.428 -1.0979 -1.7883 -0.5678
  950MOL0     H28225  12.244   5.182  12.306 -0.7516 -0.4411  1.1466
  950MOL0     H28226  12.156   5.411  12.459  0.6926  1.2750 -1.1874
  950MOL0     H28227  12.259   5.418  12.308  0.1303 -4.2191 -3.3361
  950MOL0     H28228  12.371   5.418  12.534 -0.8518  0.1471  1.5167
  950MOL0     H28229  12.293   5.253  12.565 -1.1619  1.5390  0.4021
  950MOL0     H28230  11.536   4.785  11.727  3.7319  0.3416 -1.2392
  950MOL0     H28231  11.304   4.831  11.621  1.7794 -3.6959  3.5755
  950MOL0     H28232  11.098   4.888  11.208 -0.6372 -0.1274 -0.3660
  950MOL0     H28233  10.872   4.808  11.158  1.3930 -0.7302 -0.8820
  950MOL0     H28234   9.414   3.813  10.821 -2.4952  1.4414  0.3336
  950MOL0     H28235   9.243   3.980  10.794 -0.7216 -0.5335  1.6786
  950MOL0     H28236   9.037   4.308  10.845 -2.2082 -0.0208 -1.5774
  950MOL0     H28237   8.848   4.439  10.818  1.6516 -1.1654 -2.4652
  950MOL0     H28238   8.707   4.555  10.766  0.1415  1.1145  1.7887
  950MOL0     H28239   8.664   4.684  10.659 -5.0239 -0.0763  2.1897
  950MOL0     H28240   8.776   4.744  10.936 -0.0059  1.4739 -0.8378
  950MOL0     H28241   8.610   4.676  10.936 -1.3278  0.4274  0.4971
  950MOL0     H28242   8.596   4.866  10.744 -3.8801 -0.2011  1.0113
  950MOL0     H28243   8.682   4.940  10.883 -1.3075  0.9195  1.6568
  950MOL0     H28244   8.417   4.807  10.872 -1.6184  0.2818  0.2050
  950MOL0     H28245   8.483   4.839  11.028 -1.7354  1.5537  0.4346
  950MOL0     H28246   8.365   5.228  10.939 -1.2800 -0.2937 -0.0785
  950MOL0     H28247   9.102   4.760  10.701  2.8290 -1.0435 -0.5893
  950MOL0     H28248   9.345   4.712  10.645  1.7624  0.2477  0.8174
  950MOL0     H28249   9.357   4.706  10.819 -4.6044 -1.1908  1.7558
  950MOL0     H28250   9.419   4.567  10.714  1.5273  0.7515  2.1933
  951MOL0     O28251  10.611   4.772   4.185 -0.2082  0.0214 -0.2835
  951MOL0     C28252  10.714   4.708   4.198 -0.1248  0.1116  0.0278
  951MOL0     O28253  10.832   4.749   4.153 -0.6538 -0.6555  0.2906
  951MOL0     C28254  10.845   4.880   4.121 -0.8018  0.4045 -1.3141
  951MOL0     C28255  10.884   4.963   4.228  0.4090  0.3063 -0.7490
  951MOL0     C28256  10.895   5.094   4.208  0.2407  1.0618 -0.3144
  951MOL0     C28257  10.873   5.144   4.077  0.5455  0.0671  0.9192
  951MOL0     O28258  10.890   5.275   4.035 -0.3231  0.2101  1.0024
  951MOL0     C28259  11.004   5.350   4.084 -1.1351  0.3078 -0.4194
  951MOL0     C28260  11.131   5.307   3.995  0.2337  0.2053  0.1333
  951MOL0     C28261  11.255   5.379   4.041  0.2505  0.6951  0.0354
  951MOL0     C28262  11.379   5.343   3.953 -0.5594 -0.3070 -0.2872
  951MOL0     C28263  11.505   5.416   3.977 -0.7371 -0.1363  0.1586
  951MOL0     C28264  11.585   5.374   4.114  0.1616 -0.8387  0.6218
  951MOL0     C28265  11.731   5.424   4.103 -1.1618  1.0821 -0.1566
  951MOL0     C28266  11.750   5.578   4.115  0.1852  1.6309  0.0200
  951MOL0     N28267  11.877   5.626   4.064 -0.2583  0.5348 -0.2809
  951MOL0     C28268  11.895   5.671   3.933  0.3402  0.3472 -0.2727
  951MOL0     C28269  12.028   5.697   3.916  0.1962  0.2762 -1.5912
  951MOL0     C28270  12.088   5.757   3.802 -0.4779  0.6147 -0.1873
  951MOL0     C28271  12.146   5.895   3.843  0.4992  0.0618 -0.0571
  951MOL0     C28272  12.037   5.988   3.878  0.0254 -0.2783 -0.1551
  951MOL0     C28273  12.088   6.118   3.939  0.1440 -0.2177 -0.0078
  951MOL0     O28274  12.161   6.102   4.058 -0.1138  0.2613  0.9258
  951MOL0     C28275  12.083   6.077   4.161  1.3336 -0.0248 -0.6173
  951MOL0     C28276  11.984   6.157   4.222 -0.3764  0.1042 -1.6758
  951MOL0     C28277  11.914   6.105   4.345 -0.2656 -0.2988  0.4677
  951MOL0     C28278  11.930   5.968   4.392  0.6806  0.1226  0.1931
  951MOL0     C28279  11.872   5.925   4.516  0.4144 -0.2298  0.7517
  951MOL0     O28280  11.820   6.030   4.603 -0.6666 -0.0219 -0.3387
  951MOL0     C28281  11.777   5.992   4.728  0.3452  0.3611  0.6719
  951MOL0     C28282  11.852   6.001   4.841 -0.4253 -0.1852 -1.1055
  951MOL0     C28283  11.807   5.952   4.968 -0.7410 -0.4773  0.1009
  951MOL0     C28284  11.678   5.902   4.980  0.4628 -0.2580 -0.6368
  951MOL0     O28285  11.646   5.850   5.102 -0.1256  0.6002  0.8846
  951MOL0     C28286  11.521   5.797   5.123  0.5499 -0.3025  0.3665
  951MOL0     C28287  11.526   5.761   5.277 -0.0292 -0.5947 -0.1802
  951MOL0     C28288  11.606   5.620   5.288  0.2390 -0.1738  0.6375
  951MOL0     C28289  11.601   5.542   5.417 -0.0363 -0.0710 -0.2774
  951MOL0     C28290  11.479   5.453   5.439  0.2606  0.1760 -0.1452
  951MOL0     C28291  11.446   5.426   5.585 -0.5633  0.6689 -0.8346
  951MOL0     C28292  11.331   5.318   5.616  0.8256  0.2048  0.9591
  951MOL0     C28293  11.364   5.224   5.732  0.5105  0.3533  0.5904
  951MOL0    Cl28294  11.407   5.306   5.892 -0.0696 -0.0726 -0.3427
  951MOL0     C28295  11.585   5.908   4.868 -1.1686 -0.2382 -0.5379
  951MOL0     C28296  11.644   5.953   4.741 -0.7191  0.5764  0.3593
  951MOL0     O28297  11.878   5.804   4.546  0.1461  0.6070  0.5959
  951MOL0     C28298  12.002   5.890   4.305  0.2808  0.3178  0.1131
  951MOL0     C28299  12.082   5.945   4.203 -0.1653 -0.9790 -0.9204
  951MOL0     N28300  12.090   5.653   4.042 -0.3728  0.5197  0.4957
  951MOL0     N28301  11.995   5.608   4.116 -0.0552  0.8599  0.2157
  951MOL0     C28302  10.827   5.064   3.977  0.5639  0.8770 -0.0632
  951MOL0     C28303  10.813   4.931   3.999  0.5473  0.5913  0.7541
  951MOL0     C28304  10.712   4.569   4.262 -0.8877 -0.4888 -0.0793
  951MOL0     C28305  10.828   4.524   4.330  0.1343 -0.2053  0.0737
  951MOL0     C28306  10.824   4.402   4.392 -0.4483  0.1480 -1.4548
  951MOL0     C28307  10.727   4.302   4.372 -1.4963  0.1666 -0.3328
  951MOL0     O28308  10.738   4.179   4.430 -1.1267 -0.8906  0.1840
  951MOL0     C28309  10.697   4.181   4.571 -0.3243 -0.5042  0.0410
  951MOL0     C28310  10.553   4.119   4.592  0.7258 -0.1530  0.9072
  951MOL0     C28311  10.465   4.189   4.680  0.2988 -0.4931 -0.0865
  951MOL0     C28312  10.510   4.179   4.826 -0.2404  1.1470 -1.4490
  951MOL0     C28313  10.450   4.272   4.916  0.2901 -0.2020 -0.0308
  951MOL0     C28314  10.379   4.354   4.980 -0.4012  0.2809 -0.4980
  951MOL0     C28315  10.623   4.342   4.307  0.1259  0.0739  0.5236
  951MOL0     C28316  10.606   4.464   4.255  0.6447 -0.4520  0.1861
  951MOL0     C28317  10.481   4.489   4.175 -0.2897 -0.1445 -0.2816
  951MOL0     H28318  10.891   4.935   4.332 -2.0707 -2.3177 -1.1529
  951MOL0     H28319  10.923   5.169   4.282  0.1327 -1.4250  2.4456
  951MOL0     H28320  11.002   5.455   4.054  0.3270  0.5541  0.2666
  951MOL0     H28321  11.028   5.337   4.190  1.7934  0.3349 -1.0014
  951MOL0     H28322  11.115   5.334   3.890 -0.8464 -1.5605 -0.2036
  951MOL0     H28323  11.139   5.198   4.003  0.6177  0.3199  1.6080
  951MOL0     H28324  11.279   5.349   4.143 -2.1276  1.0759  0.7585
  951MOL0     H28325  11.241   5.487   4.031  3.9913  1.3353  0.2374
  951MOL0     H28326  11.387   5.234   3.954 -1.1475 -0.3518 -0.2428
  951MOL0     H28327  11.356   5.376   3.851 -1.4477 -1.6024 -0.5301
  951MOL0     H28328  11.565   5.392   3.889 -0.5331  0.3562  0.1565
  951MOL0     H28329  11.498   5.525   3.982  2.6166  0.1325  2.2638
  951MOL0     H28330  11.555   5.428   4.204  0.3190  0.2694  0.0231
  951MOL0     H28331  11.571   5.268   4.136 -1.7332 -0.1970  2.8449
  951MOL0     H28332  11.778   5.397   4.008 -0.8410 -1.6554  0.7017
  951MOL0     H28333  11.785   5.391   4.192 -0.1067  0.7140 -0.9172
  951MOL0     H28334  11.674   5.632   4.057 -3.7911  0.5736  3.6970
  951MOL0     H28335  11.738   5.606   4.220  1.0343  0.6229  0.4048
  951MOL0     H28336  11.809   5.693   3.870  1.4739 -1.1814 -2.4895
  951MOL0     H28337  12.172   5.696   3.769  0.7997  1.0875  1.9578
  951MOL0     H28338  12.012   5.775   3.726 -1.8420  0.3680  1.0644
  951MOL0     H28339  12.214   5.872   3.927  1.4517  0.0810 -0.8056
  951MOL0     H28340  12.200   5.926   3.754 -0.7342  0.1104 -0.8116
  951MOL0     H28341  11.969   5.940   3.950  0.3761  0.1719  0.4833
  951MOL0     H28342  11.975   6.014   3.792 -0.5296  3.4857  1.1861
  951MOL0     H28343  12.004   6.187   3.955 -0.2648 -1.2678  3.2155
  951MOL0     H28344  12.157   6.173   3.874  0.2495  1.3009  1.3073
  951MOL0     H28345  11.975   6.261   4.195  0.8973  0.2681 -1.5277
  951MOL0     H28346  11.848   6.166   4.405 -3.1877 -3.8203  1.1410
  951MOL0     H28347  11.948   6.049   4.825 -0.1171 -0.7607 -1.0121
  951MOL0     H28348  11.881   5.963   5.046  1.6726 -1.2483 -1.9761
  951MOL0     H28349  11.444   5.874   5.113  1.1123  0.6130  2.3859
  951MOL0     H28350  11.500   5.715   5.055 -1.7560 -0.6764  1.4052
  951MOL0     H28351  11.588   5.835   5.327 -1.3208  0.7423 -0.4712
  951MOL0     H28352  11.424   5.755   5.318 -1.0921  0.8150 -2.3906
  951MOL0     H28353  11.573   5.545   5.216 -2.3748 -0.2227  1.7668
  951MOL0     H28354  11.711   5.644   5.270 -0.4484 -0.0862 -4.5176
  951MOL0     H28355  11.593   5.618   5.494 -1.6744  2.1332 -2.4562
  951MOL0     H28356  11.688   5.479   5.438  1.7180  1.9568 -1.1600
  951MOL0     H28357  11.489   5.353   5.395  1.2001 -0.8333  2.1419
  951MOL0     H28358  11.385   5.498   5.408  0.0878  1.0063  1.4653
  951MOL0     H28359  11.537   5.391   5.633 -0.9430 -0.2198 -0.7463
  951MOL0     H28360  11.417   5.518   5.638  1.3936 -0.4998  2.5166
  951MOL0     H28361  11.325   5.247   5.533 -0.9952  0.0802  1.1615
  951MOL0     H28362  11.233   5.368   5.617  2.7210  4.3974  0.3736
  951MOL0     H28363  11.270   5.171   5.749 -1.9184  3.7155 -1.2671
  951MOL0     H28364  11.443   5.153   5.706 -0.5318 -0.3582 -0.7372
  951MOL0     H28365  11.482   5.878   4.880 -1.2206  0.6469  1.6894
  951MOL0     H28366  11.579   5.941   4.655  0.4553 -0.5663 -0.3927
  951MOL0     H28367  12.010   5.782   4.320  1.2953  0.4731  0.7460
  951MOL0     H28368  12.132   5.868   4.145 -3.8516 -3.4013 -1.1583
  951MOL0     H28369  10.815   5.116   3.883  1.2009  0.3589 -0.4444
  951MOL0     H28370  10.784   4.866   3.917  0.0176 -0.3104  1.6272
  951MOL0     H28371  10.917   4.585   4.337 -1.0559  1.3436  2.9626
  951MOL0     H28372  10.901   4.370   4.461 -0.4481  4.6720  1.0154
  951MOL0     H28373  10.700   4.287   4.601  1.1687  0.9526 -4.4277
  951MOL0     H28374  10.769   4.116   4.622 -1.3868 -0.5732  1.5219
  951MOL0     H28375  10.560   4.016   4.626  0.5285 -0.4835 -0.0241
  951MOL0     H28376  10.516   4.123   4.489  3.1337 -0.6307 -0.0438
  951MOL0     H28377  10.359   4.165   4.664 -0.4507 -0.3395  3.6768
  951MOL0     H28378  10.469   4.294   4.650  0.1271 -0.2191  0.8090
  951MOL0     H28379  10.487   4.082   4.871  0.9533  2.4964  2.4473
  951MOL0     H28380  10.618   4.164   4.825 -0.5560 -2.2330 -0.0218
  951MOL0     H28381  10.309   4.404   5.046  2.5223 -0.7036  3.7710
  951MOL0     H28382  10.542   4.270   4.295 -0.2112  0.5425 -0.0701
  951MOL0     H28383  10.401   4.503   4.248 -0.1121  0.0323 -0.1196
  951MOL0     H28384  10.495   4.578   4.113  0.6630  0.2251  0.4251
  951MOL0     H28385  10.460   4.412   4.101 -0.3881  1.0849 -1.5787
  952MOL0     O28386   4.867  11.427   1.357 -0.0650 -0.2030  0.9741
  952MOL0     C28387   4.817  11.313   1.345  0.4457  0.4867 -0.2164
  952MOL0     O28388   4.718  11.269   1.255 -0.1934  0.4852  0.6749
  952MOL0     C28389   4.613  11.357   1.232  0.3414 -0.9950  0.9627
  952MOL0     C28390   4.567  11.463   1.299 -0.1003 -0.0548 -0.3386
  952MOL0     C28391   4.450  11.536   1.273  0.7387 -0.6539 -0.0213
  952MOL0     C28392   4.362  11.491   1.179 -0.1237 -0.5678  0.3135
  952MOL0     O28393   4.251  11.559   1.138  0.2536  0.0843 -0.3855
  952MOL0     C28394   4.175  11.615   1.244 -0.0531  0.5865  1.1638
  952MOL0     C28395   4.085  11.506   1.307 -1.1975  0.5432 -0.5255
  952MOL0     C28396   4.025  11.558   1.444  0.1248 -0.2415  0.3176
  952MOL0     C28397   3.886  11.521   1.476 -0.3370 -0.3254 -0.3609
  952MOL0     C28398   3.775  11.558   1.375  0.1567 -0.9317  0.0888
  952MOL0     C28399   3.644  11.532   1.449 -0.0900 -0.0505  1.0926
  952MOL0     C28400   3.539  11.509   1.337  0.4210 -0.1626 -0.5343
  952MOL0     C28401   3.526  11.601   1.216  0.0914 -0.0876 -0.9421
  952MOL0     N28402   3.403  11.580   1.143 -0.0554  0.2013  0.0386
  952MOL0     C28403   3.376  11.482   1.053  0.0933 -0.3664  0.6182
  952MOL0     C28404   3.242  11.505   1.010 -0.2085 -0.1193 -0.9005
  952MOL0     C28405   3.160  11.431   0.917  0.0335 -0.4972 -0.7702
  952MOL0     C28406   3.180  11.284   0.926  0.0974 -0.2935 -0.4385
  952MOL0     C28407   3.108  11.225   1.052  0.1408  0.1944 -0.1876
  952MOL0     C28408   3.189  11.235   1.185  0.0702  0.8199 -0.6749
  952MOL0     O28409   3.284  11.128   1.188 -1.1171  0.3982  0.2991
  952MOL0     C28410   3.393  11.129   1.284  0.8054  0.4446  0.3603
  952MOL0     C28411   3.487  11.030   1.255 -0.5603 -0.5312 -0.1749
  952MOL0     C28412   3.589  11.005   1.351  0.0627 -0.4023  0.1576
  952MOL0     C28413   3.591  11.088   1.468  0.0461 -0.0072 -0.4692
  952MOL0     C28414   3.696  11.084   1.574 -1.4203  0.2951  0.3202
  952MOL0     O28415   3.713  11.189   1.669 -0.4578  0.0860  0.3850
  952MOL0     C28416   3.820  11.184   1.755 -0.4902  0.0416 -0.7589
  952MOL0     C28417   3.868  11.310   1.790 -0.1632  0.7279 -0.3260
  952MOL0     C28418   3.981  11.330   1.867 -1.2110  1.0164 -0.3846
  952MOL0     C28419   4.033  11.214   1.939  0.4470  0.2172  0.1342
  952MOL0     O28420   4.149  11.221   2.021  0.2811  0.5681 -0.0799
  952MOL0     C28421   4.129  11.198   2.161  0.0646  0.4679  0.8319
  952MOL0     C28422   4.035  11.291   2.222  0.2525 -0.5512  0.2207
  952MOL0     C28423   4.028  11.282   2.374  0.3940 -0.4562  0.3043
  952MOL0     C28424   3.935  11.395   2.432  1.1309 -0.4259 -0.0454
  952MOL0     C28425   3.903  11.359   2.585  0.2156  0.0914  0.6759
  952MOL0     C28426   3.812  11.234   2.601  0.5890 -0.0473 -0.3075
  952MOL0     C28427   3.830  11.173   2.746  0.2114  0.4324 -0.1976
  952MOL0     C28428   3.740  11.047   2.764 -0.5108 -0.4209  0.1236
  952MOL0    Cl28429   3.837  10.901   2.721  0.3039  0.0506  0.1156
  952MOL0     C28430   3.980  11.086   1.909 -0.4226  0.0270  0.6157
  952MOL0     C28431   3.880  11.070   1.812 -0.6072 -0.3392  0.0442
  952MOL0     O28432   3.762  10.972   1.572 -0.1181 -0.6308  0.3949
  952MOL0     C28433   3.495  11.190   1.492  0.6487 -0.1989  0.3808
  952MOL0     C28434   3.392  11.209   1.406  0.0959 -0.4499  0.1362
  952MOL0     N28435   3.203  11.620   1.068  1.0429  0.2939 -0.4657
  952MOL0     N28436   3.301  11.659   1.152 -0.1485  0.2078 -0.5929
  952MOL0     C28437   4.406  11.391   1.093 -0.3989 -0.7440 -1.1624
  952MOL0     C28438   4.523  11.312   1.129  0.4416  0.6524  0.4654
  952MOL0     C28439   4.857  11.202   1.429 -1.0427 -0.1138  0.1592
  952MOL0     C28440   4.754  11.120   1.475 -0.7415  1.4136  0.4965
  952MOL0     C28441   4.784  11.004   1.540 -0.2553  0.2077  0.5030
  952MOL0     C28442   4.908  10.972   1.574  0.4243 -0.5645 -0.1355
  952MOL0     O28443   4.949  10.866   1.650 -0.0822 -0.2678 -0.3053
  952MOL0     C28444   4.846  10.783   1.701  0.5536  0.4798 -1.2703
  952MOL0     C28445   4.904  10.678   1.791  0.0547 -1.1276 -1.0275
  952MOL0     C28446   5.008  10.586   1.726  0.3910 -0.2185 -0.6116
  952MOL0     C28447   5.149  10.603   1.762  0.0616 -0.5279  0.3806
  952MOL0     C28448   5.180  10.571   1.906 -0.8193  0.3676  1.3217
  952MOL0     C28449   5.200  10.563   2.026  0.0270 -0.0180 -0.3325
  952MOL0     C28450   5.012  11.067   1.549 -0.3007 -0.5486 -0.9703
  952MOL0     C28451   4.985  11.184   1.477  0.4933 -0.0807 -0.4887
  952MOL0     C28452   5.102  11.263   1.438  0.2482 -0.0665 -0.1116
  952MOL0     H28453   4.644  11.500   1.366  1.9195 -1.3182 -1.8529
  952MOL0     H28454   4.427  11.622   1.334  2.4583  1.4741 -2.1864
  952MOL0     H28455   4.231  11.680   1.312  1.3305  0.7329 -0.0799
  952MOL0     H28456   4.114  11.688   1.190 -1.8037 -1.0662  0.8147
  952MOL0     H28457   4.153  11.431   1.348 -0.1664  1.2194 -0.9596
  952MOL0     H28458   4.004  11.469   1.244 -0.8742 -0.1463 -0.5487
  952MOL0     H28459   4.007  11.665   1.436 -1.3845 -0.6077 -3.4071
  952MOL0     H28460   4.088  11.536   1.530 -0.2457  0.7268  0.8470
  952MOL0     H28461   3.877  11.412   1.485 -0.5324 -0.3067 -0.3073
  952MOL0     H28462   3.856  11.566   1.571  0.8345  1.4492 -0.7876
  952MOL0     H28463   3.780  11.664   1.346  0.7122 -1.0603 -0.3075
  952MOL0     H28464   3.788  11.505   1.280 -0.6802  0.8436 -1.0723
  952MOL0     H28465   3.657  11.436   1.501  5.6589 -2.5523 -3.7660
  952MOL0     H28466   3.615  11.620   1.507 -1.7718 -1.0973  1.9149
  952MOL0     H28467   3.440  11.507   1.384  0.0068 -1.5413 -1.4062
  952MOL0     H28468   3.550  11.410   1.291  0.0946  0.0831 -1.1574
  952MOL0     H28469   3.549  11.704   1.243  3.8569 -1.3482  1.3938
  952MOL0     H28470   3.604  11.567   1.148  0.6452  2.1459 -1.4952
  952MOL0     H28471   3.443  11.401   1.027 -0.3049  0.1105 -2.1702
  952MOL0     H28472   3.057  11.469   0.927 -0.2914 -1.7525  1.2551
  952MOL0     H28473   3.185  11.453   0.813 -4.5542  0.1971 -1.9626
  952MOL0     H28474   3.148  11.226   0.839  0.0966 -1.4870  0.3217
  952MOL0     H28475   3.287  11.259   0.927 -0.2266 -2.0893  2.0431
  952MOL0     H28476   3.096  11.116   1.056 -1.2554  0.3719  1.1048
  952MOL0     H28477   3.008  11.266   1.072  0.3901  3.7018 -4.5813
  952MOL0     H28478   3.117  11.223   1.267  0.3479 -1.6846 -0.7071
  952MOL0     H28479   3.240  11.331   1.199  1.9687 -0.4573  2.0917
  952MOL0     H28480   3.472  10.976   1.162 -0.7472 -0.6867 -0.0535
  952MOL0     H28481   3.662  10.925   1.351 -1.5899 -2.0407 -2.5542
  952MOL0     H28482   3.823  11.395   1.739 -0.4663  1.2412  0.7551
  952MOL0     H28483   4.045  11.417   1.878  0.3018 -0.1194  0.1721
  952MOL0     H28484   4.089  11.097   2.168  2.0937 -0.5653 -1.2115
  952MOL0     H28485   4.228  11.191   2.208  0.5218 -1.9191 -0.3711
  952MOL0     H28486   4.065  11.388   2.182 -2.4753 -0.5267 -2.0488
  952MOL0     H28487   3.936  11.267   2.182 -0.2104 -1.2219  1.6985
  952MOL0     H28488   3.998  11.180   2.401  2.4261 -1.4473 -0.9094
  952MOL0     H28489   4.128  11.299   2.416  0.5681 -0.4234 -0.1216
  952MOL0     H28490   3.844  11.404   2.372 -0.7422 -1.3013  2.4847
  952MOL0     H28491   3.980  11.495   2.423 -0.2645  0.3096  0.7649
  952MOL0     H28492   3.852  11.444   2.631 -1.5779 -0.0706 -0.8561
  952MOL0     H28493   3.995  11.336   2.638  1.0965  0.9951 -0.4021
  952MOL0     H28494   3.710  11.258   2.572  0.1470 -1.3403  0.1020
  952MOL0     H28495   3.841  11.153   2.533 -1.0611 -0.4577 -0.5674
  952MOL0     H28496   3.806  11.248   2.822 -1.3034 -0.2787  0.0558
  952MOL0     H28497   3.936  11.150   2.758 -0.0959 -0.3073  1.4048
  952MOL0     H28498   3.700  11.045   2.866  0.5902 -1.2841  0.5535
  952MOL0     H28499   3.645  11.054   2.709  0.9682  1.8118 -2.4304
  952MOL0     H28500   4.021  10.997   1.954 -0.3909 -0.3114 -0.0587
  952MOL0     H28501   3.847  10.969   1.789 -1.5197  0.2448 -1.2764
  952MOL0     H28502   3.500  11.262   1.573  3.3449 -2.0104  1.9678
  952MOL0     H28503   3.312  11.277   1.434  0.3280 -0.5082  0.9476
  952MOL0     H28504   4.346  11.353   1.010 -3.6861 -0.8858  1.1009
  952MOL0     H28505   4.548  11.214   1.090  0.9708  1.4012 -1.1812
  952MOL0     H28506   4.649  11.136   1.452 -0.8451 -1.6354 -1.7875
  952MOL0     H28507   4.701  10.939   1.564 -0.0632 -0.1135  0.3181
  952MOL0     H28508   4.773  10.749   1.627 -0.3977  0.9941 -0.5929
  952MOL0     H28509   4.774  10.844   1.757  0.7408  0.8452 -1.4217
  952MOL0     H28510   4.829  10.612   1.835  0.0438 -0.7216 -0.4350
  952MOL0     H28511   4.945  10.744   1.867 -1.3824 -0.5194 -0.7511
  952MOL0     H28512   5.005  10.598   1.617 -1.3552  3.3233 -0.3389
  952MOL0     H28513   4.995  10.481   1.752 -1.8415 -0.2068 -1.4413
  952MOL0     H28514   5.199  10.529   1.700 -3.1677 -1.4750 -1.3356
  952MOL0     H28515   5.179  10.707   1.746  1.4063 -0.2160  4.0170
  952MOL0     H28516   5.193  10.555   2.132  0.1963  2.0164 -0.1252
  952MOL0     H28517   5.109  11.043   1.592 -1.1246 -2.0052  0.1423
  952MOL0     H28518   5.190  11.251   1.501  0.0922 -0.9924 -0.0606
  952MOL0     H28519   5.135  11.237   1.337  0.5563  2.2778 -0.6800
  952MOL0     H28520   5.071  11.368   1.450 -1.5514 -0.6230  0.5272
  953MOL0     O28521   2.509   2.919   8.156 -1.0481 -0.0097  0.6095
  953MOL0     C28522   2.600   2.959   8.227  1.0767 -0.1974 -0.1469
  953MOL0     O28523   2.646   2.893   8.340 -0.2470  0.6022  0.1057
  953MOL0     C28524   2.562   2.822   8.425 -0.3738 -0.6222 -0.4326
  953MOL0     C28525   2.514   2.687   8.405  0.3018  0.0089 -0.8700
  953MOL0     C28526   2.435   2.635   8.504  0.6795 -0.2707  0.0577
  953MOL0     C28527   2.405   2.693   8.631 -1.3571  0.1065  0.5615
  953MOL0     O28528   2.333   2.631   8.728 -0.7568 -0.3856  0.1114
  953MOL0     C28529   2.225   2.547   8.689  0.2680 -0.1360  1.2007
  953MOL0     C28530   2.151   2.528   8.816  0.0462 -0.8028  0.2185
  953MOL0     C28531   2.009   2.487   8.803 -0.2327 -0.2014  0.0737
  953MOL0     C28532   1.951   2.411   8.923  1.1672 -0.9720 -0.6975
  953MOL0     C28533   1.807   2.389   8.945 -0.3943  0.4913  0.6219
  953MOL0     C28534   1.747   2.496   9.031  0.2242 -0.4640  0.2318
  953MOL0     C28535   1.596   2.492   9.043  0.0608  0.6940 -0.6553
  953MOL0     C28536   1.555   2.404   9.168 -0.2998  0.5095 -0.5327
  953MOL0     N28537   1.553   2.474   9.293  0.5111 -0.6898 -1.1773
  953MOL0     C28538   1.441   2.535   9.343  0.3734 -0.4681 -0.1929
  953MOL0     C28539   1.487   2.596   9.455  0.1024  0.5686  0.0225
  953MOL0     C28540   1.411   2.693   9.537 -0.5003  0.6254  0.3289
  953MOL0     C28541   1.294   2.771   9.474 -0.7518  0.3406 -0.0456
  953MOL0     C28542   1.151   2.720   9.493 -0.0852 -0.1164 -0.8919
  953MOL0     C28543   1.110   2.725   9.640 -0.5111  0.9057 -0.2396
  953MOL0     O28544   1.178   2.624   9.720  0.6991  0.1075 -0.1444
  953MOL0     C28545   1.107   2.506   9.707  0.0455  0.7730 -1.0657
  953MOL0     C28546   0.994   2.475   9.799  0.5630 -0.6832 -0.2906
  953MOL0     C28547   0.920   2.358   9.780  0.6164  0.7290  0.0370
  953MOL0     C28548   0.951   2.263   9.682 -0.7926  0.0945 -0.6427
  953MOL0     C28549   0.878   2.137   9.664 -0.2444 -0.0654  0.2027
  953MOL0     O28550   0.888   2.088   9.538  0.1056  0.1996 -0.5062
  953MOL0     C28551   0.851   1.959   9.507 -0.1980  0.4556  0.6133
  953MOL0     C28552   0.913   1.907   9.383 -0.5615  0.0507 -0.9952
  953MOL0     C28553   0.865   1.783   9.336 -0.1989  0.5067 -0.0984
  953MOL0     C28554   0.788   1.697   9.408  0.6618  0.7354  1.2831
  953MOL0     O28555   0.778   1.562   9.369 -0.5472 -1.1052  0.5620
  953MOL0     C28556   0.680   1.475   9.422  0.7985 -0.2915  0.4621
  953MOL0     C28557   0.641   1.377   9.316 -0.0833 -0.7841  0.0201
  953MOL0     C28558   0.587   1.425   9.184  0.5590  0.0795  0.2161
  953MOL0     C28559   0.547   1.298   9.105 -0.0961 -0.3836  0.2028
  953MOL0     C28560   0.505   1.324   8.957 -0.2192  0.2829 -0.0299
  953MOL0     C28561   0.533   1.201   8.866 -0.4938 -0.3805 -0.5565
  953MOL0     C28562   0.509   1.238   8.720  0.3959 -1.3420 -0.9833
  953MOL0     C28563   0.586   1.154   8.625 -0.1770 -0.8802 -0.5968
  953MOL0    Cl28564   0.519   0.988   8.639 -0.0142 -0.5907 -0.0271
  953MOL0     C28565   0.728   1.744   9.523 -0.1282 -0.1669  1.0419
  953MOL0     C28566   0.745   1.884   9.559 -0.8979 -0.8690  0.0077
  953MOL0     O28567   0.830   2.080   9.757 -0.3028  0.0986 -0.2653
  953MOL0     C28568   1.061   2.292   9.597  0.4449  0.0060 -0.0819
  953MOL0     C28569   1.145   2.409   9.618  0.6298 -0.6758  0.4126
  953MOL0     N28570   1.623   2.556   9.479 -0.8260 -0.8295 -0.3422
  953MOL0     N28571   1.664   2.493   9.378  0.1329  0.4345 -0.6085
  953MOL0     C28572   2.468   2.817   8.648 -0.5083  0.2260 -0.1038
  953MOL0     C28573   2.524   2.893   8.543  0.2215 -0.1691 -0.0142
  953MOL0     C28574   2.654   3.093   8.193 -0.5552  0.6391  0.1837
  953MOL0     C28575   2.750   3.155   8.282  0.3420 -0.0602  0.1799
  953MOL0     C28576   2.777   3.294   8.274 -0.3345  0.7801  0.1517
  953MOL0     C28577   2.736   3.367   8.166 -0.6780  0.0813  0.1976
  953MOL0     O28578   2.768   3.496   8.129 -0.0919  0.3885  0.1810
  953MOL0     C28579   2.806   3.589   8.236 -0.3058  0.4831  0.5674
  953MOL0     C28580   2.960   3.597   8.255  0.5181 -0.0141 -0.6396
  953MOL0     C28581   3.012   3.681   8.372  0.0195 -0.4552 -0.2296
  953MOL0     C28582   3.159   3.676   8.351  0.0093 -0.8515 -0.1521
  953MOL0     C28583   3.217   3.763   8.455  0.1277  0.6972  0.0188
  953MOL0     C28584   3.263   3.844   8.527  0.0249 -1.3379 -0.2264
  953MOL0     C28585   2.662   3.299   8.063  0.1922  0.4224  0.2877
  953MOL0     C28586   2.617   3.170   8.081 -1.0024  0.3554 -1.1724
  953MOL0     C28587   2.524   3.116   7.984  0.8947 -0.6855  0.4045
  953MOL0     H28588   2.527   2.630   8.314 -2.1373 -0.4785 -0.9628
  953MOL0     H28589   2.398   2.537   8.474  4.6225 -1.5662 -1.1883
  953MOL0     H28590   2.165   2.600   8.614 -1.9206 -1.3113  2.0368
  953MOL0     H28591   2.248   2.452   8.639 -2.1751  0.0661 -0.5449
  953MOL0     H28592   2.159   2.611   8.887  0.9137 -2.8700  2.6951
  953MOL0     H28593   2.207   2.458   8.878  0.2969  1.0544  2.2217
  953MOL0     H28594   1.999   2.414   8.722 -0.9561 -0.6120  0.5204
  953MOL0     H28595   1.954   2.577   8.774  0.7384  1.4997  3.0964
  953MOL0     H28596   2.002   2.314   8.915  1.8123 -0.8113  0.9945
  953MOL0     H28597   1.984   2.448   9.021  0.3630  2.1933 -1.5198
  953MOL0     H28598   1.754   2.378   8.850 -1.1260 -0.1848  1.1006
  953MOL0     H28599   1.808   2.291   8.995 -1.6434  0.2752  0.2530
  953MOL0     H28600   1.795   2.491   9.129  0.1145  1.1009  0.3881
  953MOL0     H28601   1.758   2.591   8.978 -0.2979 -1.4642 -1.7554
  953MOL0     H28602   1.550   2.456   8.951 -0.4401 -0.1213 -0.0941
  953MOL0     H28603   1.560   2.591   9.073 -0.3233  0.8437 -1.5968
  953MOL0     H28604   1.449   2.380   9.154  0.0084 -1.2024 -0.1134
  953MOL0     H28605   1.592   2.302   9.168  0.3493  0.7385 -1.0431
  953MOL0     H28606   1.344   2.539   9.294 -0.0928 -1.1362  0.6420
  953MOL0     H28607   1.379   2.645   9.630 -0.0274 -0.8114 -0.2382
  953MOL0     H28608   1.483   2.772   9.562  0.2237 -0.0544  0.4049
  953MOL0     H28609   1.297   2.872   9.516  0.5915  0.3582 -0.1357
  953MOL0     H28610   1.313   2.786   9.367  0.1810  0.5379  0.1385
  953MOL0     H28611   1.138   2.617   9.459  0.5744 -0.4535 -0.1654
  953MOL0     H28612   1.092   2.790   9.433  2.1224  5.6870  2.7629
  953MOL0     H28613   1.001   2.720   9.647 -0.5785  1.6978 -0.5846
  953MOL0     H28614   1.133   2.824   9.681 -2.2365  1.0260  0.5066
  953MOL0     H28615   0.966   2.560   9.860  3.0225  1.0585 -1.4092
  953MOL0     H28616   0.826   2.335   9.830 -0.3576 -0.5132 -2.2330
  953MOL0     H28617   0.995   1.956   9.333  1.7966 -0.2256  2.2150
  953MOL0     H28618   0.923   1.734   9.258 -0.6689 -2.8394  1.4483
  953MOL0     H28619   0.702   1.424   9.516 -2.2308 -0.4832  1.1615
  953MOL0     H28620   0.590   1.536   9.433  2.3981  2.6437 -1.2677
  953MOL0     H28621   0.731   1.319   9.293  0.6776 -0.4347  1.9027
  953MOL0     H28622   0.571   1.304   9.358 -0.0746 -1.0922 -0.5023
  953MOL0     H28623   0.506   1.498   9.191  0.6354  0.3851 -1.5954
  953MOL0     H28624   0.666   1.476   9.128  0.4288 -1.1113 -1.0909
  953MOL0     H28625   0.461   1.253   9.155  0.1637  2.0891  3.1518
  953MOL0     H28626   0.636   1.234   9.107  0.5076  0.4323  2.4315
  953MOL0     H28627   0.568   1.410   8.932  0.5040  0.3082  1.7365
  953MOL0     H28628   0.401   1.359   8.957 -1.4422 -2.2210  5.3769
  953MOL0     H28629   0.634   1.166   8.891 -0.6184 -0.5657 -0.2983
  953MOL0     H28630   0.471   1.117   8.898  2.1408 -2.2135  0.1489
  953MOL0     H28631   0.514   1.346   8.699 -1.5910 -1.1561 -0.6849
  953MOL0     H28632   0.405   1.226   8.689  1.2195  0.0078 -4.8138
  953MOL0     H28633   0.569   1.189   8.523 -3.0139 -1.1254 -0.2828
  953MOL0     H28634   0.693   1.156   8.649 -0.7127  1.4956  2.0348
  953MOL0     H28635   0.646   1.687   9.565 -0.8330  0.2050  0.2061
  953MOL0     H28636   0.697   1.917   9.650 -0.9577  1.9912 -0.9710
  953MOL0     H28637   1.095   2.222   9.522 -1.5994  0.0261 -1.0979
  953MOL0     H28638   1.240   2.416   9.566  1.1129 -4.0819  0.6260
  953MOL0     H28639   2.445   2.867   8.742 -0.7816  5.4347 -2.5724
  953MOL0     H28640   2.543   2.999   8.555 -1.1265 -0.1665  3.1457
  953MOL0     H28641   2.781   3.098   8.369  2.4228  0.3832 -0.2099
  953MOL0     H28642   2.821   3.326   8.367 -2.0771 -0.8961  1.6359
  953MOL0     H28643   2.761   3.551   8.328 -1.1892 -1.2077 -0.5123
  953MOL0     H28644   2.769   3.691   8.225 -0.8698  0.1589 -0.5643
  953MOL0     H28645   2.981   3.654   8.164 -2.3672  0.5207 -1.0887
  953MOL0     H28646   3.008   3.499   8.256  0.9185  0.1718  0.9075
  953MOL0     H28647   2.985   3.637   8.469 -2.6123 -0.3631 -0.8488
  953MOL0     H28648   2.971   3.782   8.367  2.3246  0.5360 -0.4833
  953MOL0     H28649   3.195   3.573   8.361 -1.9540 -1.9741 -3.3123
  953MOL0     H28650   3.194   3.704   8.251 -0.3982 -3.6233 -1.1523
  953MOL0     H28651   3.292   3.921   8.596 -2.2983 -2.5718  2.3700
  953MOL0     H28652   2.610   3.357   7.987 -0.2568  3.5655  2.7808
  953MOL0     H28653   2.567   3.029   7.935  0.4574 -1.2121  0.9495
  953MOL0     H28654   2.429   3.091   8.030 -1.1833  2.8692 -1.4956
  953MOL0     H28655   2.501   3.193   7.909  0.0082 -0.7813  0.5710
  954MOL0     O28656   1.102   0.991   9.185  0.8305 -0.2126 -0.6276
  954MOL0     C28657   1.051   1.095   9.210 -0.5792 -0.7930 -0.2986
  954MOL0     O28658   0.974   1.168   9.128 -0.2877  0.4451  1.1536
  954MOL0     C28659   0.946   1.111   9.005  0.3909 -0.4126 -0.2802
  954MOL0     C28660   1.015   1.153   8.890  0.4335 -0.8664 -1.3762
  954MOL0     C28661   0.996   1.081   8.778  0.4621 -0.6555  0.1356
  954MOL0     C28662   0.901   0.978   8.763  0.1681 -0.4679  0.4144
  954MOL0     O28663   0.894   0.921   8.642  0.7384  0.0185  0.8359
  954MOL0     C28664   0.960   0.793   8.632  0.9629 -0.2422  0.6311
  954MOL0     C28665   1.112   0.787   8.649  0.5279  0.7081 -0.3017
  954MOL0     C28666   1.166   0.645   8.627 -1.2946  0.9153 -0.6145
  954MOL0     C28667   1.317   0.634   8.596 -0.3643  0.1981  0.0863
  954MOL0     C28668   1.368   0.500   8.526 -0.5771  0.5087 -0.1030
  954MOL0     C28669   1.503   0.513   8.457  1.1404  0.3453  0.6237
  954MOL0     C28670   1.573   0.374   8.424  0.8264 -0.1292  0.0137
  954MOL0     C28671   1.723   0.386   8.387 -0.4940  0.6594  0.0733
  954MOL0     N28672   1.773   0.248   8.360  0.3412 -0.0232  0.0094
  954MOL0     C28673   1.829   0.150   8.451  1.0311  0.2217  0.5301
  954MOL0     C28674   1.842   0.043   8.363 -0.3298 -0.3872  0.0442
  954MOL0     C28675   1.894  -0.100   8.391 -0.1140 -0.1683 -0.4267
  954MOL0     C28676   2.020  -0.136   8.306 -1.1894 -0.4428  0.1951
  954MOL0     C28677   2.027  -0.282   8.261  0.4034  0.6826 -0.4311
  954MOL0     C28678   1.906  -0.333   8.181 -0.9268 -0.3902  0.2856
  954MOL0     O28679   1.938  -0.295   8.043 -0.2114  0.2747 -0.2487
  954MOL0     C28680   1.853  -0.328   7.946 -0.8909 -0.1385  0.4445
  954MOL0     C28681   1.865  -0.265   7.821 -0.7504  0.3730 -0.9174
  954MOL0     C28682   1.776  -0.281   7.716  0.0619  0.1529 -0.1210
  954MOL0     C28683   1.671  -0.374   7.731  0.3644  0.0347  0.3039
  954MOL0     C28684   1.569  -0.388   7.628 -0.5412 -0.1693  0.3486
  954MOL0     O28685   1.451  -0.401   7.685  0.0309  0.3932 -0.4467
  954MOL0     C28686   1.339  -0.423   7.609  0.4054 -0.0542 -0.4970
  954MOL0     C28687   1.230  -0.336   7.633 -0.2463 -0.2758 -0.2588
  954MOL0     C28688   1.103  -0.363   7.571 -0.1681 -1.1664  0.8364
  954MOL0     C28689   1.092  -0.479   7.480  0.6057 -0.4259 -0.8089
  954MOL0     O28690   0.963  -0.502   7.447  0.8485 -1.0187 -0.2943
  954MOL0     C28691   0.947  -0.590   7.328 -1.2842 -1.0972 -0.2961
  954MOL0     C28692   0.815  -0.566   7.271 -0.5199  0.3441 -0.0744
  954MOL0     C28693   0.749  -0.691   7.203 -0.7990  0.5546  0.4790
  954MOL0     C28694   0.692  -0.785   7.309  0.1826 -0.5222  0.4097
  954MOL0     C28695   0.613  -0.900   7.256  0.9219 -0.4841  0.4834
  954MOL0     C28696   0.468  -0.863   7.214 -0.3664  0.4986  0.4603
  954MOL0     C28697   0.367  -0.865   7.331 -0.5347  0.3472 -1.0111
  954MOL0     C28698   0.224  -0.876   7.285 -1.4317  0.2264  0.8395
  954MOL0    Cl28699   0.187  -1.041   7.222  0.1707 -0.7722  0.1632
  954MOL0     C28700   1.209  -0.564   7.463  1.1261  0.1597  0.8141
  954MOL0     C28701   1.328  -0.533   7.523 -0.0678  1.1500  0.0234
  954MOL0     O28702   1.586  -0.377   7.504  0.5288 -0.4704 -0.5084
  954MOL0     C28703   1.651  -0.439   7.857  0.0160  0.4792 -0.6727
  954MOL0     C28704   1.744  -0.412   7.963  0.2629 -0.8897 -0.0960
  954MOL0     N28705   1.785   0.071   8.240  0.0884 -1.0887 -0.6399
  954MOL0     N28706   1.746   0.191   8.240  0.6986  0.6144 -0.3473
  954MOL0     C28707   0.837   0.932   8.878 -0.2600  0.5014 -0.2400
  954MOL0     C28708   0.855   1.015   8.994  0.9407  1.5618 -0.6395
  954MOL0     C28709   1.073   1.161   9.342 -0.7792  0.2700 -0.4003
  954MOL0     C28710   1.008   1.284   9.362  0.1720  0.3450  0.0405
  954MOL0     C28711   1.016   1.353   9.484  0.0805  0.1537 -0.4062
  954MOL0     C28712   1.090   1.309   9.592  0.2479  0.2198  0.7640
  954MOL0     O28713   1.124   1.367   9.711  0.1985 -0.9534  0.0042
  954MOL0     C28714   1.095   1.506   9.738  0.1105 -0.2149 -0.6614
  954MOL0     C28715   0.970   1.506   9.809 -0.4900 -1.4038  0.0762
  954MOL0     C28716   0.951   1.649   9.870 -0.1603  0.9022  0.1860
  954MOL0     C28717   0.831   1.656   9.976 -0.5511  0.8685 -0.6467
  954MOL0     C28718   0.700   1.620   9.917 -0.7402  0.0565 -0.7393
  954MOL0     C28719   0.602   1.583   9.859 -0.3425 -0.4787  0.4767
  954MOL0     C28720   1.159   1.188   9.573  0.7520  0.3032 -0.9242
  954MOL0     C28721   1.154   1.115   9.451 -0.5076  0.1385  0.1796
  954MOL0     C28722   1.231   0.987   9.439  0.2455 -0.1697 -0.1564
  954MOL0     H28723   1.096   1.225   8.898 -0.4176 -0.1068  3.9040
  954MOL0     H28724   1.066   1.094   8.697  1.3661  3.3796  1.3129
  954MOL0     H28725   0.910   0.734   8.709 -2.8058  2.3397  0.3867
  954MOL0     H28726   0.925   0.761   8.534 -2.7439  1.1228  1.3382
  954MOL0     H28727   1.126   0.824   8.751 -3.7774  1.9183  0.0820
  954MOL0     H28728   1.167   0.852   8.581  3.5387  2.1355  3.1791
  954MOL0     H28729   1.106   0.613   8.541 -0.9887  1.4175 -1.0227
  954MOL0     H28730   1.139   0.582   8.712 -0.6301  1.8556  0.3133
  954MOL0     H28731   1.323   0.713   8.521 -2.2639  0.2624 -0.0381
  954MOL0     H28732   1.388   0.646   8.678  2.7573 -0.6957 -2.2576
  954MOL0     H28733   1.373   0.416   8.596  2.3629 -0.0748 -0.8513
  954MOL0     H28734   1.295   0.457   8.457  0.2787 -1.0749 -0.0717
  954MOL0     H28735   1.494   0.574   8.367  0.5601 -0.7076 -0.0560
  954MOL0     H28736   1.569   0.560   8.530  1.3325  1.5446 -0.2826
  954MOL0     H28737   1.526   0.342   8.331 -0.7692  0.0899  0.7264
  954MOL0     H28738   1.552   0.312   8.511 -2.3216  1.7272  0.7224
  954MOL0     H28739   1.736   0.445   8.296 -0.1560 -0.8272 -0.8602
  954MOL0     H28740   1.785   0.436   8.462  1.9709 -1.6577 -0.3059
  954MOL0     H28741   1.868   0.158   8.552  2.0091  0.6149  0.1328
  954MOL0     H28742   1.911  -0.114   8.498  0.2712  3.0981  0.0597
  954MOL0     H28743   1.807  -0.164   8.373 -0.0404 -0.3949 -0.0089
  954MOL0     H28744   2.037  -0.072   8.219  0.7695 -1.2617 -0.0883
  954MOL0     H28745   2.108  -0.118   8.369 -0.6470  1.3312 -0.9880
  954MOL0     H28746   2.023  -0.353   8.344  1.9727 -0.0884 -0.9853
  954MOL0     H28747   2.119  -0.303   8.206  0.7554 -0.7180  0.6446
  954MOL0     H28748   1.813  -0.283   8.213 -2.1839 -1.6474 -1.2550
  954MOL0     H28749   1.903  -0.442   8.188  1.0857 -0.3871  2.0248
  954MOL0     H28750   1.943  -0.189   7.818 -0.2624  0.0832  1.7304
  954MOL0     H28751   1.788  -0.234   7.619  1.2044  0.8089  0.3188
  954MOL0     H28752   1.232  -0.255   7.705 -1.3270  0.1692 -0.6999
  954MOL0     H28753   1.014  -0.305   7.596 -0.0511 -0.2357 -0.7617
  954MOL0     H28754   1.023  -0.574   7.251 -1.3987 -0.5226 -0.2952
  954MOL0     H28755   0.954  -0.691   7.371 -3.6409 -1.1228  0.1545
  954MOL0     H28756   0.745  -0.536   7.349 -1.6526  0.8400 -1.2495
  954MOL0     H28757   0.813  -0.488   7.195  0.7071 -1.1503 -1.7446
  954MOL0     H28758   0.667  -0.660   7.138 -0.3032  0.3315 -0.2630
  954MOL0     H28759   0.830  -0.729   7.141  0.7439  3.1006  0.7814
  954MOL0     H28760   0.626  -0.732   7.378  1.4912  0.2506  1.1238
  954MOL0     H28761   0.774  -0.834   7.363  0.1886  2.2945  3.2840
  954MOL0     H28762   0.617  -0.975   7.335 -1.4124 -2.3389 -1.0088
  954MOL0     H28763   0.661  -0.945   7.169 -0.6557 -1.7967  0.2476
  954MOL0     H28764   0.480  -0.769   7.161 -0.1298 -0.1038 -0.5739
  954MOL0     H28765   0.447  -0.949   7.150 -0.0906 -0.8785  2.1347
  954MOL0     H28766   0.371  -0.775   7.392 -0.0700 -0.5626  0.3390
  954MOL0     H28767   0.386  -0.949   7.398  1.1681  0.5507 -1.2018
  954MOL0     H28768   0.152  -0.840   7.359 -1.5689 -0.2087  0.9213
  954MOL0     H28769   0.196  -0.820   7.195  2.0641 -1.4757 -1.5369
  954MOL0     H28770   1.194  -0.665   7.426  0.2613  0.1023  1.2968
  954MOL0     H28771   1.421  -0.589   7.523  0.3716  1.8558 -0.7789
  954MOL0     H28772   1.571  -0.508   7.882 -0.1215  0.0834 -2.1166
  954MOL0     H28773   1.719  -0.463   8.056  0.2368  2.2153  1.7319
  954MOL0     H28774   0.771   0.848   8.864  0.4883 -0.0386 -0.5863
  954MOL0     H28775   0.810   0.976   9.085  2.9929  0.1202 -0.1519
  954MOL0     H28776   0.949   1.328   9.282 -1.1703  1.4126  1.5512
  954MOL0     H28777   0.962   1.442   9.515 -1.0626 -1.1477  1.6324
  954MOL0     H28778   1.079   1.564   9.647 -2.3298  0.7577  0.2789
  954MOL0     H28779   1.170   1.539   9.811  0.1091 -4.2093  1.4222
  954MOL0     H28780   0.983   1.437   9.893  0.8249 -1.8554 -0.4833
  954MOL0     H28781   0.876   1.492   9.756 -0.3010  2.0092 -1.4274
  954MOL0     H28782   0.926   1.723   9.793 -0.1969  1.6614  0.9107
  954MOL0     H28783   1.044   1.678   9.919  0.3359 -0.1032 -0.1385
  954MOL0     H28784   0.873   1.583  10.046  0.0559  1.6165 -0.2081
  954MOL0     H28785   0.819   1.747  10.035 -2.1798 -0.7845  1.7752
  954MOL0     H28786   0.527   1.546   9.793  0.0859 -1.6685  0.6322
  954MOL0     H28787   1.210   1.159   9.664 -2.4016 -0.3091  0.7737
  954MOL0     H28788   1.294   0.984   9.350  1.9455 -2.1260  1.0496
  954MOL0     H28789   1.288   0.983   9.532  0.6776  1.4206 -0.3084
  954MOL0     H28790   1.161   0.904   9.429  0.9545 -0.7102 -0.6707
  955MOL0     O28791  11.334   0.268   1.167  0.4878 -0.1798  0.4429
  955MOL0     C28792  11.333   0.199   1.262 -0.9369 -0.4629 -0.1056
  955MOL0     O28793  11.280   0.233   1.385 -0.0580  0.1607  0.3556
  955MOL0     C28794  11.170   0.317   1.389 -0.2975 -0.0911 -0.4231
  955MOL0     C28795  11.083   0.355   1.290  0.2890 -0.0750 -0.8341
  955MOL0     C28796  10.977   0.443   1.320 -0.3054  0.0951  0.6951
  955MOL0     C28797  10.958   0.491   1.454  0.1454  0.7271  0.8876
  955MOL0     O28798  10.849   0.578   1.484 -0.1894  0.5941  0.0586
  955MOL0     C28799  10.850   0.704   1.404  0.7967  0.8018 -0.5263
  955MOL0     C28800  10.941   0.804   1.472  0.4312 -0.9473  0.1700
  955MOL0     C28801  10.914   0.946   1.411 -0.0391  0.2799 -1.2264
  955MOL0     C28802  11.004   0.995   1.294 -0.2429 -0.0600 -0.5247
  955MOL0     C28803  10.986   1.135   1.246 -0.4221  0.3241 -0.4807
  955MOL0     C28804  10.846   1.155   1.195  0.5616 -0.6010  0.4409
  955MOL0     C28805  10.794   1.063   1.083  0.0970 -0.1369 -1.2279
  955MOL0     C28806  10.657   1.110   1.040 -1.5002 -0.2845 -0.4081
  955MOL0     N28807  10.587   1.036   0.938 -0.1096  0.4461 -0.1235
  955MOL0     C28808  10.514   1.088   0.837 -0.6360  0.1084 -0.1150
  955MOL0     C28809  10.474   0.993   0.768 -0.3205 -0.0065  0.8074
  955MOL0     C28810  10.372   0.997   0.661 -0.2433 -0.0421  0.4091
  955MOL0     C28811  10.242   0.928   0.698  0.3314  0.7923  0.6514
  955MOL0     C28812  10.134   1.020   0.761  0.3857 -0.2427 -0.2353
  955MOL0     C28813  10.173   1.060   0.905 -0.1393 -0.7073 -0.1470
  955MOL0     O28814  10.053   1.114   0.964 -0.5641 -0.4691  0.0968
  955MOL0     C28815  10.047   1.156   1.092  0.4624  0.1915 -0.3042
  955MOL0     C28816   9.920   1.201   1.131  0.8394 -0.3292 -0.0840
  955MOL0     C28817   9.884   1.241   1.260  0.0866 -0.5755 -0.4820
  955MOL0     C28818   9.985   1.232   1.362  0.9086  0.1360 -0.4327
  955MOL0     C28819   9.954   1.271   1.496 -0.4398 -1.1131  0.4859
  955MOL0     O28820   9.834   1.347   1.518  0.0696  0.2507 -0.0173
  955MOL0     C28821   9.838   1.417   1.638 -0.4784 -0.7893 -0.5425
  955MOL0     C28822   9.837   1.355   1.765  0.0534  0.7886  0.4352
  955MOL0     C28823   9.856   1.422   1.884 -0.4565 -0.4927  0.2130
  955MOL0     C28824   9.891   1.555   1.886 -0.3607  1.4806 -0.3510
  955MOL0     O28825   9.913   1.596   2.011 -0.0744 -0.1465  0.2393
  955MOL0     C28826   9.870   1.727   2.062  1.5647 -0.8143  0.6086
  955MOL0     C28827   9.973   1.806   2.142 -0.5683  0.1406 -0.3608
  955MOL0     C28828  10.105   1.820   2.064 -0.6430  0.5539 -0.7414
  955MOL0     C28829  10.198   1.932   2.113  0.4096  0.3219  0.7171
  955MOL0     C28830  10.335   1.917   2.043  0.1365 -0.3235 -0.3105
  955MOL0     C28831  10.318   1.979   1.908 -0.1682  0.0839 -0.7252
  955MOL0     C28832  10.451   1.970   1.829  0.6960  0.2865  0.4351
  955MOL0     C28833  10.465   1.835   1.760 -0.3005 -0.3749  0.4117
  955MOL0    Cl28834  10.623   1.825   1.662  0.2637 -0.0034 -0.0946
  955MOL0     C28835   9.900   1.615   1.754  0.1291 -0.0049 -0.0392
  955MOL0     C28836   9.862   1.552   1.638 -1.3196 -0.1642  0.4058
  955MOL0     O28837  10.040   1.256   1.582  0.1706 -0.0882 -0.0280
  955MOL0     C28838  10.119   1.190   1.330  0.6513  0.3806  0.0476
  955MOL0     C28839  10.139   1.149   1.192 -0.0898 -1.5158 -0.8327
  955MOL0     N28840  10.518   0.870   0.826  0.4198 -0.7013  0.1778
  955MOL0     N28841  10.582   0.900   0.937  0.2102 -1.2802  0.2989
  955MOL0     C28842  11.048   0.452   1.548  1.1849 -0.6460 -1.0841
  955MOL0     C28843  11.152   0.368   1.519  0.0422  1.1088  0.0072
  955MOL0     C28844  11.410   0.077   1.263  0.1279  0.2930  1.0386
  955MOL0     C28845  11.512   0.063   1.162 -0.4207  0.0396  0.2849
  955MOL0     C28846  11.589  -0.052   1.152 -0.2599  1.0410 -0.6598
  955MOL0     C28847  11.571  -0.160   1.242 -0.1092  0.0141  0.1226
  955MOL0     O28848  11.665  -0.266   1.253  0.0630 -0.0551 -0.1055
  955MOL0     C28849  11.789  -0.262   1.185  0.3468 -0.7954  0.2333
  955MOL0     C28850  11.891  -0.145   1.226  1.4346 -0.5996 -0.4441
  955MOL0     C28851  11.917  -0.142   1.377 -0.7441 -0.0901 -0.2183
  955MOL0     C28852  11.957  -0.010   1.441  0.0008  0.7026  0.3909
  955MOL0     C28853  12.044   0.066   1.354  1.1912 -1.1419 -0.2439
  955MOL0     C28854  12.116   0.131   1.282  1.2973 -0.0378  0.4919
  955MOL0     C28855  11.463  -0.153   1.338 -1.6000 -0.3041 -0.7596
  955MOL0     C28856  11.380  -0.035   1.345 -0.6026  1.3176  0.3310
  955MOL0     C28857  11.265  -0.045   1.442 -0.4116 -0.3260  0.4124
  955MOL0     H28858  11.089   0.303   1.195  2.7305 -0.4351 -0.5219
  955MOL0     H28859  10.902   0.444   1.241  1.2071  3.3120 -0.8534
  955MOL0     H28860  10.883   0.683   1.302  1.4346 -2.1071  0.1688
  955MOL0     H28861  10.752   0.754   1.404 -1.0017 -2.2700  2.0470
  955MOL0     H28862  11.045   0.768   1.475  0.8117  0.1589  1.8348
  955MOL0     H28863  10.899   0.808   1.573  1.1705  0.2477  0.4462
  955MOL0     H28864  10.913   1.000   1.506 -0.5709 -2.1067  0.2060
  955MOL0     H28865  10.810   0.950   1.378  0.1949 -2.2416 -2.5426
  955MOL0     H28866  11.105   0.984   1.336 -0.7481 -0.5996  0.6034
  955MOL0     H28867  11.005   0.913   1.221 -0.3205  0.9228 -1.6553
  955MOL0     H28868  11.022   1.193   1.331 -0.4271 -1.2612  0.6659
  955MOL0     H28869  11.054   1.159   1.164  0.1749 -1.1244 -0.4413
  955MOL0     H28870  10.771   1.161   1.274 -0.3455  0.6055 -0.4658
  955MOL0     H28871  10.841   1.255   1.150 -2.0370 -0.3466  1.1429
  955MOL0     H28872  10.788   0.962   1.124  1.0975  0.5070  0.6587
  955MOL0     H28873  10.859   1.069   0.996 -1.4395 -0.8109 -2.4707
  955MOL0     H28874  10.597   1.091   1.129 -0.9862 -1.3345 -0.2710
  955MOL0     H28875  10.665   1.216   1.012  3.3298 -1.1194 -3.4178
  955MOL0     H28876  10.485   1.189   0.811  2.0246  1.0409  0.1636
  955MOL0     H28877  10.363   1.099   0.623 -2.4205 -0.2955  0.1483
  955MOL0     H28878  10.412   0.950   0.571 -1.7978  1.1366 -0.9511
  955MOL0     H28879  10.191   0.895   0.607  2.0916 -1.7385  0.4598
  955MOL0     H28880  10.262   0.843   0.764  3.5559  2.6852  2.3644
  955MOL0     H28881  10.049   0.951   0.760  0.1295  0.0716 -1.1135
  955MOL0     H28882  10.109   1.110   0.704 -0.7963  0.4232  1.2744
  955MOL0     H28883  10.256   1.129   0.885  0.6638 -1.4380  0.5997
  955MOL0     H28884  10.207   0.980   0.970  0.2931  0.0876  0.6259
  955MOL0     H28885   9.851   1.207   1.048  0.9387  2.5588 -0.0617
  955MOL0     H28886   9.791   1.294   1.281  0.6946  0.1174  0.5313
  955MOL0     H28887   9.815   1.249   1.775  0.8886  0.3182 -1.9663
  955MOL0     H28888   9.860   1.364   1.975 -0.2863  0.4922  0.8468
  955MOL0     H28889   9.829   1.789   1.982  1.3024 -0.8369  0.7263
  955MOL0     H28890   9.786   1.720   2.131 -1.6415 -1.0304 -3.0086
  955MOL0     H28891   9.937   1.908   2.162 -0.8430  0.0102 -0.1904
  955MOL0     H28892   9.978   1.759   2.241 -2.3391 -2.6749 -1.4919
  955MOL0     H28893  10.160   1.728   2.088 -1.6274 -0.5383 -2.4344
  955MOL0     H28894  10.093   1.829   1.956  1.1634  1.0167 -0.9357
  955MOL0     H28895  10.189   1.931   2.222 -0.2226 -2.5541  0.7013
  955MOL0     H28896  10.148   2.020   2.072 -2.5321 -1.9951 -1.0847
  955MOL0     H28897  10.375   1.817   2.022 -0.8349 -0.3715 -2.0743
  955MOL0     H28898  10.416   1.966   2.099  0.6985 -1.7526  0.1991
  955MOL0     H28899  10.247   1.918   1.852 -0.2325 -2.3389  1.8119
  955MOL0     H28900  10.289   2.084   1.922  3.5114  1.4555 -1.9316
  955MOL0     H28901  10.532   1.994   1.899  0.3638  2.8413  0.0530
  955MOL0     H28902  10.442   2.051   1.756  1.0025  1.1915  1.3701
  955MOL0     H28903  10.442   1.751   1.826 -2.6071  0.6282  0.9841
  955MOL0     H28904  10.396   1.841   1.675  1.4734  1.5396 -1.0037
  955MOL0     H28905   9.929   1.717   1.731  0.7486 -0.1370  0.1412
  955MOL0     H28906   9.868   1.595   1.539  0.0672 -1.5092 -0.1389
  955MOL0     H28907  10.204   1.180   1.396  1.4861 -1.7235 -1.2206
  955MOL0     H28908  10.241   1.122   1.166  0.1466 -1.5213  0.0850
  955MOL0     H28909  11.032   0.497   1.646 -1.3473  1.3814 -2.3089
  955MOL0     H28910  11.230   0.343   1.592  2.3504  3.8856 -1.3104
  955MOL0     H28911  11.530   0.133   1.081  2.8880 -1.7457 -0.7270
  955MOL0     H28912  11.664  -0.068   1.075  1.1463  1.2490  0.6326
  955MOL0     H28913  11.772  -0.247   1.078 -0.2636  0.4685  0.4840
  955MOL0     H28914  11.832  -0.362   1.192 -1.8393 -1.6778  2.1522
  955MOL0     H28915  11.845  -0.049   1.202 -1.4200 -1.2089  2.0350
  955MOL0     H28916  11.980  -0.167   1.165  1.4752  1.4963 -1.2375
  955MOL0     H28917  11.996  -0.212   1.405 -2.5311 -3.1046 -2.1566
  955MOL0     H28918  11.826  -0.165   1.433 -1.3167  0.8793 -0.7200
  955MOL0     H28919  11.869   0.053   1.458 -0.6156  0.1666 -0.6791
  955MOL0     H28920  11.998  -0.022   1.542 -1.0956  0.8966  0.8741
  955MOL0     H28921  12.179   0.195   1.223  2.7118  0.2014  2.1851
  955MOL0     H28922  11.448  -0.232   1.411  2.7726  0.6642  1.5269
  955MOL0     H28923  11.248  -0.147   1.477 -2.4547 -0.6803 -1.4153
  955MOL0     H28924  11.278   0.014   1.533 -2.0180 -0.4182  0.7212
  955MOL0     H28925  11.174  -0.018   1.389 -1.2543  0.8985  2.3721
  956MOL0     O28926   1.005   9.072   4.492  0.4943 -0.0672  0.0891
  956MOL0     C28927   0.939   9.032   4.583  0.7421 -0.3457 -0.7739
  956MOL0     O28928   0.807   8.975   4.572 -0.3603  0.4436 -0.3959
  956MOL0     C28929   0.777   8.897   4.461 -0.2770 -0.6473  0.1420
  956MOL0     C28930   0.868   8.827   4.375 -0.0476 -0.1679 -0.6482
  956MOL0     C28931   0.816   8.728   4.292  0.2474 -0.3137  0.4395
  956MOL0     C28932   0.676   8.691   4.289 -0.5094  0.4853 -0.5251
  956MOL0     O28933   0.643   8.592   4.210 -0.2714  0.2209  1.0655
  956MOL0     C28934   0.531   8.526   4.247  0.5799 -0.1049 -0.1296
  956MOL0     C28935   0.501   8.391   4.167 -1.0649 -0.3613  0.0508
  956MOL0     C28936   0.534   8.400   4.011  1.1267  0.2398  0.1236
  956MOL0     C28937   0.560   8.263   3.945 -1.3021  0.0860 -0.1639
  956MOL0     C28938   0.616   8.288   3.813  0.3301  0.7399 -0.1055
  956MOL0     C28939   0.638   8.148   3.750 -0.1595  0.1180 -0.1799
  956MOL0     C28940   0.686   8.168   3.611  0.0461 -0.2742 -0.0059
  956MOL0     C28941   0.718   8.044   3.538 -0.1096  0.0344 -0.2644
  956MOL0     N28942   0.765   8.087   3.399 -0.4689  0.1834 -0.6894
  956MOL0     C28943   0.697   8.104   3.277  0.8063 -0.5698  0.6971
  956MOL0     C28944   0.794   8.147   3.193 -0.4114  0.6742  0.3691
  956MOL0     C28945   0.766   8.183   3.051  0.2226 -0.4562 -0.3997
  956MOL0     C28946   0.790   8.075   2.947 -0.2820 -0.2156  0.0154
  956MOL0     C28947   0.801   8.126   2.808 -0.1378 -0.3326  0.0350
  956MOL0     C28948   0.693   8.219   2.751 -0.4282  0.3153 -0.2431
  956MOL0     O28949   0.684   8.337   2.827  0.8455  0.1474  0.5643
  956MOL0     C28950   0.788   8.425   2.819 -0.1963 -0.0455 -0.5509
  956MOL0     C28951   0.894   8.432   2.729  0.0448  0.3219  0.2312
  956MOL0     C28952   0.990   8.542   2.734  0.8711  0.6618  0.0970
  956MOL0     C28953   0.971   8.653   2.815 -0.4073  0.2862 -0.4948
  956MOL0     C28954   1.076   8.761   2.838  0.8469  0.7259 -0.2218
  956MOL0     O28955   1.197   8.754   2.780 -0.1749  0.1889  0.2175
  956MOL0     C28956   1.284   8.857   2.785 -0.1100  0.1715 -0.2615
  956MOL0     C28957   1.251   8.995   2.797 -0.5436 -0.1295 -0.1423
  956MOL0     C28958   1.352   9.095   2.804  1.1141  0.2376  0.1175
  956MOL0     C28959   1.485   9.063   2.805 -0.0055 -1.0134  1.1944
  956MOL0     O28960   1.586   9.152   2.818 -0.3726 -0.3658 -0.1712
  956MOL0     C28961   1.554   9.290   2.789  0.3787 -0.2080  0.0041
  956MOL0     C28962   1.673   9.384   2.779  0.2427  0.3110 -0.7149
  956MOL0     C28963   1.735   9.381   2.918 -0.2025  0.7557 -0.2781
  956MOL0     C28964   1.812   9.514   2.949 -0.8389 -0.9686 -0.1260
  956MOL0     C28965   1.879   9.514   3.089  0.1303 -0.3615  0.1825
  956MOL0     C28966   1.782   9.551   3.196 -0.4445  0.5352 -0.1163
  956MOL0     C28967   1.869   9.556   3.325 -0.4516  0.9633 -0.1975
  956MOL0     C28968   1.805   9.641   3.440 -0.0569  0.9153  0.3678
  956MOL0    Cl28969   1.649   9.555   3.465 -0.1017 -0.0432 -0.3666
  956MOL0     C28970   1.520   8.928   2.787 -0.7540  0.7979 -0.4170
  956MOL0     C28971   1.421   8.827   2.766  1.1818 -0.4467  0.2177
  956MOL0     O28972   1.027   8.849   2.906 -0.4588 -0.8949  0.1315
  956MOL0     C28973   0.848   8.647   2.889  0.0950  0.1644  0.2611
  956MOL0     C28974   0.763   8.545   2.877  0.0543  0.5824  0.4059
  956MOL0     N28975   0.913   8.171   3.265  0.0065  0.9336 -0.3795
  956MOL0     N28976   0.893   8.138   3.387 -0.3090 -0.1154 -0.1574
  956MOL0     C28977   0.602   8.757   4.388  0.5531 -0.7306  0.1989
  956MOL0     C28978   0.650   8.854   4.468 -0.0386 -0.5929 -0.0405
  956MOL0     C28979   0.976   9.080   4.717  0.5563  0.1375  0.0997
  956MOL0     C28980   0.864   9.130   4.792 -0.0233 -0.7998 -0.2595
  956MOL0     C28981   0.886   9.192   4.914  0.9693 -0.5566  0.9431
  956MOL0     C28982   1.008   9.177   4.978  0.5530 -0.3148  0.7400
  956MOL0     O28983   1.037   9.221   5.106  0.3291 -1.1397 -0.3443
  956MOL0     C28984   0.925   9.233   5.195  0.3697 -0.3839 -0.1948
  956MOL0     C28985   0.958   9.244   5.344 -0.8373  0.1030 -0.2774
  956MOL0     C28986   0.834   9.228   5.433  0.0675  0.3212 -0.5363
  956MOL0     C28987   0.869   9.236   5.586  0.3409 -0.1686  0.1675
  956MOL0     C28988   0.853   9.373   5.631  0.5997 -0.5540  1.2543
  956MOL0     C28989   0.836   9.488   5.666 -0.2602 -0.2776  0.3090
  956MOL0     C28990   1.113   9.129   4.909 -0.1877 -0.2662  0.1590
  956MOL0     C28991   1.101   9.095   4.777  0.5990 -0.4078 -0.5185
  956MOL0     C28992   1.222   9.059   4.701 -0.1503  0.4475 -0.5298
  956MOL0     H28993   0.974   8.849   4.372  0.3620 -1.4263  1.8544
  956MOL0     H28994   0.885   8.681   4.223  1.8048 -1.1902  2.5008
  956MOL0     H28995   0.552   8.494   4.350 -1.8452 -2.5907 -0.3006
  956MOL0     H28996   0.448   8.596   4.236  0.5249 -0.5147 -2.9040
  956MOL0     H28997   0.395   8.370   4.187 -1.1359 -0.3560 -0.3056
  956MOL0     H28998   0.542   8.300   4.212 -1.9913 -1.5988 -1.4407
  956MOL0     H28999   0.623   8.462   3.995  0.2637  1.3779 -0.3620
  956MOL0     H29000   0.444   8.438   3.962 -0.7453 -2.1425  1.5175
  956MOL0     H29001   0.628   8.208   4.011  1.0462  1.6995 -1.1358
  956MOL0     H29002   0.469   8.203   3.929 -1.5658  0.6104 -0.6405
  956MOL0     H29003   0.544   8.352   3.760 -1.8445 -1.6319 -0.1881
  956MOL0     H29004   0.715   8.332   3.826 -0.0339  1.1174  1.6561
  956MOL0     H29005   0.726   8.101   3.795 -0.6635  0.7580  1.5452
  956MOL0     H29006   0.551   8.083   3.762 -0.5030  0.7141  0.5866
  956MOL0     H29007   0.780   8.225   3.609 -0.2805  0.2520 -1.3724
  956MOL0     H29008   0.614   8.229   3.558 -0.0764  2.1718  2.7119
  956MOL0     H29009   0.789   7.976   3.586  0.6784  0.3323 -0.9784
  956MOL0     H29010   0.626   7.987   3.521  1.1149 -1.5064 -2.3025
  956MOL0     H29011   0.592   8.086   3.258  0.9210  0.6635 -1.3677
  956MOL0     H29012   0.660   8.207   3.044  0.0417 -1.1895 -0.2756
  956MOL0     H29013   0.830   8.267   3.021  1.7548 -1.2449  0.5214
  956MOL0     H29014   0.878   8.012   2.962 -0.2338 -0.7206 -2.0775
  956MOL0     H29015   0.699   8.015   2.944  0.5997 -1.6703  1.0417
  956MOL0     H29016   0.772   8.044   2.741 -0.5783  0.9698 -1.4556
  956MOL0     H29017   0.900   8.162   2.780  0.0857  1.5199  2.8549
  956MOL0     H29018   0.600   8.161   2.746 -0.1620 -0.0574 -3.6679
  956MOL0     H29019   0.714   8.256   2.650 -0.3914  1.7518  0.2698
  956MOL0     H29020   0.915   8.352   2.659 -0.9414  2.9292 -3.3275
  956MOL0     H29021   1.081   8.538   2.675 -0.8084 -1.5529 -2.5840
  956MOL0     H29022   1.145   9.018   2.806 -1.8521 -4.2034 -2.2156
  956MOL0     H29023   1.318   9.194   2.832 -2.3812 -0.8353  0.1206
  956MOL0     H29024   1.508   9.282   2.690 -2.5966 -1.3445  1.3562
  956MOL0     H29025   1.471   9.330   2.847  0.4343  0.3244 -0.2747
  956MOL0     H29026   1.732   9.349   2.694 -0.8869 -2.5464 -0.4410
  956MOL0     H29027   1.634   9.482   2.750 -2.3302  0.0241  1.3671
  956MOL0     H29028   1.659   9.354   2.992 -0.2159 -2.2457 -1.2552
  956MOL0     H29029   1.790   9.287   2.921 -2.0569 -0.3587  1.4730
  956MOL0     H29030   1.743   9.596   2.930 -0.1017 -0.0938  0.8922
  956MOL0     H29031   1.885   9.523   2.867 -0.9414 -1.7870 -0.3243
  956MOL0     H29032   1.960   9.588   3.087  0.0304 -0.2172 -2.7437
  956MOL0     H29033   1.932   9.419   3.100  1.2272  0.1263 -0.6151
  956MOL0     H29034   1.740   9.648   3.169 -0.2527  0.8409  0.6489
  956MOL0     H29035   1.694   9.488   3.207 -2.0666  3.1405  4.2773
  956MOL0     H29036   1.961   9.606   3.294  0.1705 -0.6294 -0.9846
  956MOL0     H29037   1.897   9.455   3.357 -3.3132  0.3720  0.7123
  956MOL0     H29038   1.860   9.643   3.534 -0.1822  1.8047  0.4357
  956MOL0     H29039   1.779   9.738   3.395 -0.1924  0.6217 -0.2030
  956MOL0     H29040   1.626   8.906   2.777 -1.4205 -3.7220  0.3597
  956MOL0     H29041   1.448   8.725   2.742 -1.6009 -1.0245 -0.7821
  956MOL0     H29042   0.815   8.719   2.962  0.6301  1.5841 -0.8533
  956MOL0     H29043   0.677   8.551   2.942 -0.6084  1.2355 -0.4995
  956MOL0     H29044   0.500   8.735   4.415  0.4168  0.8211  1.0270
  956MOL0     H29045   0.585   8.898   4.543  0.1121 -0.4374 -0.0002
  956MOL0     H29046   0.766   9.130   4.746  0.1854  1.0798 -0.7811
  956MOL0     H29047   0.804   9.241   4.967  0.8364  0.1206  0.1201
  956MOL0     H29048   0.869   9.139   5.186  0.5468 -0.7067  1.6857
  956MOL0     H29049   0.855   9.315   5.179 -1.2766 -1.9749 -1.6139
  956MOL0     H29050   1.000   9.343   5.362  0.8751 -0.7866  0.9186
  956MOL0     H29051   1.027   9.162   5.366 -2.0985 -0.7070  0.8359
  956MOL0     H29052   0.783   9.135   5.407  0.9479 -0.5636  0.7358
  956MOL0     H29053   0.756   9.304   5.418 -1.8726 -0.8936  2.3187
  956MOL0     H29054   0.803   9.176   5.650  2.6116 -0.9766  1.8716
  956MOL0     H29055   0.971   9.204   5.606  0.3512 -0.6534 -0.6116
  956MOL0     H29056   0.815   9.589   5.692  2.9995  1.1373 -1.9694
  956MOL0     H29057   1.212   9.125   4.953  0.5501 -0.4112 -1.4259
  956MOL0     H29058   1.310   9.072   4.765  0.1028  0.6434 -0.9104
  956MOL0     H29059   1.214   8.954   4.674  0.2369  0.2176  0.2252
  956MOL0     H29060   1.220   9.117   4.608 -1.7406  0.5387 -0.4688
  957MOL0     O29061   6.505   9.597   9.447 -0.9287  0.5018 -0.2143
  957MOL0     C29062   6.596   9.614   9.533  0.0935 -0.4095 -0.4774
  957MOL0     O29063   6.600   9.722   9.615 -0.3428  0.5838  0.2632
  957MOL0     C29064   6.481   9.793   9.635 -0.4260  0.5640  0.0140
  957MOL0     C29065   6.470   9.908   9.567 -0.0211 -0.2837  0.7905
  957MOL0     C29066   6.349   9.973   9.557  0.7103  0.3170  0.0949
  957MOL0     C29067   6.237   9.920   9.618  1.1189 -0.7333 -0.3342
  957MOL0     O29068   6.119   9.987   9.601 -0.1031  0.1084 -0.5598
  957MOL0     C29069   6.015   9.947   9.690  0.2205  0.1046  0.2208
  957MOL0     C29070   5.896  10.040   9.687 -0.1128  0.4303 -0.3666
  957MOL0     C29071   5.940  10.183   9.736  1.1006  0.0266  0.3084
  957MOL0     C29072   6.009  10.194   9.877  1.0121 -0.5782 -0.2204
  957MOL0     C29073   6.023  10.341   9.916 -0.5626  0.4167  0.3416
  957MOL0     C29074   5.990  10.370  10.060 -0.9696  0.0408 -0.1029
  957MOL0     C29075   6.104  10.337  10.160  1.4100  0.1866 -0.6049
  957MOL0     C29076   6.039  10.319  10.300  0.8090 -0.3648 -0.5164
  957MOL0     N29077   5.972  10.449  10.334  0.7461  0.4740  0.2278
  957MOL0     C29078   5.839  10.480  10.318 -0.6245 -0.2848  0.1857
  957MOL0     C29079   5.833  10.604  10.379 -0.0061  0.1272  0.8805
  957MOL0     C29080   5.711  10.683  10.416  0.2972  0.0911  0.3211
  957MOL0     C29081   5.590  10.667  10.322 -0.2586  0.4924 -0.0468
  957MOL0     C29082   5.472  10.748  10.374 -0.3818 -0.1630 -0.7091
  957MOL0     C29083   5.343  10.733  10.288  1.0808 -0.2736 -0.2309
  957MOL0     O29084   5.239  10.669  10.365 -0.0246 -0.1233  1.2400
  957MOL0     C29085   5.119  10.648  10.307 -0.0916  0.3455 -0.6071
  957MOL0     C29086   5.079  10.702  10.185  0.9299  0.0102  1.2758
  957MOL0     C29087   4.943  10.706  10.146 -0.0394 -0.3461 -0.1878
  957MOL0     C29088   4.851  10.617  10.201  0.6816 -0.0154 -0.5549
  957MOL0     C29089   4.717  10.597  10.150  0.5133 -0.0678  0.8228
  957MOL0     O29090   4.619  10.554  10.237  0.2224 -0.3668  0.6020
  957MOL0     C29091   4.496  10.517  10.199  0.7054  0.2591 -0.0884
  957MOL0     C29092   4.443  10.491  10.071  0.2915  0.5417 -0.2889
  957MOL0     C29093   4.317  10.436  10.063 -0.4105  0.8605  0.2554
  957MOL0     C29094   4.244  10.390  10.165  0.4185  0.3907 -0.1039
  957MOL0     O29095   4.136  10.322  10.136 -0.1667  0.5336  0.0498
  957MOL0     C29096   4.041  10.302  10.239  0.2272  0.7393  0.3478
  957MOL0     C29097   3.901  10.261  10.193  0.9688 -1.0205  0.1636
  957MOL0     C29098   3.812  10.272  10.315 -0.6624  0.2031  0.4339
  957MOL0     C29099   3.668  10.256  10.268 -0.3172 -0.7604 -0.8476
  957MOL0     C29100   3.574  10.301  10.385 -0.9629 -0.5649 -0.7616
  957MOL0     C29101   3.430  10.267  10.363 -0.0871 -0.1831  0.0305
  957MOL0     C29102   3.326  10.336  10.465  0.8537  0.8557  1.0226
  957MOL0     C29103   3.185  10.346  10.397 -0.3473 -0.0451 -0.3379
  957MOL0    Cl29104   3.097  10.194  10.406  0.0841 -0.0765 -0.1308
  957MOL0     C29105   4.301  10.402  10.288  0.0136 -0.3201  0.3576
  957MOL0     C29106   4.412  10.470  10.305 -0.4803 -0.0678  0.9868
  957MOL0     O29107   4.700  10.619  10.032  0.4436  0.5293  0.4671
  957MOL0     C29108   4.893  10.554  10.324  0.2190  0.9914 -0.3290
  957MOL0     C29109   5.026  10.570  10.376  1.1140  0.8166  0.2088
  957MOL0     N29110   5.964  10.655  10.400  0.0411 -0.1252 -0.4503
  957MOL0     N29111   6.040  10.561  10.368  0.6914  0.1336  0.0723
  957MOL0     C29112   6.248   9.798   9.686  0.9933 -0.2175  0.5666
  957MOL0     C29113   6.372   9.736   9.701 -0.1439  0.0493  0.2732
  957MOL0     C29114   6.714   9.512   9.530  0.0094 -0.4250 -0.6403
  957MOL0     C29115   6.686   9.386   9.466 -0.3887  0.1499 -0.4285
  957MOL0     C29116   6.763   9.273   9.475  0.3540  1.7700 -0.6801
  957MOL0     C29117   6.885   9.292   9.539  0.5979 -0.3513  0.2251
  957MOL0     O29118   6.963   9.174   9.543  0.1415  0.4821 -0.1578
  957MOL0     C29119   7.095   9.157   9.603  0.2580 -0.2616  0.4128
  957MOL0     C29120   7.117   9.010   9.655  0.4350 -1.6330 -0.4217
  957MOL0     C29121   7.245   8.986   9.730 -0.3766  0.3314  0.6722
  957MOL0     C29122   7.371   9.005   9.647  0.2210 -0.4655  0.0216
  957MOL0     C29123   7.406   9.150   9.638  0.1613  1.8220  0.1986
  957MOL0     C29124   7.440   9.265   9.642  0.2226 -0.1333 -0.2346
  957MOL0     C29125   6.922   9.420   9.594 -0.2661  0.3693  0.3938
  957MOL0     C29126   6.837   9.523   9.604  0.4743 -0.9556 -0.6179
  957MOL0     C29127   6.882   9.655   9.669  0.2866 -0.5976  0.2608
  957MOL0     H29128   6.554   9.942   9.506 -0.3038 -1.2987 -0.1844
  957MOL0     H29129   6.347  10.069   9.506  3.1088  0.5777  0.3908
  957MOL0     H29130   5.985   9.844   9.672 -0.7498  0.3722  0.2804
  957MOL0     H29131   6.054   9.943   9.792  1.1175  0.0058 -0.1144
  957MOL0     H29132   5.833   9.989   9.760  3.3782  0.1984  2.8179
  957MOL0     H29133   5.853  10.062   9.589 -0.5575  3.6118  0.4411
  957MOL0     H29134   5.856  10.251   9.724  0.6109 -0.9372 -2.6977
  957MOL0     H29135   6.009  10.224   9.661  0.1328 -1.1080 -1.2457
  957MOL0     H29136   5.943  10.143   9.948  1.8023 -1.7185 -0.2802
  957MOL0     H29137   6.107  10.147   9.888  1.7301  0.9893  0.4382
  957MOL0     H29138   6.123  10.378   9.895 -1.4378  3.9912  1.8091
  957MOL0     H29139   5.949  10.395   9.856  1.9457  1.1646 -2.2794
  957MOL0     H29140   5.975  10.478  10.069  1.4142  0.4674 -0.5842
  957MOL0     H29141   5.905  10.312  10.097 -2.3100  1.5802 -0.6592
  957MOL0     H29142   6.195  10.398  10.156  2.9203 -1.7898  1.0162
  957MOL0     H29143   6.135  10.235  10.133  1.1961  0.2710 -1.1875
  957MOL0     H29144   5.958  10.246  10.308  0.7924 -0.2453  0.7438
  957MOL0     H29145   6.112  10.292  10.377  1.5208 -0.5361 -1.2357
  957MOL0     H29146   5.758  10.418  10.283  1.2772 -3.3574  0.8567
  957MOL0     H29147   5.674  10.649  10.513  0.0204  0.3810  0.3200
  957MOL0     H29148   5.737  10.788  10.435  2.4383 -0.4126  0.4791
  957MOL0     H29149   5.613  10.696  10.219  1.4302 -1.7538 -0.3779
  957MOL0     H29150   5.565  10.562  10.308 -2.3476  0.8999  0.3086
  957MOL0     H29151   5.508  10.850  10.381  0.6073 -0.6127  1.3723
  957MOL0     H29152   5.449  10.716  10.476  2.1797 -2.6746 -0.7869
  957MOL0     H29153   5.352  10.691  10.188 -1.1259  1.7622 -1.3769
  957MOL0     H29154   5.302  10.832  10.265 -0.2075 -0.3720  1.4066
  957MOL0     H29155   5.152  10.761  10.130  0.1299  1.3840  1.6474
  957MOL0     H29156   4.905  10.764  10.063  0.8310  2.4857  1.2605
  957MOL0     H29157   4.493  10.498   9.974 -0.9743 -3.4803 -1.4214
  957MOL0     H29158   4.280  10.430   9.961 -1.1975  0.3547  0.5584
  957MOL0     H29159   4.086  10.225  10.303 -0.8781  0.0932  0.3698
  957MOL0     H29160   4.039  10.395  10.295  0.8366  1.6059 -1.0223
  957MOL0     H29161   3.872  10.333  10.117 -0.3719 -1.0027  0.6730
  957MOL0     H29162   3.898  10.161  10.148  0.7843 -1.7788  1.7795
  957MOL0     H29163   3.843  10.195  10.387 -0.7244 -2.0153 -1.7942
  957MOL0     H29164   3.815  10.370  10.365 -0.8843 -0.5350  1.9480
  957MOL0     H29165   3.658  10.150  10.245  0.7004 -0.8436 -0.9460
  957MOL0     H29166   3.652  10.311  10.174 -0.9824 -1.9839 -1.4657
  957MOL0     H29167   3.584  10.409  10.400 -0.5631 -1.0051  3.1969
  957MOL0     H29168   3.605  10.256  10.480 -2.1493 -1.4830 -0.7795
  957MOL0     H29169   3.415  10.313  10.265  2.3238 -1.8395 -1.2338
  957MOL0     H29170   3.412  10.160  10.373  0.7756 -0.2558  1.0181
  957MOL0     H29171   3.364  10.437  10.484  2.6482 -0.4042  5.4861
  957MOL0     H29172   3.324  10.289  10.563 -2.3924  0.5682  0.9465
  957MOL0     H29173   3.128  10.409  10.466  0.5190 -0.4880  0.8332
  957MOL0     H29174   3.184  10.389  10.297  1.5044 -2.1870 -1.3685
  957MOL0     H29175   4.249  10.366  10.377  0.3387  0.9566  1.0860
  957MOL0     H29176   4.440  10.496  10.407  1.6196  2.3284 -0.0659
  957MOL0     H29177   4.824  10.489  10.377  1.3821 -0.6608 -0.7656
  957MOL0     H29178   5.061  10.541  10.475 -0.0042 -0.6581  0.2120
  957MOL0     H29179   6.159   9.739   9.709  0.0461 -0.7530 -3.6615
  957MOL0     H29180   6.380   9.635   9.740  0.6380 -0.0126 -0.0260
  957MOL0     H29181   6.588   9.378   9.421 -0.8865  1.8889  0.2848
  957MOL0     H29182   6.730   9.181   9.426  0.8403  1.2949 -0.1313
  957MOL0     H29183   7.102   9.227   9.686 -0.7357  1.9587 -1.2758
  957MOL0     H29184   7.171   9.184   9.530 -2.1342  2.6917 -1.1731
  957MOL0     H29185   7.104   8.944   9.569  1.5044 -0.3431 -1.6166
  957MOL0     H29186   7.035   8.998   9.727 -0.1980  1.4080 -0.4868
  957MOL0     H29187   7.228   8.886   9.771  2.1639 -0.7611 -0.6681
  957MOL0     H29188   7.252   9.057   9.812  0.1000  1.2583 -0.1506
  957MOL0     H29189   7.464   8.981   9.699 -0.1910  0.2215  1.1055
  957MOL0     H29190   7.358   8.940   9.560 -0.3945 -0.0410 -0.2071
  957MOL0     H29191   7.447   9.372   9.653 -2.0931 -0.1475  2.9109
  957MOL0     H29192   7.023   9.431   9.631  0.8091  0.6494 -2.3915
  957MOL0     H29193   6.899   9.724   9.586 -0.4988  0.3628  0.8831
  957MOL0     H29194   6.801   9.694   9.731 -2.5453 -4.6127 -0.5371
  957MOL0     H29195   6.970   9.642   9.732  0.2538  2.4937  1.1068
  958MOL0     O29196   7.031   7.797   8.750 -0.4211  0.2902  0.3932
  958MOL0     C29197   7.084   7.716   8.817 -0.4091  0.9216  0.8286
  958MOL0     O29198   7.020   7.603   8.869 -0.4028  0.3595  0.2707
  958MOL0     C29199   6.895   7.573   8.820 -0.2169 -0.6765 -0.8753
  958MOL0     C29200   6.844   7.578   8.693  0.2512  0.6846  0.2917
  958MOL0     C29201   6.717   7.515   8.661 -0.0640 -0.4831 -0.0242
  958MOL0     C29202   6.635   7.466   8.770 -1.4049 -0.1973  0.4212
  958MOL0     O29203   6.519   7.400   8.749  0.5226  0.0850 -0.2926
  958MOL0     C29204   6.503   7.324   8.630 -0.7803  0.3612 -0.0408
  958MOL0     C29205   6.360   7.270   8.615  1.2433 -1.2464 -0.5850
  958MOL0     C29206   6.242   7.362   8.610  0.1246 -0.0887  0.5686
  958MOL0     C29207   6.105   7.282   8.625 -1.4425  0.5161  0.2577
  958MOL0     C29208   5.979   7.361   8.588  0.0239 -0.6818 -1.5346
  958MOL0     C29209   5.848   7.285   8.568  1.0622  0.0291 -0.9011
  958MOL0     C29210   5.847   7.218   8.429 -0.4390 -0.5333 -0.2765
  958MOL0     C29211   5.718   7.241   8.351  0.0343  0.1148 -0.3469
  958MOL0     N29212   5.732   7.349   8.254 -0.5919  0.2175  0.6440
  958MOL0     C29213   5.715   7.480   8.298  0.5459  0.3349 -0.1499
  958MOL0     C29214   5.733   7.560   8.184  0.1154 -0.0638 -0.2403
  958MOL0     C29215   5.723   7.705   8.169 -0.1684  0.9091  0.0082
  958MOL0     C29216   5.599   7.738   8.078  0.2265  0.2809 -0.1104
  958MOL0     C29217   5.571   7.887   8.054  0.3436  0.6910 -0.9998
  958MOL0     C29218   5.694   7.972   8.007  0.4078 -0.3855 -0.1935
  958MOL0     O29219   5.737   7.916   7.884 -0.7471 -0.6157 -0.3313
  958MOL0     C29220   5.837   7.979   7.823 -0.3427  0.5874  0.2791
  958MOL0     C29221   5.854   7.949   7.681 -0.0682  0.7088 -0.8242
  958MOL0     C29222   5.962   8.004   7.609 -0.2646 -0.4911 -0.5301
  958MOL0     C29223   6.042   8.103   7.676 -0.2583  0.9872 -0.3674
  958MOL0     C29224   6.153   8.170   7.600  0.6568  0.8953  0.4051
  958MOL0     O29225   6.132   8.208   7.470  0.1393  0.4631 -0.0048
  958MOL0     C29226   6.245   8.234   7.388 -0.6517  0.1205  1.1762
  958MOL0     C29227   6.215   8.308   7.270 -0.1439 -0.0028 -0.2392
  958MOL0     C29228   6.316   8.345   7.178  0.2426 -0.5201 -0.3364
  958MOL0     C29229   6.454   8.293   7.192 -0.8723  0.3091 -0.5574
  958MOL0     O29230   6.559   8.327   7.110  0.4772 -0.5708  0.4831
  958MOL0     C29231   6.529   8.364   6.982  0.4049  0.5282  0.6510
  958MOL0     C29232   6.625   8.324   6.878  0.2369 -1.3829  0.7031
  958MOL0     C29233   6.761   8.389   6.918  0.6646 -0.6032 -0.6878
  958MOL0     C29234   6.856   8.380   6.805  0.0949  0.2700 -0.0356
  958MOL0     C29235   6.947   8.252   6.793 -0.3942 -1.2851 -0.3622
  958MOL0     C29236   7.025   8.250   6.656  0.3624 -0.0457 -0.6726
  958MOL0     C29237   7.122   8.141   6.608 -1.0271  0.0398  0.0942
  958MOL0     C29238   7.216   8.201   6.502 -0.0007 -0.4990  0.3818
  958MOL0    Cl29239   7.300   8.055   6.419 -0.2182  0.2643  0.4725
  958MOL0     C29240   6.480   8.206   7.291  0.0985  0.0805 -0.2002
  958MOL0     C29241   6.378   8.180   7.391  0.3514 -0.1394  0.6531
  958MOL0     O29242   6.261   8.171   7.653 -0.1141 -0.0591  0.1748
  958MOL0     C29243   6.015   8.129   7.805 -0.4214 -0.3003 -0.3049
  958MOL0     C29244   5.915   8.065   7.878 -0.5825  0.1267  0.1351
  958MOL0     N29245   5.734   7.464   8.078  0.2235 -0.1218 -0.4805
  958MOL0     N29246   5.741   7.341   8.116  0.3138 -1.0839 -0.1627
  958MOL0     C29247   6.688   7.467   8.896 -0.5779  0.9268 -0.5046
  958MOL0     C29248   6.814   7.530   8.921 -0.3366 -0.3927 -0.2980
  958MOL0     C29249   7.225   7.741   8.847 -0.2009  0.6032  0.4767
  958MOL0     C29250   7.262   7.718   8.975 -0.5667  0.0370 -1.7367
  958MOL0     C29251   7.391   7.732   9.033  0.4925 -0.4724  0.6299
  958MOL0     C29252   7.496   7.780   8.948 -0.2397 -0.2546  0.4907
  958MOL0     O29253   7.632   7.797   8.984 -0.4270  0.1172 -0.3240
  958MOL0     C29254   7.680   7.765   9.121  0.0650  0.0991  0.2953
  958MOL0     C29255   7.666   7.893   9.204 -0.1108  0.1894 -0.1499
  958MOL0     C29256   7.699   7.856   9.354 -0.0722 -0.0267 -0.4648
  958MOL0     C29257   7.666   7.976   9.453  0.2244 -0.2877 -0.4948
  958MOL0     C29258   7.762   8.090   9.442  0.6826 -0.0949  0.9731
  958MOL0     C29259   7.843   8.186   9.429 -0.6184 -0.3493 -0.0227
  958MOL0     C29260   7.463   7.801   8.809  0.7093 -0.5311 -0.4343
  958MOL0     C29261   7.329   7.778   8.760  0.3486 -0.0620  0.1067
  958MOL0     C29262   7.304   7.818   8.616  0.2489 -0.1679 -0.1760
  958MOL0     H29263   6.899   7.624   8.611  2.4364 -1.4415  0.4732
  958MOL0     H29264   6.676   7.504   8.561 -0.4273  0.2340  0.0388
  958MOL0     H29265   6.517   7.378   8.536 -0.7831 -2.1110 -1.5534
  958MOL0     H29266   6.579   7.244   8.634  0.3189  1.2953 -1.1350
  958MOL0     H29267   6.332   7.210   8.702 -1.2061 -1.9886 -1.7931
  958MOL0     H29268   6.337   7.202   8.532 -1.2474 -1.8958  0.5463
  958MOL0     H29269   6.251   7.409   8.512  2.3198 -1.9346 -0.2288
  958MOL0     H29270   6.249   7.431   8.694  1.9134  0.0721  0.3260
  958MOL0     H29271   6.111   7.203   8.550 -1.3825  0.0814  0.7173
  958MOL0     H29272   6.100   7.238   8.725 -4.4324  1.0209  0.4124
  958MOL0     H29273   5.958   7.428   8.672 -0.5463  1.2904 -3.1503
  958MOL0     H29274   6.000   7.430   8.506  2.9959  2.5766  1.6125
  958MOL0     H29275   5.833   7.205   8.642  1.6875  0.5556 -0.1984
  958MOL0     H29276   5.762   7.349   8.588 -0.1884 -2.3354  2.2105
  958MOL0     H29277   5.859   7.109   8.426  2.1590 -0.2828 -2.4948
  958MOL0     H29278   5.935   7.258   8.378  0.3762 -1.1945  0.5754
  958MOL0     H29279   5.715   7.148   8.293 -0.8966  0.0551 -0.2305
  958MOL0     H29280   5.630   7.246   8.416  0.3624  0.9456  0.0340
  958MOL0     H29281   5.680   7.492   8.400 -1.1113  0.2005 -0.6627
  958MOL0     H29282   5.702   7.759   8.262  2.5222  2.7911 -0.3549
  958MOL0     H29283   5.819   7.746   8.137  0.5464 -0.5458  0.1831
  958MOL0     H29284   5.626   7.701   7.979  2.1465  1.7046 -0.1682
  958MOL0     H29285   5.511   7.683   8.114  0.7371  0.9684  2.3815
  958MOL0     H29286   5.543   7.926   8.152  0.5011 -1.4951 -0.0308
  958MOL0     H29287   5.490   7.906   7.983 -0.5574  3.1268  0.5395
  958MOL0     H29288   5.771   7.956   8.082  0.3776  3.6932  0.9345
  958MOL0     H29289   5.667   8.078   8.001  1.0098 -0.1718  0.7229
  958MOL0     H29290   5.798   7.865   7.642  3.2372 -2.3773  0.4612
  958MOL0     H29291   5.987   7.979   7.506 -1.3023 -0.9788 -0.6648
  958MOL0     H29292   6.124   8.355   7.234 -0.5419 -0.5526  0.0378
  958MOL0     H29293   6.301   8.424   7.105  0.3260 -0.3264 -0.1459
  958MOL0     H29294   6.448   8.297   6.954  0.2436  1.7692 -2.1256
  958MOL0     H29295   6.486   8.464   6.979  0.7783  0.6798  0.3074
  958MOL0     H29296   6.637   8.218   6.855  0.8619 -0.8655 -1.6095
  958MOL0     H29297   6.591   8.361   6.782  1.5840 -1.0750  0.3207
  958MOL0     H29298   6.741   8.494   6.941 -0.9997 -1.1982  0.8596
  958MOL0     H29299   6.797   8.336   7.006 -0.1943  0.2381  0.2017
  958MOL0     H29300   6.922   8.467   6.795  1.4179 -0.6935  0.0995
  958MOL0     H29301   6.799   8.380   6.711 -2.0454 -1.6773  1.1666
  958MOL0     H29302   6.885   8.166   6.820 -1.4852 -0.5447 -0.4328
  958MOL0     H29303   7.027   8.261   6.867  0.6972  0.8791 -1.6781
  958MOL0     H29304   6.948   8.274   6.582 -2.3128  2.2558  2.5389
  958MOL0     H29305   7.092   8.337   6.661  1.4114 -0.8843  1.8009
  958MOL0     H29306   7.058   8.072   6.552 -0.8434 -0.3610  0.3743
  958MOL0     H29307   7.170   8.087   6.690  2.4494  1.2281 -0.9828
  958MOL0     H29308   7.162   8.256   6.424  1.7278  2.0454  0.8584
  958MOL0     H29309   7.300   8.257   6.542  1.2029 -1.3657 -0.8237
  958MOL0     H29310   6.566   8.140   7.290 -0.8769 -1.3595 -3.6942
  958MOL0     H29311   6.390   8.114   7.477  0.4391  0.8510  1.4164
  958MOL0     H29312   6.066   8.202   7.867  0.8770 -1.6609  0.3084
  958MOL0     H29313   5.913   8.090   7.984 -2.4951  0.6947  0.0211
  958MOL0     H29314   6.632   7.431   8.982 -0.4240  0.3512 -0.6433
  958MOL0     H29315   6.840   7.522   9.025 -2.2713 -2.0098  0.1220
  958MOL0     H29316   7.191   7.671   9.043  2.4121  0.0718  1.7303
  958MOL0     H29317   7.412   7.722   9.139  0.1287  2.6390  1.1057
  958MOL0     H29318   7.787   7.742   9.127  0.4944  0.4540 -3.4617
  958MOL0     H29319   7.637   7.672   9.160  2.5302 -1.6114 -0.7917
  958MOL0     H29320   7.566   7.934   9.187 -0.6804 -1.7298 -1.7711
  958MOL0     H29321   7.735   7.975   9.178  2.2616 -1.5300  0.3965
  958MOL0     H29322   7.807   7.838   9.355 -0.4572 -2.7916  1.5100
  958MOL0     H29323   7.650   7.771   9.402 -0.8694  0.0558 -1.1119
  958MOL0     H29324   7.565   8.010   9.429  1.0046  1.6700 -1.2187
  958MOL0     H29325   7.674   7.939   9.556 -0.4762 -0.2237 -0.4128
  958MOL0     H29326   7.919   8.260   9.438 -1.7705  0.6070  3.3046
  958MOL0     H29327   7.543   7.833   8.744 -0.1188  1.6711 -0.4454
  958MOL0     H29328   7.280   7.737   8.548  0.4197 -0.9285  0.6501
  958MOL0     H29329   7.223   7.891   8.606  2.0840  2.1779  1.0535
  958MOL0     H29330   7.398   7.866   8.586 -0.8825  2.3578  0.0019
  959MOL0     O29331  10.304   3.960   9.506  0.0035 -0.1670 -0.1926
  959MOL0     C29332  10.396   3.881   9.515  0.3611  0.0398  0.7590
  959MOL0     O29333  10.484   3.840   9.408  0.1995 -0.8763 -0.0921
  959MOL0     C29334  10.459   3.883   9.280  0.1348  0.3004 -0.0037
  959MOL0     C29335  10.340   3.934   9.215 -0.4622  0.6735 -0.7039
  959MOL0     C29336  10.346   3.970   9.083  0.4432  0.0576  0.5897
  959MOL0     C29337  10.465   3.952   9.007 -1.2182  0.2479  0.0601
  959MOL0     O29338  10.492   4.001   8.885  0.0505  0.3095  0.2426
  959MOL0     C29339  10.389   4.042   8.800  1.1556 -0.1248  0.2182
  959MOL0     C29340  10.425   4.082   8.658 -0.2964  0.0775 -0.3678
  959MOL0     C29341  10.312   4.138   8.577  0.1821  0.0825  0.6913
  959MOL0     C29342  10.314   4.110   8.423  0.4050  0.6328 -0.7833
  959MOL0     C29343  10.174   4.150   8.373  0.5808  0.2356 -0.6666
  959MOL0     C29344  10.056   4.055   8.421  0.1763 -0.2550 -0.9853
  959MOL0     C29345   9.932   4.072   8.345 -1.4954  0.1001  0.5181
  959MOL0     C29346   9.880   3.944   8.275  0.2738 -0.1977  1.3141
  959MOL0     N29347   9.836   3.849   8.378  0.5411 -0.5565  0.3658
  959MOL0     C29348   9.849   3.709   8.379  0.9689 -0.1919  0.1891
  959MOL0     C29349   9.743   3.667   8.443  0.3152 -0.2318 -0.2525
  959MOL0     C29350   9.720   3.517   8.484 -0.1926  0.2779 -1.1137
  959MOL0     C29351   9.818   3.472   8.593  0.4152 -0.2446  0.1025
  959MOL0     C29352   9.792   3.329   8.646 -0.0757 -0.1963  0.3106
  959MOL0     C29353   9.867   3.278   8.770  0.0042  0.5236 -0.6163
  959MOL0     O29354   9.806   3.333   8.889  1.0623  0.0645  0.2476
  959MOL0     C29355   9.849   3.282   9.010 -1.7008  0.4372  0.0400
  959MOL0     C29356   9.958   3.197   9.036 -1.4025 -0.5416  0.4957
  959MOL0     C29357   9.990   3.160   9.167 -0.0677  0.5641 -0.8452
  959MOL0     C29358   9.904   3.192   9.274  1.3210 -0.1713 -0.7051
  959MOL0     C29359   9.928   3.130   9.404  0.5832  0.7310 -0.2448
  959MOL0     O29360   9.859   3.194   9.512 -0.2412  0.4146 -0.0850
  959MOL0     C29361   9.863   3.130   9.638  0.8132 -0.1237  0.0909
  959MOL0     C29362   9.924   3.196   9.741 -0.0050 -0.7468 -0.8052
  959MOL0     C29363   9.952   3.135   9.862 -0.0987  0.2820 -0.1393
  959MOL0     C29364   9.902   2.998   9.880  0.2712  0.0766  1.4286
  959MOL0     O29365   9.906   2.937  10.004 -0.4202 -0.5342 -0.5171
  959MOL0     C29366   9.994   2.821  10.026 -1.1894 -0.1879 -1.0336
  959MOL0     C29367   9.907   2.700  10.071  0.1046 -1.0799 -0.4406
  959MOL0     C29368   9.864   2.712  10.215  0.1733 -0.1228 -0.2509
  959MOL0     C29369   9.938   2.625  10.321 -0.1102  0.4510 -0.3328
  959MOL0     C29370   9.902   2.674  10.468  0.0803  0.2637  0.1654
  959MOL0     C29371   9.977   2.583  10.563  1.0522  0.3058  0.3970
  959MOL0     C29372   9.960   2.616  10.711 -0.5748 -0.1061  0.5267
  959MOL0     C29373  10.045   2.528  10.798 -0.5948 -0.4722 -0.5488
  959MOL0    Cl29374  10.040   2.597  10.961 -0.0946 -0.5502 -0.0855
  959MOL0     C29375   9.840   2.934   9.770  0.0118  0.8046 -0.0727
  959MOL0     C29376   9.816   3.001   9.655 -0.7832  0.2934  0.4879
  959MOL0     O29377  10.006   3.027   9.422 -0.0988 -0.2974  0.5725
  959MOL0     C29378   9.787   3.265   9.247 -0.1024 -0.0930  0.2706
  959MOL0     C29379   9.763   3.306   9.116 -0.8559 -1.1175  0.4662
  959MOL0     N29380   9.675   3.768   8.502 -0.0889  0.8509  1.0318
  959MOL0     N29381   9.729   3.880   8.464 -0.6181  1.8570  0.4978
  959MOL0     C29382  10.585   3.908   9.075 -0.0875  0.1147  0.2535
  959MOL0     C29383  10.586   3.878   9.212  1.1597 -0.6570 -0.3667
  959MOL0     C29384  10.440   3.837   9.649  0.7440 -0.3977 -0.6091
  959MOL0     C29385  10.575   3.824   9.678 -0.2384 -0.3181 -0.3020
  959MOL0     C29386  10.616   3.787   9.802 -0.0373 -0.7177  0.3372
  959MOL0     C29387  10.524   3.744   9.900  0.1679  0.2812 -0.0519
  959MOL0     O29388  10.592   3.715  10.018 -0.2940  0.2009  0.0044
  959MOL0     C29389  10.516   3.683  10.137 -0.2148 -0.5139  0.3348
  959MOL0     C29390  10.432   3.807  10.196 -1.1085  0.2111  0.1837
  959MOL0     C29391  10.502   3.944  10.176  0.6255  0.6398 -0.7106
  959MOL0     C29392  10.405   4.062  10.173  0.7503  0.6460 -0.1706
  959MOL0     C29393  10.305   4.055  10.063  0.3119  0.1510 -1.0493
  959MOL0     C29394  10.212   4.049   9.989  0.8527  0.0842 -0.9472
  959MOL0     C29395  10.388   3.749   9.876  0.2715  0.3066 -0.1413
  959MOL0     C29396  10.340   3.810   9.756 -0.2667 -0.0089  0.5910
  959MOL0     C29397  10.192   3.812   9.733 -0.0901 -0.0891 -0.9089
  959MOL0     H29398  10.245   3.938   9.268  0.7705  1.0384  1.5968
  959MOL0     H29399  10.254   4.001   9.035  0.3679 -3.2461 -1.7673
  959MOL0     H29400  10.306   3.973   8.788  1.0691  0.2606 -1.6907
  959MOL0     H29401  10.360   4.139   8.842  0.1591  0.2508 -1.2800
  959MOL0     H29402  10.469   3.993   8.613 -3.5776 -1.9418  0.0931
  959MOL0     H29403  10.497   4.164   8.664 -0.7249  0.5571 -1.4715
  959MOL0     H29404  10.304   4.245   8.599 -1.5819  0.2172 -0.4462
  959MOL0     H29405  10.221   4.090   8.614 -0.9964  1.8888  0.2753
  959MOL0     H29406  10.389   4.181   8.388 -0.8023  3.3018  1.5822
  959MOL0     H29407  10.345   4.008   8.400 -1.6649 -0.2366 -0.0280
  959MOL0     H29408  10.146   4.251   8.403 -0.4124 -0.4401  0.8757
  959MOL0     H29409  10.177   4.172   8.266  1.9139  1.1852 -0.4529
  959MOL0     H29410  10.095   3.953   8.420  0.5648 -0.1256 -2.4181
  959MOL0     H29411  10.041   4.078   8.527  0.4082 -1.8804 -0.5797
  959MOL0     H29412   9.934   4.158   8.277 -1.3883 -0.1646  0.1823
  959MOL0     H29413   9.850   4.088   8.415 -0.9175 -0.1829  1.2709
  959MOL0     H29414   9.792   3.968   8.214 -0.7739 -1.3371  2.3268
  959MOL0     H29415   9.943   3.891   8.202  0.6778  0.1891  1.3748
  959MOL0     H29416   9.917   3.639   8.332  3.0850  1.9661 -0.1930
  959MOL0     H29417   9.617   3.496   8.513  0.0379  2.0438  1.3337
  959MOL0     H29418   9.742   3.459   8.394  0.4746 -3.3741  1.2129
  959MOL0     H29419   9.914   3.482   8.542 -0.7661  0.7842 -2.0937
  959MOL0     H29420   9.819   3.524   8.689 -0.4524 -2.3802  1.3373
  959MOL0     H29421   9.818   3.261   8.564 -1.7657 -1.4395  0.7748
  959MOL0     H29422   9.683   3.320   8.650 -0.2154  0.8608 -0.4997
  959MOL0     H29423   9.973   3.306   8.763  0.2744 -0.1581  0.6123
  959MOL0     H29424   9.860   3.169   8.771  0.3227  0.4498  2.2930
  959MOL0     H29425  10.024   3.154   8.962  0.7928 -1.8567  3.0287
  959MOL0     H29426  10.077   3.100   9.194  3.3373  5.5562  0.6459
  959MOL0     H29427   9.948   3.301   9.733 -0.6309 -0.5451 -0.1774
  959MOL0     H29428  10.009   3.187   9.939 -0.1453  0.4571 -0.2220
  959MOL0     H29429  10.051   2.791   9.937  1.2333 -1.8779  0.9725
  959MOL0     H29430  10.066   2.846  10.103  0.4758  5.4003 -3.8303
  959MOL0     H29431   9.818   2.693  10.008  0.0837 -3.0118 -0.2594
  959MOL0     H29432   9.958   2.605  10.050  1.7491 -1.1790  3.2016
  959MOL0     H29433   9.881   2.817  10.241 -0.4782  0.5997 -2.5107
  959MOL0     H29434   9.757   2.693  10.205  0.6221 -1.2515 -4.9326
  959MOL0     H29435  10.047   2.635  10.313  0.0053 -1.4401 -1.6862
  959MOL0     H29436   9.918   2.521  10.294 -0.7800  0.6130 -0.4855
  959MOL0     H29437   9.797   2.658  10.493  0.6247 -2.5092  0.9910
  959MOL0     H29438   9.928   2.779  10.487 -2.7938  0.5728  3.4263
  959MOL0     H29439   9.940   2.484  10.535 -0.0481  1.0726 -1.0514
  959MOL0     H29440  10.083   2.600  10.542  1.3237 -1.2325  0.4390
  959MOL0     H29441   9.853   2.608  10.730 -1.2746 -3.5433 -3.4481
  959MOL0     H29442   9.982   2.721  10.730 -0.5391  1.2108 -5.0278
  959MOL0     H29443  10.016   2.422  10.796  2.9110 -1.5735 -0.0712
  959MOL0     H29444  10.150   2.521  10.768  0.0147  1.5056  0.9607
  959MOL0     H29445   9.791   2.843   9.803  0.0209  1.0091  0.5344
  959MOL0     H29446   9.755   2.949   9.582  0.6516 -0.6272 -0.1079
  959MOL0     H29447   9.718   3.288   9.328  0.8257  2.3264  0.4594
  959MOL0     H29448   9.672   3.362   9.103  0.1888  0.2420 -1.4765
  959MOL0     H29449  10.670   3.896   9.009 -1.5364 -0.2973 -1.6476
  959MOL0     H29450  10.674   3.856   9.272  1.2091 -0.8085 -0.4953
  959MOL0     H29451  10.652   3.841   9.603  0.5116 -3.9595 -0.5372
  959MOL0     H29452  10.722   3.777   9.825  0.6655  0.1815 -2.1953
  959MOL0     H29453  10.588   3.645  10.210 -0.5567 -1.3892  0.2263
  959MOL0     H29454  10.448   3.601  10.113 -1.7441  1.4666 -2.7778
  959MOL0     H29455  10.409   3.797  10.303 -1.1682  1.4774  0.2967
  959MOL0     H29456  10.335   3.804  10.146 -0.5770  2.1153 -1.0503
  959MOL0     H29457  10.559   3.937  10.083  0.0096 -1.1995 -0.9736
  959MOL0     H29458  10.569   3.968  10.260  0.5062 -4.0835  0.9955
  959MOL0     H29459  10.351   4.092  10.264  1.2294  1.8708 -0.2714
  959MOL0     H29460  10.474   4.145  10.157  1.7078 -0.4837 -2.1537
  959MOL0     H29461  10.126   4.078   9.931 -0.5749 -2.0701 -0.0318
  959MOL0     H29462  10.320   3.714   9.952 -0.6843  1.3992 -0.4652
  959MOL0     H29463  10.136   3.905   9.743 -3.0434 -1.7691 -0.5688
  959MOL0     H29464  10.192   3.762   9.635  1.0904 -4.1107  0.9174
  959MOL0     H29465  10.138   3.747   9.803 -3.7807  0.7004 -2.7516
  960MOL0     O29466   3.136   7.121   4.117  0.5261  0.6533  0.2884
  960MOL0     C29467   3.218   7.194   4.156 -0.2294 -0.7934  0.7714
  960MOL0     O29468   3.325   7.157   4.233 -0.6318 -0.0002 -0.4243
  960MOL0     C29469   3.367   7.026   4.242  1.1213  0.0793  0.0698
  960MOL0     C29470   3.374   6.930   4.130  0.7021  0.7417 -0.5107
  960MOL0     C29471   3.403   6.797   4.160 -0.4895 -0.3039  0.5451
  960MOL0     C29472   3.460   6.761   4.281 -1.1531  0.2134  1.2381
  960MOL0     O29473   3.493   6.624   4.284  0.2673  0.3530 -0.4136
  960MOL0     C29474   3.527   6.567   4.412 -0.1237 -0.9280 -0.2017
  960MOL0     C29475   3.411   6.556   4.502 -0.6043  1.1104 -1.0646
  960MOL0     C29476   3.302   6.462   4.437 -0.5429 -0.5451 -0.3258
  960MOL0     C29477   3.181   6.429   4.530  0.1317  0.7367  1.4890
  960MOL0     C29478   3.078   6.337   4.450 -0.3857 -0.2374 -1.5566
  960MOL0     C29479   2.940   6.324   4.520  0.6335  0.1286  0.4065
  960MOL0     C29480   2.864   6.457   4.542  0.4538 -0.5027 -0.5655
  960MOL0     C29481   2.717   6.428   4.579 -0.5321  1.0541 -0.3657
  960MOL0     N29482   2.628   6.540   4.531 -0.2292 -0.4506 -0.3403
  960MOL0     C29483   2.641   6.671   4.572  0.2988 -0.3421  1.2040
  960MOL0     C29484   2.550   6.739   4.502  1.2069 -0.3199  0.2932
  960MOL0     C29485   2.529   6.887   4.519  0.9156  0.5297  0.2484
  960MOL0     C29486   2.545   6.972   4.400  0.3318  0.4211  0.7084
  960MOL0     C29487   2.549   7.123   4.439  0.3929  0.2776 -0.2967
  960MOL0     C29488   2.428   7.173   4.526 -1.0641 -0.3787 -0.8055
  960MOL0     O29489   2.402   7.304   4.492 -0.2163 -0.0523  0.2635
  960MOL0     C29490   2.482   7.408   4.525 -0.9859 -1.2713 -1.1132
  960MOL0     C29491   2.443   7.534   4.479  0.3856  0.7761  0.9812
  960MOL0     C29492   2.511   7.650   4.508  0.6806 -0.4369  0.2142
  960MOL0     C29493   2.624   7.652   4.593 -0.9357 -0.4121  0.8524
  960MOL0     C29494   2.700   7.773   4.620 -0.0988  0.4063 -0.3122
  960MOL0     O29495   2.786   7.781   4.731  0.3217 -0.3683 -0.5505
  960MOL0     C29496   2.866   7.894   4.742  0.4862  0.6843  0.7484
  960MOL0     C29497   2.807   8.022   4.753  0.2134 -0.4778 -0.1008
  960MOL0     C29498   2.882   8.135   4.784 -0.3388 -0.3362 -1.2047
  960MOL0     C29499   3.012   8.112   4.818  0.2526 -0.0125  0.5420
  960MOL0     O29500   3.098   8.205   4.857 -1.3157 -1.0275 -0.8431
  960MOL0     C29501   3.136   8.310   4.761  0.3889  1.1335  0.5049
  960MOL0     C29502   3.216   8.249   4.644 -0.3465  0.1303  0.7922
  960MOL0     C29503   3.341   8.170   4.686 -0.1208  0.5796  0.4074
  960MOL0     C29504   3.361   8.045   4.595  0.0834  0.3146  0.3480
  960MOL0     C29505   3.479   7.954   4.624 -0.5314 -0.1097 -0.8759
  960MOL0     C29506   3.609   8.029   4.600  1.2647  0.2114 -0.3141
  960MOL0     C29507   3.732   7.943   4.631 -0.0546 -0.4473  0.4332
  960MOL0     C29508   3.854   8.027   4.616  0.1267 -0.8046  0.9066
  960MOL0    Cl29509   4.005   7.952   4.669 -0.2256 -0.1117  0.4838
  960MOL0     C29510   3.072   7.980   4.817  0.1758  1.0765  0.0199
  960MOL0     C29511   2.997   7.872   4.777 -0.2118 -0.2347 -0.1248
  960MOL0     O29512   2.677   7.865   4.542 -0.0142  0.1068  0.2125
  960MOL0     C29513   2.660   7.525   4.637 -0.8111  0.1025 -0.6299
  960MOL0     C29514   2.604   7.405   4.605 -0.1673  0.3748  0.3467
  960MOL0     N29515   2.496   6.657   4.401 -0.6930  0.1988 -0.5427
  960MOL0     N29516   2.549   6.538   4.423  1.1083 -0.0511  0.2507
  960MOL0     C29517   3.473   6.857   4.382  0.4104  0.1046  0.7343
  960MOL0     C29518   3.421   6.988   4.365 -0.0055 -0.3394 -0.2601
  960MOL0     C29519   3.219   7.335   4.094 -0.7951  0.5912  0.0727
  960MOL0     C29520   3.341   7.410   4.104  0.8284 -0.2396 -0.5278
  960MOL0     C29521   3.366   7.536   4.049 -0.1448  0.2715 -0.4229
  960MOL0     C29522   3.266   7.584   3.965 -1.0341 -0.4772  0.1441
  960MOL0     O29523   3.290   7.703   3.901 -0.2613 -0.6001  0.4983
  960MOL0     C29524   3.417   7.715   3.831 -0.2143  0.5433  0.2438
  960MOL0     C29525   3.442   7.858   3.776 -0.0024 -0.0508  0.3011
  960MOL0     C29526   3.330   7.913   3.684  0.1548  0.5795 -0.2536
  960MOL0     C29527   3.271   8.050   3.728  0.5839 -0.3630 -0.7873
  960MOL0     C29528   3.386   8.145   3.720 -0.6738 -0.0762 -0.3431
  960MOL0     C29529   3.480   8.225   3.702  0.3005  0.4589  0.6721
  960MOL0     C29530   3.140   7.515   3.955 -0.3801 -0.5366  0.4258
  960MOL0     C29531   3.114   7.391   4.017  0.5341  0.1203 -0.4153
  960MOL0     C29532   2.978   7.325   3.994  0.2458  0.7441 -0.6404
  960MOL0     H29533   3.351   6.971   4.032 -0.0031 -0.8604 -1.0544
  960MOL0     H29534   3.410   6.731   4.074  1.0886  1.0494 -0.4393
  960MOL0     H29535   3.570   6.468   4.394  0.0279 -0.7691 -0.7395
  960MOL0     H29536   3.611   6.627   4.449 -0.5082 -0.3619 -0.2539
  960MOL0     H29537   3.373   6.658   4.518  1.7133  1.4999  4.0205
  960MOL0     H29538   3.436   6.510   4.598 -3.0919  0.9518 -0.4199
  960MOL0     H29539   3.340   6.363   4.409 -5.0035 -3.6330  2.9927
  960MOL0     H29540   3.272   6.518   4.348  1.6053 -1.1115 -1.4850
  960MOL0     H29541   3.211   6.375   4.620 -2.6676 -1.7748  1.0664
  960MOL0     H29542   3.132   6.517   4.573  0.9161  0.9356  2.0006
  960MOL0     H29543   3.066   6.381   4.351 -0.3726  1.0877 -0.9841
  960MOL0     H29544   3.130   6.240   4.449  0.2282 -0.0948  1.8043
  960MOL0     H29545   2.877   6.258   4.459 -1.9127  2.3977  0.3851
  960MOL0     H29546   2.959   6.271   4.614  5.5860  1.4646  0.4207
  960MOL0     H29547   2.863   6.516   4.451 -4.2017 -0.3067 -0.6473
  960MOL0     H29548   2.904   6.508   4.631  1.2615 -2.2450  0.1208
  960MOL0     H29549   2.679   6.338   4.530  1.2632  1.1419 -2.0444
  960MOL0     H29550   2.696   6.405   4.684  0.0805  0.1466 -0.4383
  960MOL0     H29551   2.704   6.709   4.652  2.3652 -1.0184 -0.0120
  960MOL0     H29552   2.435   6.911   4.572  0.6027 -3.9572  2.1281
  960MOL0     H29553   2.604   6.923   4.590  0.3871  0.3104  0.9348
  960MOL0     H29554   2.628   6.936   4.339  0.1681 -0.6422  1.0928
  960MOL0     H29555   2.452   6.967   4.343 -0.2697 -0.8020  1.7520
  960MOL0     H29556   2.544   7.170   4.340  0.4687  0.4489 -0.2192
  960MOL0     H29557   2.645   7.134   4.490  0.9511 -4.2246 -0.0363
  960MOL0     H29558   2.473   7.186   4.625 -0.0029  2.2481 -1.5435
  960MOL0     H29559   2.344   7.103   4.528  0.1076 -1.8872 -1.8098
  960MOL0     H29560   2.351   7.533   4.421 -0.7770  1.2255  2.7355
  960MOL0     H29561   2.465   7.738   4.464  1.5033  0.6199  1.3847
  960MOL0     H29562   2.699   8.030   4.752  0.1704 -1.0320 -0.0953
  960MOL0     H29563   2.850   8.239   4.776 -1.2834 -0.6768 -2.0676
  960MOL0     H29564   3.042   8.355   4.726 -0.7343 -0.8747  0.7971
  960MOL0     H29565   3.204   8.385   4.803  0.3611  1.6505 -0.3316
  960MOL0     H29566   3.153   8.175   4.593  2.2327 -2.7418  1.5093
  960MOL0     H29567   3.234   8.330   4.572  1.7065 -2.6381 -2.1171
  960MOL0     H29568   3.428   8.237   4.679  0.9962 -0.0984  5.0214
  960MOL0     H29569   3.348   8.142   4.791  1.3413  0.5255  0.3166
  960MOL0     H29570   3.385   8.078   4.494 -1.2191  0.0359 -0.0805
  960MOL0     H29571   3.274   7.978   4.587 -0.4562  1.2175 -2.0111
  960MOL0     H29572   3.482   7.866   4.559 -1.5382 -0.7829 -0.0396
  960MOL0     H29573   3.472   7.918   4.727 -1.6395  0.2899 -0.7960
  960MOL0     H29574   3.619   8.066   4.497  3.6349  1.4907  0.2922
  960MOL0     H29575   3.610   8.109   4.675 -0.3277 -1.5553  1.6959
  960MOL0     H29576   3.745   7.848   4.577 -2.1622 -2.4352  3.1139
  960MOL0     H29577   3.712   7.905   4.731  0.0506 -1.0354  0.2390
  960MOL0     H29578   3.865   8.057   4.512 -2.3149 -1.4555  0.4101
  960MOL0     H29579   3.858   8.120   4.674  1.8945 -1.5020  1.9950
  960MOL0     H29580   3.172   7.958   4.854 -0.7540 -1.2610  1.3953
  960MOL0     H29581   3.043   7.774   4.770 -1.4129 -0.8228 -0.0817
  960MOL0     H29582   2.748   7.515   4.699  1.0106 -3.2256 -3.4204
  960MOL0     H29583   2.638   7.315   4.656 -0.0956  0.1370 -0.1137
  960MOL0     H29584   3.518   6.825   4.476 -0.5666 -1.6302  0.6592
  960MOL0     H29585   3.431   7.067   4.438  1.7439  0.2539 -1.0834
  960MOL0     H29586   3.413   7.371   4.177 -2.8714  1.0519  4.3322
  960MOL0     H29587   3.458   7.591   4.065  1.1334 -0.6671 -3.7307
  960MOL0     H29588   3.410   7.657   3.738 -0.5372  0.2363  0.4551
  960MOL0     H29589   3.504   7.695   3.894 -1.9230  1.6205  3.1159
  960MOL0     H29590   3.533   7.856   3.716  0.1488  0.5274  0.5038
  960MOL0     H29591   3.456   7.928   3.859 -4.1814  0.6417  0.6177
  960MOL0     H29592   3.252   7.837   3.686 -0.2241  0.9325  2.9512
  960MOL0     H29593   3.363   7.915   3.580 -2.2024 -0.6763 -1.1064
  960MOL0     H29594   3.189   8.081   3.663  0.9015  0.8360 -0.6300
  960MOL0     H29595   3.225   8.040   3.827 -0.3115  1.5134 -0.9759
  960MOL0     H29596   3.554   8.302   3.691 -2.4098  3.0872 -0.6347
  960MOL0     H29597   3.070   7.555   3.883  1.7937 -0.5218 -1.8054
  960MOL0     H29598   2.932   7.287   4.086  1.0897 -0.8855 -0.8465
  960MOL0     H29599   2.909   7.389   3.937 -3.5053 -1.0606  1.4517
  960MOL0     H29600   2.987   7.238   3.928  1.8784 -1.0128  1.7205
  961MOL0     O29601   9.362   4.074   9.821 -0.0818 -0.1696 -0.2153
  961MOL0     C29602   9.413   4.116   9.723  0.2852 -0.6761  0.6989
  961MOL0     O29603   9.370   4.096   9.598  0.1878 -0.9606 -0.2113
  961MOL0     C29604   9.299   3.992   9.566  0.2087 -0.2296 -1.0852
  961MOL0     C29605   9.359   3.873   9.542 -1.2773 -0.3475  0.3925
  961MOL0     C29606   9.285   3.763   9.496 -0.3780  0.2585  0.4092
  961MOL0     C29607   9.153   3.766   9.472 -0.0839  0.3596 -0.1699
  961MOL0     O29608   9.074   3.659   9.441 -0.1119  0.1075  0.2846
  961MOL0     C29609   9.043   3.568   9.551 -0.3707  0.7277  0.1317
  961MOL0     C29610   8.898   3.605   9.597  0.3726 -0.8651  1.3194
  961MOL0     C29611   8.815   3.486   9.645  0.1504  0.5977 -0.0663
  961MOL0     C29612   8.769   3.490   9.785 -0.7368 -0.8740  0.0184
  961MOL0     C29613   8.685   3.380   9.836 -0.3465 -0.0516  0.4181
  961MOL0     C29614   8.551   3.361   9.761  0.6876  0.8917  0.7856
  961MOL0     C29615   8.492   3.220   9.814  1.2520  0.9209 -0.2567
  961MOL0     C29616   8.449   3.227   9.968 -0.0097  0.3993  1.0929
  961MOL0     N29617   8.386   3.103  10.013 -1.0359 -0.7352 -0.1328
  961MOL0     C29618   8.301   3.101  10.123  0.3983  0.9072 -0.4617
  961MOL0     C29619   8.251   2.973  10.120 -0.5761 -0.9353 -0.1721
  961MOL0     C29620   8.159   2.895  10.213  0.5640 -0.2091  0.4227
  961MOL0     C29621   8.011   2.944  10.197 -0.9186 -0.1495  0.3503
  961MOL0     C29622   7.947   2.994  10.320 -0.0235  0.1905  0.7917
  961MOL0     C29623   7.931   3.143  10.321 -0.7653 -0.9505 -0.7337
  961MOL0     O29624   7.840   3.171  10.427  0.5235 -0.1652  0.7006
  961MOL0     C29625   7.807   3.305  10.439 -0.5239  0.2337  0.2642
  961MOL0     C29626   7.735   3.345  10.551 -0.2441 -0.3752 -0.0001
  961MOL0     C29627   7.704   3.480  10.568  0.0235  0.0587  0.9758
  961MOL0     C29628   7.754   3.579  10.489 -0.8436 -0.5557  0.0746
  961MOL0     C29629   7.714   3.720  10.510  0.0082  0.7155 -0.6510
  961MOL0     O29630   7.665   3.751  10.637  0.3957 -0.5453 -1.1581
  961MOL0     C29631   7.602   3.870  10.657  0.6215 -1.1431 -0.6308
  961MOL0     C29632   7.479   3.905  10.594 -0.0669 -0.4713 -0.1999
  961MOL0     C29633   7.398   4.006  10.649 -0.8783  0.8485  0.4136
  961MOL0     C29634   7.452   4.103  10.737 -0.2303  0.5712  0.3854
  961MOL0     O29635   7.391   4.211  10.782  0.0882 -0.0620  0.1005
  961MOL0     C29636   7.267   4.245  10.736  0.3788  0.4362 -0.3661
  961MOL0     C29637   7.228   4.374  10.802  0.6217  0.3472 -0.0695
  961MOL0     C29638   7.085   4.402  10.757  0.7250  0.5403  0.2839
  961MOL0     C29639   7.026   4.530  10.818  0.0958  0.2502  0.1963
  961MOL0     C29640   7.083   4.661  10.748 -0.0643 -0.1011 -0.2616
  961MOL0     C29641   7.001   4.786  10.785 -0.1921  1.2020  0.1301
  961MOL0     C29642   6.993   4.871  10.653  0.2548 -0.3469 -0.2938
  961MOL0     C29643   6.910   5.004  10.695 -0.7702 -1.3277  0.2168
  961MOL0    Cl29644   6.887   5.123  10.557 -0.1051  0.1593  0.8964
  961MOL0     C29645   7.584   4.082  10.791 -0.7582  0.0024 -0.2364
  961MOL0     C29646   7.655   3.957  10.759 -0.6464  0.1389  0.7435
  961MOL0     O29647   7.737   3.805  10.421 -0.4463 -0.1068 -0.4195
  961MOL0     C29648   7.819   3.543  10.368  0.1824 -0.1930 -0.7820
  961MOL0     C29649   7.846   3.411  10.349 -0.8013 -0.5903 -0.2561
  961MOL0     N29650   8.312   2.911  10.008 -0.2038 -0.3871 -0.0980
  961MOL0     N29651   8.386   2.988   9.942 -0.7360 -0.1822 -0.1912
  961MOL0     C29652   9.085   3.886   9.506  0.1262  0.1942  0.0849
  961MOL0     C29653   9.154   3.997   9.544 -0.6011  0.0399 -0.3639
  961MOL0     C29654   9.553   4.158   9.726  0.1936  0.6114  0.7852
  961MOL0     C29655   9.586   4.256   9.638 -0.2646  0.5252  0.9968
  961MOL0     C29656   9.714   4.298   9.621 -0.2331 -0.2785  0.0045
  961MOL0     C29657   9.815   4.227   9.695 -0.2667  0.2690  0.0314
  961MOL0     O29658   9.939   4.274   9.669 -0.1607 -0.7762 -0.1946
  961MOL0     C29659  10.039   4.178   9.626  0.1626 -0.2382 -0.2828
  961MOL0     C29660  10.069   4.227   9.481  0.8506  0.4991 -0.1815
  961MOL0     C29661   9.954   4.201   9.385  0.5505 -0.6236 -0.3113
  961MOL0     C29662  10.002   4.193   9.238  0.4821  0.5700 -0.4556
  961MOL0     C29663   9.893   4.212   9.139 -0.0617  0.7347 -0.2388
  961MOL0     C29664   9.813   4.224   9.054 -0.6816 -0.2155 -0.7090
  961MOL0     C29665   9.785   4.143   9.805  0.6471 -0.5530  0.2683
  961MOL0     C29666   9.652   4.108   9.818 -0.2326  0.1240 -0.1906
  961MOL0     C29667   9.619   3.998   9.918  0.1995  0.1835 -0.6601
  961MOL0     H29668   9.465   3.857   9.562 -1.6627 -3.4302  0.4223
  961MOL0     H29669   9.337   3.670   9.474  1.4094  1.0835  0.9481
  961MOL0     H29670   9.054   3.463   9.521 -1.1953  0.1626  1.7086
  961MOL0     H29671   9.113   3.585   9.633 -0.7660 -1.7491  1.0625
  961MOL0     H29672   8.847   3.645   9.509  1.4160  0.3589  1.2406
  961MOL0     H29673   8.903   3.680   9.677 -3.5395  1.6194 -0.4560
  961MOL0     H29674   8.872   3.393   9.628  0.6052  0.0924  3.5068
  961MOL0     H29675   8.731   3.489   9.575 -3.2384 -3.1595  3.3054
  961MOL0     H29676   8.853   3.505   9.853  1.2348  1.4282 -2.7306
  961MOL0     H29677   8.701   3.576   9.785 -1.6557 -1.5798  0.0370
  961MOL0     H29678   8.746   3.288   9.834 -0.4615 -0.2543  3.2323
  961MOL0     H29679   8.660   3.395   9.941  0.4444 -0.2331  0.6449
  961MOL0     H29680   8.477   3.441   9.764 -1.3554 -0.4743 -3.7774
  961MOL0     H29681   8.581   3.347   9.657  0.9854  1.3633  0.8073
  961MOL0     H29682   8.561   3.139   9.789  2.0944  2.7636 -5.0690
  961MOL0     H29683   8.400   3.208   9.756  1.6142  0.3718 -0.7258
  961MOL0     H29684   8.538   3.251  10.027  1.3036  0.8689 -0.9729
  961MOL0     H29685   8.378   3.308   9.990 -0.7429 -0.5535  2.3915
  961MOL0     H29686   8.301   3.179  10.198  2.2683  0.5502 -0.0360
  961MOL0     H29687   8.159   2.789  10.186 -0.9152 -0.2554  0.5121
  961MOL0     H29688   8.195   2.905  10.316 -0.4213 -1.9744  0.9931
  961MOL0     H29689   8.002   3.011  10.110  0.9554 -1.2374 -0.7428
  961MOL0     H29690   7.955   2.860  10.156 -0.6321  1.2810 -3.4018
  961MOL0     H29691   8.005   2.970  10.409 -0.6349  1.3980  1.5450
  961MOL0     H29692   7.847   2.950  10.325 -0.9765  2.1267 -0.1302
  961MOL0     H29693   7.891   3.168  10.222 -0.4485 -0.8348 -0.8352
  961MOL0     H29694   8.028   3.190  10.340 -0.7552 -1.3939  0.4012
  961MOL0     H29695   7.713   3.274  10.630  0.2998 -0.2698  0.2539
  961MOL0     H29696   7.643   3.516  10.651  1.5651  0.6601  1.9060
  961MOL0     H29697   7.441   3.837  10.518  2.9403 -1.1521 -1.2304
  961MOL0     H29698   7.294   4.002  10.618 -0.6958 -0.7448 -0.0541
  961MOL0     H29699   7.262   4.246  10.627  1.5924 -0.6872 -0.4539
  961MOL0     H29700   7.197   4.169  10.772  0.7270  0.1252 -0.3439
  961MOL0     H29701   7.228   4.359  10.910 -1.5125  0.9283  0.0566
  961MOL0     H29702   7.304   4.447  10.774  2.2630 -0.7212  1.3984
  961MOL0     H29703   7.081   4.411  10.648 -3.8377  1.1873  0.3000
  961MOL0     H29704   7.028   4.313  10.786 -1.3896  1.7384  0.0254
  961MOL0     H29705   7.050   4.539  10.924  0.7263 -0.3113  0.1078
  961MOL0     H29706   6.917   4.523  10.813 -0.1005  0.6568  2.6045
  961MOL0     H29707   7.073   4.639  10.641 -0.0331 -0.3508 -0.2132
  961MOL0     H29708   7.190   4.680  10.765  0.5683  2.1928 -5.0156
  961MOL0     H29709   6.909   4.761  10.839  0.8499 -3.1116  0.3020
  961MOL0     H29710   7.062   4.846  10.853  2.5078  1.0121 -1.9393
  961MOL0     H29711   6.948   4.817  10.569  1.5972 -0.0394 -1.2519
  961MOL0     H29712   7.092   4.911  10.629  1.7049 -0.6748  4.2345
  961MOL0     H29713   6.818   4.967  10.741  0.2131 -0.7202  2.8441
  961MOL0     H29714   6.957   5.059  10.776  1.1140 -1.6699 -0.6006
  961MOL0     H29715   7.615   4.152  10.868 -1.6692 -0.5548  0.6716
  961MOL0     H29716   7.738   3.926  10.822 -3.3223 -1.3683  3.9088
  961MOL0     H29717   7.852   3.618  10.297  0.8176 -0.0522 -0.3457
  961MOL0     H29718   7.898   3.380  10.259 -0.5423 -0.8900 -0.0070
  961MOL0     H29719   8.977   3.887   9.493  0.1231 -0.6876 -0.0658
  961MOL0     H29720   9.094   4.085   9.565 -1.1964 -0.6506  0.9288
  961MOL0     H29721   9.509   4.291   9.570  1.1653 -0.7436 -1.4066
  961MOL0     H29722   9.731   4.383   9.556  2.4679 -2.1299 -1.9462
  961MOL0     H29723   9.997   4.077   9.628 -1.8953  0.5035 -1.9918
  961MOL0     H29724  10.127   4.190   9.690  0.5020 -3.1161 -0.0715
  961MOL0     H29725  10.149   4.159   9.450 -0.1379 -0.5622 -0.4834
  961MOL0     H29726  10.095   4.333   9.487 -2.5371  1.4432  0.0865
  961MOL0     H29727   9.882   4.282   9.401  1.3924 -0.3649  2.7060
  961MOL0     H29728   9.903   4.108   9.412  0.2230 -1.1537 -2.5548
  961MOL0     H29729  10.078   4.270   9.223  1.5894 -0.4013  0.0328
  961MOL0     H29730  10.042   4.093   9.221 -2.9400 -0.7164 -1.6587
  961MOL0     H29731   9.737   4.241   8.981  0.4288  4.1384 -1.1198
  961MOL0     H29732   9.857   4.100   9.874  0.4360  0.8949  1.4424
  961MOL0     H29733   9.581   3.918   9.854 -0.6261  2.6154 -3.4393
  961MOL0     H29734   9.705   3.970   9.980  3.7438  1.4201 -4.5491
  961MOL0     H29735   9.527   4.029   9.969  0.5177  0.8657 -0.4982
  962MOL0     O29736   0.242   4.612   5.443  1.2158  0.2459  0.2950
  962MOL0     C29737   0.225   4.685   5.350 -0.5293 -0.2860  0.9184
  962MOL0     O29738   0.181   4.812   5.362 -0.1282 -0.2703  0.5018
  962MOL0     C29739   0.124   4.844   5.482 -0.0561 -0.5326 -1.1273
  962MOL0     C29740  -0.006   4.796   5.515  0.5153  0.0316  0.2606
  962MOL0     C29741  -0.061   4.829   5.639 -0.4529 -1.0090 -1.0428
  962MOL0     C29742   0.007   4.908   5.739  0.1495  1.0545  0.1539
  962MOL0     O29743  -0.044   4.941   5.865  0.5992 -0.6287 -0.2369
  962MOL0     C29744   0.026   4.983   5.980 -0.2390  0.6529  0.5117
  962MOL0     C29745  -0.064   4.946   6.092  0.1687 -0.5247 -0.3019
  962MOL0     C29746  -0.089   4.791   6.089 -0.1205  0.1114  1.1198
  962MOL0     C29747  -0.175   4.758   6.207  0.7391 -0.2065 -0.1167
  962MOL0     C29748  -0.180   4.609   6.221 -0.7036  0.3515  0.2448
  962MOL0     C29749  -0.057   4.554   6.300  0.2311 -0.2612  0.2248
  962MOL0     C29750  -0.061   4.572   6.448 -0.3324 -0.2478 -0.9102
  962MOL0     C29751   0.054   4.490   6.511  0.6812  0.5031 -0.4709
  962MOL0     N29752   0.181   4.556   6.491  0.0677 -0.4606  0.6614
  962MOL0     C29753   0.205   4.692   6.509  0.8166 -0.8930  0.4739
  962MOL0     C29754   0.329   4.723   6.471  0.6232  0.3434  0.1297
  962MOL0     C29755   0.385   4.857   6.449  0.5008  0.0062 -0.0933
  962MOL0     C29756   0.365   4.924   6.308 -0.1557  0.2386 -0.3957
  962MOL0     C29757   0.381   4.819   6.187 -0.1641  0.1164  0.6627
  962MOL0     C29758   0.429   4.894   6.056 -0.0570 -1.2737 -0.3033
  962MOL0     O29759   0.440   4.797   5.951 -0.5190 -0.4971 -0.4422
  962MOL0     C29760   0.500   4.827   5.831  0.5625  0.4811  0.4352
  962MOL0     C29761   0.602   4.918   5.806  0.0929 -0.6609 -0.0503
  962MOL0     C29762   0.650   4.947   5.672 -1.2490  0.7061 -0.2780
  962MOL0     C29763   0.613   4.878   5.565  0.5173  0.4186  0.3023
  962MOL0     C29764   0.677   4.883   5.434 -0.3864  0.3830  0.2400
  962MOL0     O29765   0.614   4.837   5.320 -0.3659  0.6245 -0.1313
  962MOL0     C29766   0.662   4.842   5.199 -1.1706 -0.2257  1.0822
  962MOL0     C29767   0.779   4.909   5.156 -0.7877  1.0012 -0.1337
  962MOL0     C29768   0.817   4.900   5.015 -0.7316  0.7398 -0.6572
  962MOL0     C29769   0.732   4.844   4.921 -0.8226 -1.0754  1.5487
  962MOL0     O29770   0.762   4.830   4.786 -0.2715 -0.3393  0.7801
  962MOL0     C29771   0.831   4.935   4.708  0.1561  0.4968 -0.1021
  962MOL0     C29772   0.754   4.965   4.585 -0.2082 -0.1920  1.1049
  962MOL0     C29773   0.794   4.861   4.468  0.4764  0.1653 -0.5743
  962MOL0     C29774   0.688   4.801   4.374 -0.6184 -0.4739  0.1081
  962MOL0     C29775   0.730   4.656   4.329  0.0014  0.2878  0.2755
  962MOL0     C29776   0.650   4.605   4.209 -0.7332  0.5685 -0.8058
  962MOL0     C29777   0.504   4.590   4.247  1.2865  0.2428  0.3624
  962MOL0     C29778   0.417   4.565   4.124  0.1034 -0.1703  0.4860
  962MOL0    Cl29779   0.246   4.526   4.170  0.8006  0.1611  0.2262
  962MOL0     C29780   0.623   4.775   4.969 -0.0865  0.8542  0.5281
  962MOL0     C29781   0.585   4.784   5.100  0.0229 -0.0754 -0.7455
  962MOL0     O29782   0.792   4.928   5.430  0.5653  0.2719  0.5550
  962MOL0     C29783   0.516   4.780   5.589  0.3469  0.2167  0.8654
  962MOL0     C29784   0.453   4.761   5.716 -0.9931 -1.6719 -0.3982
  962MOL0     N29785   0.392   4.599   6.439  1.0685  0.6239 -1.2740
  962MOL0     N29786   0.299   4.506   6.445 -0.2748  0.6973  0.4267
  962MOL0     C29787   0.127   4.961   5.697 -0.8470 -0.6192 -0.5678
  962MOL0     C29788   0.186   4.937   5.573 -0.0474 -0.4873 -1.2413
  962MOL0     C29789   0.226   4.632   5.209 -1.2220 -0.2330  0.3415
  962MOL0     C29790   0.132   4.680   5.115 -0.0347  0.2804 -0.0637
  962MOL0     C29791   0.118   4.611   4.990  0.0154  0.3651 -0.2369
  962MOL0     C29792   0.208   4.509   4.947 -0.0996 -0.5910 -0.1910
  962MOL0     O29793   0.180   4.451   4.829 -0.0544 -0.1810 -0.5558
  962MOL0     C29794   0.228   4.317   4.800 -0.3097 -0.5347 -0.6512
  962MOL0     C29795   0.169   4.255   4.671 -0.0665  0.5577 -0.4169
  962MOL0     C29796   0.023   4.208   4.710  0.1519 -0.6297 -0.0021
  962MOL0     C29797  -0.077   4.211   4.591  0.4431 -0.6133  0.6051
  962MOL0     C29798  -0.076   4.096   4.501 -0.5043  0.5318 -0.2167
  962MOL0     C29799  -0.086   4.009   4.419  0.1350  0.3126  0.4611
  962MOL0     C29800   0.310   4.465   5.031  0.3552  0.1074  0.1671
  962MOL0     C29801   0.316   4.525   5.166  1.0436  0.3156  0.6618
  962MOL0     C29802   0.431   4.484   5.257  0.0353 -0.7288  1.1074
  962MOL0     H29803  -0.058   4.730   5.447  2.4388  1.1619 -2.4980
  962MOL0     H29804  -0.159   4.794   5.671 -0.3880 -1.8199 -1.6967
  962MOL0     H29805   0.123   4.933   5.988 -0.9088 -0.7030  0.4753
  962MOL0     H29806   0.040   5.091   5.972 -0.5741  0.5445 -3.9883
  962MOL0     H29807  -0.163   4.991   6.079 -0.4591 -1.7000  0.2766
  962MOL0     H29808  -0.019   4.969   6.189  2.5256 -0.2722 -1.3836
  962MOL0     H29809   0.002   4.731   6.097 -0.3168 -0.1065  1.7979
  962MOL0     H29810  -0.145   4.762   6.000 -0.3767  3.4798  0.0584
  962MOL0     H29811  -0.146   4.806   6.300  0.3890 -3.0412  1.5779
  962MOL0     H29812  -0.274   4.799   6.184  1.4873  0.6861 -1.9904
  962MOL0     H29813  -0.270   4.579   6.276  0.2931  0.6910  2.1416
  962MOL0     H29814  -0.183   4.564   6.122 -0.6714  3.6386 -1.3753
  962MOL0     H29815  -0.043   4.447   6.287  1.1948 -0.0379 -0.7765
  962MOL0     H29816   0.036   4.597   6.261  0.6068 -1.8691 -0.7627
  962MOL0     H29817  -0.156   4.533   6.486  0.5004 -1.8025 -0.3553
  962MOL0     H29818  -0.047   4.678   6.474  0.8424 -0.7357  0.5422
  962MOL0     H29819   0.038   4.483   6.619 -4.2185 -0.1990 -1.0159
  962MOL0     H29820   0.048   4.386   6.478 -4.1517  0.3484  0.2224
  962MOL0     H29821   0.124   4.760   6.535  2.2799  1.6152 -1.1195
  962MOL0     H29822   0.345   4.933   6.517 -0.7939 -0.0216 -0.7834
  962MOL0     H29823   0.493   4.846   6.464  0.1883 -1.0702  1.6824
  962MOL0     H29824   0.263   4.964   6.312  0.6030  2.1702  0.9661
  962MOL0     H29825   0.438   5.003   6.293  0.2235  0.2094  1.1187
  962MOL0     H29826   0.287   4.768   6.164 -0.0351  0.6051 -1.0418
  962MOL0     H29827   0.451   4.737   6.207 -0.9132 -0.4075  1.1952
  962MOL0     H29828   0.517   4.956   6.078  1.3191 -2.7084 -1.5360
  962MOL0     H29829   0.352   4.963   6.019 -1.0569 -2.0198  0.3455
  962MOL0     H29830   0.641   4.966   5.895  4.6733 -5.0139  0.8248
  962MOL0     H29831   0.727   5.021   5.656  3.9951 -4.1988 -0.9724
  962MOL0     H29832   0.858   4.932   5.227 -0.9521 -3.2497  1.7474
  962MOL0     H29833   0.919   4.934   5.001 -0.0296  0.3977  2.7330
  962MOL0     H29834   0.843   5.024   4.770  0.2136  0.2728  0.2119
  962MOL0     H29835   0.933   4.901   4.692 -0.5941 -1.4103 -1.2329
  962MOL0     H29836   0.647   4.970   4.605 -0.4158 -0.6712  0.1534
  962MOL0     H29837   0.785   5.068   4.562 -0.5215 -0.1924  0.6608
  962MOL0     H29838   0.861   4.906   4.394 -1.8171 -1.7086 -4.0745
  962MOL0     H29839   0.849   4.780   4.518  2.1837  1.7628  0.2386
  962MOL0     H29840   0.690   4.863   4.284  2.9690 -0.4735  0.0240
  962MOL0     H29841   0.597   4.808   4.435 -1.4546  0.1256 -1.1761
  962MOL0     H29842   0.709   4.585   4.410 -0.5048 -0.0522 -0.1485
  962MOL0     H29843   0.836   4.655   4.302  0.2357  0.5174  1.1669
  962MOL0     H29844   0.664   4.678   4.129 -0.3123  0.3412 -0.9405
  962MOL0     H29845   0.670   4.502   4.177 -4.3097 -1.6210  2.8296
  962MOL0     H29846   0.466   4.685   4.286 -0.2306 -0.6533  1.1778
  962MOL0     H29847   0.491   4.508   4.319  2.8829 -0.9835 -0.6775
  962MOL0     H29848   0.427   4.654   4.061 -0.6784 -2.4057 -3.1455
  962MOL0     H29849   0.462   4.478   4.075 -0.6844 -1.7614  2.4118
  962MOL0     H29850   0.568   4.717   4.895  0.6741  0.9301 -0.1013
  962MOL0     H29851   0.494   4.746   5.144  0.2851 -2.4969 -2.1275
  962MOL0     H29852   0.479   4.724   5.504  0.0869  0.9687  0.4759
  962MOL0     H29853   0.373   4.691   5.737 -2.1458 -1.3230 -3.1930
  962MOL0     H29854   0.175   5.039   5.756 -2.3355  0.1573 -0.3317
  962MOL0     H29855   0.275   4.992   5.545 -0.3256 -0.1219 -1.4283
  962MOL0     H29856   0.061   4.755   5.147 -0.7496  0.2880 -1.5834
  962MOL0     H29857   0.031   4.626   4.927  0.1117 -2.3193 -1.1580
  962MOL0     H29858   0.199   4.253   4.883 -1.6493 -0.6790 -1.2052
  962MOL0     H29859   0.337   4.310   4.799 -0.3682 -2.9213 -2.9777
  962MOL0     H29860   0.226   4.165   4.650  0.2585  0.4795  0.7134
  962MOL0     H29861   0.176   4.342   4.605 -1.7158  3.0319  2.4138
  962MOL0     H29862  -0.020   4.284   4.777  3.2098  0.3278  1.0615
  962MOL0     H29863   0.017   4.119   4.774  0.9005 -2.1767 -1.9842
  962MOL0     H29864  -0.177   4.222   4.634  1.1663 -0.0482  2.2071
  962MOL0     H29865  -0.059   4.308   4.544  0.0408  2.6715  6.3258
  962MOL0     H29866  -0.085   3.925   4.353  2.2849  0.8286 -0.2573
  962MOL0     H29867   0.389   4.395   5.004  0.9095 -0.7099  3.4986
  962MOL0     H29868   0.519   4.451   5.200  1.6591  1.2585  2.3154
  962MOL0     H29869   0.484   4.564   5.309 -0.2050 -1.2170  2.1427
  962MOL0     H29870   0.394   4.415   5.334  1.0420 -1.0773  1.2952
  963MOL0     O29871   4.393   5.004   3.270  0.0547  0.0989  0.6367
  963MOL0     C29872   4.277   4.995   3.230  0.4182 -2.5269 -1.1130
  963MOL0     O29873   4.246   4.962   3.104 -0.0697 -0.6903  0.0295
  963MOL0     C29874   4.352   4.915   3.025  0.4640 -0.6074  0.2838
  963MOL0     C29875   4.331   4.795   2.949  1.0358  0.0352  0.6317
  963MOL0     C29876   4.417   4.753   2.858  0.4770  0.4160 -0.7952
  963MOL0     C29877   4.537   4.817   2.826  0.9149 -0.5053 -0.4713
  963MOL0     O29878   4.610   4.757   2.724 -0.4555 -0.1463 -0.8744
  963MOL0     C29879   4.751   4.796   2.706  0.5749  0.1933 -1.7982
  963MOL0     C29880   4.835   4.687   2.758  0.1478  0.2305 -1.1151
  963MOL0     C29881   4.976   4.700   2.701  0.8299 -0.0209 -0.3456
  963MOL0     C29882   5.079   4.727   2.821 -0.2789 -0.1194 -0.0949
  963MOL0     C29883   5.220   4.680   2.778  0.0870 -1.1004  0.4675
  963MOL0     C29884   5.281   4.726   2.641 -0.2739 -0.4089 -0.4493
  963MOL0     C29885   5.334   4.872   2.657  0.4698 -0.1086  0.1713
  963MOL0     C29886   5.362   4.929   2.518 -0.4691  0.0582 -0.3034
  963MOL0     N29887   5.463   4.845   2.446 -0.9346 -0.3714 -0.2217
  963MOL0     C29888   5.578   4.791   2.487 -0.5973  0.6043 -0.0474
  963MOL0     C29889   5.625   4.727   2.374 -0.0450  0.4084 -0.6354
  963MOL0     C29890   5.765   4.668   2.351  0.4623 -0.3037  0.5659
  963MOL0     C29891   5.811   4.592   2.474  1.2496  0.1388  0.3719
  963MOL0     C29892   5.955   4.543   2.446  0.5928 -0.5320 -0.0568
  963MOL0     C29893   6.021   4.471   2.562  0.0104 -0.3142  1.1351
  963MOL0     O29894   5.988   4.334   2.563 -0.3198  0.2650 -0.7366
  963MOL0     C29895   6.034   4.269   2.682 -0.1459  0.1666  0.9655
  963MOL0     C29896   6.085   4.336   2.797 -0.6726  0.4049  0.3337
  963MOL0     C29897   6.123   4.248   2.896 -0.7353 -1.0369 -0.2664
  963MOL0     C29898   6.123   4.106   2.887 -0.0454  0.2978 -0.3193
  963MOL0     C29899   6.196   4.026   2.988  0.3388 -0.5787 -0.2124
  963MOL0     O29900   6.291   3.933   2.949 -0.6990 -0.4003  0.1979
  963MOL0     C29901   6.329   3.855   3.046 -1.1526  0.3265 -1.4190
  963MOL0     C29902   6.459   3.849   3.104 -0.1344  0.2311 -0.2091
  963MOL0     C29903   6.500   3.753   3.195  0.2243 -0.4026 -0.7773
  963MOL0     C29904   6.414   3.655   3.243 -0.1972 -0.3325  0.1812
  963MOL0     O29905   6.444   3.565   3.335  0.3407  0.9208 -0.1055
  963MOL0     C29906   6.401   3.562   3.472  0.0312 -0.4011  0.0678
  963MOL0     C29907   6.460   3.439   3.525 -0.0359  0.8680  0.0379
  963MOL0     C29908   6.413   3.393   3.672 -0.4084 -0.5175 -0.3229
  963MOL0     C29909   6.444   3.485   3.783  0.2317 -0.0082  0.6783
  963MOL0     C29910   6.448   3.410   3.918  0.7225  0.4824  0.0019
  963MOL0     C29911   6.414   3.480   4.053 -0.3653 -0.6784  0.2251
  963MOL0     C29912   6.531   3.577   4.084  0.4581  0.7218 -0.1105
  963MOL0     C29913   6.490   3.708   4.145  0.1196  0.2982  0.5327
  963MOL0    Cl29914   6.616   3.825   4.161  0.4638 -0.1689 -0.3955
  963MOL0     C29915   6.286   3.667   3.195  0.2125  0.0915 -0.4118
  963MOL0     C29916   6.244   3.760   3.099 -0.0812  0.5130  0.4875
  963MOL0     O29917   6.175   4.053   3.106  0.3385 -0.1722 -0.2119
  963MOL0     C29918   6.049   4.042   2.779  0.2381 -0.0973 -0.7258
  963MOL0     C29919   6.002   4.134   2.682  0.7354 -0.2901  0.4538
  963MOL0     N29920   5.540   4.739   2.268 -0.2618 -0.2567 -0.0201
  963MOL0     N29921   5.443   4.819   2.311  0.8695  0.4047 -0.8675
  963MOL0     C29922   4.568   4.938   2.899  0.9779 -0.7284 -0.0096
  963MOL0     C29923   4.470   4.988   2.991  0.5256  0.4111  0.1994
  963MOL0     C29924   4.173   5.034   3.338  0.0640 -0.4066 -0.2871
  963MOL0     C29925   4.049   4.956   3.349 -0.0522  0.3380  0.9399
  963MOL0     C29926   3.964   4.968   3.456 -0.2714 -1.2154  0.4527
  963MOL0     C29927   3.997   5.056   3.565 -0.2065  0.4215 -0.0191
  963MOL0     O29928   3.914   5.067   3.678  0.2565  0.7735 -0.0235
  963MOL0     C29929   3.971   5.124   3.794 -0.4044 -0.1209  0.1029
  963MOL0     C29930   3.874   5.104   3.903 -0.4823 -0.4701 -0.0146
  963MOL0     C29931   3.913   5.183   4.027  0.1541  0.5206 -0.9969
  963MOL0     C29932   4.040   5.120   4.106 -0.0369  0.1678  0.5827
  963MOL0     C29933   4.040   5.195   4.236  0.2144  0.2548  0.0081
  963MOL0     C29934   4.056   5.275   4.333  0.6441 -0.0284  0.7151
  963MOL0     C29935   4.108   5.147   3.547  0.1505  0.0511  0.2950
  963MOL0     C29936   4.200   5.128   3.439  1.0940 -0.8195 -0.4315
  963MOL0     C29937   4.304   5.234   3.438  0.6074 -0.4149  0.1561
  963MOL0     H29938   4.235   4.747   2.960  1.5115 -1.2933 -0.7430
  963MOL0     H29939   4.398   4.668   2.793  1.0743  0.8502 -1.5610
  963MOL0     H29940   4.761   4.829   2.603  0.7014 -0.0740 -1.8731
  963MOL0     H29941   4.785   4.886   2.758  2.5873 -1.0076 -0.9211
  963MOL0     H29942   4.794   4.596   2.714  0.9618  1.1327 -4.0156
  963MOL0     H29943   4.835   4.684   2.867 -1.0138 -0.6648 -1.1259
  963MOL0     H29944   4.984   4.780   2.626 -0.4573 -1.9097 -2.6676
  963MOL0     H29945   5.001   4.607   2.647 -0.3642 -0.0900 -0.8003
  963MOL0     H29946   5.079   4.834   2.844  1.1829  0.0524 -0.7946
  963MOL0     H29947   5.044   4.664   2.903 -1.1600  0.5049  0.0219
  963MOL0     H29948   5.279   4.704   2.867 -1.0310 -0.0577  0.9620
  963MOL0     H29949   5.208   4.572   2.770  0.1108 -0.9914 -1.8302
  963MOL0     H29950   5.376   4.675   2.622 -0.3779 -0.1123 -1.8699
  963MOL0     H29951   5.211   4.732   2.557 -1.0542  0.8705  0.2596
  963MOL0     H29952   5.426   4.890   2.713  0.5767  2.0313 -0.5964
  963MOL0     H29953   5.260   4.945   2.692  1.4338  0.9955 -0.0335
  963MOL0     H29954   5.267   4.937   2.464 -0.4175 -2.0966 -0.8062
  963MOL0     H29955   5.400   5.031   2.524 -2.6159  1.4579 -5.2807
  963MOL0     H29956   5.623   4.812   2.583  0.6812 -1.0596 -0.2494
  963MOL0     H29957   5.768   4.601   2.264 -2.9390  0.5401 -0.3625
  963MOL0     H29958   5.833   4.750   2.329 -0.4978  0.4922  0.4677
  963MOL0     H29959   5.821   4.659   2.559  2.9904  0.0036  0.3147
  963MOL0     H29960   5.743   4.507   2.480  2.2114 -0.6453  0.4282
  963MOL0     H29961   6.003   4.641   2.431 -0.6663  0.4898  2.1911
  963MOL0     H29962   5.971   4.474   2.362  1.2474 -0.8272  0.3045
  963MOL0     H29963   5.990   4.528   2.650 -0.3700  0.7834  0.3134
  963MOL0     H29964   6.130   4.470   2.558  0.0552 -2.2046  1.5694
  963MOL0     H29965   6.081   4.444   2.813  0.3475  0.3809  0.8509
  963MOL0     H29966   6.161   4.298   2.985 -2.7451 -0.0045  0.0689
  963MOL0     H29967   6.526   3.921   3.057 -0.6620  1.5466  1.0024
  963MOL0     H29968   6.601   3.763   3.233  1.4028  1.8920 -4.0329
  963MOL0     H29969   6.425   3.648   3.536  1.1000 -2.2494  2.2915
  963MOL0     H29970   6.292   3.550   3.474  0.1252 -1.4830  2.5403
  963MOL0     H29971   6.451   3.348   3.464  0.8835 -3.6711  5.6911
  963MOL0     H29972   6.568   3.452   3.536  0.0769 -0.3167  0.5615
  963MOL0     H29973   6.304   3.390   3.666 -0.3793 -1.7559 -0.3242
  963MOL0     H29974   6.441   3.289   3.690  0.5079 -0.2941 -0.3986
  963MOL0     H29975   6.377   3.571   3.771  0.5398 -0.0921 -2.8932
  963MOL0     H29976   6.545   3.523   3.766  0.3087  1.0344  3.0979
  963MOL0     H29977   6.545   3.362   3.937  0.0009 -1.4862 -1.0012
  963MOL0     H29978   6.375   3.329   3.905  2.3402 -1.1125  0.3688
  963MOL0     H29979   6.318   3.532   4.050  0.1513  0.2820 -0.5484
  963MOL0     H29980   6.408   3.419   4.144  1.0940 -1.0666  0.0869
  963MOL0     H29981   6.587   3.609   3.996  4.3548  1.8641  2.5633
  963MOL0     H29982   6.605   3.529   4.149  2.3280  0.0989 -2.5460
  963MOL0     H29983   6.405   3.759   4.098 -0.2780  0.2358  1.1719
  963MOL0     H29984   6.438   3.694   4.240  1.0045  0.4608  1.0492
  963MOL0     H29985   6.205   3.608   3.237 -2.3840  2.8561 -1.1587
  963MOL0     H29986   6.139   3.752   3.076  0.0170  0.5908  0.0099
  963MOL0     H29987   6.029   3.937   2.762  0.4871 -0.1710 -0.5640
  963MOL0     H29988   5.950   4.085   2.600  0.5220 -0.4724  0.6941
  963MOL0     H29989   4.663   4.988   2.885  0.7295  0.0122  0.8444
  963MOL0     H29990   4.497   5.080   3.040  2.1461 -0.9728  2.0435
  963MOL0     H29991   4.026   4.881   3.273  1.0791 -0.4024  1.3206
  963MOL0     H29992   3.871   4.911   3.456 -0.6909 -0.5545  0.8196
  963MOL0     H29993   4.000   5.229   3.782  0.0482  0.0779  2.4748
  963MOL0     H29994   4.067   5.079   3.823  0.1035  2.1528  2.3193
  963MOL0     H29995   3.879   4.996   3.925 -1.2708  0.0367  3.2151
  963MOL0     H29996   3.780   5.143   3.864  2.0607  3.5332 -2.8649
  963MOL0     H29997   3.828   5.161   4.092  0.5677  1.1770 -0.2192
  963MOL0     H29998   3.924   5.291   4.023  4.8222  0.2380 -2.6562
  963MOL0     H29999   4.025   5.012   4.100  0.0739  0.1867 -0.2185
  963MOL0     H30000   4.132   5.150   4.055 -0.6154 -0.4686 -0.8876
  963MOL0     H30001   4.056   5.358   4.402  0.8971  1.4700 -1.0018
  963MOL0     H30002   4.128   5.221   3.623  0.2406 -0.1066  0.4261
  963MOL0     H30003   4.387   5.195   3.497  0.7433  0.8290  0.8084
  963MOL0     H30004   4.331   5.249   3.333 -2.6800 -0.1790 -0.7628
  963MOL0     H30005   4.278   5.333   3.477  2.0058 -0.2958  0.8486
  964MOL0     O30006   6.895   2.973   7.979 -0.1319 -0.2048  0.1115
  964MOL0     C30007   6.802   3.015   8.050 -0.1747 -0.2704  0.7944
  964MOL0     O30008   6.678   2.964   8.064  0.1140  0.2835  0.6223
  964MOL0     C30009   6.664   2.829   8.023  0.2840 -0.3953 -0.4967
  964MOL0     C30010   6.680   2.736   8.120 -0.5432 -0.8119 -0.0543
  964MOL0     C30011   6.679   2.593   8.081  0.1973 -0.6050 -0.8583
  964MOL0     C30012   6.652   2.567   7.956  0.9282 -0.5885  0.6002
  964MOL0     O30013   6.632   2.434   7.934 -0.5787  0.3614 -0.9357
  964MOL0     C30014   6.665   2.384   7.800 -0.5666 -0.3521  0.0512
  964MOL0     C30015   6.543   2.375   7.703  0.1474  1.1541  0.1627
  964MOL0     C30016   6.418   2.307   7.774  0.2334  0.2146 -0.1945
  964MOL0     C30017   6.389   2.164   7.732  0.3052  0.3539  0.4597
  964MOL0     C30018   6.475   2.059   7.796 -0.4960 -0.1963 -0.0692
  964MOL0     C30019   6.439   1.918   7.738 -0.2086 -0.0178 -0.7937
  964MOL0     C30020   6.315   1.867   7.813 -0.0976 -0.5964 -0.6823
  964MOL0     C30021   6.294   1.710   7.804  0.4273 -0.1806 -0.0249
  964MOL0     N30022   6.418   1.636   7.808  0.9236  0.3737 -0.4773
  964MOL0     C30023   6.502   1.617   7.911 -1.0726 -0.5305  1.1597
  964MOL0     C30024   6.600   1.538   7.858 -0.4247 -0.5609 -0.7635
  964MOL0     C30025   6.723   1.479   7.923  0.2576  0.7895  0.1343
  964MOL0     C30026   6.816   1.587   7.985  0.6051  0.2886  0.0955
  964MOL0     C30027   6.893   1.662   7.866 -0.5168  0.2218 -0.4716
  964MOL0     C30028   6.975   1.778   7.928  0.3281  0.0124  0.0380
  964MOL0     O30029   7.025   1.856   7.826  0.4862  0.0333 -0.9154
  964MOL0     C30030   7.144   1.932   7.852  0.0778  0.0875 -0.3631
  964MOL0     C30031   7.272   1.863   7.876  1.4321 -0.5751 -0.1024
  964MOL0     C30032   7.380   1.944   7.895 -1.0836 -0.5592 -0.2657
  964MOL0     C30033   7.378   2.088   7.916 -0.0909 -0.0984  0.0422
  964MOL0     C30034   7.505   2.167   7.933 -0.0117 -1.6198 -0.5032
  964MOL0     O30035   7.489   2.299   7.937  0.0520  0.3130 -0.0580
  964MOL0     C30036   7.605   2.365   7.967 -0.4696 -0.5216  0.8417
  964MOL0     C30037   7.622   2.411   8.101  0.3661 -0.2057 -0.2649
  964MOL0     C30038   7.732   2.491   8.139  0.3342 -0.1835 -0.6220
  964MOL0     C30039   7.841   2.517   8.045 -0.3444  0.3138  0.1005
  964MOL0     O30040   7.957   2.578   8.081 -0.4446  0.2636 -0.6966
  964MOL0     C30041   7.957   2.677   8.180  0.3983 -0.2754 -1.1943
  964MOL0     C30042   8.100   2.717   8.222  0.5527 -0.7208 -0.3577
  964MOL0     C30043   8.204   2.764   8.111 -0.4178  0.4839 -0.5808
  964MOL0     C30044   8.342   2.760   8.183 -0.2319  1.3787  0.2091
  964MOL0     C30045   8.449   2.754   8.076 -0.4160  0.1718  0.1470
  964MOL0     C30046   8.579   2.790   8.149 -0.4307  0.4887 -0.2459
  964MOL0     C30047   8.693   2.797   8.050  0.1956 -0.8235  0.6541
  964MOL0     C30048   8.835   2.799   8.113  0.3957 -0.5785 -0.3652
  964MOL0    Cl30049   8.869   2.692   8.252  0.1241  0.4113 -0.1288
  964MOL0     C30050   7.824   2.481   7.910 -1.1301 -0.3041  0.4532
  964MOL0     C30051   7.703   2.416   7.875  0.0285 -0.1273  0.6580
  964MOL0     O30052   7.609   2.105   7.915  0.1614 -0.4826 -0.5912
  964MOL0     C30053   7.256   2.149   7.895  0.4712 -0.2624 -0.3344
  964MOL0     C30054   7.144   2.073   7.864  0.0080 -0.4847 -0.2314
  964MOL0     N30055   6.562   1.504   7.734  0.9233 -0.3664 -0.1040
  964MOL0     N30056   6.458   1.571   7.701  0.1923  1.1376  0.3694
  964MOL0     C30057   6.631   2.664   7.859  0.0446  0.3460 -0.4103
  964MOL0     C30058   6.638   2.797   7.887 -0.7893 -0.5131  0.3315
  964MOL0     C30059   6.825   3.135   8.129  0.0795 -0.4101 -0.0518
  964MOL0     C30060   6.723   3.226   8.136 -1.1238 -0.2993  0.6619
  964MOL0     C30061   6.747   3.350   8.208  0.4741  0.9753 -0.8303
  964MOL0     C30062   6.857   3.363   8.291  0.2303 -0.3414 -0.3345
  964MOL0     O30063   6.883   3.469   8.378 -0.1157 -0.4475  0.1241
  964MOL0     C30064   6.770   3.536   8.441 -0.0620  0.8334 -0.4646
  964MOL0     C30065   6.716   3.429   8.540 -0.3014 -0.3634 -0.4088
  964MOL0     C30066   6.650   3.497   8.669  0.3745 -0.8193 -0.6345
  964MOL0     C30067   6.620   3.375   8.771  0.5352 -0.4221 -0.2664
  964MOL0     C30068   6.499   3.416   8.862 -0.7349 -0.7324  0.7456
  964MOL0     C30069   6.412   3.468   8.932  0.0943 -0.4411  0.3996
  964MOL0     C30070   6.955   3.261   8.290 -0.0120 -0.2730 -0.2958
  964MOL0     C30071   6.944   3.151   8.211 -0.1077  0.1110 -0.3511
  964MOL0     C30072   7.043   3.039   8.222 -0.3004  0.4638  0.1889
  964MOL0     H30073   6.692   2.755   8.226 -0.9183 -1.7118  0.1578
  964MOL0     H30074   6.681   2.514   8.157  0.2252 -0.2888 -0.5281
  964MOL0     H30075   6.748   2.441   7.758 -0.2945 -0.4403  0.4601
  964MOL0     H30076   6.700   2.282   7.817  1.8167  0.6849  1.9625
  964MOL0     H30077   6.566   2.306   7.622  2.7518  1.7363  0.3047
  964MOL0     H30078   6.522   2.476   7.668 -0.3603  0.7481 -0.7162
  964MOL0     H30079   6.325   2.365   7.773 -0.0667 -0.0581  2.7269
  964MOL0     H30080   6.451   2.301   7.878  0.9021 -0.9002 -0.4565
  964MOL0     H30081   6.290   2.128   7.761  2.0796 -3.0766  2.9999
  964MOL0     H30082   6.402   2.161   7.624  0.5197 -2.8527  0.4635
  964MOL0     H30083   6.578   2.083   7.770  0.6100  3.2026  5.7780
  964MOL0     H30084   6.486   2.071   7.904  0.0816  0.8259 -0.2275
  964MOL0     H30085   6.419   1.921   7.630  2.3224  0.2694 -1.3326
  964MOL0     H30086   6.525   1.854   7.759  2.5903  2.1787 -4.2871
  964MOL0     H30087   6.226   1.925   7.787 -0.7512 -0.5916  1.4509
  964MOL0     H30088   6.329   1.878   7.921  0.1167 -2.8976 -0.4271
  964MOL0     H30089   6.238   1.672   7.890 -0.8707 -3.9888 -2.3057
  964MOL0     H30090   6.247   1.689   7.708 -0.2445  0.9179  0.0443
  964MOL0     H30091   6.493   1.668   8.006 -1.1001  2.3248 -0.2529
  964MOL0     H30092   6.702   1.398   7.993 -2.4500 -2.5252 -4.0067
  964MOL0     H30093   6.777   1.421   7.848 -0.0699 -1.0082  1.2363
  964MOL0     H30094   6.760   1.656   8.049  0.5607 -0.1446  0.5305
  964MOL0     H30095   6.885   1.540   8.055  0.1733 -0.6458 -0.0894
  964MOL0     H30096   6.827   1.704   7.790  0.8291 -1.7155 -2.8540
  964MOL0     H30097   6.956   1.593   7.809 -0.6275  1.3157 -1.9855
  964MOL0     H30098   7.049   1.735   7.996  0.1993  0.6542  0.6011
  964MOL0     H30099   6.916   1.844   7.993 -1.6391  1.0451 -2.5951
  964MOL0     H30100   7.272   1.755   7.868 -0.4539 -0.6820  0.9312
  964MOL0     H30101   7.478   1.904   7.919  0.4312  3.4445  1.0505
  964MOL0     H30102   7.538   2.380   8.162 -0.2594 -1.0814 -1.5140
  964MOL0     H30103   7.732   2.510   8.246  2.8475  0.6523 -0.7088
  964MOL0     H30104   7.902   2.759   8.133 -1.7749 -0.5381  0.6867
  964MOL0     H30105   7.901   2.660   8.272  2.4230  4.7424  1.3885
  964MOL0     H30106   8.080   2.798   8.293  0.5313 -2.2675  1.4666
  964MOL0     H30107   8.141   2.631   8.276 -0.5140 -0.6548  0.5965
  964MOL0     H30108   8.204   2.695   8.027  3.2099  1.0906 -1.2609
  964MOL0     H30109   8.182   2.866   8.076 -1.5459 -0.0152 -1.3904
  964MOL0     H30110   8.369   2.681   8.254  2.8623 -1.2112 -3.4179
  964MOL0     H30111   8.350   2.864   8.215  1.5539  2.7542 -4.0429
  964MOL0     H30112   8.431   2.839   8.009  1.9425  3.4269  3.2328
  964MOL0     H30113   8.466   2.658   8.027  2.0902 -0.7505  2.5593
  964MOL0     H30114   8.573   2.889   8.195 -1.2160 -0.2817  1.3671
  964MOL0     H30115   8.588   2.704   8.216 -1.1417 -0.1410 -0.9239
  964MOL0     H30116   8.672   2.880   7.982 -0.5433 -0.7188  0.9995
  964MOL0     H30117   8.679   2.707   7.990 -1.2423  0.9399 -1.8174
  964MOL0     H30118   8.912   2.781   8.038  0.2809 -1.7370 -0.2297
  964MOL0     H30119   8.851   2.900   8.152 -0.5472  0.5710 -2.7630
  964MOL0     H30120   7.900   2.509   7.838 -0.0684 -0.1488  1.6021
  964MOL0     H30121   7.698   2.417   7.766 -0.5819  1.3205  0.6800
  964MOL0     H30122   7.242   2.257   7.900  0.3983 -0.3303  2.0988
  964MOL0     H30123   7.055   2.131   7.842  1.0695  0.5805 -1.8793
  964MOL0     H30124   6.614   2.635   7.756  0.9637 -2.5879  0.1774
  964MOL0     H30125   6.617   2.875   7.814  0.2920 -0.4969  0.0192
  964MOL0     H30126   6.640   3.225   8.065 -0.7135  0.7903  0.1452
  964MOL0     H30127   6.669   3.426   8.199 -0.3778 -0.1109 -3.7352
  964MOL0     H30128   6.695   3.569   8.368  1.9759 -0.7605 -3.5160
  964MOL0     H30129   6.827   3.614   8.492  0.9011 -0.5216  0.5886
  964MOL0     H30130   6.796   3.366   8.581 -0.5954  1.0945  2.6712
  964MOL0     H30131   6.642   3.365   8.491  0.1928 -0.1738 -1.4239
  964MOL0     H30132   6.554   3.536   8.634  1.2486  0.5239 -1.6561
  964MOL0     H30133   6.700   3.581   8.718 -1.1304  1.9496 -3.4874
  964MOL0     H30134   6.593   3.284   8.717 -0.5905 -3.5973  4.9598
  964MOL0     H30135   6.702   3.342   8.836 -0.2619 -0.8026  0.5806
  964MOL0     H30136   6.329   3.497   8.993 -1.0573  2.2835 -2.1800
  964MOL0     H30137   7.040   3.273   8.357 -1.2661  0.0624  1.3173
  964MOL0     H30138   7.130   3.050   8.157  1.1022 -0.9331  1.7505
  964MOL0     H30139   7.069   3.033   8.328  0.4643 -0.6431 -0.0436
  964MOL0     H30140   6.999   2.941   8.199 -0.6359  0.6981 -0.1883
  965MOL0     O30141   0.086  10.495   4.383 -0.0005 -0.1348  0.1201
  965MOL0     C30142   0.118  10.616   4.364  0.5013  0.6446  0.6178
  965MOL0     O30143   0.129  10.710   4.465 -1.1172  0.7473 -0.2288
  965MOL0     C30144   0.118  10.678   4.600  0.4600 -0.1770 -0.0694
  965MOL0     C30145   0.195  10.763   4.686  0.8464 -1.0106 -0.2110
  965MOL0     C30146   0.175  10.754   4.826  0.6026  0.7396 -0.3704
  965MOL0     C30147   0.087  10.651   4.887 -1.2959  0.2994 -0.6212
  965MOL0     O30148   0.102  10.649   5.023 -0.2230 -0.6609  0.0186
  965MOL0     C30149  -0.005  10.589   5.098 -0.9434 -0.7063  0.1441
  965MOL0     C30150   0.009  10.594   5.256  0.8142  0.4206 -0.6424
  965MOL0     C30151  -0.020  10.730   5.325  0.4689  0.2568  0.2338
  965MOL0     C30152   0.036  10.734   5.455  0.3803  0.2499 -0.5648
  965MOL0     C30153   0.015  10.869   5.523 -0.6625  0.6496 -0.5017
  965MOL0     C30154   0.085  10.883   5.652 -0.1731 -0.8801 -0.1618
  965MOL0     C30155   0.074  11.036   5.697 -0.8611  0.0537  0.5131
  965MOL0     C30156  -0.067  11.065   5.737  0.2343  0.1436 -0.1350
  965MOL0     N30157  -0.093  11.207   5.734 -0.3667 -1.1922 -0.3216
  965MOL0     C30158  -0.158  11.273   5.638  0.3497 -0.2350 -0.2400
  965MOL0     C30159  -0.130  11.404   5.661 -0.0010  0.4576 -0.8916
  965MOL0     C30160  -0.176  11.527   5.591  0.5184 -0.1303  0.9394
  965MOL0     C30161  -0.321  11.542   5.535  0.3284  0.3698  0.6112
  965MOL0     C30162  -0.350  11.687   5.475  0.3285 -0.0691  0.4084
  965MOL0     C30163  -0.501  11.701   5.474  0.6166 -0.1092 -0.8393
  965MOL0     O30164  -0.561  11.692   5.604 -0.6862 -0.3697  0.3942
  965MOL0     C30165  -0.699  11.697   5.619  0.0840  0.7414  0.2935
  965MOL0     C30166  -0.749  11.673   5.746 -0.3797  0.3705  0.6323
  965MOL0     C30167  -0.889  11.667   5.776  0.0281 -0.1156 -0.0838
  965MOL0     C30168  -0.978  11.694   5.677 -0.0682 -0.2781  0.1109
  965MOL0     C30169  -1.116  11.679   5.706  1.1336  0.1038 -0.4185
  965MOL0     O30170  -1.160  11.670   5.841  0.1568 -0.3571  0.1704
  965MOL0     C30171  -1.293  11.647   5.886  0.3220  0.0977  0.0933
  965MOL0     C30172  -1.408  11.601   5.810 -0.2025  0.0390  0.6515
  965MOL0     C30173  -1.536  11.602   5.860  0.3557  0.3905  0.5896
  965MOL0     C30174  -1.552  11.639   5.999 -0.3524 -0.4674  0.8816
  965MOL0     O30175  -1.675  11.643   6.063 -0.1366  0.2910  0.0442
  965MOL0     C30176  -1.777  11.547   6.027  0.7656  0.3550 -0.7573
  965MOL0     C30177  -1.885  11.533   6.128 -1.2097  0.1469  0.6223
  965MOL0     C30178  -1.846  11.483   6.271  0.7880  0.3665 -0.5678
  965MOL0     C30179  -1.802  11.605   6.355  0.1490 -0.0701  0.4148
  965MOL0     C30180  -1.694  11.562   6.464  0.0640 -0.7956 -0.2453
  965MOL0     C30181  -1.776  11.492   6.572  0.4268 -0.1492 -1.0442
  965MOL0     C30182  -1.687  11.405   6.673  0.0768 -0.1552  0.4755
  965MOL0     C30183  -1.774  11.331   6.770  0.7948 -0.3537 -0.7665
  965MOL0    Cl30184  -1.851  11.442   6.886 -0.0751  0.3820  0.4584
  965MOL0     C30185  -1.443  11.684   6.069  0.1001 -0.4035  0.2914
  965MOL0     C30186  -1.313  11.680   6.015 -0.2220 -0.3422 -0.1304
  965MOL0     O30187  -1.195  11.679   5.611  0.1406  0.1221 -0.0349
  965MOL0     C30188  -0.935  11.730   5.543 -0.7228  0.1449 -0.7255
  965MOL0     C30189  -0.793  11.721   5.515 -0.2582  0.3031 -0.6271
  965MOL0     N30190  -0.056  11.414   5.775  0.1348 -0.0792 -0.7035
  965MOL0     N30191  -0.029  11.298   5.811 -0.2176 -0.6116 -0.8203
  965MOL0     C30192   0.005  10.585   4.802 -0.3011 -0.2206  1.4539
  965MOL0     C30193   0.016  10.597   4.662  0.2494  0.4434 -0.2089
  965MOL0     C30194   0.181  10.643   4.235 -0.2181 -0.7387 -0.1107
  965MOL0     C30195   0.295  10.729   4.231  0.7144  0.4579  0.6325
  965MOL0     C30196   0.364  10.750   4.106  0.1598 -0.0672 -0.6810
  965MOL0     C30197   0.316  10.699   3.988 -0.0331 -0.2933 -0.5611
  965MOL0     O30198   0.391  10.725   3.877 -0.2587 -0.3174 -0.0382
  965MOL0     C30199   0.385  10.643   3.757 -0.1759 -0.0348  0.3906
  965MOL0     C30200   0.430  10.500   3.789 -0.5818 -0.6223  0.2678
  965MOL0     C30201   0.491  10.441   3.660 -0.4678  0.9812 -0.7443
  965MOL0     C30202   0.555  10.303   3.677  0.4920 -0.1706  0.7955
  965MOL0     C30203   0.601  10.252   3.549  0.4454 -0.3344 -0.6540
  965MOL0     C30204   0.622  10.197   3.439 -0.3941 -0.5058  0.3780
  965MOL0     C30205   0.193  10.626   3.989 -0.0617 -0.2053  0.2126
  965MOL0     C30206   0.124  10.589   4.113 -0.8619 -0.3369 -0.0696
  965MOL0     C30207   0.001  10.501   4.107  0.3205  0.4436  0.0432
  965MOL0     H30208   0.262  10.834   4.638 -1.7398  2.0332  0.3240
  965MOL0     H30209   0.229  10.812   4.900 -0.9703 -2.0154  3.2582
  965MOL0     H30210  -0.099  10.643   5.081 -1.2711 -1.3015  0.0331
  965MOL0     H30211   0.003  10.485   5.066  0.3746  0.1898 -2.7781
  965MOL0     H30212   0.111  10.563   5.281  0.5587  0.1904  0.1457
  965MOL0     H30213  -0.055  10.512   5.290 -0.5027  1.1844 -1.2048
  965MOL0     H30214  -0.127  10.754   5.323  0.0974 -1.1643  1.0613
  965MOL0     H30215   0.031  10.807   5.267 -0.0447  0.9111  0.6291
  965MOL0     H30216  -0.009  10.658   5.519  2.3869 -1.8221 -1.4550
  965MOL0     H30217   0.144  10.730   5.436  0.2495 -0.4288 -1.1874
  965MOL0     H30218   0.060  10.942   5.454 -0.9511  0.3008 -1.0606
  965MOL0     H30219  -0.089  10.902   5.531 -0.4157  1.1257  1.1269
  965MOL0     H30220   0.056  10.808   5.726  2.1233 -3.2150 -1.4520
  965MOL0     H30221   0.188  10.856   5.626 -0.5677 -1.0411 -1.6654
  965MOL0     H30222   0.096  11.092   5.606  1.8470 -1.2751  0.2390
  965MOL0     H30223   0.146  11.060   5.776  0.2433 -1.1874 -0.0674
  965MOL0     H30224  -0.142  11.025   5.669  1.0735 -0.5693 -0.6576
  965MOL0     H30225  -0.104  11.024   5.832 -2.8176 -2.8051 -2.3982
  965MOL0     H30226  -0.222  11.227   5.562 -1.6617  2.2106 -0.1624
  965MOL0     H30227  -0.160  11.614   5.656  3.4409  0.7648 -0.7887
  965MOL0     H30228  -0.109  11.540   5.505  1.8640  0.4616  2.0453
  965MOL0     H30229  -0.345  11.462   5.465 -2.1575  0.8453  0.8489
  965MOL0     H30230  -0.394  11.531   5.616 -1.3980 -2.4693 -1.1597
  965MOL0     H30231  -0.321  11.695   5.370 -2.0572 -0.8234 -0.3522
  965MOL0     H30232  -0.294  11.767   5.526  1.1988 -0.0949 -0.4759
  965MOL0     H30233  -0.546  11.629   5.406 -1.1588  0.5203 -0.3961
  965MOL0     H30234  -0.535  11.798   5.439 -0.9372 -0.5170 -0.5368
  965MOL0     H30235  -0.672  11.641   5.815  1.3796  0.7549 -1.0678
  965MOL0     H30236  -0.915  11.647   5.879 -1.9232 -1.0412 -0.7063
  965MOL0     H30237  -1.391  11.581   5.705  1.0496  1.7311  0.4838
  965MOL0     H30238  -1.612  11.584   5.784 -0.8296  0.6950  1.6650
  965MOL0     H30239  -1.819  11.570   5.929 -1.0582 -0.6966 -0.2665
  965MOL0     H30240  -1.748  11.441   6.026 -1.9010 -0.5552  2.0294
  965MOL0     H30241  -1.924  11.635   6.134  0.2965  0.7708  0.1585
  965MOL0     H30242  -1.962  11.461   6.100 -1.5484  0.2901  1.1552
  965MOL0     H30243  -1.932  11.449   6.331  0.5001  2.6145  0.4108
  965MOL0     H30244  -1.766  11.409   6.265  0.2949 -0.0889 -1.9379
  965MOL0     H30245  -1.889  11.648   6.405 -0.8106 -3.6073  2.1042
  965MOL0     H30246  -1.751  11.681   6.295 -0.1160 -1.7030 -2.0280
  965MOL0     H30247  -1.641  11.652   6.496 -1.7893  0.7254 -1.2581
  965MOL0     H30248  -1.621  11.487   6.431  0.8410 -1.0408  1.8890
  965MOL0     H30249  -1.843  11.555   6.631  0.7744 -1.8371  1.3119
  965MOL0     H30250  -1.835  11.417   6.518  1.2787 -2.1603  0.6709
  965MOL0     H30251  -1.618  11.467   6.732  0.2345 -0.1827  0.3227
  965MOL0     H30252  -1.633  11.326   6.620 -2.3075  0.1477 -2.6644
  965MOL0     H30253  -1.844  11.268   6.716  1.6223 -0.5578 -1.6331
  965MOL0     H30254  -1.708  11.264   6.827  0.2482 -0.4604 -0.2440
  965MOL0     H30255  -1.444  11.722   6.171 -3.1702 -0.4071  0.3780
  965MOL0     H30256  -1.222  11.708   6.068  1.8010  1.4851 -4.1020
  965MOL0     H30257  -1.004  11.758   5.464 -2.8023 -3.3923 -0.3349
  965MOL0     H30258  -0.773  11.731   5.409  2.4468  1.8218 -0.0745
  965MOL0     H30259  -0.067  10.513   4.840 -2.3878 -2.0187 -4.7835
  965MOL0     H30260  -0.057  10.546   4.600  1.0965 -1.2067  0.0902
  965MOL0     H30261   0.328  10.791   4.315  0.3297 -0.9065  1.8372
  965MOL0     H30262   0.448  10.813   4.079  0.1431  0.9400  1.4383
  965MOL0     H30263   0.436  10.691   3.673 -5.3276  1.2802 -2.4154
  965MOL0     H30264   0.284  10.641   3.717  0.5475 -1.7405 -1.4970
  965MOL0     H30265   0.340  10.450   3.826 -0.9737  0.2272  0.4856
  965MOL0     H30266   0.505  10.510   3.867  2.2805  0.1233 -2.3853
  965MOL0     H30267   0.566  10.511   3.621  2.4814 -2.2102 -1.3778
  965MOL0     H30268   0.415  10.426   3.583 -0.0302  0.2891 -1.0511
  965MOL0     H30269   0.641  10.306   3.744  0.8270 -0.0031  0.3576
  965MOL0     H30270   0.479  10.231   3.708 -1.8212  1.5762 -0.5017
  965MOL0     H30271   0.636  10.155   3.341 -0.3967  0.3581 -0.0037
  965MOL0     H30272   0.151  10.598   3.893 -1.5933  1.4383  0.3286
  965MOL0     H30273  -0.093  10.531   4.154  2.4601  2.2450  3.5694
  965MOL0     H30274  -0.020  10.467   4.005 -0.1226 -0.4996  0.4283
  965MOL0     H30275   0.020  10.400   4.144 -4.3050 -0.7948 -0.3485
  966MOL0     O30276   0.364   4.866   7.805 -0.0619  0.5523  0.4141
  966MOL0     C30277   0.383   4.917   7.917  0.2387  0.1639  0.4562
  966MOL0     O30278   0.325   5.041   7.955  0.2927 -0.0232 -0.5895
  966MOL0     C30279   0.256   5.115   7.861  0.3267 -1.0594 -0.2314
  966MOL0     C30280   0.144   5.192   7.891  0.9040  0.1024  0.7372
  966MOL0     C30281   0.081   5.274   7.792 -0.1577 -0.4083  1.6123
  966MOL0     C30282   0.136   5.290   7.659  0.4404 -0.2556 -1.4087
  966MOL0     O30283   0.094   5.378   7.558 -0.1149  0.2360 -0.7699
  966MOL0     C30284   0.040   5.509   7.592  0.1159 -1.0376 -0.2212
  966MOL0     C30285   0.086   5.600   7.486  0.6293 -0.1817  0.3612
  966MOL0     C30286  -0.011   5.722   7.472 -0.2701 -0.0734  0.5741
  966MOL0     C30287   0.034   5.811   7.364  0.1545  0.0795  0.7250
  966MOL0     C30288  -0.050   5.934   7.345  0.7654  0.1714 -0.4167
  966MOL0     C30289  -0.012   6.013   7.223 -0.5757  0.8047 -0.3315
  966MOL0     C30290  -0.092   6.152   7.218  0.0358  0.3040 -0.4912
  966MOL0     C30291  -0.064   6.211   7.081  1.4503  0.1390 -0.2162
  966MOL0     N30292  -0.147   6.137   6.972 -0.2585  0.1975 -0.0043
  966MOL0     C30293  -0.277   6.111   6.971 -0.3536  0.1617  0.4238
  966MOL0     C30294  -0.298   6.074   6.849 -0.5054  0.2116 -0.0836
  966MOL0     C30295  -0.427   6.019   6.787 -1.3651  0.2471 -1.0698
  966MOL0     C30296  -0.517   5.939   6.885 -0.3634  0.0186 -0.6074
  966MOL0     C30297  -0.639   5.886   6.813  0.6339 -0.5014 -0.5676
  966MOL0     C30298  -0.743   5.989   6.772  0.9568  0.0499 -0.2937
  966MOL0     O30299  -0.782   6.075   6.877 -0.1379  0.6611 -0.0934
  966MOL0     C30300  -0.872   6.033   6.958  0.5637  0.6091 -1.1045
  966MOL0     C30301  -0.927   5.900   6.958  0.3299 -0.4626  0.3086
  966MOL0     C30302  -1.027   5.860   7.050 -0.0625  1.1096 -0.7829
  966MOL0     C30303  -1.062   5.944   7.156  1.1502 -0.0282 -0.0220
  966MOL0     C30304  -1.170   5.897   7.254  0.3694  0.8026  0.0640
  966MOL0     O30305  -1.233   5.991   7.324 -0.4034  0.4174  0.4125
  966MOL0     C30306  -1.345   5.982   7.406 -0.4715  0.1629 -0.6547
  966MOL0     C30307  -1.376   6.099   7.479  0.2502 -0.5913  0.1267
  966MOL0     C30308  -1.490   6.104   7.568 -0.0751  0.2542  1.0377
  966MOL0     C30309  -1.575   5.989   7.575  1.4885 -0.7242  0.2075
  966MOL0     O30310  -1.691   5.964   7.647 -0.5865 -0.2002 -0.0890
  966MOL0     C30311  -1.754   6.086   7.693 -0.2846 -0.0362  0.0909
  966MOL0     C30312  -1.853   6.058   7.798 -0.6844  0.5191 -0.0946
  966MOL0     C30313  -1.920   6.178   7.857 -0.1164 -0.1611  0.2247
  966MOL0     C30314  -2.025   6.236   7.749  0.5556 -0.3031 -0.5216
  966MOL0     C30315  -2.092   6.365   7.801  0.7746  0.4057  0.5433
  966MOL0     C30316  -2.159   6.437   7.685 -1.2184 -0.5771  0.7464
  966MOL0     C30317  -2.287   6.513   7.724 -0.4900 -0.0455  0.0199
  966MOL0     C30318  -2.332   6.628   7.636  0.5040 -0.2445  0.1572
  966MOL0    Cl30319  -2.206   6.735   7.588 -0.0758 -0.1735  0.1089
  966MOL0     C30320  -1.550   5.889   7.489 -0.1610  0.0135 -0.0097
  966MOL0     C30321  -1.438   5.874   7.412 -0.1968 -0.1126  0.8194
  966MOL0     O30322  -1.207   5.783   7.242  0.7411  0.0480  0.3109
  966MOL0     C30323  -1.006   6.066   7.160 -0.3635  0.1649 -0.2392
  966MOL0     C30324  -0.915   6.116   7.064  0.6022 -0.0157  0.5466
  966MOL0     N30325  -0.190   6.078   6.772  0.5195  0.2293  0.6896
  966MOL0     N30326  -0.095   6.133   6.851 -0.4848  0.8655  0.1961
  966MOL0     C30327   0.242   5.210   7.633  0.1365 -0.3898  1.1892
  966MOL0     C30328   0.304   5.135   7.731 -1.5627 -0.3890 -0.8635
  966MOL0     C30329   0.466   4.862   8.025 -0.6711  0.6260 -0.3881
  966MOL0     C30330   0.497   4.945   8.133 -0.0534  0.0532 -0.2327
  966MOL0     C30331   0.566   4.887   8.247  0.7890  0.3820  0.3338
  966MOL0     C30332   0.591   4.748   8.252 -0.9011 -0.4102 -0.2670
  966MOL0     O30333   0.677   4.690   8.346  0.0370  0.3479  0.2886
  966MOL0     C30334   0.637   4.572   8.419 -0.7148  0.5245  0.4396
  966MOL0     C30335   0.667   4.601   8.566 -0.5191 -0.6038 -0.8334
  966MOL0     C30336   0.572   4.529   8.658 -0.3021 -0.7103  0.7434
  966MOL0     C30337   0.618   4.384   8.694  0.0952  0.7042 -0.2940
  966MOL0     C30338   0.512   4.293   8.731  0.8165 -0.6639 -0.2849
  966MOL0     C30339   0.425   4.213   8.733  0.1356  0.5248 -0.1912
  966MOL0     C30340   0.565   4.673   8.138 -1.0166  0.0576 -1.0672
  966MOL0     C30341   0.514   4.731   8.023  0.0725  0.2582  0.6095
  966MOL0     C30342   0.508   4.639   7.907 -0.3967  0.3166  0.6357
  966MOL0     H30343   0.092   5.202   7.986 -2.4858  3.5759 -1.1934
  966MOL0     H30344   0.001   5.338   7.828 -0.4445  0.7508 -0.8719
  966MOL0     H30345  -0.069   5.507   7.594  0.0511  1.1263 -0.1195
  966MOL0     H30346   0.073   5.547   7.689 -0.5172 -3.3369  0.9647
  966MOL0     H30347   0.112   5.554   7.390  1.3862  1.1431 -0.0943
  966MOL0     H30348   0.178   5.644   7.524 -1.0828  1.6474  2.7326
  966MOL0     H30349  -0.002   5.787   7.561  2.0449  1.6296 -0.7837
  966MOL0     H30350  -0.113   5.685   7.467  0.3303 -1.7792  0.4029
  966MOL0     H30351   0.137   5.841   7.387  0.6578 -1.5758  0.8296
  966MOL0     H30352   0.032   5.759   7.267 -1.8705  0.6458  0.4217
  966MOL0     H30353  -0.153   5.901   7.329  0.4592  1.6903 -1.8851
  966MOL0     H30354  -0.028   5.996   7.432 -1.0024 -0.1466  0.3096
  966MOL0     H30355   0.096   6.034   7.218 -0.5346  0.4687 -1.1116
  966MOL0     H30356  -0.028   5.957   7.130 -1.8060  0.6193 -0.0245
  966MOL0     H30357  -0.048   6.212   7.298 -1.4994 -0.0174  0.6696
  966MOL0     H30358  -0.197   6.149   7.251 -0.0829 -0.1706 -0.8860
  966MOL0     H30359  -0.092   6.317   7.090 -0.0331  0.1383 -3.5347
  966MOL0     H30360   0.038   6.207   7.043  0.6392 -2.9178 -2.4252
  966MOL0     H30361  -0.338   6.125   7.060  3.0488 -1.2086  3.2047
  966MOL0     H30362  -0.481   6.101   6.738 -1.8177  0.4934 -0.1862
  966MOL0     H30363  -0.397   5.962   6.699  1.2486 -2.2536  1.2006
  966MOL0     H30364  -0.459   5.851   6.915 -1.3798 -0.9550 -1.4137
  966MOL0     H30365  -0.548   6.012   6.961 -0.6503  1.5125 -2.1000
  966MOL0     H30366  -0.694   5.822   6.883 -1.9396  1.2625 -0.8614
  966MOL0     H30367  -0.607   5.827   6.727  1.0029 -1.3133  0.1041
  966MOL0     H30368  -0.830   5.944   6.723 -1.3948  6.2935 -2.9041
  966MOL0     H30369  -0.715   6.052   6.687  0.6516  0.2412 -0.2558
  966MOL0     H30370  -0.894   5.828   6.884 -0.8379 -0.3206 -0.3747
  966MOL0     H30371  -1.064   5.761   7.025 -0.5085  1.5288 -1.8379
  966MOL0     H30372  -1.318   6.190   7.470  0.8860 -1.1809 -3.9368
  966MOL0     H30373  -1.498   6.195   7.628  0.6362  0.4225  0.8926
  966MOL0     H30374  -1.676   6.155   7.725  0.1698 -0.1919 -0.6497
  966MOL0     H30375  -1.799   6.127   7.602  1.5738 -0.0846 -0.8910
  966MOL0     H30376  -1.932   5.995   7.757 -0.3208  0.6290 -0.9743
  966MOL0     H30377  -1.803   6.015   7.886 -0.0373 -1.1366 -1.2223
  966MOL0     H30378  -1.969   6.144   7.948  3.6190 -2.5246  1.5998
  966MOL0     H30379  -1.847   6.257   7.879  0.8637 -1.4274  1.7473
  966MOL0     H30380  -2.093   6.150   7.739  2.0307 -2.5893  5.1626
  966MOL0     H30381  -1.980   6.264   7.653  2.5777 -0.3753  0.3582
  966MOL0     H30382  -2.020   6.442   7.831  2.5582  0.8801 -4.1391
  966MOL0     H30383  -2.171   6.346   7.875 -1.0016 -3.0755 -1.9655
  966MOL0     H30384  -2.087   6.501   7.632 -1.3835 -0.1610  1.0139
  966MOL0     H30385  -2.181   6.356   7.615 -0.8151 -1.0383  1.1461
  966MOL0     H30386  -2.289   6.540   7.830 -2.2859 -0.0725  0.0192
  966MOL0     H30387  -2.366   6.437   7.722 -1.4681  0.9043  1.3972
  966MOL0     H30388  -2.392   6.587   7.555 -1.5200 -0.9902  1.9393
  966MOL0     H30389  -2.387   6.686   7.710  1.4578  1.3998 -0.3656
  966MOL0     H30390  -1.635   5.822   7.478 -0.5048  0.7134 -1.9677
  966MOL0     H30391  -1.429   5.781   7.356 -2.0830 -2.5538  4.1855
  966MOL0     H30392  -1.036   6.126   7.245  0.5078 -0.2164  0.3505
  966MOL0     H30393  -0.865   6.211   7.077  0.2069  0.0698  1.4862
  966MOL0     H30394   0.285   5.217   7.534 -1.5721 -3.3797  0.0929
  966MOL0     H30395   0.395   5.079   7.712 -2.2895 -1.8853 -0.1334
  966MOL0     H30396   0.482   5.052   8.127  1.6978  0.3353 -0.0274
  966MOL0     H30397   0.599   4.954   8.326  0.0850 -0.4522  1.3566
  966MOL0     H30398   0.704   4.497   8.377  0.2836  0.2926  2.3570
  966MOL0     H30399   0.535   4.544   8.390 -0.3659 -0.5127  0.1768
  966MOL0     H30400   0.652   4.709   8.575  0.3700 -0.2514 -2.9952
  966MOL0     H30401   0.772   4.578   8.583  0.3545  1.8177 -2.4168
  966MOL0     H30402   0.483   4.516   8.595  0.5686 -0.0805 -0.6522
  966MOL0     H30403   0.553   4.585   8.750  1.9700 -0.1069  0.8835
  966MOL0     H30404   0.650   4.328   8.606 -1.7899  2.2682 -2.0862
  966MOL0     H30405   0.687   4.387   8.779  0.1390 -0.7781 -0.2489
  966MOL0     H30406   0.352   4.135   8.725  1.1694 -0.4800  0.0721
  966MOL0     H30407   0.590   4.569   8.122  1.1385  0.1446  1.2170
  966MOL0     H30408   0.550   4.694   7.822 -2.3224  1.2811  0.2683
  966MOL0     H30409   0.564   4.549   7.934 -0.6329  0.4777  1.7365
  966MOL0     H30410   0.405   4.612   7.884  0.7318 -2.8753 -1.1874
  967MOL0     O30411   8.166   3.771   5.205  0.1687  0.0887  0.3416
  967MOL0     C30412   8.177   3.831   5.308 -0.4470 -1.1186 -1.0894
  967MOL0     O30413   8.215   3.963   5.327  0.4159 -0.2569  0.0899
  967MOL0     C30414   8.243   4.034   5.214 -0.1085 -0.4656  0.5424
  967MOL0     C30415   8.372   4.031   5.155  0.5056  0.5882 -0.2106
  967MOL0     C30416   8.408   4.119   5.046  0.3038  0.8778  0.5827
  967MOL0     C30417   8.317   4.215   4.998 -0.3207  1.2428  0.9012
  967MOL0     O30418   8.341   4.288   4.890  0.3583 -0.0447  1.0281
  967MOL0     C30419   8.460   4.273   4.803 -0.2834 -0.8849 -1.0957
  967MOL0     C30420   8.591   4.323   4.872  1.2600 -0.1710 -0.1879
  967MOL0     C30421   8.606   4.463   4.809  0.2327 -0.0905  1.1602
  967MOL0     C30422   8.737   4.524   4.864  0.6382 -0.3672 -0.3753
  967MOL0     C30423   8.872   4.459   4.815 -1.5425 -0.4616 -0.6844
  967MOL0     C30424   8.903   4.492   4.671  0.5086  0.1605 -0.4654
  967MOL0     C30425   9.044   4.456   4.631  0.0553  0.7680 -0.0846
  967MOL0     C30426   9.069   4.474   4.480 -0.2016  0.2349  0.0458
  967MOL0     N30427   8.979   4.375   4.410  0.5318 -0.1993 -0.2677
  967MOL0     C30428   8.987   4.227   4.419 -0.3326 -0.2320 -0.8166
  967MOL0     C30429   8.879   4.188   4.342  0.3616 -1.6179 -0.6103
  967MOL0     C30430   8.831   4.049   4.339  0.6014 -0.6700 -0.6787
  967MOL0     C30431   8.843   3.962   4.455  0.4429  0.4300 -0.5964
  967MOL0     C30432   8.975   3.888   4.462  0.0574  1.1242  0.4532
  967MOL0     C30433   9.018   3.868   4.604 -0.3333  0.4777 -0.4352
  967MOL0     O30434   9.088   3.983   4.653 -0.3319  0.3848  0.4835
  967MOL0     C30435   9.153   3.955   4.774 -0.0837  0.8587 -0.3060
  967MOL0     C30436   9.241   4.055   4.815 -0.2600 -0.0720  0.3378
  967MOL0     C30437   9.308   4.051   4.936  0.5567 -0.2092 -0.0396
  967MOL0     C30438   9.303   3.932   5.017 -1.1913 -0.1476 -0.3382
  967MOL0     C30439   9.380   3.922   5.144  0.0274 -0.6672 -0.1470
  967MOL0     O30440   9.434   4.048   5.200 -0.0244  0.4782 -0.2961
  967MOL0     C30441   9.514   4.053   5.315  0.2472 -0.6248 -0.8754
  967MOL0     C30442   9.585   3.943   5.367  0.2095  0.3815 -0.3691
  967MOL0     C30443   9.670   3.961   5.487 -0.0269  0.5590 -0.8895
  967MOL0     C30444   9.686   4.087   5.540 -0.5394 -0.9923  0.2617
  967MOL0     O30445   9.786   4.101   5.634 -0.0406  0.0935 -0.8473
  967MOL0     C30446   9.923   4.082   5.598 -0.2881  0.5099  1.0393
  967MOL0     C30447  10.020   4.137   5.705  0.5482 -0.0662 -0.4669
  967MOL0     C30448  10.148   4.060   5.737  0.6049 -0.7979 -0.4118
  967MOL0     C30449  10.206   4.126   5.870  0.2067  1.0225 -0.3898
  967MOL0     C30450  10.332   4.043   5.923 -0.0488  0.6584  0.2860
  967MOL0     C30451  10.308   3.890   5.955  0.2068 -0.4957 -1.3032
  967MOL0     C30452  10.188   3.865   6.061  0.7510 -0.5039  0.5084
  967MOL0     C30453  10.189   3.725   6.116  0.7950  0.0933 -0.1091
  967MOL0    Cl30454  10.321   3.685   6.224  0.9279 -0.1306  0.3789
  967MOL0     C30455   9.616   4.197   5.484 -0.1950 -0.2061  1.9701
  967MOL0     C30456   9.536   4.180   5.374  0.6134  0.7707  0.6603
  967MOL0     O30457   9.374   3.808   5.196 -0.7103 -0.4173 -0.1623
  967MOL0     C30458   9.210   3.836   4.975  0.0148  0.6526  0.1818
  967MOL0     C30459   9.129   3.847   4.863  0.4798 -0.3571 -0.0913
  967MOL0     N30460   8.828   4.302   4.278 -0.8067 -0.3969  0.0481
  967MOL0     N30461   8.877   4.415   4.327 -0.3762 -0.3068 -0.1574
  967MOL0     C30462   8.189   4.209   5.055  0.1304  0.0705  0.5881
  967MOL0     C30463   8.149   4.120   5.158 -0.0019 -0.2585  0.5247
  967MOL0     C30464   8.122   3.765   5.426  0.6947 -0.4940  0.2904
  967MOL0     C30465   8.052   3.839   5.523  0.6154  0.2652  0.1365
  967MOL0     C30466   7.982   3.780   5.630  0.7294 -0.8389 -0.2577
  967MOL0     C30467   7.994   3.644   5.650  0.1427  0.6614 -0.8904
  967MOL0     O30468   7.923   3.583   5.752  0.3622  0.1794 -0.1540
  967MOL0     C30469   7.874   3.656   5.869  0.7911 -0.0922 -0.8721
  967MOL0     C30470   7.987   3.718   5.958 -0.2272  0.3900 -0.3764
  967MOL0     C30471   7.934   3.792   6.086 -0.5940 -0.1747 -0.0363
  967MOL0     C30472   7.906   3.698   6.207  0.3227 -0.2232 -0.4787
  967MOL0     C30473   7.838   3.784   6.300  0.0552  0.0109 -0.5582
  967MOL0     C30474   7.800   3.855   6.392 -0.5437  1.2443  0.5076
  967MOL0     C30475   8.079   3.570   5.566  0.2244  0.2379 -0.0154
  967MOL0     C30476   8.140   3.628   5.452  0.6160 -0.0606  0.1401
  967MOL0     C30477   8.230   3.534   5.372 -0.9196  0.4961 -0.6255
  967MOL0     H30478   8.445   3.961   5.193 -0.0168  1.0992  1.9068
  967MOL0     H30479   8.511   4.120   5.011  0.3906 -0.6596  0.7238
  967MOL0     H30480   8.478   4.173   4.764  2.4432 -0.0142 -2.2949
  967MOL0     H30481   8.439   4.328   4.710 -0.3939 -1.9154 -1.6988
  967MOL0     H30482   8.676   4.259   4.846  1.7852  0.6975 -0.7121
  967MOL0     H30483   8.581   4.342   4.979 -2.9174 -0.1776 -0.4275
  967MOL0     H30484   8.522   4.526   4.840  0.5324  0.4760  0.8238
  967MOL0     H30485   8.605   4.452   4.700  0.5563  1.4515  0.9837
  967MOL0     H30486   8.740   4.633   4.851 -1.5678  0.1391  2.5003
  967MOL0     H30487   8.731   4.515   4.973  1.5106 -0.3887 -0.3210
  967MOL0     H30488   8.960   4.494   4.869  0.5649  1.1990 -4.7308
  967MOL0     H30489   8.880   4.350   4.829  2.4466 -0.2867 -0.6084
  967MOL0     H30490   8.827   4.433   4.619  1.9025 -1.4991 -0.7009
  967MOL0     H30491   8.881   4.598   4.655  3.4246  0.5409 -2.6378
  967MOL0     H30492   9.061   4.353   4.663 -3.7374  0.9161  3.2726
  967MOL0     H30493   9.117   4.513   4.689 -0.1772  0.0832  0.9042
  967MOL0     H30494   9.045   4.573   4.441  2.9030  1.5139  1.1158
  967MOL0     H30495   9.175   4.456   4.461 -0.5600 -1.2609 -0.7436
  967MOL0     H30496   9.054   4.163   4.474  1.2095  1.1862 -0.9762
  967MOL0     H30497   8.725   4.043   4.314  0.9871  2.0623 -3.6595
  967MOL0     H30498   8.887   4.010   4.253  0.6555  1.0965 -1.5071
  967MOL0     H30499   8.827   4.023   4.545 -0.7038 -0.4146 -0.1963
  967MOL0     H30500   8.768   3.882   4.454  1.7111 -0.8106 -0.7130
  967MOL0     H30501   9.050   3.941   4.404  0.6941 -0.3611 -0.1384
  967MOL0     H30502   8.958   3.791   4.415  0.6975  1.1923  0.0647
  967MOL0     H30503   9.082   3.780   4.609 -0.6340  0.1128 -2.2250
  967MOL0     H30504   8.924   3.848   4.656 -1.1263 -0.5749 -2.1690
  967MOL0     H30505   9.257   4.134   4.743  1.2565  0.6296  1.3960
  967MOL0     H30506   9.368   4.133   4.973 -1.8122  2.0257 -0.8206
  967MOL0     H30507   9.551   3.849   5.322 -2.3115  1.8697 -1.8499
  967MOL0     H30508   9.720   3.877   5.534  1.7077  1.7560 -0.4918
  967MOL0     H30509   9.936   3.975   5.578 -0.6237  0.6501  0.0688
  967MOL0     H30510   9.942   4.135   5.505  1.9180 -3.6519 -1.1843
  967MOL0     H30511  10.045   4.239   5.673  0.8908  0.2015  0.6248
  967MOL0     H30512   9.947   4.143   5.786 -1.0731  0.0027 -1.8800
  967MOL0     H30513  10.126   3.958   5.770  1.0592 -0.8594 -0.2813
  967MOL0     H30514  10.224   4.067   5.658  0.3610 -3.6427 -1.0024
  967MOL0     H30515  10.132   4.133   5.950 -2.0979 -3.5331 -1.7946
  967MOL0     H30516  10.239   4.226   5.839  2.6567  0.1147 -0.9440
  967MOL0     H30517  10.364   4.073   6.023  0.2266 -2.0214  1.0641
  967MOL0     H30518  10.416   4.050   5.853 -1.9818  0.0319 -2.2510
  967MOL0     H30519  10.284   3.843   5.859 -1.7746 -2.5466  0.1102
  967MOL0     H30520  10.403   3.857   5.997 -0.9123 -2.1009  0.0827
  967MOL0     H30521  10.093   3.894   6.015  2.6296  0.1967 -3.2705
  967MOL0     H30522  10.215   3.934   6.142  2.3583  1.2781 -1.4353
  967MOL0     H30523  10.088   3.707   6.154 -0.1372  0.3304 -2.3529
  967MOL0     H30524  10.186   3.646   6.041 -1.4126 -1.0405  1.0672
  967MOL0     H30525   9.632   4.300   5.514  1.3238  1.2680 -2.9944
  967MOL0     H30526   9.488   4.265   5.325 -1.5360 -0.2688  0.8410
  967MOL0     H30527   9.200   3.745   5.034 -0.0123  1.6892  1.8540
  967MOL0     H30528   9.056   3.772   4.836 -1.5956  1.0422  1.3081
  967MOL0     H30529   8.119   4.280   5.012  0.2404  0.6601  1.3577
  967MOL0     H30530   8.057   4.129   5.215  0.9175 -0.2388  2.0593
  967MOL0     H30531   8.020   3.941   5.505 -2.0834 -1.1734 -4.8711
  967MOL0     H30532   7.912   3.846   5.679 -0.2654 -2.1832  0.2092
  967MOL0     H30533   7.820   3.583   5.929 -3.1249  1.9316 -1.6343
  967MOL0     H30534   7.806   3.737   5.841 -3.0700 -1.7165  2.8613
  967MOL0     H30535   8.044   3.783   5.892  0.7864  0.1027  0.2081
  967MOL0     H30536   8.051   3.637   5.995 -0.4399 -0.7253 -2.3004
  967MOL0     H30537   7.838   3.842   6.071 -0.8744 -0.9847 -1.1376
  967MOL0     H30538   8.008   3.868   6.110 -0.3672 -0.7116  1.0177
  967MOL0     H30539   7.841   3.615   6.177  0.2592 -1.1939  2.0882
  967MOL0     H30540   7.995   3.659   6.258 -2.5124 -2.2453  3.4281
  967MOL0     H30541   7.763   3.910   6.476 -1.1754  0.7903  0.5321
  967MOL0     H30542   8.084   3.463   5.583 -0.0144  0.2488  0.1164
  967MOL0     H30543   8.329   3.578   5.357 -1.4510  0.9305 -3.4977
  967MOL0     H30544   8.243   3.443   5.430 -0.2425 -0.7971 -2.7113
  967MOL0     H30545   8.187   3.515   5.273 -1.2924 -0.9947 -0.2052
  968MOL0     O30546   2.990   7.271   6.354 -0.2613 -1.0793  0.6305
  968MOL0     C30547   2.976   7.368   6.274  0.2681 -0.2184  0.3768
  968MOL0     O30548   3.039   7.365   6.152  0.3488 -0.1769 -0.3233
  968MOL0     C30549   3.111   7.260   6.112 -1.1529  0.6237 -0.5551
  968MOL0     C30550   3.057   7.127   6.098  0.2458  0.2410 -0.4933
  968MOL0     C30551   3.144   7.019   6.072  1.0237  0.7839 -0.6138
  968MOL0     C30552   3.281   7.040   6.051 -0.5697 -0.6162 -0.6840
  968MOL0     O30553   3.357   6.940   6.007 -0.0686 -0.3120 -0.3884
  968MOL0     C30554   3.421   6.933   5.881 -1.1578  0.4310 -0.1990
  968MOL0     C30555   3.325   6.915   5.764 -0.3903 -0.5658 -0.5239
  968MOL0     C30556   3.278   6.773   5.751 -0.2795  0.5650  0.0380
  968MOL0     C30557   3.213   6.747   5.616 -0.1808  0.4881  0.1772
  968MOL0     C30558   3.153   6.607   5.619 -0.0716  1.0043 -0.5263
  968MOL0     C30559   3.076   6.570   5.484 -0.4649  0.0612  0.0376
  968MOL0     C30560   3.076   6.417   5.463 -0.6570 -0.5933 -0.4934
  968MOL0     C30561   3.017   6.385   5.313 -0.4198  0.1763  0.2020
  968MOL0     N30562   2.873   6.357   5.331 -0.2575 -0.3339  0.0720
  968MOL0     C30563   2.772   6.446   5.336 -0.2371  0.2650 -0.0584
  968MOL0     C30564   2.661   6.378   5.371 -0.9856  0.5221  1.0631
  968MOL0     C30565   2.524   6.438   5.376  0.8133 -0.6234  0.9291
  968MOL0     C30566   2.499   6.515   5.505 -1.1093 -0.1670  0.3454
  968MOL0     C30567   2.503   6.425   5.630 -0.9311  0.8187  0.6537
  968MOL0     C30568   2.487   6.513   5.752 -1.2776 -0.4722  0.3723
  968MOL0     O30569   2.366   6.589   5.737 -0.5705  0.3696 -0.5212
  968MOL0     C30570   2.285   6.617   5.840 -1.0515  0.8884  0.0350
  968MOL0     C30571   2.279   6.549   5.958  0.1713  0.1484 -1.1222
  968MOL0     C30572   2.172   6.571   6.046 -0.1722 -0.0681  0.0089
  968MOL0     C30573   2.077   6.666   6.021 -1.1255  0.5633  0.2191
  968MOL0     C30574   1.961   6.689   6.113  1.0896  0.4509 -0.5466
  968MOL0     O30575   1.951   6.603   6.220  0.0619 -0.3341  1.0095
  968MOL0     C30576   1.861   6.616   6.318 -1.1540 -0.2309 -1.1164
  968MOL0     C30577   1.743   6.693   6.322 -0.4058 -0.1357 -0.6607
  968MOL0     C30578   1.668   6.714   6.437 -0.1483 -0.3942  0.7883
  968MOL0     C30579   1.718   6.660   6.558  0.4208 -0.5369  1.0806
  968MOL0     O30580   1.653   6.687   6.676  0.2803 -0.5116  0.1162
  968MOL0     C30581   1.528   6.641   6.692 -0.4004  0.6963 -0.3522
  968MOL0     C30582   1.547   6.510   6.757  0.6936  0.1377 -0.1487
  968MOL0     C30583   1.574   6.382   6.678  0.3231  0.2107 -0.3018
  968MOL0     C30584   1.626   6.269   6.764  0.3000  0.2076  0.3546
  968MOL0     C30585   1.626   6.140   6.691  0.4926 -0.8989  0.4053
  968MOL0     C30586   1.671   6.016   6.771  0.2552  0.4173 -0.4580
  968MOL0     C30587   1.669   5.881   6.691 -0.4143 -0.0223  0.1527
  968MOL0     C30588   1.538   5.842   6.625  0.4600  0.9953 -0.2640
  968MOL0    Cl30589   1.380   5.836   6.729  0.0650 -0.3701  0.0637
  968MOL0     C30590   1.831   6.589   6.567 -0.2808  0.3572  0.7438
  968MOL0     C30591   1.911   6.573   6.446  0.6007  0.0721 -0.3358
  968MOL0     O30592   1.877   6.769   6.072  0.2192 -1.1465  0.1891
  968MOL0     C30593   2.090   6.737   5.903  0.7278  0.0888 -0.8180
  968MOL0     C30594   2.200   6.720   5.823  0.5167  1.5708  0.9578
  968MOL0     N30595   2.699   6.249   5.398  0.1451 -0.2632 -0.3081
  968MOL0     N30596   2.823   6.240   5.388 -0.2713  0.9023  0.8901
  968MOL0     C30597   3.328   7.168   6.070 -0.7417 -0.2770  0.7007
  968MOL0     C30598   3.247   7.277   6.091 -0.5871  0.5659  0.3487
  968MOL0     C30599   2.903   7.489   6.307 -0.8158  0.4179  0.0748
  968MOL0     C30600   2.965   7.618   6.282 -0.4391  0.1453 -0.2258
  968MOL0     C30601   2.893   7.740   6.313  1.0216  1.2399 -0.8319
  968MOL0     C30602   2.767   7.725   6.380 -0.0877 -0.2830  0.0721
  968MOL0     O30603   2.701   7.841   6.403 -0.3724  0.3409  0.5688
  968MOL0     C30604   2.580   7.846   6.477  0.1037  0.1304 -0.2329
  968MOL0     C30605   2.550   7.991   6.497 -0.4373 -1.0707 -0.1201
  968MOL0     C30606   2.581   8.047   6.639  0.2469 -1.0594  0.3081
  968MOL0     C30607   2.708   8.025   6.712 -0.7737  0.5005  0.6277
  968MOL0     C30608   2.710   8.084   6.847 -0.1005 -1.0825  1.1107
  968MOL0     C30609   2.703   8.143   6.952 -0.4010  0.0788 -0.3618
  968MOL0     C30610   2.715   7.606   6.417  0.8110  0.6993  0.5991
  968MOL0     C30611   2.780   7.480   6.379 -0.4144  0.0807  0.2276
  968MOL0     C30612   2.710   7.344   6.413 -0.2362 -0.9274 -0.0612
  968MOL0     H30613   2.953   7.101   6.115  0.8168 -2.1874 -0.4555
  968MOL0     H30614   3.106   6.919   6.058  2.2707  0.2200 -0.0857
  968MOL0     H30615   3.471   7.028   5.860  0.1722  0.4285  2.5997
  968MOL0     H30616   3.500   6.858   5.873 -1.6088  0.1563 -3.3729
  968MOL0     H30617   3.394   6.931   5.680 -1.9065  0.9086 -1.5644
  968MOL0     H30618   3.244   6.988   5.774 -0.6162 -1.0772  1.9932
  968MOL0     H30619   3.213   6.752   5.836 -0.5315 -0.8245 -0.4809
  968MOL0     H30620   3.370   6.716   5.762  0.2048  1.1869 -0.6867
  968MOL0     H30621   3.146   6.832   5.595  3.7784  2.9188 -4.9530
  968MOL0     H30622   3.288   6.755   5.537  0.7314  2.2686  1.1379
  968MOL0     H30623   3.242   6.544   5.613 -0.4447  0.5751 -1.6573
  968MOL0     H30624   3.102   6.576   5.711  1.3359  4.0008  1.4499
  968MOL0     H30625   2.974   6.603   5.507 -0.1592 -0.8396  3.2368
  968MOL0     H30626   3.108   6.624   5.395 -2.9511 -1.0155 -1.6360
  968MOL0     H30627   3.018   6.371   5.543 -3.2366  3.8609  0.5216
  968MOL0     H30628   3.175   6.371   5.471 -1.6756 -2.9008 -0.4013
  968MOL0     H30629   3.035   6.465   5.240  1.9149  0.7208  1.2727
  968MOL0     H30630   3.057   6.290   5.276  0.2239  0.4729  0.1240
  968MOL0     H30631   2.771   6.551   5.307  0.0858  0.2247 -0.2147
  968MOL0     H30632   2.519   6.493   5.282 -0.3838 -0.3716  1.1292
  968MOL0     H30633   2.448   6.362   5.358 -0.5327  1.0454 -0.8154
  968MOL0     H30634   2.569   6.599   5.514 -0.5026 -0.6812  0.4857
  968MOL0     H30635   2.401   6.558   5.483 -0.3449  2.3066  1.3973
  968MOL0     H30636   2.601   6.378   5.618 -1.8534 -0.4901 -3.3681
  968MOL0     H30637   2.436   6.339   5.627  0.1356 -0.0202 -1.0269
  968MOL0     H30638   2.567   6.586   5.759 -0.3596 -1.1261 -2.0509
  968MOL0     H30639   2.493   6.443   5.836  3.7122  0.2477  0.9192
  968MOL0     H30640   2.341   6.467   5.994  0.4804  0.3373 -1.2244
  968MOL0     H30641   2.169   6.520   6.142  1.8396 -1.8133 -0.7718
  968MOL0     H30642   1.694   6.719   6.229  0.4142 -2.5772 -1.8744
  968MOL0     H30643   1.569   6.758   6.423  0.0118 -0.5658 -1.1095
  968MOL0     H30644   1.473   6.709   6.757 -1.5275  0.1051 -0.6700
  968MOL0     H30645   1.473   6.636   6.597  1.4376  2.4980 -1.6112
  968MOL0     H30646   1.617   6.521   6.840  0.1427 -2.3351  0.7266
  968MOL0     H30647   1.449   6.493   6.802  1.3053  0.3709  1.3390
  968MOL0     H30648   1.486   6.344   6.625  0.6882 -3.5068  1.4419
  968MOL0     H30649   1.652   6.402   6.603 -1.3289 -0.3572 -2.2750
  968MOL0     H30650   1.575   6.256   6.860  2.8514  0.9299  1.9052
  968MOL0     H30651   1.727   6.305   6.786  0.6695  0.3324 -1.3819
  968MOL0     H30652   1.696   6.159   6.609  0.0638  3.7773  0.8898
  968MOL0     H30653   1.524   6.113   6.663  0.3255 -1.5975  1.6425
  968MOL0     H30654   1.768   6.021   6.821  0.7732 -3.3814 -0.8177
  968MOL0     H30655   1.599   6.003   6.852 -0.3497 -3.8129 -1.4175
  968MOL0     H30656   1.689   5.800   6.762 -3.6546 -0.1410  1.1165
  968MOL0     H30657   1.746   5.874   6.614 -1.4322  2.7314 -1.2297
  968MOL0     H30658   1.527   5.919   6.549  0.5384  0.8961 -0.3773
  968MOL0     H30659   1.540   5.745   6.575  0.7563  0.6459  0.4038
  968MOL0     H30660   1.886   6.560   6.656  1.5260 -0.9237 -0.7051
  968MOL0     H30661   2.007   6.525   6.452 -0.0588 -1.0608  2.4895
  968MOL0     H30662   2.027   6.818   5.869 -0.4336 -1.3060 -2.1178
  968MOL0     H30663   2.198   6.787   5.738 -1.2786  1.0863  0.5665
  968MOL0     H30664   3.435   7.177   6.055 -0.8046 -0.5231  0.0727
  968MOL0     H30665   3.298   7.373   6.088  0.5016  0.0758  2.0084
  968MOL0     H30666   3.064   7.613   6.240 -0.9789 -2.1739 -1.4055
  968MOL0     H30667   2.936   7.838   6.295  2.5622  1.0590  1.4845
  968MOL0     H30668   2.591   7.798   6.575  0.3959  3.6623  1.6178
  968MOL0     H30669   2.503   7.794   6.420  1.3212 -0.2922 -1.5669
  968MOL0     H30670   2.449   8.022   6.466 -1.0504 -3.4492 -0.7025
  968MOL0     H30671   2.606   8.054   6.428 -0.6505 -1.4517 -0.6504
  968MOL0     H30672   2.500   8.012   6.704 -1.2109  2.9936  0.9485
  968MOL0     H30673   2.555   8.153   6.643  0.1738 -1.1064  1.5946
  968MOL0     H30674   2.720   7.918   6.729  1.1827  0.6651  0.4918
  968MOL0     H30675   2.793   8.064   6.656 -2.6398  1.2469 -1.8317
  968MOL0     H30676   2.696   8.187   7.049  2.3620 -0.1774  0.0472
  968MOL0     H30677   2.612   7.606   6.452  0.1102 -0.7585 -1.3111
  968MOL0     H30678   2.605   7.345   6.441 -0.2391 -2.4855  0.0933
  968MOL0     H30679   2.728   7.284   6.323  0.3002 -1.0531  0.1244
  968MOL0     H30680   2.778   7.303   6.489  0.2818 -0.9485 -0.5291
  969MOL0     O30681   9.206   2.139   6.336 -0.4829 -0.5637  0.2086
  969MOL0     C30682   9.310   2.110   6.279 -0.2435 -1.1159  0.8121
  969MOL0     O30683   9.420   2.050   6.339 -0.3191  0.2490 -0.2969
  969MOL0     C30684   9.401   2.001   6.467 -0.1011 -0.1340  0.8630
  969MOL0     C30685   9.301   1.902   6.495  0.2773 -0.6322 -0.1933
  969MOL0     C30686   9.283   1.852   6.631 -0.5017 -0.9388  0.3848
  969MOL0     C30687   9.375   1.893   6.732  1.2515  0.9795 -0.3891
  969MOL0     O30688   9.381   1.859   6.862  0.2964  0.2583 -0.4478
  969MOL0     C30689   9.262   1.884   6.934  0.6469  0.1687 -0.8584
  969MOL0     C30690   9.302   2.007   7.018  0.4101  1.1468 -0.5035
  969MOL0     C30691   9.237   2.011   7.151 -0.2978  0.1141  0.9805
  969MOL0     C30692   9.309   1.929   7.253 -0.2917  0.2808 -0.4428
  969MOL0     C30693   9.267   1.981   7.401 -0.2907 -0.0703  0.0146
  969MOL0     C30694   9.126   1.934   7.456 -1.2516 -0.7009  0.3511
  969MOL0     C30695   9.118   1.939   7.606  0.0382 -0.8774 -0.6887
  969MOL0     C30696   9.122   2.074   7.684  0.0135 -0.1057  0.1997
  969MOL0     N30697   9.257   2.127   7.686  0.0391 -0.1856  0.7224
  969MOL0     C30698   9.375   2.061   7.739 -0.8209  1.3306  0.2517
  969MOL0     C30699   9.476   2.148   7.722 -0.1913 -0.1748  0.3844
  969MOL0     C30700   9.618   2.116   7.756  0.5647  0.0444 -0.1372
  969MOL0     C30701   9.694   2.165   7.633 -0.3077 -0.0415  0.5577
  969MOL0     C30702   9.849   2.105   7.631  0.0230 -0.1955 -0.8484
  969MOL0     C30703   9.932   2.131   7.755 -0.3412 -0.3845 -0.0494
  969MOL0     O30704  10.068   2.105   7.718  0.5888 -0.2866  0.2529
  969MOL0     C30705  10.163   2.106   7.820  1.0184  0.2094  0.0050
  969MOL0     C30706  10.297   2.125   7.791  0.2096 -0.0309  0.5390
  969MOL0     C30707  10.394   2.084   7.875  0.3516  0.6869 -0.1477
  969MOL0     C30708  10.369   2.025   8.001  0.4909  0.1090 -0.0242
  969MOL0     C30709  10.483   1.987   8.088 -1.2720 -0.9611 -0.0481
  969MOL0     O30710  10.467   1.952   8.218 -0.7621  0.2487 -0.0865
  969MOL0     C30711  10.575   1.945   8.305  0.5960 -0.3165 -0.3720
  969MOL0     C30712  10.694   2.010   8.288  0.7132 -0.4947 -0.6201
  969MOL0     C30713  10.801   1.996   8.377  1.0108 -0.5046  0.4357
  969MOL0     C30714  10.781   1.897   8.476  0.5981 -0.7050  0.2098
  969MOL0     O30715  10.891   1.870   8.553 -0.6827  0.3765  0.2631
  969MOL0     C30716  10.894   1.764   8.652 -0.4682  0.4707 -1.2689
  969MOL0     C30717  11.035   1.751   8.712 -0.5335 -0.4390 -1.1073
  969MOL0     C30718  11.044   1.633   8.813  0.9197  0.2751  0.9023
  969MOL0     C30719  11.182   1.636   8.881  0.7844  0.0965  1.1566
  969MOL0     C30720  11.160   1.577   9.025  0.3254 -0.5343  0.8104
  969MOL0     C30721  11.289   1.604   9.106  0.7789  0.3418 -0.8382
  969MOL0     C30722  11.266   1.574   9.262 -0.4220  0.3063  0.2988
  969MOL0     C30723  11.401   1.579   9.322  0.9657  0.1947 -0.6728
  969MOL0    Cl30724  11.388   1.542   9.501 -0.3345 -0.2743 -0.8713
  969MOL0     C30725  10.658   1.839   8.502 -0.0793 -0.6090 -0.5343
  969MOL0     C30726  10.553   1.858   8.416 -0.2165 -0.0850  0.6358
  969MOL0     O30727  10.595   1.980   8.035 -0.1781 -0.6212 -0.1226
  969MOL0     C30728  10.238   1.998   8.039  0.3836  0.1981  1.0145
  969MOL0     C30729  10.132   2.032   7.944 -0.2431 -0.0752 -0.4460
  969MOL0     N30730   9.421   2.259   7.670 -0.1132 -0.2082  0.4981
  969MOL0     N30731   9.293   2.252   7.659  0.4025  0.4564 -0.9962
  969MOL0     C30732   9.484   1.969   6.698  0.4400 -0.3303  1.0881
  969MOL0     C30733   9.496   2.028   6.570 -0.8516 -0.5016  0.5802
  969MOL0     C30734   9.316   2.141   6.133 -0.0337  0.1181 -0.9794
  969MOL0     C30735   9.250   2.259   6.087 -0.5602  0.1765  0.0494
  969MOL0     C30736   9.228   2.278   5.952  0.1775  0.2048 -0.3453
  969MOL0     C30737   9.275   2.190   5.861  0.3211 -0.6367  0.1636
  969MOL0     O30738   9.258   2.220   5.728  0.1987  0.2886 -0.3109
  969MOL0     C30739   9.143   2.138   5.686 -0.6744  0.2570  0.3233
  969MOL0     C30740   9.123   2.179   5.537 -0.2072  0.0078  0.1340
  969MOL0     C30741   9.010   2.092   5.475  0.8984 -0.4770  0.7680
  969MOL0     C30742   8.991   2.163   5.343 -0.5864 -0.3997 -0.0494
  969MOL0     C30743   8.896   2.080   5.265  1.0463 -0.6016  0.0879
  969MOL0     C30744   8.796   2.030   5.208 -0.1644  1.4598 -0.1928
  969MOL0     C30745   9.356   2.082   5.898 -0.1592  0.4287 -0.1436
  969MOL0     C30746   9.367   2.050   6.036 -0.0526  0.4095 -0.3883
  969MOL0     C30747   9.424   1.916   6.080 -0.3939 -0.1480 -0.2459
  969MOL0     H30748   9.234   1.873   6.415 -0.0462  2.0207 -0.9815
  969MOL0     H30749   9.200   1.785   6.649  1.1460 -3.0664  0.3668
  969MOL0     H30750   9.175   1.890   6.867 -0.8568  1.5345  1.1256
  969MOL0     H30751   9.250   1.796   6.998  0.3872 -0.8084 -2.2024
  969MOL0     H30752   9.268   2.093   6.960 -1.5886 -0.3051 -1.6135
  969MOL0     H30753   9.409   2.000   7.037  0.1663 -1.0228  0.3161
  969MOL0     H30754   9.136   1.969   7.152 -1.4098  2.6063  1.3334
  969MOL0     H30755   9.215   2.113   7.184 -3.5645 -0.3425  0.6142
  969MOL0     H30756   9.297   1.821   7.246 -2.0146  0.5368 -2.1346
  969MOL0     H30757   9.418   1.926   7.254 -0.2768  0.4811  0.9808
  969MOL0     H30758   9.351   1.950   7.464 -0.1682  1.6878  0.7936
  969MOL0     H30759   9.273   2.090   7.411  0.4116 -0.1639  0.7999
  969MOL0     H30760   9.050   1.999   7.409  2.2111  3.1160 -0.5983
  969MOL0     H30761   9.105   1.835   7.415 -0.8819  0.4651 -2.9516
  969MOL0     H30762   9.199   1.877   7.645  1.5697  1.1543 -0.4165
  969MOL0     H30763   9.020   1.896   7.627 -0.2287 -0.4173 -0.9826
  969MOL0     H30764   9.048   2.139   7.637 -0.0964 -0.7924 -0.6005
  969MOL0     H30765   9.091   2.043   7.785 -1.5017 -3.3589 -1.0971
  969MOL0     H30766   9.387   1.966   7.790 -0.5368  1.2824  0.0961
  969MOL0     H30767   9.666   2.165   7.841 -0.7425 -0.4041  0.8773
  969MOL0     H30768   9.633   2.010   7.777 -0.9571 -0.0709  0.4607
  969MOL0     H30769   9.645   2.116   7.548  1.2572  1.8385 -1.5786
  969MOL0     H30770   9.687   2.273   7.619  0.3817  0.4287  3.3724
  969MOL0     H30771   9.903   2.143   7.544  1.9423 -1.5558 -0.3289
  969MOL0     H30772   9.835   1.997   7.623 -4.2577 -0.1746  2.4974
  969MOL0     H30773   9.892   2.072   7.837 -2.4863  2.0902  0.8241
  969MOL0     H30774   9.913   2.236   7.780 -1.2457 -1.0854  2.5252
  969MOL0     H30775  10.312   2.165   7.691 -0.5573 -1.6071 -0.2659
  969MOL0     H30776  10.497   2.083   7.840 -1.0012 -2.4746 -5.0463
  969MOL0     H30777  10.719   2.071   8.201  1.8073  1.9033  1.2558
  969MOL0     H30778  10.899   2.043   8.378  1.4262 -1.3412 -0.1771
  969MOL0     H30779  10.822   1.778   8.733  0.4469  2.4803 -0.7493
  969MOL0     H30780  10.879   1.667   8.603 -1.9372 -0.4219  0.8307
  969MOL0     H30781  11.107   1.733   8.631  1.0768 -0.4711  0.2840
  969MOL0     H30782  11.049   1.850   8.755 -0.3660 -0.4620 -1.1077
  969MOL0     H30783  10.963   1.647   8.886  1.2963  0.0234  1.3750
  969MOL0     H30784  11.031   1.537   8.763  2.9549 -0.4525  1.6659
  969MOL0     H30785  11.208   1.741   8.896 -3.3242  1.6369 -1.0381
  969MOL0     H30786  11.248   1.577   8.817  0.1895  1.9340 -1.3125
  969MOL0     H30787  11.140   1.470   9.017  0.1764 -0.3532 -2.3246
  969MOL0     H30788  11.077   1.624   9.079  1.0505  1.4324  0.2956
  969MOL0     H30789  11.363   1.534   9.067 -1.0125 -3.3079  1.7207
  969MOL0     H30790  11.329   1.704   9.085  1.8649 -0.7059 -4.6935
  969MOL0     H30791  11.228   1.472   9.271  1.2542 -0.2684  1.3768
  969MOL0     H30792  11.189   1.642   9.299  0.1225  1.8339 -1.2022
  969MOL0     H30793  11.459   1.494   9.284 -0.9345 -0.7046 -1.7627
  969MOL0     H30794  11.438   1.681   9.312  0.3502  0.6194  0.9617
  969MOL0     H30795  10.647   1.784   8.595  1.6568  2.2952  1.5676
  969MOL0     H30796  10.455   1.813   8.420 -0.4760  0.3686 -0.4160
  969MOL0     H30797  10.216   1.974   8.142  1.9668 -2.4159  0.8501
  969MOL0     H30798  10.027   2.013   7.965 -0.4790  1.5190 -0.0502
  969MOL0     H30799   9.556   1.985   6.778 -0.3865  2.0916  1.4399
  969MOL0     H30800   9.589   2.078   6.544 -1.2516 -0.7260 -1.4269
  969MOL0     H30801   9.221   2.340   6.153  0.0138  0.4396 -0.0200
  969MOL0     H30802   9.166   2.357   5.911  2.8101  3.4727  1.4335
  969MOL0     H30803   9.058   2.160   5.750 -2.5829 -2.8043 -0.9210
  969MOL0     H30804   9.157   2.029   5.680 -0.7811  0.3254 -1.7410
  969MOL0     H30805   9.210   2.169   5.472  0.8984  1.9025  1.2564
  969MOL0     H30806   9.090   2.283   5.546 -0.2311  0.2436 -2.0827
  969MOL0     H30807   8.916   2.085   5.531  0.9108  0.9098  1.0056
  969MOL0     H30808   9.045   1.990   5.458 -0.8139 -0.9674 -0.0273
  969MOL0     H30809   8.951   2.264   5.360 -0.9689 -0.7433  1.1522
  969MOL0     H30810   9.077   2.180   5.277 -0.7351 -2.5352 -0.8701
  969MOL0     H30811   8.713   1.979   5.164  2.1981 -0.4415 -2.7924
  969MOL0     H30812   9.397   2.018   5.820 -0.6120  0.9406 -0.8148
  969MOL0     H30813   9.350   1.855   6.134  1.9634 -2.2342  0.8424
  969MOL0     H30814   9.447   1.859   5.990 -0.1148 -1.7780  0.8148
  969MOL0     H30815   9.517   1.935   6.134 -0.4552  1.2194 -0.5811
  970MOL0     O30816  11.427   7.120   0.505 -0.1564  0.2344 -0.2752
  970MOL0     C30817  11.392   7.027   0.580  0.4621 -0.5431 -0.5050
  970MOL0     O30818  11.469   6.968   0.679  0.2520  0.1650  0.6481
  970MOL0     C30819  11.550   7.042   0.766  0.2135  0.5623 -0.4688
  970MOL0     C30820  11.603   6.971   0.881  0.1989 -0.3319 -0.5760
  970MOL0     C30821  11.707   7.023   0.965  0.1908 -0.2120 -0.3126
  970MOL0     C30822  11.767   7.150   0.929 -0.4658  0.1776  0.4277
  970MOL0     O30823  11.861   7.201   1.012  0.5756  0.0399 -0.4254
  970MOL0     C30824  11.890   7.345   1.010 -0.2535  0.0088  0.4835
  970MOL0     C30825  11.997   7.373   1.114 -0.8420 -0.2496  0.0334
  970MOL0     C30826  12.125   7.293   1.096 -1.5778  0.1478 -0.0600
  970MOL0     C30827  12.235   7.335   1.201 -0.4325  0.6946 -0.4165
  970MOL0     C30828  12.371   7.253   1.176 -1.0606 -0.1384 -0.2756
  970MOL0     C30829  12.449   7.231   1.310 -0.2546 -0.7041  0.1429
  970MOL0     C30830  12.495   7.377   1.347 -0.7682  0.9674  0.0269
  970MOL0     C30831  12.608   7.433   1.251 -0.7102  0.4444 -0.8318
  970MOL0     N30832  12.716   7.336   1.254 -0.1222  0.4631  0.0986
  970MOL0     C30833  12.774   7.276   1.366  0.8103  0.9436 -0.0246
  970MOL0     C30834  12.861   7.185   1.318 -0.9667 -0.6906 -0.5514
  970MOL0     C30835  12.948   7.097   1.384 -0.5726  0.3103  0.2527
  970MOL0     C30836  13.022   7.166   1.492 -0.2801  0.4327 -0.3905
  970MOL0     C30837  13.123   7.057   1.542  0.1814 -0.0301  0.3806
  970MOL0     C30838  13.144   7.065   1.690 -0.3432 -0.6274  0.1358
  970MOL0     O30839  13.222   6.950   1.708  0.5053 -0.7910 -0.5604
  970MOL0     C30840  13.223   6.916   1.842  0.2786  0.3072  0.2810
  970MOL0     C30841  13.171   6.973   1.955 -0.7437 -0.4546  0.7312
  970MOL0     C30842  13.190   6.910   2.079 -0.4518 -0.1038 -0.7077
  970MOL0     C30843  13.272   6.799   2.094 -0.9864 -0.4536  0.5000
  970MOL0     C30844  13.284   6.727   2.227 -0.0175 -0.7534  0.3991
  970MOL0     O30845  13.214   6.777   2.330 -0.4493 -0.8277  0.0317
  970MOL0     C30846  13.252   6.748   2.457  0.7254  0.2916 -0.3587
  970MOL0     C30847  13.218   6.630   2.510  0.5184  0.1845 -0.4324
  970MOL0     C30848  13.248   6.605   2.650 -1.0416  0.8990 -0.0007
  970MOL0     C30849  13.318   6.703   2.734 -0.2114 -0.2904  0.2420
  970MOL0     O30850  13.359   6.681   2.859 -0.3232  0.6630  0.2834
  970MOL0     C30851  13.305   6.584   2.942  0.0564 -0.5078  0.1900
  970MOL0     C30852  13.335   6.612   3.089  0.3548 -0.0326 -0.4709
  970MOL0     C30853  13.481   6.648   3.116  0.1441  0.3580  0.2462
  970MOL0     C30854  13.516   6.660   3.270 -0.5022  0.2558 -0.0886
  970MOL0     C30855  13.653   6.729   3.288  0.6126 -0.0303  0.0554
  970MOL0     C30856  13.706   6.702   3.426  0.3245 -0.2842 -0.1730
  970MOL0     C30857  13.611   6.730   3.551 -0.2409  0.2763 -0.6419
  970MOL0     C30858  13.677   6.704   3.685 -0.1775  0.0242 -0.5951
  970MOL0    Cl30859  13.610   6.806   3.820  0.4770  0.2837  0.2223
  970MOL0     C30860  13.354   6.817   2.663  0.2121 -0.8585  0.4142
  970MOL0     C30861  13.318   6.841   2.532  0.6226  0.2127 -0.1992
  970MOL0     O30862  13.369   6.639   2.227  0.0646 -0.0441 -0.3408
  970MOL0     C30863  13.328   6.741   1.979 -0.7878 -0.2602 -0.6016
  970MOL0     C30864  13.303   6.801   1.857  0.2100 -0.7723  1.2964
  970MOL0     N30865  12.864   7.204   1.180 -0.6212  0.3995  0.2652
  970MOL0     N30866  12.770   7.276   1.142  0.5672  0.8832  0.1799
  970MOL0     C30867  11.717   7.215   0.813 -0.9160 -0.3516  0.5867
  970MOL0     C30868  11.620   7.162   0.734 -0.1430  0.9936 -0.0769
  970MOL0     C30869  11.255   6.960   0.547 -1.2460  0.0715  0.2325
  970MOL0     C30870  11.175   7.017   0.448  0.1248 -0.2415  0.7264
  970MOL0     C30871  11.045   6.963   0.410 -0.1652 -0.3011  0.1979
  970MOL0     C30872  10.998   6.851   0.482 -0.3300  0.2425  1.1087
  970MOL0     O30873  10.863   6.808   0.472 -0.1186 -1.0316 -0.2818
  970MOL0     C30874  10.815   6.796   0.331 -0.2115 -0.1992  0.2667
  970MOL0     C30875  10.699   6.700   0.330 -0.4143  0.7700  0.4633
  970MOL0     C30876  10.745   6.556   0.362  0.3430 -1.2396  0.6530
  970MOL0     C30877  10.849   6.487   0.275 -1.2710 -1.4291 -0.3195
  970MOL0     C30878  10.982   6.495   0.340 -0.9940 -0.3920 -0.7008
  970MOL0     C30879  11.098   6.491   0.391 -0.0417 -0.1535  0.3057
  970MOL0     C30880  11.080   6.797   0.578  1.1153  0.2220 -1.3756
  970MOL0     C30881  11.200   6.847   0.610 -0.7929 -0.4641 -0.4784
  970MOL0     C30882  11.279   6.760   0.705  0.0348  0.1597 -0.0964
  970MOL0     H30883  11.568   6.869   0.895  1.6723 -1.2584 -3.0887
  970MOL0     H30884  11.740   6.960   1.048 -0.5170  0.2547  0.3335
  970MOL0     H30885  11.914   7.374   0.907 -1.6681  1.0802  0.4243
  970MOL0     H30886  11.797   7.392   1.043 -1.1637 -3.3352  3.3261
  970MOL0     H30887  11.958   7.356   1.215 -2.7952 -1.2805 -0.8438
  970MOL0     H30888  12.022   7.479   1.108 -1.8071 -0.0992 -3.3758
  970MOL0     H30889  12.169   7.310   0.997 -1.4002  0.1042  0.0105
  970MOL0     H30890  12.110   7.186   1.114  3.6089 -0.5825  1.6131
  970MOL0     H30891  12.265   7.439   1.185  2.5032 -0.4362 -3.5298
  970MOL0     H30892  12.205   7.321   1.306 -0.1554  0.6609 -0.3393
  970MOL0     H30893  12.366   7.152   1.134  3.8628  0.4423 -3.0318
  970MOL0     H30894  12.438   7.308   1.110 -0.5830  1.0512  1.1261
  970MOL0     H30895  12.387   7.192   1.392 -3.6341  0.8397 -1.4933
  970MOL0     H30896  12.535   7.163   1.303  1.8740  1.8633 -0.2379
  970MOL0     H30897  12.536   7.361   1.448  4.0451 -1.4068 -1.9734
  970MOL0     H30898  12.414   7.449   1.353 -1.8380 -0.2887  2.3304
  970MOL0     H30899  12.574   7.449   1.148 -2.9251  2.2554  0.1018
  970MOL0     H30900  12.637   7.532   1.286  0.7725 -0.2793  0.1092
  970MOL0     H30901  12.757   7.300   1.471 -0.0722  1.6259 -0.3162
  970MOL0     H30902  12.881   7.016   1.414 -1.7050  0.2830 -2.1076
  970MOL0     H30903  13.016   7.068   1.303  1.1334  1.5292  1.2123
  970MOL0     H30904  13.074   7.257   1.461 -1.1462  0.9534 -0.3513
  970MOL0     H30905  12.955   7.186   1.576 -1.3015  0.5265 -1.2091
  970MOL0     H30906  13.216   7.052   1.486 -0.6222 -1.2327 -0.9139
  970MOL0     H30907  13.070   6.963   1.528 -0.6232  0.8094 -3.1247
  970MOL0     H30908  13.044   7.071   1.736 -0.0034 -0.8088  0.9151
  970MOL0     H30909  13.197   7.156   1.717 -2.7432  0.3682  1.8439
  970MOL0     H30910  13.116   7.066   1.948  0.7412  0.4252  0.3813
  970MOL0     H30911  13.156   6.958   2.171  4.4601  0.7550  0.9334
  970MOL0     H30912  13.160   6.551   2.464  0.3220  1.4119 -2.4247
  970MOL0     H30913  13.240   6.509   2.699  0.7449  1.4120  1.4129
  970MOL0     H30914  13.196   6.577   2.930  0.2207 -0.7592 -1.4367
  970MOL0     H30915  13.347   6.486   2.918 -0.7621 -1.1685  1.3522
  970MOL0     H30916  13.274   6.689   3.139  3.0310  1.4585  0.7034
  970MOL0     H30917  13.314   6.522   3.147 -0.0827 -0.0596 -0.6722
  970MOL0     H30918  13.539   6.568   3.070  1.1565  1.4699 -0.4630
  970MOL0     H30919  13.505   6.744   3.070  1.2949 -0.0148  0.0348
  970MOL0     H30920  13.523   6.560   3.314 -0.7242  0.4498  0.3895
  970MOL0     H30921  13.445   6.720   3.327 -0.6738  1.8559 -1.8811
  970MOL0     H30922  13.646   6.836   3.264 -1.3512  0.2825  1.6655
  970MOL0     H30923  13.729   6.696   3.218  2.2705  2.6295  0.4343
  970MOL0     H30924  13.743   6.599   3.424  2.7016  0.5059 -2.5488
  970MOL0     H30925  13.799   6.758   3.435  0.9749 -1.7007  4.2400
  970MOL0     H30926  13.515   6.678   3.553 -0.8820  0.9342 -5.0361
  970MOL0     H30927  13.585   6.836   3.556  2.4192  0.9368  1.0794
  970MOL0     H30928  13.656   6.602   3.717 -2.7991  1.1698  1.6892
  970MOL0     H30929  13.786   6.709   3.673  0.0951 -2.9561 -0.0685
  970MOL0     H30930  13.408   6.899   2.708 -0.6747 -0.6498  1.1380
  970MOL0     H30931  13.352   6.927   2.477 -0.0834 -0.7656 -2.2506
  970MOL0     H30932  13.389   6.652   1.990  1.1005  1.3265  4.3303
  970MOL0     H30933  13.351   6.766   1.766  0.7528 -0.8701  1.6188
  970MOL0     H30934  11.766   7.304   0.773 -0.1841  0.3917  2.9361
  970MOL0     H30935  11.607   7.216   0.641 -1.5303  0.1259 -0.4150
  970MOL0     H30936  11.209   7.103   0.391  1.6343 -1.9548 -1.1322
  970MOL0     H30937  10.990   7.016   0.333  0.0348  2.1752  1.6730
  970MOL0     H30938  10.903   6.774   0.270  0.4919 -1.3751  1.6656
  970MOL0     H30939  10.775   6.894   0.301 -2.1201 -1.6389 -2.3841
  970MOL0     H30940  10.657   6.706   0.229  0.2345 -1.1647  0.0367
  970MOL0     H30941  10.627   6.738   0.402  1.3272  2.4045  1.4482
  970MOL0     H30942  10.649   6.505   0.374 -0.6031  0.9560  3.7612
  970MOL0     H30943  10.775   6.556   0.468 -1.7855 -2.9978  1.3437
  970MOL0     H30944  10.825   6.381   0.268 -0.3561 -1.7250  0.6481
  970MOL0     H30945  10.845   6.536   0.177 -1.6583  0.3100  0.5208
  970MOL0     H30946  11.195   6.477   0.434  1.4463 -1.7100 -3.1537
  970MOL0     H30947  11.038   6.716   0.637 -0.2378 -0.1677 -2.8225
  970MOL0     H30948  11.378   6.722   0.677  0.3745 -1.7263  3.1127
  970MOL0     H30949  11.288   6.816   0.798 -1.2684  2.1049 -1.0670
  970MOL0     H30950  11.235   6.661   0.723 -0.9353  0.1884 -2.0102
  971MOL0     O30951   5.224   1.762   9.257 -0.3876  0.8209  0.1492
  971MOL0     C30952   5.277   1.658   9.226  0.1058 -0.1170  0.7374
  971MOL0     O30953   5.321   1.562   9.312  0.0210 -0.8456  0.2453
  971MOL0     C30954   5.287   1.561   9.445  0.6944 -0.8387  0.6697
  971MOL0     C30955   5.399   1.547   9.534 -0.2992 -0.1520 -0.5794
  971MOL0     C30956   5.371   1.548   9.671  1.2491  0.4328  0.7250
  971MOL0     C30957   5.244   1.589   9.722  0.6655 -0.1626  0.3372
  971MOL0     O30958   5.222   1.603   9.858 -0.1329  0.5820 -1.0813
  971MOL0     C30959   5.117   1.510   9.909  0.3535 -0.4248  0.3078
  971MOL0     C30960   5.130   1.517  10.062  0.2393  0.2218 -0.7877
  971MOL0     C30961   5.121   1.659  10.127 -1.1990  0.1229 -0.2412
  971MOL0     C30962   5.118   1.646  10.279  0.0177  0.1175  0.9099
  971MOL0     C30963   5.080   1.778  10.351 -0.6791  0.3196  0.3370
  971MOL0     C30964   5.173   1.791  10.466 -0.1221 -0.6756 -0.9513
  971MOL0     C30965   5.174   1.935  10.524  0.0339  0.2264 -0.3213
  971MOL0     C30966   5.282   1.942  10.640 -0.6972 -0.0798  0.4635
  971MOL0     N30967   5.302   2.055  10.726 -0.2841 -0.1463  0.7561
  971MOL0     C30968   5.283   2.183  10.683 -0.2001 -0.0193  0.2034
  971MOL0     C30969   5.285   2.266  10.782 -0.1398  0.8600 -0.7831
  971MOL0     C30970   5.246   2.409  10.792 -0.1145  0.6552 -0.9701
  971MOL0     C30971   5.120   2.425  10.886 -0.4986  0.3596  0.5025
  971MOL0     C30972   5.077   2.565  10.891  0.2522 -0.7757 -0.0391
  971MOL0     C30973   4.953   2.585  10.989 -1.0366 -0.6387 -0.5964
  971MOL0     O30974   4.834   2.551  10.924 -0.8956  0.5700 -0.5618
  971MOL0     C30975   4.716   2.614  10.953  0.3027 -0.7697  0.8381
  971MOL0     C30976   4.620   2.671  10.853  0.0656  0.4114 -1.0182
  971MOL0     C30977   4.500   2.730  10.885 -0.6191  0.4380 -0.7747
  971MOL0     C30978   4.477   2.757  11.022  0.7759 -0.3506 -1.1109
  971MOL0     C30979   4.361   2.838  11.064 -0.1585 -0.1556  0.0824
  971MOL0     O30980   4.261   2.855  10.971 -0.4294 -0.0658 -0.6405
  971MOL0     C30981   4.141   2.924  10.992  0.3101 -0.4307  0.1452
  971MOL0     C30982   4.045   2.903  10.887  0.0362  0.0474 -0.0034
  971MOL0     C30983   3.919   2.975  10.887 -0.5693  0.7260  0.0329
  971MOL0     C30984   3.884   3.045  11.002 -0.2563  1.2390  0.0458
  971MOL0     O30985   3.759   3.112  11.001 -0.5655  0.6434  0.1356
  971MOL0     C30986   3.728   3.216  11.097  0.0923 -0.5988  0.2611
  971MOL0     C30987   3.583   3.270  11.072  0.5247 -0.3951  0.3337
  971MOL0     C30988   3.543   3.361  11.191 -0.4375 -0.9596  0.7661
  971MOL0     C30989   3.398   3.408  11.174  0.8768 -0.1948  0.0433
  971MOL0     C30990   3.349   3.478  11.301 -0.3811  1.1948  0.4688
  971MOL0     C30991   3.197   3.505  11.304 -0.6845  0.4118  0.1918
  971MOL0     C30992   3.109   3.383  11.269 -0.6282 -0.4267 -0.1524
  971MOL0     C30993   2.970   3.412  11.305  0.4661 -0.2293  0.0208
  971MOL0    Cl30994   2.853   3.292  11.229 -0.1678  0.0817 -0.1075
  971MOL0     C30995   3.977   3.054  11.110  0.6383  0.8732 -0.8939
  971MOL0     C30996   4.105   2.993  11.104  0.0411  0.0985 -0.4568
  971MOL0     O30997   4.360   2.869  11.180  0.3756 -0.2763 -0.5436
  971MOL0     C30998   4.569   2.722  11.121 -0.1784  0.1919  0.1985
  971MOL0     C30999   4.686   2.659  11.079  0.2653 -0.2019 -0.3036
  971MOL0     N31000   5.306   2.182  10.888 -1.2342 -0.4744  0.4054
  971MOL0     N31001   5.311   2.059  10.856  0.3736 -0.2848 -0.1115
  971MOL0     C31002   5.142   1.627   9.630  0.3341  0.1275 -0.9821
  971MOL0     C31003   5.166   1.606   9.494  0.4592  0.5484 -0.0551
  971MOL0     C31004   5.341   1.649   9.084  0.7067 -0.7081 -0.3147
  971MOL0     C31005   5.363   1.769   9.010 -0.0476  1.0901 -0.5333
  971MOL0     C31006   5.418   1.760   8.883 -0.0828 -0.3036  0.2039
  971MOL0     C31007   5.450   1.637   8.827  0.5086  0.4366  1.1086
  971MOL0     O31008   5.512   1.636   8.703 -0.7755  0.7024 -0.4360
  971MOL0     C31009   5.657   1.628   8.722 -0.3867 -0.3466  0.0145
  971MOL0     C31010   5.729   1.565   8.603  0.1397  0.0839 -0.0504
  971MOL0     C31011   5.878   1.600   8.600 -0.3259 -0.7310 -0.5105
  971MOL0     C31012   5.972   1.506   8.667 -0.0695 -0.6596  0.0534
  971MOL0     C31013   5.951   1.503   8.807  0.2580  0.9701 -0.8081
  971MOL0     C31014   5.952   1.515   8.927  0.7611 -0.8160 -0.2677
  971MOL0     C31015   5.436   1.517   8.897  0.0210 -0.0319 -0.2809
  971MOL0     C31016   5.384   1.522   9.026 -0.2418  0.1687  0.8260
  971MOL0     C31017   5.371   1.387   9.087  0.4461 -0.5738  0.1080
  971MOL0     H31018   5.491   1.534   9.477 -1.2717 -2.5955 -1.7076
  971MOL0     H31019   5.438   1.522   9.753  0.6150  0.3811  1.2375
  971MOL0     H31020   5.012   1.534   9.887  0.2312 -1.5569 -0.4018
  971MOL0     H31021   5.125   1.406   9.877  0.8371 -1.5455  3.6176
  971MOL0     H31022   5.230   1.478  10.081 -0.3097 -0.3297  1.2675
  971MOL0     H31023   5.058   1.444  10.101  0.1275  0.5031 -0.4638
  971MOL0     H31024   5.038   1.719  10.090  0.0079  1.1402 -1.3855
  971MOL0     H31025   5.209   1.716  10.095 -1.6989 -0.4990 -2.9574
  971MOL0     H31026   5.037   1.577  10.305 -1.9164  2.6940  2.1480
  971MOL0     H31027   5.209   1.601  10.320 -0.2491  0.2125  1.6359
  971MOL0     H31028   5.099   1.864  10.285 -1.8462  0.1844 -0.2057
  971MOL0     H31029   4.975   1.772  10.383 -1.0878  0.4524 -0.9432
  971MOL0     H31030   5.143   1.720  10.543 -1.9244  0.6952 -0.3137
  971MOL0     H31031   5.276   1.768  10.437  1.0459  0.5781  1.8772
  971MOL0     H31032   5.079   1.961  10.570 -0.7446 -3.2459  0.3547
  971MOL0     H31033   5.189   2.009  10.445 -0.7573  1.9367  1.0690
  971MOL0     H31034   5.262   1.855  10.702 -1.4190 -1.5074 -1.6406
  971MOL0     H31035   5.377   1.919  10.591 -0.2778  2.6085 -0.1416
  971MOL0     H31036   5.261   2.207  10.579 -0.1062  3.9537  0.9284
  971MOL0     H31037   5.330   2.472  10.822 -1.9679  2.4970  0.6986
  971MOL0     H31038   5.229   2.438  10.688  2.7700 -1.9506 -2.3311
  971MOL0     H31039   5.039   2.359  10.853 -0.7019 -0.9304  3.3199
  971MOL0     H31040   5.140   2.391  10.988 -0.5325  0.7751  0.6494
  971MOL0     H31041   5.058   2.590  10.786  1.3296  2.2333  0.3973
  971MOL0     H31042   5.157   2.629  10.929  1.8439 -1.8168 -1.5048
  971MOL0     H31043   4.945   2.693  11.008 -2.5737 -0.0511 -3.7824
  971MOL0     H31044   4.975   2.526  11.078 -1.0111 -0.4246 -0.4595
  971MOL0     H31045   4.635   2.649  10.747 -1.0910  2.7302 -1.7248
  971MOL0     H31046   4.425   2.762  10.814 -2.6974 -3.6176 -0.6891
  971MOL0     H31047   4.065   2.838  10.802  2.5986  3.0213 -1.8961
  971MOL0     H31048   3.859   2.967  10.797  0.0114 -0.2297 -0.2769
  971MOL0     H31049   3.732   3.172  11.197  4.0151  1.0512  0.9898
  971MOL0     H31050   3.799   3.298  11.101 -2.4741  1.7766  0.3811
  971MOL0     H31051   3.576   3.329  10.981  2.1363  1.7702  1.5129
  971MOL0     H31052   3.505   3.195  11.060  2.5085 -2.2482 -1.9037
  971MOL0     H31053   3.555   3.318  11.291  3.8607  0.4665  1.0652
  971MOL0     H31054   3.614   3.444  11.195 -1.4633  0.0877 -1.3237
  971MOL0     H31055   3.334   3.326  11.140 -0.5137  1.0699 -0.4873
  971MOL0     H31056   3.400   3.482  11.094 -0.3500 -1.3531 -1.1098
  971MOL0     H31057   3.410   3.567  11.320  0.9812  0.1624  1.0613
  971MOL0     H31058   3.360   3.415  11.390  0.4904 -2.1415 -1.7927
  971MOL0     H31059   3.173   3.546  11.403  1.6009 -0.0803  1.0254
  971MOL0     H31060   3.164   3.589  11.243  0.2309  0.9744  0.4381
  971MOL0     H31061   3.152   3.296  11.319  1.1376  1.4357  1.8014
  971MOL0     H31062   3.126   3.367  11.162 -0.4493 -0.6690 -0.0896
  971MOL0     H31063   2.956   3.410  11.413 -1.1266 -1.0452 -0.1713
  971MOL0     H31064   2.938   3.511  11.272 -2.2240 -1.4128 -1.2119
  971MOL0     H31065   3.940   3.116  11.191  2.4597  3.4490 -1.8868
  971MOL0     H31066   4.178   3.007  11.183  0.3626  3.1961 -1.1624
  971MOL0     H31067   4.553   2.753  11.224  0.9746  2.5826 -0.2808
  971MOL0     H31068   4.752   2.648  11.164  0.0781  2.3287  0.2582
  971MOL0     H31069   5.051   1.669   9.673  0.6915  2.8517 -2.6182
  971MOL0     H31070   5.084   1.627   9.426  0.7663 -1.4134 -1.1027
  971MOL0     H31071   5.334   1.865   9.050  1.0797  1.2978 -0.1722
  971MOL0     H31072   5.449   1.852   8.835  1.5775 -1.3910 -0.9123
  971MOL0     H31073   5.686   1.578   8.815  1.8436  1.5504  0.4189
  971MOL0     H31074   5.682   1.733   8.740  2.6681 -0.7282 -1.5122
  971MOL0     H31075   5.683   1.597   8.509 -1.5175 -0.0991  0.6633
  971MOL0     H31076   5.725   1.456   8.604  0.3737  0.0747  0.9512
  971MOL0     H31077   5.891   1.708   8.613  0.1938  0.0183 -5.3374
  971MOL0     H31078   5.903   1.581   8.495 -0.5022 -1.0535 -0.4936
  971MOL0     H31079   5.969   1.413   8.609  0.1692 -0.3110 -0.5343
  971MOL0     H31080   6.079   1.526   8.654  0.4070 -2.3420  0.9855
  971MOL0     H31081   5.952   1.505   9.034 -0.1467 -0.2706 -0.2061
  971MOL0     H31082   5.464   1.424   8.849 -2.6025  0.3820 -2.8269
  971MOL0     H31083   5.461   1.347   9.134 -0.9522 -1.6691  2.0260
  971MOL0     H31084   5.297   1.379   9.168 -0.8762  1.7996 -0.7630
  971MOL0     H31085   5.334   1.326   9.005  0.8708  0.9285 -1.2566
  972MOL0     O31086  10.231   9.003   3.731 -0.4018  0.4141  0.1753
  972MOL0     C31087  10.207   9.001   3.607  0.0566  0.8538 -0.3077
  972MOL0     O31088  10.202   8.885   3.526 -0.7393 -0.2069  0.4369
  972MOL0     C31089  10.226   8.775   3.591  0.1589 -0.2391  0.0055
  972MOL0     C31090  10.120   8.709   3.663  1.3718 -0.2839  0.7524
  972MOL0     C31091  10.138   8.594   3.732 -0.4985  0.1187 -0.0537
  972MOL0     C31092  10.273   8.529   3.739  0.7709 -0.0256  0.3259
  972MOL0     O31093  10.272   8.411   3.819  0.3414 -0.1881  0.4550
  972MOL0     C31094  10.392   8.334   3.799  0.4659  0.7547 -0.6931
  972MOL0     C31095  10.385   8.229   3.901 -0.3199  0.1143  0.6709
  972MOL0     C31096  10.502   8.127   3.899  0.1461  0.5682  0.4166
  972MOL0     C31097  10.642   8.184   3.926  0.6553 -0.0093  0.8333
  972MOL0     C31098  10.744   8.075   3.933 -0.5473 -0.1829 -0.1833
  972MOL0     C31099  10.807   8.039   3.792  0.7623 -0.2441  0.1681
  972MOL0     C31100  10.940   7.966   3.803  0.0942 -0.5371 -0.4605
  972MOL0     C31101  10.933   7.849   3.907 -0.2326 -1.1549 -0.3530
  972MOL0     N31102  11.047   7.759   3.883  0.4390  1.0175  0.8047
  972MOL0     C31103  11.032   7.678   3.773 -1.3776 -0.3389 -0.2585
  972MOL0     C31104  11.155   7.637   3.751 -0.5373  0.8663  0.3387
  972MOL0     C31105  11.210   7.542   3.643 -0.0459  0.8986  0.5058
  972MOL0     C31106  11.106   7.467   3.564  0.2342  0.3970  0.2798
  972MOL0     C31107  11.167   7.379   3.453  0.8404 -0.8945 -0.4008
  972MOL0     C31108  11.077   7.264   3.423  0.4542 -0.4385  0.3375
  972MOL0     O31109  10.971   7.321   3.337  0.1600 -0.3692  0.2362
  972MOL0     C31110  10.915   7.244   3.240  0.0909 -0.5405  0.4539
  972MOL0     C31111  10.900   7.104   3.243 -0.0764 -0.0020  0.4140
  972MOL0     C31112  10.845   7.030   3.136 -0.7700  0.7558 -0.1504
  972MOL0     C31113  10.776   7.090   3.034  0.2291 -0.0078 -0.0908
  972MOL0     C31114  10.692   7.026   2.929 -0.2195  0.3400  0.4426
  972MOL0     O31115  10.654   7.102   2.821 -0.0883 -0.3852 -0.1187
  972MOL0     C31116  10.598   7.041   2.707  0.1265 -0.1921  0.5894
  972MOL0     C31117  10.489   7.112   2.646  0.4936 -1.4370  1.1753
  972MOL0     C31118  10.451   7.071   2.515  1.1405 -0.6157  0.5645
  972MOL0     C31119  10.502   6.953   2.454  0.0416  0.0811 -0.5819
  972MOL0     O31120  10.459   6.887   2.346  0.7978 -0.1865 -0.6651
  972MOL0     C31121  10.322   6.908   2.295  0.1307  0.2530 -0.4377
  972MOL0     C31122  10.290   6.803   2.189  0.1027  0.3169  0.3922
  972MOL0     C31123  10.262   6.670   2.258 -0.3103  0.9468  0.3238
  972MOL0     C31124  10.240   6.553   2.161  0.1416 -0.0863 -0.0719
  972MOL0     C31125  10.352   6.498   2.078 -0.4585 -0.1564  0.1903
  972MOL0     C31126  10.326   6.363   2.006  0.1987  1.0903  0.4205
  972MOL0     C31127  10.459   6.304   1.949  1.1072  0.1703  0.0280
  972MOL0     C31128  10.428   6.179   1.862 -0.2295  0.5970 -0.0507
  972MOL0    Cl31129  10.377   6.223   1.693  0.2009 -0.0822 -0.1729
  972MOL0     C31130  10.603   6.887   2.527  0.7497 -0.7811 -0.1937
  972MOL0     C31131  10.661   6.933   2.642  0.6203  0.6728  0.3356
  972MOL0     O31132  10.663   6.906   2.953 -0.5488 -0.3174  0.1157
  972MOL0     C31133  10.781   7.234   3.036  0.1857  0.3103 -0.3893
  972MOL0     C31134  10.863   7.310   3.127 -0.1576  0.7019  0.8163
  972MOL0     N31135  11.234   7.677   3.858  0.2118 -0.4885 -0.3017
  972MOL0     N31136  11.174   7.757   3.935  0.2570 -0.3361 -0.0788
  972MOL0     C31137  10.371   8.594   3.669 -1.2965  0.5465 -0.3319
  972MOL0     C31138  10.357   8.713   3.593  0.1253  0.2548  0.4267
  972MOL0     C31139  10.181   9.130   3.530 -0.5574  0.6050 -0.4536
  972MOL0     C31140  10.146   9.115   3.397  0.6150 -0.8362 -1.1291
  972MOL0     C31141  10.126   9.215   3.317 -0.9942  0.2362  0.5332
  972MOL0     C31142  10.115   9.345   3.365 -0.0167  0.3171  0.1685
  972MOL0     O31143  10.076   9.442   3.277 -0.3329  0.0700  0.6558
  972MOL0     C31144  10.073   9.575   3.315 -0.2915 -0.4151 -0.9342
  972MOL0     C31145   9.940   9.613   3.380 -0.1629 -0.1465 -0.6369
  972MOL0     C31146   9.831   9.605   3.274  0.0316 -1.1855  0.1161
  972MOL0     C31147   9.691   9.655   3.315 -0.4908  0.2139 -0.4899
  972MOL0     C31148   9.596   9.637   3.199 -0.6354 -1.0395  0.3108
  972MOL0     C31149   9.542   9.614   3.097  0.1823 -0.3684 -0.1064
  972MOL0     C31150  10.153   9.358   3.497  0.1109 -0.7456  1.1654
  972MOL0     C31151  10.190   9.257   3.588  0.6264  0.0710 -0.6048
  972MOL0     C31152  10.250   9.297   3.720 -0.8012  0.0754 -0.3550
  972MOL0     H31153  10.023   8.753   3.680 -0.7735 -4.1694 -0.3333
  972MOL0     H31154  10.055   8.568   3.796  0.6281 -0.2142  1.3516
  972MOL0     H31155  10.388   8.294   3.698  0.8020 -1.4469  0.1050
  972MOL0     H31156  10.481   8.393   3.821  1.6989 -0.6680 -1.6928
  972MOL0     H31157  10.301   8.160   3.888 -0.9887  1.1457 -0.7580
  972MOL0     H31158  10.390   8.270   4.002  0.2778 -0.8478  1.0494
  972MOL0     H31159  10.501   8.053   3.819  1.2833 -3.3123  3.6985
  972MOL0     H31160  10.471   8.076   3.991 -2.4438  0.5453 -0.3823
  972MOL0     H31161  10.674   8.257   3.851 -0.5096 -2.0978 -1.8810
  972MOL0     H31162  10.641   8.240   4.019 -2.7185  3.6012 -1.1164
  972MOL0     H31163  10.832   8.106   3.988  0.3138 -1.6242 -0.6795
  972MOL0     H31164  10.691   7.992   3.982 -1.6937  1.3386  1.2734
  972MOL0     H31165  10.736   7.990   3.724  0.3997  2.6054 -1.6859
  972MOL0     H31166  10.831   8.136   3.747 -0.6009  0.5796  1.1495
  972MOL0     H31167  11.024   8.033   3.824 -0.6730  0.7201 -1.2872
  972MOL0     H31168  10.964   7.913   3.710  1.8024  2.5360 -1.9265
  972MOL0     H31169  10.941   7.898   4.005 -2.2171  1.2857 -1.2966
  972MOL0     H31170  10.845   7.785   3.899  0.7829 -2.9267  1.7134
  972MOL0     H31171  10.942   7.640   3.727 -3.1869  0.3847  2.4578
  972MOL0     H31172  11.268   7.600   3.570  3.5567 -1.6118  1.0852
  972MOL0     H31173  11.283   7.491   3.707  2.3318  1.0640 -1.8868
  972MOL0     H31174  11.051   7.405   3.635 -0.4153  0.4341 -0.1743
  972MOL0     H31175  11.015   7.526   3.547 -1.7101 -2.6467 -0.6713
  972MOL0     H31176  11.268   7.351   3.483  1.5939  2.4128  0.4387
  972MOL0     H31177  11.170   7.440   3.362 -0.5003  0.8123  0.6596
  972MOL0     H31178  11.038   7.215   3.512 -2.4617  0.1841 -0.5012
  972MOL0     H31179  11.130   7.184   3.369  1.3613 -0.7526  1.6383
  972MOL0     H31180  10.926   7.039   3.326 -0.2809 -0.7609 -0.1096
  972MOL0     H31181  10.852   6.922   3.139  0.0172  0.8227  1.3605
  972MOL0     H31182  10.452   7.205   2.688 -0.0888 -1.0911 -0.0387
  972MOL0     H31183  10.368   7.116   2.461  0.4755  1.4012  3.0552
  972MOL0     H31184  10.244   6.895   2.371  0.6205 -3.6998 -0.4336
  972MOL0     H31185  10.306   7.003   2.242 -1.0795 -0.2366 -0.9648
  972MOL0     H31186  10.196   6.815   2.135 -0.8208 -0.8849  1.6509
  972MOL0     H31187  10.374   6.806   2.119  1.4099  1.7345  1.9325
  972MOL0     H31188  10.354   6.644   2.313 -0.0114 -0.3447 -0.7195
  972MOL0     H31189  10.181   6.688   2.330  0.9473  1.8281  1.5782
  972MOL0     H31190  10.152   6.589   2.106  0.5473 -0.5206 -1.0306
  972MOL0     H31191  10.201   6.469   2.220 -2.1013  0.1673 -1.0771
  972MOL0     H31192  10.435   6.479   2.147 -0.9085 -2.8932  0.0872
  972MOL0     H31193  10.390   6.576   2.010 -0.5978  0.0745  0.3752
  972MOL0     H31194  10.298   6.282   2.075 -1.2270  0.2922 -1.0172
  972MOL0     H31195  10.263   6.379   1.918  0.4893 -2.6008 -0.6566
  972MOL0     H31196  10.525   6.260   2.025  1.2503 -0.7753 -0.6325
  972MOL0     H31197  10.510   6.379   1.889 -1.3332  2.5793  0.7587
  972MOL0     H31198  10.518   6.118   1.854  2.3655  4.2849 -1.6064
  972MOL0     H31199  10.346   6.121   1.906  0.0987  0.2440  0.0951
  972MOL0     H31200  10.647   6.798   2.484 -0.0535  0.8803 -5.0471
  972MOL0     H31201  10.749   6.886   2.684  0.7190  2.7911  2.8097
  972MOL0     H31202  10.729   7.298   2.966 -1.6116 -0.0170  0.5826
  972MOL0     H31203  10.859   7.417   3.108 -1.9926  0.6936  0.9831
  972MOL0     H31204  10.477   8.569   3.666 -1.2755  0.6998 -0.8894
  972MOL0     H31205  10.442   8.748   3.535 -0.1374  1.5350  0.7917
  972MOL0     H31206  10.142   9.017   3.351 -0.0067 -1.6105  0.4883
  972MOL0     H31207  10.105   9.187   3.214  3.9168  1.9127 -1.2478
  972MOL0     H31208  10.091   9.624   3.219 -0.3611  0.3618 -0.5586
  972MOL0     H31209  10.156   9.604   3.379 -1.1124 -1.1553  0.5199
  972MOL0     H31210   9.944   9.709   3.431 -3.9124  0.2340 -0.7379
  972MOL0     H31211   9.913   9.540   3.457 -0.6933  0.6313 -0.0670
  972MOL0     H31212   9.817   9.517   3.210 -0.7931 -0.3818 -0.8610
  972MOL0     H31213   9.861   9.672   3.192  4.2129 -1.7457  0.9398
  972MOL0     H31214   9.646   9.595   3.394  0.0110 -0.9343 -1.0641
  972MOL0     H31215   9.704   9.758   3.349  2.0856 -0.2846  0.1854
  972MOL0     H31216   9.493   9.592   3.004 -0.8663 -0.9331  0.5651
  972MOL0     H31217  10.159   9.458   3.538 -0.1306 -0.3899  0.3462
  972MOL0     H31218  10.258   9.406   3.728  0.2383 -0.1103  2.3054
  972MOL0     H31219  10.192   9.263   3.807 -2.5002  0.3629 -1.3326
  972MOL0     H31220  10.345   9.245   3.729 -0.9209  0.0137  0.7265
  973MOL0     O31221   9.074   6.295   3.095 -0.4736  0.4005 -0.5304
  973MOL0     C31222   9.017   6.189   3.089  0.2730 -0.1529  0.7396
  973MOL0     O31223   9.044   6.067   3.149 -0.2501  0.9614  0.0908
  973MOL0     C31224   9.120   6.045   3.263  0.3828 -0.5321 -0.4829
  973MOL0     C31225   9.164   6.150   3.350  0.1338 -0.0824  0.0351
  973MOL0     C31226   9.213   6.109   3.476 -0.5937  0.3057 -0.3946
  973MOL0     C31227   9.217   5.977   3.523 -0.6366 -1.3705  0.6046
  973MOL0     O31228   9.274   5.964   3.644  0.0268 -0.0606  0.5002
  973MOL0     C31229   9.307   5.835   3.689  0.3738 -0.9588  0.3005
  973MOL0     C31230   9.384   5.845   3.818 -0.6391 -0.4590  0.4097
  973MOL0     C31231   9.540   5.878   3.794  0.4587 -0.2158 -0.2336
  973MOL0     C31232   9.610   5.812   3.688  0.4124  0.5675  0.1686
  973MOL0     C31233   9.766   5.826   3.690  0.8656  1.8243  0.2216
  973MOL0     C31234   9.804   5.723   3.800 -0.4978  1.0061 -0.6581
  973MOL0     C31235   9.781   5.572   3.769  0.3172  0.5108  0.1219
  973MOL0     C31236   9.802   5.523   3.625  0.6876 -0.2434  0.3809
  973MOL0     N31237   9.776   5.381   3.636 -0.0427 -0.1480  0.0350
  973MOL0     C31238   9.856   5.287   3.699 -0.2412  0.2070  0.3100
  973MOL0     C31239   9.784   5.177   3.690 -0.2711 -0.7500 -0.4332
  973MOL0     C31240   9.828   5.053   3.739  0.4279  0.1771 -0.6096
  973MOL0     C31241   9.739   4.990   3.845  0.8564  0.0717 -0.4730
  973MOL0     C31242   9.818   5.002   3.984  0.7891  0.7271 -1.0127
  973MOL0     C31243   9.840   5.135   4.061 -0.0056  0.1615 -0.7455
  973MOL0     O31244   9.718   5.204   4.085 -0.5337  0.3209  0.4440
  973MOL0     C31245   9.716   5.333   4.115 -0.0653 -1.0586  0.1982
  973MOL0     C31246   9.829   5.405   4.161  1.3505 -0.1472  0.7215
  973MOL0     C31247   9.819   5.548   4.192 -0.1965 -0.2507 -0.6166
  973MOL0     C31248   9.702   5.617   4.157  0.7677 -0.2308 -0.0095
  973MOL0     C31249   9.682   5.767   4.197  0.3416  0.4578 -0.1374
  973MOL0     O31250   9.783   5.838   4.251 -0.0702  0.0779 -0.2387
  973MOL0     C31251   9.763   5.968   4.293  0.0188 -0.8365  0.1553
  973MOL0     C31252   9.832   6.065   4.218 -1.0605  0.1228  0.6458
  973MOL0     C31253   9.814   6.206   4.254 -1.0814  0.5001  0.1541
  973MOL0     C31254   9.736   6.245   4.366  0.4272 -0.1187  1.2561
  973MOL0     O31255   9.731   6.376   4.384 -0.0450 -0.6487 -0.2051
  973MOL0     C31256   9.682   6.445   4.505 -0.6407 -0.0286 -0.3135
  973MOL0     C31257   9.657   6.591   4.478 -0.1264  0.8055 -0.1079
  973MOL0     C31258   9.564   6.598   4.354 -0.3032 -0.6778 -0.5671
  973MOL0     C31259   9.535   6.746   4.334  0.2032 -1.0250  0.4917
  973MOL0     C31260   9.501   6.800   4.186 -0.6061  0.5098 -0.6973
  973MOL0     C31261   9.597   6.755   4.078  1.4179 -0.2667 -0.9732
  973MOL0     C31262   9.604   6.847   3.957  0.4621  0.0036 -0.1928
  973MOL0     C31263   9.517   6.797   3.838  0.6369  0.5020 -0.4052
  973MOL0    Cl31264   9.623   6.793   3.699  0.3128  0.1248  0.0637
  973MOL0     C31265   9.658   6.148   4.432 -0.7429  0.7171  1.0487
  973MOL0     C31266   9.669   6.010   4.390  0.5505  0.2219  0.0984
  973MOL0     O31267   9.570   5.815   4.182 -0.4340 -0.5055  0.0786
  973MOL0     C31268   9.594   5.552   4.096  0.0954  0.2975 -0.2600
  973MOL0     C31269   9.606   5.409   4.074 -0.4412 -0.4174 -0.4031
  973MOL0     N31270   9.660   5.207   3.638 -0.1346 -0.1041 -0.3259
  973MOL0     N31271   9.650   5.328   3.602 -0.3244 -0.0282  0.3128
  973MOL0     C31272   9.173   5.876   3.435  0.4475  0.2109 -0.0808
  973MOL0     C31273   9.115   5.916   3.312 -1.1569 -0.0018 -0.6699
  973MOL0     C31274   8.898   6.174   2.997 -0.6470  1.0034  0.2288
  973MOL0     C31275   8.886   6.279   2.899 -0.3882 -0.4197 -0.2117
  973MOL0     C31276   8.777   6.286   2.809 -0.2889 -0.1028 -0.1646
  973MOL0     C31277   8.676   6.189   2.808  0.5382 -0.4788  0.5852
  973MOL0     O31278   8.577   6.213   2.703  0.3266 -0.2375  0.0511
  973MOL0     C31279   8.461   6.142   2.704 -0.0369  0.9396  0.4687
  973MOL0     C31280   8.350   6.190   2.802  0.5790 -0.6147 -0.3401
  973MOL0     C31281   8.310   6.337   2.811  0.5677  0.0533  0.0214
  973MOL0     C31282   8.244   6.387   2.677 -0.3301 -0.0014 -0.7013
  973MOL0     C31283   8.342   6.399   2.572 -0.1327  0.2967  0.2850
  973MOL0     C31284   8.435   6.431   2.498 -0.0843  0.4701 -0.2234
  973MOL0     C31285   8.681   6.085   2.907  0.3503 -1.3048 -0.3888
  973MOL0     C31286   8.778   6.086   3.010 -0.4654  0.1381  0.0502
  973MOL0     C31287   8.757   5.993   3.129 -0.2427 -0.1263  0.6430
  973MOL0     H31288   9.167   6.256   3.329 -0.5257 -0.2420 -0.9722
  973MOL0     H31289   9.256   6.178   3.547 -0.7339  0.9800 -0.9505
  973MOL0     H31290   9.218   5.779   3.716 -0.0335  0.2050  1.4692
  973MOL0     H31291   9.377   5.793   3.616  0.1947  0.7802 -0.9264
  973MOL0     H31292   9.374   5.750   3.871 -0.3670 -0.2661  0.8098
  973MOL0     H31293   9.341   5.927   3.876  2.3047  1.7841 -0.3165
  973MOL0     H31294   9.594   5.876   3.889  3.8586  0.5082 -2.0152
  973MOL0     H31295   9.528   5.984   3.771  0.7393  0.2329  1.5333
  973MOL0     H31296   9.578   5.708   3.675  3.0292 -0.0690 -2.4221
  973MOL0     H31297   9.578   5.858   3.594 -2.6495  0.0233  0.8321
  973MOL0     H31298   9.815   5.799   3.596 -4.2543 -0.8693 -2.1170
  973MOL0     H31299   9.800   5.924   3.724  0.0954  2.1447  0.0947
  973MOL0     H31300   9.912   5.738   3.812  0.7438 -3.4593 -3.7070
  973MOL0     H31301   9.756   5.752   3.893  1.6878  0.7653  0.6240
  973MOL0     H31302   9.678   5.548   3.799  1.0226  1.4027  3.6870
  973MOL0     H31303   9.845   5.506   3.828 -2.3106 -1.6162  0.8256
  973MOL0     H31304   9.736   5.578   3.557 -1.5610  0.4723  2.9653
  973MOL0     H31305   9.902   5.535   3.582 -0.5007 -1.1070 -2.9325
  973MOL0     H31306   9.958   5.293   3.735  0.8113 -3.2108 -1.6671
  973MOL0     H31307   9.807   4.987   3.654 -1.7824  0.8588 -0.6596
  973MOL0     H31308   9.932   5.048   3.771  0.7521 -1.1558 -1.7393
  973MOL0     H31309   9.641   5.037   3.836  0.5804 -0.4179 -0.0297
  973MOL0     H31310   9.705   4.888   3.824  0.2152 -0.1288  1.3865
  973MOL0     H31311   9.916   4.956   3.969  0.4442  0.7454 -3.7828
  973MOL0     H31312   9.761   4.945   4.057  1.8797  0.9638  0.0501
  973MOL0     H31313   9.901   5.203   4.001  1.4958 -1.7729 -1.5256
  973MOL0     H31314   9.881   5.135   4.162  0.3664 -2.4920 -0.8221
  973MOL0     H31315   9.927   5.364   4.181  0.9233 -0.1930  3.0513
  973MOL0     H31316   9.915   5.588   4.223  0.3697 -2.7482  1.2014
  973MOL0     H31317   9.914   6.028   4.156 -2.6969 -1.3212 -0.7427
  973MOL0     H31318   9.872   6.283   4.204 -1.4486  1.3700  1.0270
  973MOL0     H31319   9.584   6.409   4.536 -1.3308  1.0271 -1.1909
  973MOL0     H31320   9.751   6.428   4.589  1.8984  1.0987 -2.0362
  973MOL0     H31321   9.619   6.636   4.570  0.7228 -1.5642  1.5264
  973MOL0     H31322   9.755   6.634   4.456  1.2319  0.0447  3.6732
  973MOL0     H31323   9.612   6.552   4.267 -2.9021 -2.0502 -1.3522
  973MOL0     H31324   9.471   6.546   4.379 -0.9974  0.5759 -0.4371
  973MOL0     H31325   9.630   6.799   4.348  0.6101 -1.5450 -0.2716
  973MOL0     H31326   9.468   6.794   4.407  0.0747  0.7417 -0.7179
  973MOL0     H31327   9.485   6.908   4.189 -0.0741  0.5905  1.6143
  973MOL0     H31328   9.399   6.767   4.166 -0.1944 -1.7837  0.5670
  973MOL0     H31329   9.695   6.759   4.126 -1.3694  1.3710  5.6708
  973MOL0     H31330   9.564   6.652   4.063 -0.7722 -0.1462  2.2151
  973MOL0     H31331   9.707   6.836   3.921  0.8957 -2.5937  1.5430
  973MOL0     H31332   9.578   6.952   3.974 -0.1820 -0.1991  0.1244
  973MOL0     H31333   9.470   6.702   3.865  3.9212 -1.5653 -1.3658
  973MOL0     H31334   9.438   6.870   3.818 -0.5356 -0.9767 -1.3622
  973MOL0     H31335   9.589   6.161   4.515 -1.2484 -0.4426  0.8379
  973MOL0     H31336   9.623   5.931   4.447 -0.0255  2.3265  2.7594
  973MOL0     H31337   9.506   5.612   4.078 -0.2100  0.6129  2.0016
  973MOL0     H31338   9.526   5.342   4.044 -3.4606  0.3459  4.6629
  973MOL0     H31339   9.185   5.775   3.472 -2.5803  0.3755  1.7109
  973MOL0     H31340   9.086   5.837   3.243  0.2899 -0.1272 -1.1697
  973MOL0     H31341   8.969   6.345   2.876 -0.5289  0.0869  0.7122
  973MOL0     H31342   8.766   6.351   2.723 -0.9010  0.1495  0.0974
  973MOL0     H31343   8.481   6.041   2.740  1.8434  1.5233  1.2011
  973MOL0     H31344   8.433   6.138   2.598  6.1923 -3.0795 -1.5857
  973MOL0     H31345   8.355   6.147   2.902  1.2455  1.0660  0.3814
  973MOL0     H31346   8.257   6.141   2.772 -1.9184  1.1948  3.5788
  973MOL0     H31347   8.399   6.401   2.819  2.7885 -2.8944  0.6262
  973MOL0     H31348   8.242   6.355   2.895 -0.0462 -0.6201 -0.3293
  973MOL0     H31349   8.163   6.321   2.644  0.1203 -3.2136  3.7058
  973MOL0     H31350   8.206   6.484   2.709  2.1949  1.1436 -0.9488
  973MOL0     H31351   8.514   6.444   2.427 -2.9576 -0.8441 -4.0169
  973MOL0     H31352   8.600   6.013   2.908 -0.3230 -0.5985 -1.2842
  973MOL0     H31353   8.685   6.028   3.204 -2.3064  0.2113 -1.3838
  973MOL0     H31354   8.711   5.902   3.090  1.9918 -1.3912  0.8110
  973MOL0     H31355   8.849   5.954   3.173 -2.7481 -5.6809  1.7646
  974MOL0     O31356   4.059   1.419  11.316 -1.3556  0.3861  0.5491
  974MOL0     C31357   4.163   1.432  11.253 -0.4960 -0.3765  0.5548
  974MOL0     O31358   4.218   1.330  11.175 -0.4177  0.1556 -0.1732
  974MOL0     C31359   4.124   1.240  11.124 -0.1795 -0.0030  0.2198
  974MOL0     C31360   3.984   1.254  11.108 -0.3990  0.0596 -0.1068
  974MOL0     C31361   3.909   1.164  11.040 -0.0646  0.3105 -0.9848
  974MOL0     C31362   3.973   1.048  10.981  0.3364 -0.7771 -0.2005
  974MOL0     O31363   3.886   0.961  10.916  0.6877  0.4059  0.1366
  974MOL0     C31364   3.942   0.862  10.828 -0.1226 -0.0873 -0.3554
  974MOL0     C31365   3.827   0.772  10.783  0.0891 -0.2607 -0.3810
  974MOL0     C31366   3.743   0.705  10.894  0.5531 -1.2485  0.2009
  974MOL0     C31367   3.804   0.582  10.965  0.4067 -1.2798  0.4360
  974MOL0     C31368   3.820   0.468  10.867  0.9321 -0.3329  0.2391
  974MOL0     C31369   3.805   0.339  10.954 -0.3078  0.0094  0.2794
  974MOL0     C31370   3.792   0.202  10.878 -0.6216  0.3907 -0.6466
  974MOL0     C31371   3.929   0.172  10.810  0.1643 -0.6483 -0.2209
  974MOL0     N31372   3.926   0.067  10.704  0.2738  0.5109  0.4098
  974MOL0     C31373   3.881  -0.070  10.721  0.9955 -1.5825  1.1861
  974MOL0     C31374   3.879  -0.121  10.599 -0.0214  0.2143 -0.0184
  974MOL0     C31375   3.853  -0.268  10.574  0.1026 -0.0688  0.4165
  974MOL0     C31376   3.972  -0.345  10.632 -0.4465  1.0720  0.1806
  974MOL0     C31377   3.956  -0.495  10.609 -0.5752 -1.0840  0.3057
  974MOL0     C31378   4.084  -0.565  10.648  0.0453 -0.4360 -0.1765
  974MOL0     O31379   4.186  -0.552  10.555  0.6677  0.2567 -0.2250
  974MOL0     C31380   4.310  -0.582  10.597 -0.1161  0.1449  0.0701
  974MOL0     C31381   4.339  -0.649  10.719  0.3025 -0.8091  0.3768
  974MOL0     C31382   4.471  -0.676  10.745  1.3020  0.2644  0.2519
  974MOL0     C31383   4.573  -0.665  10.647  0.1899 -0.5192 -0.6182
  974MOL0     C31384   4.709  -0.721  10.683  0.5508 -0.5413 -0.1288
  974MOL0     O31385   4.735  -0.766  10.804 -0.5194  0.1728  0.3368
  974MOL0     C31386   4.865  -0.822  10.821  0.7365 -0.4802 -0.5866
  974MOL0     C31387   4.921  -0.791  10.942 -0.0908  0.0609 -1.0202
  974MOL0     C31388   5.019  -0.882  10.996 -0.1780  0.2146 -0.4525
  974MOL0     C31389   5.077  -0.984  10.914 -0.3175 -0.1656 -1.4191
  974MOL0     O31390   5.179  -1.066  10.947  0.2415  0.0301 -0.4168
  974MOL0     C31391   5.248  -1.055  11.074  0.4116 -0.7793 -0.0034
  974MOL0     C31392   5.397  -1.068  11.037  0.3142  0.9531  0.9106
  974MOL0     C31393   5.502  -1.080  11.156  0.4026 -0.2169  0.5874
  974MOL0     C31394   5.657  -1.061  11.116 -0.4535 -0.0514  0.2647
  974MOL0     C31395   5.748  -1.083  11.235  0.3401  1.2163  0.3387
  974MOL0     C31396   5.894  -1.024  11.226 -0.9050  0.4318 -0.0510
  974MOL0     C31397   5.976  -1.053  11.349  0.1326  1.0648 -0.3693
  974MOL0     C31398   6.098  -0.959  11.376  0.6052  1.0814  1.1429
  974MOL0    Cl31399   6.207  -0.976  11.231 -0.2183 -0.2266 -0.3021
  974MOL0     C31400   5.017  -1.007  10.793 -0.2681 -0.1525  0.5533
  974MOL0     C31401   4.906  -0.935  10.756 -0.1521  0.3433  1.2865
  974MOL0     O31402   4.791  -0.716  10.590  0.8311 -0.0690  0.8386
  974MOL0     C31403   4.539  -0.612  10.519 -1.0396 -0.8192  0.1489
  974MOL0     C31404   4.404  -0.569  10.498 -0.1209  0.3302 -0.0023
  974MOL0     N31405   3.938  -0.033  10.510 -0.0590  0.2395  0.5312
  974MOL0     N31406   3.958   0.077  10.576  0.2321  0.4693  0.4247
  974MOL0     C31407   4.110   1.032  11.002 -1.6527 -0.6244 -0.2469
  974MOL0     C31408   4.183   1.126  11.068 -0.5260 -1.1823 -1.1180
  974MOL0     C31409   4.246   1.562  11.286  1.2896 -0.2399  0.9760
  974MOL0     C31410   4.230   1.625  11.415 -0.5833  0.9057 -0.5832
  974MOL0     C31411   4.300   1.740  11.448 -0.5033  1.0361 -0.2211
  974MOL0     C31412   4.389   1.791  11.357  0.3892 -0.0035  0.2873
  974MOL0     O31413   4.475   1.886  11.407  0.0912  0.1320  0.1355
  974MOL0     C31414   4.601   1.916  11.335 -0.1267  0.6922  0.1230
  974MOL0     C31415   4.696   1.999  11.420 -0.2719  0.5488  0.5298
  974MOL0     C31416   4.832   2.038  11.342 -0.1588  0.5463  0.4627
  974MOL0     C31417   4.806   2.145  11.230  0.7705 -0.3752  0.1527
  974MOL0     C31418   4.755   2.268  11.301  0.0869  0.5440 -0.1943
  974MOL0     C31419   4.731   2.359  11.378  0.8776 -0.1435  0.1317
  974MOL0     C31420   4.403   1.731  11.231 -0.0628 -1.2976  0.0359
  974MOL0     C31421   4.334   1.622  11.196 -0.6248  0.5429 -1.0016
  974MOL0     C31422   4.360   1.567  11.060 -1.2518 -0.4983  0.2839
  974MOL0     H31423   3.931   1.337  11.152 -1.8727  0.2175 -2.0281
  974MOL0     H31424   3.802   1.180  11.047  0.0185  0.4483  0.1455
  974MOL0     H31425   3.987   0.912  10.742  1.6799 -0.1380  0.5090
  974MOL0     H31426   4.017   0.798  10.876  1.1056  1.2159 -0.4685
  974MOL0     H31427   3.868   0.690  10.725 -0.4015 -0.4072 -0.5307
  974MOL0     H31428   3.759   0.824  10.714 -1.7196 -0.5532  1.0906
  974MOL0     H31429   3.651   0.684  10.840 -1.6169  3.7878  1.3355
  974MOL0     H31430   3.721   0.783  10.968  1.8574 -2.2023  1.6602
  974MOL0     H31431   3.898   0.614  11.010  0.3159  0.5659 -0.6102
  974MOL0     H31432   3.729   0.558  11.042 -1.7365  2.1342 -0.3783
  974MOL0     H31433   3.732   0.461  10.802  0.3075  1.4695  0.8253
  974MOL0     H31434   3.909   0.485  10.806 -1.1751  3.2191 -2.2412
  974MOL0     H31435   3.891   0.339  11.021 -0.4651  1.3646  0.5255
  974MOL0     H31436   3.717   0.339  11.019  1.5952  1.5731  3.1039
  974MOL0     H31437   3.706   0.205  10.810 -0.7488 -1.7444 -0.6331
  974MOL0     H31438   3.772   0.109  10.932 -0.4159 -1.6476 -3.8092
  974MOL0     H31439   3.961   0.270  10.774 -1.1648  0.9061  2.4913
  974MOL0     H31440   4.010   0.142  10.878 -0.6604 -4.8513 -0.8199
  974MOL0     H31441   3.853  -0.117  10.815 -0.3101  0.0193  1.6541
  974MOL0     H31442   3.757  -0.301  10.616 -0.3057 -0.1870 -0.5946
  974MOL0     H31443   3.852  -0.288  10.467  3.1376 -0.8355  0.4233
  974MOL0     H31444   4.065  -0.306  10.590  0.2535  0.8137  1.4833
  974MOL0     H31445   3.979  -0.326  10.739 -1.2320 -2.2437  0.9258
  974MOL0     H31446   3.921  -0.513  10.507 -3.1369 -1.2847  1.1382
  974MOL0     H31447   3.889  -0.539  10.683 -1.5624 -1.8307 -0.9807
  974MOL0     H31448   4.064  -0.672  10.663  0.5000 -0.2305  2.3076
  974MOL0     H31449   4.118  -0.523  10.743 -0.4507  1.7106 -0.9047
  974MOL0     H31450   4.255  -0.678  10.782 -1.3902  3.0333  0.1608
  974MOL0     H31451   4.491  -0.719  10.843  0.8911 -0.0526  0.1981
  974MOL0     H31452   4.891  -0.698  10.990  1.8405 -0.0758  0.5688
  974MOL0     H31453   5.071  -0.856  11.088  1.5747 -0.5817 -1.1844
  974MOL0     H31454   5.224  -0.964  11.130 -2.5726  0.7247 -3.3408
  974MOL0     H31455   5.226  -1.149  11.126  3.4100 -3.3385 -2.9651
  974MOL0     H31456   5.417  -1.140  10.958 -1.0294  0.0806  1.3349
  974MOL0     H31457   5.419  -0.980  10.976 -0.4387 -0.2671 -1.2158
  974MOL0     H31458   5.483  -1.007  11.235 -1.2123  0.7035 -0.6024
  974MOL0     H31459   5.488  -1.184  11.188  0.0917 -0.3211  0.1252
  974MOL0     H31460   5.673  -0.956  11.088 -1.4410 -0.5853 -2.6191
  974MOL0     H31461   5.697  -1.121  11.035  1.3620  6.2606 -4.2768
  974MOL0     H31462   5.762  -1.190  11.249  2.4185  1.2776 -0.8209
  974MOL0     H31463   5.704  -1.038  11.325  1.2632 -0.0023  1.4544
  974MOL0     H31464   5.941  -1.077  11.143 -2.1229 -0.1292 -0.3994
  974MOL0     H31465   5.881  -0.917  11.206 -1.3202  0.2165 -0.9871
  974MOL0     H31466   6.009  -1.156  11.333 -2.0963 -0.5927  4.0385
  974MOL0     H31467   5.919  -1.065  11.441  2.4364 -0.1800  0.9926
  974MOL0     H31468   6.069  -0.854  11.386 -3.0430  0.6020 -2.0075
  974MOL0     H31469   6.155  -0.989  11.464  0.8522 -2.6905 -0.1200
  974MOL0     H31470   5.048  -1.094  10.737  2.3473  0.1627  1.3738
  974MOL0     H31471   4.857  -0.965  10.664  1.8473  1.5278 -0.2306
  974MOL0     H31472   4.624  -0.600  10.452  0.0294 -3.4860  0.8961
  974MOL0     H31473   4.375  -0.529  10.401 -2.4033 -1.3803 -0.1236
  974MOL0     H31474   4.169   0.953  10.955 -0.6404 -0.3835  0.5947
  974MOL0     H31475   4.290   1.130  11.088 -0.9328  1.1524  1.0366
  974MOL0     H31476   4.155   1.583  11.481  0.6080 -1.6288 -0.7055
  974MOL0     H31477   4.298   1.788  11.546 -2.1223 -0.7645  0.6927
  974MOL0     H31478   4.569   1.975  11.249 -2.3926 -0.5436  0.0179
  974MOL0     H31479   4.646   1.822  11.302 -1.3059  0.9416 -2.4505
  974MOL0     H31480   4.734   1.926  11.492  0.6496  1.4403  0.9749
  974MOL0     H31481   4.639   2.076  11.473  1.5918  2.5128 -0.1644
  974MOL0     H31482   4.865   1.944  11.297  1.0334  0.7638  0.8572
  974MOL0     H31483   4.919   2.071  11.398 -0.6540  0.3254  1.3851
  974MOL0     H31484   4.888   2.160  11.158 -0.9080  0.2849 -1.7399
  974MOL0     H31485   4.724   2.111  11.165 -0.5872 -1.3556  2.2961
  974MOL0     H31486   4.686   2.436  11.438  1.6799  0.5410 -0.1169
  974MOL0     H31487   4.466   1.781  11.159  1.9510 -1.6027  1.4990
  974MOL0     H31488   4.407   1.645  11.000 -1.2624  0.2640  1.2498
  974MOL0     H31489   4.428   1.481  11.051  2.7972  2.6619 -3.9594
  974MOL0     H31490   4.261   1.536  11.025 -0.7884 -5.1683  2.2371
  975MOL0     O31491   3.879  11.300   6.743 -0.2825  0.0385  0.2915
  975MOL0     C31492   3.825  11.285   6.639 -0.1770  0.4689  0.8307
  975MOL0     O31493   3.697  11.232   6.620  0.3394 -0.2163 -0.2633
  975MOL0     C31494   3.653  11.158   6.734 -0.2923 -0.3981 -0.8994
  975MOL0     C31495   3.654  11.020   6.725 -0.3509 -0.9666 -0.1599
  975MOL0     C31496   3.627  10.936   6.834 -1.2035  1.2571  0.0652
  975MOL0     C31497   3.603  10.985   6.959  0.0158  0.0548 -0.2843
  975MOL0     O31498   3.584  10.909   7.070  0.6070  0.9364 -0.3209
  975MOL0     C31499   3.573  10.765   7.056  0.6797 -0.6889  0.3427
  975MOL0     C31500   3.538  10.696   7.192  0.0118 -0.0182  1.1110
  975MOL0     C31501   3.644  10.670   7.288 -0.2832 -0.4224  0.1378
  975MOL0     C31502   3.611  10.563   7.386 -0.1032  0.7856 -0.5541
  975MOL0     C31503   3.739  10.522   7.464  0.2487  0.2160 -0.4763
  975MOL0     C31504   3.692  10.438   7.585 -0.0199  0.8966  0.8648
  975MOL0     C31505   3.806  10.385   7.677 -0.6025 -0.5536  0.6542
  975MOL0     C31506   3.908  10.306   7.587 -0.4570 -0.4880 -0.7440
  975MOL0     N31507   4.011  10.248   7.662 -0.0178 -0.2946 -0.5683
  975MOL0     C31508   4.007  10.109   7.676 -0.8462 -0.4279  0.0404
  975MOL0     C31509   4.143  10.086   7.678  0.4806  0.2161 -1.2430
  975MOL0     C31510   4.201   9.953   7.701  0.1571 -1.0087 -0.7503
  975MOL0     C31511   4.350   9.946   7.678  0.7429  0.1239  0.0774
  975MOL0     C31512   4.407   9.805   7.671  0.0508 -0.7914  0.1350
  975MOL0     C31513   4.558   9.815   7.676 -0.5907  0.3836 -0.1167
  975MOL0     O31514   4.604   9.683   7.641 -0.3140 -0.9530  0.4435
  975MOL0     C31515   4.647   9.641   7.517  0.5873  0.2228  0.3551
  975MOL0     C31516   4.632   9.706   7.390  0.5659 -0.0136 -0.4827
  975MOL0     C31517   4.661   9.633   7.277  0.9751  0.9803 -0.0028
  975MOL0     C31518   4.731   9.503   7.278  0.3196 -0.3877 -0.8889
  975MOL0     C31519   4.772   9.437   7.153 -0.8704  0.5340  0.1653
  975MOL0     O31520   4.862   9.329   7.157  0.0477 -0.4404 -0.0004
  975MOL0     C31521   4.911   9.277   7.043 -0.8272  0.5914  1.0716
  975MOL0     C31522   4.834   9.197   6.961  0.8180 -0.7926  0.2231
  975MOL0     C31523   4.880   9.149   6.837 -0.3833  0.6587 -0.1890
  975MOL0     C31524   5.009   9.180   6.795  0.2603 -0.4261 -0.6612
  975MOL0     O31525   5.050   9.134   6.668 -0.0627  0.1447 -0.7964
  975MOL0     C31526   5.136   9.220   6.583 -0.3691  0.1729 -0.1147
  975MOL0     C31527   5.159   9.162   6.447 -0.4177 -0.0128  0.1559
  975MOL0     C31528   5.248   9.254   6.365  0.2443  1.6300  0.3139
  975MOL0     C31529   5.175   9.349   6.281  0.8305  0.0919  0.0223
  975MOL0     C31530   5.254   9.419   6.187 -1.0935  0.2993 -0.5083
  975MOL0     C31531   5.171   9.485   6.079  1.2424  0.5563 -1.0007
  975MOL0     C31532   5.258   9.572   5.999  0.9063 -0.4394  0.0403
  975MOL0     C31533   5.385   9.494   5.944  0.4772  0.3964 -0.2854
  975MOL0    Cl31534   5.498   9.597   5.863  0.0295 -0.2740  0.0662
  975MOL0     C31535   5.087   9.261   6.874 -0.0564 -0.4100  0.7666
  975MOL0     C31536   5.032   9.314   6.997  0.2551  0.1665  0.4317
  975MOL0     O31537   4.718   9.479   7.050  0.6223  0.2606  0.3393
  975MOL0     C31538   4.753   9.447   7.406 -0.3917 -0.1325  0.1643
  975MOL0     C31539   4.702   9.508   7.521 -0.5179 -0.1340  1.6359
  975MOL0     N31540   4.218  10.210   7.689 -0.7129  0.0464 -0.5315
  975MOL0     N31541   4.135  10.305   7.684  0.0866 -1.0819  0.7664
  975MOL0     C31542   3.604  11.124   6.975 -1.0277 -0.2484  0.1395
  975MOL0     C31543   3.621  11.213   6.865 -0.3314  0.0182  0.2610
  975MOL0     C31544   3.891  11.319   6.512 -0.9729  0.2245  0.3163
  975MOL0     C31545   3.839  11.264   6.393 -0.3658  0.0007  0.3443
  975MOL0     C31546   3.890  11.309   6.270  0.1239 -0.2780  0.3307
  975MOL0     C31547   3.989  11.404   6.267 -0.6098 -0.1114  0.5320
  975MOL0     O31548   4.057  11.455   6.152  0.6263  0.1832  0.2458
  975MOL0     C31549   3.999  11.446   6.019 -0.2581 -0.1057  0.9476
  975MOL0     C31550   4.049  11.555   5.923  0.3937  0.1424  1.1333
  975MOL0     C31551   4.198  11.596   5.947 -0.6595  0.0351 -0.0726
  975MOL0     C31552   4.236  11.719   5.855  0.2282 -0.8374  0.3030
  975MOL0     C31553   4.380  11.755   5.876 -0.2723  0.0959 -0.6381
  975MOL0     C31554   4.494  11.799   5.885 -0.9866  0.6727 -0.4480
  975MOL0     C31555   4.036  11.459   6.384  0.0731 -0.4676  0.8434
  975MOL0     C31556   3.995  11.421   6.506  0.4889  0.9508 -0.2566
  975MOL0     C31557   4.056  11.479   6.627 -0.3142 -0.0362  0.0207
  975MOL0     H31558   3.660  10.962   6.633  0.3472 -3.6757  1.4837
  975MOL0     H31559   3.649  10.831   6.819 -0.4785  1.0849  2.0600
  975MOL0     H31560   3.506  10.740   6.973  2.4056 -0.9955 -1.0193
  975MOL0     H31561   3.668  10.725   7.020  1.3598 -2.4185  3.6364
  975MOL0     H31562   3.487  10.601   7.177 -4.5394  1.9811  2.1067
  975MOL0     H31563   3.458  10.752   7.241 -0.6687 -0.3066  0.3584
  975MOL0     H31564   3.671  10.763   7.339 -1.8693  1.3931 -2.1163
  975MOL0     H31565   3.741  10.645   7.243 -0.0750  1.0392 -0.2726
  975MOL0     H31566   3.535  10.604   7.452  0.9845  1.2460  0.4532
  975MOL0     H31567   3.570  10.476   7.333 -0.5897 -0.6067  1.9838
  975MOL0     H31568   3.803  10.468   7.394 -0.7125  0.4919 -1.6019
  975MOL0     H31569   3.789  10.613   7.501  0.0428 -0.0988  0.5894
  975MOL0     H31570   3.622  10.490   7.651 -2.7267 -1.8142  0.3608
  975MOL0     H31571   3.636  10.353   7.544  0.4438 -0.1376  2.3068
  975MOL0     H31572   3.768  10.310   7.747  1.3725 -0.5453  1.8062
  975MOL0     H31573   3.861  10.462   7.733  0.6627 -0.9234 -0.0412
  975MOL0     H31574   3.853  10.234   7.525 -1.2817  0.7528 -1.5002
  975MOL0     H31575   3.950  10.382   7.521  0.0985 -0.6340 -0.5623
  975MOL0     H31576   3.920  10.044   7.668 -2.6601  2.0246 -1.2693
  975MOL0     H31577   4.177   9.934   7.806 -1.0592  5.0621  0.4687
  975MOL0     H31578   4.139   9.886   7.642 -0.7246 -1.3155  0.4849
  975MOL0     H31579   4.372  10.007   7.589  0.5137  0.1469  0.0362
  975MOL0     H31580   4.388  10.008   7.760  2.1003  0.4495 -0.7445
  975MOL0     H31581   4.373   9.755   7.579 -0.2549 -0.2989 -0.0249
  975MOL0     H31582   4.373   9.736   7.748 -1.2475 -0.7791 -0.3966
  975MOL0     H31583   4.593   9.805   7.779  0.4502 -3.9736 -0.7077
  975MOL0     H31584   4.588   9.896   7.608 -2.3541  1.8262  0.7500
  975MOL0     H31585   4.588   9.805   7.388 -1.1300 -0.3866  4.2400
  975MOL0     H31586   4.659   9.688   7.183  3.6018  2.2023  0.5724
  975MOL0     H31587   4.740   9.160   7.001  1.2744  1.3766  3.6586
  975MOL0     H31588   4.821   9.077   6.782 -0.8155 -0.2169  1.3645
  975MOL0     H31589   5.096   9.319   6.558  1.3710  0.2959 -2.8148
  975MOL0     H31590   5.230   9.220   6.639  0.5260  0.8719 -1.5597
  975MOL0     H31591   5.210   9.066   6.463  0.8308  0.2892 -1.6489
  975MOL0     H31592   5.065   9.134   6.398 -0.8676  0.1660  0.9035
  975MOL0     H31593   5.319   9.316   6.421  0.3310  1.1115  0.7915
  975MOL0     H31594   5.311   9.185   6.308  0.3865  2.7609 -0.9542
  975MOL0     H31595   5.125   9.432   6.332 -0.3450 -0.0069 -0.9228
  975MOL0     H31596   5.092   9.304   6.226  0.2018  3.1829 -1.8396
  975MOL0     H31597   5.317   9.343   6.140  0.1363  0.4143  0.8818
  975MOL0     H31598   5.323   9.490   6.233 -1.2285 -0.7974  1.4719
  975MOL0     H31599   5.110   9.424   6.013 -0.7481  2.6754 -1.2207
  975MOL0     H31600   5.092   9.548   6.120  1.6277 -0.0707  0.7903
  975MOL0     H31601   5.289   9.658   6.060  1.7939  0.3196 -1.4327
  975MOL0     H31602   5.207   9.622   5.917  0.1375  1.6943  1.7343
  975MOL0     H31603   5.445   9.444   6.022 -0.7592 -0.2272  0.2991
  975MOL0     H31604   5.358   9.412   5.877  1.8894 -1.9904  1.8567
  975MOL0     H31605   5.192   9.250   6.848 -0.3991 -1.7756 -0.1763
  975MOL0     H31606   5.096   9.369   7.064 -0.2398  3.0261 -1.2806
  975MOL0     H31607   4.814   9.357   7.417 -1.4868 -1.0155 -0.6863
  975MOL0     H31608   4.722   9.453   7.612  0.1738 -3.1191 -0.1845
  975MOL0     H31609   3.578  11.158   7.075 -2.6231  3.9343 -1.4484
  975MOL0     H31610   3.610  11.321   6.874  2.0927  0.4108 -0.7536
  975MOL0     H31611   3.761  11.188   6.398 -0.5321  0.2510  2.9617
  975MOL0     H31612   3.867  11.253   6.179  1.5582 -0.7738  0.2496
  975MOL0     H31613   3.890  11.454   6.022 -0.4171  3.9883 -3.3880
  975MOL0     H31614   4.021  11.348   5.974 -0.2814  0.8247 -1.2128
  975MOL0     H31615   3.987  11.646   5.930 -0.5818 -0.2084 -1.6547
  975MOL0     H31616   4.036  11.513   5.823  1.2046 -1.8787  1.8408
  975MOL0     H31617   4.268  11.521   5.910 -3.8437 -2.3752 -1.7163
  975MOL0     H31618   4.217  11.614   6.054 -0.4694  1.4034 -0.3117
  975MOL0     H31619   4.198  11.689   5.757 -2.5950 -0.6820  1.2609
  975MOL0     H31620   4.177  11.810   5.870  0.6953  0.0238 -2.5265
  975MOL0     H31621   4.595  11.830   5.902  0.0267 -2.2867 -0.5663
  975MOL0     H31622   4.126  11.520   6.377 -1.3983  1.7219  0.1706
  975MOL0     H31623   4.143  11.538   6.597 -1.9243  2.2069 -0.4724
  975MOL0     H31624   3.992  11.538   6.693 -2.1959 -1.9229  0.0062
  975MOL0     H31625   4.098  11.398   6.688 -1.7609 -1.0446 -0.2604
  976MOL0     O31626   3.043   7.304   1.986  0.2854 -0.6103  0.5404
  976MOL0     C31627   3.054   7.352   1.868  0.4711 -0.2549  0.6148
  976MOL0     O31628   3.168   7.333   1.804 -0.0678  0.7091  0.2757
  976MOL0     C31629   3.276   7.276   1.875 -0.4891 -0.4984 -0.0793
  976MOL0     C31630   3.387   7.349   1.924 -1.0783 -0.0661  0.8630
  976MOL0     C31631   3.485   7.281   1.995 -0.2004 -0.8654 -1.1798
  976MOL0     C31632   3.467   7.151   2.032  0.4057  0.5113 -0.2558
  976MOL0     O31633   3.563   7.071   2.079  0.3981 -0.2662 -0.4003
  976MOL0     C31634   3.655   7.117   2.172  0.3612 -0.8649  0.4951
  976MOL0     C31635   3.734   7.010   2.241 -0.6010 -0.4314  0.5899
  976MOL0     C31636   3.647   6.890   2.275 -0.2518 -0.3714 -0.3984
  976MOL0     C31637   3.546   6.908   2.387  0.0805 -0.2415 -1.1058
  976MOL0     C31638   3.404   6.853   2.371  0.0987  0.2925 -1.3387
  976MOL0     C31639   3.400   6.706   2.331 -0.2655  0.4710  0.3221
  976MOL0     C31640   3.263   6.644   2.364 -0.4423 -0.3610  0.8322
  976MOL0     C31641   3.235   6.614   2.514 -0.0966 -0.2939 -0.1496
  976MOL0     N31642   3.351   6.548   2.571  0.0731  0.5948 -0.0509
  976MOL0     C31643   3.381   6.419   2.556  0.9759  0.6338 -0.3314
  976MOL0     C31644   3.504   6.401   2.617  0.2097  0.8171  0.0827
  976MOL0     C31645   3.599   6.279   2.621 -0.0644  0.4617  0.4484
  976MOL0     C31646   3.697   6.282   2.509 -0.8927 -0.1989 -0.3305
  976MOL0     C31647   3.622   6.301   2.375 -0.2047  0.1403  0.2960
  976MOL0     C31648   3.716   6.274   2.255  0.3327 -0.3427 -0.7555
  976MOL0     O31649   3.807   6.388   2.231  0.0164  0.0652  0.2185
  976MOL0     C31650   3.760   6.509   2.170 -0.3108  0.3415 -0.7235
  976MOL0     C31651   3.635   6.512   2.100 -1.4864 -0.7336 -0.3893
  976MOL0     C31652   3.620   6.620   2.003  0.4436 -0.4505  0.0952
  976MOL0     C31653   3.723   6.713   1.989 -0.7977 -0.0314 -0.0742
  976MOL0     C31654   3.702   6.817   1.881  0.0974 -0.7597 -0.0071
  976MOL0     O31655   3.612   6.783   1.785  0.4753 -0.7979 -0.1924
  976MOL0     C31656   3.601   6.850   1.666  0.1479 -0.3420 -1.3428
  976MOL0     C31657   3.651   6.792   1.549 -0.6448 -0.0263  0.3880
  976MOL0     C31658   3.629   6.871   1.431 -0.3812  0.6693 -0.5744
  976MOL0     C31659   3.576   6.995   1.429  0.0795 -0.1064 -0.2418
  976MOL0     O31660   3.561   7.071   1.313  0.3275  0.4647 -0.0480
  976MOL0     C31661   3.652   7.047   1.202 -0.7187  1.0974 -0.1058
  976MOL0     C31662   3.644   7.157   1.098  0.7205 -0.7828 -0.1176
  976MOL0     C31663   3.678   7.290   1.159  0.7627 -0.1918 -0.0393
  976MOL0     C31664   3.814   7.268   1.230 -0.3838  0.3106  0.2604
  976MOL0     C31665   3.900   7.386   1.246 -0.0796 -1.0151 -0.0092
  976MOL0     C31666   3.848   7.476   1.361  0.6216  0.3047 -0.4956
  976MOL0     C31667   3.945   7.557   1.440 -1.7958  0.0186  0.1683
  976MOL0     C31668   4.057   7.631   1.362 -0.3593  0.4749 -0.0768
  976MOL0    Cl31669   3.988   7.738   1.242 -0.1041  0.2581  0.1438
  976MOL0     C31670   3.539   7.049   1.547  0.6989 -0.8584  0.4397
  976MOL0     C31671   3.543   6.983   1.668  0.3946  0.8651 -0.0359
  976MOL0     O31672   3.768   6.921   1.885 -0.2591 -0.2110  0.7349
  976MOL0     C31673   3.836   6.711   2.074  0.0898  0.1771  1.4118
  976MOL0     C31674   3.857   6.606   2.160  0.7877 -0.0952  0.8425
  976MOL0     N31675   3.542   6.517   2.680 -0.1757  0.7438 -0.2999
  976MOL0     N31676   3.451   6.601   2.649 -0.0382  0.7354  0.6742
  976MOL0     C31677   3.358   7.079   1.986 -1.5362  0.4100  0.3270
  976MOL0     C31678   3.262   7.140   1.909  0.4472  0.6045 -0.3255
  976MOL0     C31679   2.945   7.413   1.782 -0.1774  0.7218  0.3086
  976MOL0     C31680   2.815   7.405   1.841  0.6321  0.1507  0.3455
  976MOL0     C31681   2.703   7.446   1.770  0.3136  0.5626 -0.9687
  976MOL0     C31682   2.716   7.505   1.643  0.1251 -0.3368  0.4075
  976MOL0     O31683   2.610   7.558   1.572  0.1653 -0.1384  0.1211
  976MOL0     C31684   2.468   7.516   1.591 -0.2798  0.5045 -0.0230
  976MOL0     C31685   2.393   7.590   1.481 -0.1749 -0.9069 -0.1916
  976MOL0     C31686   2.243   7.566   1.473  0.5320  0.3234 -0.1371
  976MOL0     C31687   2.176   7.585   1.347  0.2524  0.9993 -0.2389
  976MOL0     C31688   2.172   7.721   1.302 -0.5145 -0.8278 -0.0680
  976MOL0     C31689   2.146   7.837   1.273 -0.2089  0.7173  0.2918
  976MOL0     C31690   2.840   7.519   1.585  0.4006 -0.7641 -0.1898
  976MOL0     C31691   2.958   7.475   1.653 -0.2969 -0.7102  0.4476
  976MOL0     C31692   3.096   7.486   1.583  0.3329  0.6601  0.9054
  976MOL0     H31693   3.416   7.451   1.903  1.3630 -0.9622 -0.6302
  976MOL0     H31694   3.578   7.332   2.021  3.3629 -6.3204 -1.4839
  976MOL0     H31695   3.729   7.179   2.120 -0.6897  0.9443  1.0424
  976MOL0     H31696   3.601   7.177   2.246 -0.7490 -0.9353 -0.2461
  976MOL0     H31697   3.788   7.034   2.333  0.8794 -2.2224  0.2593
  976MOL0     H31698   3.805   6.963   2.171 -1.2204  0.7428 -0.8747
  976MOL0     H31699   3.708   6.807   2.311  0.8525  0.8622  0.6686
  976MOL0     H31700   3.599   6.854   2.183  4.1249  0.8494 -3.4791
  976MOL0     H31701   3.585   6.874   2.483  2.2911 -2.6659 -2.7113
  976MOL0     H31702   3.538   7.016   2.401 -0.5833 -0.4119  0.0125
  976MOL0     H31703   3.359   6.858   2.470 -3.7072 -1.2117 -2.8140
  976MOL0     H31704   3.343   6.916   2.305 -0.3612  0.0877 -1.1104
  976MOL0     H31705   3.409   6.681   2.225 -0.3385  0.5509  0.2971
  976MOL0     H31706   3.482   6.658   2.385  0.9501 -0.4456 -2.1851
  976MOL0     H31707   3.262   6.543   2.321 -2.7600 -1.2738  2.7985
  976MOL0     H31708   3.188   6.707   2.316 -0.5641 -2.4272 -1.9423
  976MOL0     H31709   3.200   6.702   2.568 -0.3779 -1.0181  0.8598
  976MOL0     H31710   3.157   6.538   2.508 -2.4861  2.0499 -0.8487
  976MOL0     H31711   3.314   6.347   2.509  1.1830 -0.4040  0.9237
  976MOL0     H31712   3.642   6.279   2.721 -1.0580 -1.2968  0.9163
  976MOL0     H31713   3.538   6.189   2.623 -2.1007  1.6100  5.1422
  976MOL0     H31714   3.772   6.360   2.518  1.8419 -2.8868  4.5944
  976MOL0     H31715   3.751   6.187   2.507  1.4792  1.0834 -0.5847
  976MOL0     H31716   3.594   6.407   2.381  1.4774  0.5257  4.8201
  976MOL0     H31717   3.536   6.234   2.387 -1.6176  2.2887  4.3186
  976MOL0     H31718   3.650   6.246   2.172 -2.5397 -3.7415  2.3643
  976MOL0     H31719   3.778   6.185   2.270  1.8790  0.8083 -0.0447
  976MOL0     H31720   3.573   6.424   2.110  2.6006 -3.7018  2.0694
  976MOL0     H31721   3.531   6.622   1.941  0.1338 -2.5908  0.3964
  976MOL0     H31722   3.699   6.695   1.554 -0.3778  0.0849  0.0378
  976MOL0     H31723   3.657   6.824   1.337  3.4254 -0.2865  0.8094
  976MOL0     H31724   3.758   7.047   1.229 -0.4441  1.3319 -1.1482
  976MOL0     H31725   3.615   6.954   1.158  1.3164 -1.3337  2.9143
  976MOL0     H31726   3.699   7.142   1.005 -1.6076  1.6778 -2.0617
  976MOL0     H31727   3.542   7.155   1.057  0.4721  0.7594  0.3619
  976MOL0     H31728   3.687   7.370   1.085  1.2966  0.6614  0.9108
  976MOL0     H31729   3.605   7.321   1.234 -2.1449 -1.4759 -2.1600
  976MOL0     H31730   3.883   7.203   1.175 -0.2660  0.4463  0.2475
  976MOL0     H31731   3.795   7.233   1.332  1.8477  0.8279  0.9105
  976MOL0     H31732   3.884   7.453   1.161  2.7812 -1.2175 -0.8235
  976MOL0     H31733   4.005   7.359   1.259  0.3895  1.1641  1.2759
  976MOL0     H31734   3.756   7.528   1.333 -2.0797 -3.3624  0.7313
  976MOL0     H31735   3.796   7.414   1.435 -4.0996  1.9109 -2.0998
  976MOL0     H31736   3.998   7.487   1.506 -0.2299 -2.0330 -2.9876
  976MOL0     H31737   3.889   7.632   1.496 -1.5312 -0.2792  0.8374
  976MOL0     H31738   4.117   7.684   1.437  1.8040 -2.7432  0.6644
  976MOL0     H31739   4.125   7.559   1.315 -2.2629  0.3187 -2.8177
  976MOL0     H31740   3.500   7.149   1.530  1.6542 -0.1171  2.2805
  976MOL0     H31741   3.502   7.024   1.760  0.5266  3.0676 -0.9224
  976MOL0     H31742   3.902   6.796   2.085  0.3994  0.0445  0.6510
  976MOL0     H31743   3.947   6.621   2.218  1.3198  1.1526 -0.2331
  976MOL0     H31744   3.358   6.976   2.020  3.8014 -0.5776 -1.7484
  976MOL0     H31745   3.175   7.083   1.875 -0.6453  1.1210  1.4604
  976MOL0     H31746   2.785   7.347   1.928 -0.3958 -1.8934 -1.2841
  976MOL0     H31747   2.600   7.441   1.803  0.1550  1.6737 -1.2543
  976MOL0     H31748   2.434   7.554   1.687 -0.4567  0.9559 -0.2625
  976MOL0     H31749   2.458   7.407   1.591 -2.4126  0.6493  1.5812
  976MOL0     H31750   2.441   7.560   1.387  0.9063  2.1836 -0.7816
  976MOL0     H31751   2.423   7.694   1.498 -1.0933 -0.5835 -0.5222
  976MOL0     H31752   2.185   7.622   1.548  2.5461  0.4332  1.4334
  976MOL0     H31753   2.231   7.467   1.519  4.9992  1.0334  3.3116
  976MOL0     H31754   2.233   7.521   1.279 -0.1462  0.9783 -0.5530
  976MOL0     H31755   2.082   7.531   1.364  0.1572  1.8501  2.3414
  976MOL0     H31756   2.123   7.937   1.244  1.4534  0.8192 -0.8075
  976MOL0     H31757   2.843   7.557   1.483 -2.0675  0.1874  0.0241
  976MOL0     H31758   3.172   7.532   1.647  2.6997 -1.9160  0.1366
  976MOL0     H31759   3.141   7.393   1.548 -0.2610  1.1566 -1.4147
  976MOL0     H31760   3.092   7.542   1.489  0.7008  1.1184  1.1634
  977MOL0     O31761   6.761   9.209   8.317  0.0288 -0.1171  0.4142
  977MOL0     C31762   6.810   9.121   8.390  0.2282  0.6897  0.8332
  977MOL0     O31763   6.750   9.074   8.505  0.0367  0.4946 -0.1542
  977MOL0     C31764   6.630   9.127   8.547 -0.4195 -0.2100 -0.1530
  977MOL0     C31765   6.622   9.267   8.568 -0.4970  0.4117 -0.5574
  977MOL0     C31766   6.499   9.317   8.607 -0.7705 -0.6341  0.2030
  977MOL0     C31767   6.376   9.248   8.608 -0.2507 -0.7822  1.1103
  977MOL0     O31768   6.252   9.301   8.632 -0.1923  1.2857  0.4248
  977MOL0     C31769   6.243   9.421   8.711 -0.0352 -0.4245  0.0238
  977MOL0     C31770   6.101   9.456   8.746 -0.1059  0.1477  0.3263
  977MOL0     C31771   6.035   9.354   8.830 -0.6195  0.4203  0.3959
  977MOL0     C31772   6.117   9.280   8.939  0.3157  0.1866 -0.0862
  977MOL0     C31773   6.049   9.176   9.031 -0.0850 -0.1139 -0.7124
  977MOL0     C31774   6.043   9.042   8.960 -0.1519  1.2921 -0.1249
  977MOL0     C31775   5.922   8.955   9.005  0.1151 -0.3259 -0.6448
  977MOL0     C31776   5.920   8.892   9.145  0.3118 -0.7192 -0.4778
  977MOL0     N31777   5.826   8.791   9.155 -0.1266  0.7064 -0.1576
  977MOL0     C31778   5.691   8.807   9.138 -0.3754 -1.0397  0.6749
  977MOL0     C31779   5.629   8.698   9.189  0.0876 -0.2494  0.1309
  977MOL0     C31780   5.478   8.694   9.183  1.1021 -0.4928 -0.2269
  977MOL0     C31781   5.417   8.741   9.317 -0.7713  0.2269  0.0056
  977MOL0     C31782   5.462   8.640   9.431  0.0648  0.2846 -0.9636
  977MOL0     C31783   5.376   8.658   9.550 -0.2400 -0.0326 -0.6054
  977MOL0     O31784   5.234   8.635   9.526  0.1065  0.6010 -0.1759
  977MOL0     C31785   5.190   8.511   9.569 -0.2290 -0.5174 -0.8716
  977MOL0     C31786   5.211   8.458   9.700  1.0015 -0.0884 -0.1833
  977MOL0     C31787   5.146   8.331   9.724  0.5964  0.4130 -0.1015
  977MOL0     C31788   5.080   8.256   9.625  0.0486 -0.8046 -0.5271
  977MOL0     C31789   5.007   8.134   9.656 -0.4164 -0.0954 -0.8431
  977MOL0     O31790   5.018   8.087   9.790  0.3667 -0.3482  0.3136
  977MOL0     C31791   4.956   7.974   9.810  0.4310  0.4884  0.4282
  977MOL0     C31792   4.824   7.975   9.858 -0.8836 -0.4774  0.2288
  977MOL0     C31793   4.749   7.854   9.867  0.5127 -0.3912 -0.8564
  977MOL0     C31794   4.825   7.742   9.854  1.3437 -0.5162 -0.4694
  977MOL0     O31795   4.755   7.626   9.877  0.0938  0.7582  0.2671
  977MOL0     C31796   4.818   7.529   9.954 -0.0781 -0.0559 -0.8022
  977MOL0     C31797   4.696   7.441  10.015 -0.8598  0.4326  1.0843
  977MOL0     C31798   4.744   7.348  10.122 -0.2404  0.4257  0.2455
  977MOL0     C31799   4.630   7.262  10.172 -0.2998 -1.1253 -0.0686
  977MOL0     C31800   4.658   7.204  10.309  0.0888  0.2291 -0.5305
  977MOL0     C31801   4.750   7.082  10.323 -0.0073  0.3995  0.7683
  977MOL0     C31802   4.739   7.031  10.470 -0.2265 -0.0541 -0.7453
  977MOL0     C31803   4.838   6.912  10.492  0.3384  0.1008  0.0524
  977MOL0    Cl31804   4.793   6.831  10.641 -0.1430 -0.0069  0.3055
  977MOL0     C31805   4.965   7.745   9.832 -1.3123  0.0545  0.3463
  977MOL0     C31806   5.029   7.860   9.794 -0.5103 -0.3829 -0.2400
  977MOL0     O31807   4.952   8.080   9.562 -0.7377 -0.0455  0.6264
  977MOL0     C31808   5.078   8.313   9.498  0.6892 -0.1995 -0.0843
  977MOL0     C31809   5.121   8.441   9.467 -0.9081 -0.2080 -0.6267
  977MOL0     N31810   5.731   8.606   9.231 -0.2309 -0.2703  0.5354
  977MOL0     N31811   5.839   8.660   9.201 -0.7416  0.3411 -0.2377
  977MOL0     C31812   6.388   9.112   8.609  0.0655  0.8226 -0.6702
  977MOL0     C31813   6.519   9.050   8.591 -0.2903 -0.7192 -0.2667
  977MOL0     C31814   6.931   9.055   8.348  0.0509 -0.4314  0.4061
  977MOL0     C31815   6.933   8.909   8.335  0.5463 -0.1162 -0.3601
  977MOL0     C31816   7.049   8.844   8.290 -0.4690 -0.2382 -0.3309
  977MOL0     C31817   7.167   8.910   8.272 -0.0444 -1.1674  0.8866
  977MOL0     O31818   7.285   8.852   8.240 -0.5966 -1.1435  0.0198
  977MOL0     C31819   7.392   8.856   8.327  0.3601  0.4124 -0.1348
  977MOL0     C31820   7.521   8.861   8.234 -0.6363  0.3071  0.6381
  977MOL0     C31821   7.531   8.729   8.157 -0.6438  0.3728  0.2495
  977MOL0     C31822   7.635   8.738   8.059  0.4898  0.4490  0.0321
  977MOL0     C31823   7.759   8.784   8.112 -0.0452  0.3757  0.0234
  977MOL0     C31824   7.863   8.825   8.157  1.2464  0.4933  0.7704
  977MOL0     C31825   7.168   9.051   8.295  0.4276  0.5490  0.6150
  977MOL0     C31826   7.055   9.119   8.328  0.3652 -0.6785  0.7982
  977MOL0     C31827   7.070   9.270   8.350 -0.4561 -0.0180 -0.2022
  977MOL0     H31828   6.711   9.329   8.559 -0.5730  0.5138 -0.6066
  977MOL0     H31829   6.489   9.425   8.615 -0.7852 -0.5777 -0.5207
  977MOL0     H31830   6.309   9.431   8.798 -0.4734  1.8416  0.1618
  977MOL0     H31831   6.282   9.494   8.640 -0.3278 -1.9374 -1.7903
  977MOL0     H31832   6.040   9.482   8.659  1.9716  2.3925 -0.5650
  977MOL0     H31833   6.103   9.553   8.797  0.0309  1.2068 -1.6021
  977MOL0     H31834   6.001   9.279   8.758 -0.9413  4.0711 -3.7274
  977MOL0     H31835   5.944   9.403   8.865 -1.5907 -2.0515  1.4849
  977MOL0     H31836   6.192   9.228   8.879 -0.4792 -1.5271  0.3513
  977MOL0     H31837   6.175   9.350   9.000  3.8443  0.4111 -3.2861
  977MOL0     H31838   6.100   9.176   9.128 -0.0677  0.9150 -0.7120
  977MOL0     H31839   5.947   9.209   9.050 -0.0423 -0.5206  0.3019
  977MOL0     H31840   6.024   9.070   8.855 -0.0864  0.4695 -0.3576
  977MOL0     H31841   6.138   8.990   8.976  0.1608  1.3001 -1.7630
  977MOL0     H31842   5.916   8.868   8.939 -1.7917 -1.4120  0.8620
  977MOL0     H31843   5.833   9.019   9.004 -0.9882 -1.8252 -0.7132
  977MOL0     H31844   6.019   8.850   9.166 -0.3156 -0.8849  2.7515
  977MOL0     H31845   5.900   8.966   9.223 -1.4942 -0.7312 -0.8795
  977MOL0     H31846   5.639   8.889   9.090  2.2085  0.1890 -0.1861
  977MOL0     H31847   5.444   8.754   9.098 -2.3084  0.1395  1.4395
  977MOL0     H31848   5.443   8.593   9.159 -3.1576  0.6622  0.4003
  977MOL0     H31849   5.431   8.846   9.344  5.3665 -0.2504  0.0200
  977MOL0     H31850   5.311   8.721   9.301 -0.1686 -1.9905 -1.8226
  977MOL0     H31851   5.565   8.660   9.463  0.9614 -0.8361 -2.9115
  977MOL0     H31852   5.472   8.535   9.404  2.6944  0.2357 -0.0914
  977MOL0     H31853   5.386   8.762   9.585 -1.3089 -0.6797  1.8614
  977MOL0     H31854   5.421   8.599   9.629  3.6315  0.5229 -2.2001
  977MOL0     H31855   5.258   8.508   9.784  2.7179  1.4297 -1.9426
  977MOL0     H31856   5.138   8.309   9.830 -2.2515 -0.9072 -0.4989
  977MOL0     H31857   4.782   8.075   9.854 -0.2255 -0.2184 -0.2614
  977MOL0     H31858   4.642   7.853   9.886  0.7153 -2.8866  0.6317
  977MOL0     H31859   4.877   7.456   9.897  0.4446 -1.1513  1.0554
  977MOL0     H31860   4.873   7.579  10.035 -3.3618 -0.2969  1.7980
  977MOL0     H31861   4.617   7.504  10.057 -2.5244 -0.9177  0.0754
  977MOL0     H31862   4.662   7.375   9.935  1.9245 -1.2033  1.0916
  977MOL0     H31863   4.828   7.293  10.080  1.4138  1.1510  2.3744
  977MOL0     H31864   4.791   7.411  10.199 -1.0083  2.2592 -0.7146
  977MOL0     H31865   4.618   7.180  10.101  2.7301  0.2938 -2.4579
  977MOL0     H31866   4.535   7.316  10.181 -0.6704 -2.0943  3.1228
  977MOL0     H31867   4.560   7.167  10.340  0.7105 -1.0668 -0.0023
  977MOL0     H31868   4.689   7.282  10.379 -2.8009  1.3400 -0.3861
  977MOL0     H31869   4.719   7.001  10.257  4.0002  2.8394 -4.9786
  977MOL0     H31870   4.846   7.126  10.292 -0.3995  0.4899 -0.3528
  977MOL0     H31871   4.637   7.005  10.503 -0.1790  1.8041  1.0604
  977MOL0     H31872   4.768   7.109  10.541 -0.4363 -1.9899  1.6111
  977MOL0     H31873   4.820   6.841  10.410 -1.1521  0.8487 -0.3164
  977MOL0     H31874   4.942   6.946  10.490  0.3519  0.0592  0.0492
  977MOL0     H31875   5.022   7.654   9.844 -1.0218  0.1581 -0.2176
  977MOL0     H31876   5.131   7.851   9.758 -1.1091 -2.0816 -1.6624
  977MOL0     H31877   5.032   8.264   9.413 -1.3225  0.6981  0.4173
  977MOL0     H31878   5.125   8.493   9.371  1.4601  2.4800  0.7534
  977MOL0     H31879   6.302   9.047   8.618  0.6616  0.0427 -0.5085
  977MOL0     H31880   6.519   8.942   8.574  1.7772 -0.7163 -0.5268
  977MOL0     H31881   6.840   8.854   8.346 -1.6998  3.3040 -0.4915
  977MOL0     H31882   7.061   8.740   8.261 -1.1618  0.4095 -3.3202
  977MOL0     H31883   7.396   8.769   8.394  2.1714 -0.8627 -1.7715
  977MOL0     H31884   7.390   8.938   8.398  0.0643 -2.5374  3.5899
  977MOL0     H31885   7.612   8.875   8.294 -0.9604 -0.2786  1.2888
  977MOL0     H31886   7.513   8.937   8.156  1.9863 -0.5306 -0.5593
  977MOL0     H31887   7.434   8.694   8.121 -1.7974  3.4849 -0.0164
  977MOL0     H31888   7.559   8.655   8.233  2.0360  0.1267 -0.8709
  977MOL0     H31889   7.647   8.644   8.004  1.6359  1.1268 -0.9071
  977MOL0     H31890   7.605   8.812   7.984  0.3812  0.3287 -0.0426
  977MOL0     H31891   7.962   8.862   8.173  2.8688 -1.3952 -3.3187
  977MOL0     H31892   7.262   9.104   8.284  0.2950  0.4411 -1.7262
  977MOL0     H31893   7.050   9.293   8.455  1.2666 -1.3541  0.4634
  977MOL0     H31894   7.171   9.300   8.321 -0.2396 -2.1324 -1.9358
  977MOL0     H31895   7.001   9.330   8.290  0.0119  1.3253  0.5622
  978MOL0     O31896   9.952   9.222   0.955  0.4804  0.4965 -0.3061
  978MOL0     C31897   9.912   9.338   0.921  1.0750  0.4817  0.3980
  978MOL0     O31898   9.986   9.446   0.922  0.8157 -0.0966 -0.9087
  978MOL0     C31899  10.118   9.429   0.970 -0.5233 -0.3524  0.2244
  978MOL0     C31900  10.156   9.429   1.101  0.0558  0.4958 -0.2159
  978MOL0     C31901  10.285   9.397   1.143 -0.4738  0.2150 -0.5557
  978MOL0     C31902  10.390   9.375   1.052  0.3376  0.2712  0.1322
  978MOL0     O31903  10.524   9.344   1.066 -0.3071 -1.1789  0.0093
  978MOL0     C31904  10.570   9.329   1.206  0.1835  0.2593 -0.4136
  978MOL0     C31905  10.510   9.192   1.275 -0.0432 -1.4173  1.0632
  978MOL0     C31906  10.527   9.181   1.429  0.5249 -0.9080  0.0077
  978MOL0     C31907  10.628   9.264   1.505 -0.7877  0.1740 -0.8777
  978MOL0     C31908  10.574   9.275   1.650 -0.1854  0.1706  0.0427
  978MOL0     C31909  10.660   9.372   1.733  0.0315 -0.0284 -0.1895
  978MOL0     C31910  10.822   9.363   1.728  0.1906 -0.2338 -0.0460
  978MOL0     C31911  10.888   9.461   1.836  0.4453  0.2117  0.5859
  978MOL0     N31912  10.885   9.599   1.771 -0.1493  0.6882 -0.3815
  978MOL0     C31913  10.902   9.717   1.847 -0.0089 -0.0998 -0.6908
  978MOL0     C31914  10.918   9.817   1.755 -0.7307  0.3638  0.8130
  978MOL0     C31915  10.947   9.969   1.784 -0.3712  0.2352 -0.1634
  978MOL0     C31916  11.011  10.033   1.665  1.7707  0.4701  0.4502
  978MOL0     C31917  10.965  10.191   1.654  0.0588 -0.4934 -0.3475
  978MOL0     C31918  10.997  10.251   1.519  0.2944  0.2753  0.3478
  978MOL0     O31919  10.941  10.371   1.485 -0.7046 -0.5656  0.6465
  978MOL0     C31920  10.986  10.494   1.537 -1.1746 -0.6080 -0.1935
  978MOL0     C31921  10.902  10.605   1.537  0.2956  0.0427 -0.9231
  978MOL0     C31922  10.942  10.738   1.574 -0.8909  0.0172  0.5004
  978MOL0     C31923  11.069  10.759   1.624 -1.2765  0.5478 -0.4807
  978MOL0     C31924  11.116  10.901   1.642 -0.9236 -0.7034 -0.3049
  978MOL0     O31925  11.257  10.915   1.640  0.5607  0.3774  0.3778
  978MOL0     C31926  11.315  11.032   1.684  0.2367 -0.0245  0.0638
  978MOL0     C31927  11.435  11.016   1.750 -0.3139 -0.1306 -0.4018
  978MOL0     C31928  11.523  11.126   1.791  1.4373 -0.2537 -0.6702
  978MOL0     C31929  11.470  11.256   1.762 -0.3014  0.7453  0.0649
  978MOL0     O31930  11.529  11.375   1.795  0.6992 -0.2856 -0.3155
  978MOL0     C31931  11.666  11.380   1.756  0.3457  1.1611  0.4718
  978MOL0     C31932  11.756  11.502   1.791 -0.2963  0.2997  0.7404
  978MOL0     C31933  11.688  11.616   1.717 -0.1809 -0.8614 -0.6469
  978MOL0     C31934  11.777  11.739   1.720  0.1996  0.6676  0.2128
  978MOL0     C31935  11.701  11.857   1.666 -0.5740  0.4314 -0.6141
  978MOL0     C31936  11.656  11.844   1.525  0.6506  0.6664 -0.3026
  978MOL0     C31937  11.619  11.981   1.458  0.2321 -0.2242  0.0728
  978MOL0     C31938  11.505  12.048   1.524 -0.6902 -0.1935 -0.0997
  978MOL0    Cl31939  11.417  12.145   1.402 -0.0426  0.4454 -0.1279
  978MOL0     C31940  11.348  11.267   1.696 -1.0340  0.0667 -0.1256
  978MOL0     C31941  11.277  11.158   1.644  0.8893  0.2391  0.2384
  978MOL0     O31942  11.042  10.999   1.653 -0.1591 -0.7368  0.0951
  978MOL0     C31943  11.156  10.651   1.629 -0.3164 -0.2347  0.3856
  978MOL0     C31944  11.118  10.530   1.575 -0.1845 -0.0582 -0.3569
  978MOL0     N31945  10.917   9.759   1.630  0.7774  0.9242  0.0998
  978MOL0     N31946  10.903   9.633   1.636 -0.5482 -0.3079  0.5582
  978MOL0     C31947  10.354   9.387   0.915  0.0081 -0.3167 -0.3697
  978MOL0     C31948  10.228   9.422   0.874  0.0620 -1.0579  0.6425
  978MOL0     C31949   9.780   9.352   0.843  0.3732  1.0884 -1.1134
  978MOL0     C31950   9.745   9.251   0.749 -0.3284 -0.0573 -0.2420
  978MOL0     C31951   9.641   9.267   0.660  0.2430 -0.5546  0.0609
  978MOL0     C31952   9.554   9.371   0.666 -0.3135  0.0555 -0.2545
  978MOL0     O31953   9.450   9.384   0.576 -0.2310 -0.0723 -0.2909
  978MOL0     C31954   9.419   9.295   0.473 -0.8704  0.7955  0.1281
  978MOL0     C31955   9.518   9.336   0.360  0.1384  0.0166 -0.3232
  978MOL0     C31956   9.525   9.230   0.252  0.5304 -0.3472  0.4791
  978MOL0     C31957   9.621   9.256   0.136 -0.4917  0.9487 -0.5484
  978MOL0     C31958   9.572   9.382   0.068  0.5842 -0.5352 -0.5139
  978MOL0     C31959   9.521   9.481   0.006  0.5388  0.4354 -0.1241
  978MOL0     C31960   9.580   9.468   0.769  0.5117  1.8140  0.2238
  978MOL0     C31961   9.691   9.467   0.860  0.0233  1.0020  0.2151
  978MOL0     C31962   9.712   9.571   0.972  0.2139 -0.9444  0.0658
  978MOL0     H31963  10.081   9.445   1.178  0.1254 -2.8391  0.6896
  978MOL0     H31964  10.306   9.393   1.250 -0.7444  4.3865 -0.1964
  978MOL0     H31965  10.678   9.340   1.212  0.0546  2.5674 -1.2240
  978MOL0     H31966  10.524   9.408   1.267 -0.8791 -0.9904  0.4630
  978MOL0     H31967  10.564   9.100   1.251  3.0035 -0.0241  2.0878
  978MOL0     H31968  10.414   9.162   1.233 -0.8472  0.1663  1.6680
  978MOL0     H31969  10.540   9.075   1.455  2.9033 -0.3054  1.7168
  978MOL0     H31970  10.433   9.213   1.473 -1.0956 -2.8309 -1.8685
  978MOL0     H31971  10.723   9.211   1.512 -1.8381 -1.5828  3.0411
  978MOL0     H31972  10.645   9.362   1.460  1.0028  0.1657 -0.2959
  978MOL0     H31973  10.470   9.307   1.657 -0.0150  0.5646  0.9069
  978MOL0     H31974  10.580   9.176   1.697  0.7409  2.1265  4.5184
  978MOL0     H31975  10.627   9.473   1.706 -1.0763 -1.2345 -3.9761
  978MOL0     H31976  10.630   9.366   1.838 -0.4246  1.7868 -0.1750
  978MOL0     H31977  10.848   9.381   1.623 -0.0918  1.5806  0.1532
  978MOL0     H31978  10.850   9.259   1.746  0.6186  0.1840  1.8223
  978MOL0     H31979  10.840   9.462   1.935  0.5808  0.9174  0.6493
  978MOL0     H31980  10.993   9.434   1.851  0.5932  0.5322  0.1389
  978MOL0     H31981  10.918   9.724   1.954  0.1699  1.0211 -0.7792
  978MOL0     H31982  10.850  10.020   1.784  0.2501  1.6797 -3.4668
  978MOL0     H31983  11.003   9.962   1.878  0.8614 -0.1017 -0.8986
  978MOL0     H31984  11.120  10.026   1.675  1.7371  0.5085  0.8504
  978MOL0     H31985  10.976   9.982   1.575  2.6377  0.0007  0.3701
  978MOL0     H31986  11.024  10.249   1.725 -0.6435  0.0584 -0.2048
  978MOL0     H31987  10.856  10.190   1.670  0.2953 -3.0314  1.8590
  978MOL0     H31988  10.958  10.192   1.435 -3.5884  0.6561  1.6811
  978MOL0     H31989  11.106  10.248   1.508  0.0896 -3.0859 -2.4921
  978MOL0     H31990  10.802  10.579   1.504 -0.6264 -0.8618  2.2528
  978MOL0     H31991  10.878  10.823   1.553  0.2460  0.6548 -0.4770
  978MOL0     H31992  11.467  10.913   1.761 -2.5819 -1.2540 -2.9677
  978MOL0     H31993  11.625  11.120   1.829  1.6989  0.6615 -1.1781
  978MOL0     H31994  11.719  11.295   1.800 -3.0844 -0.4255  1.9139
  978MOL0     H31995  11.668  11.358   1.649 -0.5890  0.1105  0.6478
  978MOL0     H31996  11.754  11.507   1.900  0.7939 -0.8415  0.8384
  978MOL0     H31997  11.856  11.471   1.758 -1.3053 -1.3304 -0.9804
  978MOL0     H31998  11.679  11.597   1.610  2.8177  0.3474 -1.2179
  978MOL0     H31999  11.592  11.633   1.766  0.1975 -0.0234 -0.1835
  978MOL0     H32000  11.860  11.718   1.652  0.7690 -2.6516  1.6913
  978MOL0     H32001  11.815  11.760   1.821  1.2014 -0.1866  0.0400
  978MOL0     H32002  11.774  11.938   1.674  0.7462 -0.8756  3.5127
  978MOL0     H32003  11.618  11.882   1.733  0.7410  4.9035 -0.3166
  978MOL0     H32004  11.733  11.797   1.464  1.2047 -2.3481  2.4537
  978MOL0     H32005  11.569  11.777   1.523  1.8591 -1.1127  1.7719
  978MOL0     H32006  11.596  11.967   1.352  0.7500 -0.4429 -0.0142
  978MOL0     H32007  11.708  12.044   1.449 -0.6177  1.6789  3.4361
  978MOL0     H32008  11.440  11.966   1.556  0.8572 -1.1971  0.5726
  978MOL0     H32009  11.519  12.108   1.615 -5.2255 -0.8632  1.3012
  978MOL0     H32010  11.302  11.362   1.671 -2.4276 -0.2956  0.8843
  978MOL0     H32011  11.196  11.181   1.575  0.5676 -1.9533 -0.1638
  978MOL0     H32012  11.263  10.669   1.636  0.1139 -1.3231 -2.4037
  978MOL0     H32013  11.202  10.471   1.540  1.2809  3.4953 -3.5528
  978MOL0     H32014  10.426   9.361   0.838  0.4427  3.0314 -1.2321
  978MOL0     H32015  10.209   9.424   0.767  2.5203 -0.5604  0.1575
  978MOL0     H32016   9.814   9.169   0.734  1.0058  0.7120  1.4248
  978MOL0     H32017   9.631   9.208   0.570  0.0728  0.8376 -0.8659
  978MOL0     H32018   9.315   9.303   0.442 -1.0036 -2.5498 -0.6900
  978MOL0     H32019   9.441   9.190   0.495  1.9338  1.1949 -0.4056
  978MOL0     H32020   9.621   9.351   0.393  0.0503  3.8067 -1.3650
  978MOL0     H32021   9.480   9.429   0.317 -1.9157 -1.2258 -1.3369
  978MOL0     H32022   9.425   9.229   0.207 -0.2942  4.0214  1.7847
  978MOL0     H32023   9.539   9.128   0.289 -0.8648 -0.2952  1.2302
  978MOL0     H32024   9.725   9.263   0.169 -0.9090 -1.1868  1.5073
  978MOL0     H32025   9.625   9.180   0.058  1.5033 -1.4698  1.7111
  978MOL0     H32026   9.480   9.558  -0.056  1.7410 -0.4872 -2.1808
  978MOL0     H32027   9.501   9.542   0.780 -3.9916 -2.7911  4.1778
  978MOL0     H32028   9.749   9.520   1.062  3.5207  0.8521 -0.1377
  978MOL0     H32029   9.776   9.656   0.951 -1.4632  0.4514  0.3539
  978MOL0     H32030   9.617   9.612   1.007  1.7643  1.8870  1.2626
  979MOL0     O32031   5.332   2.325   4.850 -0.5844 -0.2227  0.3212
  979MOL0     C32032   5.437   2.348   4.785  0.5052 -0.4836  0.1762
  979MOL0     O32033   5.465   2.470   4.714  0.4872 -0.3536 -0.9382
  979MOL0     C32034   5.359   2.545   4.670 -0.4773  0.6315  0.0492
  979MOL0     C32035   5.256   2.488   4.600  0.7615 -0.2509  0.3700
  979MOL0     C32036   5.157   2.573   4.546  1.1853 -0.4872  0.0476
  979MOL0     C32037   5.183   2.716   4.551 -0.5370 -0.1366  0.7810
  979MOL0     O32038   5.104   2.813   4.491 -0.0716 -0.6154  1.2206
  979MOL0     C32039   5.049   2.767   4.367  0.6646  0.1803  0.0014
  979MOL0     C32040   4.970   2.881   4.291 -0.2521 -0.6959 -0.3303
  979MOL0     C32041   5.052   2.984   4.222  0.2298 -0.9708  0.5245
  979MOL0     C32042   5.152   2.924   4.125  0.1690  0.0634 -0.4584
  979MOL0     C32043   5.240   3.031   4.058  0.7390  0.9039 -0.0998
  979MOL0     C32044   5.165   3.074   3.922 -0.8120  1.1640  0.5105
  979MOL0     C32045   5.245   3.017   3.800 -0.9162  0.2493 -0.0554
  979MOL0     C32046   5.162   3.035   3.670 -0.6115 -0.2645 -0.6764
  979MOL0     N32047   5.049   2.945   3.644  0.9904 -0.3076 -0.5523
  979MOL0     C32048   4.920   2.978   3.679  0.0819  0.7103 -0.6716
  979MOL0     C32049   4.838   2.908   3.597  0.2919 -0.4608  0.1158
  979MOL0     C32050   4.692   2.936   3.574  0.5586  0.4753 -0.5950
  979MOL0     C32051   4.605   2.812   3.549  0.0547  0.2796 -0.4192
  979MOL0     C32052   4.461   2.856   3.505  0.1342 -0.8461 -0.0016
  979MOL0     C32053   4.456   2.893   3.352  0.2462  0.6106  0.1502
  979MOL0     O32054   4.539   2.812   3.258 -0.7405  0.4735  0.4618
  979MOL0     C32055   4.498   2.694   3.215 -0.2642  1.1310  0.7029
  979MOL0     C32056   4.368   2.643   3.255  0.4964 -0.2952  0.8849
  979MOL0     C32057   4.321   2.516   3.217 -0.6758 -0.7732  0.5264
  979MOL0     C32058   4.409   2.431   3.145 -1.0868  0.2810 -0.2545
  979MOL0     C32059   4.355   2.300   3.107 -0.8381 -0.1155  0.4274
  979MOL0     O32060   4.438   2.207   3.048  0.6544 -1.3063  0.2636
  979MOL0     C32061   4.378   2.088   3.019  0.1519 -0.4575 -0.8788
  979MOL0     C32062   4.377   1.987   3.120 -0.3955 -0.0104  0.3123
  979MOL0     C32063   4.342   1.852   3.085 -0.2205  0.6107 -0.2625
  979MOL0     C32064   4.295   1.821   2.957  0.5395 -0.4465  0.0177
  979MOL0     O32065   4.255   1.690   2.926  0.1906 -0.4724 -0.0971
  979MOL0     C32066   4.196   1.670   2.797  1.2098  0.3614 -0.6507
  979MOL0     C32067   4.157   1.519   2.793  0.1668  0.2098 -0.2031
  979MOL0     C32068   4.080   1.473   2.670 -0.1464 -0.4067  0.0691
  979MOL0     C32069   3.931   1.480   2.701 -1.1223 -0.2337  0.2276
  979MOL0     C32070   3.843   1.404   2.607 -0.2168  1.3323  0.3242
  979MOL0     C32071   3.874   1.261   2.578  1.2632  0.7795 -0.3476
  979MOL0     C32072   3.759   1.189   2.501 -0.5150  0.8666  0.0584
  979MOL0     C32073   3.771   1.042   2.487  0.8050  1.2622 -0.4359
  979MOL0    Cl32074   3.809   0.959   2.638 -0.2588 -0.1950 -0.1151
  979MOL0     C32075   4.302   1.924   2.856  0.0117  0.1285 -0.2735
  979MOL0     C32076   4.334   2.060   2.885  1.1997 -0.4598 -0.1266
  979MOL0     O32077   4.228   2.294   3.107  0.1489  0.1392  0.0247
  979MOL0     C32078   4.526   2.480   3.103  0.2320 -1.0892  0.0812
  979MOL0     C32079   4.568   2.609   3.140 -0.4276 -0.2845  0.0381
  979MOL0     N32080   4.924   2.820   3.526 -0.4715  0.5140  0.3172
  979MOL0     N32081   5.049   2.840   3.559 -0.8335  0.7711 -0.0248
  979MOL0     C32082   5.305   2.764   4.620  1.0725 -1.0201  1.2313
  979MOL0     C32083   5.377   2.679   4.686 -0.6340 -0.7851  0.1702
  979MOL0     C32084   5.545   2.239   4.804  0.3270 -0.8366 -0.2414
  979MOL0     C32085   5.491   2.117   4.839 -0.1831 -0.2358 -0.8173
  979MOL0     C32086   5.575   2.014   4.862 -0.1947 -0.0723 -0.3087
  979MOL0     C32087   5.715   2.020   4.831  0.8184  0.7136 -0.3961
  979MOL0     O32088   5.803   1.923   4.852 -0.1417 -0.0036  0.0201
  979MOL0     C32089   5.767   1.789   4.805 -0.3648 -0.1916  0.5805
  979MOL0     C32090   5.895   1.704   4.833  0.2307 -0.1176 -0.2153
  979MOL0     C32091   5.896   1.563   4.790  0.5486 -0.0112 -0.5160
  979MOL0     C32092   5.891   1.542   4.640  0.4633  0.2306 -0.1217
  979MOL0     C32093   5.924   1.402   4.610 -0.9103 -0.1844 -0.4375
  979MOL0     C32094   5.922   1.290   4.566 -0.0156 -0.1337 -0.8005
  979MOL0     C32095   5.767   2.137   4.773  1.3173 -0.2700 -0.4357
  979MOL0     C32096   5.689   2.251   4.776 -0.2105  0.0947 -0.6819
  979MOL0     C32097   5.761   2.374   4.746 -1.0973  0.3306 -1.2852
  979MOL0     H32098   5.246   2.380   4.597  0.0265 -0.3240  2.8465
  979MOL0     H32099   5.069   2.535   4.495  1.7566  0.2924 -1.6072
  979MOL0     H32100   5.130   2.733   4.303  0.9237  3.3597 -1.5325
  979MOL0     H32101   4.978   2.684   4.383  1.5214 -1.2764 -3.0117
  979MOL0     H32102   4.893   2.928   4.354 -0.8905 -2.2135  0.0917
  979MOL0     H32103   4.913   2.830   4.213 -0.8647  0.8371 -0.9152
  979MOL0     H32104   5.101   3.054   4.290  1.3556  0.0967 -1.3255
  979MOL0     H32105   4.984   3.041   4.159  1.6969  0.1001 -0.1357
  979MOL0     H32106   5.220   2.860   4.182 -0.4505  0.3271  0.6217
  979MOL0     H32107   5.105   2.863   4.048  0.4635 -0.4576 -0.2285
  979MOL0     H32108   5.250   3.119   4.123 -1.7107  2.3775 -1.5515
  979MOL0     H32109   5.333   2.981   4.031 -0.2025 -2.0024  1.6463
  979MOL0     H32110   5.062   3.039   3.914 -0.9460  1.0325  2.2705
  979MOL0     H32111   5.156   3.183   3.924 -0.0010  1.3071  4.3829
  979MOL0     H32112   5.250   2.909   3.816 -1.9497 -0.2873 -2.7872
  979MOL0     H32113   5.341   3.070   3.795 -0.5076 -0.4405  0.2752
  979MOL0     H32114   5.127   3.137   3.649  0.6545  0.0045 -1.6171
  979MOL0     H32115   5.215   3.020   3.575 -2.5937  0.6778 -2.0127
  979MOL0     H32116   4.883   3.054   3.747 -2.7397  1.0410 -2.4010
  979MOL0     H32117   4.652   2.991   3.660  2.5684  2.5368 -0.8882
  979MOL0     H32118   4.685   3.010   3.493  5.2661  0.5464 -1.2198
  979MOL0     H32119   4.648   2.736   3.484 -2.5726 -5.3631  3.5502
  979MOL0     H32120   4.598   2.758   3.644  0.3333  0.8063 -0.0982
  979MOL0     H32121   4.427   2.933   3.575  0.6191 -3.7467  3.7579
  979MOL0     H32122   4.384   2.779   3.521 -1.8113  1.3104  1.6103
  979MOL0     H32123   4.476   3.000   3.339 -1.9064  0.8731 -1.4626
  979MOL0     H32124   4.352   2.876   3.323  0.2358  0.4597  0.2720
  979MOL0     H32125   4.293   2.691   3.317 -0.3619 -0.1613 -0.2199
  979MOL0     H32126   4.221   2.489   3.248 -0.9079 -0.1359  0.3487
  979MOL0     H32127   4.415   2.005   3.221 -1.1014 -2.1734  1.0144
  979MOL0     H32128   4.355   1.772   3.159 -0.4762 -2.0580 -2.9033
  979MOL0     H32129   4.103   1.727   2.803  3.0557  3.5053  2.0357
  979MOL0     H32130   4.262   1.692   2.713  2.1644  0.9837  0.2311
  979MOL0     H32131   4.249   1.461   2.803 -0.1016 -0.5827 -1.8711
  979MOL0     H32132   4.097   1.486   2.878  1.5442 -2.6498 -0.2183
  979MOL0     H32133   4.107   1.524   2.577 -0.5681  0.2285  0.2888
  979MOL0     H32134   4.118   1.372   2.650  2.8693  0.8454 -0.9972
  979MOL0     H32135   3.893   1.582   2.709 -1.0395 -0.2811  1.6083
  979MOL0     H32136   3.908   1.439   2.800 -1.2330  1.5552  0.9854
  979MOL0     H32137   3.850   1.444   2.505  1.8119  0.3889  0.0557
  979MOL0     H32138   3.741   1.432   2.636 -0.1330  2.9212 -0.7267
  979MOL0     H32139   3.968   1.255   2.523  0.1841 -2.3800 -2.0852
  979MOL0     H32140   3.885   1.215   2.677  0.6655 -1.6540 -1.3578
  979MOL0     H32141   3.757   1.228   2.399  1.8921  1.4144  0.1558
  979MOL0     H32142   3.672   1.212   2.563  1.1803  3.8390  1.5691
  979MOL0     H32143   3.676   0.994   2.461  0.8285  1.3607 -0.7049
  979MOL0     H32144   3.843   1.015   2.409  1.1393  1.5886 -0.2392
  979MOL0     H32145   4.271   1.910   2.753  0.5365 -2.4054 -0.1508
  979MOL0     H32146   4.337   2.137   2.809  0.3645 -0.3874 -0.0936
  979MOL0     H32147   4.580   2.425   3.026 -1.2877 -0.2163 -1.7030
  979MOL0     H32148   4.657   2.640   3.086 -0.1852 -0.2632  0.4386
  979MOL0     H32149   5.337   2.867   4.621  1.5319 -1.1213 -0.1255
  979MOL0     H32150   5.478   2.703   4.717  1.3614 -2.2861 -4.2996
  979MOL0     H32151   5.384   2.099   4.842  0.0382 -1.6623 -0.7810
  979MOL0     H32152   5.533   1.918   4.890  1.0420 -0.4778  0.2564
  979MOL0     H32153   5.740   1.792   4.699 -2.5360 -3.8487  0.8779
  979MOL0     H32154   5.671   1.757   4.847 -0.7343  0.9553  0.6595
  979MOL0     H32155   5.912   1.698   4.941 -1.3342  1.7537  0.1872
  979MOL0     H32156   5.983   1.755   4.794 -0.5910  2.7007  1.3328
  979MOL0     H32157   5.816   1.502   4.834  1.9042 -2.4019 -1.1841
  979MOL0     H32158   5.986   1.515   4.829  0.8595  0.4638 -0.6575
  979MOL0     H32159   5.792   1.552   4.596  0.5047  0.4093 -0.1732
  979MOL0     H32160   5.963   1.598   4.581 -0.3105  0.0683 -1.2429
  979MOL0     H32161   5.929   1.188   4.534 -2.0309 -0.4303 -0.4352
  979MOL0     H32162   5.863   2.146   4.724  1.9357 -0.2725  0.7482
  979MOL0     H32163   5.804   2.411   4.839  0.4261  0.9338 -2.1935
  979MOL0     H32164   5.842   2.354   4.676 -0.5872  2.1896 -1.2787
  979MOL0     H32165   5.701   2.449   4.693  2.0987  0.6725 -4.7756
  980MOL0     O32166  10.357   7.026   5.086  0.2620  0.3502  0.8359
  980MOL0     C32167  10.257   7.072   5.143 -0.0854 -0.5481  0.3348
  980MOL0     O32168  10.190   7.179   5.105 -0.2418 -0.5102 -0.1860
  980MOL0     C32169  10.215   7.233   4.980  0.0500 -1.0514 -0.5890
  980MOL0     C32170  10.192   7.163   4.866 -0.3308 -0.6435  0.1999
  980MOL0     C32171  10.182   7.229   4.744 -0.2549 -0.6394  0.0860
  980MOL0     C32172  10.235   7.362   4.730 -0.2841 -0.6785  0.3586
  980MOL0     O32173  10.223   7.422   4.605  0.4961  0.5988 -0.7360
  980MOL0     C32174  10.234   7.565   4.596  0.2474  0.3652  0.0787
  980MOL0     C32175  10.208   7.613   4.453 -0.5112  0.0000  0.4176
  980MOL0     C32176  10.060   7.572   4.408  0.1139 -0.4315  0.1252
  980MOL0     C32177   9.945   7.628   4.498  0.5748 -0.1324  0.6874
  980MOL0     C32178   9.946   7.779   4.510  0.2456 -0.3805  0.0842
  980MOL0     C32179   9.820   7.844   4.584  0.6590 -0.5209  0.3444
  980MOL0     C32180   9.820   8.000   4.596  0.5101  0.0667  0.3499
  980MOL0     C32181   9.931   8.058   4.687  0.4446 -0.2899  0.8059
  980MOL0     N32182   9.929   8.025   4.822 -0.4464  0.7122 -0.5035
  980MOL0     C32183   9.817   8.003   4.896  0.0480 -0.1101  0.3472
  980MOL0     C32184   9.859   7.939   5.008 -1.3613  0.2013 -0.7029
  980MOL0     C32185   9.768   7.894   5.116  0.4642 -0.1897 -0.3733
  980MOL0     C32186   9.824   7.858   5.264  0.4474  0.7044 -0.7694
  980MOL0     C32187   9.878   7.713   5.284 -0.5753 -0.4492  0.2890
  980MOL0     C32188   9.816   7.659   5.417  0.4306  0.3895 -0.7348
  980MOL0     O32189   9.826   7.521   5.424 -0.6991 -0.3680  0.2363
  980MOL0     C32190   9.743   7.458   5.508  0.0805 -0.5904 -0.2765
  980MOL0     C32191   9.755   7.321   5.512 -1.7375  0.0160 -0.6053
  980MOL0     C32192   9.669   7.239   5.593 -0.5140  0.1268 -0.1384
  980MOL0     C32193   9.571   7.294   5.670 -0.2130  0.6352  0.4110
  980MOL0     C32194   9.474   7.205   5.738 -0.3122 -0.4415 -0.3628
  980MOL0     O32195   9.360   7.266   5.775 -0.1114  0.1593 -0.0439
  980MOL0     C32196   9.253   7.191   5.814 -0.2630 -0.1029 -0.6475
  980MOL0     C32197   9.229   7.059   5.783  0.8578 -0.3088 -0.4735
  980MOL0     C32198   9.102   6.999   5.819  0.0066  0.0712  0.0337
  980MOL0     C32199   8.993   7.073   5.884 -0.8470 -0.3789 -0.9383
  980MOL0     O32200   8.873   7.012   5.910 -0.3771  0.5126  0.6797
  980MOL0     C32201   8.792   7.054   6.024  0.7109  0.0251  0.5653
  980MOL0     C32202   8.682   6.958   6.025  0.3431  0.4728 -0.2659
  980MOL0     C32203   8.574   6.971   6.136  0.7852 -1.0358 -0.4889
  980MOL0     C32204   8.583   6.866   6.249  1.6447 -0.7105  0.6609
  980MOL0     C32205   8.568   6.948   6.379  0.4880  0.2531 -0.8944
  980MOL0     C32206   8.699   7.011   6.431 -0.2237 -0.2041  0.6802
  980MOL0     C32207   8.727   7.057   6.575  0.2884  0.3285 -1.4525
  980MOL0     C32208   8.625   7.177   6.609 -0.2806  1.0422 -0.7316
  980MOL0    Cl32209   8.587   7.158   6.788  0.2046  0.0157 -0.2110
  980MOL0     C32210   9.034   7.203   5.917 -0.2499 -0.2349 -1.2042
  980MOL0     C32211   9.153   7.260   5.884  0.3978  0.0774  0.8756
  980MOL0     O32212   9.508   7.096   5.778  0.2202 -0.0635 -0.4107
  980MOL0     C32213   9.551   7.436   5.663 -0.1398 -0.1744  0.8361
  980MOL0     C32214   9.640   7.512   5.584 -0.4985 -0.7144 -0.0364
  980MOL0     N32215  10.001   7.940   5.010 -1.1483 -0.7976 -0.0739
  980MOL0     N32216  10.041   7.984   4.894  0.3452  0.3526 -0.5002
  980MOL0     C32217  10.276   7.429   4.839 -0.2843  0.1658 -0.5763
  980MOL0     C32218  10.260   7.365   4.966  0.1047 -0.3228 -0.1479
  980MOL0     C32219  10.209   6.994   5.263 -0.1832  0.4490  0.7300
  980MOL0     C32220  10.145   7.077   5.358  0.4181  0.1134  0.4435
  980MOL0     C32221  10.082   7.005   5.466  0.3017 -0.4362  0.5657
  980MOL0     C32222  10.113   6.871   5.491 -0.4669 -0.6245 -1.4301
  980MOL0     O32223  10.079   6.819   5.616  0.5783 -0.2207  0.8941
  980MOL0     C32224  10.184   6.735   5.672  0.8148 -0.3511  0.3527
  980MOL0     C32225  10.142   6.579   5.661 -0.0408 -0.7487  0.4549
  980MOL0     C32226  10.035   6.549   5.765  0.6089  0.9802 -0.4727
  980MOL0     C32227   9.969   6.409   5.787 -0.2012 -1.2886  0.2972
  980MOL0     C32228   9.917   6.350   5.663 -0.1657 -0.3845  0.7915
  980MOL0     C32229   9.874   6.305   5.561  0.1831  0.6420 -0.1321
  980MOL0     C32230  10.187   6.799   5.401  0.3911  0.9160  0.4169
  980MOL0     C32231  10.226   6.855   5.281 -0.1216  0.9283  0.4743
  980MOL0     C32232  10.294   6.762   5.185  0.8498  0.2967 -0.3051
  980MOL0     H32233  10.169   7.056   4.870 -2.2580 -0.4922 -2.9843
  980MOL0     H32234  10.172   7.172   4.651 -1.0818 -2.3459  1.1658
  980MOL0     H32235  10.160   7.604   4.666 -1.5242 -1.8180 -0.4605
  980MOL0     H32236  10.328   7.603   4.636 -0.3173 -0.0471  1.9250
  980MOL0     H32237  10.276   7.551   4.395 -1.1041  0.8227 -1.2182
  980MOL0     H32238  10.212   7.723   4.453 -2.6780  0.1419  1.3848
  980MOL0     H32239  10.059   7.465   4.431  1.0443 -0.4084  0.3122
  980MOL0     H32240  10.054   7.591   4.300  2.2002 -0.6963 -0.0864
  980MOL0     H32241   9.843   7.602   4.469  0.9552 -0.7776 -0.1365
  980MOL0     H32242   9.947   7.585   4.598 -0.0043 -1.2022  0.2611
  980MOL0     H32243  10.025   7.809   4.579 -1.0871 -1.3573  2.1543
  980MOL0     H32244   9.961   7.834   4.417 -0.6418  0.9009  0.6568
  980MOL0     H32245   9.729   7.827   4.525  1.0584  3.3684 -1.7411
  980MOL0     H32246   9.809   7.796   4.681  0.5971  2.1834  1.7580
  980MOL0     H32247   9.720   8.028   4.628 -0.0908 -0.0881 -1.3108
  980MOL0     H32248   9.833   8.052   4.501 -0.1628  0.1159  0.2813
  980MOL0     H32249  10.022   8.024   4.637 -0.2754  0.3275 -1.0264
  980MOL0     H32250   9.936   8.167   4.688 -0.3667 -0.2178 -0.3807
  980MOL0     H32251   9.714   8.028   4.873  0.0505  2.5534  2.6333
  980MOL0     H32252   9.682   7.959   5.136  2.5349  1.7788  3.1530
  980MOL0     H32253   9.738   7.793   5.087  0.8896 -0.0767 -1.2351
  980MOL0     H32254   9.907   7.921   5.296 -0.5087  2.5874 -1.7783
  980MOL0     H32255   9.734   7.877   5.323 -0.1225  0.6569 -1.5977
  980MOL0     H32256   9.985   7.728   5.300 -0.5671 -0.4817  0.2573
  980MOL0     H32257   9.872   7.652   5.193 -0.9612  1.5270 -1.0892
  980MOL0     H32258   9.710   7.682   5.428  0.2853 -0.0564 -1.1692
  980MOL0     H32259   9.874   7.695   5.502 -3.7434  2.5796  1.4577
  980MOL0     H32260   9.830   7.264   5.457 -0.9901 -0.2007  0.6009
  980MOL0     H32261   9.684   7.132   5.605 -1.8882 -0.0491  0.1183
  980MOL0     H32262   9.311   6.999   5.747  0.1860 -1.8485  0.4809
  980MOL0     H32263   9.083   6.898   5.785  2.9333 -0.4340 -0.4004
  980MOL0     H32264   8.853   7.052   6.114  1.2443 -1.9931  0.2178
  980MOL0     H32265   8.745   7.148   5.994  0.7250 -0.0875  0.1862
  980MOL0     H32266   8.643   6.955   5.923  1.9219  2.3465 -0.9816
  980MOL0     H32267   8.726   6.859   6.043  0.2048  0.4650  0.0288
  980MOL0     H32268   8.559   7.073   6.172  2.0495 -1.5556  1.7275
  980MOL0     H32269   8.480   6.958   6.082  1.1834  2.5323 -2.3524
  980MOL0     H32270   8.682   6.820   6.238  1.9495  0.5328 -3.6695
  980MOL0     H32271   8.510   6.786   6.232  1.2644 -0.7820  2.3795
  980MOL0     H32272   8.538   6.882   6.462  1.0276 -0.0201 -0.9091
  980MOL0     H32273   8.500   7.033   6.368  1.3786  0.8115 -2.2786
  980MOL0     H32274   8.779   6.944   6.398 -1.2441 -1.2254  0.2138
  980MOL0     H32275   8.707   7.101   6.369  1.4273 -1.0457 -0.3946
  980MOL0     H32276   8.828   7.096   6.587  0.7270 -1.3306  1.3848
  980MOL0     H32277   8.706   6.971   6.640 -2.1032  1.0586 -1.1317
  980MOL0     H32278   8.673   7.272   6.582  1.5417  0.4039  0.1086
  980MOL0     H32279   8.535   7.152   6.552  0.4788 -1.2731 -0.9923
  980MOL0     H32280   8.978   7.256   5.994  0.3686  0.1387 -1.0041
  980MOL0     H32281   9.162   7.367   5.900  0.5405  0.2919 -0.5113
  980MOL0     H32282   9.468   7.489   5.709  0.6451  3.5901 -1.6040
  980MOL0     H32283   9.623   7.619   5.593  6.7235  0.7434  4.0760
  980MOL0     H32284  10.305   7.534   4.839 -2.7021  0.8973  0.1695
  980MOL0     H32285  10.277   7.419   5.059  1.8094 -0.8811 -0.0887
  980MOL0     H32286  10.119   7.181   5.339  1.3630 -0.1303 -2.8528
  980MOL0     H32287  10.020   7.065   5.531  1.0514  0.1480  0.7487
  980MOL0     H32288  10.196   6.752   5.779 -0.1296  0.5710  0.3215
  980MOL0     H32289  10.284   6.748   5.628  1.9280 -2.3247  2.0919
  980MOL0     H32290  10.234   6.528   5.692  0.1782 -0.9425 -0.4817
  980MOL0     H32291  10.107   6.560   5.559 -2.9486  1.3906  0.9308
  980MOL0     H32292   9.954   6.623   5.757  0.0065  0.6517  1.9513
  980MOL0     H32293  10.084   6.560   5.862 -1.3284  2.8933  0.3871
  980MOL0     H32294  10.045   6.347   5.835 -0.3542 -0.8354  1.1422
  980MOL0     H32295   9.892   6.420   5.863 -0.5789 -0.6382 -0.1649
  980MOL0     H32296   9.823   6.260   5.479  1.2424  0.1492 -0.5330
  980MOL0     H32297  10.195   6.694   5.426 -1.5720  1.1996  2.5553
  980MOL0     H32298  10.397   6.742   5.215  0.5265 -0.8891  0.0749
  980MOL0     H32299  10.253   6.661   5.187  1.8475 -0.1086  0.0318
  980MOL0     H32300  10.278   6.799   5.083  0.7987 -0.9475 -0.7593
  981MOL0     O32301   4.821   0.031   4.400 -0.0554 -0.6238  0.1475
  981MOL0     C32302   4.725  -0.020   4.336  0.3458  0.8292 -0.0478
  981MOL0     O32303   4.701  -0.014   4.198  0.1192  0.5397 -0.5796
  981MOL0     C32304   4.758   0.078   4.113  0.1866 -0.0392  0.0966
  981MOL0     C32305   4.777   0.041   3.972  0.6111 -0.9299 -0.7955
  981MOL0     C32306   4.826   0.123   3.872 -0.1344 -0.0225  0.1659
  981MOL0     C32307   4.874   0.249   3.913  0.9814  0.9805 -0.7034
  981MOL0     O32308   4.909   0.342   3.824 -0.3281 -0.6039  0.0988
  981MOL0     C32309   4.864   0.476   3.840 -0.2729 -0.4023  0.2545
  981MOL0     C32310   4.913   0.553   3.712  0.6923 -1.1249  0.9456
  981MOL0     C32311   4.878   0.702   3.730  0.4333  0.5789 -1.1863
  981MOL0     C32312   4.898   0.785   3.603 -0.4724 -1.3308 -0.2940
  981MOL0     C32313   5.032   0.766   3.533  0.2070  0.1352  0.3272
  981MOL0     C32314   5.051   0.886   3.428  0.3074 -0.3445  0.2092
  981MOL0     C32315   5.201   0.886   3.390  0.5131  0.4960  0.2438
  981MOL0     C32316   5.218   0.980   3.273  0.8999  0.8815 -0.2727
  981MOL0     N32317   5.191   0.930   3.138 -0.4495  0.3121 -0.5618
  981MOL0     C32318   5.232   0.814   3.082 -0.3448  0.7676  0.7338
  981MOL0     C32319   5.209   0.817   2.952 -0.0712  0.1724  0.4031
  981MOL0     C32320   5.232   0.707   2.854 -1.3288 -0.9426 -0.9995
  981MOL0     C32321   5.133   0.705   2.738 -0.3134 -0.1597 -0.5019
  981MOL0     C32322   5.166   0.580   2.649 -0.0800 -0.5718 -0.5264
  981MOL0     C32323   5.098   0.605   2.521  0.6763 -0.2998  0.1117
  981MOL0     O32324   5.123   0.490   2.439  0.2654 -0.8019 -0.3292
  981MOL0     C32325   5.066   0.364   2.453  0.4353  0.5377  0.4533
  981MOL0     C32326   5.107   0.270   2.357 -0.3438  0.2955  0.1247
  981MOL0     C32327   5.063   0.139   2.355 -0.8041  0.1102  0.0537
  981MOL0     C32328   4.973   0.099   2.459 -0.4265  0.2299 -0.1505
  981MOL0     C32329   4.931  -0.048   2.479 -0.7672 -0.4337  0.1987
  981MOL0     O32330   4.852  -0.082   2.585 -0.1509 -0.4340  0.7598
  981MOL0     C32331   4.867  -0.215   2.632 -0.8193 -0.8877  0.3592
  981MOL0     C32332   4.903  -0.224   2.780 -0.4537 -0.0982  0.4441
  981MOL0     C32333   4.936  -0.348   2.836 -0.3706 -0.2915  0.5249
  981MOL0     C32334   4.924  -0.469   2.753  0.7646  0.2708 -0.3408
  981MOL0     O32335   4.966  -0.596   2.806  0.0309 -0.2982  0.6525
  981MOL0     C32336   4.898  -0.633   2.923 -0.0243  0.8205 -0.6934
  981MOL0     C32337   4.914  -0.782   2.948  0.6607  0.0461 -0.6176
  981MOL0     C32338   5.042  -0.832   3.008  0.6686  0.5278 -0.5397
  981MOL0     C32339   5.026  -0.981   3.042  0.4758 -0.0053  0.7063
  981MOL0     C32340   5.162  -1.050   3.054  0.0047 -0.4631 -0.1807
  981MOL0     C32341   5.260  -0.976   3.152  0.0367  0.2861 -0.3091
  981MOL0     C32342   5.385  -1.062   3.163 -0.3669 -0.5548  0.6217
  981MOL0     C32343   5.489  -1.004   3.262  0.4479 -0.9031  0.1462
  981MOL0    Cl32344   5.522  -0.837   3.241 -0.0552  0.0076  0.3520
  981MOL0     C32345   4.883  -0.462   2.614 -0.5959  0.3290 -0.2148
  981MOL0     C32346   4.860  -0.340   2.555  0.9873 -0.6190  0.0024
  981MOL0     O32347   4.990  -0.125   2.406 -0.7109  0.5821 -0.8966
  981MOL0     C32348   4.933   0.199   2.550 -0.1109  1.0208 -0.8119
  981MOL0     C32349   4.986   0.328   2.556  0.3793 -0.0900  1.0694
  981MOL0     N32350   5.135   0.926   2.921 -1.2092 -0.4968 -0.9700
  981MOL0     N32351   5.128   1.002   3.036  0.0670  0.2376 -1.2516
  981MOL0     C32352   4.881   0.274   4.047 -0.4021  0.5561  0.3167
  981MOL0     C32353   4.817   0.200   4.146  0.5323  0.9206  0.1809
  981MOL0     C32354   4.629  -0.090   4.422 -0.6783 -0.9281  0.6208
  981MOL0     C32355   4.513  -0.139   4.354 -0.3606  0.5159  0.3059
  981MOL0     C32356   4.402  -0.193   4.420  0.6572  0.3802  0.1711
  981MOL0     C32357   4.404  -0.211   4.555  0.1743 -1.3455 -0.3653
  981MOL0     O32358   4.300  -0.285   4.616  0.3015  0.2535 -0.4252
  981MOL0     C32359   4.272  -0.279   4.754  0.5438 -0.8095 -0.2338
  981MOL0     C32360   4.156  -0.367   4.806  0.0821 -0.2805  0.7002
  981MOL0     C32361   4.169  -0.385   4.953 -0.0675 -0.0927  0.2391
  981MOL0     C32362   4.035  -0.430   5.023  0.4685  0.0382 -0.7144
  981MOL0     C32363   4.003  -0.569   4.987  0.8674 -0.7345  0.7474
  981MOL0     C32364   3.962  -0.672   4.938 -0.8808  0.2155  0.3988
  981MOL0     C32365   4.522  -0.170   4.627  0.1308  0.0338  0.3930
  981MOL0     C32366   4.634  -0.114   4.561 -0.4583 -0.2660  0.4917
  981MOL0     C32367   4.747  -0.067   4.649 -0.4287  0.5535  1.1233
  981MOL0     H32368   4.756  -0.060   3.939 -0.4866 -2.0509  2.8710
  981MOL0     H32369   4.839   0.090   3.769 -1.0830 -0.9991  0.3445
  981MOL0     H32370   4.756   0.478   3.852 -0.1675 -1.3532  1.6856
  981MOL0     H32371   4.909   0.515   3.932  0.5866  1.1210 -0.7555
  981MOL0     H32372   4.855   0.509   3.630  0.6090 -0.0166  0.3831
  981MOL0     H32373   5.020   0.547   3.691  0.7832  2.8883 -0.6868
  981MOL0     H32374   4.939   0.727   3.817  2.4498 -4.8014 -0.7035
  981MOL0     H32375   4.776   0.720   3.763  1.2888 -1.5662  3.3858
  981MOL0     H32376   4.812   0.758   3.541  0.0576 -2.6943 -0.4758
  981MOL0     H32377   4.892   0.887   3.643  0.3289 -0.7804 -1.5151
  981MOL0     H32378   5.118   0.750   3.598 -0.1945  0.0063  0.8276
  981MOL0     H32379   5.033   0.670   3.481  2.5093 -0.2882  1.0472
  981MOL0     H32380   4.987   0.877   3.340 -1.4266  2.7441  1.0174
  981MOL0     H32381   5.026   0.981   3.477  1.2420  0.5852 -1.0316
  981MOL0     H32382   5.248   0.787   3.383  2.0626  1.1743  0.4368
  981MOL0     H32383   5.249   0.941   3.472 -2.6257  2.1602  1.1169
  981MOL0     H32384   5.154   1.067   3.290  2.2671  1.6773  1.1430
  981MOL0     H32385   5.316   1.026   3.261 -1.0560  4.6489 -5.2206
  981MOL0     H32386   5.282   0.734   3.135  0.6517  1.4829  0.9207
  981MOL0     H32387   5.329   0.736   2.814 -1.6621 -1.2751 -2.0801
  981MOL0     H32388   5.238   0.607   2.898 -1.2262 -1.8826 -3.0223
  981MOL0     H32389   5.027   0.702   2.765 -0.1594  0.9456  0.2957
  981MOL0     H32390   5.137   0.800   2.683 -2.1890  2.1485  2.9282
  981MOL0     H32391   5.140   0.483   2.693 -0.4349 -1.5946 -2.8717
  981MOL0     H32392   5.272   0.594   2.627 -0.4845  0.7491 -1.7977
  981MOL0     H32393   5.128   0.694   2.465 -1.9047  0.7987  0.3704
  981MOL0     H32394   4.993   0.621   2.545  0.7957 -1.0552  1.2401
  981MOL0     H32395   5.184   0.299   2.285 -1.5720  0.5455 -1.1275
  981MOL0     H32396   5.090   0.070   2.275 -1.9418  0.1583 -0.3905
  981MOL0     H32397   4.909  -0.129   2.832  2.8578 -0.6423  1.3041
  981MOL0     H32398   4.974  -0.366   2.936 -0.5260 -0.8694  0.4796
  981MOL0     H32399   4.926  -0.570   3.008 -1.1369  0.5526 -0.1098
  981MOL0     H32400   4.790  -0.615   2.923 -0.1802  0.0169  1.0222
  981MOL0     H32401   4.831  -0.822   3.008  1.5618 -0.0375  0.6172
  981MOL0     H32402   4.893  -0.827   2.851 -2.5516  1.8225 -0.8903
  981MOL0     H32403   5.131  -0.806   2.950  2.4753 -2.1107  0.8180
  981MOL0     H32404   5.056  -0.780   3.104  1.4584 -1.3479  0.4223
  981MOL0     H32405   4.960  -1.031   2.971 -0.6265 -1.9709  2.9675
  981MOL0     H32406   4.971  -0.990   3.137 -1.6487 -0.9912 -0.5435
  981MOL0     H32407   5.225  -1.068   2.966  2.8041  1.1575  1.3533
  981MOL0     H32408   5.137  -1.153   3.082 -0.1856 -0.8574 -1.7058
  981MOL0     H32409   5.295  -0.884   3.105  3.7040 -0.8936 -0.1435
  981MOL0     H32410   5.215  -0.941   3.245 -0.2459  0.1249 -0.3828
  981MOL0     H32411   5.445  -1.068   3.072 -0.9239  0.3454  0.1899
  981MOL0     H32412   5.357  -1.164   3.193  0.2220 -0.2068  2.5245
  981MOL0     H32413   5.436  -1.016   3.357 -3.5203  2.7377 -1.2978
  981MOL0     H32414   5.579  -1.067   3.265 -0.5147 -2.3088  2.3444
  981MOL0     H32415   4.891  -0.549   2.550 -0.1718  0.8173 -0.8325
  981MOL0     H32416   4.838  -0.344   2.449  3.6248  0.2055 -0.6411
  981MOL0     H32417   4.873   0.174   2.637  0.5585  1.1621 -0.3021
  981MOL0     H32418   4.941   0.404   2.618 -1.8704 -2.7407  2.9011
  981MOL0     H32419   4.939   0.362   4.071  0.5220  1.0605 -3.2364
  981MOL0     H32420   4.798   0.234   4.247  1.1597  0.8854  0.3198
  981MOL0     H32421   4.503  -0.132   4.247 -1.6820  2.6493  0.5275
  981MOL0     H32422   4.327  -0.241   4.359  1.8017 -1.3046  0.0086
  981MOL0     H32423   4.253  -0.175   4.781  1.3697 -0.2331 -1.7222
  981MOL0     H32424   4.364  -0.313   4.801 -0.9246 -2.3498  1.6806
  981MOL0     H32425   4.163  -0.470   4.769 -0.6718 -1.1664  2.8462
  981MOL0     H32426   4.063  -0.317   4.778  0.7082  0.2334 -0.5160
  981MOL0     H32427   4.201  -0.294   5.004 -0.4627  0.2789 -0.1747
  981MOL0     H32428   4.239  -0.461   4.990  1.8167  2.1654  1.6444
  981MOL0     H32429   4.046  -0.416   5.131  4.1581  1.1626 -1.0923
  981MOL0     H32430   3.948  -0.372   4.990 -0.0576 -0.3084  0.0260
  981MOL0     H32431   3.924  -0.763   4.897  0.4579  0.1462 -0.7711
  981MOL0     H32432   4.539  -0.178   4.734  1.2342  0.5338  0.2668
  981MOL0     H32433   4.723  -0.099   4.750  1.9081 -1.6236  1.0798
  981MOL0     H32434   4.837  -0.126   4.633 -1.4569 -1.8273  3.4197
  981MOL0     H32435   4.762   0.040   4.631 -1.5571  0.2717 -2.1246
  982MOL0     O32436   2.232  10.682   6.555 -0.1216  0.2643 -0.1635
  982MOL0     C32437   2.142  10.661   6.639  0.5207  0.4119 -0.5085
  982MOL0     O32438   2.098  10.538   6.688 -0.5799 -0.8072  0.8989
  982MOL0     C32439   2.141  10.429   6.627 -1.2026 -0.5312  0.0321
  982MOL0     C32440   2.251  10.360   6.680  0.6687  1.2876 -0.3297
  982MOL0     C32441   2.279  10.227   6.641  0.6036 -0.4864  0.1377
  982MOL0     C32442   2.195  10.167   6.548  0.3372 -0.3751 -0.0485
  982MOL0     O32443   2.219  10.035   6.510 -0.1784  0.0555 -0.2160
  982MOL0     C32444   2.105   9.948   6.503 -0.4410 -1.1742 -0.4412
  982MOL0     C32445   2.057   9.925   6.635 -0.4811 -0.7410  0.5606
  982MOL0     C32446   2.153   9.845   6.727 -0.9822 -1.0076  0.5194
  982MOL0     C32447   2.061   9.760   6.811  0.5782 -0.6374  0.7273
  982MOL0     C32448   2.137   9.720   6.938  0.2898 -1.0333  0.4624
  982MOL0     C32449   2.039   9.635   7.028  0.0418  0.1386  0.2975
  982MOL0     C32450   2.074   9.641   7.174 -0.8060 -0.2356  0.5949
  982MOL0     C32451   1.979   9.562   7.274  0.0802  0.7227  0.6551
  982MOL0     N32452   1.992   9.417   7.258  0.3154 -0.3650  0.1236
  982MOL0     C32453   2.106   9.356   7.234 -0.1385 -0.1803 -0.3306
  982MOL0     C32454   2.073   9.235   7.194  0.6105  1.1183  0.1938
  982MOL0     C32455   2.191   9.140   7.151 -0.7544 -0.5640  0.1288
  982MOL0     C32456   2.146   8.994   7.168 -0.3834  0.2995  0.6277
  982MOL0     C32457   2.250   8.879   7.159 -0.8544  0.0399 -0.0998
  982MOL0     C32458   2.298   8.843   7.027  0.2993  0.3458  0.0737
  982MOL0     O32459   2.380   8.941   6.965 -0.5407  0.9338 -0.1341
  982MOL0     C32460   2.393   8.915   6.837 -0.1176  0.4446  0.8894
  982MOL0     C32461   2.346   9.004   6.741 -0.2328  0.1669 -0.3361
  982MOL0     C32462   2.364   8.993   6.599  0.3086  0.2413 -1.0046
  982MOL0     C32463   2.439   8.884   6.552 -0.1117  0.1106 -0.3113
  982MOL0     C32464   2.435   8.859   6.410  0.1897 -0.3359 -0.5918
  982MOL0     O32465   2.392   8.955   6.329 -0.4447  0.5500 -0.9442
  982MOL0     C32466   2.392   8.948   6.197  0.2676  0.7992 -0.1410
  982MOL0     C32467   2.296   9.023   6.142  0.8340 -1.0768 -0.4075
  982MOL0     C32468   2.274   9.033   6.012 -0.2459  0.3470  0.5216
  982MOL0     C32469   2.368   8.966   5.922  0.0865  0.4121  0.8741
  982MOL0     O32470   2.359   8.982   5.789 -0.1442  0.3741  0.2768
  982MOL0     C32471   2.462   8.943   5.699 -1.1771  0.3985 -0.0188
  982MOL0     C32472   2.408   8.966   5.559 -1.1645 -0.3484 -0.4499
  982MOL0     C32473   2.507   8.959   5.449  1.0840  0.6054  0.4333
  982MOL0     C32474   2.418   8.938   5.314 -0.3121  1.0283  0.2907
  982MOL0     C32475   2.509   8.942   5.190  0.6497 -0.1269 -1.0285
  982MOL0     C32476   2.443   8.990   5.059 -0.7272 -0.3480  0.1938
  982MOL0     C32477   2.544   9.078   4.978 -0.0303 -0.1418  0.9655
  982MOL0     C32478   2.664   8.981   4.944  0.1052 -0.1590  0.0975
  982MOL0    Cl32479   2.645   8.879   4.804  0.2362  0.1493 -0.0388
  982MOL0     C32480   2.472   8.889   5.978  0.5207 -0.6000 -0.2003
  982MOL0     C32481   2.484   8.883   6.118  0.8235 -0.1628  1.2921
  982MOL0     O32482   2.481   8.747   6.374  0.6078 -0.5535 -0.4773
  982MOL0     C32483   2.498   8.794   6.645  0.0920 -0.8059  1.0304
  982MOL0     C32484   2.479   8.814   6.788  0.6160 -0.0520 -0.0441
  982MOL0     N32485   1.937   9.219   7.208  0.0092  0.9402  0.4553
  982MOL0     N32486   1.884   9.330   7.244 -0.1002 -0.9857  0.3760
  982MOL0     C32487   2.096  10.246   6.480 -0.1043  0.1664  0.4288
  982MOL0     C32488   2.071  10.376   6.523 -0.2948 -0.6248 -0.3144
  982MOL0     C32489   2.065  10.775   6.692  0.3538 -0.3093 -0.1336
  982MOL0     C32490   1.943  10.752   6.764  0.7164  0.0706 -0.1834
  982MOL0     C32491   1.870  10.861   6.824  0.9756  0.3071 -0.0295
  982MOL0     C32492   1.921  10.990   6.825 -0.9272  0.5966 -0.7496
  982MOL0     O32493   1.848  11.081   6.883  0.3576  0.4295  0.8150
  982MOL0     C32494   1.916  11.146   6.991  0.1155  0.9291  0.0167
  982MOL0     C32495   1.822  11.260   7.044 -0.1095 -0.6015 -0.4667
  982MOL0     C32496   1.684  11.209   7.092 -0.0351 -0.1752 -0.3066
  982MOL0     C32497   1.609  11.303   7.186  0.6565  0.0244  0.6285
  982MOL0     C32498   1.560  11.420   7.111  0.9821 -0.0249 -0.4469
  982MOL0     C32499   1.531  11.531   7.059 -0.2908 -0.3286 -0.5074
  982MOL0     C32500   2.047  11.005   6.766  0.0956  0.2752 -0.2185
  982MOL0     C32501   2.108  10.909   6.691  0.1213  0.3868  0.2841
  982MOL0     C32502   2.240  10.953   6.615 -0.5630 -0.3142  0.4378
  982MOL0     H32503   2.313  10.412   6.752  1.0231 -0.7309  0.9126
  982MOL0     H32504   2.365  10.167   6.668  2.0868  1.7653  0.7231
  982MOL0     H32505   2.030   9.980   6.430 -0.7452 -1.1004 -0.0989
  982MOL0     H32506   2.143   9.858   6.453 -0.0806 -0.4829 -1.4556
  982MOL0     H32507   1.968   9.862   6.622 -0.5158 -1.6573  4.1140
  982MOL0     H32508   2.032  10.017   6.688 -0.4357 -0.6823  0.4805
  982MOL0     H32509   2.218   9.917   6.777 -0.3719  0.1884 -1.8444
  982MOL0     H32510   2.221   9.785   6.666  0.6713 -1.0148  2.3054
  982MOL0     H32511   1.976   9.816   6.850  0.5818 -0.1598  0.0616
  982MOL0     H32512   2.034   9.671   6.755 -0.3071 -0.3535  0.6958
  982MOL0     H32513   2.230   9.671   6.910 -0.0769  0.6744 -4.8249
  982MOL0     H32514   2.160   9.813   6.991 -0.7002  0.6018 -1.8254
  982MOL0     H32515   1.937   9.674   7.013 -1.1837 -2.3160  1.6313
  982MOL0     H32516   2.042   9.529   7.001  1.4765  0.7005 -1.9965
  982MOL0     H32517   2.098   9.746   7.195  0.4951 -0.2886 -0.5605
  982MOL0     H32518   2.172   9.595   7.184 -0.4322  0.4915  0.3276
  982MOL0     H32519   2.011   9.600   7.371  1.4124  2.1969 -0.3228
  982MOL0     H32520   1.875   9.595   7.267  0.0660  0.3875 -2.0388
  982MOL0     H32521   2.206   9.398   7.240 -0.4330  0.4004  0.8687
  982MOL0     H32522   2.210   9.158   7.045  1.4694 -1.9976  0.2096
  982MOL0     H32523   2.283   9.163   7.207 -1.9915  2.7010  1.0711
  982MOL0     H32524   2.087   8.984   7.259 -0.8279 -3.3033  0.0982
  982MOL0     H32525   2.068   8.986   7.092  0.0501 -0.2460  0.2283
  982MOL0     H32526   2.209   8.788   7.203 -0.3178 -0.6985 -1.0785
  982MOL0     H32527   2.334   8.914   7.220 -0.7124 -1.8413  0.8550
  982MOL0     H32528   2.217   8.831   6.954  0.8239  1.7271 -0.7497
  982MOL0     H32529   2.357   8.753   7.049  2.4684  2.1174  1.9257
  982MOL0     H32530   2.291   9.090   6.778  0.5245  0.7976 -0.6410
  982MOL0     H32531   2.319   9.068   6.535 -2.1649 -1.2651 -1.1354
  982MOL0     H32532   2.248   9.093   6.210  0.4633  0.1048 -1.8182
  982MOL0     H32533   2.190   9.084   5.967 -0.0412  0.1844 -0.0667
  982MOL0     H32534   2.556   8.997   5.709 -1.4200  0.3077  4.5532
  982MOL0     H32535   2.490   8.841   5.726  0.2296  1.8189  4.7192
  982MOL0     H32536   2.327   8.892   5.549 -5.2576  3.8543 -1.9699
  982MOL0     H32537   2.361   9.064   5.555 -2.8167 -1.0486  0.3929
  982MOL0     H32538   2.562   9.052   5.436 -0.8775  1.5901 -1.5735
  982MOL0     H32539   2.570   8.870   5.453 -0.9132 -0.8986  0.1327
  982MOL0     H32540   2.352   9.025   5.310  2.1923  3.1340  1.4049
  982MOL0     H32541   2.357   8.848   5.307 -0.3577  0.9969  1.0194
  982MOL0     H32542   2.555   8.843   5.183  2.3483  0.4851  0.5318
  982MOL0     H32543   2.587   9.015   5.215  0.1228 -0.0922  0.6109
  982MOL0     H32544   2.418   8.904   4.996 -1.6301  0.4262 -0.5310
  982MOL0     H32545   2.352   9.047   5.077  0.1119  0.9129  0.5964
  982MOL0     H32546   2.572   9.170   5.031 -1.6266  0.5982  0.5875
  982MOL0     H32547   2.508   9.098   4.877  1.9570 -1.2609 -0.0242
  982MOL0     H32548   2.750   9.045   4.920  0.3899 -0.9909 -1.2038
  982MOL0     H32549   2.704   8.920   5.026  0.9573  0.0235 -0.1663
  982MOL0     H32550   2.561   8.867   5.920 -1.8429 -1.7454 -3.7128
  982MOL0     H32551   2.573   8.834   6.155  0.7157 -2.8034 -1.5769
  982MOL0     H32552   2.549   8.704   6.612 -2.5496 -1.5462 -1.4615
  982MOL0     H32553   2.536   8.754   6.857  0.6204  1.2353  1.1130
  982MOL0     H32554   2.042  10.206   6.395 -2.2591  0.1885  1.7351
  982MOL0     H32555   2.003  10.441   6.469  1.5177  1.7271  0.0817
  982MOL0     H32556   1.889  10.658   6.755 -0.8661  0.9763 -0.4177
  982MOL0     H32557   1.770  10.847   6.863  2.0802  0.7267  3.2293
  982MOL0     H32558   2.008  11.192   6.954  0.1902  0.9564  0.2361
  982MOL0     H32559   1.962  11.068   7.052  1.4059  0.8008 -1.0917
  982MOL0     H32560   1.809  11.334   6.964 -0.3940 -3.7492 -3.5563
  982MOL0     H32561   1.877  11.314   7.123 -0.4601 -1.4970  0.4102
  982MOL0     H32562   1.697  11.112   7.141 -4.8157 -0.4517  0.9776
  982MOL0     H32563   1.622  11.206   7.002  0.5140  2.0227 -0.8202
  982MOL0     H32564   1.518  11.244   7.199  1.1359 -1.9954 -3.4520
  982MOL0     H32565   1.658  11.330   7.280 -0.6207 -0.6046  1.5004
  982MOL0     H32566   1.480  11.607   7.002  1.7778  0.8406 -0.8865
  982MOL0     H32567   2.069  11.111   6.766 -0.4982  0.3976  0.4355
  982MOL0     H32568   2.240  11.062   6.621 -1.1831 -0.2826  0.0064
  982MOL0     H32569   2.323  10.915   6.674 -1.0129 -0.2802  1.1020
  982MOL0     H32570   2.251  10.921   6.511  2.8979  0.9792  0.2921
  983MOL0     O32571   9.329   7.723   8.755 -1.0770  0.7096 -0.9347
  983MOL0     C32572   9.331   7.814   8.674 -0.2368 -0.0196 -0.0484
  983MOL0     O32573   9.312   7.946   8.699 -0.3778 -0.0247 -0.1392
  983MOL0     C32574   9.291   7.999   8.824 -0.5010  0.3351 -0.5543
  983MOL0     C32575   9.378   7.986   8.930  0.2892 -0.4665 -0.0017
  983MOL0     C32576   9.342   8.017   9.063 -0.6721 -0.4653  0.6793
  983MOL0     C32577   9.215   8.075   9.089 -0.9892  1.1790 -0.5073
  983MOL0     O32578   9.171   8.117   9.219 -0.3433 -0.4157 -0.0711
  983MOL0     C32579   9.273   8.152   9.315  0.6897 -0.2404 -0.0031
  983MOL0     C32580   9.264   8.042   9.422 -0.1372 -0.2112 -0.4624
  983MOL0     C32581   9.392   8.004   9.480 -0.1913 -0.6535  0.4037
  983MOL0     C32582   9.385   7.898   9.588 -0.3592 -0.7993  0.2494
  983MOL0     C32583   9.520   7.835   9.631  0.2765  0.2871  0.8636
  983MOL0     C32584   9.531   7.810   9.786 -1.0723 -0.6957  0.0840
  983MOL0     C32585   9.408   7.728   9.833 -0.1923 -1.0720 -0.1628
  983MOL0     C32586   9.432   7.665   9.964 -0.3259 -0.6163 -0.0952
  983MOL0     N32587   9.307   7.609  10.012  0.3721  0.1989  0.3403
  983MOL0     C32588   9.208   7.685  10.071 -0.2708  0.2345 -1.2934
  983MOL0     C32589   9.111   7.606  10.117 -0.7883  0.2631  0.5194
  983MOL0     C32590   8.989   7.640  10.200  0.2767 -0.8769 -0.0989
  983MOL0     C32591   9.035   7.681  10.344 -0.7281  0.9273  0.7001
  983MOL0     C32592   8.930   7.722  10.440 -0.7752 -0.0696 -0.5203
  983MOL0     C32593   8.840   7.601  10.470  0.2731  0.2871 -1.1335
  983MOL0     O32594   8.730   7.587  10.373 -0.0357  0.0535 -0.7347
  983MOL0     C32595   8.605   7.608  10.432  0.2931  0.5600  0.6282
  983MOL0     C32596   8.546   7.739  10.432  0.0318 -0.2594  0.4527
  983MOL0     C32597   8.421   7.763  10.486  0.1704 -0.1250  0.7676
  983MOL0     C32598   8.357   7.657  10.544  0.7903 -0.4599 -1.0992
  983MOL0     C32599   8.227   7.671  10.614  0.4049 -0.4196 -0.6684
  983MOL0     O32600   8.136   7.767  10.566  0.1947  0.3218  0.3343
  983MOL0     C32601   8.041   7.815  10.651  1.0872  0.8728  0.1390
  983MOL0     C32602   7.907   7.828  10.598 -0.6097  0.7175 -0.2543
  983MOL0     C32603   7.812   7.888  10.677  0.2921  0.0907 -0.5494
  983MOL0     C32604   7.841   7.941  10.805  0.6049 -0.7009 -0.3637
  983MOL0     O32605   7.737   8.003  10.876  0.2346  0.2462  0.7271
  983MOL0     C32606   7.748   8.012  11.021 -0.3389 -0.3904 -0.3682
  983MOL0     C32607   7.832   8.140  11.058 -0.1475 -0.1514  0.0988
  983MOL0     C32608   7.898   8.135  11.198  0.1584 -0.0087  0.4857
  983MOL0     C32609   7.805   8.199  11.297 -0.7090  1.2561  0.0958
  983MOL0     C32610   7.877   8.217  11.438 -0.0172 -0.0627  0.2561
  983MOL0     C32611   8.025   8.279  11.443  0.0746 -0.0443  0.3212
  983MOL0     C32612   8.048   8.414  11.369 -1.2239 -0.7997  0.2912
  983MOL0     C32613   8.112   8.534  11.440  0.0353  0.1795 -0.2073
  983MOL0    Cl32614   8.271   8.478  11.499  0.1148  0.1814 -0.1838
  983MOL0     C32615   7.967   7.915  10.860 -0.1991 -0.6069  0.6163
  983MOL0     C32616   8.068   7.860  10.780  1.0161  0.1096  1.3272
  983MOL0     O32617   8.196   7.594  10.707  0.0860 -0.8886 -0.0507
  983MOL0     C32618   8.408   7.529  10.544 -0.2423 -0.9705 -0.1618
  983MOL0     C32619   8.530   7.501  10.487  0.4108 -0.1232 -0.0595
  983MOL0     N32620   9.158   7.470  10.093 -0.7022  0.6698  0.2199
  983MOL0     N32621   9.278   7.477  10.033 -0.1758 -0.4396 -0.6080
  983MOL0     C32622   9.127   8.098   8.980 -0.6266  0.3840 -0.2277
  983MOL0     C32623   9.167   8.057   8.853  0.6793  1.3055 -0.0768
  983MOL0     C32624   9.373   7.783   8.539  0.7681  0.0822 -0.8409
  983MOL0     C32625   9.359   7.886   8.444  0.4359 -0.3193  0.1288
  983MOL0     C32626   9.404   7.872   8.317 -0.2776  0.1273 -0.1879
  983MOL0     C32627   9.460   7.753   8.277 -0.0222 -0.0110  0.5683
  983MOL0     O32628   9.507   7.761   8.149 -0.4478 -0.3787 -0.0700
  983MOL0     C32629   9.621   7.692   8.109 -0.3634  0.4204  0.3810
  983MOL0     C32630   9.747   7.761   8.159 -0.4047  0.4395  1.0078
  983MOL0     C32631   9.778   7.897   8.098 -0.4521 -0.7712  0.3898
  983MOL0     C32632   9.913   7.964   8.142  0.7206 -0.2810 -0.1339
  983MOL0     C32633  10.025   7.871   8.115  0.4074  0.2503 -0.4244
  983MOL0     C32634  10.122   7.805   8.101  0.0945  0.0488 -0.4333
  983MOL0     C32635   9.471   7.646   8.363  0.3297  0.5500 -0.5584
  983MOL0     C32636   9.427   7.662   8.497  0.5616  0.4460  0.2035
  983MOL0     C32637   9.440   7.534   8.579  0.3252 -0.8274  0.1105
  983MOL0     H32638   9.467   7.925   8.916 -2.1903 -4.8326  1.4988
  983MOL0     H32639   9.416   8.002   9.141 -0.2939 -1.5726  0.1312
  983MOL0     H32640   9.375   8.149   9.276  1.7325 -4.6006  2.4997
  983MOL0     H32641   9.242   8.252   9.347  0.7623  0.1730 -1.1721
  983MOL0     H32642   9.221   7.951   9.378 -0.1705  1.0230 -3.2058
  983MOL0     H32643   9.193   8.073   9.499  2.2293 -0.8724  2.1809
  983MOL0     H32644   9.448   8.095   9.506 -1.2883  0.6552 -1.5634
  983MOL0     H32645   9.456   7.973   9.397  1.3559  2.5322  0.2375
  983MOL0     H32646   9.330   7.931   9.677 -1.4038 -0.8963 -0.3481
  983MOL0     H32647   9.323   7.817   9.548 -3.2616  3.3030 -4.8118
  983MOL0     H32648   9.540   7.744   9.574  0.0527  0.6272  0.2422
  983MOL0     H32649   9.592   7.912   9.603  0.1763 -0.7888 -2.7815
  983MOL0     H32650   9.625   7.762   9.812  0.7500  1.0329 -2.6971
  983MOL0     H32651   9.527   7.909   9.834  0.3938  0.1564 -1.4478
  983MOL0     H32652   9.398   7.645   9.763 -1.8545 -1.0432  0.0051
  983MOL0     H32653   9.321   7.794   9.841  0.7601  0.1899  0.1168
  983MOL0     H32654   9.517   7.598   9.946  0.0664 -0.1431 -0.0050
  983MOL0     H32655   9.461   7.738  10.040 -3.0593 -0.5434  0.9984
  983MOL0     H32656   9.210   7.791  10.091  1.9936 -0.5157  4.3606
  983MOL0     H32657   8.942   7.733  10.168  1.9293  0.5779  1.4998
  983MOL0     H32658   8.918   7.558  10.211 -0.1377 -0.2090  3.2776
  983MOL0     H32659   9.075   7.588  10.386 -0.2629 -0.3403 -2.2461
  983MOL0     H32660   9.114   7.756  10.337 -2.1281  2.6709  2.6247
  983MOL0     H32661   8.880   7.817  10.420 -0.7284  0.0315 -0.1656
  983MOL0     H32662   8.993   7.740  10.527 -1.9023  0.0225  0.2953
  983MOL0     H32663   8.802   7.613  10.572  0.3548 -2.7914 -0.6601
  983MOL0     H32664   8.899   7.510  10.467 -0.1995 -0.1985  1.6506
  983MOL0     H32665   8.610   7.820  10.397  1.3452 -2.1593 -1.8688
  983MOL0     H32666   8.394   7.868  10.493 -1.6472 -0.6031  1.3995
  983MOL0     H32667   7.881   7.778  10.505 -1.1256  1.1724 -0.3588
  983MOL0     H32668   7.712   7.915  10.644  0.4210 -0.5222 -1.4670
  983MOL0     H32669   7.652   8.026  11.070 -1.1125 -1.4203 -1.5274
  983MOL0     H32670   7.785   7.919  11.065 -1.1796 -0.6131 -0.1105
  983MOL0     H32671   7.909   8.153  10.981 -2.1135 -3.4499 -2.6466
  983MOL0     H32672   7.766   8.227  11.049  1.2160  0.7584 -2.2896
  983MOL0     H32673   7.919   8.032  11.228  0.2740  0.6109  2.7109
  983MOL0     H32674   7.991   8.192  11.195  1.0836 -1.4626  0.6416
  983MOL0     H32675   7.718   8.133  11.308 -1.1830  2.1629  2.2841
  983MOL0     H32676   7.778   8.299  11.264  0.9311  1.8681  0.5464
  983MOL0     H32677   7.879   8.116  11.481  3.0844 -0.8722 -1.4889
  983MOL0     H32678   7.809   8.270  11.505 -1.6546 -4.3141  2.3544
  983MOL0     H32679   8.048   8.301  11.548 -0.5377 -1.9031  0.8961
  983MOL0     H32680   8.098   8.208  11.402  0.4981  0.8803 -0.5703
  983MOL0     H32681   7.955   8.444  11.320 -1.8698 -1.9840  0.7433
  983MOL0     H32682   8.105   8.398  11.277 -1.5053  0.8041 -0.2022
  983MOL0     H32683   8.139   8.613  11.370  0.1838 -0.2204 -0.6011
  983MOL0     H32684   8.043   8.557  11.522 -0.7221 -2.9418  0.1452
  983MOL0     H32685   7.991   7.956  10.957  1.4603 -0.9994  0.4051
  983MOL0     H32686   8.163   7.854  10.832 -0.0831  1.5170  3.6667
  983MOL0     H32687   8.353   7.442  10.580 -1.5248 -0.1423 -0.0342
  983MOL0     H32688   8.573   7.403  10.504  0.2366 -0.1224  0.4047
  983MOL0     H32689   9.028   8.141   8.998 -0.5162  1.5129 -2.0288
  983MOL0     H32690   9.109   8.080   8.764  0.1766  0.5865  0.0552
  983MOL0     H32691   9.329   7.986   8.471  0.2971 -0.9652  2.6165
  983MOL0     H32692   9.422   7.961   8.258  1.4065  0.4577  0.7778
  983MOL0     H32693   9.629   7.686   8.000  2.2982  3.4860  0.2466
  983MOL0     H32694   9.629   7.590   8.150 -2.0733  0.4498  0.8531
  983MOL0     H32695   9.834   7.699   8.134  1.2590  1.5631  3.5644
  983MOL0     H32696   9.744   7.778   8.267  2.8661  2.0784  0.9588
  983MOL0     H32697   9.698   7.968   8.121  0.9038  1.7689 -2.0358
  983MOL0     H32698   9.774   7.884   7.989 -0.4763  0.0138  0.2896
  983MOL0     H32699   9.921   8.055   8.082 -0.6708  1.7275  2.4995
  983MOL0     H32700   9.922   7.995   8.247  2.9547 -1.2316  0.0081
  983MOL0     H32701  10.212   7.747   8.100  0.2696  0.2431  1.3639
  983MOL0     H32702   9.492   7.546   8.326 -2.6211  0.2903 -1.8046
  983MOL0     H32703   9.522   7.551   8.649  1.4586  1.8801 -1.7362
  983MOL0     H32704   9.343   7.504   8.622 -0.5202 -0.2481 -1.3055
  983MOL0     H32705   9.475   7.449   8.519  0.3979 -0.9760  0.3604
  984MOL0     O32706   1.720   2.355   5.932  0.0110 -0.4470  0.8557
  984MOL0     C32707   1.704   2.235   5.943  1.4807 -0.3309 -0.1253
  984MOL0     O32708   1.586   2.182   5.985  0.0546 -0.2920 -0.2852
  984MOL0     C32709   1.485   2.248   6.046  0.4028  0.1338 -0.5160
  984MOL0     C32710   1.349   2.206   6.031 -0.2893  0.4019  0.4801
  984MOL0     C32711   1.241   2.270   6.094 -0.2895 -0.3113  1.0638
  984MOL0     C32712   1.257   2.382   6.183  0.6050 -0.1279  0.3434
  984MOL0     O32713   1.159   2.459   6.240 -0.6451  0.1176  0.0194
  984MOL0     C32714   1.044   2.389   6.284 -0.3469  0.5309  0.3760
  984MOL0     C32715   0.996   2.468   6.399  0.3368 -0.5928 -0.6017
  984MOL0     C32716   1.061   2.434   6.536 -0.0962 -0.7020 -0.8759
  984MOL0     C32717   1.210   2.471   6.542 -0.3394 -0.5586 -0.2855
  984MOL0     C32718   1.270   2.423   6.670 -0.5229  0.5853 -0.7317
  984MOL0     C32719   1.407   2.495   6.704 -1.4439  0.2067 -0.1612
  984MOL0     C32720   1.497   2.480   6.579  0.4957 -0.6730 -0.1125
  984MOL0     C32721   1.644   2.524   6.613  0.7679 -0.3341  0.4773
  984MOL0     N32722   1.716   2.487   6.498 -0.3665  0.6326  0.1116
  984MOL0     C32723   1.794   2.366   6.489 -0.1275 -0.8289  0.6743
  984MOL0     C32724   1.867   2.392   6.371  0.3322  1.6246 -0.3544
  984MOL0     C32725   1.974   2.302   6.309  0.1006  0.4044 -0.2059
  984MOL0     C32726   1.970   2.156   6.354 -0.0034 -0.3123 -0.1386
  984MOL0     C32727   2.104   2.102   6.299 -0.5745 -0.0776  0.2949
  984MOL0     C32728   2.217   2.134   6.395  0.6178  0.6409 -0.1444
  984MOL0     O32729   2.344   2.098   6.342 -0.0823  0.5654 -0.5264
  984MOL0     C32730   2.451   2.118   6.422  0.0088 -1.2217 -0.5543
  984MOL0     C32731   2.568   2.095   6.358 -0.1023 -0.2113 -0.4595
  984MOL0     C32732   2.693   2.129   6.412 -0.8651  0.3033 -0.6294
  984MOL0     C32733   2.700   2.187   6.541 -0.6878  0.7516  0.6250
  984MOL0     C32734   2.826   2.230   6.593 -0.5979  0.5574  0.8812
  984MOL0     O32735   2.937   2.205   6.518  0.6165  0.3723  0.9471
  984MOL0     C32736   3.062   2.235   6.558  0.1458 -0.9784  0.5715
  984MOL0     C32737   3.089   2.367   6.536 -0.5321  0.7371  0.4052
  984MOL0     C32738   3.209   2.426   6.571 -0.4908 -0.4435  0.3579
  984MOL0     C32739   3.304   2.351   6.641 -0.8381 -0.0287  0.2465
  984MOL0     O32740   3.404   2.435   6.693  0.4815  0.3439 -0.6720
  984MOL0     C32741   3.526   2.379   6.754 -0.2273 -0.6623 -0.4184
  984MOL0     C32742   3.505   2.334   6.901 -0.8461  1.0710 -0.9189
  984MOL0     C32743   3.631   2.309   6.980 -0.3557  0.4179 -1.1436
  984MOL0     C32744   3.598   2.337   7.130 -0.5970 -0.2469  1.1500
  984MOL0     C32745   3.697   2.288   7.234 -0.4422  0.1557 -0.0511
  984MOL0     C32746   3.624   2.209   7.353 -0.9425 -0.6448  0.0288
  984MOL0     C32747   3.723   2.147   7.456 -0.4700 -0.3060  0.3262
  984MOL0     C32748   3.804   2.252   7.528  0.3067 -0.0207  0.2641
  984MOL0    Cl32749   3.696   2.335   7.642  0.3103  0.0060  0.0729
  984MOL0     C32750   3.280   2.218   6.674  0.2670 -0.0396  0.3356
  984MOL0     C32751   3.156   2.165   6.633 -0.5511  1.0814  1.0250
  984MOL0     O32752   2.835   2.283   6.704 -0.0371 -0.4183 -0.5841
  984MOL0     C32753   2.580   2.204   6.608 -0.1778  0.3966  0.3342
  984MOL0     C32754   2.453   2.162   6.557  0.4815  0.1965  0.2820
  984MOL0     N32755   1.825   2.516   6.319 -0.3729  0.4838  0.8136
  984MOL0     N32756   1.729   2.563   6.382  0.0717  0.2622  0.2416
  984MOL0     C32757   1.393   2.431   6.189 -1.0606  0.7560 -0.8809
  984MOL0     C32758   1.506   2.358   6.126 -0.5651 -0.1019  0.1838
  984MOL0     C32759   1.817   2.145   5.916 -0.7240 -0.1516 -1.1294
  984MOL0     C32760   1.858   2.053   6.017  0.0633 -0.3073 -0.3682
  984MOL0     C32761   1.974   1.973   6.006 -0.7809  0.2804  0.3229
  984MOL0     C32762   2.043   1.972   5.887 -0.0105 -0.9584  0.7243
  984MOL0     O32763   2.155   1.899   5.859 -0.3477 -0.8784  0.4943
  984MOL0     C32764   2.207   1.817   5.959  0.1577  0.2853 -0.9932
  984MOL0     C32765   2.306   1.888   6.058 -0.4922 -1.5979 -0.5177
  984MOL0     C32766   2.394   1.786   6.149 -0.0907 -0.5888  0.5292
  984MOL0     C32767   2.312   1.685   6.215  0.7035  0.0398 -0.2390
  984MOL0     C32768   2.246   1.737   6.334  0.1360 -0.5066  0.2609
  984MOL0     C32769   2.166   1.777   6.420  0.4090  0.1749 -0.4419
  984MOL0     C32770   1.992   2.043   5.776  0.0137 -0.6069 -0.1480
  984MOL0     C32771   1.884   2.138   5.784 -1.5244  0.0573 -1.8491
  984MOL0     C32772   1.875   2.220   5.665  1.1739 -0.3369 -0.3157
  984MOL0     H32773   1.337   2.115   5.974 -2.1084 -1.4549  3.5688
  984MOL0     H32774   1.143   2.231   6.070 -0.0543 -1.6995  2.2234
  984MOL0     H32775   0.966   2.389   6.207 -2.6941 -1.7294  2.5565
  984MOL0     H32776   1.058   2.282   6.304 -1.4226 -0.2068 -2.3381
  984MOL0     H32777   0.888   2.450   6.401 -0.0243  1.3931  0.8681
  984MOL0     H32778   1.007   2.577   6.396  1.5740 -0.6944 -0.3391
  984MOL0     H32779   1.052   2.327   6.556  1.3832 -0.8291 -0.7518
  984MOL0     H32780   1.000   2.498   6.601  0.6968 -2.1070  1.3855
  984MOL0     H32781   1.257   2.417   6.458 -2.6637 -0.0202 -2.0406
  984MOL0     H32782   1.219   2.580   6.539  0.4999 -0.6427 -1.6739
  984MOL0     H32783   1.197   2.442   6.749 -1.1394 -0.6133 -1.0032
  984MOL0     H32784   1.280   2.315   6.663 -0.9647  0.5816 -1.3450
  984MOL0     H32785   1.383   2.600   6.724  0.7607  1.2525 -2.4357
  984MOL0     H32786   1.460   2.451   6.789 -0.2882  2.2888  0.2431
  984MOL0     H32787   1.460   2.540   6.495 -3.2618 -3.6209 -0.8328
  984MOL0     H32788   1.502   2.376   6.547  0.6100 -0.7839  0.2661
  984MOL0     H32789   1.642   2.633   6.622 -2.6196 -0.1572 -0.9554
  984MOL0     H32790   1.687   2.472   6.700  0.4577 -0.0751  0.7894
  984MOL0     H32791   1.801   2.286   6.562 -1.0458 -0.0319  1.6554
  984MOL0     H32792   1.970   2.305   6.200  3.1582  3.4337 -0.3734
  984MOL0     H32793   2.070   2.342   6.340 -0.7410  0.2471  2.9166
  984MOL0     H32794   1.974   2.146   6.463 -1.5730 -1.7172 -0.1743
  984MOL0     H32795   1.889   2.093   6.319 -0.8036 -1.8458  3.8727
  984MOL0     H32796   2.129   2.141   6.200 -2.0776 -2.3641 -1.0739
  984MOL0     H32797   2.096   1.995   6.277  0.1424  0.2825 -1.9610
  984MOL0     H32798   2.202   2.080   6.489 -2.4097 -1.4310 -1.6672
  984MOL0     H32799   2.210   2.242   6.412 -2.8069  0.6920 -1.1392
  984MOL0     H32800   2.558   2.055   6.258  0.4037 -0.8233 -0.2734
  984MOL0     H32801   2.778   2.121   6.346  0.3295  1.3097  0.7029
  984MOL0     H32802   3.020   2.435   6.487  0.2893  0.8913 -0.5640
  984MOL0     H32803   3.236   2.531   6.564 -3.0382  0.3737  1.4857
  984MOL0     H32804   3.576   2.300   6.696  1.6133  1.2966 -1.6752
  984MOL0     H32805   3.598   2.461   6.749 -2.2894  1.2868  0.0511
  984MOL0     H32806   3.442   2.410   6.949  0.7117  3.2871 -2.2089
  984MOL0     H32807   3.453   2.238   6.901  0.6456  0.1532 -3.9457
  984MOL0     H32808   3.672   2.208   6.968  1.1026  0.9752 -1.0413
  984MOL0     H32809   3.712   2.376   6.951  1.6545 -1.6118 -0.5130
  984MOL0     H32810   3.500   2.296   7.156 -1.2713  0.3807 -0.3187
  984MOL0     H32811   3.582   2.445   7.141 -3.7830 -0.2769 -1.4361
  984MOL0     H32812   3.754   2.372   7.274 -1.5725 -1.1660  4.9276
  984MOL0     H32813   3.770   2.220   7.188 -1.3980 -1.0045  0.0864
  984MOL0     H32814   3.561   2.279   7.409  1.5696  0.4701  1.6684
  984MOL0     H32815   3.577   2.122   7.307  1.4194 -1.2906 -1.3265
  984MOL0     H32816   3.790   2.078   7.405  1.4818  1.2990  0.5764
  984MOL0     H32817   3.666   2.098   7.536 -0.0035 -0.2120  0.7207
  984MOL0     H32818   3.887   2.213   7.588 -0.4014  1.3085  2.2039
  984MOL0     H32819   3.848   2.320   7.454  1.6676 -3.2930 -2.2030
  984MOL0     H32820   3.353   2.149   6.715  0.1175 -0.7353 -0.5496
  984MOL0     H32821   3.139   2.060   6.656  1.6519 -0.3461 -2.9501
  984MOL0     H32822   2.578   2.246   6.709 -2.9716 -4.2292  2.5757
  984MOL0     H32823   2.359   2.161   6.611  0.0015  1.9344 -0.4417
  984MOL0     H32824   1.420   2.520   6.245  0.3279 -0.8606  1.1706
  984MOL0     H32825   1.608   2.384   6.154  0.5421 -4.8639  1.6377
  984MOL0     H32826   1.807   2.049   6.112 -0.8098  1.8235 -0.6802
  984MOL0     H32827   2.013   1.911   6.086 -1.3643 -3.2892 -1.9424
  984MOL0     H32828   2.260   1.731   5.916  0.5913  0.2513 -0.4146
  984MOL0     H32829   2.124   1.775   6.016  1.4243 -1.3997 -0.2895
  984MOL0     H32830   2.253   1.956   6.125 -0.1812  0.1380 -1.9382
  984MOL0     H32831   2.375   1.956   6.006 -0.8562  0.3325  1.3843
  984MOL0     H32832   2.444   1.845   6.227 -2.3754 -2.1236  3.3370
  984MOL0     H32833   2.472   1.734   6.092 -0.9696 -1.9966  0.5654
  984MOL0     H32834   2.233   1.651   6.146 -0.5601 -1.3010  1.7542
  984MOL0     H32835   2.378   1.601   6.238 -1.0720 -1.9544 -1.9235
  984MOL0     H32836   2.114   1.812   6.507 -2.0597  0.5611 -1.9663
  984MOL0     H32837   2.053   2.019   5.690 -0.1840 -2.2708  0.1583
  984MOL0     H32838   1.968   2.271   5.637  1.0273  2.0972  3.1116
  984MOL0     H32839   1.840   2.171   5.573  0.9318  1.4383 -1.2055
  984MOL0     H32840   1.808   2.305   5.679  1.6992  0.4354 -2.2073
  985MOL0     O32841   7.262   2.706   7.095  0.7125  0.1704  0.1781
  985MOL0     C32842   7.379   2.736   7.068 -0.0997 -0.3657 -0.4698
  985MOL0     O32843   7.467   2.641   7.025 -1.0381  0.7785 -0.8506
  985MOL0     C32844   7.423   2.512   7.003  0.6196 -0.6236 -0.3290
  985MOL0     C32845   7.404   2.407   7.098 -0.0726 -0.8744  0.5432
  985MOL0     C32846   7.342   2.286   7.071  2.3424  0.9482 -0.1011
  985MOL0     C32847   7.308   2.247   6.943 -0.3480  0.7423 -0.7624
  985MOL0     O32848   7.243   2.129   6.901 -0.0382  0.6762 -0.1872
  985MOL0     C32849   7.235   2.017   6.999 -1.1403 -0.1122 -0.5834
  985MOL0     C32850   7.155   1.904   6.943 -0.0130  0.2431 -0.3403
  985MOL0     C32851   7.002   1.935   6.940 -0.1316 -0.9870 -0.4330
  985MOL0     C32852   6.923   1.806   6.924  0.1233  0.4107  0.2937
  985MOL0     C32853   6.767   1.819   6.919 -0.0334 -0.3657 -0.1983
  985MOL0     C32854   6.695   1.690   6.945 -1.0760  0.4715  0.8333
  985MOL0     C32855   6.755   1.569   6.864  0.6538  0.0067 -0.6994
  985MOL0     C32856   6.741   1.595   6.716 -0.3579 -0.5487  0.0079
  985MOL0     N32857   6.606   1.562   6.658  0.4505  0.1362  0.5042
  985MOL0     C32858   6.590   1.502   6.542  0.7444 -0.1634  0.1507
  985MOL0     C32859   6.458   1.515   6.508  0.4118  1.1969  0.5344
  985MOL0     C32860   6.398   1.472   6.367 -0.7309  0.1643  0.3799
  985MOL0     C32861   6.436   1.572   6.252  0.0956  0.6645  0.8533
  985MOL0     C32862   6.371   1.709   6.262  0.5336  0.0708 -0.6475
  985MOL0     C32863   6.370   1.798   6.138  0.8831  0.0096 -1.3860
  985MOL0     O32864   6.506   1.797   6.096 -0.1882  0.3157  0.0095
  985MOL0     C32865   6.551   1.862   5.986  0.0960 -0.5868 -0.1678
  985MOL0     C32866   6.481   1.968   5.916  0.1183  0.3003 -0.2291
  985MOL0     C32867   6.538   2.032   5.806 -0.9306  0.6149 -1.0720
  985MOL0     C32868   6.667   1.988   5.760  0.9886 -0.5275 -0.5123
  985MOL0     C32869   6.725   2.062   5.640  0.1634  1.2626 -0.2906
  985MOL0     O32870   6.794   1.979   5.559 -0.5424 -0.0396 -0.0408
  985MOL0     C32871   6.869   2.028   5.448  0.5850 -0.8140  0.4137
  985MOL0     C32872   6.952   1.934   5.387  0.1282  0.7259  0.0689
  985MOL0     C32873   7.026   1.967   5.283 -0.7204 -0.1066  1.0245
  985MOL0     C32874   7.038   2.096   5.234  0.7419 -0.7007  0.2910
  985MOL0     O32875   7.127   2.125   5.129 -0.0646  0.3161  0.9169
  985MOL0     C32876   7.156   2.256   5.079  0.8065 -1.5489 -1.3105
  985MOL0     C32877   7.273   2.266   4.994 -0.7396  0.8110  0.3572
  985MOL0     C32878   7.401   2.205   5.050  0.1024  0.4435 -0.4636
  985MOL0     C32879   7.514   2.200   4.951  0.0587  0.2950 -0.8095
  985MOL0     C32880   7.631   2.118   5.000 -0.0823  0.4780  0.1628
  985MOL0     C32881   7.692   2.165   5.132 -0.4654 -0.3431  1.1241
  985MOL0     C32882   7.803   2.068   5.174 -0.7409  0.4095  0.3065
  985MOL0     C32883   7.936   2.121   5.125 -0.4755  0.1426  0.2768
  985MOL0    Cl32884   7.997   2.260   5.213 -0.0818  0.2612  0.2107
  985MOL0     C32885   6.961   2.195   5.309 -0.4541 -0.2773 -0.2564
  985MOL0     C32886   6.883   2.170   5.413 -0.2854  1.0689 -0.3391
  985MOL0     O32887   6.686   2.177   5.629 -0.3439  0.3573 -0.1964
  985MOL0     C32888   6.738   1.880   5.831  0.1599 -0.1652  0.4606
  985MOL0     C32889   6.680   1.825   5.943  0.2787 -0.4101 -0.4404
  985MOL0     N32890   6.398   1.580   6.607  0.4817 -0.6066  0.8220
  985MOL0     N32891   6.491   1.611   6.697  0.6805 -0.1847 -0.0452
  985MOL0     C32892   7.319   2.346   6.844 -0.2954 -0.3970 -0.4411
  985MOL0     C32893   7.371   2.473   6.877 -0.3918 -0.3925  0.0226
  985MOL0     C32894   7.440   2.869   7.070  0.2025 -0.1653 -0.7780
  985MOL0     C32895   7.571   2.893   7.039 -0.2734  0.4168  0.0296
  985MOL0     C32896   7.630   3.020   7.033  0.1218 -0.7680  0.9232
  985MOL0     C32897   7.555   3.139   7.042  0.3222 -0.2066 -0.4241
  985MOL0     O32898   7.602   3.263   7.021 -0.0238 -0.7771 -0.3606
  985MOL0     C32899   7.711   3.279   6.939 -0.3042 -0.0064 -0.2998
  985MOL0     C32900   7.692   3.255   6.785  0.5529 -0.2233 -1.0270
  985MOL0     C32901   7.614   3.383   6.718 -1.1322  0.1330 -0.9964
  985MOL0     C32902   7.641   3.387   6.571 -0.5137  0.4381 -0.5521
  985MOL0     C32903   7.772   3.420   6.521 -0.2934 -0.1922  0.9588
  985MOL0     C32904   7.870   3.453   6.453 -0.5533  0.0847 -0.5837
  985MOL0     C32905   7.427   3.119   7.086 -0.3453  0.7741 -0.2249
  985MOL0     C32906   7.371   2.987   7.099 -0.0551  0.0350 -0.0729
  985MOL0     C32907   7.222   2.995   7.141 -0.0020  0.2473  0.1908
  985MOL0     H32908   7.436   2.429   7.199  1.2021 -0.9122  0.1715
  985MOL0     H32909   7.340   2.204   7.142 -1.2469 -0.3482 -1.4539
  985MOL0     H32910   7.334   1.991   7.037 -0.8063 -2.1411 -2.6782
  985MOL0     H32911   7.191   2.056   7.092 -2.8011 -1.3198 -0.8256
  985MOL0     H32912   7.178   1.821   7.010  3.1439  0.8095 -0.5910
  985MOL0     H32913   7.179   1.873   6.841 -1.7294 -0.5849 -0.5381
  985MOL0     H32914   6.985   1.995   6.851  1.6066 -0.6046 -0.5467
  985MOL0     H32915   6.977   1.986   7.034  0.6189  0.1952 -0.8533
  985MOL0     H32916   6.956   1.749   6.836  3.9482  0.6384  1.4061
  985MOL0     H32917   6.966   1.744   7.004  2.4046  0.8334 -0.5428
  985MOL0     H32918   6.732   1.883   7.001  0.1283 -1.4806  0.7587
  985MOL0     H32919   6.738   1.881   6.833  1.2778 -0.2197 -0.5592
  985MOL0     H32920   6.709   1.664   7.050  0.7025  0.4751  0.6362
  985MOL0     H32921   6.590   1.696   6.918 -0.8756  4.7463  0.3238
  985MOL0     H32922   6.699   1.477   6.881  0.8097 -0.1270 -0.9023
  985MOL0     H32923   6.856   1.557   6.906  0.3627 -0.2505 -0.0609
  985MOL0     H32924   6.777   1.697   6.700  6.3888 -2.0776  2.0096
  985MOL0     H32925   6.818   1.533   6.668 -0.1959  0.3667 -0.9594
  985MOL0     H32926   6.673   1.473   6.478  1.6065  1.6707  0.3957
  985MOL0     H32927   6.441   1.374   6.347  0.7751  0.7928  0.3973
  985MOL0     H32928   6.289   1.463   6.379 -1.2392  3.3512 -0.8602
  985MOL0     H32929   6.543   1.596   6.247 -0.3328  2.4033 -1.4471
  985MOL0     H32930   6.413   1.523   6.157 -0.1238  0.0869  1.1996
  985MOL0     H32931   6.408   1.768   6.346  1.3041  0.4479 -1.2394
  985MOL0     H32932   6.267   1.682   6.283  0.1186 -0.0406 -2.6391
  985MOL0     H32933   6.339   1.893   6.183 -0.7183 -0.5475 -1.2236
  985MOL0     H32934   6.297   1.757   6.068  1.4144 -3.9032  0.0666
  985MOL0     H32935   6.381   1.990   5.954  0.7412 -1.7963  3.0724
  985MOL0     H32936   6.470   2.097   5.751 -0.8526  0.5878 -1.2028
  985MOL0     H32937   6.946   1.830   5.416 -2.2033  1.4112  2.4500
  985MOL0     H32938   7.083   1.888   5.237 -0.1894  1.6905 -1.6106
  985MOL0     H32939   7.064   2.283   5.027 -0.0384  0.1721  0.9348
  985MOL0     H32940   7.169   2.321   5.166 -0.3609  0.6422 -2.6996
  985MOL0     H32941   7.250   2.221   4.897  0.1452  3.8127 -1.3689
  985MOL0     H32942   7.298   2.370   4.973  0.9806  0.0425 -1.7792
  985MOL0     H32943   7.433   2.271   5.132  1.3423 -0.3681 -0.2603
  985MOL0     H32944   7.381   2.102   5.080  2.6281 -0.1888 -0.7139
  985MOL0     H32945   7.529   2.306   4.928 -1.0070  0.7421  0.4376
  985MOL0     H32946   7.482   2.156   4.857  1.5610 -0.3519 -1.0512
  985MOL0     H32947   7.695   2.135   4.914  1.7967  3.8557  2.0016
  985MOL0     H32948   7.608   2.011   5.011  3.1375 -0.7743 -3.1920
  985MOL0     H32949   7.733   2.264   5.111 -0.3815 -1.0455 -2.7758
  985MOL0     H32950   7.628   2.173   5.220  0.5730 -0.4267  1.9055
  985MOL0     H32951   7.790   1.965   5.139 -1.3573  1.0689 -1.5234
  985MOL0     H32952   7.804   2.073   5.283 -3.4603  1.7678  0.3553
  985MOL0     H32953   8.012   2.047   5.153  1.7293  2.6147  1.2019
  985MOL0     H32954   7.932   2.136   5.017  0.3276  1.1480  0.3675
  985MOL0     H32955   6.976   2.300   5.284  4.2564 -1.3003 -2.9989
  985MOL0     H32956   6.842   2.260   5.458  1.3392  2.0130 -0.6547
  985MOL0     H32957   6.841   1.863   5.803  0.4302  2.3486 -0.2988
  985MOL0     H32958   6.740   1.760   6.005 -1.0323  1.5494  3.2289
  985MOL0     H32959   7.298   2.333   6.739 -0.0760  3.2015 -1.0700
  985MOL0     H32960   7.394   2.551   6.805 -2.9292  0.0221 -0.4384
  985MOL0     H32961   7.638   2.808   7.036 -1.7986 -0.8034 -2.3917
  985MOL0     H32962   7.733   3.015   6.999 -0.4005 -0.5953 -0.8187
  985MOL0     H32963   7.786   3.207   6.972 -0.6086 -0.0778  0.2491
  985MOL0     H32964   7.756   3.378   6.954 -0.2823  0.4969 -3.1365
  985MOL0     H32965   7.646   3.159   6.761 -0.1020 -0.7359  1.8733
  985MOL0     H32966   7.795   3.258   6.750  1.0697  0.7714  0.4972
  985MOL0     H32967   7.627   3.479   6.768 -5.5750  0.2701  0.3059
  985MOL0     H32968   7.508   3.371   6.740 -1.4838  0.8277 -2.2182
  985MOL0     H32969   7.608   3.295   6.523  4.2089 -1.5889 -0.4964
  985MOL0     H32970   7.572   3.464   6.538 -0.6717  0.3649 -0.3988
  985MOL0     H32971   7.954   3.493   6.400 -1.2918  3.8346  0.7884
  985MOL0     H32972   7.363   3.207   7.086  1.4976  2.1756 -0.7119
  985MOL0     H32973   7.169   2.963   7.051  0.1581 -0.1171  0.2214
  985MOL0     H32974   7.191   2.933   7.226 -0.3387  0.1355 -0.0065
  985MOL0     H32975   7.189   3.099   7.143  3.8754  1.7566 -2.8757
  986MOL0     O32976   9.142   1.329   9.660  0.1591 -1.2611 -0.8464
  986MOL0     C32977   9.192   1.292   9.766  0.2083  0.3832  0.0576
  986MOL0     O32978   9.206   1.363   9.884 -0.4803  0.4107  0.1007
  986MOL0     C32979   9.137   1.475   9.908  0.4228 -0.4532  0.7958
  986MOL0     C32980   9.067   1.565   9.815 -0.1088 -0.2679  0.0858
  986MOL0     C32981   8.998   1.682   9.855 -0.6125 -0.6481 -0.8947
  986MOL0     C32982   8.997   1.722   9.989  0.5650 -0.7704  0.4751
  986MOL0     O32983   8.919   1.828  10.013  0.1017  0.2158 -0.0113
  986MOL0     C32984   8.886   1.848  10.154 -0.1627  0.9173 -0.4811
  986MOL0     C32985   8.780   1.958  10.186  0.0238 -0.0276 -0.6495
  986MOL0     C32986   8.786   2.066  10.094 -0.1903  0.1085  0.8163
  986MOL0     C32987   8.758   2.205  10.152 -0.0560  0.4060 -0.1518
  986MOL0     C32988   8.729   2.322  10.052  0.9462  0.3390 -0.2805
  986MOL0     C32989   8.843   2.347   9.957 -0.0933  0.7748  0.5650
  986MOL0     C32990   8.944   2.430  10.028  0.2191  0.1276 -0.2013
  986MOL0     C32991   9.079   2.435   9.956  0.0130  0.6287  0.1564
  986MOL0     N32992   9.132   2.302   9.946 -0.1433 -0.2472  0.7554
  986MOL0     C32993   9.171   2.216  10.045  0.4652 -0.2911  0.1593
  986MOL0     C32994   9.226   2.111   9.970 -0.6691  0.2022  0.5088
  986MOL0     C32995   9.280   1.990  10.017  0.7625 -0.5921  0.5144
  986MOL0     C32996   9.373   1.998  10.135  0.6197 -1.6948  0.0879
  986MOL0     C32997   9.453   2.131  10.136  0.2894  0.2831 -0.1273
  986MOL0     C32998   9.550   2.138  10.259  0.2654  0.4316  0.9363
  986MOL0     O32999   9.653   2.035  10.266  0.5561  0.2067 -0.3006
  986MOL0     C33000   9.759   2.067  10.346 -0.3778  0.0745  0.4130
  986MOL0     C33001   9.781   2.185  10.426  0.1716 -1.1914 -1.4838
  986MOL0     C33002   9.892   2.194  10.511 -0.4467  1.0181 -0.0242
  986MOL0     C33003   9.997   2.095  10.501 -0.8254  1.5906 -0.1329
  986MOL0     C33004  10.117   2.116  10.580 -0.6503  0.6647 -0.4698
  986MOL0     O33005  10.224   2.037  10.564 -0.3518  0.2398  0.0493
  986MOL0     C33006  10.342   2.056  10.627 -0.7537  0.5824 -0.5770
  986MOL0     C33007  10.395   1.940  10.692  0.8246 -0.3188  0.4687
  986MOL0     C33008  10.498   1.956  10.781 -0.7428 -0.5315  0.2111
  986MOL0     C33009  10.552   2.086  10.809 -0.8375 -0.6742 -0.2652
  986MOL0     O33010  10.649   2.111  10.906  0.3732 -0.3944  1.2037
  986MOL0     C33011  10.626   2.069  11.042 -0.1278  0.8519 -0.8349
  986MOL0     C33012  10.654   2.190  11.130  0.2320  0.2431 -0.6264
  986MOL0     C33013  10.616   2.170  11.275 -1.1471  0.0677 -0.4483
  986MOL0     C33014  10.637   2.299  11.359  0.5908  0.6545  0.6385
  986MOL0     C33015  10.640   2.282  11.509 -0.3017  0.0689 -0.3302
  986MOL0     C33016  10.790   2.264  11.541 -0.8475  0.2780 -0.8594
  986MOL0     C33017  10.818   2.213  11.683 -0.5771 -0.2053  0.4681
  986MOL0     C33018  10.724   2.102  11.735 -0.2967 -0.4717 -0.4249
  986MOL0    Cl33019  10.793   2.058  11.903 -0.1235  0.4325  0.4506
  986MOL0     C33020  10.508   2.197  10.732  0.6630  0.2690  0.2461
  986MOL0     C33021  10.403   2.181  10.637 -0.6569 -0.7549  0.6930
  986MOL0     O33022  10.110   2.194  10.676 -0.8216  0.3629 -0.7913
  986MOL0     C33023   9.978   1.994  10.409  0.2272  0.2157 -0.1414
  986MOL0     C33024   9.860   1.968  10.336  1.0791 -1.1080 -0.1126
  986MOL0     N33025   9.216   2.129   9.830 -0.0572 -1.1925  0.1332
  986MOL0     N33026   9.160   2.250   9.817 -0.0771 -0.3547  0.3742
  986MOL0     C33027   9.060   1.632  10.084  0.1851 -0.9250  0.2631
  986MOL0     C33028   9.127   1.512  10.045  0.0361  0.1245 -0.0096
  986MOL0     C33029   9.240   1.157   9.750  0.1993 -0.1883 -0.7674
  986MOL0     C33030   9.198   1.070   9.650 -0.5035  0.2192 -0.5474
  986MOL0     C33031   9.260   0.942   9.640  1.0805 -0.0270 -0.5611
  986MOL0     C33032   9.352   0.887   9.719 -0.2003 -0.3068 -0.5524
  986MOL0     O33033   9.437   0.778   9.692  0.4984 -0.6590  0.0969
  986MOL0     C33034   9.421   0.717   9.562  0.4221 -0.0556 -0.7634
  986MOL0     C33035   9.525   0.599   9.568 -0.3765  0.1189 -0.3391
  986MOL0     C33036   9.494   0.513   9.694  0.5141  1.3985 -0.5747
  986MOL0     C33037   9.602   0.404   9.727  0.2649  0.1997 -0.4554
  986MOL0     C33038   9.636   0.322   9.608 -0.0719 -0.5573 -0.3787
  986MOL0     C33039   9.681   0.272   9.510  0.1662  0.3759  0.6568
  986MOL0     C33040   9.390   0.962   9.827  1.1719 -1.0645  0.3031
  986MOL0     C33041   9.337   1.102   9.839 -0.4152  0.2288 -0.0483
  986MOL0     C33042   9.377   1.172   9.967  0.8671 -0.1145  0.4478
  986MOL0     H33043   9.045   1.536   9.713  2.1958  0.2919 -0.6265
  986MOL0     H33044   8.935   1.722   9.776 -3.1023 -0.3390  1.1189
  986MOL0     H33045   8.862   1.755  10.205 -2.6194  2.0121  0.5221
  986MOL0     H33046   8.975   1.885  10.205 -1.2659  0.6091  1.8207
  986MOL0     H33047   8.807   2.004  10.282  1.2159  1.9734 -1.8476
  986MOL0     H33048   8.680   1.915  10.182  0.3867 -0.7819 -3.2848
  986MOL0     H33049   8.701   2.045  10.029  1.1978 -1.5761 -0.5391
  986MOL0     H33050   8.876   2.073  10.032 -2.1084 -3.4231 -2.8517
  986MOL0     H33051   8.672   2.205  10.219 -0.5601  3.1668 -0.6958
  986MOL0     H33052   8.846   2.229  10.213 -1.5294  0.4234  2.0448
  986MOL0     H33053   8.636   2.294  10.003  1.1290  2.2081 -1.8174
  986MOL0     H33054   8.712   2.417  10.104 -2.3146 -0.2605 -0.0437
  986MOL0     H33055   8.882   2.251   9.920 -2.2549 -0.6165  1.7171
  986MOL0     H33056   8.798   2.396   9.870  0.3592  3.2543  1.6583
  986MOL0     H33057   8.960   2.373  10.120 -1.1051 -0.4471 -0.3066
  986MOL0     H33058   8.914   2.534  10.041  0.7429  0.1791  0.6829
  986MOL0     H33059   9.059   2.480   9.858  0.6683  0.7243  0.0600
  986MOL0     H33060   9.144   2.503  10.011  1.1083  0.3486 -0.7317
  986MOL0     H33061   9.163   2.223  10.153  1.3840 -0.0345  0.2191
  986MOL0     H33062   9.198   1.920  10.040  2.4560 -2.1426  2.2074
  986MOL0     H33063   9.334   1.943   9.935 -0.6731  0.8528 -1.3249
  986MOL0     H33064   9.307   1.990  10.222 -1.1970 -1.5875 -1.2401
  986MOL0     H33065   9.437   1.909  10.138  2.2246 -0.6142  3.2923
  986MOL0     H33066   9.405   2.229  10.128 -1.1588 -0.3320  0.6554
  986MOL0     H33067   9.504   2.120  10.040  0.6932  0.1702  0.0993
  986MOL0     H33068   9.498   2.141  10.356 -2.1373 -1.5763 -0.1643
  986MOL0     H33069   9.596   2.236  10.247  1.1388  0.0195  0.8033
  986MOL0     H33070   9.710   2.267  10.432 -0.6262 -1.6232 -3.8166
  986MOL0     H33071   9.905   2.269  10.588  0.1461  0.8960  0.0010
  986MOL0     H33072  10.350   1.844  10.671  1.6107 -1.1235  2.2873
  986MOL0     H33073  10.550   1.866  10.815  3.9370  0.4345 -3.3606
  986MOL0     H33074  10.524   2.033  11.058 -0.3451  1.4157 -0.9346
  986MOL0     H33075  10.689   1.986  11.076 -1.3687 -0.5914 -1.8962
  986MOL0     H33076  10.759   2.221  11.124  0.6799 -1.4622 -3.5974
  986MOL0     H33077  10.599   2.273  11.086  0.0661  0.4847  0.0165
  986MOL0     H33078  10.515   2.129  11.282 -2.0326  2.0191 -1.1068
  986MOL0     H33079  10.688   2.098  11.315 -0.2266  0.1019 -1.9922
  986MOL0     H33080  10.551   2.365  11.351 -0.6246 -0.4998  3.0291
  986MOL0     H33081  10.727   2.357  11.336  1.1701  0.0604  1.3590
  986MOL0     H33082  10.585   2.191  11.536 -2.2225  0.7703 -1.6416
  986MOL0     H33083  10.583   2.360  11.560 -1.5781  0.5672 -2.3640
  986MOL0     H33084  10.839   2.192  11.476  1.2414  0.6507  0.2328
  986MOL0     H33085  10.840   2.361  11.538 -2.0589  1.1100  2.0624
  986MOL0     H33086  10.809   2.299  11.750 -2.6906  0.1122 -0.1461
  986MOL0     H33087  10.922   2.179  11.675 -0.5780  0.1871 -1.8982
  986MOL0     H33088  10.627   2.148  11.754 -1.3384 -0.6460 -4.4171
  986MOL0     H33089  10.704   2.014  11.674 -2.7952 -1.7519  2.0072
  986MOL0     H33090  10.549   2.292  10.765 -1.1186  1.3938 -0.6432
  986MOL0     H33091  10.369   2.270  10.584 -1.9720 -0.2046  2.3552
  986MOL0     H33092  10.058   1.927  10.379  1.9025  1.8786  0.3819
  986MOL0     H33093   9.861   1.885  10.265  0.8075 -3.0642  2.0521
  986MOL0     H33094   9.060   1.652  10.190  0.4720  2.8309 -0.3085
  986MOL0     H33095   9.160   1.448  10.126 -2.4844  0.2664  1.1997
  986MOL0     H33096   9.122   1.102   9.579 -0.4954 -0.6700 -0.9635
  986MOL0     H33097   9.218   0.881   9.560  0.2513  0.5699 -0.5936
  986MOL0     H33098   9.449   0.794   9.489  0.6890 -0.9066 -1.5829
  986MOL0     H33099   9.322   0.674   9.544 -1.0241  1.7367  2.1737
  986MOL0     H33100   9.622   0.641   9.599 -1.0064  1.9810 -0.7729
  986MOL0     H33101   9.530   0.539   9.476 -1.1699  2.3280 -1.8981
  986MOL0     H33102   9.393   0.473   9.688  1.1512 -1.0346  2.5483
  986MOL0     H33103   9.508   0.563   9.790 -0.5857 -2.8891  2.0807
  986MOL0     H33104   9.688   0.459   9.765  0.3225  1.5864 -2.4329
  986MOL0     H33105   9.548   0.349   9.805 -0.5802  2.8899  0.9647
  986MOL0     H33106   9.724   0.227   9.423 -2.8297  1.4339 -1.5674
  986MOL0     H33107   9.465   0.915   9.889  1.3801 -1.2145 -0.0597
  986MOL0     H33108   9.409   1.274   9.943  2.0742 -0.6436 -0.2414
  986MOL0     H33109   9.295   1.184  10.039  1.2096 -0.0165  0.8249
  986MOL0     H33110   9.460   1.121  10.016 -1.7975 -1.9829  3.4813
  987MOL0     O33111   9.585   9.481   9.615  0.4728 -0.2117  0.0887
  987MOL0     C33112   9.661   9.551   9.675  0.5881  0.9742 -0.6135
  987MOL0     O33113   9.675   9.691   9.654  0.5255 -0.7620 -0.3706
  987MOL0     C33114   9.603   9.745   9.541  0.0108 -0.7421 -0.5452
  987MOL0     C33115   9.509   9.844   9.569  0.4778  0.0910 -0.1796
  987MOL0     C33116   9.437   9.898   9.458  0.4401  0.0908 -1.1737
  987MOL0     C33117   9.472   9.879   9.317 -0.1165 -0.7516 -0.2362
  987MOL0     O33118   9.405   9.948   9.215 -0.0690  0.2426  0.2399
  987MOL0     C33119   9.470  10.058   9.171 -0.9704 -0.0027 -0.7502
  987MOL0     C33120   9.416  10.098   9.030  0.2818  0.5822  0.5261
  987MOL0     C33121   9.446   9.984   8.940  0.1972  0.0486 -0.0733
  987MOL0     C33122   9.397  10.022   8.802 -0.2143 -0.2215  0.4112
  987MOL0     C33123   9.413   9.913   8.698  0.3679  0.1738 -1.0682
  987MOL0     C33124   9.325   9.781   8.716  0.5471  0.2246 -0.7470
  987MOL0     C33125   9.186   9.784   8.633  0.2035  0.4107  0.5736
  987MOL0     C33126   9.073   9.866   8.706  0.5905 -0.4055  0.4431
  987MOL0     N33127   8.951   9.872   8.621  0.5299 -0.2096 -0.9415
  987MOL0     C33128   8.892   9.763   8.563 -0.0846  0.1905  0.0005
  987MOL0     C33129   8.785   9.808   8.492 -0.2686  0.2173 -0.3206
  987MOL0     C33130   8.701   9.726   8.395 -0.2672  0.5783 -0.4934
  987MOL0     C33131   8.569   9.797   8.357  0.5160 -0.8518 -0.0725
  987MOL0     C33132   8.457   9.788   8.467  0.2295 -0.1557  0.7744
  987MOL0     C33133   8.324   9.849   8.422 -0.3529 -0.9233 -0.2823
  987MOL0     O33134   8.303   9.815   8.282 -0.0407  0.2109 -1.5461
  987MOL0     C33135   8.177   9.843   8.233  1.0030  0.3580 -0.8953
  987MOL0     C33136   8.110   9.965   8.247  0.0914 -0.4478 -0.1665
  987MOL0     C33137   7.981   9.987   8.190  0.0678 -0.5567 -1.1621
  987MOL0     C33138   7.917   9.885   8.120  0.0782  0.3564 -0.0865
  987MOL0     C33139   7.772   9.897   8.073 -0.5331  0.0271 -0.4674
  987MOL0     O33140   7.697   9.786   8.065  0.4880 -0.2979  0.5537
  987MOL0     C33141   7.562   9.804   8.021 -0.6390  0.3226 -0.3065
  987MOL0     C33142   7.521   9.830   7.896  0.1696 -0.4395  0.9807
  987MOL0     C33143   7.388   9.828   7.861 -0.6081  0.2260  0.7743
  987MOL0     C33144   7.290   9.789   7.954  0.0029 -0.8696  0.4963
  987MOL0     O33145   7.155   9.784   7.921 -0.2058  0.3761 -0.3320
  987MOL0     C33146   7.142   9.722   7.793 -0.0106  0.1047  0.6981
  987MOL0     C33147   7.000   9.667   7.765  0.4864 -0.1983  0.0785
  987MOL0     C33148   6.904   9.792   7.750 -0.1637  1.3704 -1.1662
  987MOL0     C33149   6.759   9.747   7.708  0.0793 -0.1588  0.1808
  987MOL0     C33150   6.681   9.862   7.641  0.0602  0.3251 -0.6863
  987MOL0     C33151   6.687   9.998   7.721  0.9300 -0.7262 -0.1822
  987MOL0     C33152   6.578  10.100   7.675  0.2830  0.7794 -0.5844
  987MOL0     C33153   6.595  10.216   7.769  0.6825  1.5079  0.1690
  987MOL0    Cl33154   6.656  10.358   7.666 -0.6209 -0.0034  0.3371
  987MOL0     C33155   7.328   9.765   8.084  0.0174 -0.2363  0.4973
  987MOL0     C33156   7.467   9.772   8.116 -0.2928 -0.0647 -0.0011
  987MOL0     O33157   7.737  10.012   8.047  0.5513  0.0178 -0.1723
  987MOL0     C33158   7.987   9.759   8.104  0.7692  0.1170  0.4677
  987MOL0     C33159   8.118   9.740   8.154 -0.4800  0.3191  0.5589
  987MOL0     N33160   8.778   9.942   8.515 -0.3733  0.4447  0.3150
  987MOL0     N33161   8.881   9.981   8.589  0.4189  0.3191 -0.1897
  987MOL0     C33162   9.583   9.786   9.295 -0.0383 -0.9903  0.3115
  987MOL0     C33163   9.630   9.706   9.410 -0.0093 -0.7396  0.7690
  987MOL0     C33164   9.749   9.494   9.781 -0.5892 -1.1506 -0.3310
  987MOL0     C33165   9.873   9.567   9.803 -0.3916  0.6476 -0.4412
  987MOL0     C33166   9.961   9.525   9.898  0.0354  0.5197 -0.6414
  987MOL0     C33167   9.940   9.408   9.969 -0.1552  0.7801 -0.3625
  987MOL0     O33168  10.030   9.352  10.054  0.2747 -0.2271 -0.9941
  987MOL0     C33169  10.167   9.380  10.045 -0.1437  0.0634 -0.6264
  987MOL0     C33170  10.237   9.302  10.156  0.3023  0.3748 -0.5355
  987MOL0     C33171  10.362   9.379  10.209  0.5050 -0.1689  0.8154
  987MOL0     C33172  10.424   9.309  10.336  0.2379 -0.9092  0.2317
  987MOL0     C33173  10.540   9.395  10.370  0.5788  0.3083 -0.1363
  987MOL0     C33174  10.647   9.460  10.378 -0.3614 -0.3260  0.7046
  987MOL0     C33175   9.826   9.340   9.952 -0.1292  0.3509 -0.5834
  987MOL0     C33176   9.716   9.387   9.870 -0.2760 -0.8229 -0.8391
  987MOL0     C33177   9.586   9.305   9.857 -1.1798  0.9628 -0.2885
  987MOL0     H33178   9.484   9.890   9.665 -1.0806  3.4500 -2.0086
  987MOL0     H33179   9.358   9.972   9.468 -2.0014 -2.5861  1.2758
  987MOL0     H33180   9.448  10.141   9.239  0.2371  0.0205 -0.3756
  987MOL0     H33181   9.577  10.036   9.169 -0.7801  0.5930  1.1262
  987MOL0     H33182   9.463  10.192   8.999  1.1794 -0.4075 -1.1860
  987MOL0     H33183   9.308  10.119   9.037 -0.2799 -1.2695 -1.6949
  987MOL0     H33184   9.397   9.890   8.966  1.7543 -0.8325 -0.1853
  987MOL0     H33185   9.553   9.966   8.927 -0.0299 -0.1337 -1.8279
  987MOL0     H33186   9.294  10.060   8.810 -0.6139 -0.5906 -2.0934
  987MOL0     H33187   9.450  10.111   8.767 -0.8245 -1.5045 -4.4843
  987MOL0     H33188   9.391   9.959   8.601  0.4458  1.1976 -0.6035
  987MOL0     H33189   9.521   9.893   8.705  0.4054  0.7252  0.0401
  987MOL0     H33190   9.380   9.689   8.694 -0.7307 -1.5459  2.7590
  987MOL0     H33191   9.287   9.781   8.818  1.9740  2.9449 -0.1048
  987MOL0     H33192   9.153   9.681   8.616  2.3172 -0.1599 -0.4433
  987MOL0     H33193   9.198   9.819   8.530 -2.4070  0.4242  0.2028
  987MOL0     H33194   9.045   9.822   8.802  0.4104  0.3940  0.7676
  987MOL0     H33195   9.117   9.960   8.742 -1.7523 -0.2472  3.2943
  987MOL0     H33196   8.934   9.664   8.556  0.6530  0.4526  0.5535
  987MOL0     H33197   8.769   9.695   8.315  0.7313 -2.6679  1.4483
  987MOL0     H33198   8.682   9.635   8.452  2.0438 -1.3545 -2.5788
  987MOL0     H33199   8.586   9.899   8.322 -1.1026 -0.5858 -0.1640
  987MOL0     H33200   8.520   9.744   8.275 -0.7577 -0.9036  0.6868
  987MOL0     H33201   8.478   9.834   8.564 -0.0093  0.8183  0.3713
  987MOL0     H33202   8.444   9.680   8.475 -0.3098 -0.1629 -0.1497
  987MOL0     H33203   8.335   9.956   8.443 -2.5119 -1.2839  3.5907
  987MOL0     H33204   8.244   9.814   8.487  0.7567 -0.4446  1.4123
  987MOL0     H33205   8.148  10.045   8.310 -0.9713 -2.3661  3.1669
  987MOL0     H33206   7.925  10.076   8.218  0.5952 -0.6096  0.1769
  987MOL0     H33207   7.605   9.828   7.826 -0.9275 -3.1802 -0.4064
  987MOL0     H33208   7.363   9.862   7.761 -2.6271 -0.1915  1.0896
  987MOL0     H33209   7.165   9.788   7.708  2.1990 -1.2872  0.1407
  987MOL0     H33210   7.214   9.640   7.792 -0.4553 -0.3508  2.7300
  987MOL0     H33211   6.990   9.603   7.677 -2.9985 -0.8831  0.8208
  987MOL0     H33212   6.969   9.603   7.848 -1.2627  1.2671  0.6233
  987MOL0     H33213   6.894   9.839   7.848 -0.2785 -1.7550  0.4567
  987MOL0     H33214   6.950   9.868   7.686  2.3632 -0.7229 -2.0252
  987MOL0     H33215   6.696   9.731   7.796 -3.2539 -0.9682 -2.1613
  987MOL0     H33216   6.749   9.655   7.648 -1.1731 -0.5136  0.9044
  987MOL0     H33217   6.579   9.826   7.625  0.0488  0.9045 -2.0580
  987MOL0     H33218   6.722   9.878   7.541 -3.2728 -3.0796 -2.8807
  987MOL0     H33219   6.655   9.973   7.822  0.2097  0.7109 -0.0310
  987MOL0     H33220   6.786  10.045   7.714  0.1680  1.3583  1.9733
  987MOL0     H33221   6.478  10.059   7.694  0.0616  2.3061  1.9945
  987MOL0     H33222   6.579  10.138   7.572 -3.9328  2.1576 -0.3048
  987MOL0     H33223   6.496  10.231   7.813  0.1825 -3.9839  1.5382
  987MOL0     H33224   6.660  10.191   7.853  2.0673 -3.1112 -1.9782
  987MOL0     H33225   7.258   9.750   8.165 -1.1282  0.5707 -0.3135
  987MOL0     H33226   7.492   9.760   8.221 -1.8936 -1.3741  0.2801
  987MOL0     H33227   7.935   9.678   8.054  0.7968 -0.2669  1.0402
  987MOL0     H33228   8.165   9.643   8.140 -1.2529 -0.1327  1.0261
  987MOL0     H33229   9.620   9.771   9.194  0.9141 -1.1395  0.6660
  987MOL0     H33230   9.687   9.617   9.386 -0.3105  0.0511 -3.9542
  987MOL0     H33231   9.904   9.655   9.748  2.5030 -1.1078 -1.8520
  987MOL0     H33232  10.052   9.583   9.901  1.0049 -0.7849 -2.7957
  987MOL0     H33233  10.195   9.485  10.062 -1.3543 -0.0217  2.8117
  987MOL0     H33234  10.219   9.333   9.962 -1.1339 -2.0763 -0.0908
  987MOL0     H33235  10.256   9.206  10.108  1.4665  0.2719  0.1176
  987MOL0     H33236  10.172   9.278  10.241  1.1789 -1.2913 -0.2902
  987MOL0     H33237  10.335   9.481  10.235  3.1843  1.3487 -1.6449
  987MOL0     H33238  10.429   9.395  10.123 -1.3517  2.4135 -0.2586
  987MOL0     H33239  10.353   9.317  10.418 -2.1892  0.9846 -1.8740
  987MOL0     H33240  10.443   9.204  10.310 -1.9090 -0.6613 -2.9389
  987MOL0     H33241  10.745   9.503  10.378 -0.9583  1.0861  0.5717
  987MOL0     H33242   9.822   9.245  10.005 -1.5281  1.5097  1.5150
  987MOL0     H33243   9.612   9.251   9.766 -1.3054 -0.2480  0.3785
  987MOL0     H33244   9.579   9.227   9.934 -5.1354 -0.6957 -2.0716
  987MOL0     H33245   9.489   9.355   9.848 -2.5345 -1.6904 -1.5521
  988MOL0     O33246   2.417   6.309  10.770  0.1621 -0.7122  0.2155
  988MOL0     C33247   2.462   6.409  10.833 -0.3547 -0.5557 -0.1399
  988MOL0     O33248   2.450   6.425  10.971  1.0354  0.1001  0.1462
  988MOL0     C33249   2.366   6.337  11.028 -0.0164 -0.3327 -1.0944
  988MOL0     C33250   2.380   6.201  11.032 -1.1171  0.8610  1.1084
  988MOL0     C33251   2.297   6.121  11.106 -0.2171 -0.9175 -0.9440
  988MOL0     C33252   2.187   6.177  11.170  0.6988  0.0176 -0.3337
  988MOL0     O33253   2.087   6.103  11.241  0.0349 -0.4741  0.3396
  988MOL0     C33254   2.111   5.965  11.258 -0.4346 -0.3886  0.2527
  988MOL0     C33255   2.009   5.904  11.339 -0.1719  0.5775  0.0543
  988MOL0     C33256   2.038   5.945  11.485  0.2337  0.1304 -0.7275
  988MOL0     C33257   1.942   5.864  11.575  0.3207  0.2626 -0.0763
  988MOL0     C33258   1.962   5.872  11.723  0.4224 -0.1036  0.0791
  988MOL0     C33259   2.118   5.880  11.761  0.3830  1.6881  0.8498
  988MOL0     C33260   2.139   5.860  11.909 -0.0121  0.0716 -0.0121
  988MOL0     C33261   2.274   5.848  11.971  0.6793 -1.3628  0.0660
  988MOL0     N33262   2.337   5.979  12.001  1.3278 -0.5463 -0.1891
  988MOL0     C33263   2.312   6.061  12.108  0.5685  0.4742  0.3233
  988MOL0     C33264   2.396   6.165  12.086  0.2690 -0.4944  0.1049
  988MOL0     C33265   2.430   6.275  12.182  0.7537  0.3665 -0.2177
  988MOL0     C33266   2.324   6.378  12.231  0.1690 -0.2631 -0.7666
  988MOL0     C33267   2.406   6.484  12.318  0.1085 -0.6846  0.1776
  988MOL0     C33268   2.339   6.616  12.284  0.3689 -0.5274 -0.1669
  988MOL0     O33269   2.412   6.723  12.360  0.0742  0.8493  0.0553
  988MOL0     C33270   2.456   6.833  12.295 -0.9687 -0.9552  0.0378
  988MOL0     C33271   2.584   6.893  12.308  0.4512  0.8733  0.0698
  988MOL0     C33272   2.616   7.006  12.235 -0.6558 -0.3355 -0.1390
  988MOL0     C33273   2.524   7.065  12.143 -0.0160 -0.3648  0.0234
  988MOL0     C33274   2.566   7.189  12.063  0.2684  0.2359  0.1808
  988MOL0     O33275   2.491   7.217  11.946 -0.0600 -0.0122  0.0993
  988MOL0     C33276   2.512   7.336  11.873  0.8478  0.2768  1.4542
  988MOL0     C33277   2.462   7.326  11.743 -0.1895  0.1709  0.0947
  988MOL0     C33278   2.459   7.442  11.663  0.4090  0.4507  0.4191
  988MOL0     C33279   2.500   7.567  11.712 -0.1925  0.5094 -0.2437
  988MOL0     O33280   2.474   7.689  11.647  1.2226  0.5283  0.3840
  988MOL0     C33281   2.583   7.766  11.608  0.1706  0.8787 -0.4877
  988MOL0     C33282   2.553   7.841  11.477 -0.1503  0.3798 -0.1658
  988MOL0     C33283   2.421   7.914  11.476 -0.0421  0.0214 -0.1146
  988MOL0     C33284   2.379   7.939  11.326 -0.7691  0.2236  0.9783
  988MOL0     C33285   2.285   8.060  11.321  0.8643 -0.5905  0.2265
  988MOL0     C33286   2.255   8.088  11.167 -0.1378 -0.4124  0.6770
  988MOL0     C33287   2.186   8.224  11.143 -1.3832  1.4479 -0.4297
  988MOL0     C33288   2.281   8.340  11.164 -0.8974  0.6689  0.8110
  988MOL0    Cl33289   2.427   8.335  11.050 -0.2920  0.6242  0.5434
  988MOL0     C33290   2.549   7.569  11.844 -0.1752 -0.6703  0.0555
  988MOL0     C33291   2.559   7.453  11.927 -0.3759  0.5590 -1.0026
  988MOL0     O33292   2.663   7.249  12.106  0.3215 -0.8190 -0.1931
  988MOL0     C33293   2.393   7.020  12.147 -0.5569 -1.3197 -0.8842
  988MOL0     C33294   2.366   6.915  12.232  0.0024 -0.2257  0.5837
  988MOL0     N33295   2.469   6.145  11.969 -0.6980 -0.1258  0.7791
  988MOL0     N33296   2.435   6.027  11.917 -0.5541 -0.4576  0.3330
  988MOL0     C33297   2.161   6.317  11.159  0.1239  0.0454  0.4747
  988MOL0     C33298   2.254   6.395  11.092 -0.8120  0.5290 -0.4550
  988MOL0     C33299   2.535   6.513  10.751  0.2494  0.4221 -0.0980
  988MOL0     C33300   2.545   6.643  10.798 -0.2155  0.0688  0.7340
  988MOL0     C33301   2.619   6.742  10.738  1.0891  0.2240  0.0615
  988MOL0     C33302   2.681   6.714  10.617 -0.7990 -0.1883  0.0169
  988MOL0     O33303   2.743   6.807  10.542 -0.1351 -0.1072 -0.7078
  988MOL0     C33304   2.725   6.944  10.583 -0.5467 -0.4277  0.1281
  988MOL0     C33305   2.724   7.025  10.446  0.0100 -0.7463 -0.4776
  988MOL0     C33306   2.625   6.966  10.343 -0.7168 -1.4805  0.2639
  988MOL0     C33307   2.474   6.992  10.368 -0.7186 -0.5439 -0.5022
  988MOL0     C33308   2.400   6.947  10.251  0.1935  0.6277  0.4749
  988MOL0     C33309   2.329   6.915  10.157 -0.1910  0.5756  0.4967
  988MOL0     C33310   2.665   6.596  10.555 -0.4585 -0.3910 -1.6211
  988MOL0     C33311   2.602   6.492  10.625  0.3725  0.0205 -0.0311
  988MOL0     C33312   2.618   6.360  10.546  0.5945  0.3613 -0.6308
  988MOL0     H33313   2.459   6.149  10.979 -1.1953  1.9368 -0.1097
  988MOL0     H33314   2.321   6.015  11.102  0.8783 -0.8694  1.8377
  988MOL0     H33315   2.098   5.918  11.160  1.0489  1.3683 -0.8536
  988MOL0     H33316   2.213   5.946  11.293  0.0572  0.7441 -0.5007
  988MOL0     H33317   2.014   5.796  11.322 -1.6257  0.4982  0.0536
  988MOL0     H33318   1.917   5.951  11.304  1.4296  2.8600 -1.3505
  988MOL0     H33319   2.019   6.052  11.489  1.6867  0.4060 -0.8537
  988MOL0     H33320   2.139   5.911  11.511 -1.6957 -3.8226  2.9534
  988MOL0     H33321   1.839   5.876  11.540 -0.4101 -3.1949  0.4670
  988MOL0     H33322   1.953   5.756  11.559  2.4401  0.6166 -1.4451
  988MOL0     H33323   1.913   5.969  11.733 -0.1153 -0.3849  0.1888
  988MOL0     H33324   1.907   5.793  11.775  1.5194  0.4657  2.2287
  988MOL0     H33325   2.168   5.795  11.714 -1.7420  0.2556  1.0574
  988MOL0     H33326   2.160   5.977  11.731 -0.3457  1.4474 -1.0555
  988MOL0     H33327   2.091   5.766  11.937 -0.5453  0.7769  1.4817
  988MOL0     H33328   2.084   5.938  11.961 -1.9257  0.2094 -2.0957
  988MOL0     H33329   2.265   5.810  12.073  1.8222 -1.6322  0.0862
  988MOL0     H33330   2.336   5.773  11.920 -1.6564 -1.3980 -3.0442
  988MOL0     H33331   2.251   6.050  12.197 -3.9284  4.2617 -1.8518
  988MOL0     H33332   2.479   6.224  12.266  1.1431 -0.9236 -1.1972
  988MOL0     H33333   2.515   6.330  12.139  1.9336 -1.6247 -0.5305
  988MOL0     H33334   2.282   6.428  12.143  0.9256  0.7468 -0.5659
  988MOL0     H33335   2.242   6.326  12.282 -0.2554  1.0898 -0.0267
  988MOL0     H33336   2.513   6.487  12.298 -0.4551 -0.2851 -3.5724
  988MOL0     H33337   2.384   6.456  12.421 -3.0873  0.4462 -0.0781
  988MOL0     H33338   2.235   6.624  12.315  1.4938  3.1630  3.6223
  988MOL0     H33339   2.344   6.624  12.175 -1.2970 -1.6467 -0.3573
  988MOL0     H33340   2.660   6.851  12.373  3.3890  1.8000 -2.4930
  988MOL0     H33341   2.721   7.034  12.237  0.0226 -1.8518  6.3408
  988MOL0     H33342   2.435   7.230  11.701 -0.3198  0.9776 -1.7816
  988MOL0     H33343   2.415   7.429  11.565  2.2458 -2.2757 -0.1733
  988MOL0     H33344   2.626   7.831  11.684  1.1484 -0.5858  0.2544
  988MOL0     H33345   2.660   7.689  11.593 -0.6767 -0.2623  0.7566
  988MOL0     H33346   2.636   7.911  11.468  0.5675 -0.1711  1.7222
  988MOL0     H33347   2.573   7.768  11.397  0.0863 -3.3191  2.9697
  988MOL0     H33348   2.344   7.844  11.510  1.0304 -0.1948  2.0857
  988MOL0     H33349   2.410   8.009  11.530 -3.0071  0.0792 -0.6479
  988MOL0     H33350   2.337   7.849  11.279 -0.3748 -0.0216  1.0841
  988MOL0     H33351   2.465   7.960  11.262 -0.7424 -3.3420 -0.4177
  988MOL0     H33352   2.342   8.142  11.365  0.2269  0.4009 -0.7547
  988MOL0     H33353   2.188   8.055  11.372 -0.2697  3.8393 -1.1091
  988MOL0     H33354   2.348   8.076  11.111 -1.5591  0.0852 -1.9454
  988MOL0     H33355   2.197   8.004  11.127  4.0110 -3.4244  0.2781
  988MOL0     H33356   2.095   8.234  11.203 -0.8397  1.2828  0.4388
  988MOL0     H33357   2.155   8.239  11.039 -1.3237 -1.6945 -1.0050
  988MOL0     H33358   2.228   8.431  11.135  2.3193  1.7338 -2.6005
  988MOL0     H33359   2.323   8.347  11.265  0.9862 -3.6275  0.5183
  988MOL0     H33360   2.583   7.663  11.885  1.5479 -1.8240  1.4297
  988MOL0     H33361   2.590   7.466  12.030  0.5763 -2.6461 -0.7625
  988MOL0     H33362   2.310   7.070  12.098  2.4115  1.6911 -3.2954
  988MOL0     H33363   2.261   6.888  12.228  0.8887 -4.2008 -1.2083
  988MOL0     H33364   2.074   6.365  11.201  0.6670  0.4551  1.1416
  988MOL0     H33365   2.239   6.502  11.085 -0.8912  0.3912 -3.8425
  988MOL0     H33366   2.488   6.675  10.885  2.8241  0.7604  2.6265
  988MOL0     H33367   2.612   6.841  10.782 -0.1805  0.2990 -0.2960
  988MOL0     H33368   2.797   6.983  10.655 -0.2599  1.7874 -1.2716
  988MOL0     H33369   2.624   6.970  10.616  0.4685  5.7164 -0.4079
  988MOL0     H33370   2.823   7.037  10.400  0.0767 -0.6070 -0.2979
  988MOL0     H33371   2.695   7.129  10.461 -0.5712 -0.8321 -0.9772
  988MOL0     H33372   2.626   6.857  10.342 -4.5874 -1.8041 -3.5938
  988MOL0     H33373   2.652   7.012  10.247 -0.8290 -3.5695 -0.8296
  988MOL0     H33374   2.447   6.938  10.459  2.1477  1.4044  1.6972
  988MOL0     H33375   2.463   7.098  10.392 -0.8923 -1.3597  3.6214
  988MOL0     H33376   2.265   6.867  10.087 -0.7397 -2.5932  2.9359
  988MOL0     H33377   2.702   6.585  10.454  2.1853  0.4534 -0.8419
  988MOL0     H33378   2.714   6.356  10.493 -0.1608  0.3123 -2.0370
  988MOL0     H33379   2.624   6.278  10.617 -0.7308  1.7528  1.1850
  988MOL0     H33380   2.536   6.336  10.477 -0.0820 -1.7818  0.8207
  989MOL0     O33381   6.513   8.340   0.216  0.7507 -0.3334 -0.1316
  989MOL0     C33382   6.508   8.218   0.211 -0.9580  0.6698 -0.2385
  989MOL0     O33383   6.604   8.137   0.174 -0.2314 -0.0093  0.0285
  989MOL0     C33384   6.737   8.182   0.173  0.3835 -0.0730 -0.2683
  989MOL0     C33385   6.803   8.217   0.292 -0.1390 -0.1442 -0.1211
  989MOL0     C33386   6.943   8.245   0.275  0.3270 -0.3315  0.2786
  989MOL0     C33387   7.012   8.237   0.149 -0.4737  0.1265  0.6775
  989MOL0     O33388   7.138   8.289   0.160  0.1514 -0.1933 -0.3261
  989MOL0     C33389   7.205   8.317   0.043  0.5663  0.3459 -0.3854
  989MOL0     C33390   7.342   8.373   0.073 -0.9447 -1.6165  0.2103
  989MOL0     C33391   7.405   8.451  -0.045 -0.5397 -0.2423 -0.2259
  989MOL0     C33392   7.331   8.579  -0.071 -0.4830 -0.3614 -0.6045
  989MOL0     C33393   7.385   8.670  -0.192 -0.4860 -0.7732 -0.9522
  989MOL0     C33394   7.370   8.618  -0.335  0.0674  0.9148  0.6393
  989MOL0     C33395   7.409   8.725  -0.440  1.0130 -0.3479 -0.0612
  989MOL0     C33396   7.562   8.738  -0.466  0.9308 -1.0961 -0.5138
  989MOL0     N33397   7.628   8.631  -0.533 -0.2309  0.5240 -0.6364
  989MOL0     C33398   7.661   8.632  -0.665 -0.8078  0.2853 -0.6995
  989MOL0     C33399   7.735   8.522  -0.683 -0.9206 -0.3904 -0.5774
  989MOL0     C33400   7.792   8.473  -0.814 -0.3054 -0.8712  0.2605
  989MOL0     C33401   7.933   8.508  -0.836  0.3166 -0.4122 -0.7968
  989MOL0     C33402   7.967   8.472  -0.987 -0.2655 -0.9887 -0.3313
  989MOL0     C33403   8.119   8.463  -0.997  0.5594 -0.1171 -0.2882
  989MOL0     O33404   8.175   8.426  -1.125  0.0718 -0.3454  0.2653
  989MOL0     C33405   8.182   8.296  -1.166  0.1664 -0.4621  0.0749
  989MOL0     C33406   8.255   8.280  -1.286  0.2450 -0.5087 -0.6954
  989MOL0     C33407   8.257   8.154  -1.356  0.8178  0.7241  0.1838
  989MOL0     C33408   8.193   8.044  -1.298  0.5780  0.1108 -0.9987
  989MOL0     C33409   8.196   7.910  -1.372 -0.7206 -0.4342 -0.5334
  989MOL0     O33410   8.105   7.814  -1.323  0.1678 -0.0597  0.6820
  989MOL0     C33411   8.074   7.701  -1.394  0.5672 -0.1075  0.0869
  989MOL0     C33412   8.174   7.609  -1.443  0.9789 -1.3376  0.2478
  989MOL0     C33413   8.143   7.499  -1.519 -0.3378 -0.0882  0.5481
  989MOL0     C33414   8.019   7.474  -1.568 -0.0608  0.3000 -0.1139
  989MOL0     O33415   8.001   7.355  -1.645 -0.6642 -0.1160 -0.4215
  989MOL0     C33416   7.866   7.311  -1.662 -0.1805 -0.0155 -0.5732
  989MOL0     C33417   7.869   7.168  -1.716  0.4525  0.0416  0.2385
  989MOL0     C33418   7.946   7.066  -1.626  0.2111 -0.5525 -0.3103
  989MOL0     C33419   7.857   7.012  -1.508  0.2406 -0.1864  0.1712
  989MOL0     C33420   7.917   7.036  -1.365  0.3276 -0.1820  0.0100
  989MOL0     C33421   7.917   7.185  -1.316 -0.5398 -0.3874  0.1658
  989MOL0     C33422   7.951   7.178  -1.172  0.2023  0.2808 -0.6406
  989MOL0     C33423   8.029   7.308  -1.132  0.6108 -0.4634 -0.4720
  989MOL0    Cl33424   7.931   7.454  -1.157  0.0871  0.2247  0.1724
  989MOL0     C33425   7.909   7.553  -1.519 -0.7850 -0.2968 -0.1804
  989MOL0     C33426   7.938   7.666  -1.431 -0.2678  0.5242 -0.8099
  989MOL0     O33427   8.264   7.909  -1.477  0.5513 -0.3488  0.5137
  989MOL0     C33428   8.124   8.056  -1.178 -0.6098 -0.2364 -0.7140
  989MOL0     C33429   8.116   8.183  -1.118 -0.1581 -0.1975  1.7785
  989MOL0     N33430   7.758   8.465  -0.558  0.1349  0.1653 -0.1532
  989MOL0     N33431   7.692   8.524  -0.471  0.7773  0.3665 -1.0286
  989MOL0     C33432   6.941   8.192   0.029  0.2248  0.8489 -0.0550
  989MOL0     C33433   6.807   8.157   0.053  0.6520 -0.1533  0.5655
  989MOL0     C33434   6.376   8.150   0.239  1.0563 -1.1288 -1.7123
  989MOL0     C33435   6.292   8.209   0.346 -0.4761 -0.2427  0.1382
  989MOL0     C33436   6.167   8.154   0.368  0.2686 -0.7601  0.3484
  989MOL0     C33437   6.111   8.056   0.290  0.0249 -0.1300  0.4350
  989MOL0     O33438   5.975   8.030   0.318 -0.8224  0.1786  0.4554
  989MOL0     C33439   5.901   7.984   0.207 -0.1895 -0.2539  0.4801
  989MOL0     C33440   5.784   8.059   0.207  0.2402 -1.0759 -0.0767
  989MOL0     C33441   5.668   7.989   0.124  0.2289 -0.0700  0.0349
  989MOL0     C33442   5.572   8.102   0.087  0.7704  0.4645 -0.6144
  989MOL0     C33443   5.505   8.070  -0.037  0.2058 -0.0555  0.3164
  989MOL0     C33444   5.438   8.039  -0.138  0.4819  0.4059 -0.8750
  989MOL0     C33445   6.191   8.001   0.193  0.4765 -1.1483  0.1658
  989MOL0     C33446   6.318   8.041   0.165  0.4593 -0.1879  0.4637
  989MOL0     C33447   6.381   7.973   0.046 -0.8481  0.2479 -0.8443
  989MOL0     H33448   6.743   8.226   0.382  1.8957  1.9492  1.1371
  989MOL0     H33449   7.004   8.274   0.360  0.1793 -1.0309  0.6364
  989MOL0     H33450   7.217   8.242  -0.036 -2.7885  1.7502 -2.4536
  989MOL0     H33451   7.145   8.398  -0.000 -0.9723 -1.3908 -1.6777
  989MOL0     H33452   7.415   8.294   0.091 -0.1013 -0.9224 -0.1314
  989MOL0     H33453   7.335   8.430   0.166  0.9651 -2.6356  1.0326
  989MOL0     H33454   7.406   8.394  -0.138  0.0116  2.2961 -1.8683
  989MOL0     H33455   7.508   8.474  -0.015 -0.2286 -0.5561 -1.0330
  989MOL0     H33456   7.225   8.560  -0.084 -1.2736  0.0274  3.6463
  989MOL0     H33457   7.340   8.631   0.025 -0.6865 -0.7053 -0.3993
  989MOL0     H33458   7.330   8.765  -0.186 -1.1388 -1.1914 -0.0894
  989MOL0     H33459   7.491   8.693  -0.184 -0.5329  0.6864 -3.4326
  989MOL0     H33460   7.433   8.529  -0.345  1.3453  1.9899 -1.9221
  989MOL0     H33461   7.267   8.588  -0.352 -0.5649  1.7889  2.6881
  989MOL0     H33462   7.387   8.821  -0.393  4.2345  0.2095  0.5116
  989MOL0     H33463   7.367   8.712  -0.540 -0.5733  2.8373  0.0692
  989MOL0     H33464   7.584   8.831  -0.519  0.3075 -0.0872  0.9343
  989MOL0     H33465   7.602   8.763  -0.367 -1.0793  0.3762 -0.0038
  989MOL0     H33466   7.623   8.698  -0.742 -0.0267 -2.0675 -3.2640
  989MOL0     H33467   7.799   8.364  -0.821  2.1489 -0.8480  1.3092
  989MOL0     H33468   7.733   8.515  -0.896  2.6543  0.2102 -1.4529
  989MOL0     H33469   7.959   8.613  -0.820 -2.9914  0.4611 -0.4583
  989MOL0     H33470   7.985   8.439  -0.768  0.7053  1.8438  1.3505
  989MOL0     H33471   7.924   8.548  -1.053 -3.0192 -1.1491  1.1145
  989MOL0     H33472   7.916   8.377  -1.008 -2.5957  0.2162 -0.4704
  989MOL0     H33473   8.171   8.403  -0.922  4.7160  1.9460 -1.1918
  989MOL0     H33474   8.163   8.562  -0.978 -0.7162  0.7246 -1.5392
  989MOL0     H33475   8.317   8.359  -1.327  2.4249  0.3927  3.7572
  989MOL0     H33476   8.298   8.133  -1.454  1.4968 -1.1179  0.8275
  989MOL0     H33477   8.280   7.635  -1.441  0.2051  2.2994  0.6452
  989MOL0     H33478   8.218   7.437  -1.568  0.6443  1.9132 -0.6325
  989MOL0     H33479   7.822   7.293  -1.564 -1.9296 -3.2439 -1.7981
  989MOL0     H33480   7.810   7.386  -1.718  0.1555  1.3318  0.8304
  989MOL0     H33481   7.762   7.150  -1.730  1.0821 -2.7963 -1.9179
  989MOL0     H33482   7.921   7.170  -1.812  1.6927 -1.3147  0.8415
  989MOL0     H33483   7.986   6.979  -1.677  3.0329 -0.0765  0.8843
  989MOL0     H33484   8.042   7.108  -1.596 -0.2501  0.8151 -0.6338
  989MOL0     H33485   7.855   6.905  -1.527  2.5044  0.1923 -2.9894
  989MOL0     H33486   7.754   7.050  -1.517  0.9173  2.5062  2.3621
  989MOL0     H33487   8.018   6.994  -1.356  0.6212  0.6635  0.8051
  989MOL0     H33488   7.863   6.980  -1.288 -0.6396 -0.7980 -1.0878
  989MOL0     H33489   7.974   7.258  -1.374  0.2592  1.1746  2.7508
  989MOL0     H33490   7.811   7.213  -1.321 -0.6344 -0.9126 -2.0081
  989MOL0     H33491   8.019   7.094  -1.153 -0.8764 -1.0093 -2.1920
  989MOL0     H33492   7.866   7.162  -1.106 -0.4421 -2.1270 -1.9546
  989MOL0     H33493   8.063   7.316  -1.028  2.9315  1.5379 -1.2657
  989MOL0     H33494   8.118   7.307  -1.197  1.0527 -0.9009  0.1329
  989MOL0     H33495   7.806   7.522  -1.530 -1.0701  0.7344 -0.4684
  989MOL0     H33496   7.854   7.718  -1.386  0.0742  0.2869  0.1273
  989MOL0     H33497   8.062   7.976  -1.140 -1.0235 -0.2175 -1.3502
  989MOL0     H33498   8.053   8.195  -1.030 -2.6970 -0.0835  0.0431
  989MOL0     H33499   6.980   8.185  -0.073 -3.2323  0.8964 -1.5181
  989MOL0     H33500   6.748   8.117  -0.029  3.1474  0.3339 -1.5794
  989MOL0     H33501   6.341   8.289   0.400  1.0740 -0.7449 -0.4658
  989MOL0     H33502   6.113   8.194   0.452 -2.4960 -1.9288 -0.7511
  989MOL0     H33503   5.878   7.878   0.219 -3.0256  0.4779  2.8061
  989MOL0     H33504   5.937   8.010   0.107 -2.5821 -0.0670 -0.3858
  989MOL0     H33505   5.808   8.152   0.154  0.3366 -1.4711 -0.7447
  989MOL0     H33506   5.763   8.082   0.312  0.2248  0.5860 -0.4082
  989MOL0     H33507   5.625   7.909   0.186 -0.6194  0.1211 -0.2945
  989MOL0     H33508   5.707   7.935   0.037  1.2091  2.2446 -1.0439
  989MOL0     H33509   5.499   8.129   0.164  2.1658  0.8811  0.6108
  989MOL0     H33510   5.633   8.190   0.064  0.6595  1.4094  2.2430
  989MOL0     H33511   5.388   8.007  -0.227  1.5300 -2.2308 -0.6171
  989MOL0     H33512   6.146   7.942   0.113 -1.1059  2.6414 -2.0064
  989MOL0     H33513   6.447   7.889   0.070 -1.4115 -0.3950 -1.4893
  989MOL0     H33514   6.311   7.929  -0.025 -1.0741  1.6226 -1.5105
  989MOL0     H33515   6.441   8.042  -0.013 -4.7099  5.4673  0.6057
  990MOL0     O33516   9.831   5.420   7.097  0.3386  0.3219  0.6553
  990MOL0     C33517   9.786   5.409   6.983 -0.5623  0.3603  0.1744
  990MOL0     O33518   9.858   5.440   6.874  0.1894  0.4022  0.0784
  990MOL0     C33519   9.983   5.480   6.862 -0.4317 -0.1066  0.2352
  990MOL0     C33520  10.054   5.550   6.962  0.7118  0.5809 -0.4775
  990MOL0     C33521  10.181   5.613   6.934  0.1721  0.2278 -0.3106
  990MOL0     C33522  10.249   5.587   6.809  0.0010  0.1288 -0.3154
  990MOL0     O33523  10.381   5.632   6.780  0.4406  0.4066 -0.3516
  990MOL0     C33524  10.379   5.774   6.747 -0.7798 -1.6030  1.0711
  990MOL0     C33525  10.502   5.793   6.660 -0.0794  0.9281 -0.2464
  990MOL0     C33526  10.490   5.722   6.522  0.7035  0.0261 -0.0499
  990MOL0     C33527  10.385   5.775   6.430  0.3383 -0.2166  0.2744
  990MOL0     C33528  10.398   5.710   6.291  0.1442  0.6361  0.0561
  990MOL0     C33529  10.295   5.770   6.206 -0.1841 -1.3616 -1.4097
  990MOL0     C33530  10.286   5.696   6.075  0.6215  0.1041  0.3037
  990MOL0     C33531  10.152   5.754   6.018 -0.3107  0.6592  0.2801
  990MOL0     N33532  10.128   5.702   5.880 -0.8565  0.5126 -0.3327
  990MOL0     C33533  10.092   5.566   5.854  0.1284  0.4560  0.4287
  990MOL0     C33534  10.095   5.553   5.722 -1.0865  0.9706  1.6722
  990MOL0     C33535  10.090   5.433   5.643  0.4831  0.8469 -0.3648
  990MOL0     C33536   9.948   5.366   5.646  0.8630 -0.0134  0.0514
  990MOL0     C33537   9.849   5.455   5.553  0.1071 -0.9092 -0.0977
  990MOL0     C33538   9.699   5.447   5.591  0.6316  0.4271 -0.3768
  990MOL0     O33539   9.661   5.501   5.718  0.5316  0.8041 -1.1279
  990MOL0     C33540   9.533   5.546   5.751 -0.2429  0.3533  1.1673
  990MOL0     C33541   9.414   5.511   5.683 -0.6859  0.4305  0.4394
  990MOL0     C33542   9.288   5.564   5.722 -0.4267 -0.8696  0.0584
  990MOL0     C33543   9.280   5.649   5.832  1.5365 -1.2678 -0.3969
  990MOL0     C33544   9.155   5.714   5.875  0.4612 -0.1582 -0.7787
  990MOL0     O33545   9.064   5.733   5.783  0.5779  0.0653  0.7478
  990MOL0     C33546   8.952   5.804   5.813 -0.2447  1.3121  0.2226
  990MOL0     C33547   8.826   5.739   5.835  0.2730 -0.3635  0.4049
  990MOL0     C33548   8.713   5.816   5.877 -0.1062  0.3219  0.3916
  990MOL0     C33549   8.723   5.954   5.868 -0.3877  0.0552  0.1626
  990MOL0     O33550   8.611   6.030   5.894  1.5207  0.6520  0.5602
  990MOL0     C33551   8.620   6.114   6.010  0.8698 -1.0641  0.3431
  990MOL0     C33552   8.508   6.210   6.043  0.4245  0.1468  0.6013
  990MOL0     C33553   8.547   6.289   6.169 -0.0777  1.2030  0.8063
  990MOL0     C33554   8.425   6.380   6.212  0.1483 -0.5988  0.3979
  990MOL0     C33555   8.475   6.473   6.324  0.3594  0.6344  0.1514
  990MOL0     C33556   8.515   6.404   6.453 -0.4126 -0.1120  0.2330
  990MOL0     C33557   8.527   6.493   6.578  0.3735 -0.5733 -1.0286
  990MOL0     C33558   8.619   6.432   6.691 -1.7581 -0.0855  0.6473
  990MOL0    Cl33559   8.526   6.311   6.754  0.3591 -0.1146 -0.3390
  990MOL0     C33560   8.843   6.016   5.842  0.8935  0.8947 -0.9163
  990MOL0     C33561   8.962   5.941   5.824  0.1147 -0.3082 -1.1720
  990MOL0     O33562   9.138   5.729   5.996 -0.3650 -0.3168  0.5714
  990MOL0     C33563   9.399   5.660   5.909  1.0057  0.1531  0.5353
  990MOL0     C33564   9.522   5.620   5.866  0.0284  0.4653 -1.1360
  990MOL0     N33565  10.128   5.678   5.661  0.6948 -0.5229  0.0638
  990MOL0     N33566  10.155   5.764   5.759 -0.1944 -0.1067  0.1718
  990MOL0     C33567  10.179   5.513   6.707  0.1122 -1.1685 -0.5132
  990MOL0     C33568  10.048   5.457   6.739 -0.0653 -0.8765 -0.5335
  990MOL0     C33569   9.657   5.344   6.957 -0.3231 -0.0862  0.3784
  990MOL0     C33570   9.615   5.258   7.059  0.4983  0.0046 -0.4440
  990MOL0     C33571   9.490   5.196   7.050  0.0650 -0.1177 -0.1436
  990MOL0     C33572   9.412   5.197   6.940  0.4285 -0.6813  0.0249
  990MOL0     O33573   9.314   5.106   6.919 -0.4084  0.2529  0.8433
  990MOL0     C33574   9.202   5.118   7.003  0.2031  0.0980  0.4443
  990MOL0     C33575   9.091   5.023   6.948  0.3568  0.4440  0.3911
  990MOL0     C33576   8.981   5.018   7.055  0.4422  0.1011  0.5314
  990MOL0     C33577   8.865   4.945   7.005  0.9444  0.8375 -0.2951
  990MOL0     C33578   8.761   5.027   6.943 -0.0379  0.1486 -0.6620
  990MOL0     C33579   8.672   5.067   6.862 -0.1088  0.6556  0.5455
  990MOL0     C33580   9.444   5.288   6.844 -0.7965  0.3241  0.4204
  990MOL0     C33581   9.570   5.364   6.845 -0.2483  0.2595  0.4923
  990MOL0     C33582   9.599   5.452   6.726 -0.5702 -0.7622  0.2887
  990MOL0     H33583  10.014   5.563   7.062  3.1997  0.7136  0.5833
  990MOL0     H33584  10.235   5.672   7.007  1.0394  0.2925 -0.9964
  990MOL0     H33585  10.293   5.802   6.685  1.3190 -1.3687 -1.9075
  990MOL0     H33586  10.391   5.845   6.829  4.0209  0.6468 -1.1905
  990MOL0     H33587  10.585   5.737   6.704 -0.5284  0.4440 -0.0035
  990MOL0     H33588  10.531   5.896   6.640  1.4026  0.8011  1.0169
  990MOL0     H33589  10.459   5.618   6.533  1.3585 -0.2930 -1.0307
  990MOL0     H33590  10.584   5.736   6.467  0.6635  4.4718  0.5813
  990MOL0     H33591  10.288   5.747   6.472 -0.5500 -1.5306 -2.4251
  990MOL0     H33592  10.392   5.883   6.411  0.0902 -0.5304 -1.8614
  990MOL0     H33593  10.493   5.736   6.242  0.2300  2.1722  0.9822
  990MOL0     H33594  10.392   5.602   6.309  0.4296  0.4405 -0.9774
  990MOL0     H33595  10.198   5.768   6.256  0.5841 -1.7578  0.1007
  990MOL0     H33596  10.309   5.878   6.196  0.2999 -1.3411 -0.5951
  990MOL0     H33597  10.258   5.592   6.090  0.2393  0.0639 -0.6304
  990MOL0     H33598  10.368   5.717   6.006  0.0731  0.2287 -0.3220
  990MOL0     H33599  10.059   5.732   6.071 -1.2352 -0.5871 -1.7172
  990MOL0     H33600  10.175   5.857   5.992  2.6688 -0.5233 -2.3854
  990MOL0     H33601  10.070   5.486   5.923 -1.4513  2.9542  3.0642
  990MOL0     H33602  10.113   5.459   5.539  1.6999 -0.8658 -0.5464
  990MOL0     H33603  10.173   5.372   5.677  0.6601  0.3237 -1.6583
  990MOL0     H33604   9.946   5.262   5.610 -2.7861  0.0420 -0.2045
  990MOL0     H33605   9.910   5.366   5.748 -1.5458  1.5711 -0.7529
  990MOL0     H33606   9.862   5.447   5.445 -2.0884  3.1689 -0.8533
  990MOL0     H33607   9.867   5.559   5.580  1.4836 -1.0326 -0.4748
  990MOL0     H33608   9.673   5.341   5.590  2.3855 -0.0359 -0.3953
  990MOL0     H33609   9.637   5.497   5.516 -1.0217 -0.4786  0.3469
  990MOL0     H33610   9.416   5.432   5.609 -3.4256 -0.2071  0.9169
  990MOL0     H33611   9.203   5.540   5.658  1.1896 -0.3103 -2.4173
  990MOL0     H33612   8.812   5.633   5.816 -0.0948 -0.3301  0.4843
  990MOL0     H33613   8.623   5.757   5.889  1.5916 -2.3329  0.8616
  990MOL0     H33614   8.619   6.045   6.096  0.4764 -0.3811  0.8979
  990MOL0     H33615   8.717   6.162   5.996  1.8991 -3.7424 -3.1655
  990MOL0     H33616   8.500   6.275   5.956  0.7072  1.7268  1.7085
  990MOL0     H33617   8.413   6.159   6.063  0.1057  1.3823  2.4406
  990MOL0     H33618   8.571   6.235   6.261 -0.7404  1.4198  1.1100
  990MOL0     H33619   8.627   6.354   6.132 -1.5736  2.7679  0.1926
  990MOL0     H33620   8.344   6.318   6.250 -0.3957  0.4035  0.9011
  990MOL0     H33621   8.383   6.424   6.121  0.3493 -1.3114 -0.0474
  990MOL0     H33622   8.391   6.536   6.353  0.3170  0.4564  0.4246
  990MOL0     H33623   8.561   6.533   6.289 -0.4259  0.2841 -2.5967
  990MOL0     H33624   8.443   6.325   6.479 -0.4420 -0.9335 -2.1066
  990MOL0     H33625   8.612   6.356   6.435 -1.1199 -0.4882 -3.2545
  990MOL0     H33626   8.422   6.497   6.609  0.5056  4.1357 -0.5209
  990MOL0     H33627   8.554   6.597   6.562 -0.2379 -0.3757 -0.8106
  990MOL0     H33628   8.715   6.388   6.660 -0.4818  2.3925  0.8142
  990MOL0     H33629   8.640   6.509   6.766 -0.8517  0.8519 -0.5156
  990MOL0     H33630   8.856   6.124   5.846 -1.4440  1.2537 -1.3834
  990MOL0     H33631   9.062   5.982   5.815  2.0834 -3.5859  2.5613
  990MOL0     H33632   9.384   5.714   6.001 -0.8024  1.5663 -0.5071
  990MOL0     H33633   9.601   5.648   5.935 -0.8705 -2.5923  1.3808
  990MOL0     H33634  10.232   5.514   6.613  1.1141  3.2462 -0.1313
  990MOL0     H33635   9.989   5.400   6.668 -2.7957  0.0483  0.8717
  990MOL0     H33636   9.659   5.251   7.158 -2.9428  1.0919  1.3598
  990MOL0     H33637   9.485   5.127   7.135  0.8999 -0.8669 -0.6798
  990MOL0     H33638   9.149   5.214   6.998  0.6137  0.3044 -0.1351
  990MOL0     H33639   9.229   5.109   7.108 -0.2596 -4.9654  0.3593
  990MOL0     H33640   9.117   4.920   6.922 -2.3397  0.1104 -1.4457
  990MOL0     H33641   9.051   5.071   6.858 -1.9460 -5.8129 -2.5090
  990MOL0     H33642   8.956   5.120   7.086  3.4335  0.7588  1.1084
  990MOL0     H33643   9.024   4.962   7.138 -1.3278 -0.8787  0.8495
  990MOL0     H33644   8.888   4.860   6.941 -1.4394 -0.5079  0.4948
  990MOL0     H33645   8.819   4.904   7.096  2.1609  0.9845  0.4194
  990MOL0     H33646   8.589   5.089   6.799  0.5345  0.5967 -0.3446
  990MOL0     H33647   9.390   5.298   6.750  0.1829 -0.0988 -0.2123
  990MOL0     H33648   9.688   5.426   6.667 -0.8403 -1.5813  0.2332
  990MOL0     H33649   9.510   5.451   6.662 -1.5472 -0.3296  1.6093
  990MOL0     H33650   9.621   5.548   6.773  1.3984  0.2287 -2.3320
  991MOL0     O33651   6.389   8.943   9.251  0.3074  0.0842 -0.9976
  991MOL0     C33652   6.298   8.865   9.278 -0.3411 -0.3870  0.5570
  991MOL0     O33653   6.270   8.756   9.202  0.4684  0.3823 -0.2739
  991MOL0     C33654   6.334   8.742   9.081  0.6634  0.1902 -0.0791
  991MOL0     C33655   6.474   8.742   9.076 -0.7360 -0.3821 -1.0109
  991MOL0     C33656   6.533   8.729   8.955  0.1221  0.3662  0.7497
  991MOL0     C33657   6.459   8.693   8.845  0.0001  0.2246  0.2473
  991MOL0     O33658   6.526   8.655   8.729  0.5251  0.4258  0.0944
  991MOL0     C33659   6.672   8.630   8.728  0.0756 -0.2856 -0.4973
  991MOL0     C33660   6.755   8.758   8.691 -0.0535  0.1228  0.9414
  991MOL0     C33661   6.905   8.711   8.680  0.8283  0.6137  0.8366
  991MOL0     C33662   7.008   8.820   8.681  0.6739  0.1884  0.5625
  991MOL0     C33663   7.149   8.775   8.730  0.4313  0.1626  0.0862
  991MOL0     C33664   7.239   8.884   8.781  0.1203 -0.6708 -0.2779
  991MOL0     C33665   7.340   8.842   8.879  0.3722 -0.3502  0.3826
  991MOL0     C33666   7.483   8.812   8.814  0.4768 -0.3909 -0.5298
  991MOL0     N33667   7.565   8.927   8.791 -0.0543  0.6161 -0.8891
  991MOL0     C33668   7.601   9.007   8.899  0.1824  0.0144 -0.9557
  991MOL0     C33669   7.664   9.115   8.840  0.2463  0.3037 -0.2765
  991MOL0     C33670   7.730   9.237   8.900  0.2626  0.0788 -0.0782
  991MOL0     C33671   7.870   9.211   8.963 -0.4594 -0.3429  0.3476
  991MOL0     C33672   7.892   9.349   9.042  0.6889  1.0461 -0.8452
  991MOL0     C33673   7.901   9.472   8.945 -0.8273 -0.0281  0.5144
  991MOL0     O33674   7.976   9.582   9.001  0.9289  0.5614  0.0326
  991MOL0     C33675   7.987   9.690   8.919  0.0902 -0.0749  0.2404
  991MOL0     C33676   8.011   9.691   8.783 -0.1283 -0.1738 -0.3343
  991MOL0     C33677   8.022   9.805   8.710  0.6683 -0.0663  0.8033
  991MOL0     C33678   8.002   9.930   8.768 -0.0576  1.2824 -0.4058
  991MOL0     C33679   8.025  10.051   8.697  0.0704  0.4254  0.8599
  991MOL0     O33680   7.979  10.161   8.762  0.7747 -0.1521 -0.3836
  991MOL0     C33681   7.984  10.287   8.708 -0.4736  0.3864  0.1569
  991MOL0     C33682   8.066  10.374   8.776 -0.4491  0.2106 -0.8434
  991MOL0     C33683   8.098  10.502   8.721 -0.2854 -1.0634 -0.3717
  991MOL0     C33684   8.030  10.546   8.613  0.4131  0.5369  0.6132
  991MOL0     O33685   8.051  10.683   8.594  0.3174  0.3593  0.1077
  991MOL0     C33686   8.002  10.748   8.472  1.0033 -0.3839 -0.5228
  991MOL0     C33687   8.082  10.873   8.465  0.1662  0.0546 -0.3721
  991MOL0     C33688   8.226  10.870   8.419 -0.2426  0.6397 -0.2019
  991MOL0     C33689   8.298  10.998   8.441 -0.2907  0.1314  0.6234
  991MOL0     C33690   8.439  11.006   8.375 -0.0935  0.4097 -0.3068
  991MOL0     C33691   8.519  11.130   8.405  0.3503 -0.1754 -0.4273
  991MOL0     C33692   8.651  11.136   8.338 -0.4737  0.4800  0.9868
  991MOL0     C33693   8.709  11.261   8.400  0.2861 -0.1073  0.4991
  991MOL0    Cl33694   8.873  11.308   8.330  0.3797  0.0784  0.2786
  991MOL0     C33695   7.938  10.461   8.548 -0.6119  0.6965  0.1081
  991MOL0     C33696   7.926  10.328   8.592 -0.1645  0.6987 -0.3293
  991MOL0     O33697   8.085  10.054   8.588 -0.4917 -0.2027 -0.9060
  991MOL0     C33698   7.973   9.933   8.904  1.0492  0.2754  0.1111
  991MOL0     C33699   7.961   9.814   8.973  0.2105 -0.4495  0.5120
  991MOL0     N33700   7.661   9.096   8.702  0.1817 -0.0745  1.1696
  991MOL0     N33701   7.592   8.990   8.676 -0.1296 -0.2472 -1.1508
  991MOL0     C33702   6.319   8.714   8.845 -0.5962 -0.0750  0.7780
  991MOL0     C33703   6.252   8.727   8.961  0.0038  0.0713 -0.0115
  991MOL0     C33704   6.245   8.869   9.415  0.4763  0.6552  0.5912
  991MOL0     C33705   6.205   8.748   9.478 -0.8697 -0.2712  0.3274
  991MOL0     C33706   6.149   8.751   9.601 -0.6366 -0.7540  0.0224
  991MOL0     C33707   6.132   8.871   9.672  0.1011  1.0520 -0.3127
  991MOL0     O33708   6.065   8.872   9.801 -0.4835 -0.7780  0.1289
  991MOL0     C33709   6.048   8.988   9.889  0.4391  0.5179 -0.2099
  991MOL0     C33710   5.973   8.932  10.017 -0.3023  0.4400  0.4533
  991MOL0     C33711   5.818   8.934   9.997 -1.1881  0.3468  0.5972
  991MOL0     C33712   5.728   8.915  10.116 -0.2709  0.6071  0.3796
  991MOL0     C33713   5.743   9.003  10.230 -0.8582 -0.3546 -0.1428
  991MOL0     C33714   5.750   9.080  10.326  0.0213 -0.5863  0.2338
  991MOL0     C33715   6.173   8.982   9.607 -1.0314  0.7258 -0.7217
  991MOL0     C33716   6.217   8.987   9.481  0.0695 -0.2626  0.4344
  991MOL0     C33717   6.233   9.119   9.407 -0.2286  0.8403  0.0373
  991MOL0     H33718   6.540   8.760   9.160  0.5240  1.4319 -2.2967
  991MOL0     H33719   6.641   8.739   8.957  0.0006  2.2174 -0.1858
  991MOL0     H33720   6.706   8.586   8.822 -1.9772  2.4094  1.6684
  991MOL0     H33721   6.685   8.552   8.653 -1.2190 -1.0433  0.0198
  991MOL0     H33722   6.734   8.835   8.766 -1.9468  2.5317 -1.8447
  991MOL0     H33723   6.707   8.799   8.602  0.7193 -0.4572  0.2514
  991MOL0     H33724   6.928   8.647   8.594  0.4159 -0.1627  1.2926
  991MOL0     H33725   6.908   8.643   8.765 -4.0219  1.5968  2.1012
  991MOL0     H33726   7.032   8.854   8.580  0.5354  0.8161  0.7383
  991MOL0     H33727   6.967   8.906   8.735 -0.2155  0.3170 -0.3044
  991MOL0     H33728   7.142   8.719   8.824  0.6916 -2.6224 -1.4412
  991MOL0     H33729   7.213   8.719   8.661 -1.6351  1.5675 -3.1931
  991MOL0     H33730   7.286   8.935   8.697  0.1078  0.2605  0.2667
  991MOL0     H33731   7.181   8.952   8.844  2.3613 -1.0335  2.3653
  991MOL0     H33732   7.300   8.768   8.949  1.0716 -1.5315 -0.4288
  991MOL0     H33733   7.356   8.933   8.938  1.2105 -0.6593  0.6486
  991MOL0     H33734   7.540   8.739   8.873 -0.7084 -3.5268 -2.9281
  991MOL0     H33735   7.474   8.754   8.722 -2.6868  0.9428 -1.1723
  991MOL0     H33736   7.579   9.006   9.005  0.2555  5.5510 -0.6016
  991MOL0     H33737   7.739   9.310   8.819  1.8245 -0.0874 -0.0795
  991MOL0     H33738   7.654   9.276   8.968  2.4198  2.2047  1.2521
  991MOL0     H33739   7.856   9.123   9.026  1.7279 -0.8082  0.2434
  991MOL0     H33740   7.948   9.211   8.886 -1.7679  0.1819 -1.0322
  991MOL0     H33741   7.976   9.320   9.107 -0.2600  0.1893  0.0397
  991MOL0     H33742   7.803   9.365   9.104  0.5224  1.1542 -1.1134
  991MOL0     H33743   7.798   9.496   8.919 -0.9083  0.5839  1.3784
  991MOL0     H33744   7.958   9.427   8.863 -2.0116 -1.0259  0.2090
  991MOL0     H33745   8.033   9.593   8.742 -0.3461  0.5468 -2.2965
  991MOL0     H33746   8.018   9.811   8.602 -1.7093  3.0021  0.8960
  991MOL0     H33747   8.114  10.344   8.869 -0.5270 -2.9986 -1.6903
  991MOL0     H33748   8.160  10.562   8.787 -4.4090  0.1715  2.8076
  991MOL0     H33749   8.011  10.679   8.388  2.5177 -2.1250  0.9584
  991MOL0     H33750   7.894  10.766   8.477  1.0200  1.2846 -3.6935
  991MOL0     H33751   8.036  10.945   8.396 -1.1718  0.2455  0.6920
  991MOL0     H33752   8.074  10.911   8.567 -0.4708 -2.2476  0.4967
  991MOL0     H33753   8.282  10.806   8.487 -0.5248  0.2565 -0.3228
  991MOL0     H33754   8.242  10.832   8.318  4.1348  1.1051  0.1175
  991MOL0     H33755   8.321  11.009   8.547  0.9147 -0.2097  0.4112
  991MOL0     H33756   8.224  11.075   8.417 -1.4227 -0.6436  1.5715
  991MOL0     H33757   8.424  11.004   8.266 -1.8961  1.2098 -0.1164
  991MOL0     H33758   8.495  10.916   8.400 -1.0494  0.9254  4.5743
  991MOL0     H33759   8.457  11.219   8.393 -0.0709 -0.3898  0.0864
  991MOL0     H33760   8.540  11.137   8.512  0.5535  1.0637 -0.5330
  991MOL0     H33761   8.655  11.148   8.229 -1.8925  0.4949  0.9275
  991MOL0     H33762   8.721  11.054   8.356  1.8969  2.0357 -0.4990
  991MOL0     H33763   8.645  11.349   8.388  2.0122  0.8738 -2.8444
  991MOL0     H33764   8.721  11.247   8.508 -0.3102  1.3585  0.7805
  991MOL0     H33765   7.886  10.488   8.457  0.0671  0.2102 -0.4260
  991MOL0     H33766   7.867  10.252   8.542  0.6214 -0.7395  0.8648
  991MOL0     H33767   7.962  10.030   8.952  3.2866  1.2529 -1.1721
  991MOL0     H33768   7.926   9.806   9.076 -0.2185 -0.0020  0.4076
  991MOL0     H33769   6.253   8.705   8.759 -1.6019  1.3519  1.3734
  991MOL0     H33770   6.146   8.731   8.985  0.3011 -1.4320  1.7847
  991MOL0     H33771   6.218   8.654   9.425 -0.7186 -0.9370  1.4936
  991MOL0     H33772   6.108   8.665   9.654 -0.6178 -1.3917 -0.9598
  991MOL0     H33773   5.995   9.075   9.848  1.7274  0.3071 -2.5446
  991MOL0     H33774   6.148   9.030   9.907 -0.4411  1.9383  1.7884
  991MOL0     H33775   5.999   8.999  10.099 -0.8019  2.7594 -1.1925
  991MOL0     H33776   6.017   8.835  10.043 -0.0312  0.9998  2.1854
  991MOL0     H33777   5.807   8.860   9.917  2.1351  2.4595 -2.1043
  991MOL0     H33778   5.793   9.028   9.946 -0.4431 -1.1465 -2.8098
  991MOL0     H33779   5.620   8.924  10.099 -0.5553  0.6227  2.0267
  991MOL0     H33780   5.735   8.810  10.146 -4.3027 -0.8413 -2.8072
  991MOL0     H33781   5.749   9.163  10.393  3.5887  0.2943 -0.6142
  991MOL0     H33782   6.154   9.073   9.664  1.6016  0.0435  1.4397
  991MOL0     H33783   6.335   9.146   9.379  0.0278 -1.1502 -1.1103
  991MOL0     H33784   6.179   9.123   9.312  1.3465  2.0152 -0.8510
  991MOL0     H33785   6.185   9.190   9.475 -0.0028 -0.3807  1.5275
  992MOL0     O33786   1.453   7.050   9.417  0.7309  0.1102 -0.1570
  992MOL0     C33787   1.525   6.956   9.453 -0.6696 -0.4694 -0.0780
  992MOL0     O33788   1.539   6.915   9.580 -0.0249  0.5121 -0.5938
  992MOL0     C33789   1.448   6.974   9.667 -0.6052 -0.7999  0.0927
  992MOL0     C33790   1.507   7.056   9.762  1.4244 -0.3544  0.4410
  992MOL0     C33791   1.431   7.118   9.858  0.8912  0.2289 -1.1234
  992MOL0     C33792   1.285   7.102   9.855 -0.8787 -0.4098 -0.3712
  992MOL0     O33793   1.191   7.172   9.929 -0.3402  0.6065 -0.1484
  992MOL0     C33794   1.241   7.275  10.002  0.3442 -0.4150 -0.6589
  992MOL0     C33795   1.232   7.408   9.923  0.2446  1.0844 -0.3612
  992MOL0     C33796   1.236   7.525  10.014 -0.8625  0.7733 -0.9509
  992MOL0     C33797   1.098   7.545  10.081  0.0847  1.0742 -0.2091
  992MOL0     C33798   0.979   7.571   9.975  0.2491  0.2708  0.5320
  992MOL0     C33799   1.000   7.696   9.879 -0.0589 -0.6669  0.1955
  992MOL0     C33800   0.871   7.732   9.817  0.5166  1.2989  0.0704
  992MOL0     C33801   0.863   7.855   9.729  1.0110  0.7599 -0.6552
  992MOL0     N33802   0.955   7.847   9.613 -0.0057  0.3782 -0.1994
  992MOL0     C33803   1.084   7.895   9.606  0.3629 -0.0204 -0.0790
  992MOL0     C33804   1.116   7.877   9.478  0.6577 -0.0795  1.0582
  992MOL0     C33805   1.245   7.888   9.406  0.1943  0.0221  0.3010
  992MOL0     C33806   1.263   8.030   9.374  0.4124 -0.0908  0.3254
  992MOL0     C33807   1.406   8.064   9.314  0.2039 -0.1819 -1.3413
  992MOL0     C33808   1.518   8.091   9.417 -0.5881  0.6978 -0.1551
  992MOL0     O33809   1.645   8.099   9.342  0.6793  0.5878  0.4516
  992MOL0     C33810   1.750   8.145   9.415 -0.4516  0.8710 -0.9654
  992MOL0     C33811   1.852   8.056   9.435 -0.8728 -0.0353 -0.6817
  992MOL0     C33812   1.973   8.098   9.489  0.6248  0.2392 -0.5216
  992MOL0     C33813   1.993   8.226   9.538 -0.4300 -0.0301 -0.4009
  992MOL0     C33814   2.133   8.258   9.583  0.2386 -0.3696  0.6378
  992MOL0     O33815   2.157   8.397   9.612  0.0528 -0.1609  0.8360
  992MOL0     C33816   2.273   8.443   9.663  0.7716 -0.8176  0.3177
  992MOL0     C33817   2.325   8.402   9.791  0.3254 -0.3427  0.1933
  992MOL0     C33818   2.439   8.459   9.830  0.1090 -0.8685 -0.3872
  992MOL0     C33819   2.512   8.547   9.744 -0.6028  0.0896  0.5412
  992MOL0     O33820   2.619   8.625   9.792 -0.2084  0.0903 -0.3479
  992MOL0     C33821   2.733   8.541   9.833 -0.6155  0.1057  0.4924
  992MOL0     C33822   2.852   8.626   9.865 -0.3169  0.3880 -0.1449
  992MOL0     C33823   2.988   8.562   9.885 -0.7541  0.0860 -0.4218
  992MOL0     C33824   3.054   8.524   9.750 -0.2565 -0.3326  0.6893
  992MOL0     C33825   3.192   8.466   9.763 -0.8751 -0.2488 -0.2582
  992MOL0     C33826   3.281   8.461   9.639 -0.2053  0.3990  0.2534
  992MOL0     C33827   3.340   8.594   9.605 -0.1781  0.9028  0.0082
  992MOL0     C33828   3.428   8.574   9.480 -0.4378 -0.3110 -0.0233
  992MOL0    Cl33829   3.345   8.600   9.317  0.0571  0.0858  0.0003
  992MOL0     C33830   2.465   8.587   9.615 -0.1959  0.4120  0.3504
  992MOL0     C33831   2.339   8.536   9.583  0.1695 -0.3418 -0.4840
  992MOL0     O33832   2.222   8.175   9.574 -0.2275  0.5073  0.0017
  992MOL0     C33833   1.882   8.316   9.525 -1.1594 -0.2076  0.1728
  992MOL0     C33834   1.765   8.279   9.463  1.1213  0.1334  0.5542
  992MOL0     N33835   1.004   7.820   9.415  0.0699 -0.2201 -0.0116
  992MOL0     N33836   0.902   7.812   9.496  0.1458  0.3742 -0.3064
  992MOL0     C33837   1.229   7.012   9.766  0.1123  0.0171  1.2702
  992MOL0     C33838   1.313   6.945   9.670 -0.1435 -0.1146 -0.9031
  992MOL0     C33839   1.618   6.910   9.351 -0.0085  0.6894  0.1253
  992MOL0     C33840   1.695   7.008   9.287  0.1669 -0.5159  0.7497
  992MOL0     C33841   1.782   6.969   9.186 -0.3476  0.3819 -0.0431
  992MOL0     C33842   1.811   6.834   9.156  0.0534 -1.1484 -0.2336
  992MOL0     O33843   1.895   6.790   9.061 -0.4992  1.4911  0.3143
  992MOL0     C33844   2.031   6.843   9.076 -0.4708 -0.1815 -0.0526
  992MOL0     C33845   2.080   6.861   8.932  0.7921 -0.0619 -0.0222
  992MOL0     C33846   2.019   6.994   8.879  0.1460 -0.9321  0.1559
  992MOL0     C33847   2.058   7.013   8.731  0.3515  0.6716 -0.5938
  992MOL0     C33848   1.978   7.115   8.665  1.0050  0.8355 -0.2069
  992MOL0     C33849   1.909   7.201   8.617  0.4596 -0.6276 -0.2639
  992MOL0     C33850   1.736   6.738   9.227  0.6987 -0.4927  0.0364
  992MOL0     C33851   1.633   6.774   9.319 -0.3352  0.3669 -0.0270
  992MOL0     C33852   1.533   6.672   9.357  0.1401  0.0848 -0.3987
  992MOL0     H33853   1.615   7.069   9.767  1.1133  2.4666  1.6712
  992MOL0     H33854   1.481   7.166   9.941 -0.4425 -2.9054  1.7160
  992MOL0     H33855   1.169   7.262  10.083  1.0096 -0.9105 -0.1362
  992MOL0     H33856   1.341   7.260  10.043  0.3255  1.8295  0.3652
  992MOL0     H33857   1.141   7.419   9.864  1.6876  2.5311 -2.4488
  992MOL0     H33858   1.312   7.408   9.848  1.2729 -4.2989  0.2865
  992MOL0     H33859   1.268   7.615   9.959  1.2810  0.5055 -0.2326
  992MOL0     H33860   1.316   7.511  10.087 -0.5076  2.8347 -0.8841
  992MOL0     H33861   1.065   7.462  10.143 -0.2982  2.0748  0.9815
  992MOL0     H33862   1.110   7.623  10.157  2.8812  1.4749 -0.9265
  992MOL0     H33863   0.949   7.489   9.910  1.7442 -0.6854  1.0077
  992MOL0     H33864   0.891   7.605  10.031 -2.4613 -0.8188 -2.7860
  992MOL0     H33865   1.027   7.781   9.943 -2.7824 -0.7477  1.5823
  992MOL0     H33866   1.085   7.684   9.811  0.8180 -2.9419  1.5891
  992MOL0     H33867   0.799   7.746   9.899  2.0570 -1.4532  2.0347
  992MOL0     H33868   0.836   7.647   9.758  0.8495  0.8405  0.5206
  992MOL0     H33869   0.760   7.859   9.691 -0.7378 -1.4575  3.2283
  992MOL0     H33870   0.880   7.949   9.782  0.4040 -1.3206  3.6490
  992MOL0     H33871   1.149   7.927   9.686  0.7202 -0.2225 -0.2828
  992MOL0     H33872   1.335   7.849   9.456 -0.1835  2.1841  2.9318
  992MOL0     H33873   1.229   7.829   9.315  3.3706  1.7603 -1.5411
  992MOL0     H33874   1.188   8.068   9.303  2.1045 -2.1636 -2.8089
  992MOL0     H33875   1.259   8.089   9.465 -0.2241 -0.2600  0.4116
  992MOL0     H33876   1.396   8.157   9.256 -2.5139  0.5885  0.1954
  992MOL0     H33877   1.447   7.993   9.242  0.8451 -1.9530  0.6805
  992MOL0     H33878   1.525   8.001   9.479  3.7827 -1.0625 -2.6777
  992MOL0     H33879   1.503   8.179   9.480  0.0611  0.0088  0.9887
  992MOL0     H33880   1.842   7.951   9.410  0.0630 -0.0151 -1.1881
  992MOL0     H33881   2.049   8.021   9.498 -0.4347 -0.7939 -0.2367
  992MOL0     H33882   2.275   8.332   9.857  1.3880 -1.3918 -0.0724
  992MOL0     H33883   2.489   8.443   9.925  1.5777 -1.0858 -1.1565
  992MOL0     H33884   2.709   8.471   9.913 -0.1736 -0.2666  0.3008
  992MOL0     H33885   2.768   8.486   9.745 -0.9022  1.7069 -0.6815
  992MOL0     H33886   2.859   8.690   9.777 -4.2891  1.3103 -0.0033
  992MOL0     H33887   2.832   8.692   9.951  0.2430 -2.1321  2.0433
  992MOL0     H33888   3.050   8.626   9.949  0.9020 -1.5430 -0.3225
  992MOL0     H33889   2.978   8.470   9.944 -1.2138  1.2841  1.4651
  992MOL0     H33890   3.042   8.616   9.692 -0.5632  0.4275  1.9309
  992MOL0     H33891   2.995   8.452   9.692  1.3537 -0.7119 -0.5710
  992MOL0     H33892   3.184   8.359   9.786  3.0116 -0.6949 -0.3818
  992MOL0     H33893   3.249   8.508   9.846  1.1207  0.3456 -1.8426
  992MOL0     H33894   3.359   8.387   9.657  1.2805  2.1115  1.2826
  992MOL0     H33895   3.223   8.419   9.557 -0.4499 -1.1910  1.1995
  992MOL0     H33896   3.399   8.618   9.694  0.7067 -3.0048  0.6465
  992MOL0     H33897   3.273   8.680   9.589 -1.5169 -0.2951 -1.1618
  992MOL0     H33898   3.512   8.641   9.497  1.3069 -2.4329  0.1686
  992MOL0     H33899   3.480   8.478   9.479 -3.4365 -2.3121  4.3005
  992MOL0     H33900   2.525   8.663   9.565 -1.0776  2.3878  2.0997
  992MOL0     H33901   2.279   8.571   9.500  1.6602  0.1519 -1.3948
  992MOL0     H33902   1.897   8.415   9.567 -1.5873  0.0740 -0.3401
  992MOL0     H33903   1.686   8.353   9.458  0.1583 -0.6973  2.3048
  992MOL0     H33904   1.122   6.995   9.768  0.0279  0.5720  1.7570
  992MOL0     H33905   1.275   6.880   9.592 -0.4128 -0.1125 -0.7766
  992MOL0     H33906   1.684   7.116   9.297  1.8346  0.0123 -1.8561
  992MOL0     H33907   1.830   7.050   9.132  0.0496  0.8240  0.9626
  992MOL0     H33908   2.095   6.775   9.133 -2.6969 -1.4915  0.9918
  992MOL0     H33909   2.050   6.939   9.125  1.2481 -0.0341 -0.9042
  992MOL0     H33910   2.038   6.784   8.866  3.4162 -0.5254 -1.2933
  992MOL0     H33911   2.189   6.854   8.927  0.8865  0.5835  0.9901
  992MOL0     H33912   2.047   7.088   8.928  0.8496 -1.8517  1.5791
  992MOL0     H33913   1.912   6.984   8.902  0.3093 -1.0293  0.8849
  992MOL0     H33914   2.159   7.054   8.731  0.3173  1.1499  3.6676
  992MOL0     H33915   2.051   6.928   8.662 -1.7369  1.1049 -0.9877
  992MOL0     H33916   1.849   7.285   8.590  0.3783 -0.1179  1.4127
  992MOL0     H33917   1.747   6.641   9.180  2.6567  0.1632 -0.9457
  992MOL0     H33918   1.452   6.671   9.284  0.5299  0.0619 -0.8360
  992MOL0     H33919   1.578   6.572   9.369 -0.3739 -0.4824 -2.7474
  992MOL0     H33920   1.500   6.689   9.460 -0.7863 -3.2761 -0.0126
  993MOL0     O33921  11.084  10.052   5.112 -0.1001  0.0935  0.0462
  993MOL0     C33922  11.002  10.006   5.036  0.5412  0.2769 -0.8932
  993MOL0     O33923  11.032   9.946   4.916 -0.4198 -1.0354 -0.8653
  993MOL0     C33924  11.153   9.958   4.851 -0.2095 -0.1876 -1.3946
  993MOL0     C33925  11.202   9.851   4.776 -0.2597 -0.0902 -0.2936
  993MOL0     C33926  11.313   9.866   4.685 -0.3611 -0.9192 -0.3984
  993MOL0     C33927  11.377   9.991   4.684 -0.0910  0.8352  0.0674
  993MOL0     O33928  11.468  10.031   4.595  0.4613  0.0722 -0.0427
  993MOL0     C33929  11.528   9.934   4.504 -0.8451  0.0397  0.2203
  993MOL0     C33930  11.620   9.855   4.585  0.2022  0.4943 -0.1050
  993MOL0     C33931  11.659   9.733   4.495  0.3165 -0.1487  0.4549
  993MOL0     C33932  11.790   9.661   4.526  0.7689  0.5234  0.3434
  993MOL0     C33933  11.788   9.556   4.648  0.2303 -0.0105  0.6471
  993MOL0     C33934  11.941   9.534   4.666  0.2637  0.4036 -0.5414
  993MOL0     C33935  11.976   9.440   4.786  0.5415  0.1033  0.0252
  993MOL0     C33936  11.942   9.288   4.742  0.3825  0.1876  0.1191
  993MOL0     N33937  11.986   9.200   4.850  0.1288  0.1547 -0.1194
  993MOL0     C33938  11.911   9.151   4.948  0.0266  0.3398  0.3554
  993MOL0     C33939  11.993   9.077   5.030  0.4161 -0.7162  0.1811
  993MOL0     C33940  11.964   9.006   5.155 -1.4407 -0.1704  1.2965
  993MOL0     C33941  11.826   8.963   5.155 -1.2747  0.3302 -0.6591
  993MOL0     C33942  11.820   8.833   5.246  0.6420  0.5817  0.3120
  993MOL0     C33943  11.680   8.792   5.267 -0.0570  0.6414  0.5496
  993MOL0     O33944  11.594   8.883   5.349 -0.6913  0.0270 -0.5359
  993MOL0     C33945  11.621   8.882   5.488  0.1629 -0.3880 -0.0365
  993MOL0     C33946  11.540   8.958   5.571 -0.3540  0.4855  1.1252
  993MOL0     C33947  11.543   8.964   5.714 -1.5892  1.1299 -0.0368
  993MOL0     C33948  11.630   8.873   5.784 -0.4838 -0.7143 -0.3132
  993MOL0     C33949  11.634   8.857   5.922  0.2276 -0.7955 -0.4647
  993MOL0     O33950  11.725   8.786   5.983 -0.8036 -0.2938 -0.1291
  993MOL0     C33951  11.742   8.783   6.122 -0.3155  0.3656  0.5830
  993MOL0     C33952  11.746   8.899   6.189  0.0693 -0.1286 -1.1892
  993MOL0     C33953  11.749   8.904   6.333  0.4484 -0.1149  0.7942
  993MOL0     C33954  11.737   8.783   6.392 -0.2294  0.3041  0.2310
  993MOL0     O33955  11.725   8.785   6.529  0.3171 -0.3441  0.4596
  993MOL0     C33956  11.706   8.662   6.593  0.3816 -0.5327 -0.6936
  993MOL0     C33957  11.707   8.697   6.740  0.7052  0.6104  0.6822
  993MOL0     C33958  11.666   8.575   6.819  1.0867  0.1573  0.4109
  993MOL0     C33959  11.648   8.606   6.977 -0.9674 -0.2707 -1.0111
  993MOL0     C33960  11.519   8.704   6.991  0.4909 -0.3194  0.5535
  993MOL0     C33961  11.465   8.689   7.129  0.0802  0.0472  0.0458
  993MOL0     C33962  11.376   8.559   7.144 -0.6440  0.5027  0.9614
  993MOL0     C33963  11.345   8.539   7.291 -0.0886  1.0111 -1.0919
  993MOL0    Cl33964  11.266   8.382   7.329 -0.3726 -0.1688  0.2025
  993MOL0     C33965  11.733   8.658   6.327  0.2475 -0.5638  0.9099
  993MOL0     C33966  11.717   8.659   6.188  1.1850 -0.0855  0.4504
  993MOL0     O33967  11.548   8.917   5.979  0.0387  0.4857 -0.1770
  993MOL0     C33968  11.730   8.807   5.706 -0.1131  0.1555  0.0823
  993MOL0     C33969  11.725   8.817   5.562 -0.2539  0.8737 -0.0670
  993MOL0     N33970  12.112   9.092   4.979 -0.2317 -0.6098  0.3208
  993MOL0     N33971  12.112   9.156   4.870  0.5908 -0.5090  0.3311
  993MOL0     C33972  11.339  10.083   4.783  0.5512 -0.5287  0.2007
  993MOL0     C33973  11.229  10.066   4.862  0.4068 -0.1111 -0.1732
  993MOL0     C33974  10.857  10.000   5.090 -0.8953  0.5165  0.3213
  993MOL0     C33975  10.776   9.938   5.003  0.7763 -0.0647 -0.3740
  993MOL0     C33976  10.643   9.944   5.030  0.0382 -1.1680  0.0801
  993MOL0     C33977  10.588  10.003   5.148 -0.7421 -0.7493  0.1429
  993MOL0     O33978  10.447  10.005   5.148  0.4459  0.2321 -0.1157
  993MOL0     C33979  10.364  10.006   5.269  0.5658 -0.5695 -0.5342
  993MOL0     C33980  10.280  10.142   5.252 -0.4544 -0.5014  0.1240
  993MOL0     C33981  10.184  10.149   5.134 -0.6487 -0.7156  0.1010
  993MOL0     C33982  10.039  10.191   5.158 -0.6192 -0.2710  0.2783
  993MOL0     C33983  10.030  10.310   5.247  0.2735 -0.9110  0.2625
  993MOL0     C33984  10.040  10.409   5.311 -0.0743 -0.6093 -0.4252
  993MOL0     C33985  10.673  10.052   5.240 -0.4126 -0.3220 -0.0578
  993MOL0     C33986  10.811  10.068   5.209  0.5969  0.0477 -0.1994
  993MOL0     C33987  10.901  10.154   5.297  0.5019  0.0344 -0.0881
  993MOL0     H33988  11.148   9.757   4.783  0.4488 -0.5321 -0.6578
  993MOL0     H33989  11.346   9.789   4.616  2.0557  0.0153 -0.3804
  993MOL0     H33990  11.448   9.881   4.452 -1.6578  0.7688  0.6993
  993MOL0     H33991  11.588   9.984   4.427 -2.4151 -0.7404 -1.5806
  993MOL0     H33992  11.585   9.825   4.684  0.4110 -0.9176 -0.4333
  993MOL0     H33993  11.714   9.908   4.605 -0.1931  0.9744  0.4982
  993MOL0     H33994  11.655   9.766   4.391  0.9102  1.2186  0.8413
  993MOL0     H33995  11.593   9.646   4.504  1.4542 -1.5097 -2.9102
  993MOL0     H33996  11.815   9.602   4.437 -0.6052  0.6967 -0.1902
  993MOL0     H33997  11.872   9.732   4.541  2.2876 -1.1878  0.4308
  993MOL0     H33998  11.747   9.604   4.737  2.1329  0.4888  1.3060
  993MOL0     H33999  11.737   9.461   4.631 -4.7634  1.9670  2.5937
  993MOL0     H34000  11.986   9.483   4.581 -1.2760  1.8413 -2.3028
  993MOL0     H34001  11.991   9.631   4.680  0.3974  0.3324 -0.5215
  993MOL0     H34002  11.928   9.469   4.880  0.7806 -0.6330  0.3812
  993MOL0     H34003  12.083   9.444   4.809  0.4512  2.3956  0.3718
  993MOL0     H34004  11.836   9.279   4.716  0.5699  1.1494 -1.0965
  993MOL0     H34005  11.994   9.258   4.650  1.2910 -0.6779  0.8842
  993MOL0     H34006  11.805   9.173   4.960 -0.4009 -1.7626  0.8759
  993MOL0     H34007  12.031   8.924   5.180  0.4718  0.7452 -0.5194
  993MOL0     H34008  11.989   9.064   5.244 -0.8019 -0.3292  1.2201
  993MOL0     H34009  11.764   9.037   5.207 -0.4919  1.1939 -0.9393
  993MOL0     H34010  11.794   8.935   5.054  0.6788  1.4210 -1.6305
  993MOL0     H34011  11.856   8.849   5.348 -1.3580 -0.2818  1.2157
  993MOL0     H34012  11.855   8.743   5.195 -4.1289  0.1002 -2.8287
  993MOL0     H34013  11.701   8.707   5.333 -0.1028  1.0815  1.1402
  993MOL0     H34014  11.627   8.753   5.180  1.0525  1.8550 -0.7255
  993MOL0     H34015  11.461   9.020   5.531 -0.8696 -0.8662 -0.0163
  993MOL0     H34016  11.475   9.018   5.777 -3.0964 -0.1282 -0.5131
  993MOL0     H34017  11.763   8.995   6.141 -3.0299  1.6428  0.8808
  993MOL0     H34018  11.768   8.990   6.397  1.4704 -1.6409  2.6442
  993MOL0     H34019  11.609   8.620   6.566  0.2498 -1.1217  0.6184
  993MOL0     H34020  11.782   8.591   6.559  2.1512 -0.5162  2.7999
  993MOL0     H34021  11.804   8.735   6.776  1.4745 -1.6192  1.0979
  993MOL0     H34022  11.633   8.777   6.746  0.0647  0.1526 -0.6713
  993MOL0     H34023  11.582   8.518   6.778  0.2559  1.1561  0.7116
  993MOL0     H34024  11.748   8.502   6.819 -0.4150 -1.6442  1.3341
  993MOL0     H34025  11.740   8.656   7.010 -2.1458  0.2490  1.7385
  993MOL0     H34026  11.626   8.512   7.029  2.0442 -1.6644 -2.0076
  993MOL0     H34027  11.446   8.660   6.923 -1.1296 -0.3706  2.2559
  993MOL0     H34028  11.557   8.802   6.960 -0.4456  0.4096  1.6294
  993MOL0     H34029  11.547   8.688   7.201  0.4897 -4.3903 -0.2006
  993MOL0     H34030  11.402   8.773   7.159  1.7049  0.0466  4.1392
  993MOL0     H34031  11.437   8.473   7.117 -1.5200  0.5970 -1.6660
  993MOL0     H34032  11.285   8.569   7.084 -0.6005  1.4312  1.0403
  993MOL0     H34033  11.443   8.534   7.340 -0.2389 -1.7719 -0.8877
  993MOL0     H34034  11.305   8.626   7.342  1.1561  0.4317  0.9901
  993MOL0     H34035  11.716   8.561   6.373 -0.7770 -1.5090 -1.3136
  993MOL0     H34036  11.708   8.567   6.132  2.5085 -1.0967  1.8202
  993MOL0     H34037  11.805   8.745   5.754  0.1161 -0.9665 -1.6224
  993MOL0     H34038  11.814   8.770   5.522 -0.0999 -1.8219  2.9757
  993MOL0     H34039  11.387  10.181   4.785 -2.6261  1.1904 -1.0080
  993MOL0     H34040  11.197  10.146   4.927  0.2639  0.7485 -1.2883
  993MOL0     H34041  10.811   9.886   4.914  1.0495 -2.7814  1.2104
  993MOL0     H34042  10.574   9.900   4.958 -1.4830 -0.4439  1.0256
  993MOL0     H34043  10.422  10.006   5.362 -0.9057  0.2301  0.4113
  993MOL0     H34044  10.292   9.924   5.273 -1.0814  0.8717  0.4950
  993MOL0     H34045  10.359  10.219   5.248 -2.0292  1.1426 -2.9219
  993MOL0     H34046  10.219  10.140   5.343  1.1926 -2.5993  1.2644
  993MOL0     H34047  10.180  10.052   5.084 -1.1552  0.7098 -2.8428
  993MOL0     H34048  10.216  10.224   5.060  3.1693 -0.1401  2.0553
  993MOL0     H34049   9.980  10.207   5.068 -5.0602 -1.1776  2.7369
  993MOL0     H34050   9.992  10.107   5.210 -3.6392  2.1651  1.8185
  993MOL0     H34051  10.044  10.495   5.375  1.9821 -1.9150  1.3871
  993MOL0     H34052  10.625  10.094   5.327  0.6597  3.2268 -1.0126
  993MOL0     H34053  10.954  10.232   5.240  2.5042 -1.7295 -0.7939
  993MOL0     H34054  10.855  10.187   5.390  2.6367  2.1771  0.3345
  993MOL0     H34055  10.981  10.084   5.325 -1.9091 -2.2263  1.5798
  994MOL0     O34056   0.764  10.584   0.881  0.4829 -0.2855 -0.5600
  994MOL0     C34057   0.876  10.626   0.910 -0.8332  1.0704 -0.3003
  994MOL0     O34058   0.989  10.573   0.854 -0.2612  0.1165 -0.1312
  994MOL0     C34059   0.987  10.473   0.768  0.4678  0.4491  0.0735
  994MOL0     C34060   0.932  10.490   0.634  0.1797  0.6314  0.2393
  994MOL0     C34061   0.910  10.381   0.555  0.7930  0.2335 -0.7020
  994MOL0     C34062   0.942  10.258   0.608  0.0174 -0.0226  0.6771
  994MOL0     O34063   0.949  10.143   0.539  0.4531  0.6244  1.1184
  994MOL0     C34064   0.934  10.144   0.397 -0.1213 -0.5368 -0.0778
  994MOL0     C34065   1.058  10.213   0.326  0.1778  0.6762 -0.3323
  994MOL0     C34066   1.198  10.158   0.373  0.6694  0.0677  0.5916
  994MOL0     C34067   1.311  10.208   0.285 -0.5499  0.5177  0.4157
  994MOL0     C34068   1.453  10.179   0.354  0.0201 -0.1665 -0.0664
  994MOL0     C34069   1.569  10.249   0.276  0.3008  0.5693  0.1816
  994MOL0     C34070   1.563  10.408   0.283 -0.8642  0.4956  0.5918
  994MOL0     C34071   1.679  10.481   0.199 -0.1967 -0.1400  0.5472
  994MOL0     N34072   1.798  10.506   0.276  1.2370 -0.1880  0.7984
  994MOL0     C34073   1.820  10.630   0.335  0.2583 -0.3876 -0.4695
  994MOL0     C34074   1.954  10.629   0.362 -0.1324  0.0635 -0.0697
  994MOL0     C34075   2.028  10.748   0.404  0.5571 -0.8090  0.0009
  994MOL0     C34076   2.035  10.850   0.288 -0.0920 -0.0181  0.0062
  994MOL0     C34077   2.134  10.803   0.177  0.1060  0.2102 -0.2095
  994MOL0     C34078   2.112  10.873   0.029 -0.6274  0.3263  0.6837
  994MOL0     O34079   1.977  10.887  -0.009 -0.6438 -0.2324  0.0654
  994MOL0     C34080   1.903  10.782  -0.048 -0.2111 -0.3361  0.0430
  994MOL0     C34081   1.776  10.809  -0.077 -0.7332 -0.1587 -0.3890
  994MOL0     C34082   1.698  10.709  -0.128  0.2592  0.1448 -0.1086
  994MOL0     C34083   1.746  10.569  -0.152  0.1422  0.3467  0.9298
  994MOL0     C34084   1.651  10.462  -0.186 -1.1690 -0.0585  0.0711
  994MOL0     O34085   1.523  10.472  -0.148  0.2089 -0.0273 -0.3388
  994MOL0     C34086   1.435  10.383  -0.210  0.4595  0.4124  0.0169
  994MOL0     C34087   1.350  10.301  -0.132 -0.7448 -0.5617 -0.4404
  994MOL0     C34088   1.262  10.221  -0.191 -0.1196 -0.3634  0.1889
  994MOL0     C34089   1.249  10.216  -0.326  0.6000 -0.3648  0.0703
  994MOL0     O34090   1.174  10.119  -0.379  0.0630  0.7430 -0.1855
  994MOL0     C34091   1.212  10.045  -0.496  0.6964 -0.6878  0.0514
  994MOL0     C34092   1.336   9.967  -0.469 -0.6323 -0.0640  0.1256
  994MOL0     C34093   1.367   9.878  -0.585  0.3757  0.2351  1.1316
  994MOL0     C34094   1.500   9.804  -0.556  0.6386 -0.5367  0.1070
  994MOL0     C34095   1.519   9.684  -0.649 -0.0914 -0.1802 -0.2188
  994MOL0     C34096   1.670   9.649  -0.646  1.1233  0.3144  0.3315
  994MOL0     C34097   1.696   9.507  -0.705 -1.2169 -0.6498 -0.4909
  994MOL0     C34098   1.851   9.503  -0.734 -0.5015  0.1143 -0.7798
  994MOL0    Cl34099   1.890   9.586  -0.891 -0.1494 -0.1160 -0.5222
  994MOL0     C34100   1.317  10.308  -0.402 -0.0903  0.2518 -0.3999
  994MOL0     C34101   1.408  10.388  -0.344  0.2691 -0.9433  0.1203
  994MOL0     O34102   1.704  10.361  -0.240  0.2202 -0.6444 -0.7756
  994MOL0     C34103   1.874  10.552  -0.125 -0.0176  0.3120  0.3968
  994MOL0     C34104   1.955  10.658  -0.069 -0.0392  0.1905 -0.1733
  994MOL0     N34105   2.004  10.505   0.318  0.2650 -0.3400  0.4859
  994MOL0     N34106   1.909  10.437   0.269 -0.4326 -0.3938 -0.1044
  994MOL0     C34107   1.012  10.247   0.716  0.5507  0.1367 -0.3593
  994MOL0     C34108   1.025  10.345   0.806 -0.0458 -0.1954 -0.2021
  994MOL0     C34109   0.891  10.728   1.015 -0.0608 -0.4380  0.2503
  994MOL0     C34110   0.780  10.799   1.050 -0.1949 -0.6702 -0.8599
  994MOL0     C34111   0.783  10.907   1.127  0.3768  0.1069 -0.2913
  994MOL0     C34112   0.901  10.939   1.186 -1.1071  0.1090  0.7113
  994MOL0     O34113   0.912  11.053   1.268  0.3406 -0.6518  0.0869
  994MOL0     C34114   0.825  11.165   1.224 -0.0402  0.0142 -0.5214
  994MOL0     C34115   0.854  11.299   1.290 -0.2419  0.0813 -0.1727
  994MOL0     C34116   0.997  11.344   1.249  0.0539 -0.3774  0.1351
  994MOL0     C34117   1.041  11.476   1.307  0.7259 -0.2013  0.1434
  994MOL0     C34118   1.034  11.471   1.455  0.2255  0.1867  1.0791
  994MOL0     C34119   1.008  11.460   1.573  0.7752  0.3835  0.2140
  994MOL0     C34120   1.013  10.859   1.175  0.0078 -0.1055 -0.2388
  994MOL0     C34121   1.016  10.750   1.083 -0.0381  0.1358  0.0036
  994MOL0     C34122   1.135  10.659   1.086  0.9725 -0.9101 -0.7399
  994MOL0     H34123   0.893  10.580   0.589  0.5719  0.8410  0.3112
  994MOL0     H34124   0.877  10.401   0.453 -1.2830  0.9714  0.0690
  994MOL0     H34125   0.925  10.044   0.356 -2.6121 -2.4121  4.2532
  994MOL0     H34126   0.841  10.197   0.373  0.7118  0.1730 -1.8613
  994MOL0     H34127   1.060  10.319   0.353  3.4980  0.6645 -0.1489
  994MOL0     H34128   1.036  10.199   0.220 -1.0400  0.4963 -0.0630
  994MOL0     H34129   1.196  10.049   0.379 -1.1340  0.1296  4.8117
  994MOL0     H34130   1.222  10.186   0.476  1.9391  0.8699  0.1000
  994MOL0     H34131   1.305  10.145   0.196  1.6045  0.6905  0.0925
  994MOL0     H34132   1.294  10.311   0.252  1.6931  1.5827  2.2258
  994MOL0     H34133   1.443  10.230   0.450  1.1106  1.5433 -0.7980
  994MOL0     H34134   1.484  10.075   0.365 -3.3938 -1.2526  0.1842
  994MOL0     H34135   1.671  10.226   0.309 -0.1523 -2.7452 -0.4006
  994MOL0     H34136   1.567  10.220   0.171  2.4029 -0.0914  0.2817
  994MOL0     H34137   1.570  10.433   0.389  1.9953 -0.2315  0.6474
  994MOL0     H34138   1.465  10.436   0.243 -0.5284  0.9117  0.0502
  994MOL0     H34139   1.698  10.419   0.111  2.9684  1.2030  0.1750
  994MOL0     H34140   1.637  10.574   0.160 -2.6441 -2.1391 -1.9988
  994MOL0     H34141   1.763  10.720   0.353  0.0885 -0.0265 -2.6196
  994MOL0     H34142   1.981  10.798   0.490  4.3304  1.5579  0.9078
  994MOL0     H34143   2.131  10.725   0.433 -0.4706 -2.7314  2.5168
  994MOL0     H34144   1.932  10.858   0.252 -0.3620 -2.5065  0.0792
  994MOL0     H34145   2.077  10.941   0.334  3.7029 -3.1710  3.6571
  994MOL0     H34146   2.108  10.698   0.166  0.3435  0.2400 -1.0778
  994MOL0     H34147   2.238  10.803   0.212  0.9317  1.2800 -2.5218
  994MOL0     H34148   2.168  10.815  -0.045 -0.3023 -1.7113  2.4235
  994MOL0     H34149   2.151  10.975   0.032  0.2806  0.0196 -0.3351
  994MOL0     H34150   1.742  10.908  -0.046 -3.0807 -0.5996 -1.3524
  994MOL0     H34151   1.592  10.728  -0.136 -0.0519 -1.3299  0.0896
  994MOL0     H34152   1.374  10.283  -0.028  1.7949  0.6221 -0.7507
  994MOL0     H34153   1.201  10.161  -0.125  0.2134  1.5316  2.3269
  994MOL0     H34154   1.135   9.969  -0.516 -0.8801 -0.6199  4.6790
  994MOL0     H34155   1.213  10.115  -0.580 -2.4047 -0.2234  0.2673
  994MOL0     H34156   1.428  10.023  -0.451 -0.2759 -0.6670  0.2071
  994MOL0     H34157   1.316   9.901  -0.384  1.3927 -1.2729 -0.2723
  994MOL0     H34158   1.285   9.807  -0.600  3.4873 -3.4714  0.1030
  994MOL0     H34159   1.394   9.935  -0.675  2.6293 -2.0690  0.2250
  994MOL0     H34160   1.495   9.771  -0.452 -0.1714 -1.5786 -0.2489
  994MOL0     H34161   1.577   9.882  -0.561 -1.2332  1.3956  0.1215
  994MOL0     H34162   1.494   9.693  -0.755 -0.4633 -1.7089 -0.2893
  994MOL0     H34163   1.466   9.597  -0.607  1.4588 -0.7853  0.5607
  994MOL0     H34164   1.726   9.723  -0.705  2.5360 -2.2061 -1.7258
  994MOL0     H34165   1.708   9.660  -0.545 -0.3290 -2.6063  1.3187
  994MOL0     H34166   1.637   9.479  -0.793 -0.4293 -2.2268 -0.5462
  994MOL0     H34167   1.656   9.431  -0.638  2.1198 -2.5164 -0.4018
  994MOL0     H34168   1.906   9.551  -0.653 -0.6745  0.2981 -0.7697
  994MOL0     H34169   1.877   9.397  -0.745  0.0383  0.3708 -2.2223
  994MOL0     H34170   1.298  10.309  -0.509 -1.5493 -1.0177 -0.1897
  994MOL0     H34171   1.448  10.464  -0.410 -1.0147 -0.2070  0.1690
  994MOL0     H34172   1.917  10.454  -0.142  0.4464  0.8958 -2.1174
  994MOL0     H34173   2.057  10.624  -0.058 -1.3033 -4.2852 -0.4286
  994MOL0     H34174   1.055  10.152   0.747  3.7010  1.3170 -0.7791
  994MOL0     H34175   1.083  10.336   0.897  1.2697 -0.0430 -0.9972
  994MOL0     H34176   0.678  10.775   1.020 -2.0717  4.2706  0.4046
  994MOL0     H34177   0.686  10.949   1.153  0.5884  0.0268  0.6945
  994MOL0     H34178   0.721  11.149   1.253  0.1795  0.6742  0.6749
  994MOL0     H34179   0.840  11.177   1.116  3.9889 -0.9055 -0.1912
  994MOL0     H34180   0.849  11.284   1.399  0.6032 -0.7034 -0.2308
  994MOL0     H34181   0.785  11.370   1.244  1.5650 -0.2255 -3.7130
  994MOL0     H34182   1.005  11.337   1.140 -0.7281 -3.2412  0.1758
  994MOL0     H34183   1.065  11.263   1.278 -0.0918 -0.0459  1.4838
  994MOL0     H34184   1.141  11.513   1.285  1.0031  0.4959  2.2931
  994MOL0     H34185   0.962  11.549   1.287 -1.0096 -2.1582 -0.4988
  994MOL0     H34186   0.973  11.447   1.674  1.8133 -1.5147  0.3853
  994MOL0     H34187   1.101  10.874   1.237 -0.0305 -0.5827 -0.0642
  994MOL0     H34188   1.204  10.676   1.003  3.6115 -1.0211  1.2986
  994MOL0     H34189   1.178  10.669   1.186  2.5339 -1.2767 -1.3502
  994MOL0     H34190   1.102  10.557   1.068  0.4383 -0.6437 -1.2879
  995MOL0     O34191   8.559   3.241   9.207 -0.4244  0.1740  0.0941
  995MOL0     C34192   8.621   3.305   9.118 -0.5250 -0.2927  1.0493
  995MOL0     O34193   8.568   3.334   8.990 -0.6123 -0.4280  0.0412
  995MOL0     C34194   8.449   3.271   8.965 -0.0576 -0.4206  0.4425
  995MOL0     C34195   8.324   3.318   9.017 -0.5159 -0.2993  0.1372
  995MOL0     C34196   8.203   3.244   9.003 -0.4539 -0.0275  0.0060
  995MOL0     C34197   8.210   3.135   8.915 -0.2776 -0.1658 -0.2459
  995MOL0     O34198   8.089   3.088   8.872  0.1240  0.2755  0.0363
  995MOL0     C34199   8.031   2.965   8.916  0.0503  0.6117  0.6917
  995MOL0     C34200   8.005   2.976   9.066 -1.2443 -0.0858 -0.0271
  995MOL0     C34201   7.926   2.862   9.138  1.3081  0.9235 -0.9658
  995MOL0     C34202   7.948   2.721   9.083  0.4056  0.4510  0.2154
  995MOL0     C34203   7.882   2.608   9.166 -0.5606  0.1760  0.2334
  995MOL0     C34204   7.720   2.616   9.179 -0.7106  0.9446 -0.1117
  995MOL0     C34205   7.656   2.473   9.188  0.4600 -0.3635  0.4111
  995MOL0     C34206   7.504   2.482   9.165 -0.0836  1.1859  0.3252
  995MOL0     N34207   7.438   2.557   9.272  0.3376 -0.2438 -1.0529
  995MOL0     C34208   7.378   2.683   9.255  0.3379 -0.1774  0.5364
  995MOL0     C34209   7.337   2.716   9.383 -0.1817 -0.3306  0.0299
  995MOL0     C34210   7.264   2.843   9.418  0.3596  0.3541 -0.0381
  995MOL0     C34211   7.348   2.938   9.510  0.3483  0.5199  0.1420
  995MOL0     C34212   7.429   3.038   9.423 -0.1545 -0.7208  0.6367
  995MOL0     C34213   7.452   3.175   9.494  0.7449 -0.2437  0.4178
  995MOL0     O34214   7.516   3.162   9.624 -0.4229  0.3147 -0.0837
  995MOL0     C34215   7.552   3.271   9.689 -1.0940 -0.5752  0.0378
  995MOL0     C34216   7.502   3.402   9.669  1.0646 -0.0494  0.2333
  995MOL0     C34217   7.545   3.512   9.741 -0.1896 -0.0229  0.0650
  995MOL0     C34218   7.650   3.505   9.830 -0.5023 -0.0829  0.0341
  995MOL0     C34219   7.690   3.626   9.902 -0.7055  0.0778 -0.1726
  995MOL0     O34220   7.637   3.740   9.864 -0.0037  0.4442 -0.8371
  995MOL0     C34221   7.671   3.861   9.911  0.2292 -0.2745 -0.6638
  995MOL0     C34222   7.716   3.957   9.827  0.2313  0.0612 -0.2747
  995MOL0     C34223   7.748   4.088   9.883  1.0047  1.6967 -0.1194
  995MOL0     C34224   7.733   4.109  10.013 -0.9788 -0.4724 -0.1608
  995MOL0     O34225   7.748   4.247  10.054  0.1459  0.6815 -0.4497
  995MOL0     C34226   7.864   4.283  10.117  0.7147 -0.3616 -0.2467
  995MOL0     C34227   7.871   4.429  10.155  0.2312 -0.0998  0.4102
  995MOL0     C34228   7.841   4.536  10.036 -0.6825  0.1205 -0.8592
  995MOL0     C34229   7.826   4.682  10.072  0.4487  0.2438 -0.2267
  995MOL0     C34230   7.971   4.736  10.112  0.3674  0.4413  0.6281
  995MOL0     C34231   7.970   4.889  10.118  1.1493 -0.5578 -0.5578
  995MOL0     C34232   7.883   4.967  10.224 -0.2035  0.3555  0.5093
  995MOL0     C34233   7.927   4.938  10.368  0.0825  0.4080  0.1427
  995MOL0    Cl34234   7.848   5.060  10.475 -0.5533 -0.0677  0.2459
  995MOL0     C34235   7.693   4.013  10.100  0.4177  0.0224  0.5182
  995MOL0     C34236   7.645   3.890  10.043 -0.4695 -0.4778 -0.8318
  995MOL0     O34237   7.749   3.611  10.006 -0.9175  0.0338 -0.1106
  995MOL0     C34238   7.692   3.379   9.862 -0.0404 -0.4527  0.1543
  995MOL0     C34239   7.648   3.267   9.793 -0.4393  0.2637  0.7493
  995MOL0     N34240   7.360   2.618   9.466 -0.2966  0.1805 -0.3720
  995MOL0     N34241   7.426   2.533   9.408 -0.2471  0.5673  0.4725
  995MOL0     C34242   8.330   3.091   8.859  0.0581 -0.3761 -0.0678
  995MOL0     C34243   8.448   3.159   8.878 -0.7449 -1.6821  0.6225
  995MOL0     C34244   8.760   3.353   9.142 -0.1587  0.1317  0.1346
  995MOL0     C34245   8.856   3.266   9.203  0.8582 -0.5303  0.6119
  995MOL0     C34246   8.992   3.284   9.184  0.1124 -0.0471 -0.4947
  995MOL0     C34247   9.038   3.405   9.126 -1.0246 -0.0846  0.6478
  995MOL0     O34248   9.173   3.425   9.120  0.0380 -0.2676  0.4947
  995MOL0     C34249   9.233   3.550   9.124 -1.3415 -0.9213  0.4488
  995MOL0     C34250   9.392   3.521   9.104  0.3123 -0.4454  0.2619
  995MOL0     C34251   9.468   3.616   9.192 -0.1752 -0.4424 -0.3220
  995MOL0     C34252   9.415   3.760   9.182 -0.6645  0.6627 -0.4189
  995MOL0     C34253   9.497   3.866   9.247  0.3748 -0.1283 -0.2400
  995MOL0     C34254   9.580   3.939   9.294  0.4500  0.1298 -1.1093
  995MOL0     C34255   8.948   3.497   9.085  0.0420 -0.1730 -0.8071
  995MOL0     C34256   8.811   3.471   9.082 -0.2479 -0.1132 -1.2807
  995MOL0     C34257   8.724   3.576   9.030 -0.0662 -0.0339  0.5161
  995MOL0     H34258   8.327   3.417   9.061 -1.0177  1.4573 -3.4119
  995MOL0     H34259   8.113   3.270   9.057  2.1296 -2.1764  6.3679
  995MOL0     H34260   7.941   2.937   8.861 -1.2575  3.4634  1.2207
  995MOL0     H34261   8.105   2.887   8.894 -2.2815 -1.6341  0.3081
  995MOL0     H34262   7.974   3.076   9.097 -2.2842 -0.8430  1.5309
  995MOL0     H34263   8.105   2.973   9.111 -0.4472 -1.7866 -1.7905
  995MOL0     H34264   7.823   2.898   9.130  1.9211  2.7059 -1.1921
  995MOL0     H34265   7.940   2.871   9.246 -0.4685  4.4020 -0.8743
  995MOL0     H34266   7.908   2.715   8.981  1.9693  1.4413 -0.4871
  995MOL0     H34267   8.054   2.694   9.079  0.3520  0.2605  0.0649
  995MOL0     H34268   7.915   2.511   9.127  2.7079  1.1465  0.3173
  995MOL0     H34269   7.928   2.617   9.265  0.9879  2.3760 -0.6171
  995MOL0     H34270   7.680   2.677   9.261  2.8022  2.8329  0.4190
  995MOL0     H34271   7.690   2.663   9.086 -1.6632 -3.2565 -2.1615
  995MOL0     H34272   7.672   2.427   9.286  0.4218  0.1024  0.6364
  995MOL0     H34273   7.698   2.409   9.110 -1.3550 -1.2470  0.0877
  995MOL0     H34274   7.495   2.537   9.071 -0.7317 -0.7767 -0.8234
  995MOL0     H34275   7.456   2.386   9.145 -0.5667  1.9908 -2.8271
  995MOL0     H34276   7.361   2.744   9.167  2.9226 -0.8317 -0.4960
  995MOL0     H34277   7.223   2.898   9.333  1.3559  1.0487 -0.0962
  995MOL0     H34278   7.173   2.806   9.465 -0.6680  1.8297 -0.8020
  995MOL0     H34279   7.269   2.991   9.562 -0.2750  2.1307 -2.2690
  995MOL0     H34280   7.412   2.888   9.583  2.5245  2.1901 -0.4965
  995MOL0     H34281   7.382   3.066   9.329  0.5804  2.3661  1.0836
  995MOL0     H34282   7.533   3.010   9.402  0.4783  1.4667  0.6400
  995MOL0     H34283   7.349   3.208   9.508 -0.2038 -0.9962 -3.6678
  995MOL0     H34284   7.495   3.250   9.427 -1.4880  0.6787 -0.0878
  995MOL0     H34285   7.416   3.421   9.605  1.0794  1.8505  0.7199
  995MOL0     H34286   7.499   3.609   9.723  0.6348  0.4267  0.3506
  995MOL0     H34287   7.716   3.940   9.720  0.3144 -0.7908 -0.1447
  995MOL0     H34288   7.763   4.166   9.809 -2.1962  0.7483 -1.9689
  995MOL0     H34289   7.871   4.224  10.209  2.2880  2.3448  1.4970
  995MOL0     H34290   7.942   4.258  10.045  1.5784 -0.5890  0.7535
  995MOL0     H34291   7.809   4.461  10.239 -1.1891 -3.8049  0.9718
  995MOL0     H34292   7.968   4.446  10.201 -0.0622 -1.5248  1.6381
  995MOL0     H34293   7.924   4.521   9.966  1.9076  2.7930  1.3705
  995MOL0     H34294   7.745   4.508   9.991 -0.4364  0.5014 -1.6381
  995MOL0     H34295   7.762   4.693  10.160 -3.2253 -0.5908 -2.5539
  995MOL0     H34296   7.795   4.739   9.983  1.2872 -0.4107 -0.9601
  995MOL0     H34297   8.043   4.705  10.036  0.8873  0.9994  0.8930
  995MOL0     H34298   8.006   4.693  10.206  0.8564 -1.0569 -0.2022
  995MOL0     H34299   8.075   4.912  10.140  0.6924  2.0904 -0.8494
  995MOL0     H34300   7.941   4.921  10.017  3.3393 -0.0657 -1.0866
  995MOL0     H34301   7.776   4.950  10.214 -0.4121  1.6502  0.4623
  995MOL0     H34302   7.895   5.073  10.199 -1.5594  0.2308 -0.7740
  995MOL0     H34303   7.897   4.835  10.389 -0.2350  0.0468 -1.9077
  995MOL0     H34304   8.034   4.954  10.384 -0.6124  2.3975  3.8421
  995MOL0     H34305   7.691   4.040  10.205 -2.6904  1.3813  0.2012
  995MOL0     H34306   7.607   3.826  10.122 -2.1785  0.5719 -0.7463
  995MOL0     H34307   7.752   3.370   9.952  0.1781 -0.8737 -0.0339
  995MOL0     H34308   7.685   3.168   9.819  0.2538  0.2199 -0.3047
  995MOL0     H34309   8.325   3.005   8.792  3.0903  0.6491 -1.8256
  995MOL0     H34310   8.539   3.145   8.821  0.3710 -0.4224  1.9950
  995MOL0     H34311   8.812   3.179   9.251  0.3094  0.0157  1.1160
  995MOL0     H34312   9.073   3.211   9.193  2.8331  2.5921 -1.8369
  995MOL0     H34313   9.204   3.608   9.213  0.9223  1.2077 -0.1047
  995MOL0     H34314   9.203   3.615   9.042  1.3741 -0.9717 -0.6880
  995MOL0     H34315   9.438   3.514   9.005  2.1229 -0.0565  1.0225
  995MOL0     H34316   9.415   3.420   9.137 -1.8205 -1.4528 -1.1177
  995MOL0     H34317   9.569   3.603   9.151  0.2520 -1.9849  1.0986
  995MOL0     H34318   9.477   3.584   9.296  0.5628 -0.3212 -0.3430
  995MOL0     H34319   9.403   3.789   9.077  1.6579 -0.1383 -0.9521
  995MOL0     H34320   9.313   3.778   9.219  0.2540  2.6189  1.3431
  995MOL0     H34321   9.657   4.006   9.326  0.1878 -0.6616  1.4062
  995MOL0     H34322   8.972   3.588   9.032  0.6172  0.3297  0.2837
  995MOL0     H34323   8.738   3.674   9.076  0.5612  0.5514 -0.8713
  995MOL0     H34324   8.713   3.595   8.923  0.4079 -1.5268  0.1785
  995MOL0     H34325   8.620   3.575   9.064 -1.0117 -0.6739 -2.1256
  996MOL0     O34326   1.333   9.605   7.957  0.4628 -0.2328  0.6923
  996MOL0     C34327   1.393   9.710   7.922  0.4565  0.6643  0.5489
  996MOL0     O34328   1.364   9.829   7.976 -0.3583 -0.9440 -0.3766
  996MOL0     C34329   1.295   9.818   8.095 -1.0421  0.3744 -0.7529
  996MOL0     C34330   1.373   9.843   8.210 -0.5249 -0.3347  0.6548
  996MOL0     C34331   1.318   9.836   8.341  1.0397  0.6197 -0.1339
  996MOL0     C34332   1.189   9.812   8.366  0.9394  0.3645 -0.7633
  996MOL0     O34333   1.121   9.823   8.489 -0.4487 -0.2656 -0.2205
  996MOL0     C34334   0.982   9.785   8.513  0.2399 -0.8089 -0.8129
  996MOL0     C34335   0.897   9.920   8.496  0.1384  0.4535 -0.0947
  996MOL0     C34336   0.951  10.041   8.578 -0.6766 -0.6340 -0.5439
  996MOL0     C34337   0.963  10.037   8.735 -0.3958 -0.1323  0.5146
  996MOL0     C34338   0.956  10.171   8.810 -0.5939 -0.2129  0.7258
  996MOL0     C34339   1.071  10.266   8.772 -0.7943 -1.3371  0.2248
  996MOL0     C34340   1.041  10.370   8.667 -0.5842  0.5513 -0.1009
  996MOL0     C34341   1.146  10.480   8.640 -0.9716 -0.0747 -0.3834
  996MOL0     N34342   1.277  10.418   8.603  1.7703 -0.3259 -0.3755
  996MOL0     C34343   1.313  10.303   8.540  0.0286  0.6944  0.5969
  996MOL0     C34344   1.433  10.328   8.500 -0.6124  0.4282 -1.0098
  996MOL0     C34345   1.508  10.217   8.415 -0.1417 -0.2153  0.6213
  996MOL0     C34346   1.645  10.189   8.468 -0.1806 -0.5530  0.1212
  996MOL0     C34347   1.713  10.071   8.393 -0.9969  0.5261 -0.0750
  996MOL0     C34348   1.743  10.087   8.252  0.3178 -0.2086  0.7451
  996MOL0     O34349   1.613  10.080   8.172 -0.1095  0.2710  0.9698
  996MOL0     C34350   1.585  10.153   8.056 -0.0503 -0.9021  0.4003
  996MOL0     C34351   1.668  10.251   7.992  0.2214  0.3741 -0.5438
  996MOL0     C34352   1.634  10.319   7.877 -0.0573 -0.6585 -0.1556
  996MOL0     C34353   1.503  10.305   7.816 -0.0246 -0.0766 -0.9201
  996MOL0     C34354   1.473  10.372   7.695  0.5814 -0.7324 -0.2034
  996MOL0     O34355   1.566  10.465   7.647 -0.1057 -0.0578  0.0684
  996MOL0     C34356   1.535  10.512   7.519  0.0835  0.4922  0.2144
  996MOL0     C34357   1.433  10.604   7.510  0.2710 -0.1042 -0.9356
  996MOL0     C34358   1.421  10.672   7.390 -0.7839  0.9798  1.6729
  996MOL0     C34359   1.511  10.643   7.278  0.3388 -0.5267 -0.9275
  996MOL0     O34360   1.496  10.711   7.165 -0.0585  0.1329  0.9123
  996MOL0     C34361   1.384  10.678   7.073  0.5273  0.5368 -0.2218
  996MOL0     C34362   1.398  10.538   7.032  0.1767  0.3073  0.2983
  996MOL0     C34363   1.530  10.533   6.953  0.6770  0.2676 -0.1978
  996MOL0     C34364   1.547  10.389   6.905 -0.3732 -0.1607  0.3637
  996MOL0     C34365   1.621  10.391   6.767 -0.1688 -0.0540  0.1651
  996MOL0     C34366   1.648  10.250   6.722 -1.6163  0.2303 -0.0751
  996MOL0     C34367   1.753  10.183   6.807  0.1170 -0.6129  0.2493
  996MOL0     C34368   1.726  10.036   6.801 -0.0344  0.0205  0.2250
  996MOL0    Cl34369   1.604   9.987   6.920  0.0180 -0.0615 -0.3075
  996MOL0     C34370   1.603  10.536   7.290 -0.1200  0.1997  0.8903
  996MOL0     C34371   1.615  10.467   7.408 -0.3300  0.8154 -0.4001
  996MOL0     O34372   1.358  10.358   7.650  0.1572  0.6178  0.3228
  996MOL0     C34373   1.418  10.208   7.875  0.3372  0.5116  0.2212
  996MOL0     C34374   1.458  10.137   7.996 -0.2146 -0.6652 -0.1208
  996MOL0     N34375   1.479  10.454   8.528  0.3926 -0.8337 -0.7637
  996MOL0     N34376   1.367  10.509   8.578  1.3823 -0.4046  0.9280
  996MOL0     C34377   1.107   9.794   8.246 -0.5045 -0.2457  0.9211
  996MOL0     C34378   1.156   9.804   8.114  0.3246  1.0285  0.2034
  996MOL0     C34379   1.510   9.707   7.818  1.0128 -0.6371 -0.0381
  996MOL0     C34380   1.586   9.824   7.802  0.0628  0.4012 -0.3146
  996MOL0     C34381   1.696   9.829   7.722  0.6421 -0.0351  0.3565
  996MOL0     C34382   1.735   9.722   7.647  0.4296  0.3353 -0.1591
  996MOL0     O34383   1.857   9.715   7.576  0.5017  0.4847  0.2286
  996MOL0     C34384   1.947   9.824   7.557  0.0097 -0.1048  0.0882
  996MOL0     C34385   1.901   9.883   7.423 -0.5058 -0.3340 -0.9547
  996MOL0     C34386   2.009   9.986   7.366  0.3575  0.5728 -0.2687
  996MOL0     C34387   1.997  10.023   7.212 -0.0490  0.0502  0.3277
  996MOL0     C34388   2.082  10.141   7.179 -0.1641 -0.0288 -0.8640
  996MOL0     C34389   2.147  10.244   7.171  0.6791 -0.2331 -0.1008
  996MOL0     C34390   1.655   9.602   7.660 -0.8175 -0.2342  1.9950
  996MOL0     C34391   1.542   9.599   7.734  1.2645  0.6111 -0.3599
  996MOL0     C34392   1.455   9.482   7.720 -0.4558 -0.0244 -0.3697
  996MOL0     H34393   1.480   9.864   8.206 -0.5460 -0.3246  0.0681
  996MOL0     H34394   1.374   9.864   8.430  1.6136 -0.2061 -0.2172
  996MOL0     H34395   0.953   9.704   8.445  3.2596 -0.8967 -2.1305
  996MOL0     H34396   0.980   9.741   8.613  2.2413 -1.2824 -0.9392
  996MOL0     H34397   0.797   9.899   8.535  0.6375  0.3859  1.2260
  996MOL0     H34398   0.888   9.943   8.390  0.9874 -4.3481 -1.4420
  996MOL0     H34399   0.888  10.126   8.550  2.9819  2.6600  0.4332
  996MOL0     H34400   1.051  10.056   8.537  0.2011  0.3481  1.7912
  996MOL0     H34401   0.874   9.977   8.758 -0.5081 -0.4475 -0.6472
  996MOL0     H34402   1.058   9.993   8.764  1.4049  1.1836 -2.8095
  996MOL0     H34403   0.856  10.215   8.805 -1.2949 -1.8800 -0.8319
  996MOL0     H34404   0.960  10.132   8.912 -2.5056 -0.8980  0.5793
  996MOL0     H34405   1.083  10.330   8.860 -2.3876  3.2008 -2.5463
  996MOL0     H34406   1.160  10.207   8.748  0.1941 -0.5780  1.8575
  996MOL0     H34407   0.947  10.417   8.700 -0.6019  3.0983 -3.3106
  996MOL0     H34408   1.028  10.330   8.566 -2.3929 -0.4087  0.4573
  996MOL0     H34409   1.100  10.540   8.561  0.6058  0.2857 -1.0784
  996MOL0     H34410   1.167  10.543   8.727  1.5857 -0.2075 -0.8142
  996MOL0     H34411   1.260  10.211   8.520 -0.3904  0.5142  2.3608
  996MOL0     H34412   1.450  10.125   8.412 -0.2792 -0.1417  0.9745
  996MOL0     H34413   1.521  10.257   8.313  2.5004 -3.3259 -0.4271
  996MOL0     H34414   1.713  10.274   8.465  1.5202 -1.7912  1.1375
  996MOL0     H34415   1.628  10.162   8.573 -0.4853  0.3779  0.3190
  996MOL0     H34416   1.665   9.972   8.398  0.0068  0.0860  1.5800
  996MOL0     H34417   1.809  10.045   8.437  0.2640 -1.5000 -3.6312
  996MOL0     H34418   1.815  10.012   8.219 -0.7829 -1.3017  0.7268
  996MOL0     H34419   1.790  10.185   8.249  0.8533 -0.4751  0.0015
  996MOL0     H34420   1.769  10.270   8.026  0.7233 -1.8440 -0.5835
  996MOL0     H34421   1.702  10.388   7.829 -1.8177  0.5658 -1.0339
  996MOL0     H34422   1.376  10.619   7.601 -0.0349 -1.3803 -0.9041
  996MOL0     H34423   1.352  10.754   7.372  1.7505  2.2733 -4.4446
  996MOL0     H34424   1.296  10.700   7.134 -0.2353  1.7727 -1.7040
  996MOL0     H34425   1.383  10.735   6.979 -0.4681 -0.3410 -0.7579
  996MOL0     H34426   1.371  10.471   7.113 -1.5085 -0.6696 -1.0064
  996MOL0     H34427   1.323  10.517   6.955  0.5358  0.1871 -0.0173
  996MOL0     H34428   1.525  10.601   6.867 -2.5451 -0.7483 -0.9601
  996MOL0     H34429   1.616  10.561   7.014  0.1108  1.5982  0.0323
  996MOL0     H34430   1.447  10.350   6.886 -0.6885  1.5299 -1.8522
  996MOL0     H34431   1.598  10.346   6.992  0.9188  2.3533  0.9437
  996MOL0     H34432   1.714  10.448   6.768 -0.4317  0.4624 -1.5751
  996MOL0     H34433   1.546  10.440   6.703 -0.1964  3.0057  2.3238
  996MOL0     H34434   1.554  10.194   6.716 -1.4977  0.2123 -2.2928
  996MOL0     H34435   1.688  10.252   6.621 -0.1754 -2.5373  0.3359
  996MOL0     H34436   1.753  10.221   6.910 -2.5925  1.3802 -0.3631
  996MOL0     H34437   1.850  10.209   6.765  0.5302 -0.3022  1.3536
  996MOL0     H34438   1.700  10.010   6.698 -2.0610  2.2079  0.0940
  996MOL0     H34439   1.813   9.970   6.808 -0.8294 -0.8698  3.2975
  996MOL0     H34440   1.681  10.506   7.222  0.6847  1.2306  1.3350
  996MOL0     H34441   1.692  10.391   7.421  1.1727  1.9415 -2.1737
  996MOL0     H34442   1.318  10.186   7.837  0.9289  1.1980 -1.8492
  996MOL0     H34443   1.396  10.063   8.046  1.2947 -0.7620  1.7067
  996MOL0     H34444   1.000   9.794   8.265 -0.7536  1.7087 -0.2948
  996MOL0     H34445   1.098   9.782   8.024 -0.2352 -1.0328  1.0006
  996MOL0     H34446   1.556   9.910   7.862  1.6219  0.0680  0.9862
  996MOL0     H34447   1.747   9.924   7.714  3.5695 -1.5810 -0.6739
  996MOL0     H34448   2.052   9.794   7.555  0.0182 -0.1481 -2.5697
  996MOL0     H34449   1.940   9.898   7.638  0.9379  0.0065  0.0732
  996MOL0     H34450   1.804   9.931   7.435 -0.9206 -1.5423  0.8776
  996MOL0     H34451   1.895   9.809   7.343  1.4793 -1.6292 -0.0057
  996MOL0     H34452   2.098   9.922   7.369 -0.1014 -0.0742 -0.1697
  996MOL0     H34453   1.998  10.070   7.434 -0.3033 -0.0777  0.4458
  996MOL0     H34454   2.042   9.947   7.148 -3.6102 -1.5346 -0.5383
  996MOL0     H34455   1.891  10.025   7.184 -0.0080  0.1337  0.1753
  996MOL0     H34456   2.198  10.338   7.182 -0.6028  0.3343  1.2926
  996MOL0     H34457   1.686   9.511   7.608 -0.4259 -0.2214  2.2026
  996MOL0     H34458   1.445   9.411   7.803  1.1621  0.6309  0.4395
  996MOL0     H34459   1.356   9.515   7.687 -0.5409 -0.8801 -1.0188
  996MOL0     H34460   1.481   9.439   7.622  0.2358  3.0073 -1.6257
  997MOL0     O34461   0.700   9.005   6.417 -0.7404 -0.6759 -0.0293
  997MOL0     C34462   0.584   8.984   6.378 -0.9238 -0.2828 -0.2868
  997MOL0     O34463   0.486   8.931   6.459 -0.4739  0.0925 -0.7343
  997MOL0     C34464   0.529   8.886   6.586 -0.1053  0.3257 -0.4462
  997MOL0     C34465   0.521   8.746   6.606  0.6240 -0.7510  0.6589
  997MOL0     C34466   0.539   8.703   6.734 -1.0677  0.4316 -0.5072
  997MOL0     C34467   0.568   8.786   6.840 -0.0989  0.5263 -1.2189
  997MOL0     O34468   0.580   8.718   6.960 -0.2220 -0.5026  0.1373
  997MOL0     C34469   0.533   8.798   7.071  0.2447 -0.3585  0.6704
  997MOL0     C34470   0.544   8.717   7.196 -1.5056 -1.0041  0.2845
  997MOL0     C34471   0.685   8.691   7.260 -0.0519  0.2430  0.3336
  997MOL0     C34472   0.760   8.828   7.281 -1.0397 -1.4014 -0.3512
  997MOL0     C34473   0.905   8.831   7.356  0.1928  0.1680 -0.0144
  997MOL0     C34474   1.005   8.749   7.275 -0.2448  0.7267  0.2425
  997MOL0     C34475   1.147   8.749   7.339  0.7138 -0.1743 -0.1041
  997MOL0     C34476   1.243   8.640   7.282  0.1948 -0.3194 -0.1080
  997MOL0     N34477   1.304   8.690   7.156 -0.9038 -1.2567  0.0753
  997MOL0     C34478   1.281   8.645   7.033 -0.2218 -0.5691  0.8599
  997MOL0     C34479   1.356   8.720   6.943 -0.2719  0.2936 -0.6509
  997MOL0     C34480   1.347   8.713   6.796 -0.5216  0.0354 -0.3712
  997MOL0     C34481   1.438   8.817   6.727  0.4116  0.5348 -0.4307
  997MOL0     C34482   1.434   8.786   6.581 -0.5845  0.5912  0.1307
  997MOL0     C34483   1.488   8.906   6.509  1.0171 -0.5748 -0.5407
  997MOL0     O34484   1.568   8.884   6.391 -0.0027 -0.1587 -0.0140
  997MOL0     C34485   1.498   8.876   6.272  0.6596  0.4830  0.2804
  997MOL0     C34486   1.585   8.855   6.163  0.4750  0.0493  1.0663
  997MOL0     C34487   1.532   8.853   6.037 -0.9930  0.0186  0.2202
  997MOL0     C34488   1.391   8.857   6.003  0.5249  0.8341 -0.6754
  997MOL0     C34489   1.350   8.834   5.866 -0.7682  0.2766 -0.5264
  997MOL0     O34490   1.210   8.818   5.856  0.1024  0.8836  0.1904
  997MOL0     C34491   1.159   8.822   5.731 -0.7788  0.0840  0.1422
  997MOL0     C34492   1.205   8.749   5.614  0.8435  0.1112 -0.1185
  997MOL0     C34493   1.137   8.753   5.491  0.1079 -0.3450 -0.1711
  997MOL0     C34494   1.023   8.834   5.476 -0.2070 -1.0359  0.1551
  997MOL0     O34495   0.958   8.845   5.355 -0.2542  0.1508 -0.3332
  997MOL0     C34496   1.031   8.842   5.233  0.5942  0.3698  0.6205
  997MOL0     C34497   0.943   8.863   5.097 -0.1555  0.0283 -1.3544
  997MOL0     C34498   0.886   8.715   5.075  0.1979  0.4184 -0.1424
  997MOL0     C34499   0.981   8.643   4.977  0.6244  0.2004 -0.5005
  997MOL0     C34500   0.932   8.504   4.930 -0.2309 -0.7616  0.4913
  997MOL0     C34501   1.025   8.439   4.821 -0.0414  0.0652  0.3433
  997MOL0     C34502   1.046   8.537   4.708  0.1648  0.2616  0.0224
  997MOL0     C34503   1.120   8.473   4.601 -0.2509  0.1910  0.3867
  997MOL0    Cl34504   1.151   8.599   4.474 -0.2895 -0.4903 -0.0394
  997MOL0     C34505   0.974   8.901   5.584  1.0752 -0.3650 -0.9663
  997MOL0     C34506   1.045   8.905   5.710  0.4298  0.6245 -0.0859
  997MOL0     O34507   1.428   8.838   5.776  0.2804 -0.1489 -0.0044
  997MOL0     C34508   1.303   8.886   6.117 -0.5913 -0.9150  0.8900
  997MOL0     C34509   1.358   8.899   6.244  1.0934  0.3114  0.0974
  997MOL0     N34510   1.446   8.790   7.022  0.1835  0.7704 -0.0980
  997MOL0     N34511   1.410   8.774   7.147  0.1099 -1.3205  0.5755
  997MOL0     C34512   0.578   8.926   6.827  0.3980  0.9792  0.1210
  997MOL0     C34513   0.551   8.976   6.698  0.3291 -0.2876  0.0507
  997MOL0     C34514   0.558   9.011   6.232  0.4254 -0.8457 -1.5647
  997MOL0     C34515   0.550   8.903   6.143  0.1617 -0.3168  0.9791
  997MOL0     C34516   0.491   8.921   6.016  0.5339  0.6401 -0.8559
  997MOL0     C34517   0.449   9.045   5.980 -0.0261 -0.3909 -0.0816
  997MOL0     O34518   0.398   9.060   5.855  0.2692 -0.0517  1.0470
  997MOL0     C34519   0.294   9.157   5.829 -0.3263  0.2305  0.2833
  997MOL0     C34520   0.358   9.284   5.783  0.2302 -0.6660 -0.0338
  997MOL0     C34521   0.381   9.282   5.634 -0.5410  0.1357  0.0795
  997MOL0     C34522   0.392   9.424   5.584 -0.2869  0.7479 -0.3228
  997MOL0     C34523   0.410   9.413   5.437  0.4006 -0.6553  0.4562
  997MOL0     C34524   0.413   9.409   5.315 -0.4887 -0.4788 -0.8130
  997MOL0     C34525   0.453   9.146   6.071 -0.3207  0.6161 -0.4181
  997MOL0     C34526   0.523   9.139   6.197 -0.5473  0.4176  0.7217
  997MOL0     C34527   0.536   9.263   6.281 -0.6043 -0.0224  0.3669
  997MOL0     H34528   0.507   8.675   6.525 -0.8623  1.1142 -0.7982
  997MOL0     H34529   0.544   8.595   6.746  0.3259  0.6007  0.6639
  997MOL0     H34530   0.591   8.890   7.087 -2.0001  0.6150  4.5049
  997MOL0     H34531   0.432   8.836   7.051  0.2392  0.1240  1.5403
  997MOL0     H34532   0.493   8.621   7.186 -1.3818 -0.9473 -1.1295
  997MOL0     H34533   0.501   8.782   7.273 -0.0006  0.5197 -0.0784
  997MOL0     H34534   0.748   8.629   7.196 -0.0906  1.6777 -1.1896
  997MOL0     H34535   0.680   8.646   7.360 -0.9725  3.9739  2.1345
  997MOL0     H34536   0.785   8.877   7.186 -1.6245  0.5583  0.4601
  997MOL0     H34537   0.698   8.890   7.347  1.4102 -0.3743  1.1152
  997MOL0     H34538   0.933   8.936   7.359 -3.2695  1.2741 -1.4251
  997MOL0     H34539   0.903   8.795   7.460  1.1041  2.0043  0.6788
  997MOL0     H34540   0.971   8.645   7.277  1.7345  0.0262  2.9506
  997MOL0     H34541   1.014   8.791   7.175  0.6267  3.0600  1.2413
  997MOL0     H34542   1.145   8.734   7.447  0.5865 -3.5640 -0.4685
  997MOL0     H34543   1.187   8.846   7.310 -1.2798  0.5096 -0.7477
  997MOL0     H34544   1.328   8.620   7.347  0.3015 -2.2423 -0.7621
  997MOL0     H34545   1.186   8.551   7.253  0.5722  0.0303 -2.1063
  997MOL0     H34546   1.210   8.566   7.012 -1.0610  0.6901 -1.3192
  997MOL0     H34547   1.393   8.617   6.769  0.2125  0.7746 -1.8021
  997MOL0     H34548   1.245   8.719   6.758  0.2783  4.5893 -2.4364
  997MOL0     H34549   1.391   8.916   6.731 -3.2787 -0.9933 -1.3638
  997MOL0     H34550   1.540   8.805   6.764  0.4912 -3.6340 -1.4620
  997MOL0     H34551   1.328   8.779   6.555 -0.9799  2.8570  0.8425
  997MOL0     H34552   1.487   8.694   6.555 -2.5804  0.0192 -2.3617
  997MOL0     H34553   1.549   8.966   6.577 -0.5638  1.4390 -0.8053
  997MOL0     H34554   1.406   8.976   6.498 -0.8449 -2.5082  0.3213
  997MOL0     H34555   1.694   8.854   6.167  0.7361 -0.0058 -2.8347
  997MOL0     H34556   1.610   8.867   5.963  0.6793  0.0778  1.9378
  997MOL0     H34557   1.294   8.686   5.616  1.5414  1.0807 -0.1142
  997MOL0     H34558   1.177   8.701   5.405  4.1319  0.6260  0.8980
  997MOL0     H34559   1.115   8.911   5.237  1.9874 -1.2330  0.4843
  997MOL0     H34560   1.097   8.755   5.222  2.3145  1.8049 -0.8716
  997MOL0     H34561   0.860   8.932   5.112  2.3537  2.4977  3.7062
  997MOL0     H34562   1.005   8.907   5.018 -1.3405  0.4869 -2.0524
  997MOL0     H34563   0.884   8.666   5.173  1.3223 -0.7886 -0.6846
  997MOL0     H34564   0.785   8.732   5.037 -0.6528  0.4899  1.9731
  997MOL0     H34565   1.081   8.638   5.023  1.9722  3.1391 -2.7536
  997MOL0     H34566   0.985   8.716   4.896  4.7726  1.6330  0.7041
  997MOL0     H34567   0.838   8.512   4.875  1.5998  0.0374 -2.7690
  997MOL0     H34568   0.937   8.431   5.011  3.6644 -1.7324 -0.4055
  997MOL0     H34569   1.123   8.428   4.868 -0.1416  2.5288  1.2674
  997MOL0     H34570   0.988   8.348   4.771 -1.5360  0.9521 -0.2492
  997MOL0     H34571   1.109   8.614   4.754  1.6624 -1.2149  0.5288
  997MOL0     H34572   0.955   8.580   4.666  1.3966  1.4581 -1.5639
  997MOL0     H34573   1.219   8.442   4.635 -0.4790  0.4353  1.2999
  997MOL0     H34574   1.071   8.382   4.565  0.0613  0.6884 -1.4062
  997MOL0     H34575   0.883   8.959   5.593  0.8915 -0.9689  2.0781
  997MOL0     H34576   1.017   8.962   5.798  1.3144  3.3027 -1.4519
  997MOL0     H34577   1.200   8.907   6.090  0.0304 -0.1135 -0.9942
  997MOL0     H34578   1.284   8.935   6.315 -0.1921  0.3580 -1.2027
  997MOL0     H34579   0.613   8.995   6.903 -1.2262  0.0547  1.8070
  997MOL0     H34580   0.552   9.083   6.681 -0.0816  0.1864  2.6435
  997MOL0     H34581   0.582   8.805   6.177  1.9194 -1.2460 -2.8881
  997MOL0     H34582   0.479   8.840   5.944 -1.7785  3.0088 -3.3803
  997MOL0     H34583   0.233   9.176   5.918  2.3555  1.5554  1.9632
  997MOL0     H34584   0.229   9.113   5.753 -0.2622 -3.4608  2.1601
  997MOL0     H34585   0.456   9.289   5.832  0.5813 -2.8481 -0.4081
  997MOL0     H34586   0.302   9.373   5.815  0.3452 -1.0107  1.1534
  997MOL0     H34587   0.293   9.242   5.582 -0.4787  1.8170 -1.4265
  997MOL0     H34588   0.466   9.218   5.609 -0.9134 -0.2819 -0.1387
  997MOL0     H34589   0.300   9.480   5.606 -1.7173 -2.2717  2.3365
  997MOL0     H34590   0.480   9.462   5.636 -0.9911 -1.9251  3.2820
  997MOL0     H34591   0.429   9.396   5.210  0.1154 -0.4387 -0.7347
  997MOL0     H34592   0.419   9.246   6.050 -0.0929  1.3870  2.4219
  997MOL0     H34593   0.458   9.251   6.356  1.1492 -1.9590  2.0156
  997MOL0     H34594   0.631   9.256   6.334  0.2648 -0.1773 -1.1433
  997MOL0     H34595   0.538   9.356   6.224  0.4076  0.2302  0.7967
  998MOL0     O34596   6.700   5.132   1.990  0.0788 -0.0196 -0.1810
  998MOL0     C34597   6.770   5.090   1.896  0.1614  0.7836 -0.6175
  998MOL0     O34598   6.907   5.109   1.886 -0.2049  0.0814 -0.1107
  998MOL0     C34599   6.986   5.159   1.990 -0.2158 -0.1727 -0.0336
  998MOL0     C34600   7.125   5.195   1.965 -0.2227 -0.1224 -0.1788
  998MOL0     C34601   7.217   5.252   2.058 -0.1787  0.9072 -0.1496
  998MOL0     C34602   7.163   5.270   2.183 -0.0868 -0.8764  0.0298
  998MOL0     O34603   7.239   5.343   2.272  0.0491 -0.5896 -0.1042
  998MOL0     C34604   7.211   5.322   2.415  0.1816  0.9504  1.0715
  998MOL0     C34605   7.288   5.434   2.478 -1.1862 -0.4361 -1.1783
  998MOL0     C34606   7.232   5.577   2.460 -0.3057  1.0530 -0.5628
  998MOL0     C34607   7.329   5.699   2.444 -0.5395 -0.2199 -0.0691
  998MOL0     C34608   7.364   5.738   2.299 -0.1027  0.5749 -0.7066
  998MOL0     C34609   7.444   5.638   2.210  0.9885  0.0664  0.8046
  998MOL0     C34610   7.581   5.589   2.254 -0.4159 -0.2305 -0.9961
  998MOL0     C34611   7.620   5.451   2.193 -0.4496 -0.0691 -0.1914
  998MOL0     N34612   7.621   5.459   2.047  0.3492  0.0193 -0.4519
  998MOL0     C34613   7.695   5.553   1.977 -0.1418 -0.8121  0.0003
  998MOL0     C34614   7.651   5.542   1.849 -0.4112 -0.1867  0.2262
  998MOL0     C34615   7.698   5.637   1.734 -0.0736 -0.4267  0.9397
  998MOL0     C34616   7.740   5.574   1.608  1.0122  0.1240  0.1318
  998MOL0     C34617   7.765   5.691   1.500 -0.2138  0.4394  0.4383
  998MOL0     C34618   7.861   5.814   1.537 -0.7495  1.1576 -0.3091
  998MOL0     O34619   7.786   5.911   1.609 -0.2019  0.8339 -0.0730
  998MOL0     C34620   7.844   6.033   1.614 -0.0770 -0.0288 -0.0355
  998MOL0     C34621   7.982   6.066   1.591 -0.3383  0.3394 -0.1281
  998MOL0     C34622   8.032   6.198   1.621  0.0347  0.4683  0.4482
  998MOL0     C34623   7.947   6.298   1.663  0.7761  1.0429  0.2146
  998MOL0     C34624   7.999   6.441   1.677  0.0178  0.2499 -1.2359
  998MOL0     O34625   8.130   6.452   1.636 -0.3937 -0.2540 -0.0780
  998MOL0     C34626   8.202   6.568   1.619  0.1930 -0.8410 -0.6291
  998MOL0     C34627   8.328   6.540   1.553  0.1438  0.6780 -0.4800
  998MOL0     C34628   8.398   6.640   1.515 -0.0389 -0.2105  0.0437
  998MOL0     C34629   8.374   6.772   1.548 -0.9160  0.0270 -0.1903
  998MOL0     O34630   8.453   6.866   1.489 -0.3649  0.1409 -0.2971
  998MOL0     C34631   8.436   7.000   1.537 -1.3186  0.7033  0.2779
  998MOL0     C34632   8.546   7.073   1.466  0.9291  0.3465 -0.1889
  998MOL0     C34633   8.687   7.013   1.490  0.3842 -0.0913  0.6819
  998MOL0     C34634   8.805   7.075   1.414  0.4575 -0.5369 -0.1233
  998MOL0     C34635   8.877   7.190   1.481 -0.5338 -0.4325  0.3481
  998MOL0     C34636   8.958   7.296   1.399  1.0820 -0.2405 -0.0661
  998MOL0     C34637   9.022   7.393   1.496  0.4300  0.6270 -1.0188
  998MOL0     C34638   9.091   7.497   1.425  0.1972  0.2335  0.7323
  998MOL0    Cl34639   9.221   7.589   1.527  0.3523 -0.2478 -0.9105
  998MOL0     C34640   8.259   6.803   1.628  0.4910 -1.1110  0.0757
  998MOL0     C34641   8.174   6.699   1.658 -0.1803 -0.5043 -0.2423
  998MOL0     O34642   7.921   6.534   1.711  0.1647  0.1642  0.1139
  998MOL0     C34643   7.809   6.260   1.686 -0.0944 -0.6182 -0.1468
  998MOL0     C34644   7.759   6.142   1.650 -0.8064 -0.2052  0.7377
  998MOL0     N34645   7.545   5.452   1.842 -0.0381 -0.3745  1.1373
  998MOL0     N34646   7.528   5.409   1.963  0.6305  0.5283  0.2684
  998MOL0     C34647   7.031   5.239   2.214  0.5068 -0.0512 -0.0385
  998MOL0     C34648   6.951   5.180   2.123  1.0993 -0.5946  0.6300
  998MOL0     C34649   6.690   5.018   1.793 -0.2038 -0.4865 -0.3307
  998MOL0     C34650   6.549   4.982   1.821 -0.4474  0.4526  0.9134
  998MOL0     C34651   6.470   4.926   1.718 -0.2477 -0.6430  0.7844
  998MOL0     C34652   6.512   4.914   1.582  0.0836 -0.7947 -0.5277
  998MOL0     O34653   6.435   4.882   1.465 -0.1274 -0.7200 -0.7782
  998MOL0     C34654   6.294   4.862   1.481  0.2061  0.1194 -0.2526
  998MOL0     C34655   6.238   4.723   1.529 -1.2412 -0.1122  0.2586
  998MOL0     C34656   6.102   4.737   1.583  1.4925 -0.1016 -0.1224
  998MOL0     C34657   6.035   4.609   1.637  0.5826  0.5841  1.0067
  998MOL0     C34658   6.000   4.513   1.528 -0.2470 -0.5676  0.4379
  998MOL0     C34659   6.010   4.430   1.444  0.3233 -0.2319 -0.4126
  998MOL0     C34660   6.637   4.964   1.554  0.7407  0.7318  0.0792
  998MOL0     C34661   6.726   5.012   1.654 -0.0774  0.1814 -0.5295
  998MOL0     C34662   6.866   5.060   1.601  0.3598 -0.4766 -0.2824
  998MOL0     H34663   7.150   5.185   1.860 -3.2107 -1.5616 -0.8949
  998MOL0     H34664   7.315   5.288   2.028  0.2688  1.2369  1.5856
  998MOL0     H34665   7.110   5.355   2.437  0.6571  2.8709  0.5080
  998MOL0     H34666   7.245   5.221   2.443  0.7365  0.8949  0.2492
  998MOL0     H34667   7.386   5.428   2.428 -0.7220 -4.0421 -0.1522
  998MOL0     H34668   7.282   5.409   2.584  0.0737  0.3291 -0.9025
  998MOL0     H34669   7.167   5.598   2.545  0.2638  0.4934  0.0278
  998MOL0     H34670   7.177   5.578   2.366 -0.6897 -4.4599 -0.7216
  998MOL0     H34671   7.280   5.788   2.484 -1.1210  0.7518 -2.7782
  998MOL0     H34672   7.419   5.693   2.507  1.2772 -0.0876 -2.5104
  998MOL0     H34673   7.271   5.757   2.245  0.1160  1.6888 -0.7046
  998MOL0     H34674   7.419   5.832   2.290  1.7533 -0.2001  1.5038
  998MOL0     H34675   7.378   5.554   2.191 -0.9315  1.8144 -0.6416
  998MOL0     H34676   7.456   5.682   2.111 -1.3747 -0.2441  0.3274
  998MOL0     H34677   7.586   5.581   2.363  0.8786 -4.3879 -1.1999
  998MOL0     H34678   7.653   5.668   2.234 -0.8959  0.6166  0.3979
  998MOL0     H34679   7.713   5.412   2.235 -1.3272 -0.1963  1.7566
  998MOL0     H34680   7.532   5.392   2.222 -3.3987  3.8895 -0.1594
  998MOL0     H34681   7.770   5.622   2.016  0.8882 -0.8056 -1.8699
  998MOL0     H34682   7.608   5.695   1.710  0.6970  0.3279 -0.1824
  998MOL0     H34683   7.768   5.706   1.780 -1.2532  0.0095  2.1551
  998MOL0     H34684   7.828   5.511   1.623 -0.4099 -1.5852  1.9156
  998MOL0     H34685   7.663   5.504   1.575 -2.0926  1.8620  3.0554
  998MOL0     H34686   7.671   5.724   1.455 -0.6032 -0.9391  0.2049
  998MOL0     H34687   7.813   5.644   1.413  0.7408  0.7284  0.7922
  998MOL0     H34688   7.904   5.859   1.446 -1.0869 -1.9655 -2.1602
  998MOL0     H34689   7.938   5.783   1.607  0.1302  0.5526 -1.4994
  998MOL0     H34690   8.051   5.991   1.553  0.3743  1.8781 -2.0520
  998MOL0     H34691   8.136   6.221   1.599  0.8399 -2.0905  1.2662
  998MOL0     H34692   8.370   6.440   1.541 -1.6112 -0.3133  1.1442
  998MOL0     H34693   8.476   6.630   1.440 -1.3644  1.0720 -1.5963
  998MOL0     H34694   8.345   7.057   1.517 -1.1379  0.2195 -2.1789
  998MOL0     H34695   8.456   7.004   1.645 -0.1139 -0.6322  0.1306
  998MOL0     H34696   8.522   7.075   1.359 -1.2493  2.3303  0.2490
  998MOL0     H34697   8.553   7.177   1.501 -0.1244 -0.0900  1.4372
  998MOL0     H34698   8.705   7.024   1.597 -1.2231 -2.0841  1.2180
  998MOL0     H34699   8.684   6.912   1.450  1.3335  0.7109 -1.5979
  998MOL0     H34700   8.757   7.115   1.324  0.3560 -2.2755 -0.9035
  998MOL0     H34701   8.875   6.995   1.386  1.5232 -0.4649  2.1537
  998MOL0     H34702   8.949   7.139   1.545  3.7057  0.2083 -3.4480
  998MOL0     H34703   8.800   7.246   1.535  1.6445  2.6169  0.5309
  998MOL0     H34704   9.039   7.250   1.342  0.6310 -0.6782 -0.3574
  998MOL0     H34705   8.890   7.337   1.323  1.0140 -3.1377 -1.6976
  998MOL0     H34706   9.089   7.328   1.554 -1.7816 -0.5101  0.3704
  998MOL0     H34707   8.934   7.422   1.552  0.1706  2.5230 -2.3211
  998MOL0     H34708   9.139   7.450   1.340  1.8365  0.9260  1.2339
  998MOL0     H34709   9.014   7.567   1.392 -0.6925 -1.3563 -0.7284
  998MOL0     H34710   8.228   6.900   1.664 -4.2332 -2.3934  0.1383
  998MOL0     H34711   8.096   6.720   1.730 -0.8028  4.2590 -1.9174
  998MOL0     H34712   7.750   6.348   1.706  2.3591  1.2827 -0.7024
  998MOL0     H34713   7.655   6.111   1.649 -1.1468  0.9136  0.1511
  998MOL0     H34714   6.983   5.273   2.306  0.2262 -0.4543 -0.0319
  998MOL0     H34715   6.854   5.154   2.164 -0.7157 -1.7661 -3.8426
  998MOL0     H34716   6.509   4.994   1.921 -1.7297 -0.8890  0.5852
  998MOL0     H34717   6.368   4.904   1.750 -1.3157  2.9028  0.2733
  998MOL0     H34718   6.252   4.882   1.382  0.5526 -0.0260 -0.4321
  998MOL0     H34719   6.262   4.939   1.552  2.6587  1.0915 -0.0956
  998MOL0     H34720   6.306   4.701   1.612 -1.7285 -2.5102  0.1170
  998MOL0     H34721   6.244   4.647   1.449  0.2305  0.7072 -0.4519
  998MOL0     H34722   6.042   4.775   1.500  1.7406  0.9677  0.1830
  998MOL0     H34723   6.107   4.818   1.655  0.4618  0.8722 -1.1046
  998MOL0     H34724   6.098   4.554   1.708  1.0672 -3.1637 -1.9723
  998MOL0     H34725   5.944   4.644   1.686 -0.5180 -1.8472  0.8553
  998MOL0     H34726   6.018   4.357   1.366  1.5272  0.7297 -1.2347
  998MOL0     H34727   6.669   4.970   1.450  0.8717  0.5056  0.1064
  998MOL0     H34728   6.891   4.994   1.517 -1.1647 -1.5227  0.0442
  998MOL0     H34729   6.843   5.155   1.553 -1.2488 -0.1616  1.0382
  998MOL0     H34730   6.959   5.047   1.657  2.0532 -2.7959 -3.3039
  999MOL0     O34731   6.999   7.012   7.957  0.8189  0.3246 -0.4664
  999MOL0     C34732   6.933   7.111   7.981  0.7366  0.1887 -0.5766
  999MOL0     O34733   6.822   7.118   8.068 -0.0481 -0.6540 -0.0356
  999MOL0     C34734   6.828   7.037   8.179 -0.0430 -0.2669  0.3763
  999MOL0     C34735   6.933   7.050   8.276 -0.1027  0.2637 -0.0244
  999MOL0     C34736   6.932   6.963   8.385  0.2246  0.0571  0.4351
  999MOL0     C34737   6.833   6.871   8.394  0.0908  0.6805 -0.2624
  999MOL0     O34738   6.836   6.783   8.497  0.6330 -0.7409  0.5852
  999MOL0     C34739   6.766   6.661   8.479  0.1335 -0.0167  0.3361
  999MOL0     C34740   6.820   6.563   8.577  0.3787 -1.2385  0.2699
  999MOL0     C34741   6.799   6.620   8.720 -1.0108  0.3988  0.3575
  999MOL0     C34742   6.836   6.507   8.824  0.2679  0.5923 -0.4418
  999MOL0     C34743   6.785   6.521   8.974  0.9207  0.7043  0.3077
  999MOL0     C34744   6.906   6.518   9.066  0.1959 -1.1430 -0.7807
  999MOL0     C34745   6.864   6.536   9.210  1.1577 -0.4625  0.8753
  999MOL0     C34746   6.979   6.502   9.311 -0.4452  0.3565  0.3044
  999MOL0     N34747   6.949   6.378   9.374  0.4889 -0.0956 -0.0408
  999MOL0     C34748   6.902   6.265   9.314 -0.0025  0.8260  0.4295
  999MOL0     C34749   6.864   6.179   9.418 -0.6452 -0.3387  0.5584
  999MOL0     C34750   6.823   6.035   9.412  0.0250 -0.9491 -0.3727
  999MOL0     C34751   6.691   6.024   9.342  0.7362 -1.1394 -0.1468
  999MOL0     C34752   6.704   5.959   9.210 -1.0307  1.0058 -0.6188
  999MOL0     C34753   6.569   5.976   9.134  0.0789  0.1662 -0.0924
  999MOL0     O34754   6.595   5.937   9.001 -0.7740  0.0070 -0.0927
  999MOL0     C34755   6.483   5.921   8.917  0.0375 -0.2417 -0.4129
  999MOL0     C34756   6.496   5.957   8.779  1.1917 -0.6157  0.1173
  999MOL0     C34757   6.381   5.957   8.690  0.4163 -0.4934 -1.0620
  999MOL0     C34758   6.259   5.899   8.738  0.6475 -0.7996  0.2795
  999MOL0     C34759   6.137   5.898   8.650  0.5238 -0.4251 -0.0302
  999MOL0     O34760   6.153   5.956   8.525 -0.0273 -0.0291 -0.0795
  999MOL0     C34761   6.079   5.950   8.413 -0.6174  0.1416 -0.0870
  999MOL0     C34762   6.020   5.833   8.355  0.6128 -0.6032 -0.0594
  999MOL0     C34763   5.950   5.852   8.234 -0.2519  0.4047 -0.2606
  999MOL0     C34764   5.955   5.971   8.164  0.2175  0.3347 -0.8788
  999MOL0     O34765   5.889   5.970   8.038  0.2114  0.2903  0.2136
  999MOL0     C34766   5.835   6.089   7.977 -1.0679  0.6520  0.6960
  999MOL0     C34767   5.928   6.140   7.868  0.4993 -0.9346 -0.8083
  999MOL0     C34768   5.957   6.042   7.751 -0.0135  0.2165 -0.3012
  999MOL0     C34769   6.006   6.120   7.635 -0.9904  0.4385 -0.0754
  999MOL0     C34770   6.069   6.036   7.525  0.0462 -0.1500 -0.2439
  999MOL0     C34771   5.956   5.969   7.451 -1.2975 -0.9030 -0.6542
  999MOL0     C34772   6.011   5.913   7.315 -0.6677  0.3357  0.2468
  999MOL0     C34773   5.910   5.901   7.210 -0.3483  0.0727 -0.1641
  999MOL0    Cl34774   5.770   5.811   7.259 -0.4366  0.1617  0.2667
  999MOL0     C34775   6.017   6.085   8.225 -0.1726  0.2770 -0.2078
  999MOL0     C34776   6.084   6.073   8.343  1.5084 -0.3633  0.2750
  999MOL0     O34777   6.035   5.858   8.694 -0.1682  0.3207 -0.5987
  999MOL0     C34778   6.258   5.851   8.863 -0.5305 -0.7086 -0.6109
  999MOL0     C34779   6.362   5.858   8.962  0.4722  0.1396 -0.1078
  999MOL0     N34780   6.891   6.246   9.537  0.2126  0.4833  0.6047
  999MOL0     N34781   6.935   6.362   9.514 -0.2050 -0.3364  0.8678
  999MOL0     C34782   6.722   6.867   8.303  0.0463 -0.8631 -0.3407
  999MOL0     C34783   6.719   6.954   8.192 -1.0496  0.9270 -0.3256
  999MOL0     C34784   6.947   7.213   7.873  0.1297  0.2086  0.3695
  999MOL0     C34785   7.070   7.221   7.807  0.3117 -0.2219 -0.2584
  999MOL0     C34786   7.099   7.325   7.722 -0.0944 -0.7074  0.0828
  999MOL0     C34787   7.013   7.436   7.710  0.8601 -0.2785 -0.1968
  999MOL0     O34788   7.014   7.543   7.637  1.1811  0.4901  0.0259
  999MOL0     C34789   7.137   7.578   7.568  0.4696 -0.4575 -0.0933
  999MOL0     C34790   7.125   7.703   7.481  0.9306 -0.6566 -0.2674
  999MOL0     C34791   7.253   7.742   7.398 -0.1119 -0.0177  0.3308
  999MOL0     C34792   7.260   7.898   7.368  0.5373 -0.3852 -0.0439
  999MOL0     C34793   7.407   7.935   7.348  0.5379 -0.0691 -0.0402
  999MOL0     C34794   7.525   7.963   7.331 -0.6788 -0.0867  0.5754
  999MOL0     C34795   6.900   7.435   7.796 -0.4598 -0.3715  0.1661
  999MOL0     C34796   6.863   7.323   7.865 -0.0226  0.5486  0.6037
  999MOL0     C34797   6.728   7.345   7.945 -1.2031  0.0838 -0.3305
  999MOL0     H34798   7.015   7.118   8.259  1.1104 -1.0543  0.3819
  999MOL0     H34799   7.015   6.952   8.455  2.2602  1.3740 -1.6055
  999MOL0     H34800   6.662   6.679   8.508 -0.0049 -1.0654  0.5192
  999MOL0     H34801   6.764   6.623   8.376  1.1114  1.9941 -0.4864
  999MOL0     H34802   6.926   6.537   8.564  0.7510 -1.0698  2.5956
  999MOL0     H34803   6.759   6.478   8.544 -0.5896 -0.3499 -0.2558
  999MOL0     H34804   6.696   6.652   8.738 -1.9196 -1.0600 -1.9600
  999MOL0     H34805   6.877   6.696   8.737 -1.5408  0.6317  2.0120
  999MOL0     H34806   6.773   6.424   8.789 -1.1947  2.5077 -2.7313
  999MOL0     H34807   6.940   6.474   8.834  0.2420  1.0652  1.8415
  999MOL0     H34808   6.711   6.602   8.979 -2.9253 -2.5289  1.2558
  999MOL0     H34809   6.723   6.435   9.000  0.2453  1.5231  1.5051
  999MOL0     H34810   6.975   6.434   9.059  1.6045  0.0981 -3.2585
  999MOL0     H34811   6.971   6.598   9.028 -0.4912 -0.1593  0.0520
  999MOL0     H34812   6.784   6.463   9.226  0.7126 -0.0485  0.5781
  999MOL0     H34813   6.819   6.635   9.218  1.4449  0.1002 -2.6672
  999MOL0     H34814   7.073   6.511   9.256 -0.2304  1.8465  0.8775
  999MOL0     H34815   6.999   6.573   9.392 -0.2924 -0.7685  1.2848
  999MOL0     H34816   6.882   6.260   9.207 -2.1655  0.5131  0.7962
  999MOL0     H34817   6.899   5.976   9.359  2.9104  0.4496  1.9565
  999MOL0     H34818   6.815   5.993   9.513  0.9897  0.1243  0.1686
  999MOL0     H34819   6.621   5.959   9.395 -1.1685 -0.0639 -1.2076
  999MOL0     H34820   6.643   6.119   9.317  1.0057 -0.8642  0.3698
  999MOL0     H34821   6.732   5.854   9.215 -3.5851 -0.0562 -4.2087
  999MOL0     H34822   6.789   5.999   9.153 -0.4516 -0.1199 -0.5833
  999MOL0     H34823   6.518   6.073   9.139  2.2803  1.3544  2.7266
  999MOL0     H34824   6.497   5.911   9.184  0.0118  1.8869  2.2214
  999MOL0     H34825   6.598   5.975   8.746  1.3068  0.0393  0.8150
  999MOL0     H34826   6.387   5.979   8.584 -2.8710  1.6997 -0.9304
  999MOL0     H34827   6.032   5.735   8.399  2.9679 -0.7015 -0.7583
  999MOL0     H34828   5.917   5.760   8.188 -0.0079 -1.2821  2.6665
  999MOL0     H34829   5.736   6.070   7.934 -1.1545  3.0241 -0.2969
  999MOL0     H34830   5.811   6.174   8.042 -2.5410  1.4263 -0.7691
  999MOL0     H34831   5.878   6.230   7.831 -1.0926 -1.9119 -1.1479
  999MOL0     H34832   6.021   6.163   7.920  0.5388 -4.6658  1.1217
  999MOL0     H34833   6.042   5.980   7.782  1.2525  2.1699  0.3241
  999MOL0     H34834   5.868   5.982   7.730 -0.3904 -0.4203  2.6862
  999MOL0     H34835   6.071   6.203   7.664 -4.0103  2.9239  0.1150
  999MOL0     H34836   5.926   6.187   7.604  0.8320  3.3928  1.1635
  999MOL0     H34837   6.129   5.962   7.580 -0.0271  0.4582  0.6752
  999MOL0     H34838   6.120   6.104   7.457  2.4021 -3.6775 -2.3639
  999MOL0     H34839   5.918   5.881   7.504  0.3417 -3.2899 -3.1333
  999MOL0     H34840   5.865   6.026   7.430 -0.1189  1.1230 -0.4291
  999MOL0     H34841   6.058   5.816   7.335  1.3483  1.2847  0.3457
  999MOL0     H34842   6.089   5.980   7.278 -1.5878  0.6111 -1.2786
  999MOL0     H34843   5.879   6.004   7.194  1.0768  0.8224  1.5819
  999MOL0     H34844   5.959   5.857   7.123  1.6103  1.8660 -0.0400
  999MOL0     H34845   6.006   6.180   8.174  0.8615  0.6948  0.3094
  999MOL0     H34846   6.141   6.161   8.371 -2.5778  2.4674  0.5552
  999MOL0     H34847   6.171   5.798   8.900 -1.7756 -0.0630 -2.4712
  999MOL0     H34848   6.348   5.819   9.062 -0.4462 -1.9404 -0.9908
  999MOL0     H34849   6.635   6.803   8.308  0.7184 -1.7241  0.9596
  999MOL0     H34850   6.639   6.960   8.118 -1.0246  2.3232 -0.2772
  999MOL0     H34851   7.149   7.150   7.829  0.5689  0.4393  1.0703
  999MOL0     H34852   7.199   7.328   7.680 -0.1684  2.1241 -0.0606
  999MOL0     H34853   7.174   7.488   7.518  0.9753  0.8830 -2.2655
  999MOL0     H34854   7.210   7.603   7.645  1.2004  2.3983 -1.5731
  999MOL0     H34855   7.114   7.784   7.553 -2.5479  0.2943 -1.7032
  999MOL0     H34856   7.034   7.698   7.421  1.4017  0.5094 -1.1107
  999MOL0     H34857   7.239   7.683   7.307 -0.7898  0.3242  0.2042
  999MOL0     H34858   7.345   7.704   7.442  0.3228  0.7094  0.0751
  999MOL0     H34859   7.182   7.937   7.302  2.3685 -2.4458 -3.7362
  999MOL0     H34860   7.246   7.946   7.465  0.6378 -0.5903  0.0738
  999MOL0     H34861   7.631   7.974   7.330 -0.6153 -0.1597 -2.1859
  999MOL0     H34862   6.838   7.524   7.793 -1.7692 -1.1946  1.5279
  999MOL0     H34863   6.754   7.367   8.049 -0.7709  0.4422 -0.5121
  999MOL0     H34864   6.673   7.430   7.905  0.7687  1.2368 -0.6896
  999MOL0     H34865   6.662   7.258   7.935 -2.0054  0.4385  1.5150
 1000MOL0     O34866   7.413   1.443   7.218 -0.1895 -0.3097  0.7306
 1000MOL0     C34867   7.475   1.544   7.180 -1.3767  0.1248 -0.1403
 1000MOL0     O34868   7.444   1.635   7.077 -0.4367  0.4055  0.3006
 1000MOL0     C34869   7.351   1.589   6.988  0.6766  0.2086  1.4053
 1000MOL0     C34870   7.225   1.541   7.010  0.1624 -0.1499 -0.9646
 1000MOL0     C34871   7.156   1.501   6.894  0.0687 -0.7868 -0.6032
 1000MOL0     C34872   7.206   1.534   6.770 -0.1138  1.2167 -0.6471
 1000MOL0     O34873   7.139   1.479   6.664  0.0836  0.2516  0.6879
 1000MOL0     C34874   7.202   1.374   6.598  0.5957  0.4527  0.7412
 1000MOL0     C34875   7.131   1.246   6.644 -0.2064  0.1081  0.7381
 1000MOL0     C34876   6.980   1.232   6.623  0.4203  0.3919  0.3448
 1000MOL0     C34877   6.934   1.092   6.665  0.2574  0.0793  0.2732
 1000MOL0     C34878   6.789   1.062   6.676 -0.9127  0.2122 -0.6890
 1000MOL0     C34879   6.720   1.098   6.533 -0.4089  0.8911  0.3947
 1000MOL0     C34880   6.572   1.055   6.533  0.3401  0.6766 -0.4795
 1000MOL0     C34881   6.491   1.139   6.636  0.7360 -0.1832  0.0815
 1000MOL0     N34882   6.351   1.116   6.634  0.2952 -0.5083 -0.5046
 1000MOL0     C34883   6.249   1.206   6.597 -0.1111  0.4227  0.0908
 1000MOL0     C34884   6.138   1.131   6.572 -0.3240 -0.9875 -1.1051
 1000MOL0     C34885   5.999   1.167   6.526 -0.8466  0.2485 -0.9692
 1000MOL0     C34886   5.884   1.081   6.578  0.7958  0.4908  0.2209
 1000MOL0     C34887   5.868   0.942   6.512 -0.4479 -0.0167  0.6757
 1000MOL0     C34888   5.801   0.937   6.373 -0.1203 -0.1561  0.0531
 1000MOL0     O34889   5.818   0.809   6.303  0.7420  0.1184 -0.5889
 1000MOL0     C34890   5.779   0.797   6.169 -0.1786 -0.1857 -0.6934
 1000MOL0     C34891   5.715   0.909   6.098 -0.7410  0.0812 -0.5651
 1000MOL0     C34892   5.670   0.882   5.970  0.1784 -0.1003  0.5958
 1000MOL0     C34893   5.697   0.765   5.901 -0.0436  0.3406 -0.5076
 1000MOL0     C34894   5.659   0.756   5.759 -0.2275  0.7856  0.4893
 1000MOL0     O34895   5.579   0.836   5.683  0.8067 -0.6312 -0.1903
 1000MOL0     C34896   5.523   0.790   5.573 -0.6778  0.0590  0.5266
 1000MOL0     C34897   5.532   0.864   5.451 -0.2189 -0.5713  0.0522
 1000MOL0     C34898   5.486   0.802   5.331  0.2583  0.3808  0.1779
 1000MOL0     C34899   5.412   0.685   5.337  0.9562  0.4843  0.4980
 1000MOL0     O34900   5.339   0.630   5.244  0.2677  0.0069 -0.0212
 1000MOL0     C34901   5.391   0.628   5.103 -0.1489  0.6973 -1.0865
 1000MOL0     C34902   5.401   0.474   5.074  0.2013 -0.1280 -0.2882
 1000MOL0     C34903   5.472   0.396   5.182 -0.8606  1.2458 -0.5470
 1000MOL0     C34904   5.494   0.256   5.114  0.0320 -0.2868  0.4538
 1000MOL0     C34905   5.419   0.147   5.181  0.0627 -0.2007  0.3009
 1000MOL0     C34906   5.458   0.016   5.121 -0.5806 -0.0315  0.2457
 1000MOL0     C34907   5.387  -0.103   5.195 -0.4142 -0.6470  0.1237
 1000MOL0     C34908   5.359  -0.233   5.109 -0.6150  0.1698 -0.4314
 1000MOL0    Cl34909   5.428  -0.236   4.932  0.3548  0.4097  0.2468
 1000MOL0     C34910   5.417   0.611   5.458  0.1956 -0.6988 -0.5810
 1000MOL0     C34911   5.462   0.665   5.579 -0.9739  0.2235  0.4691
 1000MOL0     O34912   5.717   0.653   5.722 -0.3808 -0.4139 -0.3729
 1000MOL0     C34913   5.772   0.671   5.973  0.8669  0.0404  0.1022
 1000MOL0     C34914   5.813   0.686   6.107 -0.4165  0.7559  0.3346
 1000MOL0     N34915   6.176   1.002   6.614 -0.8675 -0.2202 -0.6752
 1000MOL0     N34916   6.298   0.996   6.646  0.0563 -0.1593 -0.3894
 1000MOL0     C34917   7.336   1.598   6.750 -0.1273  0.0290 -0.1060
 1000MOL0     C34918   7.408   1.608   6.864 -0.0722  0.5298 -0.2377
 1000MOL0     C34919   7.615   1.558   7.243  0.3925  0.3771  0.1991
 1000MOL0     C34920   7.667   1.685   7.260  0.2667  0.6485 -0.7301
 1000MOL0     C34921   7.792   1.714   7.306 -0.3188  0.6586  0.0597
 1000MOL0     C34922   7.869   1.618   7.354 -0.3952  0.4141  0.3272
 1000MOL0     O34923   7.991   1.661   7.402  1.1437  0.1000  0.4377
 1000MOL0     C34924   8.083   1.567   7.445  0.2873 -0.1872  0.4860
 1000MOL0     C34925   8.210   1.641   7.491  0.7028 -0.0184  0.4401
 1000MOL0     C34926   8.297   1.682   7.374 -0.0311  0.1770 -0.2466
 1000MOL0     C34927   8.255   1.823   7.330 -0.0638  0.2797 -0.6160
 1000MOL0     C34928   8.275   1.938   7.414 -1.2354 -0.2614 -0.3104
 1000MOL0     C34929   8.296   2.038   7.480 -0.0475  0.8007  0.4146
 1000MOL0     C34930   7.823   1.485   7.349  0.1494 -0.9656 -0.6009
 1000MOL0     C34931   7.695   1.460   7.296 -0.4573 -0.2627  0.4697
 1000MOL0     C34932   7.653   1.318   7.310 -0.2685 -0.3395  0.4113
 1000MOL0     H34933   7.192   1.523   7.112 -1.6637  2.4495 -1.0061
 1000MOL0     H34934   7.068   1.438   6.909  0.3339 -0.6672  1.9824
 1000MOL0     H34935   7.179   1.384   6.492 -3.0006  0.5661  1.3722
 1000MOL0     H34936   7.309   1.370   6.619  0.6114 -2.1137  0.5082
 1000MOL0     H34937   7.154   1.239   6.750  0.5580 -2.3630  0.4853
 1000MOL0     H34938   7.182   1.162   6.595 -1.1063 -0.7268  1.1863
 1000MOL0     H34939   6.951   1.254   6.520 -3.7029  1.0129  1.4334
 1000MOL0     H34940   6.923   1.303   6.683 -0.1201 -0.0627  0.3804
 1000MOL0     H34941   6.974   1.014   6.599 -0.3619 -2.0797  2.3204
 1000MOL0     H34942   6.983   1.077   6.761 -1.0332 -0.4997  0.8669
 1000MOL0     H34943   6.783   0.956   6.702  0.9516  0.7374  2.3916
 1000MOL0     H34944   6.750   1.121   6.759 -2.5835 -1.4014 -0.2689
 1000MOL0     H34945   6.720   1.206   6.518  1.3749  1.2439  2.5014
 1000MOL0     H34946   6.773   1.046   6.452 -0.4211  3.9114 -1.6999
 1000MOL0     H34947   6.556   0.950   6.560  0.2479  1.6516  4.0004
 1000MOL0     H34948   6.538   1.073   6.430  1.5163  0.0402 -1.0011
 1000MOL0     H34949   6.532   1.113   6.734  2.0664 -2.7864 -1.0649
 1000MOL0     H34950   6.507   1.248   6.632  0.5921 -0.1186  1.0611
 1000MOL0     H34951   6.258   1.314   6.589  0.5685  0.4173  0.6600
 1000MOL0     H34952   5.969   1.272   6.539 -0.2858  0.5958 -2.2839
 1000MOL0     H34953   6.008   1.167   6.417 -1.0995  1.4029 -1.0073
 1000MOL0     H34954   5.902   1.058   6.684 -1.4897  0.1875  0.6060
 1000MOL0     H34955   5.793   1.140   6.565  0.8309  1.0188  2.0504
 1000MOL0     H34956   5.795   0.883   6.568 -4.8121  2.5062 -1.8642
 1000MOL0     H34957   5.956   0.877   6.505 -1.6252 -1.5799 -0.1324
 1000MOL0     H34958   5.859   1.010   6.316  2.5403 -2.3309 -0.2853
 1000MOL0     H34959   5.694   0.960   6.372 -0.1765 -0.2687 -2.5689
 1000MOL0     H34960   5.703   1.004   6.151  0.6298  2.2117 -3.7803
 1000MOL0     H34961   5.618   0.965   5.924 -2.2533 -1.5213  0.5719
 1000MOL0     H34962   5.585   0.958   5.445 -0.2752 -0.6208 -4.2210
 1000MOL0     H34963   5.495   0.854   5.236 -0.8086  0.1930 -0.0353
 1000MOL0     H34964   5.322   0.677   5.033 -1.5479 -2.5808 -2.2159
 1000MOL0     H34965   5.487   0.680   5.108 -0.3240  1.0451 -1.2742
 1000MOL0     H34966   5.298   0.438   5.080  0.1326 -0.4409 -2.3839
 1000MOL0     H34967   5.434   0.455   4.971  1.5263 -1.0153  0.2768
 1000MOL0     H34968   5.572   0.438   5.199 -0.7348  1.2215 -1.1759
 1000MOL0     H34969   5.423   0.391   5.280 -0.4848  3.1990 -0.2122
 1000MOL0     H34970   5.600   0.231   5.109 -0.6828 -4.2307  1.8824
 1000MOL0     H34971   5.466   0.258   5.008  0.6659  0.4264  0.2948
 1000MOL0     H34972   5.311   0.163   5.189 -0.4725 -2.3991 -1.3425
 1000MOL0     H34973   5.450   0.145   5.286  1.1805  0.5798  0.0112
 1000MOL0     H34974   5.419   0.025   5.019 -0.4857  1.6043  0.3414
 1000MOL0     H34975   5.566  -0.002   5.124 -0.4215  0.6768 -0.7408
 1000MOL0     H34976   5.296  -0.071   5.246 -0.3551 -2.3295  1.3789
 1000MOL0     H34977   5.454  -0.130   5.277 -1.1080  2.6526  1.9541
 1000MOL0     H34978   5.379  -0.330   5.155 -1.2573  0.7218  1.0815
 1000MOL0     H34979   5.249  -0.236   5.107 -0.6869 -0.5943  1.6573
 1000MOL0     H34980   5.366   0.517   5.477 -0.5778 -0.3541 -0.9269
 1000MOL0     H34981   5.468   0.597   5.663  2.3827 -0.9130 -0.5354
 1000MOL0     H34982   5.795   0.575   5.929  0.3785 -0.0086 -0.0523
 1000MOL0     H34983   5.867   0.603   6.154  1.5887  2.2365  0.7880
 1000MOL0     H34984   7.362   1.624   6.648 -2.3132  1.5510 -0.3597
 1000MOL0     H34985   7.510   1.644   6.857  0.3626 -0.7390 -0.7094
 1000MOL0     H34986   7.603   1.770   7.237 -0.1187  0.1309 -1.6349
 1000MOL0     H34987   7.833   1.814   7.319  1.7010 -0.0680 -0.3349
 1000MOL0     H34988   8.101   1.497   7.364  2.5994  1.0725 -0.1886
 1000MOL0     H34989   8.041   1.506   7.526 -0.5393 -3.9798 -2.5239
 1000MOL0     H34990   8.283   1.586   7.553  3.5119  3.3756  0.4587
 1000MOL0     H34991   8.190   1.719   7.565  0.0033 -1.7258  2.1268
 1000MOL0     H34992   8.284   1.616   7.288 -0.0257 -1.3136  0.8550
 1000MOL0     H34993   8.404   1.689   7.393 -0.1565  1.8599 -0.0648
 1000MOL0     H34994   8.308   1.846   7.237  1.7377 -2.0614 -0.2531
 1000MOL0     H34995   8.146   1.824   7.320 -1.1545  3.2982  5.8637
 1000MOL0     H34996   8.318   2.131   7.528 -0.1823  0.4007  1.2944
 1000MOL0     H34997   7.890   1.407   7.381 -0.7087 -1.6700 -0.4751
 1000MOL0     H34998   7.616   1.281   7.213  1.7325  1.0891 -0.9804
 1000MOL0     H34999   7.734   1.251   7.337 -0.4084 -0.3295  0.8563
 1000MOL0     H35000   7.575   1.322   7.386 -1.2883 -1.0674 -0.5494
 1001MOL0     O35001   2.268   8.166   6.702  0.0048 -0.2527  0.4006
 1001MOL0     C35002   2.243   8.156   6.824  0.1216  0.0993 -0.0935
 1001MOL0     O35003   2.133   8.087   6.875  0.1611  0.3613 -0.4136
 1001MOL0     C35004   2.045   8.014   6.792 -0.4567  0.3831  0.0248
 1001MOL0     C35005   1.913   7.984   6.845  0.2468 -0.0299  0.9835
 1001MOL0     C35006   1.815   7.897   6.782  0.3350 -0.1182 -0.2892
 1001MOL0     C35007   1.851   7.846   6.658  0.0089 -0.5343 -0.6227
 1001MOL0     O35008   1.769   7.766   6.604 -0.0781 -0.0487  0.1263
 1001MOL0     C35009   1.723   7.813   6.475 -0.6154  0.6279 -0.0747
 1001MOL0     C35010   1.674   7.695   6.396  0.5973  0.1145 -0.1335
 1001MOL0     C35011   1.607   7.734   6.263 -0.3455  0.9160 -0.1398
 1001MOL0     C35012   1.495   7.838   6.269  0.6281 -0.2003  0.2836
 1001MOL0     C35013   1.444   7.911   6.146  0.0883  0.7651  0.2965
 1001MOL0     C35014   1.305   7.974   6.167  0.0498 -0.2461  0.8632
 1001MOL0     C35015   1.279   8.082   6.048 -0.1807 -1.1099  0.0400
 1001MOL0     C35016   1.250   7.999   5.920  0.8090 -1.3032 -0.1517
 1001MOL0     N35017   1.175   8.067   5.813 -0.6179  0.9130  0.2328
 1001MOL0     C35018   1.125   8.201   5.823 -0.4772 -0.2202 -0.0106
 1001MOL0     C35019   1.131   8.238   5.691 -0.1495 -0.8147  0.4894
 1001MOL0     C35020   1.092   8.378   5.646  0.9564 -0.4579 -0.2823
 1001MOL0     C35021   0.960   8.419   5.718  0.1413 -0.2037  0.1170
 1001MOL0     C35022   0.940   8.569   5.704 -0.3865  0.0530 -0.2966
 1001MOL0     C35023   0.805   8.619   5.732 -0.4227  0.5180  0.4186
 1001MOL0     O35024   0.745   8.557   5.847 -0.5229  0.1017 -0.0441
 1001MOL0     C35025   0.617   8.514   5.838 -0.0007  0.2489  0.3549
 1001MOL0     C35026   0.567   8.436   5.726 -0.0891  0.0884  0.1489
 1001MOL0     C35027   0.437   8.388   5.725  0.2881  0.3503 -0.1613
 1001MOL0     C35028   0.354   8.400   5.837  0.1532 -0.4551  1.1340
 1001MOL0     C35029   0.209   8.361   5.842  0.5833 -0.5201 -0.4424
 1001MOL0     O35030   0.141   8.385   5.960 -0.0431 -0.4465 -0.1885
 1001MOL0     C35031   0.011   8.336   5.974  0.8401 -0.3720  0.0353
 1001MOL0     C35032  -0.098   8.357   5.879 -1.5197 -0.2463 -0.4180
 1001MOL0     C35033  -0.215   8.295   5.894 -0.2084  0.3120  0.8530
 1001MOL0     C35034  -0.243   8.224   6.014 -0.0526  0.9184  0.8983
 1001MOL0     O35035  -0.365   8.166   6.034 -0.1806 -0.0857 -0.1333
 1001MOL0     C35036  -0.423   8.174   6.170 -0.1063 -0.2598  0.0291
 1001MOL0     C35037  -0.569   8.155   6.153 -0.0689 -0.4349  0.5769
 1001MOL0     C35038  -0.635   8.240   6.034  0.7181  0.4185  0.5373
 1001MOL0     C35039  -0.773   8.200   6.003  0.6534 -0.5458 -0.2495
 1001MOL0     C35040  -0.852   8.274   5.884 -0.2094 -0.0587  0.0838
 1001MOL0     C35041  -0.864   8.424   5.917  0.3080  0.3510 -0.8247
 1001MOL0     C35042  -0.917   8.516   5.801  0.2018 -0.6700  0.0079
 1001MOL0     C35043  -0.833   8.498   5.665 -0.7096 -0.2223 -0.9235
 1001MOL0    Cl35044  -0.656   8.487   5.695  0.0397  0.3430 -0.2768
 1001MOL0     C35045  -0.145   8.206   6.114  1.0310  0.2968  0.1721
 1001MOL0     C35046  -0.020   8.262   6.089  0.6326  0.0828  0.1921
 1001MOL0     O35047   0.164   8.317   5.736  0.2677  0.5833 -0.0799
 1001MOL0     C35048   0.409   8.465   5.946  0.2673 -0.7451 -0.2901
 1001MOL0     C35049   0.532   8.522   5.952  0.0128  0.1686 -0.0981
 1001MOL0     N35050   1.158   8.136   5.607  0.5330 -0.2384  0.2508
 1001MOL0     N35051   1.195   8.040   5.682  0.0725 -0.8552 -0.3613
 1001MOL0     C35052   1.989   7.862   6.613  0.9175  0.0530  0.4120
 1001MOL0     C35053   2.089   7.951   6.674  0.2262 -0.6350  0.1322
 1001MOL0     C35054   2.332   8.229   6.918  1.0796  0.2965 -0.1399
 1001MOL0     C35055   2.350   8.169   7.042 -0.0963  0.2318 -0.9973
 1001MOL0     C35056   2.428   8.232   7.132 -0.7947  0.3914 -0.6517
 1001MOL0     C35057   2.490   8.357   7.119  0.1085 -0.3896 -0.9027
 1001MOL0     O35058   2.591   8.409   7.199  0.1426  0.2354  0.0552
 1001MOL0     C35059   2.604   8.358   7.329 -1.1423 -0.7698 -0.1030
 1001MOL0     C35060   2.651   8.471   7.410  0.5262  0.7354 -0.0843
 1001MOL0     C35061   2.692   8.422   7.556 -0.3519 -0.7971 -0.7123
 1001MOL0     C35062   2.581   8.402   7.655  0.1585 -0.5137 -0.9407
 1001MOL0     C35063   2.640   8.355   7.781 -0.7689  0.0412  0.8591
 1001MOL0     C35064   2.696   8.331   7.883  0.4226  0.8145 -0.2762
 1001MOL0     C35065   2.473   8.412   6.988  0.2518  0.4906 -0.4389
 1001MOL0     C35066   2.400   8.343   6.883  0.3341 -1.4920  0.1707
 1001MOL0     C35067   2.373   8.430   6.760 -0.2746 -0.3481 -0.7101
 1001MOL0     H35068   1.887   8.036   6.937 -0.6671  1.6235 -0.1605
 1001MOL0     H35069   1.716   7.878   6.822 -0.1105  0.4544 -1.0866
 1001MOL0     H35070   1.651   7.894   6.488 -0.0340  1.6104 -2.4043
 1001MOL0     H35071   1.806   7.861   6.423  2.4631 -1.5079  2.4616
 1001MOL0     H35072   1.611   7.637   6.464  0.0922  0.0049 -0.6828
 1001MOL0     H35073   1.758   7.627   6.380  2.4832  2.1006  0.8270
 1001MOL0     H35074   1.567   7.640   6.224  1.0931 -0.2195  1.0157
 1001MOL0     H35075   1.685   7.776   6.198 -0.7750 -1.7548 -2.5831
 1001MOL0     H35076   1.408   7.783   6.304  1.9193 -2.7651 -0.3208
 1001MOL0     H35077   1.524   7.915   6.342  2.9472  0.8467 -1.5927
 1001MOL0     H35078   1.520   7.986   6.125  0.0046  0.2649 -2.1353
 1001MOL0     H35079   1.447   7.843   6.060  1.6366 -0.0854  0.9862
 1001MOL0     H35080   1.229   7.898   6.183 -0.9480  0.6892  0.6882
 1001MOL0     H35081   1.318   8.038   6.255 -0.1485  0.1939  0.5789
 1001MOL0     H35082   1.371   8.138   6.029  0.9216 -2.2603  1.6809
 1001MOL0     H35083   1.198   8.150   6.076 -0.0363 -0.0436 -1.9704
 1001MOL0     H35084   1.345   7.968   5.875  1.7409 -1.3028  1.7414
 1001MOL0     H35085   1.190   7.910   5.941 -2.8530  0.8565 -0.5452
 1001MOL0     H35086   1.102   8.256   5.914  0.1587 -0.2174  0.1498
 1001MOL0     H35087   1.170   8.450   5.671  0.8005 -0.7681  1.1837
 1001MOL0     H35088   1.065   8.392   5.541  0.1034  1.7246  0.1699
 1001MOL0     H35089   0.873   8.368   5.677 -2.1936  2.2219  1.7070
 1001MOL0     H35090   0.960   8.396   5.825 -1.7861  0.2019  0.2455
 1001MOL0     H35091   0.968   8.605   5.605  0.6043 -0.0805 -0.0710
 1001MOL0     H35092   1.005   8.619   5.776  2.3328 -2.2009 -1.0025
 1001MOL0     H35093   0.734   8.603   5.651 -3.3408 -0.3624  2.9269
 1001MOL0     H35094   0.818   8.728   5.738 -3.0083  0.9906 -0.8708
 1001MOL0     H35095   0.644   8.402   5.658  1.0753  0.4122  1.2597
 1001MOL0     H35096   0.390   8.329   5.647 -0.0797 -1.0059  1.0516
 1001MOL0     H35097  -0.077   8.427   5.800 -2.3398  2.5724  1.6821
 1001MOL0     H35098  -0.297   8.322   5.827  0.1294 -0.7577 -0.0249
 1001MOL0     H35099  -0.377   8.084   6.212 -1.1910  0.2603  2.4508
 1001MOL0     H35100  -0.395   8.261   6.230 -0.1428 -2.9671  4.3715
 1001MOL0     H35101  -0.592   8.050   6.136  1.1670 -0.2223 -3.6047
 1001MOL0     H35102  -0.621   8.187   6.244  0.2572 -0.9486  0.9495
 1001MOL0     H35103  -0.634   8.348   6.047 -4.8213  1.1591 -2.2275
 1001MOL0     H35104  -0.587   8.217   5.938 -2.0126 -2.7520 -0.2375
 1001MOL0     H35105  -0.829   8.198   6.097  2.6664 -1.2600  1.0002
 1001MOL0     H35106  -0.776   8.094   5.975  0.9440 -0.4928 -0.4793
 1001MOL0     H35107  -0.949   8.227   5.868  0.1269 -0.1318 -2.0040
 1001MOL0     H35108  -0.804   8.260   5.787 -2.0489  1.4642 -1.1093
 1001MOL0     H35109  -0.941   8.428   5.995  1.6741  1.6880  0.5383
 1001MOL0     H35110  -0.769   8.467   5.950  0.2616  0.7921 -1.2517
 1001MOL0     H35111  -0.922   8.621   5.830 -2.9546 -1.2378  2.0354
 1001MOL0     H35112  -1.019   8.479   5.785  0.6106 -1.5980 -0.5221
 1001MOL0     H35113  -0.853   8.405   5.611  2.1372 -1.2251 -0.4312
 1001MOL0     H35114  -0.859   8.581   5.599  1.0084  0.1984 -1.1155
 1001MOL0     H35115  -0.151   8.136   6.196  2.0190 -2.7987 -2.2127
 1001MOL0     H35116   0.066   8.245   6.154 -0.5153  2.7489  2.6725
 1001MOL0     H35117   0.348   8.493   6.031  0.0056  2.2662 -1.3718
 1001MOL0     H35118   0.562   8.575   6.041  0.0292  0.2107 -0.1291
 1001MOL0     H35119   2.020   7.810   6.523  1.5355  3.9617 -1.8293
 1001MOL0     H35120   2.187   7.953   6.627 -0.0851  1.5587 -0.5670
 1001MOL0     H35121   2.294   8.080   7.069 -2.0629  1.5383 -0.6026
 1001MOL0     H35122   2.456   8.174   7.220  0.6862  3.0479  0.7750
 1001MOL0     H35123   2.675   8.275   7.328  0.6390  0.7090 -0.8721
 1001MOL0     H35124   2.510   8.318   7.369 -1.3502  1.1297  1.4213
 1001MOL0     H35125   2.572   8.546   7.416 -0.7125 -0.4162 -1.1595
 1001MOL0     H35126   2.733   8.510   7.350  0.8267 -2.1810 -1.7614
 1001MOL0     H35127   2.766   8.497   7.586 -1.3915 -0.0723  0.1007
 1001MOL0     H35128   2.759   8.338   7.539 -0.1640 -1.3691  2.2884
 1001MOL0     H35129   2.528   8.496   7.673  1.6569 -0.1700  2.5367
 1001MOL0     H35130   2.508   8.328   7.620 -0.6077  0.4207 -1.3430
 1001MOL0     H35131   2.726   8.297   7.980 -2.1774  0.2690  0.4087
 1001MOL0     H35132   2.507   8.515   6.976  0.8754  0.4649  0.9383
 1001MOL0     H35133   2.384   8.537   6.779  0.6279 -0.9399  2.6431
 1001MOL0     H35134   2.458   8.409   6.694 -0.4647  0.6372 -1.2905
 1001MOL0     H35135   2.278   8.399   6.717 -0.2589 -0.4991 -0.6358
 1002MOL0     O35136   8.551  11.009  10.609 -0.8668 -0.6039  0.5553
 1002MOL0     C35137   8.641  11.032  10.526  0.4344 -0.1456 -0.1777
 1002MOL0     O35138   8.760  11.082  10.563 -0.3136 -0.3780  1.0939
 1002MOL0     C35139   8.801  11.084  10.695  0.4090 -0.0405  0.0909
 1002MOL0     C35140   8.913  11.166  10.717  0.7325  0.0405  0.2103
 1002MOL0     C35141   8.965  11.177  10.850  0.1460 -0.1601 -0.1308
 1002MOL0     C35142   8.903  11.107  10.960 -0.5944  1.4795 -0.3726
 1002MOL0     O35143   8.955  11.126  11.093  0.0820  0.0370 -0.8442
 1002MOL0     C35144   9.075  11.212  11.111 -0.5306  0.5758 -1.0577
 1002MOL0     C35145   9.088  11.220  11.257 -0.1457 -0.3778 -0.3293
 1002MOL0     C35146   9.118  11.084  11.320  0.0907 -0.1690 -0.0624
 1002MOL0     C35147   9.212  11.080  11.445  0.3893 -0.8087  0.1798
 1002MOL0     C35148   9.212  10.949  11.525 -0.1952  0.6218  0.0508
 1002MOL0     C35149   9.263  10.825  11.448 -1.0183 -0.3992 -0.3452
 1002MOL0     C35150   9.392  10.827  11.378  0.1935  1.3283  0.7065
 1002MOL0     C35151   9.516  10.796  11.462 -0.3042  0.5527  0.1573
 1002MOL0     N35152   9.525  10.843  11.603  0.4212 -0.0960  0.1090
 1002MOL0     C35153   9.538  10.769  11.721 -0.1414  0.3470  0.4567
 1002MOL0     C35154   9.535  10.852  11.827  0.8196 -0.0337  0.1959
 1002MOL0     C35155   9.546  10.818  11.975 -0.3957 -0.7346 -0.0406
 1002MOL0     C35156   9.510  10.674  12.018  0.5940 -0.8619 -0.0652
 1002MOL0     C35157   9.367  10.640  12.020  0.1303 -0.0065 -0.4654
 1002MOL0     C35158   9.265  10.735  11.954  0.1780  0.7765 -0.4470
 1002MOL0     O35159   9.254  10.845  12.041 -0.2212 -0.6581  0.9070
 1002MOL0     C35160   9.161  10.931  11.986 -0.2462 -0.2712  0.3268
 1002MOL0     C35161   9.036  10.942  12.043 -0.1483  0.0062 -0.1476
 1002MOL0     C35162   8.933  11.021  11.990 -0.4807 -0.9393 -0.2088
 1002MOL0     C35163   8.970  11.104  11.886  0.5006 -0.4148  0.7049
 1002MOL0     C35164   8.858  11.182  11.809  0.0698  0.1773 -1.0780
 1002MOL0     O35165   8.727  11.184  11.868 -0.1070  0.6593  0.0751
 1002MOL0     C35166   8.622  11.270  11.818  0.8070  0.4077 -0.1881
 1002MOL0     C35167   8.504  11.251  11.888 -0.3251  0.2824 -0.9425
 1002MOL0     C35168   8.385  11.313  11.850  0.2132  0.1931 -0.2074
 1002MOL0     C35169   8.388  11.412  11.749  0.2679  0.3851  0.1708
 1002MOL0     O35170   8.269  11.474  11.713 -0.1141  0.5925 -0.8453
 1002MOL0     C35171   8.258  11.519  11.573  0.3714 -0.3732  0.6442
 1002MOL0     C35172   8.105  11.548  11.548 -0.8595 -0.1826 -0.8237
 1002MOL0     C35173   8.077  11.642  11.436  0.0377 -0.7341  0.7981
 1002MOL0     C35174   8.125  11.590  11.297  0.8664 -0.1799 -0.0005
 1002MOL0     C35175   8.077  11.443  11.276  0.4640  0.8404 -0.3762
 1002MOL0     C35176   8.106  11.399  11.133 -0.9704  0.1108 -0.6009
 1002MOL0     C35177   8.261  11.364  11.130 -0.3886 -0.1446 -0.6261
 1002MOL0     C35178   8.278  11.221  11.085  0.3489  0.4644 -0.3034
 1002MOL0    Cl35179   8.220  11.107  11.214 -0.1174  0.1529 -0.0422
 1002MOL0     C35180   8.506  11.427  11.670 -0.7430  0.1719  0.4912
 1002MOL0     C35181   8.619  11.356  11.710  0.2945 -0.0022  0.0559
 1002MOL0     O35182   8.885  11.226  11.704  0.1865 -0.5984  0.2639
 1002MOL0     C35183   9.104  11.112  11.839  0.2659 -0.0267 -0.2534
 1002MOL0     C35184   9.198  11.014  11.885 -0.5480  0.5348  0.0454
 1002MOL0     N35185   9.558  10.974  11.769  0.7704 -0.2409  0.1114
 1002MOL0     N35186   9.533  10.970  11.640  0.3608 -0.2632  0.1302
 1002MOL0     C35187   8.796  11.029  10.937 -0.2907  0.4318  0.4349
 1002MOL0     C35188   8.743  11.023  10.814 -0.2568  1.2529  0.9433
 1002MOL0     C35189   8.606  11.023  10.392  0.0815  0.1652  1.5139
 1002MOL0     C35190   8.664  11.106  10.301  0.1373 -0.1781  0.7722
 1002MOL0     C35191   8.634  11.109  10.164 -0.1107  1.0266 -0.9411
 1002MOL0     C35192   8.543  11.021  10.107  1.0795  0.4003 -1.6059
 1002MOL0     O35193   8.522  11.030   9.978 -0.9466  0.8545  0.4928
 1002MOL0     C35194   8.438  10.931   9.923 -0.1560 -0.0634 -0.1586
 1002MOL0     C35195   8.417  10.935   9.769  0.1238  0.4534 -0.3177
 1002MOL0     C35196   8.335  10.817   9.715  0.0820  0.0012  0.1800
 1002MOL0     C35197   8.332  10.812   9.560 -1.2516 -0.6165 -0.8164
 1002MOL0     C35198   8.316  10.941   9.495 -0.3833  0.7201  0.1995
 1002MOL0     C35199   8.308  11.045   9.449  0.2553 -0.2659  0.5765
 1002MOL0     C35200   8.473  10.933  10.195 -0.2302  0.1804  0.1743
 1002MOL0     C35201   8.510  10.933  10.329  0.6348  0.8989  0.3701
 1002MOL0     C35202   8.447  10.821  10.403 -0.0195  0.8842  0.1753
 1002MOL0     H35203   8.964  11.223  10.640 -0.7858  0.1685 -0.7443
 1002MOL0     H35204   9.045  11.249  10.856  0.0334 -0.0704  0.3094
 1002MOL0     H35205   9.160  11.164  11.061  1.6971  0.3557  2.6037
 1002MOL0     H35206   9.063  11.309  11.061 -1.2667  1.2876  0.4373
 1002MOL0     H35207   9.001  11.256  11.312 -1.1947 -2.3690 -0.5658
 1002MOL0     H35208   9.162  11.293  11.288 -0.0798 -1.8409  3.5460
 1002MOL0     H35209   9.166  11.017  11.248  4.2962  0.8470  1.5402
 1002MOL0     H35210   9.022  11.039  11.350  1.8670 -2.6074  2.4893
 1002MOL0     H35211   9.313  11.095  11.407 -0.0070 -3.6240 -2.3606
 1002MOL0     H35212   9.190  11.158  11.519  1.7669 -1.5012  1.3685
 1002MOL0     H35213   9.262  10.958  11.622  2.1056 -3.7253 -0.4397
 1002MOL0     H35214   9.106  10.934  11.547  0.0991  0.4316  1.4170
 1002MOL0     H35215   9.264  10.741  11.518 -1.3673  0.1186  0.2937
 1002MOL0     H35216   9.186  10.808  11.372  0.2191 -4.3367 -0.9638
 1002MOL0     H35217   9.404  10.919  11.321  1.2797 -1.2778 -3.7648
 1002MOL0     H35218   9.401  10.752  11.299 -0.8766  2.4727 -0.5425
 1002MOL0     H35219   9.528  10.687  11.459 -1.1969  0.3840  1.7305
 1002MOL0     H35220   9.601  10.839  11.409  0.7220  3.6767  3.8702
 1002MOL0     H35221   9.529  10.660  11.723 -1.6821  0.4488  0.3444
 1002MOL0     H35222   9.651  10.837  12.000 -0.5947  0.2071  0.1101
 1002MOL0     H35223   9.502  10.898  12.035  0.6557 -0.6021  0.5824
 1002MOL0     H35224   9.563  10.598  11.959 -1.6335 -2.6589  0.1132
 1002MOL0     H35225   9.543  10.665  12.122  1.0694 -1.6320 -0.2737
 1002MOL0     H35226   9.339  10.630  12.125  3.3116 -2.5650  0.2993
 1002MOL0     H35227   9.341  10.545  11.972 -7.8026  0.1244  2.1201
 1002MOL0     H35228   9.170  10.683  11.942  1.9010 -3.3994  1.5893
 1002MOL0     H35229   9.313  10.764  11.860  1.5948 -2.6290 -0.9430
 1002MOL0     H35230   9.017  10.895  12.139 -0.4482  0.5952  0.0865
 1002MOL0     H35231   8.837  11.029  12.041  0.8519  1.2744  2.1843
 1002MOL0     H35232   8.501  11.178  11.968 -0.6065  0.1597 -1.0646
 1002MOL0     H35233   8.297  11.291  11.908 -2.0411 -1.5662 -3.9053
 1002MOL0     H35234   8.323  11.606  11.557  1.4493 -0.9934  1.4960
 1002MOL0     H35235   8.285  11.444  11.498 -2.4106  0.4090 -1.2875
 1002MOL0     H35236   8.057  11.449  11.542 -1.4998  0.1398 -1.1724
 1002MOL0     H35237   8.079  11.587  11.647  3.3229 -0.7081  0.6517
 1002MOL0     H35238   7.971  11.667  11.429 -0.0455 -1.3430 -0.3066
 1002MOL0     H35239   8.126  11.739  11.451 -3.4962  1.1180  1.5261
 1002MOL0     H35240   8.234  11.591  11.293  0.9843 -3.7048 -1.6512
 1002MOL0     H35241   8.086  11.662  11.224  2.3119  1.9330  1.2074
 1002MOL0     H35242   7.969  11.438  11.290  0.6785  0.6945  1.3620
 1002MOL0     H35243   8.126  11.382  11.351  0.5499  2.2382  0.7533
 1002MOL0     H35244   8.037  11.318  11.107  0.3909 -0.3203 -3.1208
 1002MOL0     H35245   8.083  11.481  11.065 -2.1617  1.1599  0.9864
 1002MOL0     H35246   8.317  11.384  11.222 -0.7929  0.6878 -0.5486
 1002MOL0     H35247   8.315  11.421  11.054  0.3359 -3.7072 -3.0465
 1002MOL0     H35248   8.227  11.201  10.991  0.0277 -0.5963  0.0820
 1002MOL0     H35249   8.384  11.203  11.065  0.1043 -1.1516 -0.2125
 1002MOL0     H35250   8.522  11.503  11.594 -0.7824 -1.4865 -1.2646
 1002MOL0     H35251   8.708  11.373  11.651 -0.4454  2.4725 -0.4310
 1002MOL0     H35252   9.138  11.183  11.764 -1.8732  1.0326 -0.2918
 1002MOL0     H35253   9.302  11.013  11.853 -0.3483  1.5327  0.6498
 1002MOL0     H35254   8.750  10.971  11.016 -0.4184 -0.0398  0.0130
 1002MOL0     H35255   8.654  10.960  10.810  0.9719 -0.6932  2.5533
 1002MOL0     H35256   8.741  11.178  10.329  0.1747  1.0962 -2.2670
 1002MOL0     H35257   8.682  11.178  10.096  1.3916  0.8371 -0.1198
 1002MOL0     H35258   8.342  10.951   9.972 -0.5867  0.9730 -1.3853
 1002MOL0     H35259   8.475  10.833   9.954  1.8979  0.7609  0.1750
 1002MOL0     H35260   8.516  10.933   9.723 -0.5302 -1.4318 -1.7540
 1002MOL0     H35261   8.385  11.037   9.747 -0.6435  0.6846  1.6137
 1002MOL0     H35262   8.232  10.829   9.750  0.4413 -1.0686  1.6873
 1002MOL0     H35263   8.381  10.725   9.750  0.5621  0.7393  1.5683
 1002MOL0     H35264   8.413  10.745   9.528 -0.0958  1.6256 -2.8463
 1002MOL0     H35265   8.243  10.755   9.533 -0.4172 -0.7536 -3.6316
 1002MOL0     H35266   8.308  11.143   9.405  0.6373 -1.5002 -2.4398
 1002MOL0     H35267   8.390  10.867  10.171 -1.4894  0.3562  3.4332
 1002MOL0     H35268   8.438  10.729  10.345 -3.9526  2.2192 -1.6521
 1002MOL0     H35269   8.495  10.809  10.501 -1.6294 -3.9161  0.6051
 1002MOL0     H35270   8.346  10.843  10.437  0.0911 -1.0778  2.0129
 1003MOL0     O35271   2.438   3.085   5.213 -0.7574  0.0686  0.3446
 1003MOL0     C35272   2.445   3.095   5.335  1.1013 -1.4653 -0.0372
 1003MOL0     O35273   2.368   3.180   5.414 -0.3099 -0.0083  0.6588
 1003MOL0     C35274   2.292   3.280   5.360 -1.1443  1.0793 -0.1344
 1003MOL0     C35275   2.159   3.286   5.403  0.3548 -0.2497  0.4402
 1003MOL0     C35276   2.077   3.382   5.356  0.3515  1.1082  0.4338
 1003MOL0     C35277   2.121   3.481   5.274  1.8607 -0.4301  0.8977
 1003MOL0     O35278   2.021   3.580   5.252 -0.2873  0.6697  0.2616
 1003MOL0     C35279   2.061   3.712   5.224  0.8373 -1.0086 -1.2260
 1003MOL0     C35280   2.012   3.756   5.093  0.4996  0.6139  0.8807
 1003MOL0     C35281   1.980   3.910   5.088 -0.2403 -1.3960 -0.5409
 1003MOL0     C35282   2.103   3.990   5.048  0.5814 -0.0399  1.0541
 1003MOL0     C35283   2.054   4.125   5.006 -0.0595  0.6869  0.1919
 1003MOL0     C35284   2.159   4.215   4.946  0.1145  0.3295 -0.2636
 1003MOL0     C35285   2.094   4.346   4.894 -0.0340  0.7318  0.3291
 1003MOL0     C35286   2.210   4.432   4.831  0.1442 -0.4879 -0.3116
 1003MOL0     N35287   2.154   4.537   4.749  1.0670 -0.1576 -0.1143
 1003MOL0     C35288   2.169   4.672   4.765 -0.2316  1.0288 -0.5968
 1003MOL0     C35289   2.128   4.726   4.652 -0.3907 -0.7116  0.0668
 1003MOL0     C35290   2.127   4.874   4.620  0.5009 -0.1962  0.0251
 1003MOL0     C35291   1.987   4.936   4.623  0.0882  0.9163 -0.2668
 1003MOL0     C35292   1.989   5.093   4.651 -0.2563 -0.1502 -0.1090
 1003MOL0     C35293   1.854   5.168   4.643  0.7622 -0.6737 -0.3605
 1003MOL0     O35294   1.850   5.308   4.638  0.5139 -0.5379 -0.3054
 1003MOL0     C35295   1.737   5.376   4.677  2.0446 -1.1683 -0.1962
 1003MOL0     C35296   1.733   5.509   4.644 -0.2447 -1.0761 -1.0772
 1003MOL0     C35297   1.623   5.592   4.666  0.2654 -0.3109  0.3691
 1003MOL0     C35298   1.516   5.542   4.739 -1.0797  0.0573  0.0230
 1003MOL0     C35299   1.420   5.627   4.789 -0.6841  0.1656 -0.2828
 1003MOL0     O35300   1.391   5.738   4.723 -0.0625  0.1151 -0.4502
 1003MOL0     C35301   1.280   5.804   4.771 -0.2182 -0.8900  0.7946
 1003MOL0     C35302   1.304   5.941   4.799 -0.1667  0.3996  0.3586
 1003MOL0     C35303   1.201   6.021   4.844 -0.8506  0.6521 -0.4839
 1003MOL0     C35304   1.070   5.980   4.878 -0.1958  0.0973  0.1894
 1003MOL0     O35305   0.994   6.071   4.950  0.5700 -0.0631 -0.5191
 1003MOL0     C35306   0.875   6.104   4.888 -1.2515  0.3491 -0.0639
 1003MOL0     C35307   0.890   6.217   4.765  0.0431  1.4746  0.5125
 1003MOL0     C35308   0.759   6.292   4.734  0.2881  0.0291 -0.3830
 1003MOL0     C35309   0.749   6.348   4.589  0.9398 -0.9165 -0.3932
 1003MOL0     C35310   0.620   6.431   4.568  0.0412 -0.1248  0.0629
 1003MOL0     C35311   0.588   6.447   4.423 -0.1208  0.2788 -0.2484
 1003MOL0     C35312   0.700   6.519   4.341  1.1775  0.0499 -0.6582
 1003MOL0     C35313   0.682   6.500   4.192  0.3939  0.1066 -1.3581
 1003MOL0    Cl35314   0.551   6.613   4.137 -0.3393  0.4595  0.1599
 1003MOL0     C35315   1.050   5.840   4.855  1.1963  0.0828  0.1743
 1003MOL0     C35316   1.154   5.750   4.808 -0.3063 -0.3626 -0.2143
 1003MOL0     O35317   1.370   5.588   4.893  0.1053  0.4317 -0.8968
 1003MOL0     C35318   1.514   5.405   4.770 -0.1707  0.0601 -0.1954
 1003MOL0     C35319   1.617   5.321   4.724  0.6767 -0.3207  0.0158
 1003MOL0     N35320   2.089   4.631   4.566  0.1460 -0.5855  0.1044
 1003MOL0     N35321   2.101   4.512   4.622 -0.1386  0.0477 -0.1155
 1003MOL0     C35322   2.248   3.475   5.225  0.1181  0.3899 -0.3884
 1003MOL0     C35323   2.341   3.377   5.266 -0.3968 -0.2648 -0.3436
 1003MOL0     C35324   2.533   3.008   5.406  0.2028  0.1746  0.7156
 1003MOL0     C35325   2.472   2.911   5.485 -0.7728  0.1544  0.3658
 1003MOL0     C35326   2.550   2.810   5.547 -0.6027  0.1700  0.3765
 1003MOL0     C35327   2.689   2.800   5.528 -0.0089  0.2844  0.0058
 1003MOL0     O35328   2.758   2.697   5.600  0.9287  0.7636  0.4919
 1003MOL0     C35329   2.884   2.650   5.557 -0.3052 -0.0723  1.5793
 1003MOL0     C35330   3.003   2.735   5.592 -0.8654 -0.1171  0.7382
 1003MOL0     C35331   3.062   2.669   5.716 -1.1324 -0.9572  0.5466
 1003MOL0     C35332   3.193   2.745   5.731 -0.6595 -0.8458  0.3739
 1003MOL0     C35333   3.264   2.699   5.848  0.4203  0.9323  0.1526
 1003MOL0     C35334   3.328   2.632   5.926 -0.2341  0.4012  0.1703
 1003MOL0     C35335   2.748   2.896   5.442 -0.4681 -0.3214  0.1550
 1003MOL0     C35336   2.668   3.004   5.384 -1.4342  0.3893 -0.9706
 1003MOL0     C35337   2.742   3.094   5.302  1.2674 -0.0720 -0.3792
 1003MOL0     H35338   2.144   3.217   5.485 -0.2259  1.5334  1.8979
 1003MOL0     H35339   1.973   3.383   5.387  0.1423 -1.9899  0.1222
 1003MOL0     H35340   2.003   3.768   5.298 -0.7690 -1.2137 -2.2761
 1003MOL0     H35341   2.162   3.750   5.241  0.4617 -0.8813  1.0370
 1003MOL0     H35342   1.931   3.685   5.076  0.7032  0.5336  0.2051
 1003MOL0     H35343   2.088   3.734   5.017 -1.4554 -2.5580 -0.3517
 1003MOL0     H35344   1.935   3.948   5.180 -0.6610 -0.9319 -0.9319
 1003MOL0     H35345   1.906   3.919   5.007  0.5374  2.8431 -0.9794
 1003MOL0     H35346   2.159   4.012   5.139 -0.4377  1.7082  1.2996
 1003MOL0     H35347   2.167   3.943   4.972 -1.5766  2.8858 -2.9986
 1003MOL0     H35348   1.980   4.113   4.926  0.6270  2.1347 -0.7062
 1003MOL0     H35349   2.009   4.172   5.094 -1.4339  2.5651 -1.3935
 1003MOL0     H35350   2.231   4.236   5.026  1.2573  1.8727 -1.6385
 1003MOL0     H35351   2.207   4.164   4.862 -1.8906  1.2193 -2.0708
 1003MOL0     H35352   2.051   4.395   4.982  2.1605  0.2928  1.7522
 1003MOL0     H35353   2.012   4.333   4.823 -0.6742  0.1262  1.1721
 1003MOL0     H35354   2.274   4.476   4.908  0.8628 -0.0936 -1.1186
 1003MOL0     H35355   2.277   4.370   4.771  3.9225  1.0350  1.9735
 1003MOL0     H35356   2.212   4.719   4.852 -0.7298 -2.0713  1.5003
 1003MOL0     H35357   2.188   4.923   4.696  0.4894 -0.6820  0.3453
 1003MOL0     H35358   2.184   4.893   4.529 -0.0904 -1.6786 -0.6910
 1003MOL0     H35359   1.930   4.920   4.531 -3.6546 -0.7280  2.1050
 1003MOL0     H35360   1.929   4.889   4.703  1.4080 -0.7729 -0.2416
 1003MOL0     H35361   2.050   5.137   4.572 -1.2488  3.5728  1.0016
 1003MOL0     H35362   2.044   5.101   4.746  1.2205 -0.2321 -0.9319
 1003MOL0     H35363   1.788   5.126   4.720 -0.2935  1.8749  0.2198
 1003MOL0     H35364   1.797   5.140   4.554  1.8635 -0.0631 -1.2767
 1003MOL0     H35365   1.822   5.567   4.621 -1.4983  2.1481  1.2523
 1003MOL0     H35366   1.619   5.698   4.640 -1.0868 -0.5940 -0.6157
 1003MOL0     H35367   1.402   5.984   4.783  0.0261 -0.1982 -0.1371
 1003MOL0     H35368   1.219   6.127   4.855 -1.9819  1.0573 -2.1836
 1003MOL0     H35369   0.828   6.009   4.861 -0.7969  0.5354 -1.6118
 1003MOL0     H35370   0.806   6.148   4.960 -2.0527 -1.1322  0.1131
 1003MOL0     H35371   0.968   6.290   4.791  0.9330 -0.0873  2.5400
 1003MOL0     H35372   0.930   6.157   4.682 -2.3601  0.4539  0.0194
 1003MOL0     H35373   0.675   6.223   4.746 -3.0422  4.0267  1.8007
 1003MOL0     H35374   0.739   6.376   4.801  3.3869 -0.1539  0.9703
 1003MOL0     H35375   0.760   6.263   4.521  2.1868  1.3884 -3.3109
 1003MOL0     H35376   0.839   6.397   4.550 -1.6985  3.0414 -2.3089
 1003MOL0     H35377   0.626   6.533   4.605 -3.0219 -0.5919  2.2203
 1003MOL0     H35378   0.535   6.379   4.613 -0.9334  0.3519 -1.1864
 1003MOL0     H35379   0.588   6.343   4.391 -1.2981 -0.2588  1.3905
 1003MOL0     H35380   0.496   6.504   4.409 -0.7095 -1.0128 -1.9265
 1003MOL0     H35381   0.801   6.499   4.379  1.1111 -2.4265 -1.6004
 1003MOL0     H35382   0.677   6.624   4.358 -3.0491 -0.6100 -1.2215
 1003MOL0     H35383   0.776   6.537   4.151  0.0843  2.1739 -0.3216
 1003MOL0     H35384   0.671   6.398   4.154  0.6234 -0.3217 -0.2938
 1003MOL0     H35385   0.959   5.788   4.882  0.7532 -0.2296 -1.7532
 1003MOL0     H35386   1.120   5.650   4.786 -1.1076  0.4886 -3.2437
 1003MOL0     H35387   1.427   5.360   4.815 -0.3499 -1.8203 -2.2386
 1003MOL0     H35388   1.584   5.220   4.744 -6.1932  1.4285  0.1182
 1003MOL0     H35389   2.291   3.557   5.170  3.7273 -0.8148  0.3370
 1003MOL0     H35390   2.440   3.379   5.221 -0.5780  0.3409 -0.7315
 1003MOL0     H35391   2.365   2.920   5.499 -1.4483  0.2558 -3.6362
 1003MOL0     H35392   2.506   2.726   5.600  2.5828  0.1709  3.3346
 1003MOL0     H35393   2.880   2.638   5.448  0.7377 -0.2983  1.5628
 1003MOL0     H35394   2.903   2.547   5.588 -0.3512 -1.0741 -1.3487
 1003MOL0     H35395   2.977   2.839   5.611  2.2746  0.6101  1.6198
 1003MOL0     H35396   3.080   2.732   5.514 -0.3811  1.0674  1.1539
 1003MOL0     H35397   3.088   2.563   5.706  1.6945 -0.1085 -2.8571
 1003MOL0     H35398   3.013   2.699   5.810 -0.2744  0.9152  0.4415
 1003MOL0     H35399   3.259   2.741   5.643  1.3866 -3.3613  1.8767
 1003MOL0     H35400   3.164   2.847   5.755 -2.0964 -1.7544  2.8979
 1003MOL0     H35401   3.391   2.561   5.976 -0.6190 -1.1803 -1.4809
 1003MOL0     H35402   2.855   2.903   5.428 -0.1710  0.5338  2.3760
 1003MOL0     H35403   2.774   3.187   5.351  1.9775 -0.7928  0.5754
 1003MOL0     H35404   2.824   3.040   5.253  0.9917 -0.8095 -0.0423
 1003MOL0     H35405   2.680   3.125   5.218 -1.1079 -2.0803  0.5222
 1004MOL0     O35406   9.490   6.910   9.037  0.3813  0.3183 -0.3909
 1004MOL0     C35407   9.558   6.815   9.092  0.6526 -0.0143  0.3184
 1004MOL0     O35408   9.607   6.814   9.217 -0.2850  1.2484 -0.4396
 1004MOL0     C35409   9.569   6.917   9.300  0.1694 -0.9889 -0.2251
 1004MOL0     C35410   9.669   6.975   9.388 -0.0104  1.4023 -0.1980
 1004MOL0     C35411   9.631   7.058   9.491 -0.3675 -0.7800  0.1868
 1004MOL0     C35412   9.504   7.098   9.509  1.3315  0.2536 -1.3377
 1004MOL0     O35413   9.457   7.169   9.622 -0.1038  1.2453 -0.0925
 1004MOL0     C35414   9.514   7.298   9.654  0.8120 -0.6200  0.4762
 1004MOL0     C35415   9.434   7.411   9.595  0.4073  0.0547  0.0326
 1004MOL0     C35416   9.289   7.412   9.638 -0.0204  0.7465  0.4418
 1004MOL0     C35417   9.200   7.504   9.561  0.2505 -0.6580  0.2003
 1004MOL0     C35418   9.147   7.449   9.428  1.0085 -0.1719  0.0602
 1004MOL0     C35419   9.050   7.548   9.341 -0.3054 -0.1475 -0.2454
 1004MOL0     C35420   9.124   7.671   9.285  0.9186 -0.0868 -0.1642
 1004MOL0     C35421   9.022   7.759   9.205 -1.1542 -0.0628  0.0314
 1004MOL0     N35422   8.963   7.706   9.080 -0.3983  0.3642  1.0974
 1004MOL0     C35423   9.026   7.717   8.954 -0.0006  0.0644  0.9234
 1004MOL0     C35424   8.946   7.653   8.869 -0.3542  0.2100 -0.1312
 1004MOL0     C35425   8.967   7.618   8.729  0.7911 -0.3331 -0.3743
 1004MOL0     C35426   8.999   7.474   8.717 -0.5675 -0.2725 -0.4556
 1004MOL0     C35427   9.064   7.449   8.579 -0.3074 -0.3534 -0.0157
 1004MOL0     C35428   9.137   7.320   8.577 -0.0691 -0.3427 -0.0042
 1004MOL0     O35429   9.042   7.222   8.602  0.2919 -0.0887 -0.1459
 1004MOL0     C35430   9.066   7.089   8.582  0.2852 -0.2332  0.7845
 1004MOL0     C35431   9.087   7.031   8.452 -0.4855 -0.3524 -0.5781
 1004MOL0     C35432   9.123   6.901   8.433 -0.0166 -0.6625 -0.4099
 1004MOL0     C35433   9.133   6.802   8.534 -0.1636 -0.6097 -0.1512
 1004MOL0     C35434   9.142   6.653   8.498 -0.7832  0.3308  1.2594
 1004MOL0     O35435   9.206   6.618   8.382 -0.1584  1.0025 -0.1745
 1004MOL0     C35436   9.262   6.494   8.359  0.3713  0.9956  0.3970
 1004MOL0     C35437   9.364   6.457   8.435  0.0900 -0.3646 -0.1194
 1004MOL0     C35438   9.432   6.340   8.403  0.9002 -0.6975  0.2272
 1004MOL0     C35439   9.387   6.263   8.291 -0.4363  0.5455 -1.9168
 1004MOL0     O35440   9.462   6.155   8.248 -0.1002 -0.8014  0.3950
 1004MOL0     C35441   9.382   6.033   8.225 -0.0110  0.2825 -0.7548
 1004MOL0     C35442   9.466   5.901   8.273  0.1761  0.1108  0.4641
 1004MOL0     C35443   9.562   5.840   8.171  0.2406 -0.5384  0.4539
 1004MOL0     C35444   9.541   5.690   8.181  0.4310  0.4351  0.2301
 1004MOL0     C35445   9.649   5.614   8.121  0.9567 -0.4065  0.1849
 1004MOL0     C35446   9.636   5.589   7.969  0.5658  0.7082 -0.7706
 1004MOL0     C35447   9.745   5.673   7.894  0.1598 -0.5954  0.5741
 1004MOL0     C35448   9.879   5.599   7.893  0.4540  0.7857  0.8556
 1004MOL0    Cl35449   9.979   5.677   7.773  0.3665  0.1107  0.3074
 1004MOL0     C35450   9.273   6.298   8.228  0.6403  0.9030 -0.0886
 1004MOL0     C35451   9.216   6.417   8.259  0.1814  0.3666  0.5512
 1004MOL0     O35452   9.120   6.575   8.596  0.1921 -0.1537 -0.0293
 1004MOL0     C35453   9.120   6.854   8.667  0.2073 -0.4075  0.4411
 1004MOL0     C35454   9.083   6.998   8.689  0.5145  0.0098  0.1422
 1004MOL0     N35455   8.836   7.618   8.943  0.1839  0.2347 -0.2612
 1004MOL0     N35456   8.844   7.642   9.064 -0.2284 -0.2417 -0.6966
 1004MOL0     C35457   9.404   7.054   9.427 -0.1175 -0.3477  0.7504
 1004MOL0     C35458   9.439   6.967   9.320  1.6596 -0.0585  0.9913
 1004MOL0     C35459   9.586   6.699   9.008 -0.6896 -0.3990  1.1681
 1004MOL0     C35460   9.714   6.644   9.038 -0.4573  0.0436  0.0254
 1004MOL0     C35461   9.766   6.537   8.965 -0.9734  0.1708  0.4758
 1004MOL0     C35462   9.687   6.483   8.865 -0.7421 -0.5553  0.8833
 1004MOL0     O35463   9.738   6.377   8.790  0.1781  0.1711  0.3128
 1004MOL0     C35464   9.882   6.359   8.771  0.1551  0.6031  1.1317
 1004MOL0     C35465   9.910   6.295   8.630  0.1680  0.6227  0.1440
 1004MOL0     C35466   9.865   6.150   8.626  0.4030 -0.6066  0.1711
 1004MOL0     C35467   9.858   6.087   8.481 -0.5675 -0.3726 -0.5349
 1004MOL0     C35468   9.821   5.945   8.490 -0.1147  0.0187  0.3432
 1004MOL0     C35469   9.770   5.839   8.498 -0.1438 -0.4838 -0.2360
 1004MOL0     C35470   9.564   6.537   8.829 -0.4929  0.3113 -0.8426
 1004MOL0     C35471   9.518   6.656   8.891  0.4701  0.2713 -0.1212
 1004MOL0     C35472   9.380   6.711   8.853 -0.9117 -0.5249 -0.6618
 1004MOL0     H35473   9.770   6.935   9.379 -0.0337  0.9347  1.3103
 1004MOL0     H35474   9.700   7.087   9.570 -0.4981 -0.0529  0.0437
 1004MOL0     H35475   9.512   7.301   9.763 -1.2670 -2.4226  0.5499
 1004MOL0     H35476   9.617   7.320   9.624  1.2459  2.1491  3.4114
 1004MOL0     H35477   9.433   7.405   9.486 -0.1194 -0.8695  0.0808
 1004MOL0     H35478   9.489   7.501   9.624  2.7106 -1.8614  2.0672
 1004MOL0     H35479   9.282   7.434   9.745 -3.1344 -0.8397  0.7093
 1004MOL0     H35480   9.262   7.305   9.635  3.5273 -0.3349 -3.7642
 1004MOL0     H35481   9.108   7.522   9.617 -1.6206 -1.4724 -2.4438
 1004MOL0     H35482   9.260   7.593   9.542 -0.1058 -0.9341 -2.5828
 1004MOL0     H35483   9.213   7.400   9.356 -1.1216 -2.4799 -0.4552
 1004MOL0     H35484   9.078   7.372   9.465 -0.6075  2.3336  2.7088
 1004MOL0     H35485   9.026   7.490   9.251  1.4432  0.3391 -1.0783
 1004MOL0     H35486   8.957   7.575   9.392 -0.0169  1.7210 -0.6258
 1004MOL0     H35487   9.214   7.645   9.229  0.5812 -2.4301  0.2936
 1004MOL0     H35488   9.153   7.732   9.371  0.0009 -1.3369  1.0845
 1004MOL0     H35489   8.931   7.757   9.266 -0.1062 -0.9291  1.6227
 1004MOL0     H35490   9.047   7.864   9.186 -1.7381 -0.0866 -0.9084
 1004MOL0     H35491   9.125   7.755   8.931  0.7789 -1.1137  2.2400
 1004MOL0     H35492   8.877   7.648   8.675  1.3288  0.3699 -0.8944
 1004MOL0     H35493   9.055   7.673   8.695  1.6494  0.0551  2.2326
 1004MOL0     H35494   9.062   7.455   8.804 -0.0269  4.2618  0.4097
 1004MOL0     H35495   8.903   7.421   8.719 -1.2663  0.9124 -1.2179
 1004MOL0     H35496   9.139   7.529   8.576 -3.2779  2.5807 -0.7687
 1004MOL0     H35497   8.999   7.448   8.492 -0.3976  0.6567  0.0379
 1004MOL0     H35498   9.211   7.332   8.657  0.5242 -1.2788 -0.3877
 1004MOL0     H35499   9.198   7.301   8.488  2.5373 -0.4293  1.6782
 1004MOL0     H35500   9.088   7.090   8.360  0.4818  1.5431  0.5747
 1004MOL0     H35501   9.147   6.883   8.329  1.3643  1.2782 -0.4843
 1004MOL0     H35502   9.385   6.513   8.526 -1.3290  2.1648 -1.2390
 1004MOL0     H35503   9.520   6.321   8.464  2.4900  3.1540 -0.5694
 1004MOL0     H35504   9.286   6.038   8.278  0.3973  0.3176 -0.0106
 1004MOL0     H35505   9.362   6.036   8.118  0.1537 -2.7055 -0.9636
 1004MOL0     H35506   9.519   5.922   8.367 -0.3356  4.3000 -0.0062
 1004MOL0     H35507   9.395   5.824   8.303 -1.5474  1.0168 -1.0723
 1004MOL0     H35508   9.553   5.869   8.066  3.2648 -0.7800  0.0624
 1004MOL0     H35509   9.660   5.874   8.203 -0.2224  2.9996 -1.3798
 1004MOL0     H35510   9.448   5.661   8.130 -0.1183 -0.6366  1.7633
 1004MOL0     H35511   9.518   5.649   8.280  0.1784 -3.1618 -1.1538
 1004MOL0     H35512   9.642   5.512   8.160  2.1087 -0.1720  1.0562
 1004MOL0     H35513   9.746   5.658   8.146 -0.5177  1.0982  3.8558
 1004MOL0     H35514   9.663   5.485   7.949 -1.7609 -0.1359  0.1956
 1004MOL0     H35515   9.538   5.614   7.927  0.3908  3.1788  0.8945
 1004MOL0     H35516   9.748   5.768   7.949 -1.4013 -0.5028  0.5393
 1004MOL0     H35517   9.711   5.685   7.791  3.2859  0.2752 -0.4796
 1004MOL0     H35518   9.930   5.609   7.989 -2.1196  1.1744  2.2782
 1004MOL0     H35519   9.855   5.498   7.857 -1.9316  1.8072 -0.6602
 1004MOL0     H35520   9.234   6.248   8.140  1.2044  1.1234 -0.4700
 1004MOL0     H35521   9.143   6.467   8.196 -0.7021  3.4683  3.6513
 1004MOL0     H35522   9.137   6.789   8.752  2.5575  0.5070  0.7361
 1004MOL0     H35523   9.075   7.037   8.790 -4.3399  0.8420 -0.3340
 1004MOL0     H35524   9.301   7.087   9.434  0.3222  2.2633 -2.5067
 1004MOL0     H35525   9.356   6.931   9.261  2.4410  0.2392 -0.3188
 1004MOL0     H35526   9.777   6.678   9.120 -2.3956  0.3400  1.4496
 1004MOL0     H35527   9.870   6.511   8.985 -1.5299 -1.5690  1.2791
 1004MOL0     H35528   9.924   6.286   8.840  1.7513  2.2348  1.9382
 1004MOL0     H35529   9.939   6.450   8.789  1.7421  0.1253 -1.0466
 1004MOL0     H35530  10.019   6.286   8.620 -0.0252 -1.0713 -0.9638
 1004MOL0     H35531   9.865   6.355   8.551 -0.0521  2.9701  1.9394
 1004MOL0     H35532   9.770   6.139   8.679 -0.6079 -0.1105 -1.4756
 1004MOL0     H35533   9.929   6.089   8.692 -0.1754  0.3264  1.6494
 1004MOL0     H35534   9.800   6.145   8.408 -0.6193 -1.9611 -1.7992
 1004MOL0     H35535   9.960   6.100   8.444 -0.9562  1.7866 -1.0254
 1004MOL0     H35536   9.746   5.734   8.493 -1.3739 -0.2321 -0.0190
 1004MOL0     H35537   9.500   6.496   8.752 -0.4058  2.0843 -1.9345
 1004MOL0     H35538   9.389   6.703   8.744  3.7131  1.4389 -0.6858
 1004MOL0     H35539   9.294   6.653   8.887  0.4264 -2.5154 -0.4987
 1004MOL0     H35540   9.377   6.819   8.870 -0.4510 -0.8527  1.9497
 1005MOL0     O35541   8.682   1.050   5.846  0.2226 -0.0787  0.4332
 1005MOL0     C35542   8.792   0.992   5.850 -0.2081  0.7836 -0.2398
 1005MOL0     O35543   8.809   0.860   5.835  0.5770  0.0490 -0.9518
 1005MOL0     C35544   8.714   0.775   5.888 -0.2712 -0.6708  0.0800
 1005MOL0     C35545   8.723   0.642   5.846 -0.0108 -0.2138  0.6136
 1005MOL0     C35546   8.634   0.552   5.896  0.2227  1.2022  0.1706
 1005MOL0     C35547   8.544   0.577   5.987  0.1433  0.4135 -0.3573
 1005MOL0     O35548   8.464   0.474   6.028  0.7695  0.0550  0.5063
 1005MOL0     C35549   8.333   0.509   6.076  1.4984  0.4120  1.0701
 1005MOL0     C35550   8.206   0.409   6.050  0.5141 -0.3985 -0.2355
 1005MOL0     C35551   8.233   0.347   5.915 -0.5348 -0.6034 -0.2449
 1005MOL0     C35552   8.116   0.244   5.886  0.0268  0.1686  0.8343
 1005MOL0     C35553   8.135   0.180   5.744 -0.4952 -0.3055  1.3246
 1005MOL0     C35554   8.037   0.058   5.740  0.3963  0.9559 -0.2000
 1005MOL0     C35555   7.954   0.032   5.612  0.5946  0.4352  1.3060
 1005MOL0     C35556   7.858  -0.095   5.606  0.0287  0.6517 -0.4123
 1005MOL0     N35557   7.749  -0.086   5.513  0.9441 -0.5483  0.3164
 1005MOL0     C35558   7.619  -0.102   5.559 -0.2503  0.3012 -1.3621
 1005MOL0     C35559   7.540  -0.147   5.462  0.0810 -0.1939  0.2802
 1005MOL0     C35560   7.393  -0.195   5.466 -0.1779  0.2894  0.2217
 1005MOL0     C35561   7.294  -0.095   5.420 -0.3116  0.2524 -0.0632
 1005MOL0     C35562   7.147  -0.153   5.418  0.1221 -0.5773  0.0725
 1005MOL0     C35563   7.052  -0.035   5.423 -0.3147 -0.1487  1.3623
 1005MOL0     O35564   6.934  -0.091   5.478  0.5112  0.4335 -0.1460
 1005MOL0     C35565   6.821  -0.124   5.407 -0.6276 -0.6853 -0.7724
 1005MOL0     C35566   6.694  -0.113   5.461 -0.2939 -0.9454 -0.5438
 1005MOL0     C35567   6.575  -0.131   5.383 -0.1070  0.5462 -0.7075
 1005MOL0     C35568   6.589  -0.157   5.249  0.5676 -0.1924 -0.0520
 1005MOL0     C35569   6.468  -0.171   5.162 -0.3136  0.4968 -0.3969
 1005MOL0     O35570   6.481  -0.159   5.031  0.4545 -0.2420 -0.1852
 1005MOL0     C35571   6.379  -0.172   4.942  0.0406 -0.0141 -0.0356
 1005MOL0     C35572   6.402  -0.241   4.825 -0.5944 -0.2707  0.2123
 1005MOL0     C35573   6.308  -0.250   4.726 -0.7906  0.0632  0.2223
 1005MOL0     C35574   6.182  -0.196   4.733  0.7642 -0.5777  0.5373
 1005MOL0     O35575   6.092  -0.215   4.630 -0.2066 -1.0207 -0.2091
 1005MOL0     C35576   5.954  -0.153   4.651 -1.5501 -0.4956 -0.0186
 1005MOL0     C35577   5.862  -0.181   4.535 -0.5980  0.1680 -0.7105
 1005MOL0     C35578   5.902  -0.122   4.396 -1.2798 -0.4003 -0.0452
 1005MOL0     C35579   5.801  -0.157   4.300 -0.3575  0.2365  0.1724
 1005MOL0     C35580   5.828  -0.124   4.146  0.6044 -0.2242  0.9531
 1005MOL0     C35581   5.760   0.019   4.120 -0.0154 -0.4573 -0.3325
 1005MOL0     C35582   5.772   0.061   3.977  0.2976  0.6601 -0.2400
 1005MOL0     C35583   5.679   0.172   3.934  0.1937  1.3840  0.3700
 1005MOL0    Cl35584   5.690   0.311   4.039  0.3397  0.0934 -0.0633
 1005MOL0     C35585   6.159  -0.122   4.852  0.5423 -0.0745 -0.2904
 1005MOL0     C35586   6.255  -0.106   4.962 -0.5227  0.5264  0.1118
 1005MOL0     O35587   6.360  -0.186   5.226 -0.1916  1.0097  0.8223
 1005MOL0     C35588   6.714  -0.170   5.193  0.6808  0.3051 -0.6609
 1005MOL0     C35589   6.826  -0.158   5.275 -0.4418  0.0646 -0.4375
 1005MOL0     N35590   7.633  -0.172   5.356  0.8955  1.0833  0.2716
 1005MOL0     N35591   7.756  -0.141   5.388  0.8911 -0.5684 -0.1522
 1005MOL0     C35592   8.546   0.707   6.039 -0.1846 -0.0703  0.3445
 1005MOL0     C35593   8.636   0.805   5.999 -0.6543  0.7265  0.5407
 1005MOL0     C35594   8.908   1.073   5.859 -0.3668 -0.0954  0.1863
 1005MOL0     C35595   8.885   1.212   5.867  0.6260 -0.4380  0.7221
 1005MOL0     C35596   8.989   1.304   5.886 -0.5900 -0.6227  0.4289
 1005MOL0     C35597   9.121   1.264   5.899 -0.0523  1.0470  0.4728
 1005MOL0     O35598   9.225   1.358   5.931  0.6681  0.5805  1.0770
 1005MOL0     C35599   9.312   1.402   5.817  0.1840 -1.4068 -0.0621
 1005MOL0     C35600   9.262   1.520   5.736  0.4884 -0.3479  0.3075
 1005MOL0     C35601   9.198   1.625   5.834 -0.0570 -0.7516 -0.2601
 1005MOL0     C35602   9.142   1.759   5.768 -0.9443  0.1173  0.2715
 1005MOL0     C35603   9.001   1.753   5.764 -0.2274 -1.2894 -0.0903
 1005MOL0     C35604   8.878   1.740   5.773 -0.5401  0.0534 -0.0333
 1005MOL0     C35605   9.145   1.125   5.888 -0.4169 -0.2487 -0.3303
 1005MOL0     C35606   9.047   1.027   5.871  0.4556 -1.0146 -0.1634
 1005MOL0     C35607   9.088   0.879   5.890 -0.8518  0.1782 -0.3083
 1005MOL0     H35608   8.787   0.605   5.766  1.4749 -0.7223  1.9874
 1005MOL0     H35609   8.614   0.459   5.843  4.4703 -0.3528  0.9127
 1005MOL0     H35610   8.332   0.529   6.184 -1.9915  0.8283  1.0937
 1005MOL0     H35611   8.306   0.599   6.019  0.5068 -1.1639 -1.0982
 1005MOL0     H35612   8.112   0.463   6.047  1.6216  1.8519  1.8322
 1005MOL0     H35613   8.191   0.330   6.125  1.2469  0.8170  1.2567
 1005MOL0     H35614   8.332   0.299   5.913  1.6188  3.4721 -0.6128
 1005MOL0     H35615   8.246   0.428   5.844 -0.4389 -0.3310  0.0790
 1005MOL0     H35616   8.105   0.165   5.961  0.7313 -0.8766 -0.1395
 1005MOL0     H35617   8.027   0.307   5.887 -1.2114 -1.5189  1.1398
 1005MOL0     H35618   8.101   0.260   5.678 -1.7557 -0.8394  1.3053
 1005MOL0     H35619   8.236   0.140   5.732 -0.2221  0.2246  1.7916
 1005MOL0     H35620   8.083  -0.039   5.762 -2.6147 -0.2156  1.5055
 1005MOL0     H35621   7.968   0.070   5.824  0.2627 -1.9431  0.2298
 1005MOL0     H35622   8.024   0.036   5.528 -0.5129  0.2350  0.3527
 1005MOL0     H35623   7.899   0.125   5.594  1.4819  0.5602 -1.1348
 1005MOL0     H35624   7.903  -0.188   5.571 -1.5799 -1.8648  3.5570
 1005MOL0     H35625   7.828  -0.126   5.706  0.8102 -0.1511 -0.4166
 1005MOL0     H35626   7.590  -0.085   5.662 -3.8620  1.4541 -2.4211
 1005MOL0     H35627   7.390  -0.287   5.406 -2.7990  1.1886 -1.1790
 1005MOL0     H35628   7.368  -0.224   5.568  0.5208 -1.7704 -0.1470
 1005MOL0     H35629   7.299  -0.004   5.480 -1.3652 -1.1732  2.3339
 1005MOL0     H35630   7.315  -0.077   5.314 -1.5561 -1.1625 -0.5935
 1005MOL0     H35631   7.129  -0.213   5.507 -1.5906 -1.3019 -0.7160
 1005MOL0     H35632   7.131  -0.216   5.330  0.6932  0.0889 -0.5253
 1005MOL0     H35633   7.029   0.001   5.322  0.3448  2.5612  2.0917
 1005MOL0     H35634   7.086   0.048   5.487 -1.1724 -0.2931  2.0264
 1005MOL0     H35635   6.690  -0.096   5.568 -1.1689 -0.0335 -0.7012
 1005MOL0     H35636   6.479  -0.102   5.425  0.8543  0.0384  2.0845
 1005MOL0     H35637   6.503  -0.277   4.807  0.4625  0.8474  3.3368
 1005MOL0     H35638   6.329  -0.292   4.628 -0.6037 -1.3519  0.8472
 1005MOL0     H35639   5.921  -0.197   4.746 -0.1758 -1.3279  0.1153
 1005MOL0     H35640   5.961  -0.045   4.662  2.5809 -0.7839  2.1971
 1005MOL0     H35641   5.861  -0.289   4.519  0.9861  0.0790 -0.3747
 1005MOL0     H35642   5.761  -0.142   4.552 -1.4928 -1.2062 -2.5566
 1005MOL0     H35643   5.912  -0.015   4.417 -1.8145 -0.4132  0.2763
 1005MOL0     H35644   5.996  -0.164   4.359  0.7147  4.6323 -1.5362
 1005MOL0     H35645   5.696  -0.139   4.325 -1.1671  2.5785 -3.9436
 1005MOL0     H35646   5.801  -0.266   4.310 -0.0242  0.3287  1.3969
 1005MOL0     H35647   5.775  -0.194   4.081  1.4362  0.3697 -0.4160
 1005MOL0     H35648   5.934  -0.135   4.120 -0.2454 -0.9496 -2.7717
 1005MOL0     H35649   5.654   0.005   4.142  0.8998 -2.8642  3.2906
 1005MOL0     H35650   5.790   0.092   4.195  0.0469 -1.8073  1.0108
 1005MOL0     H35651   5.760  -0.026   3.913  1.7103  0.3480 -0.1130
 1005MOL0     H35652   5.875   0.099   3.975 -0.6643  3.7746  1.4577
 1005MOL0     H35653   5.709   0.205   3.834 -1.5333 -0.3856 -0.8227
 1005MOL0     H35654   5.574   0.141   3.933  0.6679 -1.2006  4.5463
 1005MOL0     H35655   6.078  -0.051   4.868 -0.2377 -1.3249  1.5851
 1005MOL0     H35656   6.229  -0.055   5.054  0.7060  1.2836  0.0678
 1005MOL0     H35657   6.721  -0.202   5.090  0.4562 -1.0072 -0.2804
 1005MOL0     H35658   6.919  -0.166   5.218 -0.2528  2.6207 -0.6222
 1005MOL0     H35659   8.489   0.730   6.129 -1.2015 -0.3999 -0.1978
 1005MOL0     H35660   8.646   0.906   6.036 -1.2596  2.1396 -2.7991
 1005MOL0     H35661   8.787   1.258   5.874 -1.3780 -4.4653  2.1892
 1005MOL0     H35662   8.957   1.408   5.892  3.2810  0.8587 -1.1799
 1005MOL0     H35663   9.339   1.319   5.751  1.4973 -2.5761  1.8440
 1005MOL0     H35664   9.411   1.426   5.857  0.3911  0.0965 -1.3734
 1005MOL0     H35665   9.192   1.493   5.656 -0.7149 -0.4796  1.3765
 1005MOL0     H35666   9.353   1.564   5.693  0.3936 -1.4586 -1.1089
 1005MOL0     H35667   9.272   1.640   5.913 -1.8652 -2.8558  2.0445
 1005MOL0     H35668   9.110   1.580   5.883 -0.1104  0.2572  0.5980
 1005MOL0     H35669   9.166   1.838   5.840 -2.3375 -0.7711  1.7730
 1005MOL0     H35670   9.201   1.787   5.680 -0.2303  1.0767  1.0250
 1005MOL0     H35671   8.773   1.726   5.791 -0.0441 -1.1198  2.2242
 1005MOL0     H35672   9.243   1.078   5.882 -0.2678 -0.0876  0.6662
 1005MOL0     H35673   9.061   0.822   5.801 -3.0780  0.3635  0.1944
 1005MOL0     H35674   9.191   0.861   5.922 -0.9678  2.2091  1.4654
 1005MOL0     H35675   9.029   0.833   5.970  2.3981 -0.2598  2.0868
 1006MOL0     O35676   7.686   3.637   3.010 -0.2413 -0.6908 -0.2193
 1006MOL0     C35677   7.800   3.587   3.012 -0.7588 -0.1635 -0.0991
 1006MOL0     O35678   7.838   3.474   3.085 -0.0659  0.3615  0.7425
 1006MOL0     C35679   7.746   3.419   3.172 -0.2318 -0.5907 -0.3896
 1006MOL0     C35680   7.711   3.287   3.140  0.5158 -1.3375 -0.2472
 1006MOL0     C35681   7.593   3.232   3.203 -0.5546  0.1655  0.6304
 1006MOL0     C35682   7.536   3.303   3.306  0.1003  1.0673  0.2837
 1006MOL0     O35683   7.430   3.237   3.364  0.0744  0.1206  0.3992
 1006MOL0     C35684   7.382   3.286   3.494 -0.1798  0.0925 -0.2267
 1006MOL0     C35685   7.350   3.162   3.584  0.3046 -0.0973 -0.3133
 1006MOL0     C35686   7.243   3.182   3.695 -0.0263  0.4843 -0.4039
 1006MOL0     C35687   7.271   3.296   3.789 -0.0765  0.2071 -0.1454
 1006MOL0     C35688   7.196   3.282   3.918  0.1298  0.0554 -0.5577
 1006MOL0     C35689   7.268   3.180   4.014 -0.5809  0.4529  0.0095
 1006MOL0     C35690   7.155   3.120   4.107  0.7009  0.3309  0.7256
 1006MOL0     C35691   7.069   3.010   4.032 -0.3837  0.8500 -0.3599
 1006MOL0     N35692   6.987   2.961   4.139  0.4297  0.3379 -0.0323
 1006MOL0     C35693   6.989   2.850   4.222 -1.2505 -0.4047  0.2029
 1006MOL0     C35694   6.865   2.834   4.274 -0.3241  0.5364  0.9056
 1006MOL0     C35695   6.824   2.720   4.362 -0.1945  1.1649 -0.7069
 1006MOL0     C35696   6.675   2.690   4.391  0.4583  0.5524 -0.2758
 1006MOL0     C35697   6.644   2.590   4.502 -0.4149  0.6297 -0.4968
 1006MOL0     C35698   6.500   2.571   4.524  0.4707 -0.7493 -0.9809
 1006MOL0     O35699   6.435   2.691   4.572  0.3066  0.0058 -0.0829
 1006MOL0     C35700   6.405   2.693   4.710  0.4358 -0.1591 -0.7209
 1006MOL0     C35701   6.473   2.624   4.816 -0.0287 -0.6836  1.3801
 1006MOL0     C35702   6.441   2.633   4.948  0.2791 -0.4257  1.0181
 1006MOL0     C35703   6.345   2.726   4.991  0.2466 -0.7154 -0.1356
 1006MOL0     C35704   6.310   2.756   5.123  0.1310  0.2518 -0.4730
 1006MOL0     O35705   6.186   2.699   5.172 -0.5267 -0.4503  0.4453
 1006MOL0     C35706   6.167   2.705   5.307 -0.3299  0.8456 -0.5092
 1006MOL0     C35707   6.251   2.646   5.400 -0.2295 -0.4437  0.5065
 1006MOL0     C35708   6.216   2.646   5.537  0.2662  0.1200  0.2515
 1006MOL0     C35709   6.090   2.681   5.580  0.0724 -0.7960 -0.0598
 1006MOL0     O35710   6.066   2.694   5.713  1.0897 -0.3398 -0.6351
 1006MOL0     C35711   5.927   2.695   5.759  0.1679 -0.4259 -0.2533
 1006MOL0     C35712   5.937   2.733   5.902 -1.0474 -1.3099 -0.5785
 1006MOL0     C35713   5.962   2.884   5.918  0.1292  0.1779 -0.0231
 1006MOL0     C35714   5.835   2.975   5.903  0.4876  0.4020  0.7120
 1006MOL0     C35715   5.843   3.109   5.993  0.4807  0.2607  0.3236
 1006MOL0     C35716   5.732   3.200   5.969  0.0066  0.4521  1.1325
 1006MOL0     C35717   5.600   3.138   6.032 -0.7254 -0.4549  0.6085
 1006MOL0     C35718   5.500   3.251   6.067  0.3162 -0.0086  0.9510
 1006MOL0    Cl35719   5.554   3.332   6.212  0.1360  0.0856  0.1608
 1006MOL0     C35720   5.994   2.727   5.483  0.0039 -0.7072 -0.0288
 1006MOL0     C35721   6.041   2.743   5.353  0.7586  0.0257  0.5250
 1006MOL0     O35722   6.398   2.801   5.195  0.2587 -0.3923  0.2797
 1006MOL0     C35723   6.275   2.804   4.893 -0.1227 -0.1220 -0.3722
 1006MOL0     C35724   6.310   2.788   4.756  0.8168 -0.6039 -0.1322
 1006MOL0     N35725   6.787   2.939   4.221  0.6684 -0.0602  0.0107
 1006MOL0     N35726   6.872   3.019   4.161  0.0975  0.5711  0.1254
 1006MOL0     C35727   7.584   3.430   3.343 -0.0218  1.0629 -0.4306
 1006MOL0     C35728   7.686   3.490   3.270 -0.1905 -0.3964 -0.4297
 1006MOL0     C35729   7.908   3.655   2.926 -0.3388  1.0010 -1.4344
 1006MOL0     C35730   7.859   3.757   2.845  0.5323  0.5965  0.5476
 1006MOL0     C35731   7.938   3.819   2.752  0.0473 -0.2579  1.0334
 1006MOL0     C35732   8.073   3.788   2.735 -0.3461 -1.5493 -0.2224
 1006MOL0     O35733   8.149   3.872   2.653  0.3187  0.1461  0.1324
 1006MOL0     C35734   8.279   3.836   2.603  0.0368 -0.6882  0.1575
 1006MOL0     C35735   8.331   3.949   2.511 -0.1765  0.1968 -0.7121
 1006MOL0     C35736   8.267   3.964   2.375  0.1913 -0.0836 -0.1651
 1006MOL0     C35737   8.115   4.002   2.393 -1.0195  0.6149 -0.1558
 1006MOL0     C35738   8.060   4.004   2.254 -0.0089  0.8472  0.1297
 1006MOL0     C35739   8.012   3.982   2.136 -0.8446  0.2936 -0.0678
 1006MOL0     C35740   8.131   3.684   2.810  0.5183  0.3219 -0.4155
 1006MOL0     C35741   8.055   3.618   2.916  0.7990  0.1835  0.3937
 1006MOL0     C35742   8.129   3.503   2.982 -0.6669  0.1029 -0.0671
 1006MOL0     H35743   7.764   3.230   3.065  1.1805 -1.9519  0.6769
 1006MOL0     H35744   7.563   3.129   3.186  0.0713  0.2965 -1.5883
 1006MOL0     H35745   7.449   3.351   3.552 -0.7486  0.2639  0.2434
 1006MOL0     H35746   7.293   3.344   3.468  0.3448  0.0545 -2.2550
 1006MOL0     H35747   7.446   3.155   3.635  0.2790 -1.5188 -0.4044
 1006MOL0     H35748   7.316   3.084   3.515 -0.0488  0.2464 -0.5308
 1006MOL0     H35749   7.240   3.081   3.738  0.6661 -0.6702 -2.9118
 1006MOL0     H35750   7.150   3.196   3.640 -0.0675  2.3154  0.0773
 1006MOL0     H35751   7.380   3.296   3.799 -0.0498  3.0703  0.2748
 1006MOL0     H35752   7.239   3.393   3.750 -1.4200  2.0794  4.8197
 1006MOL0     H35753   7.190   3.382   3.962  3.4048 -1.3110  3.6746
 1006MOL0     H35754   7.092   3.264   3.889 -0.3722  2.6653 -0.6229
 1006MOL0     H35755   7.313   3.099   3.957  1.1021  1.5001 -0.2441
 1006MOL0     H35756   7.345   3.242   4.062 -0.6927 -0.9205  2.0984
 1006MOL0     H35757   7.101   3.212   4.131 -0.3761  0.9255 -3.2199
 1006MOL0     H35758   7.200   3.073   4.195  3.6489  1.9349  0.2060
 1006MOL0     H35759   7.025   3.039   3.937  1.0313  0.4009 -1.1806
 1006MOL0     H35760   7.135   2.926   4.010 -2.4733 -2.0711  3.3037
 1006MOL0     H35761   7.073   2.784   4.242  0.3740  1.7658  0.9593
 1006MOL0     H35762   6.868   2.625   4.329  0.4428  1.0507  0.3928
 1006MOL0     H35763   6.873   2.748   4.456 -1.2184 -1.7589  0.8656
 1006MOL0     H35764   6.641   2.788   4.427  1.7269  1.8705 -2.3919
 1006MOL0     H35765   6.618   2.660   4.302 -1.1649 -0.7627  1.1562
 1006MOL0     H35766   6.701   2.628   4.587  0.1727  0.6006 -0.8696
 1006MOL0     H35767   6.683   2.493   4.473 -2.0687 -0.2919  0.2099
 1006MOL0     H35768   6.484   2.496   4.601 -0.0062 -0.4337 -0.7662
 1006MOL0     H35769   6.459   2.525   4.434  0.5416 -0.5331 -1.1277
 1006MOL0     H35770   6.559   2.566   4.785  2.1396  1.5286  2.8531
 1006MOL0     H35771   6.478   2.571   5.029 -2.3120 -1.8238  1.2376
 1006MOL0     H35772   6.334   2.584   5.368 -0.7201  0.0959 -2.0092
 1006MOL0     H35773   6.282   2.595   5.605  1.3503  1.3873  0.1975
 1006MOL0     H35774   5.853   2.764   5.717  2.9833  2.7129 -0.4937
 1006MOL0     H35775   5.884   2.594   5.766  0.6431 -0.5979  0.2300
 1006MOL0     H35776   5.841   2.710   5.950 -2.2350 -0.8320 -2.6206
 1006MOL0     H35777   6.018   2.675   5.947  0.2031  1.0449  0.3856
 1006MOL0     H35778   5.999   2.897   6.020  3.0776 -3.7211 -0.3647
 1006MOL0     H35779   6.036   2.913   5.842 -1.8631 -1.8617 -2.9789
 1006MOL0     H35780   5.745   2.915   5.921 -0.1236  0.6549 -1.2274
 1006MOL0     H35781   5.825   3.020   5.804 -1.5727 -3.3476 -0.9885
 1006MOL0     H35782   5.934   3.161   5.963 -0.5175  1.4867 -0.7120
 1006MOL0     H35783   5.852   3.086   6.099 -0.3790  1.1707  0.6150
 1006MOL0     H35784   5.750   3.301   6.007  1.4181 -0.2874  2.5633
 1006MOL0     H35785   5.719   3.203   5.860 -1.5981  1.5644  1.3173
 1006MOL0     H35786   5.617   3.070   6.117 -0.2884 -2.0829 -0.7273
 1006MOL0     H35787   5.542   3.086   5.955 -0.8061  0.3650  0.1029
 1006MOL0     H35788   5.490   3.329   5.991  0.8022 -0.4424  0.4314
 1006MOL0     H35789   5.402   3.204   6.077 -0.8567  2.2963  1.0167
 1006MOL0     H35790   5.890   2.753   5.501  0.7142  2.0438  0.4962
 1006MOL0     H35791   5.980   2.790   5.277  1.6487 -0.9156 -0.8069
 1006MOL0     H35792   6.213   2.886   4.928  0.7172 -0.4343  2.0475
 1006MOL0     H35793   6.253   2.848   4.686 -1.6047 -0.9279  1.4099
 1006MOL0     H35794   7.537   3.493   3.418 -0.3233 -0.3752  0.6253
 1006MOL0     H35795   7.703   3.596   3.286  1.2969 -0.7984  0.8210
 1006MOL0     H35796   7.756   3.789   2.837  0.3166 -0.3548 -1.0466
 1006MOL0     H35797   7.877   3.884   2.690 -1.3912  0.0969  2.7075
 1006MOL0     H35798   8.267   3.744   2.544  0.6004 -0.6150 -0.0810
 1006MOL0     H35799   8.350   3.837   2.685  0.9690 -0.4844 -0.6400
 1006MOL0     H35800   8.440   3.939   2.503 -0.3570 -2.1242 -1.1097
 1006MOL0     H35801   8.321   4.042   2.567  0.6495  0.4328 -0.9412
 1006MOL0     H35802   8.272   3.870   2.319  0.0493 -0.1933  0.0047
 1006MOL0     H35803   8.318   4.033   2.308  0.3790 -0.9292 -0.9087
 1006MOL0     H35804   8.057   3.931   2.453  0.2718 -1.6134 -1.4331
 1006MOL0     H35805   8.112   4.108   2.422  0.2154  1.4918 -2.8859
 1006MOL0     H35806   7.968   3.967   2.039 -0.9793 -0.1860  0.0671
 1006MOL0     H35807   8.236   3.659   2.821 -0.1720 -2.0158  1.9434
 1006MOL0     H35808   8.117   3.411   2.924  1.2628  0.2999 -0.8340
 1006MOL0     H35809   8.230   3.526   3.017 -1.0295 -0.6481  1.5638
 1006MOL0     H35810   8.096   3.467   3.080  2.6596  1.6942  1.8001
 1007MOL0     O35811   2.163   1.677   1.718  0.5794  0.2024  0.1728
 1007MOL0     C35812   2.164   1.649   1.835 -0.4877  1.2983 -0.2428
 1007MOL0     O35813   2.265   1.681   1.917  0.7111  0.2538 -0.6269
 1007MOL0     C35814   2.377   1.706   1.848  0.8371 -0.4538 -0.9887
 1007MOL0     C35815   2.454   1.595   1.840  1.0253 -0.3551  0.1324
 1007MOL0     C35816   2.576   1.604   1.773  0.7287  0.3571  0.1010
 1007MOL0     C35817   2.634   1.728   1.726  0.5458 -0.2047 -0.6815
 1007MOL0     O35818   2.757   1.747   1.669 -0.4398 -0.3815  0.1028
 1007MOL0     C35819   2.835   1.635   1.611  0.0930 -0.9161 -0.1504
 1007MOL0     C35820   2.978   1.674   1.573  0.4372 -0.4301  0.8466
 1007MOL0     C35821   3.082   1.673   1.691 -0.1848  0.5028  0.1235
 1007MOL0     C35822   3.219   1.633   1.624  1.0372 -0.6493 -0.3987
 1007MOL0     C35823   3.338   1.651   1.710 -0.1400 -0.3787  0.6488
 1007MOL0     C35824   3.471   1.643   1.617 -0.9046  0.3483 -0.1022
 1007MOL0     C35825   3.594   1.651   1.703  0.4962  0.1790 -0.9113
 1007MOL0     C35826   3.587   1.766   1.806 -0.0915  1.5308 -0.2847
 1007MOL0     N35827   3.704   1.759   1.898  0.4816 -0.0099 -0.2263
 1007MOL0     C35828   3.691   1.743   2.030  0.5373 -1.1313 -0.1029
 1007MOL0     C35829   3.817   1.752   2.083  1.1196  0.8273  0.3806
 1007MOL0     C35830   3.847   1.747   2.236 -0.6771 -1.1919  0.0097
 1007MOL0     C35831   3.898   1.881   2.292 -0.3494  1.2269 -0.0291
 1007MOL0     C35832   3.945   1.861   2.433 -0.0962 -0.4093 -0.4117
 1007MOL0     C35833   4.031   1.978   2.487 -0.6401 -0.1206 -0.0533
 1007MOL0     O35834   3.955   2.099   2.477 -0.3733  0.3820 -0.3229
 1007MOL0     C35835   3.980   2.210   2.552  0.1710 -0.4718 -0.9910
 1007MOL0     C35836   3.879   2.308   2.551 -0.8848 -0.2852 -0.4631
 1007MOL0     C35837   3.892   2.428   2.623  0.0906 -0.4657  0.6482
 1007MOL0     C35838   4.015   2.461   2.682  0.6632 -0.0468 -0.1956
 1007MOL0     C35839   4.029   2.595   2.752 -0.2320  0.6925  0.2750
 1007MOL0     O35840   4.119   2.597   2.853 -0.2840 -0.2105  0.2752
 1007MOL0     C35841   4.118   2.707   2.936  0.1169 -0.3546  0.7232
 1007MOL0     C35842   4.003   2.757   2.993  0.5767 -1.0283 -0.4552
 1007MOL0     C35843   4.002   2.879   3.070 -0.2372  0.5195  0.0326
 1007MOL0     C35844   4.123   2.943   3.096  0.4195  0.0920 -0.1877
 1007MOL0     O35845   4.119   3.055   3.180 -0.0257 -0.1619 -0.5894
 1007MOL0     C35846   4.178   3.171   3.123 -0.5040 -0.1357  0.0469
 1007MOL0     C35847   4.110   3.302   3.146 -0.2526 -0.6008  0.3997
 1007MOL0     C35848   3.978   3.319   3.067 -0.2557 -0.4833 -0.6497
 1007MOL0     C35849   4.018   3.322   2.924  0.3678 -0.6403 -0.1309
 1007MOL0     C35850   3.896   3.339   2.835 -1.0914 -0.5659  1.2908
 1007MOL0     C35851   3.806   3.206   2.828 -0.0352  0.6027  0.0368
 1007MOL0     C35852   3.852   3.112   2.719 -0.2354 -0.3392  0.0857
 1007MOL0     C35853   3.738   3.021   2.686  0.5979  0.0961 -0.5951
 1007MOL0    Cl35854   3.695   2.933   2.842  0.7482 -0.5298  0.3263
 1007MOL0     C35855   4.245   2.890   3.048 -0.0280  0.3986  0.0743
 1007MOL0     C35856   4.242   2.774   2.959  0.3861  1.1660  0.7444
 1007MOL0     O35857   3.959   2.691   2.713 -0.3756  0.3351 -0.5174
 1007MOL0     C35858   4.115   2.366   2.681  0.3392  0.4110 -0.0028
 1007MOL0     C35859   4.101   2.236   2.616 -0.3230  0.7318  0.2263
 1007MOL0     N35860   3.903   1.781   1.978 -0.3005 -0.1385 -0.0158
 1007MOL0     N35861   3.835   1.786   1.873 -0.6634  0.6606 -0.2782
 1007MOL0     C35862   2.549   1.844   1.733 -0.2882 -0.2892  0.8704
 1007MOL0     C35863   2.421   1.830   1.787  0.9041 -0.8726  0.0148
 1007MOL0     C35864   2.038   1.585   1.896 -0.4257  0.1566 -0.5651
 1007MOL0     C35865   1.960   1.523   1.796  0.1068  0.4620 -0.3664
 1007MOL0     C35866   1.834   1.462   1.828 -0.3621  0.3772 -0.4236
 1007MOL0     C35867   1.801   1.447   1.964  0.1859  0.0788  0.0737
 1007MOL0     O35868   1.699   1.367   2.024 -0.0391 -0.7260  0.0728
 1007MOL0     C35869   1.608   1.309   1.938  0.5766 -0.1449 -0.0439
 1007MOL0     C35870   1.517   1.235   2.031  0.0119  0.1649 -0.3682
 1007MOL0     C35871   1.444   1.333   2.118  0.9894 -0.1553  0.1306
 1007MOL0     C35872   1.362   1.243   2.210  0.0224  0.1568 -0.1417
 1007MOL0     C35873   1.243   1.180   2.153 -0.7049  0.7340  0.4107
 1007MOL0     C35874   1.146   1.156   2.085  0.3733  0.3092  0.2125
 1007MOL0     C35875   1.886   1.510   2.054  0.2275  0.6996 -0.2507
 1007MOL0     C35876   2.000   1.577   2.029 -0.0906 -0.1534 -0.9150
 1007MOL0     C35877   2.082   1.618   2.149  0.0183  0.4318 -0.0234
 1007MOL0     H35878   2.415   1.500   1.874  0.7457  0.0778  1.0377
 1007MOL0     H35879   2.631   1.512   1.756  0.1087 -0.4805  2.3175
 1007MOL0     H35880   2.838   1.553   1.683 -2.7006  0.1820  1.3780
 1007MOL0     H35881   2.780   1.611   1.519 -0.2556 -1.6447  0.2390
 1007MOL0     H35882   2.974   1.766   1.515 -2.9293 -1.9424 -1.6448
 1007MOL0     H35883   3.006   1.601   1.496 -0.9772  0.6939 -0.8115
 1007MOL0     H35884   3.050   1.596   1.762  1.8986  0.1577  0.7494
 1007MOL0     H35885   3.095   1.770   1.739  5.1383 -0.1538  0.6361
 1007MOL0     H35886   3.215   1.529   1.592 -0.7996 -0.8118  0.2382
 1007MOL0     H35887   3.238   1.688   1.531  2.9295  1.9825  1.3872
 1007MOL0     H35888   3.321   1.743   1.766 -4.0707 -2.1351  2.7265
 1007MOL0     H35889   3.347   1.575   1.788  1.7841 -2.9341 -1.8261
 1007MOL0     H35890   3.474   1.552   1.558  0.7551  0.8450 -0.8309
 1007MOL0     H35891   3.493   1.725   1.549 -1.5654  1.3798  0.8737
 1007MOL0     H35892   3.688   1.644   1.648  1.0142 -0.8981  0.0761
 1007MOL0     H35893   3.584   1.564   1.768  0.6801  1.4058  0.8574
 1007MOL0     H35894   3.605   1.857   1.747  0.3535  1.0970 -0.8325
 1007MOL0     H35895   3.500   1.791   1.867 -0.0008  0.4437  0.3146
 1007MOL0     H35896   3.604   1.734   2.094 -0.2709  0.4568 -0.9370
 1007MOL0     H35897   3.759   1.716   2.293 -1.9480  3.6303  1.1555
 1007MOL0     H35898   3.921   1.668   2.246 -0.7185 -1.1510  0.7169
 1007MOL0     H35899   3.984   1.912   2.231  0.6285 -0.8106  0.2634
 1007MOL0     H35900   3.819   1.956   2.279 -0.4195  1.5280  1.9224
 1007MOL0     H35901   4.008   1.772   2.449 -1.0386 -0.6081  2.9156
 1007MOL0     H35902   3.862   1.842   2.502  0.9539 -1.4319  0.6197
 1007MOL0     H35903   4.126   1.987   2.434 -0.0356  0.9017  1.1439
 1007MOL0     H35904   4.062   1.955   2.590 -0.5084 -1.6821 -0.4074
 1007MOL0     H35905   3.781   2.293   2.505 -0.8462  2.5294 -1.6745
 1007MOL0     H35906   3.815   2.504   2.625  1.3291  0.8851 -0.6051
 1007MOL0     H35907   3.907   2.707   2.986  1.0134 -1.9835  0.1676
 1007MOL0     H35908   3.916   2.919   3.123 -0.8148 -1.4172  0.6268
 1007MOL0     H35909   4.276   3.169   3.172 -0.9350  1.2338  1.0229
 1007MOL0     H35910   4.198   3.158   3.017 -0.6880 -3.0407  0.2870
 1007MOL0     H35911   4.096   3.315   3.254  0.4665 -1.5030  0.6108
 1007MOL0     H35912   4.186   3.374   3.115 -2.1405  2.4279  2.2767
 1007MOL0     H35913   3.917   3.231   3.091  0.9119 -1.1474 -0.0378
 1007MOL0     H35914   3.930   3.410   3.103 -1.5898  0.0191 -3.3772
 1007MOL0     H35915   4.066   3.230   2.889  1.2527  0.4150 -1.8353
 1007MOL0     H35916   4.083   3.408   2.906  0.9415 -1.1110 -0.3214
 1007MOL0     H35917   3.925   3.359   2.731  0.0928  1.0566  1.8943
 1007MOL0     H35918   3.835   3.423   2.870  0.6623  0.7989  1.2352
 1007MOL0     H35919   3.817   3.158   2.926  0.3397  2.5477  1.0150
 1007MOL0     H35920   3.704   3.241   2.810  0.3910  2.6229  1.0943
 1007MOL0     H35921   3.934   3.053   2.760 -2.8546 -1.5994  4.0436
 1007MOL0     H35922   3.873   3.184   2.639 -3.9417 -1.6415 -2.3377
 1007MOL0     H35923   3.658   3.078   2.638 -0.1723 -1.5490 -1.3445
 1007MOL0     H35924   3.758   2.934   2.622  0.8317 -0.3777  0.1075
 1007MOL0     H35925   4.343   2.934   3.064 -1.1028  3.3207 -0.6913
 1007MOL0     H35926   4.344   2.748   2.937  0.1153 -1.6383  2.3233
 1007MOL0     H35927   4.208   2.392   2.731  1.2992 -0.5496 -1.2220
 1007MOL0     H35928   4.187   2.171   2.621 -0.6757  0.2424 -0.0292
 1007MOL0     H35929   2.587   1.932   1.683 -0.9945 -1.1903 -1.3666
 1007MOL0     H35930   2.356   1.916   1.777 -1.0093 -2.5111 -4.2440
 1007MOL0     H35931   1.993   1.515   1.692  0.3439  1.2127 -0.3502
 1007MOL0     H35932   1.779   1.407   1.753 -0.1549 -1.6366  0.8394
 1007MOL0     H35933   1.648   1.235   1.867 -0.8852 -0.3898 -0.6563
 1007MOL0     H35934   1.551   1.379   1.876 -0.8409 -0.3357  1.0176
 1007MOL0     H35935   1.578   1.175   2.099 -0.4612  1.4157  1.2174
 1007MOL0     H35936   1.445   1.178   1.972  0.1247  1.5278 -1.9166
 1007MOL0     H35937   1.386   1.399   2.053  2.6268  1.2599  0.0432
 1007MOL0     H35938   1.507   1.396   2.182 -0.1584  0.9585  0.1849
 1007MOL0     H35939   1.421   1.162   2.255  0.2753 -0.0486 -0.8427
 1007MOL0     H35940   1.328   1.302   2.296 -0.1571 -0.7555  0.4314
 1007MOL0     H35941   1.057   1.133   2.031 -2.2325  3.6969  2.6145
 1007MOL0     H35942   1.849   1.509   2.156  1.9548 -0.9007  0.4290
 1007MOL0     H35943   2.016   1.665   2.223  0.5733  0.7562  0.2758
 1007MOL0     H35944   2.110   1.522   2.194  2.4825 -0.0804 -2.4131
 1007MOL0     H35945   2.174   1.668   2.118  0.2724  0.0709  0.1442
 1008MOL0     O35946   7.751   7.471   3.335  0.2356 -0.2019  0.2838
 1008MOL0     C35947   7.692   7.575   3.303  0.2103  0.1197 -0.6956
 1008MOL0     O35948   7.721   7.697   3.348 -0.5287  0.8119  0.2718
 1008MOL0     C35949   7.833   7.718   3.433  0.1518 -0.3878 -0.1842
 1008MOL0     C35950   7.949   7.781   3.381 -0.5909 -0.0399  0.4912
 1008MOL0     C35951   8.050   7.808   3.472 -0.2595  1.1229  0.2784
 1008MOL0     C35952   8.041   7.780   3.610 -1.0770  1.2003 -0.2969
 1008MOL0     O35953   8.133   7.821   3.707 -0.5101  0.8382  0.3537
 1008MOL0     C35954   8.199   7.716   3.779  0.2814 -0.6864  0.1482
 1008MOL0     C35955   8.306   7.657   3.694 -0.1269  0.7518  0.2607
 1008MOL0     C35956   8.425   7.751   3.652  1.2441  0.6271 -0.3598
 1008MOL0     C35957   8.494   7.804   3.780 -0.2195 -0.3533 -0.6341
 1008MOL0     C35958   8.617   7.880   3.738 -0.0090  1.0450  0.2668
 1008MOL0     C35959   8.700   7.927   3.859  0.7491  1.0683 -0.8375
 1008MOL0     C35960   8.844   7.947   3.823 -0.4234  1.4185 -0.0178
 1008MOL0     C35961   8.868   8.040   3.700  1.1275  0.9299  0.2711
 1008MOL0     N35962   8.965   8.143   3.719 -0.0408  0.5352 -0.9607
 1008MOL0     C35963   9.093   8.134   3.772  0.1240 -0.6182  0.3641
 1008MOL0     C35964   9.147   8.253   3.745 -0.3460 -0.3834  0.4013
 1008MOL0     C35965   9.284   8.308   3.764 -0.6156 -0.7459  0.1087
 1008MOL0     C35966   9.265   8.398   3.885  0.3209 -0.5818  0.8410
 1008MOL0     C35967   9.390   8.484   3.895  0.4488 -0.8616 -0.2188
 1008MOL0     C35968   9.403   8.575   4.017 -1.1527 -0.5398 -1.1325
 1008MOL0     O35969   9.297   8.675   4.026 -0.4860  0.8622 -0.1768
 1008MOL0     C35970   9.278   8.756   4.140  1.4120  0.2661 -0.1268
 1008MOL0     C35971   9.158   8.827   4.137 -0.3981  0.2846 -0.3918
 1008MOL0     C35972   9.119   8.916   4.234 -0.7052 -0.9134 -0.1490
 1008MOL0     C35973   9.200   8.927   4.350  0.3963 -0.1901 -0.6991
 1008MOL0     C35974   9.165   9.027   4.456  0.0085  0.4373 -0.1280
 1008MOL0     O35975   9.204   8.993   4.587 -0.8621 -0.4409  0.3403
 1008MOL0     C35976   9.213   9.092   4.680 -0.0050 -0.5958  0.5204
 1008MOL0     C35977   9.174   9.040   4.808 -0.3524  0.0645  0.1482
 1008MOL0     C35978   9.200   9.121   4.918  0.4609 -0.4509 -0.2996
 1008MOL0     C35979   9.238   9.258   4.899  0.7095 -1.3217  0.5679
 1008MOL0     O35980   9.249   9.337   5.011 -0.3987  0.1862 -0.6723
 1008MOL0     C35981   9.129   9.408   5.057 -0.3181 -0.4269  0.1567
 1008MOL0     C35982   9.187   9.554   5.086 -0.1266  0.4833  0.6710
 1008MOL0     C35983   9.305   9.579   5.169 -0.3157  0.9363  0.1640
 1008MOL0     C35984   9.291   9.539   5.313 -0.4138  0.3668 -0.6028
 1008MOL0     C35985   9.428   9.562   5.396 -0.2581 -0.0916  0.1994
 1008MOL0     C35986   9.404   9.498   5.539 -0.7686  0.0361  0.2200
 1008MOL0     C35987   9.521   9.495   5.634 -0.4107 -0.7693 -0.1969
 1008MOL0     C35988   9.571   9.629   5.675 -0.1370 -0.5110 -0.2248
 1008MOL0    Cl35989   9.751   9.643   5.731  0.3666  0.0456 -0.5284
 1008MOL0     C35990   9.266   9.308   4.769 -0.5063 -1.0299 -0.9523
 1008MOL0     C35991   9.260   9.224   4.656  0.6059 -0.8372  0.2377
 1008MOL0     O35992   9.101   9.130   4.429 -0.2703 -0.4229  0.5300
 1008MOL0     C35993   9.317   8.844   4.361 -0.5378 -0.6685  0.3352
 1008MOL0     C35994   9.363   8.767   4.252  0.6993 -0.4323 -1.0239
 1008MOL0     N35995   9.056   8.334   3.678 -0.4220 -0.3524  0.6218
 1008MOL0     N35996   8.954   8.265   3.655  0.3189  0.1653  0.6403
 1008MOL0     C35997   7.925   7.709   3.648  0.2676 -1.4012  0.4098
 1008MOL0     C35998   7.824   7.674   3.560  0.3275 -1.2261  0.3279
 1008MOL0     C35999   7.551   7.556   3.242 -1.3549 -0.6188  0.3700
 1008MOL0     C36000   7.441   7.631   3.286 -0.6290 -0.9736  0.5989
 1008MOL0     C36001   7.305   7.597   3.250 -0.6504  0.1707 -0.8186
 1008MOL0     C36002   7.277   7.486   3.172 -0.4666 -0.0811 -0.8229
 1008MOL0     O36003   7.152   7.450   3.128 -0.2041  0.3273 -0.6939
 1008MOL0     C36004   7.038   7.504   3.199  0.0594  1.2954  0.8205
 1008MOL0     C36005   6.918   7.417   3.176  0.5199 -0.6419  0.0022
 1008MOL0     C36006   6.882   7.423   3.033 -0.2910 -0.1183  0.5974
 1008MOL0     C36007   6.740   7.371   3.005 -0.1310 -0.0327  0.2978
 1008MOL0     C36008   6.743   7.222   3.033 -0.2269  0.5322 -0.8552
 1008MOL0     C36009   6.738   7.106   3.060  0.1211 -0.2103  0.7425
 1008MOL0     C36010   7.380   7.396   3.151  0.2160 -0.9519  1.1432
 1008MOL0     C36011   7.518   7.440   3.173  0.6356  0.4882 -0.3828
 1008MOL0     C36012   7.622   7.342   3.122  0.1985 -0.1731  0.3005
 1008MOL0     H36013   7.954   7.810   3.277 -2.0005 -2.9080 -0.4981
 1008MOL0     H36014   8.144   7.847   3.434  0.9934 -3.2759 -1.8261
 1008MOL0     H36015   8.230   7.750   3.878 -0.9060 -1.8557  0.9445
 1008MOL0     H36016   8.129   7.633   3.781 -2.3791  0.9167 -5.3965
 1008MOL0     H36017   8.250   7.616   3.610 -0.6678 -0.0194  0.9745
 1008MOL0     H36018   8.342   7.568   3.746 -2.4242 -1.4051 -1.5881
 1008MOL0     H36019   8.381   7.834   3.596 -1.0789 -0.3481 -0.0796
 1008MOL0     H36020   8.496   7.697   3.589  3.0926  2.4787  0.0203
 1008MOL0     H36021   8.428   7.880   3.823 -0.9135 -0.8434 -0.8188
 1008MOL0     H36022   8.505   7.720   3.849 -1.3914 -0.9578 -1.1501
 1008MOL0     H36023   8.675   7.825   3.663 -2.3750  2.3249 -2.7343
 1008MOL0     H36024   8.590   7.971   3.683 -2.0125  0.1589 -0.2865
 1008MOL0     H36025   8.650   8.013   3.904 -1.8881 -0.8108  0.0718
 1008MOL0     H36026   8.699   7.845   3.932 -2.6565  0.2980 -1.5898
 1008MOL0     H36027   8.876   7.844   3.806 -0.4754  1.4641 -0.4018
 1008MOL0     H36028   8.905   7.992   3.903  1.1298  0.8461 -0.8362
 1008MOL0     H36029   8.897   7.983   3.612  0.4505 -1.4635  1.4981
 1008MOL0     H36030   8.773   8.088   3.672  0.8090 -0.6550 -1.5452
 1008MOL0     H36031   9.131   8.056   3.837 -3.9446 -5.0040 -1.9000
 1008MOL0     H36032   9.361   8.238   3.796  2.7479  2.7519  0.4397
 1008MOL0     H36033   9.301   8.354   3.666 -2.8371 -0.4684 -0.1972
 1008MOL0     H36034   9.178   8.458   3.859  0.8650  0.0401  0.4279
 1008MOL0     H36035   9.263   8.345   3.981  0.7868  0.5783  1.5113
 1008MOL0     H36036   9.390   8.559   3.815 -1.0005  0.3503  0.8724
 1008MOL0     H36037   9.481   8.425   3.878  1.7855  1.3620 -1.3548
 1008MOL0     H36038   9.497   8.630   4.008 -1.1838 -0.2421  0.2312
 1008MOL0     H36039   9.396   8.516   4.108 -0.0891  0.0198 -0.6727
 1008MOL0     H36040   9.083   8.818   4.059  0.3987  1.2921 -1.3069
 1008MOL0     H36041   9.027   8.971   4.216 -1.2089 -1.1535  1.5376
 1008MOL0     H36042   9.136   8.939   4.818 -1.4161  0.6739  3.2237
 1008MOL0     H36043   9.172   9.080   5.014 -1.2165 -5.5877 -2.6474
 1008MOL0     H36044   9.043   9.417   4.991 -1.9538 -1.8173  1.9642
 1008MOL0     H36045   9.094   9.349   5.143  2.1534 -4.1854 -1.1424
 1008MOL0     H36046   9.193   9.594   4.985  2.0611 -0.4078  0.3932
 1008MOL0     H36047   9.107   9.613   5.133  0.8690  2.0514  0.4817
 1008MOL0     H36048   9.392   9.530   5.124 -0.0139  0.5292  1.1628
 1008MOL0     H36049   9.316   9.688   5.174  1.6723  0.7306  4.2223
 1008MOL0     H36050   9.256   9.436   5.314 -0.6506  0.4313  1.0207
 1008MOL0     H36051   9.214   9.606   5.352 -0.8220 -0.2489 -0.3413
 1008MOL0     H36052   9.448   9.669   5.406 -2.2772  0.7688 -3.3247
 1008MOL0     H36053   9.519   9.540   5.339 -0.7448  2.5500 -1.7754
 1008MOL0     H36054   9.313   9.532   5.588 -1.6974  1.1382 -2.1204
 1008MOL0     H36055   9.372   9.395   5.524  2.7948 -1.2153  0.3354
 1008MOL0     H36056   9.604   9.447   5.582  0.8344  0.5034  0.5289
 1008MOL0     H36057   9.485   9.443   5.723 -1.7927 -1.5864 -1.1841
 1008MOL0     H36058   9.559   9.690   5.585  1.3326  0.4342  0.1923
 1008MOL0     H36059   9.513   9.665   5.760  2.4418  1.9189  0.6391
 1008MOL0     H36060   9.291   9.411   4.744 -1.7343 -0.7239 -0.9451
 1008MOL0     H36061   9.301   9.252   4.559  1.9398 -0.7467  0.8092
 1008MOL0     H36062   9.387   8.848   4.444 -1.8438 -0.2332  1.4550
 1008MOL0     H36063   9.457   8.713   4.261  0.3892 -0.8369 -0.0849
 1008MOL0     H36064   7.926   7.674   3.751  4.3763  2.0479  1.8414
 1008MOL0     H36065   7.746   7.610   3.600 -0.5610 -0.7952 -0.6909
 1008MOL0     H36066   7.456   7.709   3.360  1.1749 -1.5623  0.8995
 1008MOL0     H36067   7.231   7.665   3.291 -1.0294  0.1593 -1.4763
 1008MOL0     H36068   7.027   7.608   3.167  1.1665  1.3190  0.4709
 1008MOL0     H36069   7.066   7.499   3.304 -2.5564 -0.7557  1.5302
 1008MOL0     H36070   6.837   7.459   3.236  1.3113 -1.1662  1.5016
 1008MOL0     H36071   6.951   7.320   3.213  1.1868 -0.0135  1.0787
 1008MOL0     H36072   6.955   7.368   2.973 -0.6447 -4.1700  3.4900
 1008MOL0     H36073   6.888   7.530   3.012 -1.8138  0.0736  1.0466
 1008MOL0     H36074   6.667   7.411   3.076 -3.1259  4.0365 -4.4175
 1008MOL0     H36075   6.696   7.396   2.908 -1.2535 -1.5754  0.3700
 1008MOL0     H36076   6.737   7.000   3.072 -0.4067 -0.8769 -3.5589
 1008MOL0     H36077   7.348   7.303   3.106  1.6523 -1.9337  2.0647
 1008MOL0     H36078   7.649   7.267   3.197  1.3193  2.3808  2.6155
 1008MOL0     H36079   7.576   7.297   3.034 -1.6768  1.8796  0.1357
 1008MOL0     H36080   7.702   7.405   3.082  0.0260 -0.1272  0.0270
 1009MOL0     O36081   3.298   3.451   2.968  0.6788  0.7343  0.3087
 1009MOL0     C36082   3.351   3.512   3.059 -0.5912  0.2042 -0.0733
 1009MOL0     O36083   3.324   3.635   3.099 -0.4498  0.1311  0.5736
 1009MOL0     C36084   3.234   3.707   3.031  1.1255 -1.7497  0.7090
 1009MOL0     C36085   3.277   3.799   2.927  0.9117  0.8292 -0.1299
 1009MOL0     C36086   3.180   3.885   2.865  0.2959  0.1518 -0.2071
 1009MOL0     C36087   3.049   3.872   2.897  0.4497 -0.3712 -0.5086
 1009MOL0     O36088   2.957   3.970   2.852  0.4461  0.7047  0.6328
 1009MOL0     C36089   2.817   3.971   2.898  0.0996 -0.8093 -0.0481
 1009MOL0     C36090   2.759   4.088   2.839 -0.4561 -0.4869  0.0819
 1009MOL0     C36091   2.615   4.098   2.879  0.0584 -0.3552 -0.8053
 1009MOL0     C36092   2.513   4.098   2.764  0.0208 -0.2208 -0.2745
 1009MOL0     C36093   2.507   4.224   2.670 -0.7876  0.0723 -0.2497
 1009MOL0     C36094   2.388   4.317   2.707  0.2200  0.4125  0.3670
 1009MOL0     C36095   2.388   4.456   2.632  0.0924  0.3853  0.5596
 1009MOL0     C36096   2.353   4.448   2.481  0.7303 -0.2878  0.1700
 1009MOL0     N36097   2.294   4.573   2.445  0.7616 -0.2869  0.4174
 1009MOL0     C36098   2.380   4.681   2.428 -0.1742 -0.7188 -0.3505
 1009MOL0     C36099   2.303   4.783   2.441  0.0199 -0.8639  1.1790
 1009MOL0     C36100   2.359   4.920   2.463 -0.3758  0.3318 -0.1602
 1009MOL0     C36101   2.424   4.930   2.611 -0.7274  0.4179 -0.9417
 1009MOL0     C36102   2.539   5.038   2.626 -0.6777  0.3191  0.8698
 1009MOL0     C36103   2.668   5.017   2.548 -0.3864  0.7470 -0.1713
 1009MOL0     O36104   2.705   4.879   2.545  0.6511 -0.8918  0.0958
 1009MOL0     C36105   2.763   4.821   2.651  0.4461  0.3072  0.2593
 1009MOL0     C36106   2.865   4.882   2.727  0.0593  0.8119  0.1532
 1009MOL0     C36107   2.935   4.810   2.827  0.8548 -0.5748 -0.4729
 1009MOL0     C36108   2.908   4.677   2.852  0.1537 -0.1498  0.6541
 1009MOL0     C36109   2.978   4.616   2.963  0.1881  0.7195 -0.6790
 1009MOL0     O36110   2.911   4.517   3.035 -0.6142 -0.4618 -0.3268
 1009MOL0     C36111   2.968   4.462   3.145 -0.0810  0.0219  1.3096
 1009MOL0     C36112   2.909   4.475   3.269  0.3279  0.0287  0.3106
 1009MOL0     C36113   2.956   4.402   3.380 -0.0709 -0.1082  0.4285
 1009MOL0     C36114   3.054   4.314   3.363 -0.3946  0.1629 -0.6493
 1009MOL0     O36115   3.101   4.267   3.484 -0.4563 -0.1298 -0.0663
 1009MOL0     C36116   3.225   4.330   3.504 -0.5134 -0.1859  0.0694
 1009MOL0     C36117   3.224   4.317   3.664  0.3332 -0.2706 -0.1583
 1009MOL0     C36118   3.331   4.403   3.722  0.9202  0.0801  0.2830
 1009MOL0     C36119   3.309   4.400   3.882 -0.9915  0.5447  0.7843
 1009MOL0     C36120   3.422   4.468   3.959  0.4556  0.1512 -0.4183
 1009MOL0     C36121   3.419   4.616   3.941  0.6923  0.2840 -1.5641
 1009MOL0     C36122   3.293   4.672   4.008  0.5080 -0.6625 -1.3540
 1009MOL0     C36123   3.319   4.737   4.149 -0.2519  0.3523  0.2892
 1009MOL0    Cl36124   3.181   4.757   4.260  0.0005 -0.3283  0.1874
 1009MOL0     C36125   3.111   4.289   3.233  0.2694 -0.8201  0.0098
 1009MOL0     C36126   3.062   4.360   3.122  0.2579 -0.2236 -0.0944
 1009MOL0     O36127   3.085   4.659   2.989 -0.8187 -0.2012  0.4599
 1009MOL0     C36128   2.802   4.617   2.776  0.3110  0.6136  0.4668
 1009MOL0     C36129   2.740   4.687   2.673  0.2005  0.3388 -0.2248
 1009MOL0     N36130   2.172   4.738   2.456 -0.3942 -0.4089  0.3921
 1009MOL0     N36131   2.166   4.610   2.449 -0.3267  0.5386 -0.3473
 1009MOL0     C36132   3.014   3.761   2.992  0.5372 -1.2380  0.4399
 1009MOL0     C36133   3.104   3.689   3.061 -0.3288 -0.4156 -0.7689
 1009MOL0     C36134   3.450   3.437   3.131 -0.7555  0.1010  0.3264
 1009MOL0     C36135   3.488   3.490   3.266  0.4953  0.9451  0.6805
 1009MOL0     C36136   3.596   3.436   3.341 -0.7609  0.0225  0.2484
 1009MOL0     C36137   3.651   3.312   3.298 -0.3416 -0.9586  0.4107
 1009MOL0     O36138   3.751   3.251   3.365 -0.0792 -0.0615  0.3566
 1009MOL0     C36139   3.811   3.328   3.467 -0.3162 -1.0816  0.6118
 1009MOL0     C36140   3.937   3.277   3.522  0.4173 -0.1039 -0.4157
 1009MOL0     C36141   4.004   3.360   3.623  0.5793 -0.4487 -0.9685
 1009MOL0     C36142   4.094   3.478   3.571 -0.3331 -0.0884 -0.2413
 1009MOL0     C36143   4.218   3.431   3.512  1.0493  0.2420 -0.0105
 1009MOL0     C36144   4.318   3.382   3.456  1.1793 -0.4195 -0.1980
 1009MOL0     C36145   3.601   3.260   3.181 -0.7734  0.1387 -0.2976
 1009MOL0     C36146   3.509   3.314   3.094 -0.5082  1.1986 -0.2772
 1009MOL0     C36147   3.484   3.246   2.969 -0.1067  0.2363  0.5213
 1009MOL0     H36148   3.383   3.821   2.923  1.0151  0.8457  1.7301
 1009MOL0     H36149   3.225   3.964   2.806 -0.8636  1.9679  1.2108
 1009MOL0     H36150   2.758   3.883   2.872 -1.8120  0.5364 -0.4813
 1009MOL0     H36151   2.818   3.982   3.007 -0.8214 -2.9139  0.2085
 1009MOL0     H36152   2.773   4.090   2.730 -0.6919 -2.7184 -0.0362
 1009MOL0     H36153   2.809   4.173   2.885 -2.6588  0.2600  1.2807
 1009MOL0     H36154   2.606   4.197   2.926 -1.0326  0.2740 -2.2817
 1009MOL0     H36155   2.575   4.021   2.945 -2.1784  2.1268  0.9532
 1009MOL0     H36156   2.532   4.022   2.687 -0.7542  0.4438 -1.1656
 1009MOL0     H36157   2.410   4.078   2.796  0.5169 -2.5942  0.0435
 1009MOL0     H36158   2.600   4.279   2.684  1.2319 -3.7692  4.0539
 1009MOL0     H36159   2.500   4.199   2.564 -3.1961 -1.2670  0.1465
 1009MOL0     H36160   2.299   4.262   2.674  2.2488 -2.3843 -0.8021
 1009MOL0     H36161   2.381   4.333   2.815 -1.5736 -2.4440  0.7912
 1009MOL0     H36162   2.488   4.498   2.646 -0.4750  2.1267 -0.2708
 1009MOL0     H36163   2.318   4.528   2.677  0.6836  2.3334 -1.4581
 1009MOL0     H36164   2.442   4.438   2.418  0.2797 -0.5038 -0.4420
 1009MOL0     H36165   2.278   4.371   2.462  3.3602 -2.0413 -5.0812
 1009MOL0     H36166   2.488   4.672   2.427 -0.0984 -0.8847  2.1546
 1009MOL0     H36167   2.440   4.937   2.391  2.3819  0.4934  2.7311
 1009MOL0     H36168   2.277   4.992   2.468  2.0305  3.2119  1.5969
 1009MOL0     H36169   2.348   4.947   2.689  1.4229  3.2759  0.7528
 1009MOL0     H36170   2.464   4.831   2.634 -1.4095  0.9681  3.7583
 1009MOL0     H36171   2.577   5.035   2.729 -0.3992 -2.3650  0.7420
 1009MOL0     H36172   2.499   5.138   2.603  1.4339  0.2038 -4.8443
 1009MOL0     H36173   2.741   5.086   2.593 -2.0876  2.2698  0.4037
 1009MOL0     H36174   2.655   5.053   2.446 -0.6002  0.8836 -0.0978
 1009MOL0     H36175   2.896   4.984   2.704  0.2366  1.2583  2.2260
 1009MOL0     H36176   3.009   4.858   2.891  0.9500  0.9035 -1.6466
 1009MOL0     H36177   2.834   4.553   3.274  0.4889  0.3950 -1.8222
 1009MOL0     H36178   2.916   4.414   3.481 -0.8304  0.1633  0.1019
 1009MOL0     H36179   3.306   4.272   3.458 -1.0707 -0.7862 -0.1763
 1009MOL0     H36180   3.227   4.433   3.468 -1.1719 -0.4285 -0.6829
 1009MOL0     H36181   3.133   4.369   3.693  0.8224 -0.6808  2.3942
 1009MOL0     H36182   3.221   4.214   3.701  0.6435 -1.2282 -2.5943
 1009MOL0     H36183   3.426   4.357   3.694  0.6553  1.1303 -2.7154
 1009MOL0     H36184   3.328   4.498   3.669  0.3229 -0.0737  0.0349
 1009MOL0     H36185   3.288   4.299   3.919 -0.3298 -0.3638 -1.2265
 1009MOL0     H36186   3.207   4.439   3.893 -1.3680 -0.0263 -0.5294
 1009MOL0     H36187   3.519   4.422   3.936 -0.2896 -3.8757  3.3105
 1009MOL0     H36188   3.416   4.456   4.067  1.0106  1.6799 -0.1925
 1009MOL0     H36189   3.517   4.644   3.979  1.1450 -2.2293 -0.7024
 1009MOL0     H36190   3.419   4.652   3.838 -0.2918  2.7846 -0.7654
 1009MOL0     H36191   3.217   4.598   4.035  0.7707 -1.3077 -2.3268
 1009MOL0     H36192   3.264   4.750   3.938  1.9851  3.2132  1.9514
 1009MOL0     H36193   3.399   4.691   4.208 -0.2377  0.8654  0.6847
 1009MOL0     H36194   3.353   4.841   4.140 -2.6856  1.2940  1.0145
 1009MOL0     H36195   3.182   4.208   3.219 -0.5831 -1.7045  0.6633
 1009MOL0     H36196   3.089   4.334   3.020  0.4604 -0.5948  0.0526
 1009MOL0     H36197   2.783   4.512   2.794 -1.2712  1.1493  2.2552
 1009MOL0     H36198   2.676   4.636   2.601 -0.5295 -0.8361  1.1931
 1009MOL0     H36199   2.914   3.733   3.021  0.9094 -1.9786  1.0152
 1009MOL0     H36200   3.074   3.615   3.134 -0.6720  0.7855  0.3461
 1009MOL0     H36201   3.427   3.574   3.298 -2.8583  0.4360 -3.4568
 1009MOL0     H36202   3.623   3.474   3.439  0.5016 -1.0123  0.3249
 1009MOL0     H36203   3.746   3.345   3.553  2.0803  1.6944  2.0599
 1009MOL0     H36204   3.849   3.415   3.412 -0.0224 -0.7260  1.3794
 1009MOL0     H36205   4.011   3.254   3.445  1.4298 -0.6872  0.6988
 1009MOL0     H36206   3.913   3.187   3.579  0.1025 -0.0270 -0.4259
 1009MOL0     H36207   4.070   3.290   3.676  0.0574 -0.9102 -0.9219
 1009MOL0     H36208   3.935   3.402   3.696 -1.0140 -3.8225 -0.3403
 1009MOL0     H36209   4.029   3.543   3.513 -2.3175 -1.8256 -0.0834
 1009MOL0     H36210   4.135   3.549   3.644 -3.4349  2.6455 -0.9372
 1009MOL0     H36211   4.415   3.357   3.420  1.1022  0.0806 -0.7788
 1009MOL0     H36212   3.652   3.169   3.152  0.6052  0.3624  1.3239
 1009MOL0     H36213   3.378   3.221   2.963  0.0309 -0.0271 -2.0630
 1009MOL0     H36214   3.505   3.314   2.886  2.8962  0.5843  1.4207
 1009MOL0     H36215   3.548   3.161   2.944  0.4450  1.4180 -2.4683
 1010MOL0     O36216   6.400   9.534  11.535  0.1926 -0.6304 -0.7122
 1010MOL0     C36217   6.460   9.640  11.555 -0.3088 -0.6906  0.5507
 1010MOL0     O36218   6.401   9.746  11.620  0.1793 -0.3671  0.0248
 1010MOL0     C36219   6.266   9.743  11.648  0.0884  0.0351  0.0247
 1010MOL0     C36220   6.160   9.694  11.565 -0.4754 -0.4369 -0.1709
 1010MOL0     C36221   6.031   9.700  11.597  0.3426  0.5622 -0.4222
 1010MOL0     C36222   6.002   9.748  11.729 -0.0927 -0.7416  0.0692
 1010MOL0     O36223   5.867   9.749  11.762  0.4149  0.1691  0.0889
 1010MOL0     C36224   5.819   9.845  11.850  0.2513  0.3832 -0.3399
 1010MOL0     C36225   5.672   9.818  11.868 -0.1289 -0.6012 -0.0872
 1010MOL0     C36226   5.581   9.854  11.744 -0.5368 -1.0563  0.3879
 1010MOL0     C36227   5.433   9.794  11.745 -1.1952  0.5190 -0.7984
 1010MOL0     C36228   5.345   9.804  11.620  0.3814 -0.8920  0.1147
 1010MOL0     C36229   5.297   9.951  11.585  0.2322 -0.8194 -0.2132
 1010MOL0     C36230   5.177   9.932  11.490 -0.1503  0.1328 -0.1230
 1010MOL0     C36231   5.229   9.904  11.347  0.4606 -0.6920 -0.0012
 1010MOL0     N36232   5.121   9.940  11.250 -0.1429  0.1671  0.5293
 1010MOL0     C36233   5.113  10.057  11.180  0.3163 -1.1726 -0.6208
 1010MOL0     C36234   4.988  10.055  11.135 -1.3618 -0.1909 -0.0077
 1010MOL0     C36235   4.918  10.182  11.087  0.0364 -0.3800 -0.2116
 1010MOL0     C36236   4.768  10.180  11.036 -0.1180 -0.2363 -0.8624
 1010MOL0     C36237   4.681  10.297  11.083 -0.6828 -0.9589 -0.5846
 1010MOL0     C36238   4.537  10.250  11.075 -0.5559  0.3133  0.0727
 1010MOL0     O36239   4.459  10.371  11.085  0.3420  0.4057 -0.1874
 1010MOL0     C36240   4.316  10.359  11.090  0.0559 -0.0330 -0.1328
 1010MOL0     C36241   4.249  10.238  11.074  0.2029  0.1248 -0.5093
 1010MOL0     C36242   4.109  10.241  11.082 -0.0905 -0.2050 -0.5767
 1010MOL0     C36243   4.031  10.352  11.101  0.6465 -0.1349  0.6558
 1010MOL0     C36244   3.886  10.358  11.122  0.2767  0.9993  0.5736
 1010MOL0     O36245   3.829  10.442  11.210  0.1112 -0.1236  0.0981
 1010MOL0     C36246   3.691  10.446  11.215 -0.5130 -0.2858 -0.2035
 1010MOL0     C36247   3.633  10.442  11.350  0.4775 -0.3413  0.2198
 1010MOL0     C36248   3.498  10.462  11.371 -0.4487  0.3719  0.4298
 1010MOL0     C36249   3.416  10.478  11.254 -0.6778  1.3570 -1.0028
 1010MOL0     O36250   3.290  10.506  11.274  1.0981  0.8378 -0.0713
 1010MOL0     C36251   3.194  10.420  11.208 -0.1288 -0.0179 -0.7546
 1010MOL0     C36252   3.094  10.374  11.314  0.0078  0.5799 -0.6735
 1010MOL0     C36253   2.974  10.304  11.254  0.6852 -0.4024  0.4050
 1010MOL0     C36254   2.855  10.300  11.352  0.5036  0.7874 -0.0005
 1010MOL0     C36255   2.747  10.209  11.307 -0.1243  0.5264  0.2993
 1010MOL0     C36256   2.664  10.254  11.181 -0.6416 -0.2282  0.1158
 1010MOL0     C36257   2.538  10.330  11.216  0.4135 -0.3672 -0.6180
 1010MOL0     C36258   2.405  10.252  11.255 -1.0261 -0.5484 -1.2535
 1010MOL0    Cl36259   2.258  10.363  11.294 -0.0255 -0.1356  0.1279
 1010MOL0     C36260   3.468  10.472  11.130 -0.2140  0.2173  0.2040
 1010MOL0     C36261   3.606  10.458  11.112 -0.3269  0.0940 -0.2687
 1010MOL0     O36262   3.824  10.278  11.053 -0.7412 -0.0879  0.1079
 1010MOL0     C36263   4.106  10.468  11.108  0.3067  0.5689 -0.2077
 1010MOL0     C36264   4.240  10.473  11.105 -0.2048 -0.2602  0.3391
 1010MOL0     N36265   4.936   9.931  11.162 -1.2700  0.4084  0.0454
 1010MOL0     N36266   5.021   9.860  11.228  0.2921 -0.0362 -0.8984
 1010MOL0     C36267   6.096   9.790  11.819  0.3080  0.1987 -0.4021
 1010MOL0     C36268   6.228   9.782  11.778 -0.4879 -0.0870 -0.3741
 1010MOL0     C36269   6.608   9.649  11.521  0.6964 -0.0339  0.0827
 1010MOL0     C36270   6.672   9.774  11.538  0.3207  0.4764  0.8370
 1010MOL0     C36271   6.811   9.800  11.513  0.0220 -0.3036  0.2975
 1010MOL0     C36272   6.888   9.697  11.473  0.7477  0.6853  0.1078
 1010MOL0     O36273   7.026   9.738  11.469 -0.5055 -0.5522  0.0647
 1010MOL0     C36274   7.121   9.646  11.418 -0.1485 -0.6190 -0.0407
 1010MOL0     C36275   7.178   9.687  11.288 -0.5586  0.0126 -0.0801
 1010MOL0     C36276   7.253   9.566  11.215  0.4933  1.5007 -1.2339
 1010MOL0     C36277   7.294   9.609  11.078  1.0236 -0.4885 -0.1771
 1010MOL0     C36278   7.365   9.493  11.013 -1.0443 -0.1794 -0.5228
 1010MOL0     C36279   7.422   9.402  10.959 -0.0926  0.1372  0.0200
 1010MOL0     C36280   6.829   9.574  11.447  1.2246  0.3904 -0.2335
 1010MOL0     C36281   6.692   9.538  11.473 -0.4708 -0.2948  0.9265
 1010MOL0     C36282   6.652   9.392  11.468 -0.4352  0.1758 -0.1242
 1010MOL0     H36283   6.186   9.658  11.466  1.9304 -0.7151  0.5089
 1010MOL0     H36284   5.957   9.668  11.525 -2.9560 -1.0960  3.3119
 1010MOL0     H36285   5.872   9.851  11.945 -3.0533 -1.8323  1.8514
 1010MOL0     H36286   5.835   9.936  11.791  0.1873 -1.2756 -3.1467
 1010MOL0     H36287   5.630   9.882  11.946  2.1275  0.1209  0.6270
 1010MOL0     H36288   5.660   9.715  11.901  1.3572 -0.6808  0.2975
 1010MOL0     H36289   5.622   9.829  11.645 -0.8613 -1.3546  0.3258
 1010MOL0     H36290   5.573   9.963  11.729  0.6206 -1.2238 -1.8858
 1010MOL0     H36291   5.441   9.685  11.756 -0.5506  0.7692  1.7730
 1010MOL0     H36292   5.379   9.846  11.824 -2.0149  1.6069 -2.0351
 1010MOL0     H36293   5.400   9.772  11.532  1.2474 -0.6401  0.5455
 1010MOL0     H36294   5.262   9.740  11.649  1.0615 -1.9549 -0.2338
 1010MOL0     H36295   5.265   9.992  11.681 -3.0819 -1.2017 -1.0065
 1010MOL0     H36296   5.379  10.005  11.536  1.4086 -1.3472  1.1263
 1010MOL0     H36297   5.111  10.019  11.487 -1.6554 -0.9542  0.2257
 1010MOL0     H36298   5.121   9.845  11.525 -1.6730 -0.5022 -3.7360
 1010MOL0     H36299   5.319   9.963  11.326  1.6045 -1.3274  2.6733
 1010MOL0     H36300   5.270   9.803  11.338  3.0499  0.4479 -2.4673
 1010MOL0     H36301   5.189  10.135  11.184  1.5527 -2.2161 -2.3908
 1010MOL0     H36302   4.908  10.256  11.168 -0.7748 -1.1677  0.4312
 1010MOL0     H36303   4.987  10.223  11.014  0.2554  5.0716  2.5293
 1010MOL0     H36304   4.766  10.166  10.928 -0.4536 -1.5604 -0.6923
 1010MOL0     H36305   4.719  10.093  11.079 -0.6492 -0.1282 -1.2364
 1010MOL0     H36306   4.694  10.396  11.037 -2.2651  0.1990  1.3153
 1010MOL0     H36307   4.705  10.312  11.188 -1.4136 -3.5180  0.0228
 1010MOL0     H36308   4.512  10.182  11.157 -0.8040 -0.3306 -0.5272
 1010MOL0     H36309   4.504  10.199  10.984  0.8633 -0.2566 -0.1553
 1010MOL0     H36310   4.298  10.148  11.036  2.0991  0.7824  0.2750
 1010MOL0     H36311   4.051  10.149  11.079  2.8562 -2.1903 -0.8992
 1010MOL0     H36312   3.695  10.425  11.437  0.3878 -2.7986 -0.1040
 1010MOL0     H36313   3.462  10.471  11.473  0.8065 -2.7596  1.2762
 1010MOL0     H36314   3.142  10.490  11.141 -0.7382 -0.7303 -1.0398
 1010MOL0     H36315   3.233  10.332  11.156 -1.6174  0.6651 -3.2216
 1010MOL0     H36316   3.152  10.298  11.367  1.0004  1.2937 -0.7188
 1010MOL0     H36317   3.064  10.456  11.379  1.9110  2.7827 -2.4205
 1010MOL0     H36318   2.932  10.357  11.168 -0.0707  0.3570  1.2197
 1010MOL0     H36319   3.014  10.203  11.242 -1.0570 -0.9017 -2.0416
 1010MOL0     H36320   2.811  10.397  11.378 -1.1336 -0.2206  1.2578
 1010MOL0     H36321   2.889  10.258  11.447  1.2570  1.3442 -0.0220
 1010MOL0     H36322   2.683  10.209  11.396  0.9206  0.9576  1.0752
 1010MOL0     H36323   2.786  10.108  11.288 -2.3374 -0.2822 -0.2042
 1010MOL0     H36324   2.713  10.314  11.104  1.4626 -3.2739 -1.1470
 1010MOL0     H36325   2.632  10.168  11.121 -2.6872  0.8025 -0.3419
 1010MOL0     H36326   2.516  10.391  11.128  0.1831 -3.4531 -2.8625
 1010MOL0     H36327   2.543  10.396  11.303 -0.7951 -1.6833  0.5050
 1010MOL0     H36328   2.380  10.180  11.177 -2.2846 -2.6906  0.9890
 1010MOL0     H36329   2.443  10.191  11.337  0.4782 -0.9643 -2.2189
 1010MOL0     H36330   3.408  10.479  11.040 -1.5188 -1.6229  0.8577
 1010MOL0     H36331   3.651  10.466  11.014 -2.8554 -2.4927 -1.8012
 1010MOL0     H36332   4.059  10.565  11.122  0.7609  0.7363  0.1624
 1010MOL0     H36333   4.287  10.568  11.126 -2.9435  1.3473 -0.3004
 1010MOL0     H36334   6.073   9.824  11.919  0.6651  1.9316 -0.8666
 1010MOL0     H36335   6.306   9.805  11.850 -0.8027 -2.8925  0.9885
 1010MOL0     H36336   6.618   9.856  11.586  1.0094  1.2913  0.2493
 1010MOL0     H36337   6.850   9.898  11.539  0.0925 -0.1767 -0.2756
 1010MOL0     H36338   7.078   9.545  11.409 -3.2206  0.5168  0.5071
 1010MOL0     H36339   7.205   9.636  11.486 -1.4358 -2.2900  1.4040
 1010MOL0     H36340   7.260   9.758  11.294  1.1689 -1.9335  0.7024
 1010MOL0     H36341   7.090   9.718  11.230 -3.2080 -4.9921  0.6705
 1010MOL0     H36342   7.179   9.485  11.211  0.9247  1.1262 -1.7134
 1010MOL0     H36343   7.346   9.537  11.265  0.7908  1.6275 -1.7081
 1010MOL0     H36344   7.209   9.654  11.025  0.4083  0.5126  1.5607
 1010MOL0     H36345   7.372   9.686  11.081  0.8171 -0.2378 -1.0047
 1010MOL0     H36346   7.474   9.327  10.903  0.2824 -0.3807  1.0371
 1010MOL0     H36347   6.899   9.497  11.418  3.3574  0.5730  3.7665
 1010MOL0     H36348   6.575   9.369  11.543  2.0960 -0.5082  2.4944
 1010MOL0     H36349   6.613   9.355  11.373  2.1083 -3.4729  0.0448
 1010MOL0     H36350   6.746   9.339  11.487 -0.4489 -1.1768 -3.2511
 1011MOL0     O36351  10.194  10.722   6.011  0.1296 -0.0110 -0.0304
 1011MOL0     C36352  10.307  10.679   5.979  0.1190  0.6275  0.3080
 1011MOL0     O36353  10.338  10.642   5.852 -0.1062 -0.4386  0.6094
 1011MOL0     C36354  10.249  10.660   5.755 -0.1022 -0.4280  0.4682
 1011MOL0     C36355  10.267  10.739   5.635 -1.3255  0.0522  0.8295
 1011MOL0     C36356  10.178  10.761   5.533  1.1698 -0.0966 -0.5471
 1011MOL0     C36357  10.044  10.708   5.565 -0.0548 -0.2181  1.1073
 1011MOL0     O36358   9.930  10.739   5.493 -1.1400 -0.1216 -0.3806
 1011MOL0     C36359   9.816  10.775   5.568  0.6328  0.0038  0.8214
 1011MOL0     C36360   9.716  10.829   5.466  0.4644  0.7719 -0.0602
 1011MOL0     C36361   9.660  10.726   5.355 -0.5886  0.4515 -0.7822
 1011MOL0     C36362   9.551  10.635   5.418  1.2446  0.3338  0.5014
 1011MOL0     C36363   9.508  10.536   5.315  0.5616  1.3913 -0.2984
 1011MOL0     C36364   9.610  10.408   5.305  0.1729  0.8453  0.8288
 1011MOL0     C36365   9.557  10.298   5.216 -0.0220 -0.1893 -0.5487
 1011MOL0     C36366   9.664  10.203   5.163  0.2800  0.4456 -0.7657
 1011MOL0     N36367   9.610  10.070   5.116 -0.0968 -0.7413 -0.1945
 1011MOL0     C36368   9.692   9.969   5.089  0.4839 -0.2706 -1.4371
 1011MOL0     C36369   9.608   9.860   5.078 -0.2231 -0.7138  0.3903
 1011MOL0     C36370   9.658   9.724   5.062 -0.2911  0.9893  0.5425
 1011MOL0     C36371   9.626   9.666   4.921  0.7031  0.2139  0.4496
 1011MOL0     C36372   9.676   9.516   4.924 -0.0777 -0.8949  0.9058
 1011MOL0     C36373   9.623   9.405   5.011  0.6845 -0.0154  0.3964
 1011MOL0     O36374   9.710   9.295   5.032 -0.0194 -0.4835  0.4731
 1011MOL0     C36375   9.713   9.193   4.937  0.7321  0.4990 -0.7315
 1011MOL0     C36376   9.799   9.207   4.827 -0.6125  0.7258 -0.2800
 1011MOL0     C36377   9.804   9.112   4.723  0.6726  0.2739 -0.4166
 1011MOL0     C36378   9.703   9.004   4.731 -0.2846  0.8125 -0.2701
 1011MOL0     C36379   9.706   8.897   4.630  0.0640  0.1228 -0.4799
 1011MOL0     O36380   9.814   8.892   4.554  0.4325 -1.3867  0.2654
 1011MOL0     C36381   9.812   8.810   4.451 -0.5424  0.2546  0.3688
 1011MOL0     C36382   9.764   8.845   4.322 -1.5346  0.1257 -0.1209
 1011MOL0     C36383   9.748   8.747   4.223 -0.5974 -0.6855  0.6725
 1011MOL0     C36384   9.801   8.615   4.243  0.4120  0.2666  0.4279
 1011MOL0     O36385   9.807   8.540   4.137 -0.1703  0.1113 -0.2947
 1011MOL0     C36386   9.920   8.566   4.055 -0.6255 -0.0060 -0.1270
 1011MOL0     C36387  10.057   8.531   4.133 -0.0988  0.3494  0.6696
 1011MOL0     C36388  10.109   8.389   4.132  0.3847 -0.0301 -0.4464
 1011MOL0     C36389  10.078   8.317   4.261 -0.7318  0.0859  1.0548
 1011MOL0     C36390  10.139   8.180   4.274  0.1283  0.5405  0.4824
 1011MOL0     C36391  10.096   8.085   4.166  0.1821  0.1778 -0.2797
 1011MOL0     C36392  10.176   7.965   4.175  0.0354 -1.2372 -0.2288
 1011MOL0     C36393  10.155   7.868   4.054 -0.3189  0.8565  1.2166
 1011MOL0    Cl36394   9.994   7.788   4.061  0.1026 -0.2586  0.7367
 1011MOL0     C36395   9.855   8.590   4.372  0.4254  0.1979 -0.3630
 1011MOL0     C36396   9.845   8.679   4.477  0.5581  0.6633 -0.4412
 1011MOL0     O36397   9.613   8.819   4.628  0.2689 -1.0025 -0.8934
 1011MOL0     C36398   9.622   8.999   4.848  0.7636  0.8005  0.2382
 1011MOL0     C36399   9.626   9.089   4.949  0.3839  0.0364  0.2417
 1011MOL0     N36400   9.476   9.906   5.096 -1.0919 -0.4828 -0.0904
 1011MOL0     N36401   9.484  10.031   5.118  0.5680  0.5096  0.4809
 1011MOL0     C36402  10.028  10.626   5.671 -0.2189 -1.3780  0.1726
 1011MOL0     C36403  10.119  10.606   5.770 -0.3524  0.0880 -0.7689
 1011MOL0     C36404  10.404  10.644   6.083 -0.2545  0.4795  0.7865
 1011MOL0     C36405  10.490  10.536   6.057 -0.1975 -0.1302  0.5782
 1011MOL0     C36406  10.596  10.497   6.143 -0.3398 -1.5469 -0.0090
 1011MOL0     C36407  10.617  10.571   6.267 -1.0141  0.2500  0.7083
 1011MOL0     O36408  10.703  10.554   6.369  0.1034 -0.1911 -0.2122
 1011MOL0     C36409  10.813  10.462   6.365 -0.0197 -0.6043 -0.1529
 1011MOL0     C36410  10.929  10.508   6.275  1.1011  0.1289  0.1830
 1011MOL0     C36411  11.032  10.403   6.290  0.9483 -0.1920 -0.2189
 1011MOL0     C36412  11.144  10.417   6.195 -0.2014 -0.2655 -0.4885
 1011MOL0     C36413  11.213  10.291   6.168 -0.0346  0.3650 -0.4557
 1011MOL0     C36414  11.257  10.184   6.129  0.0851 -1.0025 -0.6291
 1011MOL0     C36415  10.522  10.667   6.301  0.5712 -0.0050  0.2282
 1011MOL0     C36416  10.423  10.712   6.210  0.0536  0.9110  0.4797
 1011MOL0     C36417  10.358  10.848   6.234 -0.1520 -0.1016  0.4565
 1011MOL0     H36418  10.364  10.788   5.632 -0.9551 -0.6602  1.0751
 1011MOL0     H36419  10.202  10.823   5.447  0.1918 -0.0780 -0.8162
 1011MOL0     H36420   9.762  10.691   5.612  0.1161  0.4186  0.9933
 1011MOL0     H36421   9.842  10.853   5.640  0.7944  2.0223 -1.2830
 1011MOL0     H36422   9.754  10.919   5.416  0.9760 -0.3094 -1.6995
 1011MOL0     H36423   9.641  10.868   5.535  1.4793 -0.8812  2.0844
 1011MOL0     H36424   9.736  10.658   5.316  0.0315 -1.6197  3.4550
 1011MOL0     H36425   9.605  10.781   5.277 -2.4095 -0.7716 -0.4201
 1011MOL0     H36426   9.594  10.580   5.502 -2.6257 -1.0086  1.8156
 1011MOL0     H36427   9.470  10.695   5.460  1.2424  3.0365 -2.8183
 1011MOL0     H36428   9.415  10.490   5.350  2.0098  0.0514  2.0544
 1011MOL0     H36429   9.496  10.589   5.220  1.3076  3.1277  0.5301
 1011MOL0     H36430   9.705  10.451   5.272  0.8339 -1.8939 -1.1682
 1011MOL0     H36431   9.624  10.376   5.408 -0.7162  0.3497  0.8026
 1011MOL0     H36432   9.508  10.350   5.133 -1.6230  4.5584  2.9194
 1011MOL0     H36433   9.495  10.232   5.277  1.6363 -0.3437  1.0665
 1011MOL0     H36434   9.726  10.261   5.094  0.8563  3.3706  1.9968
 1011MOL0     H36435   9.733  10.172   5.242  0.5920  3.0849  0.0904
 1011MOL0     H36436   9.800   9.972   5.078  1.0282 -0.9753  2.3945
 1011MOL0     H36437   9.762   9.726   5.094  0.1972  0.7461 -0.9378
 1011MOL0     H36438   9.598   9.657   5.124 -2.0490  1.2654 -0.7695
 1011MOL0     H36439   9.519   9.669   4.899  0.4470 -0.3925  1.4960
 1011MOL0     H36440   9.668   9.728   4.841 -2.3837 -0.9049 -2.2404
 1011MOL0     H36441   9.781   9.522   4.954  0.3117  0.2053 -0.4933
 1011MOL0     H36442   9.666   9.474   4.823  1.4152 -0.8585  0.7156
 1011MOL0     H36443   9.532   9.367   4.965  0.4255  1.7511 -0.6685
 1011MOL0     H36444   9.593   9.447   5.107 -0.2032  4.5666 -1.5980
 1011MOL0     H36445   9.871   9.287   4.841  0.1959 -0.3107  2.1559
 1011MOL0     H36446   9.864   9.120   4.633 -1.1661 -0.5398 -1.7717
 1011MOL0     H36447   9.733   8.949   4.310 -3.9265 -0.3844  1.0267
 1011MOL0     H36448   9.721   8.782   4.123  0.9853 -0.0816  0.4238
 1011MOL0     H36449   9.926   8.519   3.956 -1.8183  1.9831 -1.2138
 1011MOL0     H36450   9.939   8.671   4.028  1.3413 -1.0735 -3.5079
 1011MOL0     H36451  10.139   8.584   4.084  0.0337  0.1713  0.6920
 1011MOL0     H36452  10.072   8.581   4.230  3.6876  1.5489 -0.3394
 1011MOL0     H36453  10.049   8.339   4.055  2.2660  1.1626 -2.8180
 1011MOL0     H36454  10.213   8.385   4.100 -0.0556 -1.6560 -1.8006
 1011MOL0     H36455   9.969   8.309   4.250 -0.4641 -0.3593 -2.1609
 1011MOL0     H36456  10.106   8.378   4.347 -0.3041  0.9897  0.2986
 1011MOL0     H36457  10.095   8.144   4.367 -0.9376  2.4718  0.7631
 1011MOL0     H36458  10.248   8.184   4.287  0.4087  0.3330 -1.4750
 1011MOL0     H36459   9.988   8.068   4.174  0.2699 -1.6551 -1.9855
 1011MOL0     H36460  10.108   8.122   4.064  0.5046  0.0394 -0.2934
 1011MOL0     H36461  10.157   7.911   4.269 -0.6962 -0.4023  0.1151
 1011MOL0     H36462  10.277   8.006   4.166 -1.4857  3.0550  0.0221
 1011MOL0     H36463  10.177   7.906   3.954  1.9630 -1.7702  0.5834
 1011MOL0     H36464  10.218   7.779   4.066  0.8384  1.7380  1.8401
 1011MOL0     H36465   9.888   8.488   4.389  3.3734  1.1478  0.1815
 1011MOL0     H36466   9.882   8.652   4.576  0.4397  0.5950 -0.4156
 1011MOL0     H36467   9.561   8.910   4.861  0.6251  0.5319 -1.9458
 1011MOL0     H36468   9.570   9.070   5.041  0.8633 -2.7701  0.0329
 1011MOL0     H36469   9.933  10.574   5.679 -0.3740 -0.8868  2.0050
 1011MOL0     H36470  10.097  10.544   5.856 -0.4267  2.9484  1.4282
 1011MOL0     H36471  10.483  10.484   5.962  3.1268  3.1348 -1.7779
 1011MOL0     H36472  10.662  10.414   6.123 -2.2723 -3.6049  1.6422
 1011MOL0     H36473  10.774  10.366   6.333 -1.2640  0.3830 -1.7669
 1011MOL0     H36474  10.842  10.451   6.470 -2.4000 -1.0600  0.5238
 1011MOL0     H36475  10.972  10.606   6.300  1.2980  1.0523 -3.2700
 1011MOL0     H36476  10.889  10.514   6.174 -0.2561  0.1640  0.7109
 1011MOL0     H36477  10.992  10.301   6.290  1.6690 -0.4929  0.9675
 1011MOL0     H36478  11.066  10.397   6.394  1.5857 -1.0855 -0.4667
 1011MOL0     H36479  11.114  10.466   6.102  0.0815  2.2518  0.6735
 1011MOL0     H36480  11.218  10.483   6.240  0.9389 -0.7956 -1.5470
 1011MOL0     H36481  11.290  10.087   6.098 -0.9719 -0.8677 -2.2622
 1011MOL0     H36482  10.518  10.723   6.394 -3.0833 -0.3273  0.4262
 1011MOL0     H36483  10.387  10.877   6.335 -1.4219  3.2452 -0.0358
 1011MOL0     H36484  10.391  10.920   6.159 -2.4504  1.1344  0.5486
 1011MOL0     H36485  10.249  10.856   6.241  0.0066  0.8190  4.3130
 1012MOL0     O36486   4.016   3.765   6.543 -0.0092 -0.0067 -0.1147
 1012MOL0     C36487   4.058   3.709   6.640 -0.3054 -0.3478 -0.0626
 1012MOL0     O36488   4.139   3.773   6.736  0.0661  0.1920  0.4872
 1012MOL0     C36489   4.209   3.884   6.701 -0.3287  0.6532  0.3177
 1012MOL0     C36490   4.352   3.863   6.679  0.8185  0.1909 -0.6418
 1012MOL0     C36491   4.443   3.967   6.664  0.0560 -0.2122  0.9738
 1012MOL0     C36492   4.393   4.100   6.671  0.2930  0.0130 -0.0496
 1012MOL0     O36493   4.474   4.206   6.660 -1.1961  0.0459 -0.7457
 1012MOL0     C36494   4.443   4.336   6.615  0.3822 -0.4659  0.0593
 1012MOL0     C36495   4.536   4.386   6.503  0.4152  0.2417 -0.5854
 1012MOL0     C36496   4.552   4.286   6.386  0.6117 -0.2738  0.0487
 1012MOL0     C36497   4.622   4.343   6.259 -0.0950 -0.6619  0.1761
 1012MOL0     C36498   4.534   4.439   6.175  0.2606  0.2146 -1.2030
 1012MOL0     C36499   4.593   4.497   6.049  0.5830 -0.2441 -0.3737
 1012MOL0     C36500   4.526   4.630   6.007  0.2682  0.2290 -1.1267
 1012MOL0     C36501   4.588   4.695   5.884  0.3016 -0.1909  0.3860
 1012MOL0     N36502   4.737   4.703   5.876  0.4013  1.0660 -0.5095
 1012MOL0     C36503   4.815   4.623   5.797  0.8934  0.1951 -1.1273
 1012MOL0     C36504   4.943   4.662   5.825  0.2232  0.2026  0.2476
 1012MOL0     C36505   5.064   4.621   5.754  1.1026 -0.0058 -1.0830
 1012MOL0     C36506   5.076   4.466   5.739  0.0574 -0.5377  0.4502
 1012MOL0     C36507   5.118   4.420   5.876  0.0814  0.7890  0.3203
 1012MOL0     C36508   5.255   4.356   5.849 -0.3756  0.1950 -0.2905
 1012MOL0     O36509   5.351   4.442   5.803 -0.5410 -0.3359  0.6139
 1012MOL0     C36510   5.433   4.400   5.701  0.7070  0.3452 -0.1873
 1012MOL0     C36511   5.464   4.492   5.602 -0.7104  0.1576  0.3905
 1012MOL0     C36512   5.550   4.452   5.488 -0.3448  0.0652  0.1944
 1012MOL0     C36513   5.591   4.318   5.484  1.5342 -0.0491 -0.3209
 1012MOL0     C36514   5.647   4.267   5.360  0.5249  0.3009 -0.2563
 1012MOL0     O36515   5.680   4.368   5.278 -0.2044 -0.3006  1.0322
 1012MOL0     C36516   5.757   4.351   5.165  0.4686 -0.7528 -0.0359
 1012MOL0     C36517   5.863   4.254   5.157 -0.2940  0.4598 -0.0163
 1012MOL0     C36518   5.939   4.255   5.040 -0.0738 -0.4246  0.1282
 1012MOL0     C36519   5.917   4.344   4.930  0.6822 -0.1334 -0.5023
 1012MOL0     O36520   5.988   4.318   4.816  0.3619 -0.5256  0.2143
 1012MOL0     C36521   5.935   4.382   4.694  0.7029 -0.1405 -0.3232
 1012MOL0     C36522   5.975   4.291   4.577  0.0235  0.5852  0.3588
 1012MOL0     C36523   5.859   4.210   4.549  0.2065  0.6715  0.0890
 1012MOL0     C36524   5.887   4.125   4.428 -0.1169 -0.8943 -0.3995
 1012MOL0     C36525   5.761   4.047   4.392 -0.8544  0.1081  0.0445
 1012MOL0     C36526   5.737   3.930   4.489  0.0907  0.1924  0.6924
 1012MOL0     C36527   5.606   3.855   4.472  0.0492 -0.7562  0.9578
 1012MOL0     C36528   5.588   3.744   4.574  1.1666  0.4788  0.2497
 1012MOL0    Cl36529   5.685   3.612   4.509 -0.1519 -0.2779 -0.5849
 1012MOL0     C36530   5.809   4.443   4.951  0.3728  0.1970  0.8250
 1012MOL0     C36531   5.738   4.449   5.067 -0.9935 -1.0267 -0.0396
 1012MOL0     O36532   5.653   4.146   5.344 -0.0076  0.5322 -0.7602
 1012MOL0     C36533   5.552   4.232   5.590 -0.4447 -0.1445  0.0814
 1012MOL0     C36534   5.475   4.267   5.699 -0.5053  0.4757 -0.2849
 1012MOL0     N36535   4.940   4.770   5.918  0.1045 -0.3710  0.1405
 1012MOL0     N36536   4.814   4.786   5.949 -0.1559 -0.1321  0.1344
 1012MOL0     C36537   4.254   4.128   6.697  0.8095  0.0342  0.3234
 1012MOL0     C36538   4.165   4.019   6.706  0.0865 -0.5470  0.0958
 1012MOL0     C36539   4.009   3.575   6.667 -0.0845 -0.3748  0.1355
 1012MOL0     C36540   4.016   3.480   6.559  0.6491  0.0655 -0.5148
 1012MOL0     C36541   3.996   3.350   6.583 -0.3535  0.4322  0.6444
 1012MOL0     C36542   3.959   3.311   6.710 -0.0570 -0.2159  0.7990
 1012MOL0     O36543   3.922   3.176   6.728 -1.1033 -0.1340  0.5948
 1012MOL0     C36544   4.036   3.101   6.681 -0.5512 -0.4214 -1.0900
 1012MOL0     C36545   4.012   2.964   6.738 -0.0445 -0.1229 -0.2515
 1012MOL0     C36546   4.129   2.871   6.726  0.4208 -0.3437  0.0239
 1012MOL0     C36547   4.087   2.728   6.754  0.3338 -0.2343  0.8273
 1012MOL0     C36548   4.020   2.682   6.627 -0.3567 -0.0028  0.3302
 1012MOL0     C36549   3.960   2.665   6.529 -0.2645 -0.1748 -0.1515
 1012MOL0     C36550   3.946   3.400   6.817  0.2367  0.3023 -0.4946
 1012MOL0     C36551   3.977   3.540   6.798 -0.2669  0.2023  0.6462
 1012MOL0     C36552   3.945   3.628   6.915  0.1309 -0.1200  0.1691
 1012MOL0     H36553   4.383   3.759   6.674 -2.1577 -0.8649  0.3959
 1012MOL0     H36554   4.547   3.945   6.645 -0.1166  0.9919 -1.9097
 1012MOL0     H36555   4.336   4.345   6.591  0.7754 -1.4131 -2.2941
 1012MOL0     H36556   4.470   4.400   6.700  0.5114 -3.0660  2.1097
 1012MOL0     H36557   4.632   4.404   6.552  0.7030 -2.3679 -0.0723
 1012MOL0     H36558   4.495   4.471   6.448  0.6044 -0.0918 -1.2529
 1012MOL0     H36559   4.460   4.234   6.358  0.4345  1.0445 -2.0183
 1012MOL0     H36560   4.609   4.197   6.416 -2.2984 -2.4970 -0.5887
 1012MOL0     H36561   4.710   4.400   6.289 -1.5282  1.5051  0.4709
 1012MOL0     H36562   4.664   4.259   6.203 -0.3892 -1.5084  1.1792
 1012MOL0     H36563   4.433   4.398   6.162 -0.4253  1.0729  0.9650
 1012MOL0     H36564   4.511   4.529   6.232 -1.3078 -1.1203  0.3763
 1012MOL0     H36565   4.699   4.516   6.062  0.9896 -0.6516 -2.5860
 1012MOL0     H36566   4.583   4.428   5.964  2.1036 -0.4768 -0.3915
 1012MOL0     H36567   4.559   4.705   6.079  0.9449  1.2448 -2.4559
 1012MOL0     H36568   4.417   4.621   6.000  0.5162 -4.0716 -2.2489
 1012MOL0     H36569   4.542   4.652   5.795  0.5741 -1.6780  0.9419
 1012MOL0     H36570   4.553   4.798   5.891 -2.4240 -1.0470  0.2262
 1012MOL0     H36571   4.789   4.552   5.719  3.1616 -1.6403 -0.3074
 1012MOL0     H36572   5.072   4.674   5.658  0.7517  0.9090 -0.6189
 1012MOL0     H36573   5.148   4.660   5.811  1.3962  1.9767 -2.7586
 1012MOL0     H36574   4.988   4.406   5.713 -0.4978  0.6120 -0.4168
 1012MOL0     H36575   5.151   4.465   5.659  0.4169  1.6756  0.7125
 1012MOL0     H36576   5.044   4.353   5.921 -2.3719  2.0180 -1.6939
 1012MOL0     H36577   5.147   4.498   5.947  1.5222 -0.1097  0.7942
 1012MOL0     H36578   5.240   4.271   5.783 -1.2994 -0.5311  0.8181
 1012MOL0     H36579   5.280   4.300   5.939  1.8425 -3.3903 -2.8941
 1012MOL0     H36580   5.415   4.586   5.624 -0.9817  0.7110 -2.2428
 1012MOL0     H36581   5.575   4.522   5.409 -2.9456  0.4490 -0.4018
 1012MOL0     H36582   5.882   4.190   5.243  1.0955 -0.6661 -1.0986
 1012MOL0     H36583   6.003   4.169   5.057  0.0403  0.2810  4.7030
 1012MOL0     H36584   5.831   4.414   4.692  1.0015  0.9232  0.3118
 1012MOL0     H36585   5.986   4.477   4.674 -1.4045  1.1349  0.0571
 1012MOL0     H36586   6.008   4.343   4.487 -1.3698 -2.0149 -1.7990
 1012MOL0     H36587   6.061   4.232   4.610 -0.8804 -0.3130  1.2153
 1012MOL0     H36588   5.834   4.161   4.644  3.4010  2.5629  2.0996
 1012MOL0     H36589   5.772   4.269   4.518  0.5306 -0.3765 -3.2493
 1012MOL0     H36590   5.961   4.047   4.447 -1.9319 -2.2878  1.2649
 1012MOL0     H36591   5.928   4.190   4.349 -0.4866 -0.6176 -0.3703
 1012MOL0     H36592   5.772   4.005   4.291  1.3018 -1.9684  1.0458
 1012MOL0     H36593   5.677   4.116   4.393  0.0978  1.3154  0.1135
 1012MOL0     H36594   5.820   3.862   4.467 -1.7036 -2.6057  1.9775
 1012MOL0     H36595   5.754   3.968   4.590 -1.8694 -1.6007  1.7804
 1012MOL0     H36596   5.571   3.821   4.374  4.9903  1.5500 -1.9482
 1012MOL0     H36597   5.539   3.936   4.501  2.2497  1.3120  0.5598
 1012MOL0     H36598   5.627   3.768   4.674  0.9132  1.1971  0.1819
 1012MOL0     H36599   5.482   3.718   4.578  0.6869  2.3296  0.7777
 1012MOL0     H36600   5.799   4.519   4.874 -1.6280 -3.1460 -2.6067
 1012MOL0     H36601   5.672   4.532   5.090 -0.0229 -0.5072  0.9767
 1012MOL0     H36602   5.588   4.131   5.571  0.8606  0.6589 -2.1618
 1012MOL0     H36603   5.443   4.199   5.778 -1.1667  0.5762 -0.4563
 1012MOL0     H36604   4.208   4.223   6.722 -1.3365 -0.6941 -0.5626
 1012MOL0     H36605   4.059   4.033   6.724 -0.5136 -3.5065 -0.5782
 1012MOL0     H36606   4.017   3.511   6.455  0.6078 -1.0920 -0.8778
 1012MOL0     H36607   3.979   3.289   6.495 -2.9253 -1.8755  2.5451
 1012MOL0     H36608   4.134   3.134   6.716 -0.3308 -1.1718 -0.9729
 1012MOL0     H36609   4.028   3.096   6.572 -2.3184  0.7244 -1.0619
 1012MOL0     H36610   3.920   2.928   6.690 -1.3004  0.2450  1.7600
 1012MOL0     H36611   3.984   2.988   6.841  2.5918  1.6940  0.1333
 1012MOL0     H36612   4.212   2.904   6.789 -0.4067  0.8683  0.5214
 1012MOL0     H36613   4.175   2.876   6.626  2.0484  1.1083  0.7954
 1012MOL0     H36614   4.170   2.656   6.756  2.6332  2.0809 -1.6320
 1012MOL0     H36615   4.019   2.717   6.839 -1.6751  2.3021 -0.3249
 1012MOL0     H36616   3.891   2.656   6.448  3.5841 -0.4593 -3.7825
 1012MOL0     H36617   3.920   3.355   6.912  0.4158  0.4187 -0.3909
 1012MOL0     H36618   3.877   3.570   6.978  2.3203 -3.0177  0.1097
 1012MOL0     H36619   4.040   3.649   6.966  0.5124  0.5865 -0.8026
 1012MOL0     H36620   3.889   3.720   6.898  0.0270  0.3551  2.6865
 1013MOL0     O36621   5.740  10.904   6.266  0.0612  0.1506  0.4847
 1013MOL0     C36622   5.702  10.933   6.379 -0.7563 -0.1520  0.6774
 1013MOL0     O36623   5.572  10.985   6.417 -0.1191  0.0278  0.2128
 1013MOL0     C36624   5.485  10.998   6.315  0.8170 -0.1549  0.2824
 1013MOL0     C36625   5.377  10.908   6.291 -0.1965  1.0776 -0.4638
 1013MOL0     C36626   5.278  10.939   6.200 -0.5679 -0.4250 -0.9025
 1013MOL0     C36627   5.284  11.064   6.133 -0.5627  0.1512  0.2857
 1013MOL0     O36628   5.176  11.083   6.043 -0.1765  0.3370 -0.9706
 1013MOL0     C36629   5.205  11.187   5.943 -0.0847  0.4805  0.2257
 1013MOL0     C36630   5.078  11.179   5.865  1.0299  1.0372  0.8040
 1013MOL0     C36631   5.101  11.247   5.722 -1.1086 -1.0917  0.5649
 1013MOL0     C36632   5.172  11.386   5.744  0.7393 -0.1425  0.0794
 1013MOL0     C36633   5.130  11.473   5.623 -0.0993 -0.5823 -0.4856
 1013MOL0     C36634   5.204  11.605   5.624 -1.0134 -0.5556 -0.6430
 1013MOL0     C36635   5.132  11.704   5.528  0.3837 -0.4178  0.1996
 1013MOL0     C36636   5.196  11.837   5.497 -0.7407  0.1575 -0.6385
 1013MOL0     N36637   5.173  11.928   5.610 -0.0217  0.0842 -0.4190
 1013MOL0     C36638   5.062  12.009   5.609 -1.1028  0.7817 -0.2913
 1013MOL0     C36639   5.085  12.090   5.715 -0.6962 -0.5642  0.0207
 1013MOL0     C36640   4.983  12.196   5.755  0.8507  0.0017  0.3304
 1013MOL0     C36641   4.857  12.137   5.829  0.2471  0.7866  0.3877
 1013MOL0     C36642   4.875  12.101   5.983 -0.3681 -0.7958 -0.0089
 1013MOL0     C36643   4.978  11.991   6.018  1.1095 -0.9495  0.0088
 1013MOL0     O36644   4.971  11.874   5.946 -0.5330 -1.1311 -0.3895
 1013MOL0     C36645   4.869  11.790   5.979  0.5549 -0.0760 -0.7399
 1013MOL0     C36646   4.799  11.781   6.101  0.6554 -0.3520 -0.7506
 1013MOL0     C36647   4.711  11.672   6.108  0.5044  0.3493  0.0727
 1013MOL0     C36648   4.684  11.578   6.008  0.0782 -0.3699  1.3455
 1013MOL0     C36649   4.597  11.455   6.017  0.4005  0.3287  0.1714
 1013MOL0     O36650   4.501  11.458   6.115 -0.3859 -0.3827  0.5561
 1013MOL0     C36651   4.428  11.348   6.151 -0.5909  0.1391 -0.7534
 1013MOL0     C36652   4.373  11.266   6.051  0.3381  0.4069  0.3405
 1013MOL0     C36653   4.308  11.146   6.099 -0.1629  0.3250 -0.2196
 1013MOL0     C36654   4.286  11.117   6.236 -1.1892  1.2090 -0.7556
 1013MOL0     O36655   4.212  11.004   6.268  0.2523 -0.1771 -0.3569
 1013MOL0     C36656   4.084  11.037   6.314 -0.0715 -1.2499  0.8041
 1013MOL0     C36657   4.013  10.909   6.333 -0.0146  0.0529  0.1224
 1013MOL0     C36658   4.049  10.831   6.467  0.6247 -0.6322  0.1475
 1013MOL0     C36659   3.940  10.722   6.489  0.6289 -0.3011  0.6971
 1013MOL0     C36660   3.969  10.625   6.606  0.3417  1.4883 -0.6471
 1013MOL0     C36661   3.846  10.536   6.636 -0.6555  0.1335 -0.7453
 1013MOL0     C36662   3.859  10.443   6.752 -0.2321 -0.9250 -0.0600
 1013MOL0     C36663   3.885  10.524   6.879  0.3044 -0.5638 -0.6377
 1013MOL0    Cl36664   3.825  10.442   7.031 -0.1312  0.2172 -0.5796
 1013MOL0     C36665   4.351  11.204   6.330  0.7246  0.7454  0.2495
 1013MOL0     C36666   4.422  11.314   6.287  0.1418 -0.4357 -0.8969
 1013MOL0     O36667   4.631  11.355   5.953  0.2757  0.6073  0.5013
 1013MOL0     C36668   4.756  11.592   5.893  0.9174 -0.0932  0.2345
 1013MOL0     C36669   4.844  11.695   5.875 -0.3987 -0.2047 -0.2482
 1013MOL0     N36670   5.199  12.061   5.782  0.5726 -0.3306  0.9218
 1013MOL0     N36671   5.260  11.972   5.704 -0.8018  0.0713  0.7594
 1013MOL0     C36672   5.395  11.142   6.150  0.1830 -0.2734  0.4940
 1013MOL0     C36673   5.504  11.110   6.232  0.7602  0.1774 -0.0969
 1013MOL0     C36674   5.784  10.888   6.496 -1.3651  0.6622 -0.0085
 1013MOL0     C36675   5.744  10.910   6.629 -0.1565 -0.4677  0.3965
 1013MOL0     C36676   5.812  10.870   6.745 -0.0509  0.5605  0.0849
 1013MOL0     C36677   5.938  10.810   6.729  0.8236  0.0872 -0.0769
 1013MOL0     O36678   6.017  10.757   6.832  0.0563  0.5376 -0.1121
 1013MOL0     C36679   5.988  10.772   6.966 -0.6518  0.0658 -0.4879
 1013MOL0     C36680   6.087  10.691   7.052  0.8381  0.0490  1.1530
 1013MOL0     C36681   6.061  10.541   7.089 -0.1445  0.3336  0.0236
 1013MOL0     C36682   6.015  10.448   6.979  0.1837  0.0480 -1.0545
 1013MOL0     C36683   6.118  10.418   6.879 -0.3892 -0.5433  0.1028
 1013MOL0     C36684   6.201  10.392   6.791 -0.1208 -0.1262 -0.2786
 1013MOL0     C36685   5.988  10.803   6.602  1.2175  0.2208  0.3965
 1013MOL0     C36686   5.922  10.843   6.485 -0.0240 -0.6880  0.7371
 1013MOL0     C36687   6.017  10.848   6.363 -0.7714  0.6825  0.6624
 1013MOL0     H36688   5.352  10.832   6.364 -2.8152  3.7486  1.6356
 1013MOL0     H36689   5.193  10.872   6.192 -0.0840 -1.3902  1.2324
 1013MOL0     H36690   5.222  11.286   5.987  1.4360  0.9732 -1.3724
 1013MOL0     H36691   5.298  11.158   5.894  0.2926  1.0408  0.5946
 1013MOL0     H36692   5.000  11.238   5.914 -0.9852 -0.1414 -0.8364
 1013MOL0     H36693   5.044  11.075   5.860 -1.7103  1.8838  0.2474
 1013MOL0     H36694   5.007  11.265   5.669 -1.4655 -1.9111  0.9014
 1013MOL0     H36695   5.154  11.188   5.647 -2.5598 -0.9323 -0.6296
 1013MOL0     H36696   5.126  11.429   5.833 -1.9271 -0.4796 -1.0466
 1013MOL0     H36697   5.281  11.378   5.741  1.0601  1.0892  3.5894
 1013MOL0     H36698   5.154  11.435   5.523  1.6391 -1.5059  0.2361
 1013MOL0     H36699   5.022  11.487   5.626 -0.0080  0.2234  2.9927
 1013MOL0     H36700   5.203  11.645   5.726 -2.2779 -0.6621 -0.5942
 1013MOL0     H36701   5.306  11.607   5.584 -2.0873  1.0702 -3.6696
 1013MOL0     H36702   5.046  11.731   5.589  1.1805  3.3163 -0.1416
 1013MOL0     H36703   5.108  11.656   5.432 -2.9601  0.5719  0.4311
 1013MOL0     H36704   5.300  11.817   5.472  0.0507  3.5646 -0.5010
 1013MOL0     H36705   5.146  11.888   5.414  1.0401  1.2959 -1.0673
 1013MOL0     H36706   4.978  11.996   5.542  0.5241  0.2971 -2.3406
 1013MOL0     H36707   5.026  12.269   5.823 -3.0150 -0.9260  4.2575
 1013MOL0     H36708   4.940  12.231   5.661 -2.0956 -1.2130  1.0813
 1013MOL0     H36709   4.784  12.218   5.831  2.4490  2.9038  1.3776
 1013MOL0     H36710   4.816  12.055   5.770 -0.4009  0.4862  1.2359
 1013MOL0     H36711   4.778  12.065   6.017 -0.1617 -0.1082  1.3741
 1013MOL0     H36712   4.903  12.186   6.046 -3.5341 -0.3512  0.9596
 1013MOL0     H36713   4.956  11.974   6.124 -1.9141 -1.8322 -0.6733
 1013MOL0     H36714   5.078  12.033   6.000 -0.5722  4.7510  2.0485
 1013MOL0     H36715   4.810  11.839   6.192  2.9858 -0.8770 -0.6357
 1013MOL0     H36716   4.654  11.662   6.200  0.1051  1.7400 -0.0007
 1013MOL0     H36717   4.379  11.294   5.947  0.6524  0.3587  0.3453
 1013MOL0     H36718   4.264  11.080   6.025 -1.4799 -0.1518  0.9386
 1013MOL0     H36719   4.081  11.095   6.407 -1.8544  2.1012 -1.1700
 1013MOL0     H36720   4.027  11.083   6.233  1.7221 -1.3036 -0.5448
 1013MOL0     H36721   3.906  10.932   6.333 -0.1472 -0.4112  1.7948
 1013MOL0     H36722   4.031  10.844   6.247 -2.2013  0.5267 -0.7482
 1013MOL0     H36723   4.147  10.784   6.458  0.7686 -0.1405 -1.1124
 1013MOL0     H36724   4.032  10.900   6.550  1.5146  0.3826 -0.4853
 1013MOL0     H36725   3.918  10.672   6.395  0.5168  0.2886  0.4064
 1013MOL0     H36726   3.838  10.759   6.503  0.6482 -0.8661  2.7427
 1013MOL0     H36727   4.001  10.677   6.697  2.9541 -0.2386 -0.4729
 1013MOL0     H36728   4.060  10.568   6.584 -0.5536  0.6280 -2.2890
 1013MOL0     H36729   3.766  10.602   6.670 -2.0203 -0.7751 -2.0571
 1013MOL0     H36730   3.822  10.481   6.544 -0.2214 -0.7545 -0.3366
 1013MOL0     H36731   3.952  10.385   6.747 -0.3049 -0.9948 -0.7536
 1013MOL0     H36732   3.773  10.376   6.755  0.3433 -1.6181  2.0906
 1013MOL0     H36733   3.994  10.534   6.891  0.1660  0.8433 -0.3901
 1013MOL0     H36734   3.832  10.620   6.881  1.9388  0.3713  0.1445
 1013MOL0     H36735   4.338  11.182   6.436 -1.0684 -1.0221 -0.2835
 1013MOL0     H36736   4.471  11.377   6.360 -2.3702  1.8880 -1.0580
 1013MOL0     H36737   4.763  11.516   5.815  0.8599  0.6537 -0.5181
 1013MOL0     H36738   4.904  11.693   5.785  0.2659 -4.0571  0.1070
 1013MOL0     H36739   5.397  11.236   6.097  0.3622 -1.2042 -1.2166
 1013MOL0     H36740   5.585  11.182   6.236 -0.8567  2.1408 -0.8637
 1013MOL0     H36741   5.652  10.966   6.639 -1.0854 -1.9830  0.6638
 1013MOL0     H36742   5.779  10.892   6.846  3.2752 -2.6083  2.1583
 1013MOL0     H36743   5.887  10.735   6.989 -0.0942 -0.1000  1.8906
 1013MOL0     H36744   6.007  10.878   6.985 -0.7050  0.2096 -1.2005
 1013MOL0     H36745   6.103  10.747   7.145 -0.1463  2.1870  0.0803
 1013MOL0     H36746   6.184  10.692   7.002  0.7597 -1.3421  0.9281
 1013MOL0     H36747   5.980  10.554   7.161 -0.7488 -1.0344 -0.3831
 1013MOL0     H36748   6.153  10.495   7.126  0.1669 -0.3772 -1.5460
 1013MOL0     H36749   5.973  10.359   7.028  3.3110 -2.1330 -2.0193
 1013MOL0     H36750   5.931  10.502   6.937 -0.4397  1.0587  1.3164
 1013MOL0     H36751   6.281  10.359   6.729  0.2426 -0.2709  0.2635
 1013MOL0     H36752   6.083  10.752   6.608 -0.8548 -3.9201  2.7586
 1013MOL0     H36753   6.085  10.763   6.373 -0.1522  0.9680 -0.8314
 1013MOL0     H36754   5.970  10.848   6.264  0.0176 -0.4059  0.2747
 1013MOL0     H36755   6.076  10.940   6.355  0.6879 -0.3226 -0.8803
 1014MOL0     O36756   9.057   4.257   8.986 -0.8803 -0.1131  0.3337
 1014MOL0     C36757   9.055   4.134   8.995  0.2855 -0.5689 -0.1456
 1014MOL0     O36758   9.152   4.048   8.942  0.5222 -1.5101 -0.1753
 1014MOL0     C36759   9.250   4.111   8.873  0.1979  0.9876  0.3394
 1014MOL0     C36760   9.209   4.153   8.742  0.0576 -0.3823 -0.3116
 1014MOL0     C36761   9.307   4.211   8.657 -0.5485 -0.1411 -0.0334
 1014MOL0     C36762   9.444   4.196   8.684  0.0001  0.3413  0.2975
 1014MOL0     O36763   9.519   4.231   8.579  0.1236 -0.4222  0.0986
 1014MOL0     C36764   9.655   4.211   8.593  0.1942 -1.0855  0.5323
 1014MOL0     C36765   9.739   4.345   8.605  0.5155 -0.7937 -0.5482
 1014MOL0     C36766   9.882   4.334   8.534 -0.0992  0.1891  0.4699
 1014MOL0     C36767   9.961   4.459   8.569 -1.4037 -0.5464 -0.6228
 1014MOL0     C36768  10.042   4.441   8.704 -0.5166 -0.2609 -0.4820
 1014MOL0     C36769   9.987   4.455   8.842 -0.2941 -0.2675 -0.7038
 1014MOL0     C36770  10.099   4.453   8.942 -1.1803  0.3068 -0.9019
 1014MOL0     C36771  10.195   4.585   8.956  0.7958  0.0749 -0.0114
 1014MOL0     N36772  10.293   4.580   9.065 -0.4740  1.4826  0.8854
 1014MOL0     C36773  10.324   4.472   9.149 -0.5516 -1.8281 -0.0572
 1014MOL0     C36774  10.431   4.519   9.219  0.8974  0.0396  0.0292
 1014MOL0     C36775  10.523   4.451   9.316  0.5548 -0.7262  1.1945
 1014MOL0     C36776  10.472   4.472   9.450  0.3282  0.8922  0.6392
 1014MOL0     C36777  10.408   4.601   9.489  0.8861 -0.3577  0.2673
 1014MOL0     C36778  10.357   4.603   9.634 -0.9070  0.7622  0.2403
 1014MOL0     O36779  10.285   4.717   9.661 -0.6481 -0.1746  0.2795
 1014MOL0     C36780  10.162   4.716   9.723 -0.2565  0.9045  0.3603
 1014MOL0     C36781  10.082   4.822   9.716  0.4673 -0.6207  0.7660
 1014MOL0     C36782   9.947   4.825   9.758 -0.3253  0.3589  0.2887
 1014MOL0     C36783   9.894   4.708   9.810  0.5694  0.8247  0.0553
 1014MOL0     C36784   9.748   4.697   9.832 -0.3941 -0.4802  0.3443
 1014MOL0     O36785   9.699   4.572   9.850 -0.4345 -0.1124  0.1930
 1014MOL0     C36786   9.566   4.558   9.870  0.7206 -0.8508  0.4459
 1014MOL0     C36787   9.527   4.471   9.969  0.0708  0.1572 -0.1426
 1014MOL0     C36788   9.390   4.459  10.002 -0.7227  0.1779 -0.0685
 1014MOL0     C36789   9.296   4.496   9.904 -0.8751 -0.0206 -0.3181
 1014MOL0     O36790   9.164   4.458   9.936 -0.5419  0.0868 -0.0848
 1014MOL0     C36791   9.065   4.437   9.838  0.1834 -0.0370 -0.0449
 1014MOL0     C36792   8.987   4.306   9.877 -0.9464  0.1733  0.0565
 1014MOL0     C36793   8.950   4.307  10.022  0.5806 -0.6831 -0.9441
 1014MOL0     C36794   8.832   4.394  10.060  0.6015  0.2387  0.0256
 1014MOL0     C36795   8.701   4.322  10.020  0.0213  0.1370  0.6137
 1014MOL0     C36796   8.577   4.388  10.083  0.0643 -0.2475 -0.3459
 1014MOL0     C36797   8.537   4.514  10.003 -0.2116 -0.3494  0.5223
 1014MOL0     C36798   8.412   4.585  10.043  0.0489  0.1680 -1.1632
 1014MOL0    Cl36799   8.281   4.475  10.001  0.2182 -0.1221 -0.3781
 1014MOL0     C36800   9.336   4.559   9.788  0.4529 -0.0999 -0.4417
 1014MOL0     C36801   9.466   4.596   9.773  0.7641  0.4492  0.2848
 1014MOL0     O36802   9.677   4.802   9.837 -1.0886 -0.3420 -0.8560
 1014MOL0     C36803   9.976   4.591   9.822 -0.4640 -0.2645 -0.1270
 1014MOL0     C36804  10.106   4.606   9.779  0.2683  0.3920 -0.8850
 1014MOL0     N36805  10.468   4.637   9.162  0.7030 -0.7500 -0.4058
 1014MOL0     N36806  10.394   4.674   9.060  0.3708  0.3554 -0.8591
 1014MOL0     C36807   9.488   4.153   8.812  1.3135  0.0226  0.6174
 1014MOL0     C36808   9.381   4.123   8.901 -0.7780  0.8795 -0.5006
 1014MOL0     C36809   8.955   4.068   9.078 -0.3044 -0.7704  0.6508
 1014MOL0     C36810   8.983   3.948   9.135 -0.1968  0.8251  0.0665
 1014MOL0     C36811   8.898   3.877   9.211 -0.4758  0.4882 -0.2810
 1014MOL0     C36812   8.770   3.923   9.241 -0.7853  0.1207  0.1147
 1014MOL0     O36813   8.704   3.844   9.325 -0.5546  0.1141  0.0652
 1014MOL0     C36814   8.661   3.908   9.439  0.1232  0.0187  0.6117
 1014MOL0     C36815   8.505   3.920   9.430  0.1792  0.1781 -0.5300
 1014MOL0     C36816   8.429   3.786   9.428  0.1538  0.0427 -0.6726
 1014MOL0     C36817   8.487   3.666   9.507 -1.5297  0.8309  0.3873
 1014MOL0     C36818   8.394   3.549   9.507  0.2990  0.4513  0.2552
 1014MOL0     C36819   8.321   3.445   9.519 -0.1422  0.2219 -0.1489
 1014MOL0     C36820   8.730   4.033   9.171 -0.1045  0.2307 -0.3079
 1014MOL0     C36821   8.822   4.112   9.094 -0.4351 -0.2691 -0.1562
 1014MOL0     C36822   8.769   4.240   9.022 -0.2791 -0.4384  0.5763
 1014MOL0     H36823   9.103   4.152   8.723 -1.1170  0.0066  4.8058
 1014MOL0     H36824   9.276   4.239   8.557  1.9543  1.3947 -0.4570
 1014MOL0     H36825   9.686   4.131   8.660  2.3048  0.1454  1.0942
 1014MOL0     H36826   9.673   4.164   8.496  1.2482 -0.0516  0.2040
 1014MOL0     H36827   9.760   4.366   8.710  1.7895 -0.5276 -0.8422
 1014MOL0     H36828   9.686   4.430   8.559 -0.0647 -0.2960  0.9759
 1014MOL0     H36829   9.873   4.316   8.427 -1.0696 -0.0351  0.5834
 1014MOL0     H36830   9.943   4.254   8.578 -2.0170 -1.1969  0.7526
 1014MOL0     H36831  10.032   4.483   8.489  0.5043 -3.5120  0.0460
 1014MOL0     H36832   9.884   4.535   8.582  0.1583  0.5470  3.9681
 1014MOL0     H36833  10.082   4.339   8.711 -2.3300 -0.8952  1.8637
 1014MOL0     H36834  10.128   4.508   8.695 -1.8677  1.5403 -0.3550
 1014MOL0     H36835   9.925   4.545   8.840 -2.7024 -1.8609 -1.6059
 1014MOL0     H36836   9.929   4.365   8.863 -1.1794  0.3683 -0.3611
 1014MOL0     H36837  10.164   4.371   8.909  0.9535  2.9006 -3.8612
 1014MOL0     H36838  10.070   4.433   9.045  1.7837  2.7759  0.5691
 1014MOL0     H36839  10.254   4.610   8.868  1.2025 -0.4415  0.1056
 1014MOL0     H36840  10.124   4.667   8.968 -0.2553 -1.0122  1.4961
 1014MOL0     H36841  10.280   4.373   9.153  2.0712 -3.1362 -0.8567
 1014MOL0     H36842  10.520   4.343   9.296  0.8880 -0.3526 -1.1716
 1014MOL0     H36843  10.629   4.473   9.303 -0.1180  1.4977 -1.5180
 1014MOL0     H36844  10.394   4.400   9.475  0.8346  1.7766  5.9868
 1014MOL0     H36845  10.550   4.469   9.527  0.6765  0.6905  0.2735
 1014MOL0     H36846  10.320   4.605   9.425  0.7156  1.6882  0.5577
 1014MOL0     H36847  10.474   4.685   9.469 -0.4827  0.9233  0.9391
 1014MOL0     H36848  10.446   4.592   9.697 -1.2792 -0.4328  0.5800
 1014MOL0     H36849  10.313   4.504   9.649 -0.1850  0.1079 -1.6127
 1014MOL0     H36850  10.110   4.921   9.684 -2.1560  0.4231  1.4315
 1014MOL0     H36851   9.896   4.920   9.774  1.9542  1.6435  0.4624
 1014MOL0     H36852   9.597   4.420  10.034 -0.3818 -0.3634 -0.0511
 1014MOL0     H36853   9.363   4.390  10.082  1.5385 -2.4130 -1.3863
 1014MOL0     H36854   8.986   4.512   9.832  0.7004  0.5736  0.5592
 1014MOL0     H36855   9.100   4.440   9.735 -1.5194 -0.1906 -0.6697
 1014MOL0     H36856   8.899   4.288   9.816 -0.4575 -1.1189 -0.2952
 1014MOL0     H36857   9.058   4.223   9.866 -1.2304 -0.1359  0.5456
 1014MOL0     H36858   8.921   4.206  10.054  2.0215 -0.8360 -0.0941
 1014MOL0     H36859   9.036   4.337  10.081 -1.4385 -2.2433  3.1436
 1014MOL0     H36860   8.838   4.494  10.017  0.3370  0.4047  0.3638
 1014MOL0     H36861   8.828   4.413  10.168  0.7839  3.3942 -0.4402
 1014MOL0     H36862   8.708   4.215  10.042  0.0674 -0.8518 -3.3975
 1014MOL0     H36863   8.698   4.332   9.911 -1.7594  0.3834  0.6570
 1014MOL0     H36864   8.491   4.320  10.074 -0.7000  0.7688 -0.9364
 1014MOL0     H36865   8.607   4.413  10.185  1.5357  0.8166 -1.0134
 1014MOL0     H36866   8.521   4.490   9.898  1.5011 -0.1726  0.1898
 1014MOL0     H36867   8.626   4.578  10.006 -1.0714  0.9130 -0.2544
 1014MOL0     H36868   8.421   4.589  10.152  3.7900 -1.5214 -1.2584
 1014MOL0     H36869   8.392   4.685  10.004  2.7258  0.3460 -2.3024
 1014MOL0     H36870   9.270   4.582   9.706 -0.0792 -1.7470 -0.5152
 1014MOL0     H36871   9.493   4.647   9.681  0.2266 -0.9095 -0.6798
 1014MOL0     H36872   9.938   4.495   9.854  2.0447 -1.3691 -0.2283
 1014MOL0     H36873  10.172   4.521   9.790  0.3663  0.7620  2.7274
 1014MOL0     H36874   9.587   4.127   8.848  2.4710 -0.4021 -2.5579
 1014MOL0     H36875   9.410   4.084   8.998  0.8488 -0.1997 -1.3643
 1014MOL0     H36876   9.083   3.906   9.127 -1.2247 -1.9260  0.3519
 1014MOL0     H36877   8.946   3.787   9.249  2.2719  2.7833  2.2430
 1014MOL0     H36878   8.716   4.001   9.456 -1.1998  1.6972 -3.0990
 1014MOL0     H36879   8.671   3.844   9.527  0.6677  0.6646  1.0292
 1014MOL0     H36880   8.466   3.972   9.343 -3.9106  0.5352  1.2727
 1014MOL0     H36881   8.475   3.982   9.515  1.7899  0.1197  0.1283
 1014MOL0     H36882   8.402   3.759   9.325 -0.3218 -0.5337 -0.4063
 1014MOL0     H36883   8.327   3.800   9.466  1.0562 -0.2579  2.0933
 1014MOL0     H36884   8.573   3.634   9.448 -1.7331  1.8406 -0.4875
 1014MOL0     H36885   8.513   3.685   9.611  3.7683  1.7150 -0.8279
 1014MOL0     H36886   8.254   3.362   9.522  1.8990 -1.5556 -1.1656
 1014MOL0     H36887   8.628   4.067   9.183 -0.4631 -0.6995 -0.6165
 1014MOL0     H36888   8.827   4.273   8.935 -0.9893  0.1388  0.3137
 1014MOL0     H36889   8.664   4.224   8.997  0.2629 -2.9645 -0.4548
 1014MOL0     H36890   8.763   4.323   9.093 -0.4407  0.4068 -0.3974
 1015MOL0     O36891   5.211   1.388   2.573 -1.0311 -0.2038  0.4846
 1015MOL0     C36892   5.153   1.321   2.657 -0.1581 -0.0227  0.1549
 1015MOL0     O36893   5.114   1.188   2.648  0.1087  0.3739 -0.2920
 1015MOL0     C36894   5.174   1.104   2.555 -0.5264 -0.7107  0.3891
 1015MOL0     C36895   5.097   1.050   2.455 -0.4788  0.0929  0.0889
 1015MOL0     C36896   5.145   0.949   2.366 -0.9619 -0.0319  0.0312
 1015MOL0     C36897   5.284   0.904   2.386  0.2509 -0.1506 -0.0243
 1015MOL0     O36898   5.355   0.801   2.317  0.0016 -0.6182  0.2947
 1015MOL0     C36899   5.295   0.750   2.197  0.5668 -0.3068 -0.9528
 1015MOL0     C36900   5.342   0.603   2.160  0.1839 -1.1863  0.3972
 1015MOL0     C36901   5.469   0.556   2.224 -0.3710 -0.1244 -0.0788
 1015MOL0     C36902   5.511   0.414   2.163  0.6470 -0.9068  0.2319
 1015MOL0     C36903   5.622   0.369   2.257 -0.3786  0.9580 -0.6500
 1015MOL0     C36904   5.661   0.229   2.196 -0.6751 -0.1625 -0.1268
 1015MOL0     C36905   5.749   0.159   2.285  0.4705 -0.8367  0.5545
 1015MOL0     C36906   5.752   0.012   2.261 -0.4707 -0.3287  0.5477
 1015MOL0     N36907   5.625  -0.037   2.300  0.5275  0.1309  0.7993
 1015MOL0     C36908   5.568  -0.028   2.425  0.2137  0.5052 -0.0801
 1015MOL0     C36909   5.445  -0.077   2.407  0.5868 -0.5191  0.7559
 1015MOL0     C36910   5.362  -0.110   2.528 -0.3802 -0.2281  0.7096
 1015MOL0     C36911   5.349   0.008   2.623 -0.3032 -0.6600 -0.6620
 1015MOL0     C36912   5.220   0.005   2.719 -0.7206 -0.5366  0.3290
 1015MOL0     C36913   5.186   0.131   2.798  0.4396 -0.9088  0.3025
 1015MOL0     O36914   5.046   0.148   2.826 -0.3461  0.6434  0.7655
 1015MOL0     C36915   5.006   0.224   2.927  0.4661  1.2074 -1.2013
 1015MOL0     C36916   4.885   0.194   3.006 -0.5432 -0.5815  0.3380
 1015MOL0     C36917   4.841   0.286   3.103  0.5860 -0.5071  0.0923
 1015MOL0     C36918   4.912   0.406   3.131  0.4335  0.0449 -1.2247
 1015MOL0     C36919   4.861   0.505   3.223 -0.3334 -0.7883  0.4036
 1015MOL0     O36920   4.728   0.533   3.242 -0.1892  0.7264  1.5346
 1015MOL0     C36921   4.674   0.641   3.302  0.2533 -0.4417  0.3803
 1015MOL0     C36922   4.715   0.776   3.287 -0.2689  0.4679 -0.5855
 1015MOL0     C36923   4.656   0.882   3.353  0.0930 -0.1340  0.7977
 1015MOL0     C36924   4.570   0.855   3.455  0.0178 -0.2015  0.3315
 1015MOL0     O36925   4.529   0.959   3.536  0.2310  0.5657  0.4449
 1015MOL0     C36926   4.420   1.027   3.473 -0.0891  0.0184  0.8514
 1015MOL0     C36927   4.353   1.134   3.562  0.6116  0.7099 -0.2491
 1015MOL0     C36928   4.463   1.210   3.636  0.2383  0.5966  0.3820
 1015MOL0     C36929   4.558   1.296   3.560  0.9586  0.2537  0.4026
 1015MOL0     C36930   4.710   1.256   3.589 -0.6584 -0.5099 -0.2050
 1015MOL0     C36931   4.818   1.331   3.501  0.8040  0.3969  0.6545
 1015MOL0     C36932   4.954   1.318   3.549 -0.9719 -0.6028 -0.2770
 1015MOL0     C36933   5.039   1.350   3.427  0.3112  0.8425  1.0189
 1015MOL0    Cl36934   5.213   1.346   3.480 -0.0554 -0.5759 -0.2227
 1015MOL0     C36935   4.521   0.726   3.465 -0.1479 -0.6357  0.1797
 1015MOL0     C36936   4.566   0.623   3.386  0.6502  0.0987 -0.8352
 1015MOL0     O36937   4.941   0.597   3.252  0.0471  0.5169  0.4776
 1015MOL0     C36938   5.032   0.425   3.061  0.3012 -0.0334 -0.5827
 1015MOL0     C36939   5.080   0.348   2.957  0.5430 -0.1392  0.5521
 1015MOL0     N36940   5.422  -0.103   2.275  0.2313 -0.1189 -0.9867
 1015MOL0     N36941   5.532  -0.088   2.214  0.1344 -0.3089  0.8913
 1015MOL0     C36942   5.352   0.949   2.499 -0.0361  1.1188 -0.0376
 1015MOL0     C36943   5.302   1.057   2.573  0.0390  0.2894 -0.1083
 1015MOL0     C36944   5.140   1.375   2.796 -0.3441 -0.3454 -0.5949
 1015MOL0     C36945   5.180   1.293   2.907  0.4507  0.2108 -0.3300
 1015MOL0     C36946   5.175   1.352   3.035  0.1286  0.1852 -0.4841
 1015MOL0     C36947   5.150   1.486   3.052  0.1531 -0.3200  0.1086
 1015MOL0     O36948   5.168   1.543   3.177 -0.8345  0.5319 -0.1857
 1015MOL0     C36949   5.261   1.644   3.183 -0.1329 -0.5218  0.9595
 1015MOL0     C36950   5.191   1.760   3.255  0.1661 -0.6837  0.7215
 1015MOL0     C36951   5.292   1.871   3.283  0.0024  0.4290  0.6867
 1015MOL0     C36952   5.226   1.991   3.344 -0.7046  0.3841  0.3435
 1015MOL0     C36953   5.338   2.069   3.394 -0.3507 -0.2101  0.5318
 1015MOL0     C36954   5.412   2.147   3.439 -0.5914  0.2217  0.1064
 1015MOL0     C36955   5.125   1.556   2.937  0.2222  0.0958  0.0078
 1015MOL0     C36956   5.108   1.508   2.811 -0.2341  0.2736 -1.3306
 1015MOL0     C36957   5.050   1.593   2.705 -0.8460 -0.3113  1.0028
 1015MOL0     H36958   4.997   1.076   2.422  0.3268  0.8643 -1.9567
 1015MOL0     H36959   5.081   0.909   2.288  0.3851 -0.9749 -0.6227
 1015MOL0     H36960   5.187   0.743   2.213  0.7676 -1.8876  0.0002
 1015MOL0     H36961   5.301   0.820   2.114  1.2468  1.8234  0.7749
 1015MOL0     H36962   5.353   0.602   2.051  1.4116  1.1366  0.4419
 1015MOL0     H36963   5.266   0.529   2.188 -0.1298 -0.7913  0.5967
 1015MOL0     H36964   5.446   0.537   2.329 -2.4921 -1.2594 -0.7066
 1015MOL0     H36965   5.549   0.630   2.218  0.0931 -0.6757 -0.8197
 1015MOL0     H36966   5.431   0.340   2.156  4.9172 -5.9679 -2.3641
 1015MOL0     H36967   5.541   0.425   2.058 -0.6091 -0.4118 -0.0891
 1015MOL0     H36968   5.711   0.433   2.259 -0.4022  0.9825 -0.3223
 1015MOL0     H36969   5.586   0.365   2.360 -3.4622  1.3501 -1.6121
 1015MOL0     H36970   5.566   0.174   2.188 -1.4615  1.2325 -1.0325
 1015MOL0     H36971   5.702   0.254   2.098 -1.2499  1.5062  0.0303
 1015MOL0     H36972   5.716   0.179   2.388 -1.9735  2.6730 -0.7418
 1015MOL0     H36973   5.849   0.202   2.272 -0.1077  1.3797  2.6560
 1015MOL0     H36974   5.775  -0.006   2.156 -0.5304  0.0715  0.4626
 1015MOL0     H36975   5.825  -0.033   2.329 -1.0002 -1.7851  0.1910
 1015MOL0     H36976   5.605   0.003   2.522  3.8450 -1.8689 -0.5188
 1015MOL0     H36977   5.264  -0.127   2.482 -1.0670  5.4452 -0.7172
 1015MOL0     H36978   5.396  -0.200   2.580 -0.7300 -0.2037  0.9876
 1015MOL0     H36979   5.443   0.015   2.678 -0.2052 -1.8731 -0.6432
 1015MOL0     H36980   5.335   0.103   2.570 -2.2825 -1.1555 -1.1096
 1015MOL0     H36981   5.241  -0.061   2.804 -0.0486  0.5208  1.0046
 1015MOL0     H36982   5.134  -0.029   2.662 -0.6932  1.6477 -1.1134
 1015MOL0     H36983   5.209   0.214   2.730 -1.7033  0.3569  1.0135
 1015MOL0     H36984   5.250   0.141   2.886 -1.2952  1.9215  1.3828
 1015MOL0     H36985   4.838   0.098   2.993  1.7199 -1.6132 -0.7473
 1015MOL0     H36986   4.748   0.272   3.157 -1.2178 -0.4103 -2.7562
 1015MOL0     H36987   4.790   0.799   3.212 -1.6954  0.0593 -2.2053
 1015MOL0     H36988   4.700   0.981   3.345  0.5896 -0.0611  3.4670
 1015MOL0     H36989   4.454   1.065   3.376  1.4128  1.3451  1.8437
 1015MOL0     H36990   4.346   0.955   3.437 -0.2834  0.4785  0.3069
 1015MOL0     H36991   4.302   1.208   3.499  0.6358  5.1743  4.2954
 1015MOL0     H36992   4.292   1.081   3.635 -0.7019  0.0337 -1.7821
 1015MOL0     H36993   4.424   1.265   3.722 -0.5577 -0.0652  0.4601
 1015MOL0     H36994   4.529   1.137   3.685  1.7962  1.6859 -0.0087
 1015MOL0     H36995   4.528   1.396   3.591 -0.0271  0.5930 -1.5157
 1015MOL0     H36996   4.545   1.284   3.452 -2.9831  2.7999  0.3923
 1015MOL0     H36997   4.722   1.148   3.578  0.6462 -0.3956 -0.0204
 1015MOL0     H36998   4.730   1.284   3.693  1.2349 -1.3671 -0.3005
 1015MOL0     H36999   4.826   1.280   3.405  1.3803  0.6894  0.5463
 1015MOL0     H37000   4.792   1.436   3.487  2.3020  0.7085  0.0535
 1015MOL0     H37001   4.985   1.224   3.595  3.2175  0.7852  0.2099
 1015MOL0     H37002   4.967   1.395   3.626 -0.9350  0.1357 -1.0095
 1015MOL0     H37003   5.022   1.286   3.340  1.4412  3.9203 -1.6592
 1015MOL0     H37004   5.003   1.447   3.393 -0.7749  0.4674  1.0567
 1015MOL0     H37005   4.446   0.705   3.541  2.2328 -1.4322  2.4927
 1015MOL0     H37006   4.541   0.521   3.412  1.8075  0.3084  1.3243
 1015MOL0     H37007   5.090   0.514   3.083  0.1304 -0.2339  0.7198
 1015MOL0     H37008   5.147   0.398   2.888  0.4921  1.6171  1.7128
 1015MOL0     H37009   5.444   0.898   2.523 -1.7354 -1.2028  2.1348
 1015MOL0     H37010   5.362   1.093   2.656  2.3684 -3.1299 -0.1030
 1015MOL0     H37011   5.208   1.189   2.895  2.1136  0.7072 -1.1225
 1015MOL0     H37012   5.208   1.291   3.118  0.3999  0.5636 -0.3126
 1015MOL0     H37013   5.299   1.673   3.084  0.3877  0.7878  1.5113
 1015MOL0     H37014   5.350   1.612   3.238  2.5252  2.4754 -1.1551
 1015MOL0     H37015   5.156   1.727   3.353  2.6697  0.4995  2.1004
 1015MOL0     H37016   5.113   1.806   3.193  0.9680  0.9864  0.9205
 1015MOL0     H37017   5.342   1.898   3.189  1.5388  0.0373  1.3613
 1015MOL0     H37018   5.372   1.823   3.340  2.7408  1.9344 -1.5994
 1015MOL0     H37019   5.179   2.054   3.268  2.0786  1.2137 -0.7805
 1015MOL0     H37020   5.162   1.969   3.431  0.1080 -0.6304  0.6981
 1015MOL0     H37021   5.465   2.228   3.487 -4.1923  2.6077  0.5037
 1015MOL0     H37022   5.107   1.663   2.947 -0.3047  0.0778 -0.6548
 1015MOL0     H37023   4.989   1.676   2.743  0.0161  1.4978 -1.3431
 1015MOL0     H37024   5.134   1.636   2.650 -1.1281 -0.8868  0.0980
 1015MOL0     H37025   4.993   1.545   2.625 -1.4789  5.5613 -2.6574
 1016MOL0     O37026   7.628   4.662   8.158  0.8784  0.5814  0.5028
 1016MOL0     C37027   7.713   4.711   8.225 -0.7695 -1.1099  0.2901
 1016MOL0     O37028   7.838   4.672   8.226 -0.4168  0.0884 -0.5035
 1016MOL0     C37029   7.889   4.587   8.129 -0.7307  0.2912 -1.0624
 1016MOL0     C37030   7.859   4.590   7.991  0.0896 -0.3710 -0.3002
 1016MOL0     C37031   7.907   4.506   7.900  0.9404 -0.5299 -0.8210
 1016MOL0     C37032   8.002   4.412   7.941 -0.6970 -1.0815 -0.1000
 1016MOL0     O37033   8.051   4.331   7.841 -0.2785  0.1811 -0.0937
 1016MOL0     C37034   8.138   4.216   7.872 -0.7530 -0.7866 -0.6920
 1016MOL0     C37035   8.287   4.259   7.884 -0.6574  0.9819  0.5715
 1016MOL0     C37036   8.384   4.143   7.859 -0.9658 -0.5608 -1.3430
 1016MOL0     C37037   8.495   4.204   7.771  0.4186  0.1867 -0.8054
 1016MOL0     C37038   8.633   4.122   7.785 -0.4632 -0.2428 -0.0251
 1016MOL0     C37039   8.760   4.167   7.710 -0.0272 -0.6793 -0.2562
 1016MOL0     C37040   8.807   4.308   7.772  0.0310  0.9143  0.7462
 1016MOL0     C37041   8.855   4.304   7.923  0.1530  0.2687  1.0207
 1016MOL0     N37042   8.921   4.426   7.973  0.0404 -0.5891  0.3566
 1016MOL0     C37043   9.039   4.470   7.926  0.0200 -0.2863 -0.2824
 1016MOL0     C37044   9.089   4.556   8.016  0.3677  0.8483  0.7279
 1016MOL0     C37045   9.207   4.644   7.992  0.4445  0.2838  0.4918
 1016MOL0     C37046   9.340   4.576   8.006  0.4377 -0.5765  0.0758
 1016MOL0     C37047   9.408   4.536   7.878  0.2682  0.5115  0.3129
 1016MOL0     C37048   9.483   4.652   7.817  0.0747 -0.1507  0.5507
 1016MOL0     O37049   9.618   4.617   7.788  0.0568  0.3817  0.3747
 1016MOL0     C37050   9.699   4.726   7.787  0.8157  0.2155 -0.6888
 1016MOL0     C37051   9.787   4.735   7.893  0.0690  0.1655  0.7750
 1016MOL0     C37052   9.877   4.844   7.887  0.0121 -0.0247  0.8752
 1016MOL0     C37053   9.901   4.911   7.765  0.1150  0.5918  0.2480
 1016MOL0     C37054   9.996   5.019   7.749  0.4038  1.3033 -0.4476
 1016MOL0     O37055  10.025   5.089   7.856 -0.3777 -0.6793  1.4505
 1016MOL0     C37056  10.125   5.182   7.844 -0.2295  0.0863 -0.2928
 1016MOL0     C37057  10.246   5.146   7.802  0.9952  0.5697 -0.2763
 1016MOL0     C37058  10.345   5.244   7.788  0.0419 -0.4205  0.7055
 1016MOL0     C37059  10.312   5.381   7.801 -0.0973 -0.7723 -0.5005
 1016MOL0     O37060  10.413   5.471   7.780 -0.2012 -0.2679 -0.9236
 1016MOL0     C37061  10.381   5.602   7.732 -0.4660 -0.5415  1.2042
 1016MOL0     C37062  10.508   5.668   7.682  0.1908  0.5068 -0.4035
 1016MOL0     C37063  10.481   5.801   7.621 -0.3649  0.5825 -0.2833
 1016MOL0     C37064  10.534   5.902   7.723  0.1725  0.5132 -0.4277
 1016MOL0     C37065  10.500   6.041   7.660 -1.0466  0.4067 -0.4830
 1016MOL0     C37066  10.542   6.150   7.760 -0.3462  1.0403 -0.0030
 1016MOL0     C37067  10.694   6.165   7.787 -0.2159  0.8878 -0.2591
 1016MOL0     C37068  10.711   6.283   7.897  0.5192 -0.4476 -0.4059
 1016MOL0    Cl37069  10.750   6.453   7.837 -0.1747 -0.2216  0.7656
 1016MOL0     C37070  10.187   5.418   7.856 -0.0408  0.7355  0.5001
 1016MOL0     C37071  10.094   5.311   7.881  0.4620  0.2988  0.3006
 1016MOL0     O37072  10.044   5.034   7.636 -0.8890 -0.2229 -0.1340
 1016MOL0     C37073   9.820   4.883   7.657 -0.0562  0.1890 -0.2845
 1016MOL0     C37074   9.715   4.790   7.672 -0.5095  1.0430  0.0614
 1016MOL0     N37075   9.010   4.548   8.132  0.3186  0.7547  0.7393
 1016MOL0     N37076   8.904   4.482   8.102 -0.6745  0.9235 -0.4447
 1016MOL0     C37077   8.033   4.401   8.081  1.0079  0.1015  0.0217
 1016MOL0     C37078   7.983   4.491   8.171 -0.3358  0.6694 -0.6867
 1016MOL0     C37079   7.690   4.842   8.297  0.0080  0.6691 -1.1813
 1016MOL0     C37080   7.802   4.914   8.346  1.3630  0.4320  0.0233
 1016MOL0     C37081   7.786   5.031   8.425 -0.0852 -0.2562 -0.2324
 1016MOL0     C37082   7.657   5.078   8.450 -0.2208  0.0036 -0.1844
 1016MOL0     O37083   7.645   5.192   8.528  0.6902 -0.2725  1.1214
 1016MOL0     C37084   7.580   5.303   8.465 -0.6828  0.0306 -0.2468
 1016MOL0     C37085   7.442   5.333   8.525 -0.3629 -0.2319 -0.3960
 1016MOL0     C37086   7.385   5.465   8.474  0.3378  0.2366 -0.2640
 1016MOL0     C37087   7.262   5.502   8.558  0.4769 -0.1610  0.7259
 1016MOL0     C37088   7.183   5.613   8.489 -0.8315  0.8614  0.5407
 1016MOL0     C37089   7.110   5.687   8.423 -0.6840  0.3602 -0.7028
 1016MOL0     C37090   7.543   5.005   8.406  0.5076 -0.3454  1.1638
 1016MOL0     C37091   7.562   4.885   8.335 -0.3350 -0.0679 -0.0657
 1016MOL0     C37092   7.435   4.823   8.299  1.2566  0.8132 -0.2088
 1016MOL0     H37093   7.786   4.663   7.960  0.9799  1.0457  0.7942
 1016MOL0     H37094   7.877   4.529   7.799  1.2083  3.6198 -0.1719
 1016MOL0     H37095   8.093   4.147   7.944  0.9228 -1.0907  0.1028
 1016MOL0     H37096   8.140   4.155   7.781  1.1897  0.5261 -1.5774
 1016MOL0     H37097   8.308   4.309   7.979 -0.5526  3.1418 -0.5195
 1016MOL0     H37098   8.309   4.338   7.811  1.1622 -0.9614 -1.1027
 1016MOL0     H37099   8.340   4.049   7.823  1.8004 -2.9719  1.0685
 1016MOL0     H37100   8.432   4.120   7.954 -1.7047  0.8504 -0.5895
 1016MOL0     H37101   8.474   4.221   7.665  3.0337  2.6720 -1.0642
 1016MOL0     H37102   8.510   4.310   7.794 -0.8592  0.5629 -1.5587
 1016MOL0     H37103   8.659   4.105   7.890  3.3917  1.6406 -0.5090
 1016MOL0     H37104   8.599   4.021   7.758 -3.5123  0.3017  1.3443
 1016MOL0     H37105   8.841   4.095   7.727  0.7937  0.7483  2.3819
 1016MOL0     H37106   8.741   4.181   7.603 -2.4883  0.0178  0.2140
 1016MOL0     H37107   8.735   4.389   7.757  0.6424  1.3212 -0.0485
 1016MOL0     H37108   8.891   4.325   7.705 -0.4513  0.5917  0.0539
 1016MOL0     H37109   8.753   4.296   7.962 -1.7912  0.5795 -3.4340
 1016MOL0     H37110   8.926   4.221   7.928  2.8654  2.3393 -0.2329
 1016MOL0     H37111   9.068   4.433   7.828 -1.9339  1.1850 -1.4885
 1016MOL0     H37112   9.189   4.683   7.892  1.6574 -1.4767 -0.4728
 1016MOL0     H37113   9.196   4.732   8.055  0.4768  1.7069 -1.4144
 1016MOL0     H37114   9.411   4.642   8.056  0.5830  1.3091 -2.4376
 1016MOL0     H37115   9.335   4.490   8.074 -0.6188  1.5998  2.9670
 1016MOL0     H37116   9.338   4.496   7.805 -0.3448  1.4013  0.4038
 1016MOL0     H37117   9.481   4.456   7.896 -0.9008 -1.3834 -2.5942
 1016MOL0     H37118   9.479   4.746   7.872  3.5374 -1.3378  3.1525
 1016MOL0     H37119   9.439   4.667   7.718  2.7021 -2.4325 -1.1318
 1016MOL0     H37120   9.770   4.660   7.969  0.3857 -0.3397  0.3566
 1016MOL0     H37121   9.941   4.860   7.973  2.7069  1.7084 -1.2389
 1016MOL0     H37122  10.269   5.042   7.784  0.0657  0.8169 -3.3843
 1016MOL0     H37123  10.446   5.229   7.751 -0.7766  1.9916 -3.1956
 1016MOL0     H37124  10.300   5.595   7.660 -0.1702 -3.6744  1.0116
 1016MOL0     H37125  10.339   5.646   7.823 -0.5075 -0.8791  1.3527
 1016MOL0     H37126  10.578   5.671   7.766 -3.0454 -1.1544  2.6167
 1016MOL0     H37127  10.557   5.602   7.610 -2.4059 -1.8495 -0.1799
 1016MOL0     H37128  10.521   5.810   7.520 -1.0991  3.4458 -0.4087
 1016MOL0     H37129  10.374   5.821   7.610 -0.5737  0.0516  0.6920
 1016MOL0     H37130  10.643   5.900   7.732  0.1254 -1.5668  0.0584
 1016MOL0     H37131  10.484   5.883   7.819  1.0810  1.9447  0.3643
 1016MOL0     H37132  10.392   6.055   7.650 -1.2792 -1.7578 -1.3915
 1016MOL0     H37133  10.539   6.067   7.562 -0.3937  2.4040  0.2577
 1016MOL0     H37134  10.497   6.243   7.725  2.2986  2.2368 -0.4672
 1016MOL0     H37135  10.507   6.128   7.861  2.7718  1.0600  1.1714
 1016MOL0     H37136  10.731   6.196   7.689 -2.7970 -1.2528 -2.0492
 1016MOL0     H37137  10.745   6.080   7.833 -0.6015 -0.4846 -2.2406
 1016MOL0     H37138  10.611   6.303   7.937  1.2802  0.9311  0.8814
 1016MOL0     H37139  10.776   6.250   7.978 -0.9041 -0.8979  0.5907
 1016MOL0     H37140  10.163   5.522   7.876 -1.6752  0.1033  2.1279
 1016MOL0     H37141  10.000   5.335   7.929 -0.4001 -4.9065  1.7428
 1016MOL0     H37142   9.847   4.924   7.560  1.9625 -2.2096 -0.8411
 1016MOL0     H37143   9.651   4.756   7.592 -0.3697 -1.4454  0.9164
 1016MOL0     H37144   8.096   4.321   8.118  1.7532  1.5238  1.9882
 1016MOL0     H37145   8.013   4.471   8.274 -1.4019  0.5998 -0.3737
 1016MOL0     H37146   7.903   4.884   8.320  0.9848  1.7782 -3.7194
 1016MOL0     H37147   7.878   5.080   8.457  1.2630 -1.8532 -1.4527
 1016MOL0     H37148   7.569   5.278   8.359  0.0538 -0.1441 -0.2907
 1016MOL0     H37149   7.650   5.387   8.471 -0.7029  0.1492 -1.3975
 1016MOL0     H37150   7.462   5.345   8.632 -0.1745 -2.4009 -0.1366
 1016MOL0     H37151   7.371   5.253   8.502  0.9753 -0.9504 -2.2733
 1016MOL0     H37152   7.365   5.453   8.367 -0.5012  0.4178 -0.1371
 1016MOL0     H37153   7.456   5.546   8.495  1.7329 -1.6842  3.3133
 1016MOL0     H37154   7.196   5.422   8.590  0.7185 -0.2700  0.9585
 1016MOL0     H37155   7.301   5.550   8.648 -0.5178  1.7097  0.2079
 1016MOL0     H37156   7.043   5.743   8.361 -1.1750 -1.5986 -2.0392
 1016MOL0     H37157   7.443   5.047   8.415  1.1404  1.0152  2.2632
 1016MOL0     H37158   7.413   4.810   8.193  0.8167 -3.2973  0.2532
 1016MOL0     H37159   7.447   4.721   8.334  1.1960  0.4250 -1.2907
 1016MOL0     H37160   7.346   4.871   8.342 -1.3327 -4.4586  1.1870
 1017MOL0     O37161   6.968   9.282   3.639  0.4861 -0.3797 -0.1206
 1017MOL0     C37162   6.856   9.243   3.692  0.6754 -0.4946 -0.9063
 1017MOL0     O37163   6.772   9.317   3.758  0.4021 -0.8311  0.5955
 1017MOL0     C37164   6.803   9.451   3.779 -0.0920 -0.4748  0.5780
 1017MOL0     C37165   6.776   9.548   3.686  0.2102  0.0388 -0.3343
 1017MOL0     C37166   6.790   9.679   3.698 -0.0678  0.6666  0.3965
 1017MOL0     C37167   6.849   9.727   3.817 -0.2080 -0.4487  0.1146
 1017MOL0     O37168   6.842   9.863   3.849  0.8126 -0.4653 -0.2984
 1017MOL0     C37169   6.838   9.961   3.740 -0.1688  0.2451 -0.3287
 1017MOL0     C37170   6.757  10.087   3.799  0.5969  0.2965  0.0606
 1017MOL0     C37171   6.761  10.210   3.709  0.2479 -0.7098 -0.6304
 1017MOL0     C37172   6.890  10.270   3.681  0.0267  0.2493 -0.6979
 1017MOL0     C37173   6.893  10.317   3.533  1.1314  0.0018 -0.6145
 1017MOL0     C37174   6.958  10.228   3.430  0.2093  0.3406 -0.2734
 1017MOL0     C37175   6.999  10.302   3.295  0.1882  0.2932 -0.2140
 1017MOL0     C37176   6.876  10.324   3.207  0.3510 -0.1095 -0.0697
 1017MOL0     N37177   6.816  10.210   3.141  0.6181  0.9575 -0.4603
 1017MOL0     C37178   6.727  10.117   3.198 -1.1522 -0.0469  0.3444
 1017MOL0     C37179   6.693  10.029   3.091 -0.1029  0.2363 -0.8880
 1017MOL0     C37180   6.581   9.914   3.099  1.1187 -0.1336 -0.7900
 1017MOL0     C37181   6.525   9.846   2.967  0.0221 -0.0359 -0.0430
 1017MOL0     C37182   6.612   9.728   2.921 -0.6918  0.4008  0.1689
 1017MOL0     C37183   6.559   9.673   2.785  0.8160 -0.4526  0.1943
 1017MOL0     O37184   6.543   9.782   2.689 -0.2623  0.0847  0.2234
 1017MOL0     C37185   6.657   9.812   2.625 -0.9073  0.1642 -0.6052
 1017MOL0     C37186   6.750   9.901   2.691  0.7305  0.6793  0.2335
 1017MOL0     C37187   6.870   9.923   2.621  0.2051  0.4163 -0.4255
 1017MOL0     C37188   6.902   9.857   2.505  0.1040  0.1153 -0.5984
 1017MOL0     C37189   7.029   9.877   2.441 -0.7286 -0.2121  0.3479
 1017MOL0     O37190   7.087   9.994   2.465  0.1413 -0.1034  0.2575
 1017MOL0     C37191   7.196  10.050   2.400  0.6272  0.1539 -0.7811
 1017MOL0     C37192   7.302   9.984   2.337 -1.0361 -0.5047  1.6767
 1017MOL0     C37193   7.413  10.070   2.293 -0.5669 -0.2665 -0.4080
 1017MOL0     C37194   7.405  10.214   2.300  0.5357  0.4599 -0.2573
 1017MOL0     O37195   7.507  10.278   2.254  0.1202  0.7939 -0.1273
 1017MOL0     C37196   7.586  10.350   2.342 -0.1256  0.5846  1.2536
 1017MOL0     C37197   7.729  10.364   2.281 -0.0862  0.0819 -0.1895
 1017MOL0     C37198   7.830  10.445   2.367  0.3233  0.0223  0.3214
 1017MOL0     C37199   7.974  10.426   2.311  0.5052 -0.3127  0.4102
 1017MOL0     C37200   8.053  10.565   2.302 -0.6430 -0.0722  0.5578
 1017MOL0     C37201   8.197  10.546   2.245  0.0436  0.5228  0.3476
 1017MOL0     C37202   8.295  10.669   2.257 -0.0836  0.7458 -0.4059
 1017MOL0     C37203   8.433  10.647   2.216 -1.2218 -0.3399  0.8696
 1017MOL0    Cl37204   8.527  10.797   2.249 -0.3705 -0.5415  0.0318
 1017MOL0     C37205   7.292  10.269   2.359  0.5873 -0.1294 -0.6735
 1017MOL0     C37206   7.191  10.188   2.415 -0.5929 -0.9292 -0.6231
 1017MOL0     O37207   7.069   9.795   2.358 -0.7065  0.2846 -0.1332
 1017MOL0     C37208   6.803   9.771   2.450  0.3156  0.0612  0.4133
 1017MOL0     C37209   6.684   9.752   2.502  0.3200 -0.6981 -0.0831
 1017MOL0     N37210   6.788  10.050   2.991 -1.2195 -0.2150  0.8978
 1017MOL0     N37211   6.864  10.153   3.021 -0.6100  0.5728 -0.5280
 1017MOL0     C37212   6.890   9.631   3.911 -0.8052  0.3628 -0.3990
 1017MOL0     C37213   6.865   9.493   3.895  0.1134  0.2232 -1.5152
 1017MOL0     C37214   6.816   9.111   3.709  0.2968 -0.0355 -0.7385
 1017MOL0     C37215   6.868   9.043   3.822  0.0936  0.0199  0.0589
 1017MOL0     C37216   6.868   8.903   3.826 -0.0539 -1.0463 -0.9151
 1017MOL0     C37217   6.797   8.838   3.730  0.2140  0.3926 -0.8918
 1017MOL0     O37218   6.761   8.705   3.734 -0.5257  0.6371 -0.7980
 1017MOL0     C37219   6.784   8.642   3.865 -0.2804  0.6676 -0.2063
 1017MOL0     C37220   6.708   8.505   3.868 -0.1648 -0.7573 -0.1456
 1017MOL0     C37221   6.561   8.541   3.882  0.1756  0.7308 -0.9475
 1017MOL0     C37222   6.472   8.421   3.844  0.2359  1.3848  0.2692
 1017MOL0     C37223   6.339   8.442   3.900 -0.7296  0.4361 -0.3203
 1017MOL0     C37224   6.233   8.477   3.940  0.1804  0.3859  0.0924
 1017MOL0     C37225   6.738   8.901   3.615 -1.3817 -0.0579 -0.6651
 1017MOL0     C37226   6.768   9.039   3.599 -0.3665  0.4582  0.0101
 1017MOL0     C37227   6.735   9.101   3.465  0.0948 -0.1886 -0.0875
 1017MOL0     H37228   6.732   9.504   3.597  1.3695 -0.0001 -0.9071
 1017MOL0     H37229   6.730   9.734   3.626 -0.1935 -0.9122 -0.7519
 1017MOL0     H37230   6.943   9.991   3.729  0.0249 -0.2267  0.1982
 1017MOL0     H37231   6.782   9.949   3.647 -0.7139  0.7107 -0.0672
 1017MOL0     H37232   6.813  10.117   3.888 -2.8747  1.8939  1.8988
 1017MOL0     H37233   6.652  10.069   3.823  1.0041  0.3457  1.9980
 1017MOL0     H37234   6.697  10.279   3.764 -0.7105 -1.6797 -0.4901
 1017MOL0     H37235   6.710  10.182   3.616  4.3344  1.3450 -3.8806
 1017MOL0     H37236   6.912  10.340   3.763  1.8509 -1.3867  0.2907
 1017MOL0     H37237   6.976  10.202   3.688 -1.6098 -1.9041 -0.5248
 1017MOL0     H37238   6.799  10.359   3.495 -0.2083 -0.6107  1.8309
 1017MOL0     H37239   6.959  10.404   3.538 -2.5647  3.2385 -2.1897
 1017MOL0     H37240   7.059  10.200   3.465  0.5124  1.3728 -0.3000
 1017MOL0     H37241   6.905  10.133   3.421 -0.9979  0.8540  0.9897
 1017MOL0     H37242   7.060  10.242   3.227 -0.1051  0.9255 -1.0572
 1017MOL0     H37243   7.056  10.394   3.315 -0.2345  0.8379 -1.3985
 1017MOL0     H37244   6.801  10.379   3.265 -0.7988 -0.4439 -1.1695
 1017MOL0     H37245   6.896  10.404   3.135  0.8173  0.5429  0.7591
 1017MOL0     H37246   6.679  10.136   3.294 -0.7931 -2.4129  1.0450
 1017MOL0     H37247   6.606   9.831   3.166 -1.6649  2.1793  3.5928
 1017MOL0     H37248   6.491   9.955   3.145  0.1866 -3.8055  1.0887
 1017MOL0     H37249   6.428   9.798   2.984  0.4204 -0.5330  0.9000
 1017MOL0     H37250   6.502   9.922   2.892 -1.2498 -1.0518 -0.7157
 1017MOL0     H37251   6.620   9.652   2.999  0.0664  3.3256  3.1408
 1017MOL0     H37252   6.716   9.760   2.915 -0.1695 -1.4867 -2.3435
 1017MOL0     H37253   6.465   9.626   2.815  0.7435 -0.3479  0.1343
 1017MOL0     H37254   6.626   9.594   2.752  0.5774 -1.1885  1.4060
 1017MOL0     H37255   6.738   9.958   2.782  3.7223  1.1110  0.4708
 1017MOL0     H37256   6.933   9.995   2.673 -1.6833  0.5855  1.7883
 1017MOL0     H37257   7.307   9.877   2.319 -1.2057 -0.2796  0.1588
 1017MOL0     H37258   7.506  10.026   2.258 -1.0388 -0.2168 -1.7741
 1017MOL0     H37259   7.542  10.450   2.353 -0.9750  0.2436  1.0355
 1017MOL0     H37260   7.585  10.305   2.442 -2.7057 -1.7134  0.3212
 1017MOL0     H37261   7.765  10.263   2.264 -0.7489  0.0987 -1.8778
 1017MOL0     H37262   7.709  10.415   2.187 -1.4276  1.6914  0.9073
 1017MOL0     H37263   7.793  10.548   2.366 -0.0341  0.0549  3.8477
 1017MOL0     H37264   7.832  10.409   2.470  3.3117 -0.3772  0.1900
 1017MOL0     H37265   7.978  10.387   2.209 -0.6328  1.1259 -0.2286
 1017MOL0     H37266   8.023  10.365   2.388 -0.6801 -2.3632 -0.3665
 1017MOL0     H37267   8.063  10.605   2.403 -0.5818 -1.8369  1.2830
 1017MOL0     H37268   8.000  10.634   2.237 -0.1816 -1.3750 -1.2893
 1017MOL0     H37269   8.236  10.455   2.291 -0.3293 -0.2886 -0.8761
 1017MOL0     H37270   8.180  10.517   2.141  0.1154  1.6845 -0.0100
 1017MOL0     H37271   8.299  10.702   2.362 -3.5361  2.7321 -0.7643
 1017MOL0     H37272   8.253  10.755   2.205  0.8081  0.6906 -1.2391
 1017MOL0     H37273   8.470  10.562   2.273 -2.4924  0.2478  2.6892
 1017MOL0     H37274   8.426  10.619   2.110 -2.1922 -0.5824  0.9891
 1017MOL0     H37275   7.275  10.376   2.363 -0.2438 -0.2632 -0.4994
 1017MOL0     H37276   7.101  10.234   2.456 -1.2337 -1.9721 -0.8133
 1017MOL0     H37277   6.822   9.729   2.352  0.1812  1.1002 -0.0802
 1017MOL0     H37278   6.600   9.693   2.467 -0.5954 -1.1308  2.5585
 1017MOL0     H37279   6.928   9.668   4.006 -1.0981 -2.9945  1.1650
 1017MOL0     H37280   6.894   9.422   3.971  2.0376  1.7035 -0.7913
 1017MOL0     H37281   6.899   9.111   3.900 -1.0574  3.1932 -2.0478
 1017MOL0     H37282   6.924   8.857   3.906  2.0596  0.9849 -1.1094
 1017MOL0     H37283   6.730   8.690   3.947 -0.3494  0.7375 -0.2924
 1017MOL0     H37284   6.891   8.632   3.883 -0.2254 -0.6572 -1.1183
 1017MOL0     H37285   6.753   8.442   3.946  1.3648 -0.9616 -1.1365
 1017MOL0     H37286   6.725   8.461   3.769 -0.9229  0.4542 -0.8364
 1017MOL0     H37287   6.531   8.628   3.824  1.4470  1.1666 -1.0017
 1017MOL0     H37288   6.532   8.561   3.985 -2.9917 -1.5683 -1.2684
 1017MOL0     H37289   6.466   8.419   3.735  1.6609  4.4633  0.0264
 1017MOL0     H37290   6.514   8.328   3.882 -2.1014  0.0090 -0.3280
 1017MOL0     H37291   6.132   8.513   3.942  0.0010  0.0730 -1.7681
 1017MOL0     H37292   6.676   8.850   3.542  0.1983 -1.0816 -1.3501
 1017MOL0     H37293   6.645   9.057   3.420  0.6915 -1.5918  0.0543
 1017MOL0     H37294   6.717   9.209   3.458 -1.9347 -0.5550 -1.5696
 1017MOL0     H37295   6.819   9.082   3.398  1.8746  1.6223  1.4995
 1018MOL0     O37296   7.898   3.641   6.944  0.1897 -0.3024  0.2882
 1018MOL0     C37297   7.842   3.752   6.924 -0.1005 -0.0131 -0.4194
 1018MOL0     O37298   7.731   3.797   6.980 -0.0405 -0.2179 -0.5755
 1018MOL0     C37299   7.668   3.725   7.066  0.2207  0.3251  0.7061
 1018MOL0     C37300   7.713   3.741   7.200 -0.0816  0.1620 -0.2239
 1018MOL0     C37301   7.659   3.671   7.303  0.9859 -0.9725 -0.4511
 1018MOL0     C37302   7.557   3.581   7.281  0.7044  0.0877  0.5145
 1018MOL0     O37303   7.498   3.521   7.389 -0.9721  0.3414  0.4389
 1018MOL0     C37304   7.518   3.380   7.374  0.3956  0.6189 -0.0458
 1018MOL0     C37305   7.442   3.295   7.471  0.2962  0.8605 -0.4969
 1018MOL0     C37306   7.471   3.145   7.439 -1.2196  0.1404 -0.0264
 1018MOL0     C37307   7.623   3.102   7.432 -0.4290  0.3474  0.2956
 1018MOL0     C37308   7.616   2.945   7.422  0.7877 -0.2388  0.8519
 1018MOL0     C37309   7.662   2.884   7.550  0.3014  0.0182 -0.6586
 1018MOL0     C37310   7.571   2.907   7.672  0.0173  0.2806 -0.2408
 1018MOL0     C37311   7.605   2.796   7.764  0.6988  0.7223  0.2119
 1018MOL0     N37312   7.527   2.780   7.891  1.3834 -0.0915  1.1140
 1018MOL0     C37313   7.400   2.728   7.902 -0.3177 -0.1556 -0.0196
 1018MOL0     C37314   7.355   2.772   8.025 -0.6994 -0.3991  1.1301
 1018MOL0     C37315   7.210   2.759   8.076 -1.4160 -0.1204  0.3447
 1018MOL0     C37316   7.142   2.630   8.033 -0.1608  0.6906  1.0219
 1018MOL0     C37317   7.015   2.597   8.119  1.2189 -0.0381 -1.2207
 1018MOL0     C37318   6.981   2.452   8.126 -0.1900  0.0255  0.3390
 1018MOL0     O37319   6.887   2.426   8.227 -0.3249  0.4447  0.2060
 1018MOL0     C37320   6.885   2.293   8.248  1.3636 -0.3688 -0.0632
 1018MOL0     C37321   6.805   2.267   8.357  0.7059 -0.2966  0.4583
 1018MOL0     C37322   6.796   2.135   8.405 -0.5487  0.1343  0.0715
 1018MOL0     C37323   6.850   2.033   8.329 -0.7248  0.1101  0.0694
 1018MOL0     C37324   6.838   1.888   8.376  0.4353  0.5532  0.5397
 1018MOL0     O37325   6.788   1.864   8.499  0.7146 -0.1181 -0.9395
 1018MOL0     C37326   6.761   1.739   8.556 -0.4567 -0.3615  0.3845
 1018MOL0     C37327   6.774   1.613   8.503 -0.0480  1.1212 -0.4574
 1018MOL0     C37328   6.744   1.492   8.569 -0.1524  0.2874 -0.3287
 1018MOL0     C37329   6.693   1.498   8.700 -0.7122  0.8248 -0.1657
 1018MOL0     O37330   6.658   1.391   8.781 -0.1401 -0.2423  0.3595
 1018MOL0     C37331   6.721   1.262   8.751 -0.8212 -0.5741  0.0836
 1018MOL0     C37332   6.862   1.252   8.804 -0.2321  0.4460 -0.1104
 1018MOL0     C37333   6.940   1.127   8.750 -0.0765  0.2043 -0.1185
 1018MOL0     C37334   6.895   1.001   8.824  0.0895 -0.2477  0.1765
 1018MOL0     C37335   6.936   0.864   8.765 -0.6341  0.9689  0.4396
 1018MOL0     C37336   7.087   0.836   8.777  0.2194  1.1021 -1.9093
 1018MOL0     C37337   7.114   0.687   8.767  0.2302  1.0733  0.5765
 1018MOL0     C37338   7.261   0.670   8.752  0.6502 -0.7768  1.1492
 1018MOL0    Cl37339   7.307   0.496   8.722  0.2438  0.3346 -0.5561
 1018MOL0     C37340   6.681   1.629   8.753  0.6964  0.7189 -1.1262
 1018MOL0     C37341   6.711   1.744   8.680 -0.1131  0.1127  0.5382
 1018MOL0     O37342   6.871   1.800   8.297 -0.6187 -0.2058 -0.1603
 1018MOL0     C37343   6.913   2.060   8.210 -0.2760  0.1226  0.3350
 1018MOL0     C37344   6.948   2.192   8.173 -0.8344 -0.5850 -0.0493
 1018MOL0     N37345   7.468   2.815   8.094  0.4655  0.3376 -0.9542
 1018MOL0     N37346   7.565   2.827   8.008 -0.8900 -0.2618 -0.2462
 1018MOL0     C37347   7.506   3.567   7.151 -0.6351 -0.5762  0.2936
 1018MOL0     C37348   7.557   3.638   7.040  0.5641  0.4126 -0.0293
 1018MOL0     C37349   7.924   3.848   6.851 -0.5833 -0.5791  0.3002
 1018MOL0     C37350   7.907   3.981   6.884 -0.0176  0.1001 -0.0474
 1018MOL0     C37351   7.965   4.073   6.802 -0.1939 -1.1369 -0.1727
 1018MOL0     C37352   8.049   4.040   6.696  0.1290  0.2252 -0.0303
 1018MOL0     O37353   8.092   4.136   6.612 -0.2638  0.0282  0.5297
 1018MOL0     C37354   8.003   4.167   6.509  0.2520  0.1071  0.8942
 1018MOL0     C37355   8.079   4.175   6.370 -0.3987  0.1198  0.4106
 1018MOL0     C37356   8.181   4.292   6.367  0.1858 -0.0678  0.0005
 1018MOL0     C37357   8.113   4.423   6.340  0.3529 -1.0640 -0.1372
 1018MOL0     C37358   8.212   4.525   6.322 -0.1019  0.2067  0.5217
 1018MOL0     C37359   8.281   4.626   6.313  0.4852 -0.1056  0.7899
 1018MOL0     C37360   8.074   3.902   6.663 -0.2829 -0.4510 -0.2505
 1018MOL0     C37361   8.012   3.807   6.748 -0.8977  0.7406 -0.7013
 1018MOL0     C37362   8.028   3.660   6.712 -0.3448 -1.5140 -0.2097
 1018MOL0     H37363   7.789   3.806   7.240  0.2658 -1.7524  2.4402
 1018MOL0     H37364   7.690   3.680   7.407 -2.2709  1.4523  0.4955
 1018MOL0     H37365   7.488   3.347   7.274  1.3593  1.3250 -0.5795
 1018MOL0     H37366   7.621   3.351   7.396 -0.5076 -2.4718  0.6908
 1018MOL0     H37367   7.337   3.313   7.449  0.4124  1.9493 -0.1955
 1018MOL0     H37368   7.457   3.314   7.578  2.3504  0.2332 -0.6160
 1018MOL0     H37369   7.422   3.102   7.351  0.2952 -0.4818 -0.5976
 1018MOL0     H37370   7.426   3.097   7.527  0.4855  0.2986  0.9813
 1018MOL0     H37371   7.663   3.146   7.340 -3.7731  3.1880 -0.0169
 1018MOL0     H37372   7.674   3.140   7.521 -1.6219 -0.7921  1.5113
 1018MOL0     H37373   7.520   2.907   7.385  0.4108  0.6339  0.9073
 1018MOL0     H37374   7.699   2.924   7.355 -0.4830  0.9188 -1.1798
 1018MOL0     H37375   7.680   2.776   7.541 -0.2024  0.0534 -2.3746
 1018MOL0     H37376   7.749   2.941   7.581 -1.1613  2.4914 -0.8363
 1018MOL0     H37377   7.466   2.913   7.643  0.0377 -1.3034 -0.8034
 1018MOL0     H37378   7.604   2.995   7.727 -1.0226  0.4182  0.1709
 1018MOL0     H37379   7.584   2.697   7.722 -1.9432  1.0514  0.6031
 1018MOL0     H37380   7.703   2.821   7.805  1.0360  1.1951 -0.8364
 1018MOL0     H37381   7.338   2.692   7.821 -5.1016  1.6280  2.4271
 1018MOL0     H37382   7.209   2.779   8.183  3.0592  2.2156  0.2138
 1018MOL0     H37383   7.150   2.841   8.035 -2.0385  0.1062  1.6835
 1018MOL0     H37384   7.112   2.638   7.928  2.6673  1.3413  0.1969
 1018MOL0     H37385   7.213   2.549   8.046  1.6771  2.2924  1.4872
 1018MOL0     H37386   6.925   2.655   8.095 -0.9721 -1.6034  2.4404
 1018MOL0     H37387   7.042   2.625   8.221  1.1887 -0.4346 -1.1058
 1018MOL0     H37388   7.074   2.397   8.145 -0.4739 -0.1951  1.1060
 1018MOL0     H37389   6.937   2.418   8.032  0.0253 -1.2962  0.6899
 1018MOL0     H37390   6.751   2.348   8.404  0.5046  2.0884 -3.4117
 1018MOL0     H37391   6.744   2.104   8.494 -0.9256 -2.5374 -0.9760
 1018MOL0     H37392   6.804   1.607   8.399  0.7505 -1.1266 -0.1531
 1018MOL0     H37393   6.753   1.400   8.512  0.1373 -0.0816  0.3005
 1018MOL0     H37394   6.674   1.184   8.811  2.1339 -1.5664  1.2903
 1018MOL0     H37395   6.705   1.242   8.645 -0.2452 -1.2940  0.1288
 1018MOL0     H37396   6.910   1.347   8.775 -0.0335  0.0388 -1.1608
 1018MOL0     H37397   6.867   1.254   8.913  3.5424 -1.9575 -0.0620
 1018MOL0     H37398   6.921   1.100   8.646  2.5573  1.6165 -1.0559
 1018MOL0     H37399   7.047   1.146   8.763 -0.1968  2.5421 -1.9259
 1018MOL0     H37400   6.787   0.995   8.806 -0.1744 -1.5312  1.9222
 1018MOL0     H37401   6.931   1.016   8.926  4.8535  1.9205 -1.5164
 1018MOL0     H37402   6.910   0.867   8.659 -1.4477  1.8029  0.6506
 1018MOL0     H37403   6.883   0.780   8.810  1.1517 -0.2733  0.3501
 1018MOL0     H37404   7.145   0.902   8.712  2.0025  1.6936  0.1359
 1018MOL0     H37405   7.117   0.861   8.879 -2.2527 -1.7451 -0.3220
 1018MOL0     H37406   7.070   0.628   8.686 -0.4364 -0.7323  2.1571
 1018MOL0     H37407   7.077   0.627   8.851 -0.1671  2.8918  1.7408
 1018MOL0     H37408   7.291   0.744   8.678 -0.0796 -1.4498  0.1472
 1018MOL0     H37409   7.309   0.701   8.846 -0.6575  1.5232  1.1436
 1018MOL0     H37410   6.647   1.625   8.857  0.0125 -0.2995 -1.3696
 1018MOL0     H37411   6.704   1.839   8.733 -2.1114  3.0656 -4.3956
 1018MOL0     H37412   6.970   1.987   8.152 -1.8783  0.8499 -2.3175
 1018MOL0     H37413   7.007   2.203   8.082 -4.4745  0.5930 -2.5166
 1018MOL0     H37414   7.410   3.517   7.136  0.3786 -2.0827 -1.5693
 1018MOL0     H37415   7.514   3.640   6.940 -2.1498  0.9361  1.0566
 1018MOL0     H37416   7.841   4.017   6.962 -1.1000  0.5582 -1.1339
 1018MOL0     H37417   7.959   4.178   6.830 -2.5152 -0.7488 -1.8234
 1018MOL0     H37418   7.954   4.260   6.538 -1.2376 -1.2331  3.0010
 1018MOL0     H37419   7.922   4.093   6.508  0.5285 -0.2097  1.5727
 1018MOL0     H37420   8.013   4.197   6.286  0.7054 -0.4428 -0.6465
 1018MOL0     H37421   8.144   4.090   6.347  2.2990  1.2757  3.0821
 1018MOL0     H37422   8.270   4.279   6.305  0.1959 -1.0372  0.1977
 1018MOL0     H37423   8.224   4.299   6.467 -2.3101  2.6403  1.0323
 1018MOL0     H37424   8.043   4.412   6.257 -1.6323 -1.2197  1.5004
 1018MOL0     H37425   8.051   4.450   6.426 -2.5927 -2.6836 -1.5894
 1018MOL0     H37426   8.350   4.706   6.327  1.9846 -1.7091  3.6600
 1018MOL0     H37427   8.137   3.880   6.578  1.5077  0.5668  0.7546
 1018MOL0     H37428   7.931   3.622   6.680 -0.8830 -4.0827  3.8068
 1018MOL0     H37429   8.092   3.660   6.624  2.0144  1.0720  1.3356
 1018MOL0     H37430   8.075   3.593   6.785 -0.8984 -2.1840 -0.4660
 1019MOL0     O37431  10.301   2.875   6.844  0.1823 -0.0350 -0.0497
 1019MOL0     C37432  10.216   2.825   6.781 -0.1282 -0.1522  0.3325
 1019MOL0     O37433  10.087   2.858   6.777 -0.4337  0.4302  0.0987
 1019MOL0     C37434  10.039   2.968   6.843 -0.8581  0.4358  0.8268
 1019MOL0     C37435  10.099   3.070   6.913 -0.4994  0.1443 -0.1171
 1019MOL0     C37436  10.021   3.178   6.962 -0.3012  0.0159 -0.2523
 1019MOL0     C37437   9.884   3.184   6.933  0.5257 -0.8465 -0.6571
 1019MOL0     O37438   9.802   3.292   6.974  0.2324  0.3318  0.2315
 1019MOL0     C37439   9.862   3.399   7.048 -1.4439 -0.3421 -0.0790
 1019MOL0     C37440   9.952   3.490   6.960  0.0914  0.8926  0.6703
 1019MOL0     C37441   9.854   3.573   6.878 -0.4349 -0.7294 -0.3314
 1019MOL0     C37442   9.939   3.664   6.780  0.9862 -0.5314 -1.0917
 1019MOL0     C37443   9.879   3.653   6.645 -1.2373 -0.9258 -0.0756
 1019MOL0     C37444   9.972   3.736   6.545 -1.0129  0.2334  0.3987
 1019MOL0     C37445   9.908   3.736   6.402 -0.0217  0.0646  1.1629
 1019MOL0     C37446   9.792   3.828   6.394  0.6009  0.0212 -0.4545
 1019MOL0     N37447   9.769   3.858   6.258  0.3036 -0.8559 -0.5516
 1019MOL0     C37448   9.725   3.765   6.161  0.6356  0.5378  0.3280
 1019MOL0     C37449   9.762   3.820   6.042  0.6458  0.3184 -0.4235
 1019MOL0     C37450   9.746   3.772   5.898 -1.7132  0.7688  0.6257
 1019MOL0     C37451   9.780   3.623   5.862 -0.2157  0.8454 -0.0613
 1019MOL0     C37452   9.920   3.576   5.871 -0.5756 -0.4994 -0.0318
 1019MOL0     C37453  10.025   3.644   5.774 -0.3557 -0.4094 -0.0703
 1019MOL0     O37454   9.978   3.670   5.637 -0.2798 -0.1907 -0.2574
 1019MOL0     C37455  10.073   3.696   5.539  0.8053 -0.2685  0.6269
 1019MOL0     C37456  10.214   3.709   5.557 -0.0673 -0.1207  0.0273
 1019MOL0     C37457  10.290   3.745   5.448 -0.5222  0.5880  0.3978
 1019MOL0     C37458  10.235   3.792   5.331  0.0378  0.9485  0.9026
 1019MOL0     C37459  10.334   3.829   5.225  0.9116  0.2718 -0.4256
 1019MOL0     O37460  10.468   3.830   5.249 -0.5262 -0.3437 -0.3035
 1019MOL0     C37461  10.550   3.896   5.155 -0.1670  0.8527  0.4461
 1019MOL0     C37462  10.614   4.019   5.174  1.2239 -0.4730  0.0373
 1019MOL0     C37463  10.719   4.062   5.087 -0.2593  0.3878 -0.7614
 1019MOL0     C37464  10.773   3.972   4.996 -0.3017 -0.3995 -0.3885
 1019MOL0     O37465  10.876   4.008   4.918  0.2600  0.0745 -0.0477
 1019MOL0     C37466  10.996   4.062   4.978 -0.5349 -0.2351  0.9011
 1019MOL0     C37467  11.118   3.954   4.974 -0.4258  0.2366  0.4797
 1019MOL0     C37468  11.185   3.958   4.831 -0.9061  1.4874 -0.3291
 1019MOL0     C37469  11.273   3.832   4.811  0.1891  0.0132  0.1457
 1019MOL0     C37470  11.372   3.803   4.922 -0.4040  0.3479  0.5155
 1019MOL0     C37471  11.465   3.916   4.955 -0.7785  0.3172 -0.3246
 1019MOL0     C37472  11.556   3.859   5.065  0.1409  0.6456 -0.4837
 1019MOL0     C37473  11.646   3.966   5.121 -0.2128  0.0328 -0.1142
 1019MOL0    Cl37474  11.566   4.105   5.179  0.2797 -0.3542 -0.1231
 1019MOL0     C37475  10.710   3.844   4.983  0.4498 -1.3696  0.5080
 1019MOL0     C37476  10.614   3.807   5.064 -1.6135  0.2650 -0.5320
 1019MOL0     O37477  10.280   3.823   5.117  0.8362  0.3583  0.5628
 1019MOL0     C37478  10.093   3.810   5.322  0.6914  1.3754  0.0798
 1019MOL0     C37479  10.016   3.754   5.422  0.5242  0.1823 -0.3959
 1019MOL0     N37480   9.828   3.938   6.069  0.3068 -0.2649 -0.1373
 1019MOL0     N37481   9.842   3.956   6.199  0.1693 -0.6693 -0.2456
 1019MOL0     C37482   9.824   3.069   6.878 -0.0610 -0.4935  0.1690
 1019MOL0     C37483   9.904   2.976   6.827 -0.0994 -0.5355 -1.0089
 1019MOL0     C37484  10.242   2.722   6.665  0.6381  0.7123  0.1604
 1019MOL0     C37485  10.135   2.674   6.584  0.1030  0.1241 -0.0667
 1019MOL0     C37486  10.152   2.558   6.499  0.0650  0.7079 -0.3558
 1019MOL0     C37487  10.263   2.477   6.493  0.2034 -0.4269 -0.2685
 1019MOL0     O37488  10.269   2.364   6.426  0.1233  1.0580  0.1509
 1019MOL0     C37489  10.151   2.287   6.387  0.2320  0.3211 -0.7411
 1019MOL0     C37490  10.195   2.141   6.346 -0.8135 -0.9016 -0.3965
 1019MOL0     C37491  10.076   2.044   6.327 -0.8960 -0.7409 -0.7530
 1019MOL0     C37492  10.003   2.061   6.184 -0.5981 -0.0654  0.4109
 1019MOL0     C37493   9.876   1.987   6.179 -1.3953  0.1339 -0.0189
 1019MOL0     C37494   9.776   1.923   6.183 -0.1595  0.6625  0.1126
 1019MOL0     C37495  10.367   2.527   6.576 -0.2796 -0.3438 -0.3257
 1019MOL0     C37496  10.359   2.647   6.665  0.1078 -0.0662 -0.1687
 1019MOL0     C37497  10.492   2.675   6.725  0.9447 -0.6405 -0.5664
 1019MOL0     H37498  10.207   3.067   6.924 -0.6253 -0.5228  1.1775
 1019MOL0     H37499  10.066   3.264   7.012 -0.3146 -0.5648  0.7667
 1019MOL0     H37500   9.798   3.460   7.112  0.1174  0.8078  0.4594
 1019MOL0     H37501   9.926   3.350   7.122 -1.3669 -1.0577 -0.5990
 1019MOL0     H37502  10.019   3.440   6.889  0.2931 -2.3342  2.9017
 1019MOL0     H37503  10.014   3.542   7.033 -0.9208  1.7716  0.9162
 1019MOL0     H37504   9.791   3.637   6.939  1.5410  1.0387 -0.0447
 1019MOL0     H37505   9.794   3.511   6.810  0.1819  0.4921 -2.0741
 1019MOL0     H37506   9.948   3.768   6.812  1.2630 -0.4221 -1.5151
 1019MOL0     H37507  10.040   3.627   6.761  1.4987  0.1992  0.1254
 1019MOL0     H37508   9.872   3.549   6.610  0.7205 -1.2731  0.4640
 1019MOL0     H37509   9.776   3.691   6.640 -1.5405 -1.3669  1.9521
 1019MOL0     H37510   9.985   3.838   6.583 -0.7175 -0.3737  1.9940
 1019MOL0     H37511  10.069   3.686   6.538 -0.3676  1.4726  0.1726
 1019MOL0     H37512   9.866   3.640   6.369 -0.4408  0.6819 -0.1886
 1019MOL0     H37513   9.989   3.757   6.331 -1.7497  0.9091 -0.6334
 1019MOL0     H37514   9.709   3.765   6.427  0.4453  1.6218  2.5956
 1019MOL0     H37515   9.798   3.923   6.448 -2.0343  1.2536 -2.1077
 1019MOL0     H37516   9.691   3.664   6.183  0.7965  0.6536  1.1626
 1019MOL0     H37517   9.643   3.803   5.877 -2.3157 -0.1100  2.0855
 1019MOL0     H37518   9.808   3.839   5.839  1.1689 -1.1951  1.2255
 1019MOL0     H37519   9.723   3.555   5.927  1.1581  0.4996  0.8240
 1019MOL0     H37520   9.754   3.597   5.759  1.5774  0.2798 -0.3985
 1019MOL0     H37521   9.915   3.472   5.836  1.4038 -0.5543 -0.2789
 1019MOL0     H37522   9.960   3.589   5.972  1.2903  2.4618 -1.0385
 1019MOL0     H37523  10.117   3.585   5.775  0.6655  1.1411  0.1189
 1019MOL0     H37524  10.048   3.743   5.814  1.4742 -1.9272  3.0213
 1019MOL0     H37525  10.262   3.687   5.651  0.2265  1.8088  0.3739
 1019MOL0     H37526  10.397   3.734   5.467 -0.4957  0.3249  0.1021
 1019MOL0     H37527  10.583   4.092   5.249 -2.2438  1.2607 -2.7792
 1019MOL0     H37528  10.752   4.165   5.097 -1.4574  0.6141  1.3051
 1019MOL0     H37529  11.028   4.156   4.933 -1.8195  0.4282  1.3193
 1019MOL0     H37530  10.975   4.087   5.082 -0.7656  0.7837  0.6187
 1019MOL0     H37531  11.187   3.975   5.056  1.3050 -1.1298 -0.5551
 1019MOL0     H37532  11.083   3.851   4.984  2.4709 -0.6439  3.5591
 1019MOL0     H37533  11.115   3.954   4.747 -1.7862  0.2271  0.4228
 1019MOL0     H37534  11.255   4.041   4.824  0.2645  0.5983  0.4513
 1019MOL0     H37535  11.327   3.847   4.717 -0.6168 -4.4153 -1.2386
 1019MOL0     H37536  11.224   3.735   4.804 -0.0793  0.2396 -1.5564
 1019MOL0     H37537  11.436   3.723   4.883 -2.0198 -0.6489 -0.1863
 1019MOL0     H37538  11.313   3.770   5.008 -0.7805 -1.0767 -0.2583
 1019MOL0     H37539  11.524   3.943   4.868 -1.2423  1.9331 -0.1779
 1019MOL0     H37540  11.417   4.008   4.989 -0.1975  1.8602 -3.3614
 1019MOL0     H37541  11.622   3.787   5.016 -1.1162 -0.2083 -0.9778
 1019MOL0     H37542  11.511   3.809   5.151  3.5687 -1.4761  0.2808
 1019MOL0     H37543  11.710   3.918   5.196 -0.0413 -0.3688 -0.5188
 1019MOL0     H37544  11.702   4.012   5.040 -0.4798 -0.5508 -0.6297
 1019MOL0     H37545  10.742   3.777   4.904 -0.8515 -3.2616  1.5138
 1019MOL0     H37546  10.578   3.705   5.055 -0.4627 -0.0848 -1.4621
 1019MOL0     H37547  10.053   3.846   5.228  1.1286  2.0538  0.1448
 1019MOL0     H37548   9.916   3.721   5.393  0.1459  0.2502  0.7930
 1019MOL0     H37549   9.715   3.064   6.877 -0.1309 -0.5959 -2.9762
 1019MOL0     H37550   9.852   2.892   6.781  2.1417 -3.5897  1.5222
 1019MOL0     H37551  10.038   2.723   6.582  1.3665  2.9016  0.7668
 1019MOL0     H37552  10.082   2.546   6.418  3.7896 -1.4104 -3.6281
 1019MOL0     H37553  10.112   2.344   6.302  3.6579  2.3213 -1.1691
 1019MOL0     H37554  10.078   2.269   6.466  0.4837  3.4367  0.3606
 1019MOL0     H37555  10.266   2.106   6.421 -1.2279 -3.2252 -0.9977
 1019MOL0     H37556  10.260   2.143   6.258 -0.7331  0.5027 -0.3197
 1019MOL0     H37557  10.006   2.054   6.410 -0.4166 -0.5372 -0.3713
 1019MOL0     H37558  10.103   1.938   6.330  1.9905 -0.0784 -0.9615
 1019MOL0     H37559   9.995   2.165   6.151 -0.7456  0.1342  1.0686
 1019MOL0     H37560  10.068   1.996   6.123  2.1403  0.1533  2.8645
 1019MOL0     H37561   9.687   1.863   6.186  0.2230  0.1257  1.5818
 1019MOL0     H37562  10.457   2.467   6.586 -0.3473 -0.5934 -1.1596
 1019MOL0     H37563  10.562   2.630   6.654  2.2323  0.0432  0.2317
 1019MOL0     H37564  10.518   2.781   6.729 -1.2424  0.0216 -2.0480
 1019MOL0     H37565  10.497   2.622   6.821  0.0169  0.8647  0.3414
 1020MOL0     O37566   9.195   4.593   0.996  0.6501  0.5730 -0.0094
 1020MOL0     C37567   9.222   4.710   1.021 -0.9572 -0.0679 -0.5760
 1020MOL0     O37568   9.181   4.817   0.948  0.6914 -0.1773  0.4718
 1020MOL0     C37569   9.126   4.792   0.824  0.6371  0.1160  0.9070
 1020MOL0     C37570   9.155   4.682   0.727 -0.5594 -0.0811 -0.9534
 1020MOL0     C37571   9.087   4.671   0.607 -0.9747  0.2785 -0.6351
 1020MOL0     C37572   8.988   4.763   0.573 -0.9441 -0.0728  0.0985
 1020MOL0     O37573   8.905   4.734   0.465 -0.4492 -0.8992 -0.9202
 1020MOL0     C37574   8.900   4.843   0.386  1.3274 -0.7150  0.4473
 1020MOL0     C37575   8.842   4.796   0.246  0.3846  0.3902 -0.2088
 1020MOL0     C37576   8.930   4.686   0.187 -1.1784  0.0985  0.6884
 1020MOL0     C37577   8.928   4.699   0.033 -0.9458 -0.3224 -0.0044
 1020MOL0     C37578   8.790   4.691  -0.040 -0.4284 -0.1651  0.4296
 1020MOL0     C37579   8.707   4.567  -0.025  0.8168  1.4660  1.0844
 1020MOL0     C37580   8.756   4.439  -0.094  0.5378  0.2856  0.8552
 1020MOL0     C37581   8.717   4.455  -0.254  0.1335  0.1204 -0.7039
 1020MOL0     N37582   8.778   4.347  -0.332 -0.1052 -0.0968 -0.6390
 1020MOL0     C37583   8.902   4.295  -0.323  0.0956 -0.3990 -0.2202
 1020MOL0     C37584   8.918   4.219  -0.429  0.7061 -0.1425  0.0000
 1020MOL0     C37585   9.036   4.128  -0.472  0.1967  0.9910  0.0916
 1020MOL0     C37586   9.023   3.984  -0.442  1.2632  0.4496  0.1214
 1020MOL0     C37587   9.124   3.910  -0.351 -0.0360 -0.5668  0.3369
 1020MOL0     C37588   9.268   3.883  -0.392 -1.5455 -0.2812 -0.1080
 1020MOL0     O37589   9.334   4.006  -0.408 -0.4914 -0.1336 -0.1938
 1020MOL0     C37590   9.458   4.043  -0.370  0.6440  0.2878 -0.0040
 1020MOL0     C37591   9.546   3.947  -0.306 -0.4153  0.9258 -1.0047
 1020MOL0     C37592   9.676   3.982  -0.251 -0.6885 -1.1937  0.2454
 1020MOL0     C37593   9.725   4.116  -0.269 -0.0452 -0.0177 -0.3049
 1020MOL0     C37594   9.855   4.156  -0.221  0.3775 -0.0221  0.3276
 1020MOL0     O37595   9.940   4.064  -0.176 -0.0070 -0.5115 -0.0735
 1020MOL0     C37596  10.048   4.104  -0.090  0.6526 -0.4969  0.0268
 1020MOL0     C37597  10.050   4.237  -0.036 -1.4239  0.5683 -0.1747
 1020MOL0     C37598  10.161   4.283   0.041  0.6672 -0.0673  0.5241
 1020MOL0     C37599  10.272   4.202   0.067 -0.2963  0.3362  0.0475
 1020MOL0     O37600  10.384   4.248   0.137  0.1783  0.5052  0.6091
 1020MOL0     C37601  10.378   4.200   0.272  1.3162  0.3449 -0.1521
 1020MOL0     C37602  10.502   4.232   0.343  0.0340 -0.5541  0.6225
 1020MOL0     C37603  10.524   4.172   0.483 -0.0699 -1.3539  0.1305
 1020MOL0     C37604  10.673   4.192   0.523  0.4356 -0.7763 -0.3270
 1020MOL0     C37605  10.690   4.108   0.644  0.1451 -0.8524 -0.5585
 1020MOL0     C37606  10.833   4.128   0.688 -0.5180  0.0937 -0.0885
 1020MOL0     C37607  10.869   4.057   0.814  0.5039 -0.0053 -1.2289
 1020MOL0     C37608  11.022   4.061   0.843 -0.7912 -0.6680 -0.0921
 1020MOL0    Cl37609  11.104   3.972   0.705  0.0827  0.3457  0.3508
 1020MOL0     C37610  10.267   4.074   0.010  0.0172 -1.3065  0.6410
 1020MOL0     C37611  10.158   4.025  -0.067 -0.7994 -0.2158  0.4649
 1020MOL0     O37612   9.880   4.276  -0.243 -0.8696 -0.7963 -0.5935
 1020MOL0     C37613   9.637   4.206  -0.340  0.1879  0.7382  0.2202
 1020MOL0     C37614   9.508   4.168  -0.387  0.1469  1.2240  0.6276
 1020MOL0     N37615   8.796   4.225  -0.485  1.1600  0.4909  0.5703
 1020MOL0     N37616   8.712   4.303  -0.428  0.6936 -0.0901  0.5148
 1020MOL0     C37617   8.969   4.874   0.652  0.9663  0.5893  1.0295
 1020MOL0     C37618   9.028   4.884   0.777 -0.3628  0.7746  0.1860
 1020MOL0     C37619   9.262   4.737   1.157  0.5617 -0.2719  0.4577
 1020MOL0     C37620   9.396   4.715   1.202  0.0389 -0.6887 -0.2483
 1020MOL0     C37621   9.431   4.735   1.330 -0.6226 -0.5043 -0.0590
 1020MOL0     C37622   9.331   4.795   1.417 -1.0099  0.8500 -0.6346
 1020MOL0     O37623   9.365   4.785   1.551  0.5782  1.7600  0.3521
 1020MOL0     C37624   9.261   4.801   1.642 -0.5373 -0.0175  0.0029
 1020MOL0     C37625   9.334   4.796   1.770 -0.5159  0.4952  0.0267
 1020MOL0     C37626   9.411   4.932   1.784  0.1226 -0.5340 -1.2469
 1020MOL0     C37627   9.434   4.960   1.938  0.8356  0.2220 -0.2341
 1020MOL0     C37628   9.442   4.833   2.017 -0.3608 -0.8631  0.5598
 1020MOL0     C37629   9.445   4.724   2.077  0.2006 -0.3699 -0.9591
 1020MOL0     C37630   9.200   4.816   1.376  0.0927  0.6700 -1.3268
 1020MOL0     C37631   9.163   4.789   1.241 -0.2329 -0.0896  0.1928
 1020MOL0     C37632   9.021   4.829   1.212 -0.0139  0.0041  0.4119
 1020MOL0     H37633   9.205   4.592   0.761 -0.9533 -0.7279 -2.0524
 1020MOL0     H37634   9.112   4.590   0.539  1.5434 -0.0037  0.4885
 1020MOL0     H37635   8.840   4.923   0.430  0.7317  1.0493 -3.1873
 1020MOL0     H37636   8.996   4.890   0.363 -0.6030  1.9951 -2.9792
 1020MOL0     H37637   8.812   4.883   0.186 -2.2281 -0.9514 -1.0277
 1020MOL0     H37638   8.749   4.740   0.257 -0.0536  1.0310 -0.5654
 1020MOL0     H37639   8.901   4.587   0.223  0.5524 -0.5042  0.5076
 1020MOL0     H37640   9.031   4.707   0.222 -0.7270  0.8403 -0.9527
 1020MOL0     H37641   8.967   4.798   0.012 -2.1269  0.8560  2.8985
 1020MOL0     H37642   9.000   4.626  -0.005  0.4817  1.1989 -0.2929
 1020MOL0     H37643   8.733   4.777  -0.005 -1.8630  0.2322 -2.5715
 1020MOL0     H37644   8.811   4.716  -0.145 -0.6432  0.6696  0.5788
 1020MOL0     H37645   8.683   4.544   0.080 -0.1503 -2.4990  0.1479
 1020MOL0     H37646   8.604   4.579  -0.062 -0.0548 -2.0180  1.9929
 1020MOL0     H37647   8.709   4.351  -0.049  0.0503 -0.2913 -0.7142
 1020MOL0     H37648   8.865   4.436  -0.080  0.2854  0.9685  3.4874
 1020MOL0     H37649   8.609   4.452  -0.275 -0.1392 -1.3555  0.7526
 1020MOL0     H37650   8.755   4.550  -0.292 -0.3376 -0.0022 -1.5210
 1020MOL0     H37651   8.976   4.323  -0.248  0.8258  1.9150 -1.6864
 1020MOL0     H37652   9.051   4.132  -0.580 -1.7527 -3.2689 -0.5356
 1020MOL0     H37653   9.127   4.166  -0.424  2.9338 -0.9046 -3.1787
 1020MOL0     H37654   8.931   3.960  -0.388  1.8061 -0.1366  0.8022
 1020MOL0     H37655   9.011   3.930  -0.537 -0.2870  1.5493 -0.3473
 1020MOL0     H37656   9.086   3.813  -0.318 -1.3444  0.1201  0.9197
 1020MOL0     H37657   9.130   3.968  -0.258 -3.8743  0.2295  0.2553
 1020MOL0     H37658   9.275   3.827  -0.486  0.4067  0.0670 -0.2022
 1020MOL0     H37659   9.300   3.824  -0.306 -1.4385 -0.3800 -0.2152
 1020MOL0     H37660   9.512   3.844  -0.303  1.4033  0.2951  0.0971
 1020MOL0     H37661   9.743   3.908  -0.209 -0.6204 -1.1467  0.2194
 1020MOL0     H37662   9.963   4.300  -0.023 -2.4083 -1.0652  1.6917
 1020MOL0     H37663  10.165   4.384   0.081  6.2595  0.1229  0.3270
 1020MOL0     H37664  10.286   4.232   0.321 -0.1940 -2.1231 -1.1776
 1020MOL0     H37665  10.367   4.092   0.286  0.3519 -0.0041 -2.8409
 1020MOL0     H37666  10.587   4.196   0.283 -1.3614  0.0627 -1.8651
 1020MOL0     H37667  10.511   4.340   0.357 -0.7268 -0.3998  0.0028
 1020MOL0     H37668  10.453   4.217   0.554  1.3965  0.3504  0.5884
 1020MOL0     H37669  10.496   4.067   0.488  1.7168 -1.9152 -0.8059
 1020MOL0     H37670  10.682   4.299   0.544 -3.4040 -0.2181 -0.8475
 1020MOL0     H37671  10.746   4.171   0.445  0.5408 -0.1682 -0.3948
 1020MOL0     H37672  10.663   4.005   0.618 -1.1815 -0.3665 -1.2069
 1020MOL0     H37673  10.623   4.147   0.721 -0.0285 -0.1298 -1.0594
 1020MOL0     H37674  10.894   4.076   0.614 -1.7612  0.3044 -1.3093
 1020MOL0     H37675  10.859   4.234   0.680  1.1818 -0.4051 -2.0141
 1020MOL0     H37676  10.837   3.953   0.806 -2.1111  0.7429 -1.6060
 1020MOL0     H37677  10.813   4.094   0.901  1.0885 -1.0841 -0.3642
 1020MOL0     H37678  11.053   4.166   0.841 -1.4051 -0.4673 -2.6886
 1020MOL0     H37679  11.044   4.010   0.938 -3.7691 -0.5485  0.7445
 1020MOL0     H37680  10.353   4.010   0.029  1.1069  0.4794  2.0132
 1020MOL0     H37681  10.161   3.929  -0.117  1.3920  0.0745 -0.0570
 1020MOL0     H37682   9.670   4.307  -0.365  3.3094  0.2708  1.8783
 1020MOL0     H37683   9.443   4.246  -0.424  0.9124  1.8575  0.5835
 1020MOL0     H37684   8.913   4.961   0.622  0.3169 -0.7580 -2.0942
 1020MOL0     H37685   9.007   4.968   0.842  0.1120  1.4502 -0.5087
 1020MOL0     H37686   9.458   4.664   1.129 -1.1946 -0.9132 -1.1675
 1020MOL0     H37687   9.531   4.724   1.370 -0.5767  1.9739  0.6704
 1020MOL0     H37688   9.183   4.725   1.635 -1.6730  1.2809 -3.2602
 1020MOL0     H37689   9.216   4.900   1.636  3.1202  1.9735  1.9019
 1020MOL0     H37690   9.391   4.702   1.770 -3.1498 -1.2265 -1.4943
 1020MOL0     H37691   9.251   4.788   1.841 -0.8682 -2.5345 -0.5713
 1020MOL0     H37692   9.356   5.019   1.746 -0.0782 -1.3296 -2.8512
 1020MOL0     H37693   9.508   4.934   1.736  1.7525  2.5346  1.7244
 1020MOL0     H37694   9.536   4.996   1.958  1.6910 -1.5210 -1.1573
 1020MOL0     H37695   9.365   5.033   1.979  1.0726  1.6707 -2.2828
 1020MOL0     H37696   9.462   4.624   2.111  0.5426 -0.6647 -1.9566
 1020MOL0     H37697   9.125   4.862   1.440  0.6840  1.1889 -0.9985
 1020MOL0     H37698   9.027   4.898   1.127  1.3786  0.5775  0.9477
 1020MOL0     H37699   8.962   4.739   1.198  0.0221 -0.2209  1.5966
 1020MOL0     H37700   8.961   4.885   1.285 -0.9254  1.1116 -1.1322
 1021MOL0     O37701   3.024   2.542   0.518 -0.3396  0.2165  0.4789
 1021MOL0     C37702   2.977   2.630   0.445  0.3618  0.0455 -0.4582
 1021MOL0     O37703   3.041   2.689   0.349  0.4233  0.0658 -0.9747
 1021MOL0     C37704   3.140   2.622   0.284  1.0225  1.1850 -0.4929
 1021MOL0     C37705   3.142   2.480   0.269  0.9548 -0.3349  0.3367
 1021MOL0     C37706   3.250   2.426   0.196 -0.4828  0.6007 -0.7783
 1021MOL0     C37707   3.372   2.492   0.170  0.2202 -0.4309  1.5348
 1021MOL0     O37708   3.477   2.414   0.119  0.0633  0.5866  0.2129
 1021MOL0     C37709   3.492   2.434  -0.022  0.3458 -0.1303  0.0723
 1021MOL0     C37710   3.567   2.310  -0.084 -0.4827 -0.3580 -0.3720
 1021MOL0     C37711   3.710   2.292  -0.016 -0.1401 -0.0481  0.1821
 1021MOL0     C37712   3.800   2.414  -0.038  0.3313  0.4154 -0.5463
 1021MOL0     C37713   3.938   2.407   0.029 -0.5861  0.3119  0.7496
 1021MOL0     C37714   4.004   2.263   0.020  0.6701  0.0405 -0.2716
 1021MOL0     C37715   4.144   2.263   0.083  0.0779 -0.7745 -1.1097
 1021MOL0     C37716   4.227   2.146   0.013 -0.6004  0.9766  0.1322
 1021MOL0     N37717   4.361   2.143   0.086  0.1693  0.4208 -0.4848
 1021MOL0     C37718   4.470   2.205   0.049 -0.8253  0.2830  0.6668
 1021MOL0     C37719   4.552   2.199   0.154 -0.0598  0.5541 -0.3731
 1021MOL0     C37720   4.695   2.262   0.157 -0.9016 -0.7049 -0.6064
 1021MOL0     C37721   4.777   2.209   0.285  0.8991 -0.3291  0.8111
 1021MOL0     C37722   4.928   2.253   0.279  0.0834 -0.0812  0.2429
 1021MOL0     C37723   5.028   2.215   0.383  0.1544  0.4333 -0.5546
 1021MOL0     O37724   4.986   2.272   0.514 -0.2278  0.3232  0.2543
 1021MOL0     C37725   5.058   2.230   0.624  0.3514 -0.1031 -0.4957
 1021MOL0     C37726   5.114   2.103   0.646 -0.1717 -0.5201  0.3505
 1021MOL0     C37727   5.182   2.064   0.756  0.0239  0.2413  0.5137
 1021MOL0     C37728   5.213   2.165   0.848  0.2268  0.5833 -1.2277
 1021MOL0     C37729   5.310   2.129   0.952  0.1657  0.8291  0.4529
 1021MOL0     O37730   5.356   2.241   1.018 -0.2568  0.0158 -0.0443
 1021MOL0     C37731   5.426   2.212   1.134 -0.0855  0.0535  0.9540
 1021MOL0     C37732   5.353   2.197   1.257 -0.6376 -0.2189  0.0194
 1021MOL0     C37733   5.435   2.145   1.368 -0.9142  0.1082  0.2678
 1021MOL0     C37734   5.568   2.116   1.358  0.3748 -0.2461 -1.1180
 1021MOL0     O37735   5.633   2.096   1.479  0.1739  0.3375 -0.5863
 1021MOL0     C37736   5.756   2.023   1.480  0.4717  0.0643  0.5468
 1021MOL0     C37737   5.796   2.006   1.622 -0.3072 -0.2053  0.1104
 1021MOL0     C37738   5.945   1.952   1.632  0.2075  0.7903 -0.0675
 1021MOL0     C37739   5.960   1.817   1.561  0.5714 -0.5757 -0.2777
 1021MOL0     C37740   6.100   1.769   1.520  0.3852 -0.0283 -0.1909
 1021MOL0     C37741   6.206   1.803   1.631  0.5388 -0.2491  0.5009
 1021MOL0     C37742   6.346   1.757   1.591 -0.8391  0.1706 -0.0746
 1021MOL0     C37743   6.388   1.850   1.472 -0.5672  0.0974  0.8601
 1021MOL0    Cl37744   6.525   1.782   1.391 -0.5468 -0.2860  0.4047
 1021MOL0     C37745   5.630   2.151   1.249  0.6822  0.2324 -0.3797
 1021MOL0     C37746   5.568   2.191   1.138  0.5522  0.3748 -0.1745
 1021MOL0     O37747   5.343   2.009   0.969  0.6664  0.3523  0.4379
 1021MOL0     C37748   5.168   2.295   0.835  0.9770  0.0988  0.1431
 1021MOL0     C37749   5.096   2.326   0.721 -0.9571  0.2948 -0.0076
 1021MOL0     N37750   4.495   2.130   0.258  0.0533  0.5278  0.4255
 1021MOL0     N37751   4.389   2.091   0.207 -0.6455 -0.0006 -0.3122
 1021MOL0     C37752   3.374   2.628   0.197 -0.2879 -0.1094 -0.0274
 1021MOL0     C37753   3.254   2.695   0.245 -0.2534 -0.2983  0.0642
 1021MOL0     C37754   2.854   2.688   0.484 -0.0469  0.2775 -0.3083
 1021MOL0     C37755   2.843   2.819   0.556 -0.4633  0.6864 -0.8985
 1021MOL0     C37756   2.712   2.861   0.582 -0.1442  0.6310 -0.0860
 1021MOL0     C37757   2.608   2.794   0.527  0.0021  0.8557 -0.0674
 1021MOL0     O37758   2.485   2.848   0.540 -0.1645  0.9944 -0.8849
 1021MOL0     C37759   2.436   2.937   0.434 -0.5879 -1.3005 -0.6557
 1021MOL0     C37760   2.285   2.937   0.422  0.4922  0.0797  1.0225
 1021MOL0     C37761   2.215   2.924   0.557 -0.0641  0.1372 -0.1983
 1021MOL0     C37762   2.059   2.921   0.544  0.8922  1.0800 -1.1147
 1021MOL0     C37763   1.990   3.049   0.515  0.2928 -0.6040  0.4300
 1021MOL0     C37764   1.953   3.161   0.482  1.7865 -0.7362 -0.7900
 1021MOL0     C37765   2.620   2.681   0.455 -0.8882  0.6721 -1.2473
 1021MOL0     C37766   2.741   2.616   0.441 -0.6941 -0.2796  0.0568
 1021MOL0     C37767   2.741   2.487   0.358  0.1727  0.1565 -0.1528
 1021MOL0     H37768   3.061   2.414   0.301  0.5663 -2.2392 -3.9479
 1021MOL0     H37769   3.253   2.319   0.175  0.3226  0.5503 -0.4389
 1021MOL0     H37770   3.394   2.429  -0.069  0.3858 -0.1461 -0.0097
 1021MOL0     H37771   3.535   2.531  -0.049  1.0485 -0.3097  0.5203
 1021MOL0     H37772   3.589   2.342  -0.186 -0.3798 -0.1231 -0.2770
 1021MOL0     H37773   3.508   2.219  -0.098 -1.3629  0.4563 -2.4126
 1021MOL0     H37774   3.763   2.215  -0.072  2.2002  0.7172  1.2320
 1021MOL0     H37775   3.716   2.261   0.089  1.6845 -0.1740  0.0687
 1021MOL0     H37776   3.818   2.433  -0.144  0.3630  2.1844 -0.2449
 1021MOL0     H37777   3.747   2.500   0.001 -4.1548 -2.6830  0.9954
 1021MOL0     H37778   4.008   2.475  -0.022 -1.0484  0.2273 -0.0137
 1021MOL0     H37779   3.929   2.444   0.131 -0.5276  2.6535 -0.0157
 1021MOL0     H37780   3.953   2.175   0.062  1.7465  0.8337  2.9692
 1021MOL0     H37781   4.008   2.246  -0.088 -1.4259 -0.3383 -0.3308
 1021MOL0     H37782   4.141   2.245   0.190  0.9136  0.1383 -0.9181
 1021MOL0     H37783   4.194   2.360   0.073  1.8107 -1.5467 -0.3276
 1021MOL0     H37784   4.182   2.051   0.042  1.3762 -0.4790 -1.2868
 1021MOL0     H37785   4.235   2.146  -0.096  1.5545  0.0808  0.2389
 1021MOL0     H37786   4.490   2.252  -0.046 -1.3187 -1.1590 -0.1798
 1021MOL0     H37787   4.752   2.240   0.066 -2.3214  0.1413 -1.7461
 1021MOL0     H37788   4.673   2.369   0.165 -2.9878 -1.1617  0.3617
 1021MOL0     H37789   4.725   2.246   0.374 -4.5668 -0.8422 -1.7538
 1021MOL0     H37790   4.784   2.100   0.276  0.0748 -0.2764 -0.8187
 1021MOL0     H37791   4.916   2.362   0.271  0.3447 -0.0165  0.6891
 1021MOL0     H37792   4.976   2.205   0.193  0.5358  1.0809 -0.1867
 1021MOL0     H37793   5.121   2.266   0.358  1.6334 -1.0104  1.6219
 1021MOL0     H37794   5.060   2.110   0.390  1.5116  0.8961  0.8604
 1021MOL0     H37795   5.090   2.022   0.578 -0.7260  0.4568 -0.6491
 1021MOL0     H37796   5.205   1.959   0.775 -0.3842  0.5660  3.1276
 1021MOL0     H37797   5.249   2.216   1.279 -0.6709 -2.3360  2.1681
 1021MOL0     H37798   5.396   2.137   1.469 -1.7363 -3.8158 -0.2000
 1021MOL0     H37799   5.749   1.937   1.414 -0.4921  1.8589 -1.8392
 1021MOL0     H37800   5.838   2.073   1.427 -0.2375 -1.3627 -2.0230
 1021MOL0     H37801   5.771   2.099   1.673 -0.5149 -0.4649  0.4924
 1021MOL0     H37802   5.723   1.941   1.671 -1.1024  1.6482  1.5201
 1021MOL0     H37803   6.013   2.025   1.588 -0.0239  1.3873  0.5481
 1021MOL0     H37804   5.973   1.947   1.738 -1.4467  1.2921  0.4178
 1021MOL0     H37805   5.899   1.804   1.471 -0.0102  0.1986  0.0040
 1021MOL0     H37806   5.939   1.740   1.635  2.0032  2.2493  3.3482
 1021MOL0     H37807   6.121   1.824   1.427  1.2277  0.8781  0.5102
 1021MOL0     H37808   6.088   1.661   1.506  1.9811 -0.5895  2.1428
 1021MOL0     H37809   6.214   1.909   1.655 -0.1074 -0.3176  1.0551
 1021MOL0     H37810   6.165   1.762   1.724 -0.3237  0.1786  0.3225
 1021MOL0     H37811   6.345   1.652   1.560 -1.3356  0.0785  0.2391
 1021MOL0     H37812   6.416   1.777   1.672 -0.9919  0.3148  0.0224
 1021MOL0     H37813   6.308   1.861   1.398  1.5213  1.0605 -1.3898
 1021MOL0     H37814   6.415   1.951   1.505  1.6361 -0.0527 -0.3339
 1021MOL0     H37815   5.738   2.140   1.256  0.5316 -2.1105 -1.0677
 1021MOL0     H37816   5.619   2.198   1.043  0.2770 -0.5134 -0.4040
 1021MOL0     H37817   5.181   2.363   0.919 -1.0110 -1.1501  1.5525
 1021MOL0     H37818   5.054   2.425   0.711 -1.4643  0.2224  1.1825
 1021MOL0     H37819   3.470   2.673   0.176 -0.2170 -0.8296 -1.4040
 1021MOL0     H37820   3.268   2.800   0.266  1.7729 -0.5319  0.0815
 1021MOL0     H37821   2.933   2.869   0.590  1.5357 -2.2185 -1.5915
 1021MOL0     H37822   2.695   2.958   0.628 -0.0429  0.6411 -0.0689
 1021MOL0     H37823   2.482   2.926   0.336 -0.3645  1.3289 -0.9173
 1021MOL0     H37824   2.475   3.036   0.458 -2.1183 -1.0410  0.9862
 1021MOL0     H37825   2.263   2.856   0.352  2.1773 -0.9583  1.6264
 1021MOL0     H37826   2.260   3.031   0.372 -1.6719  0.5546  2.8190
 1021MOL0     H37827   2.253   3.006   0.618  1.2780 -0.1818 -0.5755
 1021MOL0     H37828   2.240   2.828   0.603 -0.5157  0.0964 -0.0372
 1021MOL0     H37829   2.037   2.842   0.471 -2.4297  0.3628  0.4944
 1021MOL0     H37830   2.013   2.888   0.637  2.9017 -1.3850 -0.8956
 1021MOL0     H37831   1.905   3.255   0.467  0.6453 -0.5870  3.0082
 1021MOL0     H37832   2.541   2.621   0.412 -0.9287 -0.0974 -0.1437
 1021MOL0     H37833   2.656   2.476   0.291  1.2952  3.2738 -2.3305
 1021MOL0     H37834   2.829   2.471   0.296  0.2964  0.0391  0.0535
 1021MOL0     H37835   2.730   2.400   0.423 -1.3980 -0.5800 -1.3584
 1022MOL0     O37836   8.999  11.157   5.162 -0.8118 -0.0215 -0.2020
 1022MOL0     C37837   8.920  11.059   5.170 -0.1905 -0.5003  0.0151
 1022MOL0     O37838   8.907  10.974   5.274 -0.6473  0.2544  0.4627
 1022MOL0     C37839   9.005  10.988   5.372 -1.0735  0.0182  0.0842
 1022MOL0     C37840   9.095  10.880   5.380 -0.1190  0.7375  0.7422
 1022MOL0     C37841   9.200  10.893   5.477  0.4828 -0.3554 -0.1013
 1022MOL0     C37842   9.202  11.007   5.564 -0.3082 -0.4102  0.2563
 1022MOL0     O37843   9.287  11.026   5.675  0.6166 -0.2447  0.2656
 1022MOL0     C37844   9.422  11.048   5.629  0.3236 -0.4887  0.0239
 1022MOL0     C37845   9.447  11.196   5.595 -0.1450  1.0308  0.7545
 1022MOL0     C37846   9.598  11.237   5.624 -0.2959 -0.3908 -0.6044
 1022MOL0     C37847   9.690  11.253   5.500  0.2309  0.3275 -0.6541
 1022MOL0     C37848   9.835  11.290   5.534  0.2701 -0.9443  0.4971
 1022MOL0     C37849   9.906  11.175   5.613  1.2485  0.9745  0.4014
 1022MOL0     C37850  10.049  11.204   5.648  0.0271  0.2062  0.3104
 1022MOL0     C37851  10.104  11.102   5.745 -0.4174 -0.4059  0.3716
 1022MOL0     N37852  10.243  11.137   5.780  0.3048 -0.4309  0.1784
 1022MOL0     C37853  10.298  11.211   5.884  0.4607 -0.1272  0.1927
 1022MOL0     C37854  10.426  11.162   5.897 -0.4993 -0.7050 -0.1971
 1022MOL0     C37855  10.532  11.224   5.978  0.2176  1.0778 -0.6660
 1022MOL0     C37856  10.508  11.176   6.127  0.0104 -0.2618 -0.8441
 1022MOL0     C37857  10.570  11.285   6.225 -0.1263  0.2741  0.1130
 1022MOL0     C37858  10.714  11.337   6.188  0.1133 -0.4974  0.2538
 1022MOL0     O37859  10.709  11.472   6.135  0.2339  0.3624 -0.9256
 1022MOL0     C37860  10.833  11.527   6.118  0.3746 -0.7746 -0.7086
 1022MOL0     C37861  10.829  11.663   6.121 -0.0527  0.5900 -0.4498
 1022MOL0     C37862  10.933  11.740   6.070  0.3660 -0.5454 -0.2342
 1022MOL0     C37863  11.048  11.678   6.019  0.1876 -0.1642  0.6101
 1022MOL0     C37864  11.160  11.761   5.966  0.0514  0.2232 -0.1384
 1022MOL0     O37865  11.154  11.894   5.987  0.0757  0.5556 -0.3810
 1022MOL0     C37866  11.209  11.981   5.894 -0.3191 -0.2412 -0.4949
 1022MOL0     C37867  11.163  11.977   5.758 -0.3647  0.3297  1.1627
 1022MOL0     C37868  11.212  12.065   5.655  0.4919  1.0175 -0.3377
 1022MOL0     C37869  11.314  12.153   5.688 -0.4829 -0.3230  0.3145
 1022MOL0     O37870  11.366  12.246   5.600  0.5289  0.3427  0.2578
 1022MOL0     C37871  11.307  12.374   5.614 -0.4184 -0.3657  0.4839
 1022MOL0     C37872  11.327  12.456   5.483 -0.5967  0.3362 -0.6917
 1022MOL0     C37873  11.474  12.453   5.440  1.1469 -0.0448  0.0135
 1022MOL0     C37874  11.492  12.510   5.297  0.0059 -0.1476  0.3217
 1022MOL0     C37875  11.546  12.417   5.192 -0.6295  0.1050  0.0453
 1022MOL0     C37876  11.591  12.506   5.075 -0.8216  0.1146 -0.8409
 1022MOL0     C37877  11.654  12.454   4.944  0.4738 -0.3855  0.2536
 1022MOL0     C37878  11.765  12.351   4.974 -0.5760  0.6761  0.3407
 1022MOL0    Cl37879  11.894  12.442   5.036 -0.0102 -0.6299 -0.9081
 1022MOL0     C37880  11.365  12.152   5.826  0.4729 -0.2998  0.8708
 1022MOL0     C37881  11.314  12.062   5.928  0.0192 -0.7785 -0.0891
 1022MOL0     O37882  11.231  11.705   5.882  0.3091  0.3744 -0.2566
 1022MOL0     C37883  11.059  11.537   6.036 -0.0805 -0.1202 -0.2042
 1022MOL0     C37884  10.951  11.466   6.088  0.1977  0.6762  0.0715
 1022MOL0     N37885  10.444  11.063   5.804  0.8184  0.6818 -0.2656
 1022MOL0     N37886  10.341  11.047   5.734  0.8451 -0.9739  0.0241
 1022MOL0     C37887   9.104  11.101   5.565  0.5483  0.2764  0.2632
 1022MOL0     C37888   9.008  11.096   5.462  0.5995 -0.0253  0.0783
 1022MOL0     C37889   8.826  11.035   5.060  0.0304 -0.1476  1.1371
 1022MOL0     C37890   8.758  10.910   5.056  0.1906 -0.9732 -0.6103
 1022MOL0     C37891   8.689  10.861   4.943 -0.0125 -0.6272  0.0881
 1022MOL0     C37892   8.684  10.954   4.834  0.0230  0.2203 -0.4697
 1022MOL0     O37893   8.613  10.936   4.717 -0.8442 -0.3520 -0.4892
 1022MOL0     C37894   8.558  10.808   4.684  0.6891 -1.1974 -1.5158
 1022MOL0     C37895   8.498  10.817   4.545  0.3846  0.6915  0.6407
 1022MOL0     C37896   8.374  10.901   4.531 -0.2603 -0.2587 -0.4357
 1022MOL0     C37897   8.312  10.906   4.388  0.4489 -0.1306 -0.2408
 1022MOL0     C37898   8.170  10.953   4.383 -0.4865  0.1579 -0.2128
 1022MOL0     C37899   8.054  10.968   4.361 -0.5647 -0.2365  0.4415
 1022MOL0     C37900   8.737  11.077   4.840 -0.6225  0.2717 -0.5658
 1022MOL0     C37901   8.809  11.129   4.949  0.0828 -0.3188 -0.9161
 1022MOL0     C37902   8.864  11.260   4.939 -0.3347 -1.3339  0.5886
 1022MOL0     H37903   9.094  10.790   5.319  0.4967  0.2495  1.4354
 1022MOL0     H37904   9.273  10.817   5.504  0.1407 -0.0359  1.8685
 1022MOL0     H37905   9.487  11.009   5.708  0.8623  1.7332  0.7398
 1022MOL0     H37906   9.445  10.988   5.541 -0.1253 -2.6920  1.3354
 1022MOL0     H37907   9.390  11.263   5.659  0.0090  2.7345 -0.8098
 1022MOL0     H37908   9.426  11.219   5.490  4.3608 -0.4741 -0.7259
 1022MOL0     H37909   9.635  11.155   5.686  1.1546 -0.7491 -1.8682
 1022MOL0     H37910   9.611  11.328   5.684  2.1299 -2.1489  1.7761
 1022MOL0     H37911   9.688  11.150   5.463 -0.4965 -0.8935  2.3995
 1022MOL0     H37912   9.647  11.322   5.428 -0.1062  0.0827 -0.6918
 1022MOL0     H37913   9.889  11.323   5.445  0.0618  2.0829  1.3971
 1022MOL0     H37914   9.845  11.376   5.600 -1.8423 -2.1177  2.5138
 1022MOL0     H37915   9.848  11.159   5.704  0.3126 -1.9208 -0.5839
 1022MOL0     H37916   9.885  11.092   5.544 -1.2883  1.9053 -0.0655
 1022MOL0     H37917  10.047  11.310   5.674  3.4819  0.3990  0.2105
 1022MOL0     H37918  10.113  11.199   5.559  0.0553  1.3361  0.2571
 1022MOL0     H37919  10.047  11.089   5.837 -0.6159 -0.2703  0.2678
 1022MOL0     H37920  10.103  11.002   5.699  2.1133 -1.4427  2.2861
 1022MOL0     H37921  10.251  11.289   5.943  2.1210  1.5615 -0.5922
 1022MOL0     H37922  10.627  11.189   5.938 -1.2283 -2.3499 -1.5231
 1022MOL0     H37923  10.523  11.332   5.966  0.5139  1.2791  0.8301
 1022MOL0     H37924  10.402  11.162   6.150  0.1274 -3.0081 -1.5743
 1022MOL0     H37925  10.541  11.076   6.154 -1.9074 -0.9055 -0.7050
 1022MOL0     H37926  10.590  11.221   6.311 -0.5337 -1.8032 -1.2468
 1022MOL0     H37927  10.496  11.359   6.258 -2.1249 -1.3067 -0.6216
 1022MOL0     H37928  10.762  11.269   6.117  1.1007 -2.0694  2.3306
 1022MOL0     H37929  10.777  11.333   6.277 -0.5991 -0.2436  0.7845
 1022MOL0     H37930  10.741  11.719   6.152  0.7990  1.0665  1.2554
 1022MOL0     H37931  10.929  11.847   6.081 -3.3527 -0.5014 -0.7100
 1022MOL0     H37932  11.102  11.890   5.736  1.6500 -0.6139 -1.2306
 1022MOL0     H37933  11.170  12.057   5.556  1.7285 -0.8152 -0.7627
 1022MOL0     H37934  11.199  12.365   5.633 -0.6093 -0.6284 -0.6685
 1022MOL0     H37935  11.348  12.433   5.697  2.7126 -1.0030 -0.4765
 1022MOL0     H37936  11.278  12.392   5.409  1.7382 -2.4224 -0.0069
 1022MOL0     H37937  11.294  12.559   5.498 -3.6639 -0.8250  1.5124
 1022MOL0     H37938  11.542  12.510   5.503  1.0649 -1.1537  1.1263
 1022MOL0     H37939  11.510  12.350   5.446  1.8119  0.1812 -0.0090
 1022MOL0     H37940  11.578  12.576   5.317  0.0283  0.4843 -1.6713
 1022MOL0     H37941  11.404  12.557   5.253 -1.4866 -0.9426  2.3123
 1022MOL0     H37942  11.479  12.338   5.158  1.7655 -2.0994  0.1082
 1022MOL0     H37943  11.623  12.360   5.246 -0.5547 -1.0609 -1.2381
 1022MOL0     H37944  11.498  12.560   5.053 -0.9366 -0.5462 -2.0478
 1022MOL0     H37945  11.656  12.586   5.112 -0.7894 -0.8347  1.2558
 1022MOL0     H37946  11.684  12.539   4.881  3.2938 -0.3825  1.4180
 1022MOL0     H37947  11.575  12.397   4.896 -0.0093 -0.5804  1.2513
 1022MOL0     H37948  11.734  12.269   5.040  2.3644 -1.2646 -0.4720
 1022MOL0     H37949  11.798  12.297   4.884 -3.2006 -0.6847  0.0979
 1022MOL0     H37950  11.449  12.213   5.859 -0.3155  1.0128  0.5353
 1022MOL0     H37951  11.347  12.063   6.031 -0.3373  0.8260  0.0387
 1022MOL0     H37952  11.153  11.485   6.020 -0.6724 -1.8724  1.6270
 1022MOL0     H37953  10.960  11.360   6.108  3.3162  1.1520  1.7573
 1022MOL0     H37954   9.090  11.188   5.628  0.2002  0.9012 -0.6567
 1022MOL0     H37955   8.947  11.185   5.449  2.2519  2.1548  4.7203
 1022MOL0     H37956   8.772  10.842   5.139  1.7534  0.9060  0.7573
 1022MOL0     H37957   8.642  10.764   4.940 -2.3815  0.4443 -1.8883
 1022MOL0     H37958   8.476  10.778   4.749  2.9103 -0.4147  1.9338
 1022MOL0     H37959   8.639  10.735   4.694  2.0822  0.2924 -1.5892
 1022MOL0     H37960   8.474  10.716   4.510 -0.1481  0.9635  0.2023
 1022MOL0     H37961   8.572  10.850   4.471  0.5215 -3.4704 -1.3355
 1022MOL0     H37962   8.408  10.999   4.563  1.5748 -0.7187 -0.8558
 1022MOL0     H37963   8.299  10.853   4.595  2.8725 -2.5969  1.7937
 1022MOL0     H37964   8.375  10.968   4.323 -2.0949  2.4635 -0.4447
 1022MOL0     H37965   8.305  10.806   4.345 -0.6528  0.9818 -2.8895
 1022MOL0     H37966   7.954  10.996   4.336 -0.9911 -3.4262 -2.0772
 1022MOL0     H37967   8.713  11.137   4.753 -0.4770 -0.7317 -1.3108
 1022MOL0     H37968   8.970  11.247   4.916  0.1541 -0.6107  2.2883
 1022MOL0     H37969   8.809  11.319   4.865 -0.4861 -0.1941  1.5696
 1022MOL0     H37970   8.853  11.305   5.038 -0.2080  2.5048 -0.9503
 1023MOL0     O37971   1.574   2.595   4.068 -0.9256  0.0045 -0.4831
 1023MOL0     C37972   1.666   2.527   4.109 -0.3557 -0.6075 -0.7662
 1023MOL0     O37973   1.724   2.547   4.236  0.6354 -0.0345 -0.1225
 1023MOL0     C37974   1.647   2.626   4.328  0.5289 -0.4074  0.2159
 1023MOL0     C37975   1.679   2.760   4.349 -0.1904 -0.2131  0.0525
 1023MOL0     C37976   1.593   2.836   4.429 -0.2307  0.8883 -0.1993
 1023MOL0     C37977   1.481   2.774   4.494  0.7585 -0.7761 -0.9804
 1023MOL0     O37978   1.402   2.839   4.584 -0.0395  0.0123  0.2701
 1023MOL0     C37979   1.263   2.857   4.545  0.0321 -0.3347  0.5425
 1023MOL0     C37980   1.166   2.856   4.662  0.0154 -0.0981  0.2645
 1023MOL0     C37981   1.024   2.892   4.632  0.3823 -0.6055 -0.3769
 1023MOL0     C37982   0.938   2.781   4.565  0.7650 -0.6448  0.0720
 1023MOL0     C37983   0.827   2.848   4.484 -0.2563 -0.8576 -0.6421
 1023MOL0     C37984   0.732   2.751   4.411  0.8420  0.1042 -0.2906
 1023MOL0     C37985   0.615   2.698   4.503 -0.5025  0.2664  0.5019
 1023MOL0     C37986   0.524   2.598   4.427 -0.0138 -0.7092  0.1861
 1023MOL0     N37987   0.596   2.486   4.364 -0.7244 -0.2709  0.3613
 1023MOL0     C37988   0.541   2.430   4.248 -0.1125  0.4295 -0.8832
 1023MOL0     C37989   0.628   2.322   4.214 -0.1518 -0.5902 -0.1301
 1023MOL0     C37990   0.646   2.265   4.078 -0.2731  0.1743  0.2700
 1023MOL0     C37991   0.634   2.114   4.085  0.0190 -0.2012  0.7827
 1023MOL0     C37992   0.660   2.057   3.948 -0.1131  0.3877 -1.2411
 1023MOL0     C37993   0.652   1.894   3.934 -0.2501 -0.0880 -0.3572
 1023MOL0     O37994   0.553   1.852   4.021 -0.3219  0.1385  0.2496
 1023MOL0     C37995   0.563   1.716   4.048 -0.3410  0.0695  0.0220
 1023MOL0     C37996   0.629   1.624   3.958  0.8113  0.6317  0.5851
 1023MOL0     C37997   0.647   1.490   3.994 -0.2795  0.2843  0.3564
 1023MOL0     C37998   0.604   1.442   4.118 -0.1670  0.1805  0.0617
 1023MOL0     C37999   0.620   1.299   4.159 -0.1511  0.3422  0.4378
 1023MOL0     O38000   0.659   1.213   4.058  0.0710 -0.1823 -0.3506
 1023MOL0     C38001   0.623   1.084   4.053 -0.3671  0.7591  0.0857
 1023MOL0     C38002   0.564   1.002   4.154  0.2696  0.4038  0.0843
 1023MOL0     C38003   0.537   0.867   4.132 -0.4623  0.4295 -1.1943
 1023MOL0     C38004   0.557   0.804   4.009  0.8817  0.1932 -0.2548
 1023MOL0     O38005   0.539   0.669   3.982  0.7642 -0.4684  0.0130
 1023MOL0     C38006   0.616   0.581   4.057 -0.7592 -0.2319 -0.0125
 1023MOL0     C38007   0.506   0.472   4.062  1.2293  0.4483  0.5791
 1023MOL0     C38008   0.549   0.345   4.141 -0.2162  0.7680 -0.3893
 1023MOL0     C38009   0.670   0.255   4.092 -0.1821  0.0572  0.8485
 1023MOL0     C38010   0.685   0.128   4.175 -0.6999  0.1785  0.0263
 1023MOL0     C38011   0.745   0.155   4.319 -0.4883 -0.4054  0.1833
 1023MOL0     C38012   0.762   0.020   4.393 -1.0152 -1.2014  0.6766
 1023MOL0     C38013   0.828   0.051   4.527  0.0146 -0.1272  0.3754
 1023MOL0    Cl38014   0.892  -0.098   4.595  0.6372  0.1854  0.7696
 1023MOL0     C38015   0.613   0.880   3.912  0.1668 -0.4456  0.7570
 1023MOL0     C38016   0.652   1.012   3.928  0.2895 -0.6001 -0.4096
 1023MOL0     O38017   0.580   1.270   4.267 -0.8304 -0.3386 -0.0106
 1023MOL0     C38018   0.542   1.527   4.203  0.1487  0.5250 -0.3219
 1023MOL0     C38019   0.530   1.661   4.172 -0.7914 -1.0931  0.1311
 1023MOL0     N38020   0.724   2.316   4.313  0.1445 -0.0556 -0.3645
 1023MOL0     N38021   0.694   2.407   4.408  0.6504 -0.1960  0.0368
 1023MOL0     C38022   1.455   2.631   4.474 -0.3987 -0.1666 -0.6095
 1023MOL0     C38023   1.532   2.559   4.394 -0.0655 -0.2611 -0.1572
 1023MOL0     C38024   1.717   2.412   4.027  0.2204  0.5397 -0.4185
 1023MOL0     C38025   1.837   2.346   4.075 -0.4399 -0.7583 -1.0519
 1023MOL0     C38026   1.877   2.230   4.018 -0.6070 -0.2771  0.7159
 1023MOL0     C38027   1.820   2.184   3.899  0.5943  0.0381  0.1466
 1023MOL0     O38028   1.874   2.078   3.842 -0.8939  0.1727 -0.2854
 1023MOL0     C38029   1.922   2.109   3.709 -0.1788  0.0042  0.1884
 1023MOL0     C38030   2.066   2.061   3.691  0.3076  0.5146  0.2753
 1023MOL0     C38031   2.178   2.142   3.762  0.7951 -0.6063  0.1203
 1023MOL0     C38032   2.196   2.285   3.710 -0.0517 -0.9149 -1.0276
 1023MOL0     C38033   2.223   2.287   3.567  0.2412 -1.1086  0.4094
 1023MOL0     C38034   2.243   2.293   3.452 -0.0499 -0.1470 -0.5495
 1023MOL0     C38035   1.710   2.245   3.856 -0.3237  0.1295  0.4579
 1023MOL0     C38036   1.655   2.362   3.909  0.4897  0.2099  0.0453
 1023MOL0     C38037   1.531   2.420   3.843  0.0964  0.1298  0.1666
 1023MOL0     H38038   1.765   2.791   4.291 -0.1150 -2.9283 -1.4476
 1023MOL0     H38039   1.622   2.939   4.451  2.5151  0.7234 -2.4852
 1023MOL0     H38040   1.260   2.955   4.497 -1.4782  0.4562  2.1417
 1023MOL0     H38041   1.237   2.782   4.470  1.5346 -1.0462  0.6864
 1023MOL0     H38042   1.210   2.927   4.733  0.1409 -2.5139  2.7817
 1023MOL0     H38043   1.171   2.765   4.722 -1.8633  0.7480  1.8365
 1023MOL0     H38044   1.024   2.982   4.569  1.4714 -0.8823 -0.7981
 1023MOL0     H38045   0.982   2.908   4.731  0.5087 -0.6816 -0.3109
 1023MOL0     H38046   0.999   2.726   4.493 -0.2700 -3.1977  1.0465
 1023MOL0     H38047   0.895   2.711   4.637  1.5292 -0.9444  0.2412
 1023MOL0     H38048   0.764   2.917   4.540  0.2609  0.7682 -1.9720
 1023MOL0     H38049   0.877   2.898   4.400 -1.7731 -1.1840 -1.7742
 1023MOL0     H38050   0.681   2.808   4.332  0.9773 -2.3291 -2.2717
 1023MOL0     H38051   0.791   2.672   4.364 -1.2284  0.7117 -4.3829
 1023MOL0     H38052   0.558   2.789   4.526  0.8716  0.6405  2.8149
 1023MOL0     H38053   0.647   2.649   4.595  3.0707 -0.0989 -0.7802
 1023MOL0     H38054   0.447   2.568   4.500 -2.2948  0.2937 -1.6669
 1023MOL0     H38055   0.465   2.632   4.341  2.3358 -2.3928 -2.2451
 1023MOL0     H38056   0.459   2.456   4.181 -0.4664 -0.2432 -0.7160
 1023MOL0     H38057   0.554   2.294   4.028 -0.7299 -2.7307 -0.7316
 1023MOL0     H38058   0.744   2.291   4.036  0.6627 -1.7757  1.0993
 1023MOL0     H38059   0.696   2.072   4.165  0.1625  0.0701  0.8169
 1023MOL0     H38060   0.528   2.097   4.105 -0.2607  0.9596  0.3708
 1023MOL0     H38061   0.756   2.089   3.907  0.3168  1.3281  0.4267
 1023MOL0     H38062   0.574   2.093   3.890 -0.3651  0.4597 -0.8282
 1023MOL0     H38063   0.747   1.845   3.958  1.8166  4.3466  1.5516
 1023MOL0     H38064   0.612   1.884   3.833 -0.5905 -0.7796 -0.1613
 1023MOL0     H38065   0.671   1.660   3.865  1.2391  0.8513  0.8592
 1023MOL0     H38066   0.709   1.423   3.936  1.0963  2.6561 -1.0636
 1023MOL0     H38067   0.562   1.033   4.258  0.2178  1.5374 -0.2447
 1023MOL0     H38068   0.493   0.810   4.213 -2.5052  3.7450  0.2046
 1023MOL0     H38069   0.699   0.548   3.994 -1.5628  2.4739 -2.7294
 1023MOL0     H38070   0.645   0.610   4.158  3.4595 -1.2208 -0.7545
 1023MOL0     H38071   0.424   0.503   4.127 -0.1065 -3.5911  1.0885
 1023MOL0     H38072   0.464   0.445   3.964  1.5902 -0.8430  0.7561
 1023MOL0     H38073   0.565   0.351   4.250  0.4528 -3.3796 -0.1088
 1023MOL0     H38074   0.466   0.277   4.123  3.2566 -3.0835 -3.5852
 1023MOL0     H38075   0.761   0.315   4.082  1.3274 -2.4473 -2.1381
 1023MOL0     H38076   0.656   0.225   3.987 -1.4483  1.5921  0.5353
 1023MOL0     H38077   0.755   0.065   4.119  2.0387  2.4072  0.7323
 1023MOL0     H38078   0.587   0.080   4.177  0.0826 -1.4664  0.5129
 1023MOL0     H38079   0.842   0.201   4.298 -0.1159 -1.5138 -0.6198
 1023MOL0     H38080   0.682   0.218   4.382  1.2710 -0.8587  2.5394
 1023MOL0     H38081   0.818  -0.047   4.328 -0.6383 -1.6693  1.4705
 1023MOL0     H38082   0.673  -0.040   4.413 -0.5484 -2.1407 -0.0203
 1023MOL0     H38083   0.900   0.127   4.499 -3.5762  2.7226 -2.1706
 1023MOL0     H38084   0.757   0.100   4.596  1.0735  2.1985 -0.1136
 1023MOL0     H38085   0.634   0.841   3.813 -0.6319 -0.2446  0.5046
 1023MOL0     H38086   0.695   1.072   3.849  1.7786 -0.2734  0.5895
 1023MOL0     H38087   0.529   1.503   4.308 -3.9124 -0.8467 -0.9650
 1023MOL0     H38088   0.499   1.728   4.252 -0.9020 -2.3997  1.2108
 1023MOL0     H38089   1.371   2.594   4.532 -0.0657 -0.4336 -0.3002
 1023MOL0     H38090   1.496   2.459   4.370 -0.5141  0.0208 -0.7137
 1023MOL0     H38091   1.892   2.384   4.160  0.2236  1.0234 -2.2123
 1023MOL0     H38092   1.957   2.178   4.069 -0.3493  0.4226  1.0429
 1023MOL0     H38093   1.916   2.214   3.678 -0.6877  0.0181  0.3265
 1023MOL0     H38094   1.860   2.048   3.644 -1.3143  0.6034  0.6803
 1023MOL0     H38095   2.095   2.073   3.587 -0.6059 -1.4388 -0.2368
 1023MOL0     H38096   2.066   1.952   3.701 -0.2681  0.6006  1.4512
 1023MOL0     H38097   2.275   2.096   3.742  1.2096 -0.6427  1.9660
 1023MOL0     H38098   2.165   2.128   3.870  1.2971 -0.2619  0.2311
 1023MOL0     H38099   2.111   2.348   3.738  0.7776 -0.8319  1.5610
 1023MOL0     H38100   2.280   2.321   3.770  0.6450 -0.7784 -2.0609
 1023MOL0     H38101   2.262   2.303   3.347  0.2794  1.0009 -0.3993
 1023MOL0     H38102   1.681   2.198   3.763 -0.4373  0.1458  0.4851
 1023MOL0     H38103   1.506   2.374   3.747  0.8598  3.2500 -1.6644
 1023MOL0     H38104   1.444   2.399   3.905 -0.1186 -2.5001 -0.8705
 1023MOL0     H38105   1.553   2.524   3.820 -2.0632  0.8668  1.2207
 1024MOL0     O38106   9.108   4.526   3.632  0.1371 -0.4901 -0.2081
 1024MOL0     C38107   9.013   4.543   3.549  0.5062 -0.0283 -1.3129
 1024MOL0     O38108   8.894   4.603   3.575 -0.0710 -0.2057 -0.2424
 1024MOL0     C38109   8.865   4.637   3.702  0.4342 -0.4991  0.3358
 1024MOL0     C38110   8.826   4.773   3.727 -0.1685  0.2166 -0.9411
 1024MOL0     C38111   8.779   4.824   3.853 -1.0919 -0.7340 -0.6191
 1024MOL0     C38112   8.792   4.745   3.969  0.3512  0.7429 -0.2788
 1024MOL0     O38113   8.774   4.814   4.085 -0.4331  0.7810  0.9490
 1024MOL0     C38114   8.812   4.750   4.206  0.3490  0.8597  1.1799
 1024MOL0     C38115   8.819   4.846   4.325 -0.8178 -0.9174 -0.1233
 1024MOL0     C38116   8.862   4.785   4.457 -0.7201  0.0891 -0.7593
 1024MOL0     C38117   8.841   4.865   4.587  0.5910  0.4546 -0.4019
 1024MOL0     C38118   8.700   4.852   4.634 -0.2987  0.6748 -0.1215
 1024MOL0     C38119   8.685   4.920   4.769 -1.1617  0.3530  0.3883
 1024MOL0     C38120   8.538   4.927   4.830  0.1051 -0.0348  0.0648
 1024MOL0     C38121   8.531   4.933   4.985  0.1131 -0.1470 -0.1193
 1024MOL0     N38122   8.394   4.975   5.026  0.4380  0.0515  0.1516
 1024MOL0     C38123   8.297   5.037   4.946  0.3975 -0.2869  0.4756
 1024MOL0     C38124   8.194   5.038   5.033 -0.2982 -0.1245  0.2451
 1024MOL0     C38125   8.056   5.088   5.021  0.2720  0.0857  0.1104
 1024MOL0     C38126   7.944   4.989   5.061 -0.7031 -0.5070  0.4939
 1024MOL0     C38127   7.961   4.854   4.981 -0.4590 -0.0902 -0.1072
 1024MOL0     C38128   7.833   4.769   4.984  0.4137  0.0753  0.1422
 1024MOL0     O38129   7.729   4.841   4.920 -0.0880  0.4376 -0.1157
 1024MOL0     C38130   7.750   4.871   4.790  0.5922  0.2163 -0.5321
 1024MOL0     C38131   7.767   5.007   4.767  0.7530  0.7568 -0.6520
 1024MOL0     C38132   7.784   5.036   4.629  0.7004 -0.8003 -0.0064
 1024MOL0     C38133   7.794   4.938   4.524  0.3483  0.5159 -0.0539
 1024MOL0     C38134   7.812   4.992   4.385  0.2961 -0.8293  0.4235
 1024MOL0     O38135   7.786   4.903   4.283  0.1042  0.2452  0.8767
 1024MOL0     C38136   7.777   4.935   4.146 -0.1268 -0.2197  0.5938
 1024MOL0     C38137   7.729   4.833   4.064 -0.5503  0.0345  0.2735
 1024MOL0     C38138   7.722   4.837   3.921  0.0638  0.0390  1.0616
 1024MOL0     C38139   7.755   4.957   3.864  0.0537  0.1306 -0.0911
 1024MOL0     O38140   7.730   4.976   3.729 -0.5765 -0.4605  0.5847
 1024MOL0     C38141   7.831   5.029   3.645  0.2144 -0.2545 -0.9270
 1024MOL0     C38142   7.814   5.183   3.620 -0.0505  0.5695 -1.4322
 1024MOL0     C38143   7.942   5.253   3.572  0.4936  0.1010 -0.1192
 1024MOL0     C38144   7.937   5.236   3.425 -0.3935  0.1859  0.0792
 1024MOL0     C38145   8.076   5.280   3.362 -0.6394  0.5246 -0.1253
 1024MOL0     C38146   8.066   5.274   3.207 -0.4999 -0.1171 -1.0040
 1024MOL0     C38147   8.204   5.299   3.133 -0.3364  1.0910  0.5506
 1024MOL0     C38148   8.242   5.197   3.023  0.5478  0.7012 -0.2895
 1024MOL0    Cl38149   8.123   5.202   2.885  0.4671  0.1226  0.0418
 1024MOL0     C38150   7.798   5.060   3.943 -1.4480  0.0833  0.4659
 1024MOL0     C38151   7.811   5.051   4.077 -0.6653  0.7287  0.2649
 1024MOL0     O38152   7.820   5.115   4.368  0.0685  0.4630 -0.9966
 1024MOL0     C38153   7.784   4.807   4.557  0.1989  0.9133 -0.3408
 1024MOL0     C38154   7.764   4.776   4.689  0.4160  0.0558  0.1201
 1024MOL0     N38155   8.225   4.973   5.153 -0.3900 -0.3276  0.2521
 1024MOL0     N38156   8.350   4.943   5.148 -1.5139  0.3879  0.2988
 1024MOL0     C38157   8.835   4.610   3.947 -0.1091 -1.1196 -0.4433
 1024MOL0     C38158   8.862   4.555   3.822 -0.3877 -0.3274  0.2637
 1024MOL0     C38159   9.038   4.495   3.418  0.0360 -0.2342  0.4984
 1024MOL0     C38160   9.160   4.514   3.362  0.0362  1.0461  0.0717
 1024MOL0     C38161   9.186   4.479   3.236 -0.4307  0.2890  0.9156
 1024MOL0     C38162   9.088   4.418   3.146 -0.1888 -1.0365  0.5693
 1024MOL0     O38163   9.132   4.378   3.022 -0.2146  0.0116 -0.2099
 1024MOL0     C38164   9.247   4.299   3.031 -0.1853  0.4384  0.3129
 1024MOL0     C38165   9.255   4.241   2.890 -0.1715  0.2782 -0.1965
 1024MOL0     C38166   9.280   4.348   2.780 -0.2097  0.1584 -0.2284
 1024MOL0     C38167   9.294   4.292   2.637  0.0109 -0.8423 -1.0994
 1024MOL0     C38168   9.167   4.230   2.589  0.0896 -0.4094 -0.3084
 1024MOL0     C38169   9.058   4.180   2.565 -0.3889  0.4278  0.7488
 1024MOL0     C38170   8.955   4.415   3.199 -1.4447 -0.2543  1.0191
 1024MOL0     C38171   8.932   4.451   3.333  0.1006 -1.1542 -0.1294
 1024MOL0     C38172   8.792   4.421   3.383  0.0510  0.0714  0.2873
 1024MOL0     H38173   8.846   4.837   3.641 -2.1547  2.0544 -0.1298
 1024MOL0     H38174   8.740   4.924   3.868  2.5327  1.0389 -1.9134
 1024MOL0     H38175   8.734   4.678   4.230  0.2939  1.1420  1.8715
 1024MOL0     H38176   8.909   4.700   4.191  0.1197  1.2532 -2.4053
 1024MOL0     H38177   8.719   4.886   4.342  0.0433  0.7199  1.3760
 1024MOL0     H38178   8.890   4.921   4.290  3.1720 -3.9431  0.8044
 1024MOL0     H38179   8.968   4.764   4.473 -1.7290 -2.5224  5.2316
 1024MOL0     H38180   8.805   4.692   4.455 -0.4058 -0.1393 -3.5817
 1024MOL0     H38181   8.916   4.836   4.662 -1.8573 -2.9750  0.9644
 1024MOL0     H38182   8.847   4.972   4.565 -0.4364  0.7696  0.7451
 1024MOL0     H38183   8.625   4.899   4.570 -2.2335 -1.2696  0.5796
 1024MOL0     H38184   8.670   4.747   4.639 -3.1997  1.4629  1.7372
 1024MOL0     H38185   8.742   4.848   4.828 -3.5129 -3.0656 -1.1640
 1024MOL0     H38186   8.740   5.013   4.786  2.1202 -1.4111  0.1374
 1024MOL0     H38187   8.482   4.842   4.790  4.2677 -1.2903 -4.0005
 1024MOL0     H38188   8.493   5.020   4.794 -0.8186  0.1663  1.6472
 1024MOL0     H38189   8.564   4.836   5.024  1.7738  1.9732  4.5406
 1024MOL0     H38190   8.605   5.002   5.026 -0.2454  1.0204 -1.3867
 1024MOL0     H38191   8.296   5.077   4.845  0.0333  0.1157  0.6381
 1024MOL0     H38192   8.046   5.179   5.082  1.0201  0.8782 -0.9166
 1024MOL0     H38193   8.046   5.114   4.916  2.2822  1.9097  0.2946
 1024MOL0     H38194   7.941   4.957   5.165  0.9541 -1.8842  0.1654
 1024MOL0     H38195   7.848   5.039   5.041 -0.7533 -0.6737  0.3197
 1024MOL0     H38196   8.035   4.796   5.038  0.7492 -2.0887 -3.4496
 1024MOL0     H38197   7.997   4.847   4.878  0.6352 -1.7944  0.3470
 1024MOL0     H38198   7.798   4.729   5.079  1.3787 -3.2434 -0.7733
 1024MOL0     H38199   7.849   4.683   4.918  2.3310  2.4124 -2.7299
 1024MOL0     H38200   7.740   5.084   4.839 -0.4798  0.0290 -0.3018
 1024MOL0     H38201   7.773   5.142   4.610 -2.3543 -1.0895 -0.3898
 1024MOL0     H38202   7.705   4.736   4.107 -1.7514  0.0943 -0.2257
 1024MOL0     H38203   7.694   4.756   3.854 -0.5715 -0.1403  1.5319
 1024MOL0     H38204   7.926   5.008   3.694 -1.4398  1.0643  3.3310
 1024MOL0     H38205   7.814   4.986   3.546  3.0659  1.6827 -2.3914
 1024MOL0     H38206   7.725   5.195   3.557 -1.0618  0.6062 -0.0499
 1024MOL0     H38207   7.794   5.230   3.717 -1.1977  0.4392 -1.5954
 1024MOL0     H38208   7.947   5.361   3.587 -3.3031  0.2734  0.8664
 1024MOL0     H38209   8.024   5.189   3.605  0.6510  0.8214  0.9255
 1024MOL0     H38210   7.853   5.292   3.383  0.8529  1.6094 -0.6257
 1024MOL0     H38211   7.924   5.132   3.395  0.6453 -0.0629  0.4326
 1024MOL0     H38212   8.143   5.198   3.390 -3.0718 -2.3377 -1.9942
 1024MOL0     H38213   8.105   5.380   3.395 -2.4409  2.1099 -2.9172
 1024MOL0     H38214   8.031   5.175   3.177  1.0415 -0.8681 -0.4166
 1024MOL0     H38215   7.989   5.349   3.186  0.6360  2.4589  2.9887
 1024MOL0     H38216   8.283   5.301   3.208  1.0913  0.7385 -0.9007
 1024MOL0     H38217   8.210   5.397   3.084 -0.2865  0.6624 -0.3244
 1024MOL0     H38218   8.336   5.221   2.972  1.2833 -2.7732 -0.8464
 1024MOL0     H38219   8.260   5.098   3.065  0.0227  1.3598  1.6062
 1024MOL0     H38220   7.824   5.157   3.902  3.3092 -1.3629 -0.5526
 1024MOL0     H38221   7.861   5.137   4.119  5.1025  1.4292 -6.1744
 1024MOL0     H38222   7.794   4.730   4.481  0.0949  0.4156  0.1392
 1024MOL0     H38223   7.763   4.675   4.729 -0.2341  0.6505  1.6740
 1024MOL0     H38224   8.843   4.548   4.036  2.4275  1.6110  1.4189
 1024MOL0     H38225   8.869   4.447   3.812 -1.4435 -0.2256 -2.7735
 1024MOL0     H38226   9.230   4.562   3.430 -0.5192  1.4399  0.3731
 1024MOL0     H38227   9.289   4.499   3.205 -1.3489  1.0227 -1.9362
 1024MOL0     H38228   9.235   4.230   3.116 -2.2609  1.9278  1.3394
 1024MOL0     H38229   9.340   4.351   3.054 -1.3788  1.6607  2.8108
 1024MOL0     H38230   9.162   4.186   2.869  0.2774 -1.3423  1.6619
 1024MOL0     H38231   9.329   4.160   2.896 -0.7649 -0.3974 -1.5886
 1024MOL0     H38232   9.368   4.407   2.807 -0.1641  1.2829 -2.5999
 1024MOL0     H38233   9.196   4.418   2.783 -1.1327 -0.9289  0.4047
 1024MOL0     H38234   9.346   4.364   2.572  1.6337 -0.1081  0.9220
 1024MOL0     H38235   9.356   4.201   2.647 -1.0194 -1.3749  0.7549
 1024MOL0     H38236   8.972   4.140   2.515 -0.4943  0.3087  1.0262
 1024MOL0     H38237   8.875   4.368   3.144 -0.3916  1.0415 -1.8518
 1024MOL0     H38238   8.730   4.371   3.307  3.0557 -0.7703 -1.8268
 1024MOL0     H38239   8.789   4.351   3.467 -0.6685  0.4777  0.5985
 1024MOL0     H38240   8.737   4.509   3.415  1.6052  1.8130 -1.5389
  11.54807  11.54807  11.54807
